Protein in INSANE! Membrane UpperLeaflet>POPC=1.0 LowerLeaflet>POPC=1.0
247937
    1AU     AUC    1  31.110  20.782   7.489
    1AU     AUC    2  31.406  20.826   7.321
    1AU     AUC    3  31.379  20.801   7.655
    1AU     AUC    4  30.827  20.764   7.322
    1AU     AUC    5  30.839  20.764   7.675
    1AU     AUC    6  30.919  21.022   7.514
    1AU     AUC    7  31.252  21.055   7.491
    1AU     AUC    8  30.954  20.501   7.491
    1AU     AUC    9  31.310  20.551   7.477
    1AU     AUC   10  31.150  20.613   7.763
    1AU     AUC   11  31.094  20.937   7.768
    1AU     AUC   12  31.133  20.633   7.213
    1AU     AUC   13  31.122  20.965   7.223
    1AU     AUC   14  31.719  20.857   7.169
    1AU     AUC   15  31.757  20.845   7.486
    1AU     AUC   16  31.694  20.806   7.851
    1AU     AUC   17  30.524  20.737   7.150
    1AU     AUC   18  30.491  20.765   7.516
    1AU     AUC   19  30.545  20.744   7.863
    1AU     AUC   20  30.740  21.324   7.508
    1AU     AUC   21  31.076  21.395   7.490
    1AU     AUC   22  31.396  21.380   7.505
    1AU     AUC   23  30.780  20.178   7.492
    1AU     AUC   24  31.124  20.226   7.488
    1AU     AUC   25  31.515  20.267   7.450
    1AU     AUC   26  31.164  20.391   8.053
    1AU     AUC   27  31.124  20.713   8.096
    1AU     AUC   28  31.117  21.090   8.062
    1AU     AUC   29  31.133  20.439   6.915
    1AU     AUC   30  31.121  20.793   6.903
    1AU     AUC   31  31.133  21.145   6.926
    1AU     AUC   32  31.450  20.559   7.955
    1AU     AUC   33  31.419  20.927   8.001
    1AU     AUC   34  31.419  20.648   7.008
    1AU     AUC   35  31.443  21.016   6.999
    1AU     AUC   36  30.828  20.552   7.985
    1AU     AUC   37  30.826  20.905   7.989
    1AU     AUC   38  30.792  20.572   7.030
    1AU     AUC   39  30.788  20.945   7.015
    1AU     AUC   40  31.607  21.126   7.338
    1AU     AUC   41  31.553  21.086   7.695
    1AU     AUC   42  30.624  21.037   7.306
    1AU     AUC   43  30.612  21.059   7.701
    1AU     AUC   44  31.626  20.545   7.292
    1AU     AUC   45  31.635  20.513   7.620
    1AU     AUC   46  30.605  20.465   7.329
    1AU     AUC   47  30.634  20.476   7.659
    1AU     AUC   48  30.911  21.255   7.792
    1AU     AUC   49  31.246  21.265   7.798
    1AU     AUC   50  30.922  20.278   7.774
    1AU     AUC   51  31.337  20.290   7.788
    1AU     AUC   52  30.903  21.224   7.177
    1AU     AUC   53  31.298  21.268   7.174
    1AU     AUC   54  30.925  20.303   7.197
    1AU     AUC   55  31.306  20.327   7.160
    1AU    AUSL   56  31.717  20.713   8.219
    1AU    AUSL   57  31.567  20.217   8.083
    1AU     AUL   58  31.791  20.342   8.300
    1AU       S   59  31.951  19.951   8.109
    1AU     LIG   60  31.923  19.652   8.453
    1AU     LIG   61  32.128  19.440   8.813
    1AU       S   62  31.987  20.765   8.366
    1AU     LIG   63  32.165  20.957   8.738
    1AU     LIG   64  32.393  20.807   9.134
    1AU    AUSL   65  31.321  20.518   8.287
    1AU    AUSL   66  30.996  20.839   8.399
    1AU     AUL   67  31.213  20.681   8.624
    1AU       S   68  31.674  20.576   8.679
    1AU     LIG   69  31.603  20.291   9.025
    1AU     LIG   70  31.668  20.242   9.495
    1AU       S   71  30.481  20.638   8.696
    1AU     LIG   72  30.555  20.877   9.092
    1AU     LIG   73  30.452  20.977   9.550
    1AU    AUSL   74  31.326  20.946   8.159
    1AU    AUSL   75  31.742  21.136   8.117
    1AU     AUL   76  31.567  20.969   8.443
    1AU       S   77  31.179  21.200   8.618
    1AU     LIG   78  31.460  21.371   8.936
    1AU     LIG   79  31.822  21.217   9.183
    1AU       S   80  31.896  21.288   8.319
    1AU     LIG   81  32.344  21.297   8.374
    1AU     LIG   82  32.740  21.574   8.314
    1AU    AUSL   83  31.681  20.900   6.752
    1AU    AUSL   84  31.560  21.353   6.826
    1AU     AUL   85  31.722  21.165   6.506
    1AU       S   86  31.605  20.751   6.299
    1AU     LIG   87  31.942  20.732   5.951
    1AU     LIG   88  32.030  20.493   5.547
    1AU       S   89  31.865  21.513   6.776
    1AU     LIG   90  31.933  21.819   6.427
    1AU     LIG   91  32.024  22.141   6.079
    1AU    AUSL   92  31.325  20.655   6.735
    1AU    AUSL   93  31.660  20.569   7.040
    1AU     AUL   94  31.771  20.600   6.699
    1AU       S   95  31.919  20.130   6.616
    1AU     LIG   96  32.222  19.924   6.343
    1AU     LIG   97  32.471  19.688   6.006
    1AU       S   98  31.417  20.474   6.393
    1AU     LIG   99  31.303  20.179   6.059
    1AU     LIG  100  31.634  20.152   5.711
    1AU    AUSL  101  31.270  21.087   6.642
    1AU    AUSL  102  30.955  20.531   6.576
    1AU     AUL  103  31.146  20.845   6.413
    1AU       S  104  30.774  20.571   6.277
    1AU     LIG  105  30.921  20.498   5.861
    1AU     LIG  106  30.586  20.467   5.526
    1AU       S  107  31.669  20.437   6.247
    1AU     LIG  108  31.455  20.616   5.847
    1AU     LIG  109  31.652  20.857   5.507
    1AU    AUSL  110  30.633  20.714   8.183
    1AU    AUSL  111  30.854  21.152   8.142
    1AU     AUL  112  30.736  21.018   8.456
    1AU       S  113  30.381  20.714   8.423
    1AU     LIG  114  30.136  20.967   8.779
    1AU     LIG  115  30.058  20.838   9.236
    1AU       S  116  30.440  21.360   8.316
    1AU     LIG  117  30.300  21.459   8.716
    1AU     LIG  118  30.106  21.849   8.881
    1AU    AUSL  119  30.908  20.405   8.369
    1AU    AUSL  120  30.457  20.336   8.065
    1AU     AUL  121  30.583  20.301   8.345
    1AU       S  122  30.243  20.008   8.168
    1AU     LIG  123  29.880  20.013   8.444
    1AU     LIG  124  29.648  19.701   8.746
    1AU       S  125  30.724  20.577   8.685
    1AU     LIG  126  30.718  20.391   9.088
    1AU     LIG  127  30.453  20.462   9.465
    1AU    AUSL  128  30.570  20.672   6.728
    1AU    AUSL  129  30.855  20.372   6.967
    1AU     AUL  130  30.710  20.291   6.650
    1AU       S  131  30.403  20.601   6.453
    1AU     LIG  132  30.123  20.824   6.167
    1AU     LIG  133  30.075  20.811   5.692
    1AU       S  134  30.262  20.123   6.607
    1AU     LIG  135  30.247  19.708   6.405
    1AU     LIG  136  29.995  19.387   6.150
    1AU    AUSL  137  30.920  20.928   6.818
    1AU    AUSL  138  30.470  21.039   6.926
    1AU     AUL  139  30.674  20.969   6.545
    1AU       S  140  30.295  21.165   6.749
    1AU     LIG  141  30.031  21.303   6.429
    1AU     LIG  142  29.876  21.631   6.125
    1AU       S  143  30.519  20.484   6.207
    1AU     LIG  144  30.553  20.846   5.889
    1AU     LIG  145  30.484  20.973   5.423
    1AU    AUSL  146  31.800  21.409   7.537
    1AU    AUSL  147  31.786  21.119   7.110
    1AU     AUL  148  31.945  21.503   7.243
    1AU       S  149  32.032  21.169   6.922
    1AU     LIG  150  32.492  21.146   6.887
    1AU     LIG  151  32.620  21.415   6.535
    1AU       S  152  32.307  21.322   7.866
    1AU     LIG  153  32.655  21.600   7.810
    1AU     LIG  154  33.024  21.669   7.556
    1AU    AUSL  155  32.079  21.075   7.415
    1AU    AUSL  156  32.079  20.669   7.664
    1AU     AUL  157  32.369  20.866   7.520
    1AU       S  158  32.261  21.310   7.606
    1AU     LIG  159  32.636  21.413   7.321
    1AU     LIG  160  32.985  21.150   7.136
    1AU       S  161  32.322  20.390   7.518
    1AU     LIG  162  32.645  20.197   7.731
    1AU     LIG  163  33.060  20.189   7.928
    1AU    AUSL  164  31.797  20.989   7.726
    1AU    AUSL  165  31.475  21.304   7.797
    1AU     AUL  166  31.839  21.397   7.861
    1AU       S  167  31.870  21.601   8.305
    1AU     LIG  168  32.282  21.778   8.156
    1AU     LIG  169  32.525  22.183   8.250
    1AU       S  170  32.178  21.066   7.918
    1AU     LIG  171  32.704  21.119   8.040
    1AU     LIG  172  33.111  21.348   7.963
    1AU    AUSL  173  30.460  21.258   7.548
    1AU    AUSL  174  30.466  21.045   7.959
    1AU     AUL  175  30.189  21.381   7.788
    1AU       S  176  30.345  21.123   8.161
    1AU     LIG  177  29.956  21.224   8.373
    1AU     LIG  178  29.771  21.500   8.688
    1AU       S  179  30.405  21.699   7.518
    1AU     LIG  180  30.019  21.874   7.331
    1AU     LIG  181  29.610  22.116   7.312
    1AU    AUSL  182  30.371  20.896   7.308
    1AU    AUSL  183  30.496  21.420   7.154
    1AU     AUL  184  30.214  21.229   7.229
    1AU       S  185  30.070  20.780   6.952
    1AU     LIG  186  29.728  21.082   6.838
    1AU     LIG  187  29.340  21.233   7.101
    1AU       S  188  30.316  21.614   6.950
    1AU     LIG  189  30.061  21.790   6.624
    1AU     LIG  190  29.907  22.126   6.319
    1AU    AUSL  191  30.152  20.940   7.686
    1AU    AUSL  192  30.153  20.540   7.403
    1AU     AUL  193  29.981  20.852   7.405
    1AU       S  194  29.917  20.461   7.672
    1AU     LIG  195  29.533  20.240   7.474
    1AU     LIG  196  29.146  20.216   7.176
    1AU       S  197  29.932  20.994   7.886
    1AU     LIG  198  29.520  21.208   7.807
    1AU     LIG  199  29.103  21.440   7.799
    1AU    AUSL  200  31.826  20.388   7.439
    1AU    AUSL  201  31.699  20.541   7.832
    1AU     AUL  202  32.016  20.416   7.872
    1AU       S  203  32.141  20.212   7.453
    1AU     LIG  204  32.384  19.820   7.509
    1AU     LIG  205  32.872  19.748   7.556
    1AU       S  206  32.210  19.979   7.952
    1AU     LIG  207  32.403  19.752   8.310
    1AU     LIG  208  32.618  19.474   8.633
    1AU    AUSL  209  32.030  20.702   7.200
    1AU    AUSL  210  31.745  20.116   7.120
    1AU     AUL  211  31.980  20.371   7.049
    1AU       S  212  32.368  20.455   7.283
    1AU     LIG  213  32.677  20.110   7.211
    1AU     LIG  214  33.132  19.931   7.120
    1AU       S  215  31.855  19.957   6.844
    1AU     LIG  216  31.939  19.590   6.607
    1AU     LIG  217  32.318  19.389   6.412
    1AU    AUSL  218  30.529  20.299   7.470
    1AU    AUSL  219  30.427  20.479   7.075
    1AU     AUL  220  30.171  20.238   7.293
    1AU       S  221  30.248  20.323   6.838
    1AU     LIG  222  29.805  20.114   6.775
    1AU     LIG  223  29.731  19.769   6.459
    1AU       S  224  29.848  20.278   7.903
    1AU     LIG  225  29.768  19.829   7.717
    1AU     LIG  226  29.716  19.672   7.278
    1AU    AUSL  227  30.411  20.611   7.752
    1AU    AUSL  228  30.584  20.022   7.785
    1AU     AUL  229  30.298  20.194   7.746
    1AU       S  230  30.422  19.779   7.925
    1AU     LIG  231  30.166  19.444   7.976
    1AU     LIG  232  29.908  19.525   8.340
    1AU       S  233  30.027  20.530   7.914
    1AU     LIG  234  29.537  20.670   7.905
    1AU     LIG  235  29.151  20.518   7.689
    1AU    AUSL  236  31.079  21.474   7.954
    1AU    AUSL  237  30.639  21.446   7.895
    1AU     AUL  238  30.891  21.485   8.252
    1AU       S  239  30.489  21.630   8.057
    1AU     LIG  240  30.111  21.747   8.337
    1AU     LIG  241  29.745  21.993   8.520
    1AU       S  242  31.039  21.872   8.012
    1AU     LIG  243  31.274  22.213   8.257
    1AU     LIG  244  31.445  22.654   8.244
    1AU    AUSL  245  30.875  21.671   7.614
    1AU    AUSL  246  31.200  21.723   7.263
    1AU     AUL  247  30.900  21.935   7.387
    1AU       S  248  31.049  22.104   7.829
    1AU     LIG  249  31.072  22.563   7.892
    1AU     LIG  250  31.133  23.032   7.983
    1AU       S  251  31.159  21.953   6.974
    1AU     LIG  252  31.432  22.318   7.185
    1AU     LIG  253  31.704  22.688   7.078
    1AU    AUSL  254  31.343  21.682   7.664
    1AU    AUSL  255  31.377  21.360   8.234
    1AU     AUL  256  31.447  21.626   8.018
    1AU       S  257  31.606  21.461   8.453
    1AU     LIG  258  31.972  21.482   8.769
    1AU     LIG  259  32.361  21.732   8.666
    1AU       S  260  31.275  21.953   7.718
    1AU     LIG  261  31.525  22.339   7.809
    1AU     LIG  262  31.561  22.812   7.754
    1AU    AUSL  263  31.177  20.043   8.112
    1AU    AUSL  264  31.731  20.058   7.697
    1AU     AUL  265  31.493  19.854   7.998
    1AU       S  266  30.808  19.477   8.083
    1AU     LIG  267  30.797  19.133   8.358
    1AU     LIG  268  30.799  18.667   8.407
    1AU       S  269  31.936  19.923   7.797
    1AU     LIG  270  32.092  19.489   7.968
    1AU     LIG  271  32.258  19.240   8.339
    1AU    AUSL  272  30.983  19.885   7.742
    1AU    AUSL  273  30.891  20.311   7.954
    1AU     AUL  274  30.833  19.964   8.102
    1AU       S  275  30.886  19.597   7.814
    1AU     LIG  276  30.604  19.253   7.696
    1AU     LIG  277  30.722  18.862   7.928
    1AU       S  278  30.388  19.815   8.226
    1AU     LIG  279  30.389  19.465   8.475
    1AU     LIG  280  30.089  19.442   8.837
    1AU    AUSL  281  31.321  20.143   7.676
    1AU    AUSL  282  30.942  20.011   7.336
    1AU     AUL  283  31.257  19.780   7.541
    1AU       S  284  30.799  19.673   7.343
    1AU     LIG  285  30.546  19.301   7.171
    1AU     LIG  286  30.656  18.842   7.079
    1AU       S  287  31.098  19.488   7.996
    1AU     LIG  288  31.151  19.093   7.802
    1AU     LIG  289  31.197  18.711   8.079
    1AU    AUSL  290  31.157  21.438   6.939
    1AU    AUSL  291  31.471  21.385   7.269
    1AU     AUL  292  31.511  21.661   7.057
    1AU       S  293  31.163  21.650   6.720
    1AU     LIG  294  31.444  21.962   6.505
    1AU     LIG  295  31.543  22.377   6.674
    1AU       S  296  32.095  21.393   6.751
    1AU     LIG  297  32.318  21.783   6.765
    1AU     LIG  298  32.311  22.184   6.518
    1AU    AUSL  299  30.895  21.401   7.291
    1AU    AUSL  300  30.770  21.336   6.812
    1AU     AUL  301  30.785  21.638   7.019
    1AU       S  302  31.005  21.958   6.726
    1AU     LIG  303  31.032  22.423   6.860
    1AU     LIG  304  30.958  22.844   7.083
    1AU       S  305  30.497  21.448   6.662
    1AU     LIG  306  30.389  21.647   6.256
    1AU     LIG  307  30.222  21.971   5.935
    1AU    AUSL  308  31.095  20.023   6.914
    1AU    AUSL  309  30.574  20.059   7.117
    1AU     AUL  310  30.813  19.927   6.943
    1AU       S  311  30.344  20.032   6.885
    1AU     LIG  312  30.059  19.678   6.877
    1AU     LIG  313  29.868  19.304   6.634
    1AU       S  314  31.030  19.545   7.170
    1AU     LIG  315  30.963  19.232   6.870
    1AU     LIG  316  31.029  18.806   6.710
    1AU    AUSL  317  31.349  20.150   7.256
    1AU    AUSL  318  31.443  20.253   6.819
    1AU     AUL  319  31.420  19.887   7.031
    1AU       S  320  30.989  19.381   7.383
    1AU     LIG  321  31.129  18.935   7.275
    1AU     LIG  322  31.462  18.741   7.001
    1AU       S  323  31.618  20.116   6.651
    1AU     LIG  324  31.689  19.892   6.251
    1AU     LIG  325  31.962  19.562   6.063
    2AU     AUC  326  20.712  18.126   7.486
    2AU     AUC  327  21.012  18.163   7.324
    2AU     AUC  328  20.977  18.147   7.656
    2AU     AUC  329  20.433  18.110   7.315
    2AU     AUC  330  20.451  18.116   7.674
    2AU     AUC  331  20.519  18.367   7.513
    2AU     AUC  332  20.853  18.399   7.491
    2AU     AUC  333  20.546  17.842   7.484
    2AU     AUC  334  20.907  17.895   7.480
    2AU     AUC  335  20.745  17.958   7.764
    2AU     AUC  336  20.694  18.286   7.768
    2AU     AUC  337  20.743  17.976   7.207
    2AU     AUC  338  20.721  18.305   7.215
    2AU     AUC  339  21.334  18.183   7.174
    2AU     AUC  340  21.358  18.181   7.494
    2AU     AUC  341  21.290  18.151   7.857
    2AU     AUC  342  20.137  18.087   7.143
    2AU     AUC  343  20.102  18.091   7.505
    2AU     AUC  344  20.143  18.086   7.864
    2AU     AUC  345  20.335  18.668   7.511
    2AU     AUC  346  20.676  18.741   7.488
    2AU     AUC  347  20.999  18.725   7.503
    2AU     AUC  348  20.373  17.527   7.481
    2AU     AUC  349  20.709  17.574   7.483
    2AU     AUC  350  21.106  17.606   7.463
    2AU     AUC  351  20.750  17.744   8.060
    2AU     AUC  352  20.726  18.068   8.104
    2AU     AUC  353  20.717  18.443   8.063
    2AU     AUC  354  20.762  17.783   6.901
    2AU     AUC  355  20.737  18.133   6.907
    2AU     AUC  356  20.732  18.497   6.936
    2AU     AUC  357  21.040  17.906   7.961
    2AU     AUC  358  21.015  18.279   8.000
    2AU     AUC  359  21.043  17.967   7.007
    2AU     AUC  360  21.063  18.337   7.014
    2AU     AUC  361  20.420  17.914   7.995
    2AU     AUC  362  20.430  18.256   7.996
    2AU     AUC  363  20.421  17.943   7.008
    2AU     AUC  364  20.394  18.303   7.010
    2AU     AUC  365  21.209  18.463   7.340
    2AU     AUC  366  21.154  18.432   7.696
    2AU     AUC  367  20.225  18.384   7.311
    2AU     AUC  368  20.213  18.394   7.702
    2AU     AUC  369  21.232  17.877   7.307
    2AU     AUC  370  21.226  17.852   7.631
    2AU     AUC  371  20.223  17.795   7.298
    2AU     AUC  372  20.232  17.812   7.640
    2AU     AUC  373  20.509  18.602   7.791
    2AU     AUC  374  20.845  18.614   7.795
    2AU     AUC  375  20.501  17.635   7.779
    2AU     AUC  376  20.915  17.636   7.792
    2AU     AUC  377  20.502  18.573   7.181
    2AU     AUC  378  20.905  18.612   7.181
    2AU     AUC  379  20.529  17.650   7.176
    2AU     AUC  380  20.913  17.661   7.163
    2AU    AUSL  381  21.317  18.068   8.223
    2AU    AUSL  382  21.140  17.555   8.091
    2AU     AUL  383  21.368  17.686   8.316
    2AU       S  384  21.520  17.294   8.114
    2AU     LIG  385  21.541  17.022   8.469
    2AU     LIG  386  21.629  16.723   8.819
    2AU       S  387  21.581  18.111   8.355
    2AU     LIG  388  21.709  18.213   8.782
    2AU     LIG  389  21.557  17.980   9.166
    2AU    AUSL  390  20.920  17.876   8.289
    2AU    AUSL  391  20.608  18.199   8.411
    2AU     AUL  392  20.824  18.038   8.634
    2AU       S  393  21.285  17.942   8.688
    2AU     LIG  394  21.213  17.627   9.008
    2AU     LIG  395  21.325  17.537   9.458
    2AU       S  396  20.108  17.998   8.724
    2AU     LIG  397  20.214  18.236   9.105
    2AU     LIG  398  20.137  18.322   9.563
    2AU    AUSL  399  20.927  18.301   8.156
    2AU    AUSL  400  21.339  18.491   8.118
    2AU     AUL  401  21.165  18.325   8.441
    2AU       S  402  20.786  18.566   8.622
    2AU     LIG  403  21.058  18.698   8.946
    2AU     LIG  404  21.412  18.475   9.121
    2AU       S  405  21.489  18.649   8.320
    2AU     LIG  406  21.905  18.621   8.471
    2AU     LIG  407  22.325  18.871   8.495
    2AU    AUSL  408  21.333  18.208   6.753
    2AU    AUSL  409  21.170  18.705   6.824
    2AU     AUL  410  21.286  18.492   6.503
    2AU       S  411  21.266  18.061   6.293
    2AU     LIG  412  21.562  17.967   5.925
    2AU     LIG  413  21.615  17.822   5.478
    2AU       S  414  21.474  18.820   6.775
    2AU     LIG  415  21.563  19.168   6.512
    2AU     LIG  416  21.865  19.314   6.189
    2AU    AUSL  417  20.983  17.944   6.695
    2AU    AUSL  418  21.271  17.895   7.055
    2AU     AUL  419  21.410  17.906   6.702
    2AU       S  420  21.562  17.410   6.650
    2AU     LIG  421  21.838  17.172   6.349
    2AU     LIG  422  22.078  16.917   6.007
    2AU       S  423  21.023  17.792   6.413
    2AU     LIG  424  20.892  17.509   6.069
    2AU     LIG  425  21.268  17.487   5.762
    2AU    AUSL  426  20.918  18.364   6.771
    2AU    AUSL  427  20.578  17.943   6.569
    2AU     AUL  428  20.832  18.224   6.445
    2AU       S  429  20.426  17.988   6.282
    2AU     LIG  430  20.517  17.815   5.862
    2AU     LIG  431  20.133  17.752   5.595
    2AU       S  432  21.257  17.761   6.261
    2AU     LIG  433  21.051  17.950   5.861
    2AU     LIG  434  21.279  18.243   5.578
    2AU    AUSL  435  20.245  18.071   8.206
    2AU    AUSL  436  20.457  18.505   8.149
    2AU     AUL  437  20.353  18.376   8.468
    2AU       S  438  19.991  18.082   8.471
    2AU     LIG  439  19.771  18.332   8.826
    2AU     LIG  440  19.729  18.154   9.269
    2AU       S  441  20.047  18.701   8.312
    2AU     LIG  442  19.923  18.827   8.703
    2AU     LIG  443  19.774  19.238   8.849
    2AU    AUSL  444  20.513  17.759   8.392
    2AU    AUSL  445  20.000  17.743   8.072
    2AU     AUL  446  20.170  17.670   8.353
    2AU       S  447  19.777  17.458   8.182
    2AU     LIG  448  19.443  17.308   8.396
    2AU     LIG  449  19.396  16.966   8.706
    2AU       S  450  20.343  17.926   8.698
    2AU     LIG  451  20.335  17.736   9.104
    2AU     LIG  452  20.106  17.807   9.504
    2AU    AUSL  453  20.175  18.036   6.719
    2AU    AUSL  454  20.483  17.729   6.932
    2AU     AUL  455  20.343  17.668   6.619
    2AU       S  456  20.025  17.976   6.442
    2AU     LIG  457  19.748  18.194   6.154
    2AU     LIG  458  19.721  18.123   5.685
    2AU       S  459  19.885  17.516   6.594
    2AU     LIG  460  19.783  17.102   6.451
    2AU     LIG  461  19.562  16.792   6.185
    2AU    AUSL  462  20.501  18.324   6.784
    2AU    AUSL  463  20.075  18.399   6.937
    2AU     AUL  464  20.260  18.362   6.543
    2AU       S  465  19.883  18.533   6.764
    2AU     LIG  466  19.625  18.650   6.443
    2AU     LIG  467  19.428  18.996   6.206
    2AU       S  468  20.150  17.876   6.206
    2AU     LIG  469  20.190  18.205   5.880
    2AU     LIG  470  20.210  18.221   5.406
    2AU    AUSL  471  21.403  18.746   7.532
    2AU    AUSL  472  21.380  18.450   7.110
    2AU     AUL  473  21.546  18.835   7.240
    2AU       S  474  21.653  18.503   6.926
    2AU     LIG  475  22.127  18.514   6.857
    2AU     LIG  476  22.394  18.764   6.543
    2AU       S  477  21.902  18.679   7.806
    2AU     LIG  478  22.078  19.067   7.669
    2AU     LIG  479  22.214  19.226   7.236
    2AU    AUSL  480  21.675  18.402   7.415
    2AU    AUSL  481  21.670  18.007   7.689
    2AU     AUL  482  21.975  18.181   7.557
    2AU       S  483  21.850  18.622   7.581
    2AU     LIG  484  22.216  18.728   7.314
    2AU     LIG  485  22.622  18.852   7.244
    2AU       S  486  21.921  17.705   7.558
    2AU     LIG  487  22.216  17.407   7.734
    2AU     LIG  488  22.610  17.153   7.770
    2AU    AUSL  489  21.394  18.334   7.731
    2AU    AUSL  490  21.075  18.656   7.794
    2AU     AUL  491  21.435  18.751   7.860
    2AU       S  492  21.471  18.956   8.305
    2AU     LIG  493  21.930  19.050   8.193
    2AU     LIG  494  22.216  19.388   8.375
    2AU       S  495  21.769  18.422   7.919
    2AU     LIG  496  22.249  18.532   8.087
    2AU     LIG  497  22.525  18.675   7.735
    2AU    AUSL  498  20.042  18.585   7.557
    2AU    AUSL  499  20.075  18.379   7.960
    2AU     AUL  500  19.777  18.684   7.796
    2AU       S  501  19.960  18.469   8.178
    2AU     LIG  502  19.576  18.562   8.402
    2AU     LIG  503  19.406  18.922   8.643
    2AU       S  504  19.970  19.034   7.544
    2AU     LIG  505  19.518  19.139   7.393
    2AU     LIG  506  19.054  19.023   7.347
    2AU    AUSL  507  19.969  18.233   7.309
    2AU    AUSL  508  20.095  18.776   7.179
    2AU     AUL  509  19.812  18.574   7.237
    2AU       S  510  19.683  18.125   6.958
    2AU     LIG  511  19.346  18.420   6.825
    2AU     LIG  512  19.017  18.746   6.901
    2AU       S  513  19.914  18.976   6.987
    2AU     LIG  514  19.655  19.139   6.656
    2AU     LIG  515  19.418  19.490   6.425
    2AU    AUSL  516  19.763  18.235   7.705
    2AU    AUSL  517  19.763  17.863   7.374
    2AU     AUL  518  19.599  18.194   7.417
    2AU       S  519  19.488  17.777   7.598
    2AU     LIG  520  19.025  17.891   7.552
    2AU     LIG  521  18.651  17.709   7.320
    2AU       S  522  19.575  18.268   7.932
    2AU     LIG  523  19.135  18.452   7.862
    2AU     LIG  524  18.940  18.890   7.849
    2AU    AUSL  525  21.425  17.727   7.459
    2AU    AUSL  526  21.282  17.880   7.845
    2AU     AUL  527  21.598  17.749   7.895
    2AU       S  528  21.732  17.558   7.481
    2AU     LIG  529  21.881  17.148   7.438
    2AU     LIG  530  22.293  16.942   7.421
    2AU       S  531  21.760  17.291   7.916
    2AU     LIG  532  21.998  17.112   8.229
    2AU     LIG  533  22.051  16.985   8.669
    2AU    AUSL  534  21.643  18.021   7.215
    2AU    AUSL  535  21.348  17.425   7.170
    2AU     AUL  536  21.572  17.677   7.068
    2AU       S  537  21.949  17.781   7.309
    2AU     LIG  538  22.247  17.443   7.224
    2AU     LIG  539  22.687  17.241   7.248
    2AU       S  540  21.478  17.243   6.894
    2AU     LIG  541  21.744  16.892   6.768
    2AU     LIG  542  22.029  16.633   6.465
    2AU    AUSL  543  20.121  17.578   7.441
    2AU    AUSL  544  20.068  17.835   7.074
    2AU     AUL  545  19.792  17.561   7.265
    2AU       S  546  19.862  17.682   6.818
    2AU     LIG  547  19.446  17.365   6.752
    2AU     LIG  548  19.228  17.148   6.375
    2AU       S  549  19.418  17.555   7.641
    2AU     LIG  550  19.088  17.411   7.377
    2AU     LIG  551  18.773  17.132   7.153
    2AU    AUSL  552  20.051  17.924   7.698
    2AU    AUSL  553  20.153  17.411   7.832
    2AU     AUL  554  19.890  17.539   7.736
    2AU       S  555  19.943  17.181   8.034
    2AU     LIG  556  19.581  16.887   8.101
    2AU     LIG  557  19.364  16.543   8.361
    2AU       S  558  19.537  17.813   7.816
    2AU     LIG  559  19.102  17.653   7.999
    2AU     LIG  560  18.738  17.422   7.777
    2AU    AUSL  561  20.674  18.823   7.947
    2AU    AUSL  562  20.236  18.784   7.888
    2AU     AUL  563  20.491  18.846   8.243
    2AU       S  564  20.088  18.954   8.034
    2AU     LIG  565  19.757  19.122   8.312
    2AU     LIG  566  19.450  19.440   8.485
    2AU       S  567  20.638  19.238   8.001
    2AU     LIG  568  20.883  19.615   8.215
    2AU     LIG  569  20.811  20.051   8.421
    2AU    AUSL  570  20.465  19.022   7.610
    2AU    AUSL  571  20.807  19.066   7.255
    2AU     AUL  572  20.514  19.287   7.388
    2AU       S  573  20.614  19.495   7.821
    2AU     LIG  574  20.623  19.982   7.933
    2AU     LIG  575  20.430  20.345   8.199
    2AU       S  576  20.765  19.302   6.979
    2AU     LIG  577  20.976  19.703   7.081
    2AU     LIG  578  20.985  20.180   7.062
    2AU    AUSL  579  20.936  19.032   7.660
    2AU    AUSL  580  20.973  18.715   8.231
    2AU     AUL  581  21.041  18.980   8.014
    2AU       S  582  21.200  18.820   8.450
    2AU     LIG  583  21.538  18.843   8.781
    2AU     LIG  584  21.922  19.096   8.722
    2AU       S  585  20.866  19.317   7.723
    2AU     LIG  586  21.039  19.762   7.721
    2AU     LIG  587  21.130  20.124   8.033
    2AU    AUSL  588  20.740  17.397   8.101
    2AU    AUSL  589  21.303  17.397   7.705
    2AU     AUL  590  21.058  17.197   8.007
    2AU       S  591  20.627  16.884   8.042
    2AU     LIG  592  20.361  16.553   8.215
    2AU     LIG  593  20.447  16.096   8.314
    2AU       S  594  21.490  17.257   7.788
    2AU     LIG  595  21.623  16.818   7.980
    2AU     LIG  596  21.848  16.616   8.345
    2AU    AUSL  597  20.534  17.256   7.729
    2AU    AUSL  598  20.462  17.693   7.976
    2AU     AUL  599  20.399  17.324   8.109
    2AU       S  600  20.432  16.979   7.789
    2AU     LIG  601  20.133  16.654   7.758
    2AU     LIG  602  20.215  16.189   7.852
    2AU       S  603  19.941  17.218   8.311
    2AU     LIG  604  19.846  16.790   8.520
    2AU     LIG  605  19.583  16.493   8.821
    2AU    AUSL  606  20.895  17.485   7.678
    2AU    AUSL  607  20.538  17.347   7.313
    2AU     AUL  608  20.833  17.128   7.545
    2AU       S  609  20.404  17.044   7.304
    2AU     LIG  610  20.090  16.702   7.231
    2AU     LIG  611  20.313  16.288   7.245
    2AU       S  612  20.637  16.749   7.817
    2AU     LIG  613  20.721  16.309   7.912
    2AU     LIG  614  20.863  15.876   8.070
    2AU    AUSL  615  20.761  18.774   6.933
    2AU    AUSL  616  21.073  18.725   7.266
    2AU     AUL  617  21.117  19.002   7.048
    2AU       S  618  20.764  19.035   6.724
    2AU     LIG  619  21.043  19.441   6.579
    2AU     LIG  620  20.980  19.930   6.600
    2AU       S  621  21.690  18.687   6.724
    2AU     LIG  622  21.999  19.018   6.779
    2AU     LIG  623  22.278  19.290   6.518
    2AU    AUSL  624  20.502  18.746   7.293
    2AU    AUSL  625  20.355  18.723   6.828
    2AU     AUL  626  20.389  18.992   7.030
    2AU       S  627  20.593  19.358   6.771
    2AU     LIG  628  20.526  19.848   6.870
    2AU     LIG  629  20.216  20.220   6.760
    2AU       S  630  20.079  18.818   6.690
    2AU     LIG  631  19.984  18.987   6.288
    2AU     LIG  632  19.784  19.346   6.066
    2AU    AUSL  633  20.713  17.372   6.902
    2AU    AUSL  634  20.199  17.413   7.054
    2AU     AUL  635  20.440  17.285   6.895
    2AU       S  636  19.974  17.395   6.851
    2AU     LIG  637  19.747  16.980   6.949
    2AU     LIG  638  19.416  16.819   6.709
    2AU       S  639  20.629  16.891   7.119
    2AU     LIG  640  20.428  16.569   6.842
    2AU     LIG  641  20.250  16.115   6.737
    2AU    AUSL  642  20.944  17.497   7.260
    2AU    AUSL  643  21.090  17.559   6.835
    2AU     AUL  644  21.024  17.215   7.053
    2AU       S  645  20.561  16.775   7.329
    2AU     LIG  646  20.802  16.413   7.189
    2AU     LIG  647  20.678  15.988   7.018
    2AU       S  648  21.258  17.433   6.681
    2AU     LIG  649  21.312  17.254   6.248
    2AU     LIG  650  21.565  16.998   5.949
    3AU     AUC  651   3.249  37.564   7.492
    3AU     AUC  652   3.545  37.607   7.332
    3AU     AUC  653   3.511  37.582   7.662
    3AU     AUC  654   2.972  37.547   7.319
    3AU     AUC  655   2.990  37.557   7.679
    3AU     AUC  656   3.056  37.804   7.521
    3AU     AUC  657   3.394  37.838   7.500
    3AU     AUC  658   3.079  37.281   7.488
    3AU     AUC  659   3.440  37.328   7.480
    3AU     AUC  660   3.277  37.395   7.768
    3AU     AUC  661   3.231  37.724   7.774
    3AU     AUC  662   3.276  37.419   7.214
    3AU     AUC  663   3.266  37.750   7.229
    3AU     AUC  664   3.866  37.632   7.184
    3AU     AUC  665   3.894  37.613   7.504
    3AU     AUC  666   3.823  37.578   7.862
    3AU     AUC  667   2.676  37.524   7.144
    3AU     AUC  668   2.641  37.530   7.503
    3AU     AUC  669   2.680  37.527   7.865
    3AU     AUC  670   2.874  38.106   7.515
    3AU     AUC  671   3.218  38.180   7.498
    3AU     AUC  672   3.541  38.162   7.516
    3AU     AUC  673   2.901  36.972   7.484
    3AU     AUC  674   3.241  37.015   7.483
    3AU     AUC  675   3.636  37.044   7.456
    3AU     AUC  676   3.277  37.182   8.063
    3AU     AUC  677   3.261  37.506   8.111
    3AU     AUC  678   3.255  37.880   8.071
    3AU     AUC  679   3.287  37.229   6.908
    3AU     AUC  680   3.272  37.590   6.902
    3AU     AUC  681   3.284  37.934   6.935
    3AU     AUC  682   3.570  37.336   7.963
    3AU     AUC  683   3.550  37.710   8.006
    3AU     AUC  684   3.564  37.434   7.015
    3AU     AUC  685   3.593  37.801   7.011
    3AU     AUC  686   2.948  37.362   8.002
    3AU     AUC  687   2.971  37.695   8.005
    3AU     AUC  688   2.953  37.364   7.015
    3AU     AUC  689   2.938  37.736   7.019
    3AU     AUC  690   3.751  37.901   7.353
    3AU     AUC  691   3.693  37.866   7.707
    3AU     AUC  692   2.765  37.824   7.316
    3AU     AUC  693   2.752  37.833   7.702
    3AU     AUC  694   3.764  37.321   7.303
    3AU     AUC  695   3.753  37.283   7.631
    3AU     AUC  696   2.762  37.227   7.292
    3AU     AUC  697   2.765  37.251   7.639
    3AU     AUC  698   3.050  38.042   7.797
    3AU     AUC  699   3.384  38.051   7.804
    3AU     AUC  700   3.025  37.081   7.784
    3AU     AUC  701   3.438  37.071   7.791
    3AU     AUC  702   3.049  38.010   7.189
    3AU     AUC  703   3.450  38.051   7.185
    3AU     AUC  704   3.074  37.087   7.181
    3AU     AUC  705   3.451  37.108   7.162
    3AU    AUSL  706   3.852  37.493   8.222
    3AU    AUSL  707   3.662  36.983   8.092
    3AU     AUL  708   3.898  37.110   8.311
    3AU       S  709   4.046  36.714   8.108
    3AU     LIG  710   4.140  36.511   8.500
    3AU     LIG  711   4.246  36.244   8.891
    3AU       S  712   4.116  37.532   8.374
    3AU     LIG  713   4.223  37.639   8.816
    3AU     LIG  714   4.083  37.425   9.221
    3AU    AUSL  715   3.453  37.308   8.295
    3AU    AUSL  716   3.151  37.638   8.422
    3AU     AUL  717   3.360  37.469   8.644
    3AU       S  718   3.817  37.361   8.688
    3AU     LIG  719   3.740  37.082   9.041
    3AU     LIG  720   3.774  37.048   9.513
    3AU       S  721   2.647  37.446   8.740
    3AU     LIG  722   2.736  37.675   9.122
    3AU     LIG  723   2.650  37.788   9.571
    3AU    AUSL  724   3.466  37.731   8.159
    3AU    AUSL  725   3.878  37.920   8.129
    3AU     AUL  726   3.702  37.750   8.446
    3AU       S  727   3.336  37.997   8.642
    3AU     LIG  728   3.611  38.129   8.959
    3AU     LIG  729   3.955  37.921   9.168
    3AU       S  730   4.023  38.076   8.332
    3AU     LIG  731   4.446  38.044   8.438
    3AU     LIG  732   4.840  38.287   8.518
    3AU    AUSL  733   3.832  37.686   6.764
    3AU    AUSL  734   3.717  38.137   6.846
    3AU     AUL  735   3.885  37.952   6.523
    3AU       S  736   3.759  37.547   6.297
    3AU     LIG  737   4.051  37.493   5.894
    3AU     LIG  738   4.203  37.334   5.462
    3AU       S  739   4.026  38.296   6.799
    3AU     LIG  740   4.230  38.567   6.472
    3AU     LIG  741   4.614  38.746   6.243
    3AU    AUSL  742   3.470  37.447   6.742
    3AU    AUSL  743   3.803  37.357   7.051
    3AU     AUL  744   3.912  37.391   6.701
    3AU       S  745   4.053  36.923   6.595
    3AU     LIG  746   4.285  36.603   6.348
    3AU     LIG  747   4.486  36.325   6.017
    3AU       S  748   3.556  37.267   6.394
    3AU     LIG  749   3.451  36.974   6.034
    3AU     LIG  750   3.812  37.018   5.711
    3AU    AUSL  751   3.429  37.879   6.647
    3AU    AUSL  752   3.104  37.356   6.550
    3AU     AUL  753   3.304  37.655   6.414
    3AU       S  754   2.919  37.400   6.259
    3AU     LIG  755   3.034  37.275   5.839
    3AU     LIG  756   2.718  37.337   5.484
    3AU       S  757   3.794  37.245   6.246
    3AU     LIG  758   3.549  37.434   5.855
    3AU     LIG  759   3.704  37.495   5.419
    3AU    AUSL  760   2.780  37.520   8.229
    3AU    AUSL  761   2.998  37.945   8.158
    3AU     AUL  762   2.901  37.819   8.484
    3AU       S  763   2.526  37.539   8.500
    3AU     LIG  764   2.290  37.757   8.862
    3AU     LIG  765   2.243  37.595   9.303
    3AU       S  766   2.584  38.126   8.308
    3AU     LIG  767   2.459  38.231   8.714
    3AU     LIG  768   2.295  38.608   8.912
    3AU    AUSL  769   3.045  37.199   8.402
    3AU    AUSL  770   2.513  37.224   8.071
    3AU     AUL  771   2.689  37.129   8.356
    3AU       S  772   2.279  36.945   8.194
    3AU     LIG  773   1.932  36.671   8.255
    3AU     LIG  774   1.773  36.286   8.468
    3AU       S  775   2.880  37.364   8.707
    3AU     LIG  776   2.882  37.181   9.114
    3AU     LIG  777   2.632  37.271   9.493
    3AU    AUSL  778   2.719  37.475   6.721
    3AU    AUSL  779   3.032  37.167   6.930
    3AU     AUL  780   2.863  37.106   6.619
    3AU       S  781   2.545  37.425   6.443
    3AU     LIG  782   2.282  37.646   6.127
    3AU     LIG  783   2.250  37.601   5.648
    3AU       S  784   2.403  36.964   6.601
    3AU     LIG  785   2.240  36.600   6.392
    3AU     LIG  786   1.991  36.200   6.306
    3AU    AUSL  787   3.070  37.732   6.817
    3AU    AUSL  788   2.625  37.831   6.942
    3AU     AUL  789   2.827  37.778   6.550
    3AU       S  790   2.448  37.965   6.754
    3AU     LIG  791   2.121  37.981   6.487
    3AU     LIG  792   1.937  38.291   6.197
    3AU       S  793   2.658  37.309   6.196
    3AU     LIG  794   2.724  37.682   5.884
    3AU     LIG  795   2.614  37.935   5.495
    3AU    AUSL  796   3.951  38.175   7.553
    3AU    AUSL  797   3.932  37.891   7.132
    3AU     AUL  798   4.091  38.268   7.268
    3AU       S  799   4.203  37.939   6.939
    3AU     LIG  800   4.672  38.002   6.704
    3AU     LIG  801   4.909  38.393   6.539
    3AU       S  802   4.469  38.155   7.852
    3AU     LIG  803   4.681  38.467   7.537
    3AU     LIG  804   4.964  38.538   7.124
    3AU    AUSL  805   4.222  37.832   7.437
    3AU    AUSL  806   4.200  37.427   7.694
    3AU     AUL  807   4.511  37.596   7.565
    3AU       S  808   4.407  38.047   7.598
    3AU     LIG  809   4.732  38.093   7.197
    3AU     LIG  810   5.151  38.097   6.959
    3AU       S  811   4.454  37.116   7.568
    3AU     LIG  812   4.765  36.819   7.772
    3AU     LIG  813   5.222  36.781   7.866
    3AU    AUSL  814   3.930  37.759   7.743
    3AU    AUSL  815   3.615  38.091   7.806
    3AU     AUL  816   3.984  38.176   7.873
    3AU       S  817   4.005  38.384   8.322
    3AU     LIG  818   4.449  38.534   8.268
    3AU     LIG  819   4.731  38.834   8.508
    3AU       S  820   4.312  37.846   7.926
    3AU     LIG  821   4.794  37.873   8.085
    3AU     LIG  822   5.208  37.839   7.854
    3AU    AUSL  823   2.563  38.033   7.557
    3AU    AUSL  824   2.632  37.808   7.947
    3AU     AUL  825   2.311  38.108   7.819
    3AU       S  826   2.513  37.915   8.194
    3AU     LIG  827   2.127  37.947   8.416
    3AU     LIG  828   1.945  38.307   8.641
    3AU       S  829   2.488  38.449   7.542
    3AU     LIG  830   2.008  38.522   7.423
    3AU     LIG  831   1.540  38.443   7.546
    3AU    AUSL  832   2.508  37.674   7.315
    3AU    AUSL  833   2.648  38.210   7.176
    3AU     AUL  834   2.354  38.010   7.223
    3AU       S  835   2.217  37.581   6.964
    3AU     LIG  836   1.815  37.852   6.897
    3AU     LIG  837   1.506  38.156   7.111
    3AU       S  838   2.472  38.407   6.980
    3AU     LIG  839   2.157  38.454   6.684
    3AU     LIG  840   2.051  38.772   6.365
    3AU    AUSL  841   2.302  37.665   7.716
    3AU    AUSL  842   2.299  37.302   7.361
    3AU     AUL  843   2.145  37.639   7.429
    3AU       S  844   1.993  37.203   7.522
    3AU     LIG  845   1.672  37.146   7.196
    3AU     LIG  846   1.213  37.148   7.202
    3AU       S  847   2.178  37.640   7.979
    3AU     LIG  848   1.757  37.810   8.061
    3AU     LIG  849   1.462  38.172   8.003
    3AU    AUSL  850   3.949  37.155   7.453
    3AU    AUSL  851   3.810  37.304   7.844
    3AU     AUL  852   4.124  37.167   7.891
    3AU       S  853   4.233  36.985   7.466
    3AU     LIG  854   4.445  36.603   7.428
    3AU     LIG  855   4.878  36.401   7.408
    3AU       S  856   4.291  36.708   7.908
    3AU     LIG  857   4.577  36.513   8.201
    3AU     LIG  858   4.652  36.463   8.659
    3AU    AUSL  859   4.175  37.459   7.226
    3AU    AUSL  860   3.889  36.901   7.116
    3AU     AUL  861   4.114  37.151   7.048
    3AU       S  862   4.476  37.186   7.329
    3AU     LIG  863   4.853  36.909   7.278
    3AU     LIG  864   5.309  36.713   7.348
    3AU       S  865   4.000  36.744   6.822
    3AU     LIG  866   3.980  36.325   6.639
    3AU     LIG  867   4.260  36.038   6.396
    3AU    AUSL  868   2.648  36.999   7.440
    3AU    AUSL  869   2.616  37.272   7.078
    3AU     AUL  870   2.339  36.983   7.269
    3AU       S  871   2.400  37.137   6.832
    3AU     LIG  872   1.946  36.933   6.771
    3AU     LIG  873   1.729  36.565   6.569
    3AU       S  874   1.905  37.024   7.661
    3AU     LIG  875   1.467  36.884   7.628
    3AU     LIG  876   1.193  36.521   7.781
    3AU    AUSL  877   2.593  37.360   7.682
    3AU    AUSL  878   2.665  36.878   7.848
    3AU     AUL  879   2.395  37.017   7.747
    3AU       S  880   2.451  36.652   8.035
    3AU     LIG  881   2.159  36.278   8.017
    3AU     LIG  882   2.061  35.903   8.294
    3AU       S  883   2.016  37.268   7.746
    3AU     LIG  884   1.688  37.274   8.058
    3AU     LIG  885   1.219  37.160   8.005
    3AU    AUSL  886   3.214  38.264   7.957
    3AU    AUSL  887   2.777  38.217   7.887
    3AU     AUL  888   3.024  38.280   8.253
    3AU       S  889   2.632  38.393   8.026
    3AU     LIG  890   2.307  38.544   8.334
    3AU     LIG  891   2.003  38.829   8.544
    3AU       S  892   3.182  38.662   8.017
    3AU     LIG  893   3.382  39.033   8.268
    3AU     LIG  894   3.343  39.424   8.559
    3AU    AUSL  895   3.004  38.463   7.617
    3AU    AUSL  896   3.351  38.508   7.268
    3AU     AUL  897   3.058  38.727   7.390
    3AU       S  898   3.157  38.881   7.849
    3AU     LIG  899   3.091  39.322   7.945
    3AU     LIG  900   3.058  39.682   8.227
    3AU       S  901   3.312  38.733   6.968
    3AU     LIG  902   3.513  39.132   7.134
    3AU     LIG  903   3.520  39.555   6.957
    3AU    AUSL  904   3.480  38.467   7.672
    3AU    AUSL  905   3.508  38.144   8.241
    3AU     AUL  906   3.588  38.410   8.026
    3AU       S  907   3.741  38.247   8.463
    3AU     LIG  908   4.094  38.243   8.791
    3AU     LIG  909   4.470  38.501   8.809
    3AU       S  910   3.409  38.740   7.732
    3AU     LIG  911   3.557  39.185   7.771
    3AU     LIG  912   3.568  39.519   8.106
    3AU    AUSL  913   3.257  36.836   8.098
    3AU    AUSL  914   3.821  36.828   7.701
    3AU     AUL  915   3.581  36.633   8.008
    3AU       S  916   3.151  36.337   8.034
    3AU     LIG  917   3.016  36.007   8.299
    3AU     LIG  918   3.085  35.547   8.361
    3AU       S  919   4.020  36.668   7.788
    3AU     LIG  920   4.189  36.231   8.015
    3AU     LIG  921   4.370  36.066   8.428
    3AU    AUSL  922   3.037  36.708   7.730
    3AU    AUSL  923   2.986  37.145   7.986
    3AU     AUL  924   2.915  36.775   8.117
    3AU       S  925   2.940  36.437   7.788
    3AU     LIG  926   2.655  36.147   7.954
    3AU     LIG  927   2.742  35.688   7.977
    3AU       S  928   2.440  36.707   8.294
    3AU     LIG  929   2.336  36.327   8.486
    3AU     LIG  930   2.124  36.069   8.798
    3AU    AUSL  931   3.412  36.918   7.677
    3AU    AUSL  932   3.077  36.800   7.316
    3AU     AUL  933   3.349  36.567   7.558
    3AU       S  934   2.941  36.490   7.300
    3AU     LIG  935   2.637  36.201   7.094
    3AU     LIG  936   2.794  35.768   7.074
    3AU       S  937   3.146  36.189   7.822
    3AU     LIG  938   3.289  35.756   7.926
    3AU     LIG  939   3.424  35.289   8.025
    3AU    AUSL  940   3.310  38.215   6.950
    3AU    AUSL  941   3.620  38.168   7.286
    3AU     AUL  942   3.664  38.444   7.072
    3AU       S  943   3.321  38.422   6.729
    3AU     LIG  944   3.608  38.716   6.504
    3AU     LIG  945   3.525  39.155   6.609
    3AU       S  946   4.237  38.167   6.806
    3AU     LIG  947   4.536  38.490   6.873
    3AU     LIG  948   4.766  38.872   6.742
    3AU    AUSL  949   3.050  38.184   7.304
    3AU    AUSL  950   2.915  38.137   6.828
    3AU     AUL  951   2.940  38.426   7.032
    3AU       S  952   3.163  38.730   6.721
    3AU     LIG  953   3.072  39.181   6.879
    3AU     LIG  954   3.006  39.648   6.941
    3AU       S  955   2.647  38.243   6.684
    3AU     LIG  956   2.457  38.326   6.284
    3AU     LIG  957   2.282  38.595   5.934
    3AU    AUSL  958   3.252  36.801   6.910
    3AU    AUSL  959   2.742  36.851   7.048
    3AU     AUL  960   2.979  36.730   6.892
    3AU       S  961   2.501  36.831   6.842
    3AU     LIG  962   2.173  36.457   6.873
    3AU     LIG  963   1.815  36.102   6.799
    3AU       S  964   3.180  36.347   7.143
    3AU     LIG  965   3.121  36.078   6.814
    3AU     LIG  966   3.223  35.630   6.761
    3AU    AUSL  967   3.495  36.920   7.263
    3AU    AUSL  968   3.589  37.046   6.823
    3AU     AUL  969   3.573  36.671   7.029
    3AU       S  970   3.066  36.206   7.334
    3AU     LIG  971   3.353  35.849   7.224
    3AU     LIG  972   3.667  35.482   7.111
    3AU       S  973   3.757  36.913   6.651
    3AU     LIG  974   3.765  36.647   6.285
    3AU     LIG  975   3.963  36.297   6.041
    4AU     AUC  976  28.339  32.644   7.489
    4AU     AUC  977  28.636  32.680   7.321
    4AU     AUC  978  28.608  32.668   7.655
    4AU     AUC  979  28.056  32.625   7.323
    4AU     AUC  980  28.084  32.637   7.684
    4AU     AUC  981  28.141  32.882   7.520
    4AU     AUC  982  28.476  32.918   7.490
    4AU     AUC  983  28.176  32.360   7.488
    4AU     AUC  984  28.538  32.416   7.485
    4AU     AUC  985  28.382  32.481   7.766
    4AU     AUC  986  28.326  32.807   7.770
    4AU     AUC  987  28.367  32.493   7.210
    4AU     AUC  988  28.336  32.818   7.218
    4AU     AUC  989  28.956  32.701   7.166
    4AU     AUC  990  28.987  32.706   7.482
    4AU     AUC  991  28.926  32.678   7.848
    4AU     AUC  992  27.757  32.601   7.156
    4AU     AUC  993  27.730  32.605   7.520
    4AU     AUC  994  27.777  32.606   7.879
    4AU     AUC  995  27.952  33.181   7.521
    4AU     AUC  996  28.295  33.257   7.486
    4AU     AUC  997  28.618  33.243   7.493
    4AU     AUC  998  28.004  32.048   7.486
    4AU     AUC  999  28.338  32.095   7.486
    4AU     AUC 1000  28.738  32.128   7.467
    4AU     AUC 1001  28.393  32.269   8.064
    4AU     AUC 1002  28.369  32.593   8.109
    4AU     AUC 1003  28.353  32.966   8.064
    4AU     AUC 1004  28.386  32.297   6.902
    4AU     AUC 1005  28.354  32.646   6.910
    4AU     AUC 1006  28.340  33.006   6.934
    4AU     AUC 1007  28.681  32.431   7.960
    4AU     AUC 1008  28.652  32.803   7.996
    4AU     AUC 1009  28.669  32.470   7.011
    4AU     AUC 1010  28.680  32.846   7.011
    4AU     AUC 1011  28.059  32.438   8.005
    4AU     AUC 1012  28.066  32.778   8.005
    4AU     AUC 1013  28.045  32.468   7.009
    4AU     AUC 1014  28.010  32.817   7.013
    4AU     AUC 1015  28.828  32.983   7.328
    4AU     AUC 1016  28.782  32.957   7.687
    4AU     AUC 1017  27.841  32.896   7.326
    4AU     AUC 1018  27.839  32.909   7.719
    4AU     AUC 1019  28.861  32.394   7.310
    4AU     AUC 1020  28.864  32.377   7.627
    4AU     AUC 1021  27.851  32.310   7.304
    4AU     AUC 1022  27.868  32.329   7.653
    4AU     AUC 1023  28.136  33.122   7.794
    4AU     AUC 1024  28.472  33.135   7.791
    4AU     AUC 1025  28.142  32.160   7.785
    4AU     AUC 1026  28.554  32.161   7.793
    4AU     AUC 1027  28.114  33.082   7.185
    4AU     AUC 1028  28.517  33.124   7.176
    4AU     AUC 1029  28.150  32.168   7.177
    4AU     AUC 1030  28.536  32.177   7.167
    4AU    AUSL 1031  28.959  32.595   8.214
    4AU    AUSL 1032  28.780  32.087   8.091
    4AU     AUL 1033  29.022  32.213   8.299
    4AU       S 1034  29.172  31.816   8.107
    4AU     LIG 1035  29.202  31.499   8.428
    4AU     LIG 1036  29.419  31.178   8.720
    4AU       S 1037  29.223  32.638   8.379
    4AU     LIG 1038  29.340  32.660   8.831
    4AU     LIG 1039  29.191  32.483   9.247
    4AU    AUSL 1040  28.566  32.404   8.299
    4AU    AUSL 1041  28.253  32.727   8.419
    4AU     AUL 1042  28.463  32.575   8.644
    4AU       S 1043  28.915  32.455   8.674
    4AU     LIG 1044  28.846  32.174   9.015
    4AU     LIG 1045  28.813  32.161   9.481
    4AU       S 1046  27.762  32.521   8.737
    4AU     LIG 1047  27.859  32.760   9.121
    4AU     LIG 1048  27.782  32.855   9.587
    4AU    AUSL 1049  28.565  32.825   8.153
    4AU    AUSL 1050  28.976  33.018   8.106
    4AU     AUL 1051  28.807  32.852   8.436
    4AU       S 1052  28.428  33.099   8.621
    4AU     LIG 1053  28.700  33.221   8.942
    4AU     LIG 1054  29.024  32.958   9.110
    4AU       S 1055  29.123  33.178   8.304
    4AU     LIG 1056  29.571  33.221   8.336
    4AU     LIG 1057  29.963  33.492   8.362
    4AU    AUSL 1058  28.949  32.708   6.750
    4AU    AUSL 1059  28.768  33.212   6.806
    4AU     AUL 1060  28.901  32.990   6.510
    4AU       S 1061  28.889  32.561   6.292
    4AU     LIG 1062  29.195  32.538   5.932
    4AU     LIG 1063  29.193  32.356   5.485
    4AU       S 1064  29.075  33.348   6.750
    4AU     LIG 1065  29.107  33.620   6.389
    4AU     LIG 1066  29.438  33.756   6.094
    4AU    AUSL 1067  28.605  32.434   6.701
    4AU    AUSL 1068  28.896  32.404   7.061
    4AU     AUL 1069  29.033  32.410   6.700
    4AU       S 1070  29.206  31.806   6.751
    4AU     LIG 1071  29.543  31.650   6.462
    4AU     LIG 1072  29.766  31.600   6.030
    4AU       S 1073  28.649  32.283   6.421
    4AU     LIG 1074  28.533  32.023   6.045
    4AU     LIG 1075  28.826  31.999   5.657
    4AU    AUSL 1076  28.533  32.854   6.787
    4AU    AUSL 1077  28.201  32.464   6.574
    4AU     AUL 1078  28.467  32.724   6.453
    4AU       S 1079  28.048  32.519   6.297
    4AU     LIG 1080  28.195  32.388   5.876
    4AU     LIG 1081  27.882  32.331   5.535
    4AU       S 1082  28.900  32.267   6.249
    4AU     LIG 1083  28.703  32.465   5.837
    4AU     LIG 1084  28.698  32.508   5.360
    4AU    AUSL 1085  27.894  32.593   8.215
    4AU    AUSL 1086  28.096  33.026   8.152
    4AU     AUL 1087  27.994  32.903   8.477
    4AU       S 1088  27.639  32.601   8.493
    4AU     LIG 1089  27.406  32.835   8.842
    4AU     LIG 1090  27.380  32.670   9.293
    4AU       S 1091  27.687  33.239   8.330
    4AU     LIG 1092  27.577  33.515   8.668
    4AU     LIG 1093  27.403  33.959   8.801
    4AU    AUSL 1094  28.161  32.284   8.403
    4AU    AUSL 1095  27.629  32.280   8.090
    4AU     AUL 1096  27.815  32.194   8.362
    4AU       S 1097  27.406  31.995   8.209
    4AU     LIG 1098  27.073  31.671   8.213
    4AU     LIG 1099  26.800  31.383   8.499
    4AU       S 1100  27.991  32.447   8.707
    4AU     LIG 1101  27.980  32.261   9.121
    4AU     LIG 1102  27.743  32.335   9.520
    4AU    AUSL 1103  27.796  32.549   6.727
    4AU    AUSL 1104  28.104  32.248   6.935
    4AU     AUL 1105  27.959  32.186   6.625
    4AU       S 1106  27.649  32.475   6.413
    4AU     LIG 1107  27.369  32.576   6.049
    4AU     LIG 1108  27.414  32.596   5.570
    4AU       S 1109  27.486  32.055   6.644
    4AU     LIG 1110  27.255  31.691   6.521
    4AU     LIG 1111  27.005  31.324   6.386
    4AU    AUSL 1112  28.113  32.853   6.766
    4AU    AUSL 1113  27.688  32.905   6.952
    4AU     AUL 1114  27.834  32.876   6.558
    4AU       S 1115  27.460  33.072   6.769
    4AU     LIG 1116  27.195  33.448   6.611
    4AU     LIG 1117  26.890  33.704   6.336
    4AU       S 1118  27.808  32.380   6.193
    4AU     LIG 1119  27.825  32.737   5.884
    4AU     LIG 1120  27.854  32.842   5.425
    4AU    AUSL 1121  29.020  33.273   7.515
    4AU    AUSL 1122  28.997  32.972   7.091
    4AU     AUL 1123  29.150  33.367   7.221
    4AU       S 1124  29.250  33.034   6.905
    4AU     LIG 1125  29.563  32.910   6.601
    4AU     LIG 1126  29.535  33.266   6.291
    4AU       S 1127  29.549  33.191   7.803
    4AU     LIG 1128  29.962  33.278   7.612
    4AU     LIG 1129  30.104  33.579   7.321
    4AU    AUSL 1130  29.295  32.933   7.394
    4AU    AUSL 1131  29.309  32.545   7.675
    4AU     AUL 1132  29.599  32.720   7.522
    4AU       S 1133  29.479  33.167   7.536
    4AU     LIG 1134  29.812  33.188   7.136
    4AU     LIG 1135  30.277  33.044   7.210
    4AU       S 1136  29.578  32.242   7.547
    4AU     LIG 1137  29.884  31.954   7.744
    4AU     LIG 1138  30.262  32.042   8.046
    4AU    AUSL 1139  29.023  32.862   7.717
    4AU    AUSL 1140  28.702  33.180   7.787
    4AU     AUL 1141  29.072  33.276   7.842
    4AU       S 1142  29.088  33.486   8.297
    4AU     LIG 1143  29.486  33.723   8.267
    4AU     LIG 1144  29.830  34.008   8.462
    4AU       S 1145  29.409  32.956   7.895
    4AU     LIG 1146  29.920  32.959   8.022
    4AU     LIG 1147  30.287  32.878   7.720
    4AU    AUSL 1148  27.652  33.098   7.582
    4AU    AUSL 1149  27.702  32.902   7.989
    4AU     AUL 1150  27.395  33.188   7.831
    4AU       S 1151  27.594  32.990   8.211
    4AU     LIG 1152  27.223  33.153   8.458
    4AU     LIG 1153  27.078  33.599   8.552
    4AU       S 1154  27.578  33.536   7.564
    4AU     LIG 1155  27.142  33.676   7.451
    4AU     LIG 1156  26.746  33.793   7.669
    4AU    AUSL 1157  27.587  32.749   7.331
    4AU    AUSL 1158  27.705  33.280   7.200
    4AU     AUL 1159  27.427  33.084   7.249
    4AU       S 1160  27.284  32.656   6.997
    4AU     LIG 1161  26.841  32.910   6.978
    4AU     LIG 1162  26.433  33.187   7.106
    4AU       S 1163  27.517  33.504   7.007
    4AU     LIG 1164  27.388  33.918   6.772
    4AU     LIG 1165  27.044  34.157   6.523
    4AU    AUSL 1166  27.398  32.736   7.738
    4AU    AUSL 1167  27.392  32.373   7.392
    4AU     AUL 1168  27.225  32.710   7.461
    4AU       S 1169  27.116  32.275   7.592
    4AU     LIG 1170  26.759  32.235   7.309
    4AU     LIG 1171  26.575  31.883   7.424
    4AU       S 1172  27.216  32.760   7.976
    4AU     LIG 1173  26.760  32.958   7.904
    4AU     LIG 1174  26.501  33.377   7.916
    4AU    AUSL 1175  29.079  32.251   7.454
    4AU    AUSL 1176  28.924  32.406   7.835
    4AU     AUL 1177  29.249  32.288   7.881
    4AU       S 1178  29.389  32.087   7.472
    4AU     LIG 1179  29.520  31.656   7.456
    4AU     LIG 1180  29.942  31.457   7.430
    4AU       S 1181  29.410  31.836   7.918
    4AU     LIG 1182  29.663  31.629   8.199
    4AU     LIG 1183  29.866  31.357   8.519
    4AU    AUSL 1184  29.269  32.552   7.194
    4AU    AUSL 1185  28.965  31.928   7.204
    4AU     AUL 1186  29.196  32.188   7.069
    4AU       S 1187  29.585  32.314   7.283
    4AU     LIG 1188  29.866  31.951   7.214
    4AU     LIG 1189  30.293  31.743   7.159
    4AU       S 1190  29.109  31.727   7.020
    4AU     LIG 1191  29.381  31.382   7.021
    4AU     LIG 1192  29.456  31.168   6.629
    4AU    AUSL 1193  27.753  32.082   7.453
    4AU    AUSL 1194  27.694  32.355   7.090
    4AU     AUL 1195  27.430  32.068   7.290
    4AU       S 1196  27.479  32.222   6.851
    4AU     LIG 1197  27.010  32.047   6.827
    4AU     LIG 1198  26.757  31.667   6.727
    4AU       S 1199  27.053  32.020   7.671
    4AU     LIG 1200  26.975  31.593   7.445
    4AU     LIG 1201  26.596  31.438   7.175
    4AU    AUSL 1202  27.693  32.434   7.706
    4AU    AUSL 1203  27.788  31.947   7.856
    4AU     AUL 1204  27.522  32.067   7.760
    4AU       S 1205  27.605  31.727   8.062
    4AU     LIG 1206  27.429  31.387   7.960
    4AU     LIG 1207  27.216  31.171   8.279
    4AU       S 1208  27.149  32.319   7.810
    4AU     LIG 1209  26.669  32.284   7.838
    4AU     LIG 1210  26.278  32.010   7.811
    4AU    AUSL 1211  28.304  33.348   7.946
    4AU    AUSL 1212  27.866  33.300   7.896
    4AU     AUL 1213  28.131  33.362   8.252
    4AU       S 1214  27.736  33.458   8.028
    4AU     LIG 1215  27.464  33.743   8.221
    4AU     LIG 1216  27.304  34.144   8.338
    4AU       S 1217  28.265  33.742   8.002
    4AU     LIG 1218  28.506  34.120   8.195
    4AU     LIG 1219  28.413  34.536   8.415
    4AU    AUSL 1220  28.081  33.539   7.609
    4AU    AUSL 1221  28.419  33.577   7.240
    4AU     AUL 1222  28.145  33.805   7.382
    4AU       S 1223  28.196  33.963   7.844
    4AU     LIG 1224  28.174  34.404   7.915
    4AU     LIG 1225  28.214  34.854   8.049
    4AU       S 1226  28.355  33.800   6.940
    4AU     LIG 1227  28.572  34.197   7.101
    4AU     LIG 1228  28.523  34.636   7.018
    4AU    AUSL 1229  28.554  33.549   7.644
    4AU    AUSL 1230  28.609  33.240   8.223
    4AU     AUL 1231  28.677  33.500   8.000
    4AU       S 1232  28.834  33.346   8.440
    4AU     LIG 1233  29.186  33.352   8.768
    4AU     LIG 1234  29.587  33.601   8.759
    4AU       S 1235  28.477  33.829   7.726
    4AU     LIG 1236  28.593  34.262   7.655
    4AU     LIG 1237  28.659  34.590   7.973
    4AU    AUSL 1238  28.385  31.917   8.099
    4AU    AUSL 1239  28.946  31.931   7.707
    4AU     AUL 1240  28.709  31.725   8.010
    4AU       S 1241  28.020  31.370   8.062
    4AU     LIG 1242  28.189  30.946   8.215
    4AU     LIG 1243  28.121  30.534   8.410
    4AU       S 1244  29.130  31.804   7.776
    4AU     LIG 1245  29.278  31.364   7.879
    4AU     LIG 1246  29.491  31.142   8.213
    4AU    AUSL 1247  28.162  31.792   7.730
    4AU    AUSL 1248  28.106  32.219   7.988
    4AU     AUL 1249  28.056  31.854   8.123
    4AU       S 1250  28.036  31.528   7.783
    4AU     LIG 1251  27.805  31.196   7.652
    4AU     LIG 1252  27.997  30.829   7.739
    4AU       S 1253  27.574  31.769   8.307
    4AU     LIG 1254  27.617  31.383   8.493
    4AU     LIG 1255  27.357  31.067   8.757
    4AU    AUSL 1256  28.535  32.002   7.679
    4AU    AUSL 1257  28.165  31.853   7.308
    4AU     AUL 1258  28.466  31.651   7.553
    4AU       S 1259  28.050  31.565   7.302
    4AU     LIG 1260  27.755  31.260   7.150
    4AU     LIG 1261  27.963  30.869   7.230
    4AU       S 1262  28.253  31.342   7.895
    4AU     LIG 1263  28.486  30.984   7.796
    4AU     LIG 1264  28.671  30.675   8.096
    4AU    AUSL 1265  28.362  33.271   6.930
    4AU    AUSL 1266  28.687  33.239   7.252
    4AU     AUL 1267  28.716  33.514   7.026
    4AU       S 1268  28.353  33.499   6.711
    4AU     LIG 1269  28.615  33.845   6.496
    4AU     LIG 1270  28.549  34.300   6.591
    4AU       S 1271  29.329  33.298   6.769
    4AU     LIG 1272  29.548  33.679   6.638
    4AU     LIG 1273  29.623  34.112   6.438
    4AU    AUSL 1274  28.117  33.258   7.297
    4AU    AUSL 1275  27.951  33.241   6.839
    4AU     AUL 1276  27.990  33.501   7.048
    4AU       S 1277  28.164  33.792   6.701
    4AU     LIG 1278  28.109  34.247   6.860
    4AU     LIG 1279  28.093  34.698   6.732
    4AU       S 1280  27.682  33.334   6.712
    4AU     LIG 1281  27.648  33.658   6.415
    4AU     LIG 1282  27.348  33.929   6.181
    4AU    AUSL 1283  28.341  31.899   6.895
    4AU    AUSL 1284  27.822  31.932   7.058
    4AU     AUL 1285  28.066  31.802   6.894
    4AU       S 1286  27.589  31.911   6.866
    4AU     LIG 1287  27.286  31.529   7.002
    4AU     LIG 1288  26.971  31.212   6.886
    4AU       S 1289  28.257  31.399   7.132
    4AU     LIG 1290  28.259  31.038   6.859
    4AU     LIG 1291  28.226  30.556   6.905
    4AU    AUSL 1292  28.562  32.024   7.260
    4AU    AUSL 1293  28.736  32.056   6.845
    4AU     AUL 1294  28.637  31.728   7.064
    4AU       S 1295  28.209  31.280   7.373
    4AU     LIG 1296  28.542  30.986   7.278
    4AU     LIG 1297  28.718  30.598   7.078
    4AU       S 1298  28.925  31.922   6.711
    4AU     LIG 1299  29.040  31.727   6.285
    4AU     LIG 1300  29.316  31.353   6.098
    5AU     AUC 1301  26.709  11.189   7.496
    5AU     AUC 1302  27.007  11.228   7.332
    5AU     AUC 1303  26.981  11.207   7.666
    5AU     AUC 1304  26.417  11.176   7.333
    5AU     AUC 1305  26.430  11.170   7.676
    5AU     AUC 1306  26.525  11.436   7.521
    5AU     AUC 1307  26.860  11.462   7.502
    5AU     AUC 1308  26.554  10.908   7.496
    5AU     AUC 1309  26.910  10.955   7.487
    5AU     AUC 1310  26.745  11.027   7.764
    5AU     AUC 1311  26.695  11.347   7.773
    5AU     AUC 1312  26.732  11.030   7.223
    5AU     AUC 1313  26.732  11.370   7.241
    5AU     AUC 1314  27.320  11.257   7.173
    5AU     AUC 1315  27.358  11.247   7.496
    5AU     AUC 1316  27.286  11.206   7.866
    5AU     AUC 1317  26.107  11.166   7.158
    5AU     AUC 1318  26.084  11.212   7.489
    5AU     AUC 1319  26.123  11.147   7.848
    5AU     AUC 1320  26.360  11.750   7.510
    5AU     AUC 1321  26.692  11.805   7.497
    5AU     AUC 1322  27.009  11.784   7.513
    5AU     AUC 1323  26.381  10.588   7.503
    5AU     AUC 1324  26.731  10.626   7.501
    5AU     AUC 1325  27.117  10.673   7.462
    5AU     AUC 1326  26.742  10.805   8.054
    5AU     AUC 1327  26.700  11.124   8.098
    5AU     AUC 1328  26.709  11.498   8.067
    5AU     AUC 1329  26.730  10.831   6.933
    5AU     AUC 1330  26.724  11.183   6.916
    5AU     AUC 1331  26.747  11.544   6.935
    5AU     AUC 1332  27.033  10.966   7.968
    5AU     AUC 1333  27.011  11.330   8.013
    5AU     AUC 1334  27.016  11.050   7.011
    5AU     AUC 1335  27.043  11.413   7.001
    5AU     AUC 1336  26.409  10.971   7.964
    5AU     AUC 1337  26.406  11.328   7.989
    5AU     AUC 1338  26.379  10.957   7.048
    5AU     AUC 1339  26.406  11.345   7.042
    5AU     AUC 1340  27.214  11.524   7.347
    5AU     AUC 1341  27.157  11.488   7.708
    5AU     AUC 1342  26.217  11.478   7.312
    5AU     AUC 1343  26.234  11.488   7.710
    5AU     AUC 1344  27.228  10.954   7.299
    5AU     AUC 1345  27.230  10.918   7.635
    5AU     AUC 1346  26.202  10.890   7.335
    5AU     AUC 1347  26.195  10.880   7.663
    5AU     AUC 1348  26.518  11.671   7.798
    5AU     AUC 1349  26.852  11.671   7.808
    5AU     AUC 1350  26.516  10.687   7.769
    5AU     AUC 1351  26.935  10.700   7.799
    5AU     AUC 1352  26.528  11.638   7.182
    5AU     AUC 1353  26.918  11.669   7.175
    5AU     AUC 1354  26.532  10.697   7.231
    5AU     AUC 1355  26.913  10.729   7.170
    5AU    AUSL 1356  27.281  11.098   8.248
    5AU    AUSL 1357  27.146  10.635   8.098
    5AU     AUL 1358  27.381  10.733   8.307
    5AU       S 1359  27.550  10.342   8.121
    5AU     LIG 1360  27.559   9.991   8.411
    5AU     LIG 1361  27.734   9.722   8.741
    5AU       S 1362  27.535  11.133   8.496
    5AU     LIG 1363  27.558  11.127   8.952
    5AU     LIG 1364  27.527  11.050   9.416
    5AU    AUSL 1365  26.875  10.918   8.300
    5AU    AUSL 1366  26.558  11.249   8.400
    5AU     AUL 1367  26.743  11.087   8.634
    5AU       S 1368  27.176  10.916   8.679
    5AU     LIG 1369  27.169  10.815   9.121
    5AU     LIG 1370  27.296  10.572   9.512
    5AU       S 1371  26.036  11.059   8.657
    5AU     LIG 1372  26.183  11.261   9.056
    5AU     LIG 1373  26.128  11.289   9.517
    5AU    AUSL 1374  26.903  11.348   8.176
    5AU    AUSL 1375  27.330  11.516   8.137
    5AU     AUL 1376  27.126  11.353   8.467
    5AU       S 1377  26.747  11.612   8.616
    5AU     LIG 1378  27.015  11.748   8.951
    5AU     LIG 1379  27.272  11.469   9.216
    5AU       S 1380  27.475  11.651   8.344
    5AU     LIG 1381  27.918  11.764   8.335
    5AU     LIG 1382  28.009  12.186   8.470
    5AU    AUSL 1383  27.275  11.304   6.747
    5AU    AUSL 1384  27.168  11.745   6.827
    5AU     AUL 1385  27.309  11.571   6.499
    5AU       S 1386  27.184  11.160   6.290
    5AU     LIG 1387  27.502  11.120   5.912
    5AU     LIG 1388  27.697  10.910   5.515
    5AU       S 1389  27.495  11.890   6.779
    5AU     LIG 1390  27.494  12.199   6.430
    5AU     LIG 1391  27.713  12.208   6.014
    5AU    AUSL 1392  26.923  11.056   6.718
    5AU    AUSL 1393  27.256  10.980   7.040
    5AU     AUL 1394  27.357  11.007   6.687
    5AU       S 1395  27.509  10.551   6.596
    5AU     LIG 1396  27.763  10.243   6.394
    5AU     LIG 1397  28.018   9.994   6.109
    5AU       S 1398  26.992  10.861   6.388
    5AU     LIG 1399  26.910  10.580   6.013
    5AU     LIG 1400  27.289  10.659   5.729
    5AU    AUSL 1401  26.860  11.493   6.645
    5AU    AUSL 1402  26.538  10.910   6.614
    5AU     AUL 1403  26.722  11.230   6.420
    5AU       S 1404  26.339  10.950   6.308
    5AU     LIG 1405  26.463  10.817   5.896
    5AU     LIG 1406  26.188  10.834   5.511
    5AU       S 1407  27.231  10.861   6.240
    5AU     LIG 1408  26.995  11.052   5.847
    5AU     LIG 1409  27.214  11.105   5.439
    5AU    AUSL 1410  26.207  11.151   8.148
    5AU    AUSL 1411  26.448  11.568   8.137
    5AU     AUL 1412  26.311  11.444   8.447
    5AU       S 1413  25.951  11.154   8.383
    5AU     LIG 1414  25.732  11.432   8.731
    5AU     LIG 1415  25.688  11.286   9.187
    5AU       S 1416  26.054  11.851   8.357
    5AU     LIG 1417  25.940  12.120   8.675
    5AU     LIG 1418  25.813  12.522   8.862
    5AU    AUSL 1419  26.448  10.824   8.346
    5AU    AUSL 1420  26.063  10.781   7.984
    5AU     AUL 1421  26.108  10.734   8.275
    5AU       S 1422  25.928  10.314   8.121
    5AU     LIG 1423  25.540  10.296   8.326
    5AU     LIG 1424  25.158  10.156   8.555
    5AU       S 1425  26.259  10.972   8.639
    5AU     LIG 1426  26.270  10.756   9.033
    5AU     LIG 1427  26.149  10.763   9.486
    5AU    AUSL 1428  26.165  11.078   6.780
    5AU    AUSL 1429  26.452  10.738   7.005
    5AU     AUL 1430  26.314  10.667   6.673
    5AU       S 1431  25.977  10.976   6.536
    5AU     LIG 1432  25.709  11.178   6.201
    5AU     LIG 1433  25.685  11.106   5.715
    5AU       S 1434  25.950  10.337   6.790
    5AU     LIG 1435  25.900  10.119   6.413
    5AU     LIG 1436  25.729   9.909   6.021
    5AU    AUSL 1437  26.539  11.306   6.845
    5AU    AUSL 1438  26.126  11.432   7.023
    5AU     AUL 1439  26.276  11.334   6.586
    5AU       S 1440  25.935  11.535   6.815
    5AU     LIG 1441  25.617  11.745   6.615
    5AU     LIG 1442  25.378  12.053   6.369
    5AU       S 1443  26.081  10.853   6.265
    5AU     LIG 1444  26.142  11.206   5.924
    5AU     LIG 1445  26.098  11.347   5.471
    5AU    AUSL 1446  27.406  11.808   7.547
    5AU    AUSL 1447  27.393  11.508   7.110
    5AU     AUL 1448  27.554  11.892   7.250
    5AU       S 1449  27.639  11.559   6.921
    5AU     LIG 1450  27.930  11.436   6.598
    5AU     LIG 1451  27.931  11.822   6.317
    5AU       S 1452  27.899  11.694   7.829
    5AU     LIG 1453  28.165  12.043   7.804
    5AU     LIG 1454  28.571  12.167   7.599
    5AU    AUSL 1455  27.680  11.466   7.420
    5AU    AUSL 1456  27.675  11.063   7.668
    5AU     AUL 1457  27.978  11.236   7.529
    5AU       S 1458  27.857  11.679   7.595
    5AU     LIG 1459  28.270  11.795   7.363
    5AU     LIG 1460  28.745  11.759   7.239
    5AU       S 1461  27.911  10.758   7.535
    5AU     LIG 1462  28.243  10.528   7.752
    5AU     LIG 1463  28.632  10.557   8.053
    5AU    AUSL 1464  27.405  11.394   7.741
    5AU    AUSL 1465  27.083  11.709   7.812
    5AU     AUL 1466  27.439  11.798   7.890
    5AU       S 1467  27.453  11.968   8.355
    5AU     LIG 1468  27.591  12.411   8.247
    5AU     LIG 1469  27.941  12.699   8.418
    5AU       S 1470  27.766  11.457   7.919
    5AU     LIG 1471  28.281  11.492   8.032
    5AU     LIG 1472  28.610  11.662   7.743
    5AU    AUSL 1473  26.102  11.710   7.542
    5AU    AUSL 1474  26.017  11.519   8.027
    5AU     AUL 1475  25.794  11.738   7.781
    5AU       S 1476  25.913  11.622   8.238
    5AU     LIG 1477  25.557  11.840   8.432
    5AU     LIG 1478  25.431  12.259   8.599
    5AU       S 1479  25.996  12.107   7.541
    5AU     LIG 1480  25.504  12.256   7.471
    5AU     LIG 1481  25.065  12.501   7.430
    5AU    AUSL 1482  25.807  11.486   7.299
    5AU    AUSL 1483  26.132  11.870   7.142
    5AU     AUL 1484  25.854  11.762   7.233
    5AU       S 1485  25.545  11.414   7.060
    5AU     LIG 1486  25.118  11.571   7.149
    5AU     LIG 1487  24.693  11.513   7.306
    5AU       S 1488  25.974  12.030   6.852
    5AU     LIG 1489  25.710  12.332   6.661
    5AU     LIG 1490  25.731  12.762   6.483
    5AU    AUSL 1491  25.988  11.299   7.668
    5AU    AUSL 1492  25.828  11.063   7.300
    5AU     AUL 1493  25.635  11.364   7.530
    5AU       S 1494  25.426  11.004   7.312
    5AU     LIG 1495  25.137  10.727   7.069
    5AU     LIG 1496  24.749  10.485   7.219
    5AU       S 1497  25.613  11.287   8.001
    5AU     LIG 1498  25.139  11.377   7.930
    5AU     LIG 1499  24.819  11.744   7.959
    5AU    AUSL 1500  27.404  10.791   7.449
    5AU    AUSL 1501  27.300  10.950   7.849
    5AU     AUL 1502  27.613  10.820   7.887
    5AU       S 1503  27.699  10.624   7.456
    5AU     LIG 1504  27.897  10.247   7.437
    5AU     LIG 1505  28.307  10.187   7.317
    5AU       S 1506  27.792  10.364   7.920
    5AU     LIG 1507  28.019  10.138   8.234
    5AU     LIG 1508  28.150  10.052   8.673
    5AU    AUSL 1509  27.629  11.091   7.210
    5AU    AUSL 1510  27.361  10.534   7.109
    5AU     AUL 1511  27.576  10.789   7.040
    5AU       S 1512  27.948  10.814   7.307
    5AU     LIG 1513  28.404  10.707   7.283
    5AU     LIG 1514  28.892  10.730   7.211
    5AU       S 1515  27.463  10.379   6.823
    5AU     LIG 1516  27.667   9.980   6.822
    5AU     LIG 1517  27.789   9.689   6.473
    5AU    AUSL 1518  26.107  10.772   7.496
    5AU    AUSL 1519  26.010  10.781   7.040
    5AU     AUL 1520  25.767  10.693   7.300
    5AU       S 1521  25.885  10.581   6.861
    5AU     LIG 1522  25.653  10.585   6.467
    5AU     LIG 1523  25.409  10.244   6.267
    5AU       S 1524  25.309  10.977   7.484
    5AU     LIG 1525  25.173  10.511   7.531
    5AU     LIG 1526  25.029  10.194   7.841
    5AU    AUSL 1527  25.763  10.943   7.724
    5AU    AUSL 1528  26.182  10.432   7.737
    5AU     AUL 1529  25.838  10.595   7.754
    5AU       S 1530  26.068  10.174   7.793
    5AU     LIG 1531  25.606   9.995   7.889
    5AU     LIG 1532  25.408   9.794   8.261
    5AU       S 1533  25.465  10.921   7.644
    5AU     LIG 1534  24.977  10.859   7.829
    5AU     LIG 1535  24.630  10.516   7.730
    5AU    AUSL 1536  26.684  11.886   7.961
    5AU    AUSL 1537  26.243  11.879   7.910
    5AU     AUL 1538  26.500  11.895   8.260
    5AU       S 1539  26.109  12.036   8.028
    5AU     LIG 1540  25.771  12.271   8.205
    5AU     LIG 1541  25.783  12.701   8.376
    5AU       S 1542  26.634  12.276   8.021
    5AU     LIG 1543  26.738  12.476   8.433
    5AU     LIG 1544  26.706  12.920   8.574
    5AU    AUSL 1545  26.483  12.079   7.614
    5AU    AUSL 1546  26.829  12.131   7.269
    5AU     AUL 1547  26.521  12.336   7.390
    5AU       S 1548  26.624  12.472   7.873
    5AU     LIG 1549  26.541  12.810   8.110
    5AU     LIG 1550  26.696  13.196   8.110
    5AU       S 1551  26.796  12.374   6.994
    5AU     LIG 1552  27.088  12.742   7.058
    5AU     LIG 1553  27.080  13.214   7.079
    5AU    AUSL 1554  26.952  12.087   7.675
    5AU    AUSL 1555  26.976  11.760   8.244
    5AU     AUL 1556  27.048  12.037   8.028
    5AU       S 1557  27.178  11.851   8.460
    5AU     LIG 1558  27.203  12.314   8.607
    5AU     LIG 1559  27.580  12.537   8.748
    5AU       S 1560  26.875  12.376   7.737
    5AU     LIG 1561  26.924  12.857   7.764
    5AU     LIG 1562  27.182  13.204   7.965
    5AU    AUSL 1563  26.757  10.462   8.138
    5AU    AUSL 1564  27.326  10.469   7.723
    5AU     AUL 1565  27.081  10.275   8.033
    5AU       S 1566  26.663   9.952   8.134
    5AU     LIG 1567  26.449   9.585   8.245
    5AU     LIG 1568  26.578   9.142   8.361
    5AU       S 1569  27.512  10.323   7.802
    5AU     LIG 1570  27.675   9.874   7.916
    5AU     LIG 1571  27.893   9.593   8.246
    5AU    AUSL 1572  26.581  10.286   7.771
    5AU    AUSL 1573  26.491  10.717   7.936
    5AU     AUL 1574  26.400  10.384   8.097
    5AU       S 1575  26.560  10.009   7.857
    5AU     LIG 1576  26.325   9.652   7.751
    5AU     LIG 1577  26.422   9.199   7.861
    5AU       S 1578  26.083  10.014   8.043
    5AU     LIG 1579  25.904   9.923   8.439
    5AU     LIG 1580  25.580   9.935   8.759
    5AU    AUSL 1581  26.916  10.546   7.689
    5AU    AUSL 1582  26.586  10.391   7.358
    5AU     AUL 1583  26.896  10.191   7.564
    5AU       S 1584  26.463  10.052   7.373
    5AU     LIG 1585  26.187   9.741   7.214
    5AU     LIG 1586  26.332   9.326   7.069
    5AU       S 1587  26.797   9.839   7.907
    5AU     LIG 1588  26.883   9.412   8.010
    5AU     LIG 1589  26.888   8.947   7.981
    5AU    AUSL 1590  26.772  11.864   6.931
    5AU    AUSL 1591  27.084  11.782   7.270
    5AU     AUL 1592  27.131  12.054   7.043
    5AU       S 1593  26.794  12.100   6.708
    5AU     LIG 1594  27.069  12.489   6.561
    5AU     LIG 1595  26.979  12.956   6.595
    5AU       S 1596  27.756  11.844   6.804
    5AU     LIG 1597  27.899  12.286   6.714
    5AU     LIG 1598  27.982  12.750   6.836
    5AU    AUSL 1599  26.524  11.810   7.292
    5AU    AUSL 1600  26.395  11.714   6.816
    5AU     AUL 1601  26.421  12.046   7.005
    5AU       S 1602  26.637  12.404   6.766
    5AU     LIG 1603  26.591  12.835   6.925
    5AU     LIG 1604  26.298  13.073   6.728
    5AU       S 1605  26.146  11.792   6.669
    5AU     LIG 1606  25.967  12.032   6.334
    5AU     LIG 1607  25.722  12.368   6.132
    5AU    AUSL 1608  26.711  10.408   6.933
    5AU    AUSL 1609  26.180  10.432   7.240
    5AU     AUL 1610  26.406  10.323   6.990
    5AU       S 1611  25.941  10.290   7.097
    5AU     LIG 1612  25.772   9.892   6.897
    5AU     LIG 1613  25.519   9.774   6.512
    5AU       S 1614  26.683   9.942   7.177
    5AU     LIG 1615  26.575   9.714   6.825
    5AU     LIG 1616  26.681   9.298   6.661
    5AU    AUSL 1617  26.973  10.558   7.269
    5AU    AUSL 1618  27.037  10.660   6.827
    5AU     AUL 1619  27.046  10.294   7.043
    5AU       S 1620  26.651   9.789   7.398
    5AU     LIG 1621  26.843   9.428   7.167
    5AU     LIG 1622  26.978   9.004   6.986
    5AU       S 1623  27.211  10.521   6.646
    5AU     LIG 1624  27.279  10.305   6.232
    5AU     LIG 1625  27.499   9.918   6.068
    6AU     AUC 1626  21.329   8.382   7.494
    6AU     AUC 1627  21.629   8.422   7.329
    6AU     AUC 1628  21.598   8.403   7.664
    6AU     AUC 1629  21.045   8.366   7.325
    6AU     AUC 1630  21.059   8.364   7.680
    6AU     AUC 1631  21.131   8.621   7.520
    6AU     AUC 1632  21.464   8.656   7.498
    6AU     AUC 1633  21.172   8.100   7.493
    6AU     AUC 1634  21.531   8.153   7.489
    6AU     AUC 1635  21.368   8.213   7.770
    6AU     AUC 1636  21.309   8.538   7.772
    6AU     AUC 1637  21.359   8.233   7.215
    6AU     AUC 1638  21.332   8.560   7.223
    6AU     AUC 1639  21.948   8.448   7.179
    6AU     AUC 1640  21.976   8.448   7.495
    6AU     AUC 1641  21.911   8.414   7.860
    6AU     AUC 1642  20.747   8.343   7.151
    6AU     AUC 1643  20.710   8.357   7.519
    6AU     AUC 1644  20.758   8.341   7.871
    6AU     AUC 1645  20.944   8.922   7.518
    6AU     AUC 1646  21.281   8.995   7.495
    6AU     AUC 1647  21.604   8.982   7.510
    6AU     AUC 1648  21.001   7.782   7.490
    6AU     AUC 1649  21.340   7.827   7.494
    6AU     AUC 1650  21.736   7.867   7.470
    6AU     AUC 1651  21.381   7.995   8.062
    6AU     AUC 1652  21.341   8.316   8.104
    6AU     AUC 1653  21.328   8.693   8.066
    6AU     AUC 1654  21.376   8.039   6.912
    6AU     AUC 1655  21.354   8.384   6.916
    6AU     AUC 1656  21.342   8.750   6.943
    6AU     AUC 1657  21.668   8.164   7.967
    6AU     AUC 1658  21.633   8.533   8.007
    6AU     AUC 1659  21.662   8.221   7.014
    6AU     AUC 1660  21.678   8.596   7.023
    6AU     AUC 1661  21.046   8.153   7.991
    6AU     AUC 1662  21.040   8.505   7.995
    6AU     AUC 1663  21.032   8.201   7.019
    6AU     AUC 1664  21.007   8.554   7.013
    6AU     AUC 1665  21.819   8.727   7.346
    6AU     AUC 1666  21.766   8.693   7.702
    6AU     AUC 1667  20.834   8.636   7.316
    6AU     AUC 1668  20.822   8.654   7.711
    6AU     AUC 1669  21.850   8.139   7.313
    6AU     AUC 1670  21.858   8.117   7.635
    6AU     AUC 1671  20.831   8.067   7.322
    6AU     AUC 1672  20.852   8.071   7.658
    6AU     AUC 1673  21.119   8.856   7.797
    6AU     AUC 1674  21.455   8.868   7.802
    6AU     AUC 1675  21.142   7.878   7.778
    6AU     AUC 1676  21.555   7.894   7.799
    6AU     AUC 1677  21.108   8.823   7.186
    6AU     AUC 1678  21.509   8.870   7.190
    6AU     AUC 1679  21.141   7.910   7.190
    6AU     AUC 1680  21.526   7.920   7.172
    6AU    AUSL 1681  21.933   8.324   8.230
    6AU    AUSL 1682  21.780   7.824   8.099
    6AU     AUL 1683  22.020   7.952   8.301
    6AU       S 1684  22.151   7.536   8.142
    6AU     LIG 1685  22.216   7.179   8.393
    6AU     LIG 1686  22.482   6.952   8.712
    6AU       S 1687  22.195   8.374   8.420
    6AU     LIG 1688  22.281   8.359   8.876
    6AU     LIG 1689  22.243   8.264   9.339
    6AU    AUSL 1690  21.540   8.127   8.303
    6AU    AUSL 1691  21.210   8.445   8.407
    6AU     AUL 1692  21.415   8.297   8.640
    6AU       S 1693  21.863   8.165   8.677
    6AU     LIG 1694  21.886   8.004   9.075
    6AU     LIG 1695  21.809   8.010   9.535
    6AU       S 1696  20.698   8.249   8.707
    6AU     LIG 1697  20.824   8.520   9.082
    6AU     LIG 1698  20.699   8.681   9.515
    6AU    AUSL 1699  21.538   8.551   8.164
    6AU    AUSL 1700  21.951   8.747   8.126
    6AU     AUL 1701  21.773   8.575   8.452
    6AU       S 1702  21.385   8.811   8.625
    6AU     LIG 1703  21.666   8.942   8.954
    6AU     LIG 1704  21.986   8.684   9.147
    6AU       S 1705  22.089   8.909   8.329
    6AU     LIG 1706  22.526   8.958   8.377
    6AU     LIG 1707  22.909   9.216   8.382
    6AU    AUSL 1708  21.958   8.465   6.768
    6AU    AUSL 1709  21.772   8.972   6.829
    6AU     AUL 1710  21.912   8.757   6.532
    6AU       S 1711  21.899   8.338   6.309
    6AU     LIG 1712  22.193   8.394   5.976
    6AU     LIG 1713  22.245   8.238   5.540
    6AU       S 1714  22.072   9.118   6.780
    6AU     LIG 1715  22.166   9.396   6.431
    6AU     LIG 1716  22.396   9.477   6.030
    6AU    AUSL 1717  21.617   8.201   6.689
    6AU    AUSL 1718  21.887   8.148   7.062
    6AU     AUL 1719  22.032   8.156   6.710
    6AU       S 1720  22.159   7.656   6.689
    6AU     LIG 1721  22.489   7.561   6.417
    6AU     LIG 1722  22.767   7.333   6.096
    6AU       S 1723  21.661   8.051   6.406
    6AU     LIG 1724  21.546   7.807   6.018
    6AU     LIG 1725  21.676   7.868   5.544
    6AU    AUSL 1726  21.538   8.614   6.791
    6AU    AUSL 1727  21.205   8.182   6.593
    6AU     AUL 1728  21.456   8.476   6.456
    6AU       S 1729  21.061   8.229   6.299
    6AU     LIG 1730  21.191   8.143   5.864
    6AU     LIG 1731  20.893   8.104   5.498
    6AU       S 1732  21.908   8.054   6.243
    6AU     LIG 1733  21.707   8.273   5.856
    6AU     LIG 1734  21.793   8.478   5.436
    6AU    AUSL 1735  20.854   8.312   8.186
    6AU    AUSL 1736  21.068   8.751   8.142
    6AU     AUL 1737  20.952   8.623   8.456
    6AU       S 1738  20.601   8.315   8.431
    6AU     LIG 1739  20.387   8.618   8.772
    6AU     LIG 1740  20.340   8.435   9.215
    6AU       S 1741  20.650   8.966   8.327
    6AU     LIG 1742  20.542   9.177   8.680
    6AU     LIG 1743  20.281   9.553   8.771
    6AU    AUSL 1744  21.128   8.007   8.378
    6AU    AUSL 1745  20.665   7.940   8.071
    6AU     AUL 1746  20.803   7.904   8.352
    6AU       S 1747  20.421   7.662   8.176
    6AU     LIG 1748  19.963   7.530   8.201
    6AU     LIG 1749  19.678   7.182   8.414
    6AU       S 1750  20.935   8.182   8.693
    6AU     LIG 1751  20.926   8.021   9.114
    6AU     LIG 1752  20.731   8.154   9.518
    6AU    AUSL 1753  20.798   8.282   6.721
    6AU    AUSL 1754  21.084   7.983   6.958
    6AU     AUL 1755  20.962   7.911   6.637
    6AU       S 1756  20.654   8.211   6.438
    6AU     LIG 1757  20.373   8.389   6.132
    6AU     LIG 1758  20.382   8.279   5.673
    6AU       S 1759  20.506   7.762   6.627
    6AU     LIG 1760  20.356   7.379   6.469
    6AU     LIG 1761  20.170   7.169   6.097
    6AU    AUSL 1762  21.120   8.576   6.784
    6AU    AUSL 1763  20.685   8.642   6.933
    6AU     AUL 1764  20.875   8.606   6.544
    6AU       S 1765  20.493   8.775   6.759
    6AU     LIG 1766  20.195   9.054   6.586
    6AU     LIG 1767  19.933   9.412   6.426
    6AU       S 1768  20.807   8.134   6.204
    6AU     LIG 1769  20.812   8.481   5.876
    6AU     LIG 1770  20.711   8.585   5.405
    6AU    AUSL 1771  22.007   9.015   7.541
    6AU    AUSL 1772  21.990   8.724   7.113
    6AU     AUL 1773  22.143   9.114   7.251
    6AU       S 1774  22.255   8.788   6.931
    6AU     LIG 1775  22.572   8.675   6.599
    6AU     LIG 1776  22.576   9.059   6.320
    6AU       S 1777  22.527   8.957   7.853
    6AU     LIG 1778  22.875   9.247   7.875
    6AU     LIG 1779  23.070   9.686   7.819
    6AU    AUSL 1780  22.287   8.682   7.416
    6AU    AUSL 1781  22.300   8.287   7.680
    6AU     AUL 1782  22.592   8.484   7.534
    6AU       S 1783  22.470   8.928   7.599
    6AU     LIG 1784  22.818   9.042   7.276
    6AU     LIG 1785  23.252   8.909   7.109
    6AU       S 1786  22.563   8.008   7.540
    6AU     LIG 1787  22.970   7.938   7.742
    6AU     LIG 1788  23.438   7.823   7.891
    6AU    AUSL 1789  22.011   8.601   7.735
    6AU    AUSL 1790  21.684   8.912   7.803
    6AU     AUL 1791  22.049   9.010   7.867
    6AU       S 1792  22.068   9.224   8.313
    6AU     LIG 1793  22.478   9.431   8.168
    6AU     LIG 1794  22.849   9.730   8.272
    6AU       S 1795  22.389   8.691   7.921
    6AU     LIG 1796  22.882   8.720   8.081
    6AU     LIG 1797  23.265   8.881   7.875
    6AU    AUSL 1798  20.662   8.849   7.567
    6AU    AUSL 1799  20.671   8.642   7.977
    6AU     AUL 1800  20.389   8.962   7.803
    6AU       S 1801  20.551   8.729   8.186
    6AU     LIG 1802  20.164   8.925   8.415
    6AU     LIG 1803  20.065   9.075   8.858
    6AU       S 1804  20.590   9.294   7.538
    6AU     LIG 1805  20.160   9.420   7.336
    6AU     LIG 1806  19.716   9.478   7.139
    6AU    AUSL 1807  20.582   8.498   7.315
    6AU    AUSL 1808  20.694   9.017   7.178
    6AU     AUL 1809  20.421   8.824   7.238
    6AU       S 1810  20.284   8.383   6.967
    6AU     LIG 1811  19.927   8.675   6.840
    6AU     LIG 1812  19.725   9.101   6.785
    6AU       S 1813  20.513   9.219   6.973
    6AU     LIG 1814  20.366   9.538   6.695
    6AU     LIG 1815  20.107   9.910   6.541
    6AU    AUSL 1816  20.367   8.519   7.701
    6AU    AUSL 1817  20.376   8.133   7.398
    6AU     AUL 1818  20.196   8.451   7.421
    6AU       S 1819  20.128   8.049   7.656
    6AU     LIG 1820  19.754   7.959   7.329
    6AU     LIG 1821  19.634   7.600   7.060
    6AU       S 1822  20.156   8.560   7.914
    6AU     LIG 1823  19.704   8.653   7.899
    6AU     LIG 1824  19.410   8.995   7.900
    6AU    AUSL 1825  22.066   7.992   7.460
    6AU    AUSL 1826  21.919   8.146   7.845
    6AU     AUL 1827  22.246   8.032   7.885
    6AU       S 1828  22.385   7.817   7.485
    6AU     LIG 1829  22.667   7.505   7.637
    6AU     LIG 1830  23.132   7.457   7.664
    6AU       S 1831  22.400   7.600   8.051
    6AU     LIG 1832  22.704   7.309   8.267
    6AU     LIG 1833  22.956   6.961   8.499
    6AU    AUSL 1834  22.253   8.304   7.209
    6AU    AUSL 1835  21.959   7.688   7.182
    6AU     AUL 1836  22.200   7.943   7.084
    6AU       S 1837  22.587   8.073   7.296
    6AU     LIG 1838  22.907   7.719   7.244
    6AU     LIG 1839  23.336   7.478   7.183
    6AU       S 1840  22.088   7.506   6.930
    6AU     LIG 1841  22.523   7.352   6.917
    6AU     LIG 1842  22.721   7.116   6.576
    6AU    AUSL 1843  20.749   7.882   7.461
    6AU    AUSL 1844  20.663   8.097   7.076
    6AU     AUL 1845  20.398   7.844   7.281
    6AU       S 1846  20.478   7.944   6.830
    6AU     LIG 1847  20.030   7.742   6.742
    6AU     LIG 1848  19.839   7.441   6.422
    6AU       S 1849  20.040   7.839   7.761
    6AU     LIG 1850  19.958   7.424   7.500
    6AU     LIG 1851  19.612   7.153   7.305
    6AU    AUSL 1852  20.641   8.198   7.742
    6AU    AUSL 1853  20.801   7.627   7.796
    6AU     AUL 1854  20.521   7.777   7.734
    6AU       S 1855  20.607   7.397   7.995
    6AU     LIG 1856  20.218   7.163   7.929
    6AU     LIG 1857  19.946   6.809   8.161
    6AU       S 1858  20.235   8.094   7.893
    6AU     LIG 1859  19.839   8.170   8.077
    6AU     LIG 1860  19.564   8.179   7.750
    6AU    AUSL 1861  21.284   9.080   7.957
    6AU    AUSL 1862  20.845   9.045   7.904
    6AU     AUL 1863  21.099   9.084   8.259
    6AU       S 1864  20.705   9.222   8.047
    6AU     LIG 1865  20.341   9.419   8.268
    6AU     LIG 1866  20.089   9.813   8.358
    6AU       S 1867  21.240   9.467   8.017
    6AU     LIG 1868  21.435   9.815   8.272
    6AU     LIG 1869  21.339  10.246   8.409
    6AU    AUSL 1870  21.072   9.272   7.616
    6AU    AUSL 1871  21.404   9.321   7.260
    6AU     AUL 1872  21.121   9.548   7.389
    6AU       S 1873  21.211   9.690   7.851
    6AU     LIG 1874  21.159  10.134   7.910
    6AU     LIG 1875  21.125  10.570   8.062
    6AU       S 1876  21.342   9.537   6.947
    6AU     LIG 1877  21.538   9.932   7.014
    6AU     LIG 1878  21.369  10.360   7.049
    6AU    AUSL 1879  21.543   9.285   7.663
    6AU    AUSL 1880  21.581   8.965   8.239
    6AU     AUL 1881  21.653   9.232   8.021
    6AU       S 1882  21.802   9.071   8.460
    6AU     LIG 1883  22.147   9.108   8.787
    6AU     LIG 1884  22.519   9.388   8.691
    6AU       S 1885  21.466   9.555   7.732
    6AU     LIG 1886  21.644   9.967   7.815
    6AU     LIG 1887  21.608  10.404   7.986
    6AU    AUSL 1888  21.390   7.645   8.116
    6AU    AUSL 1889  21.956   7.667   7.719
    6AU     AUL 1890  21.706   7.453   8.009
    6AU       S 1891  21.278   7.104   8.072
    6AU     LIG 1892  21.314   6.691   8.354
    6AU     LIG 1893  21.142   6.214   8.463
    6AU       S 1894  22.160   7.543   7.831
    6AU     LIG 1895  22.393   7.121   7.894
    6AU     LIG 1896  22.551   6.817   8.221
    6AU    AUSL 1897  21.200   7.492   7.741
    6AU    AUSL 1898  21.104   7.916   7.963
    6AU     AUL 1899  21.044   7.564   8.106
    6AU       S 1900  21.109   7.205   7.816
    6AU     LIG 1901  20.807   6.900   7.894
    6AU     LIG 1902  20.915   6.509   8.112
    6AU       S 1903  20.580   7.449   8.268
    6AU     LIG 1904  20.262   7.170   8.434
    6AU     LIG 1905  20.043   6.884   8.724
    6AU    AUSL 1906  21.545   7.742   7.687
    6AU    AUSL 1907  21.150   7.603   7.331
    6AU     AUL 1908  21.468   7.378   7.536
    6AU       S 1909  20.999   7.295   7.340
    6AU     LIG 1910  20.680   6.977   7.116
    6AU     LIG 1911  20.638   6.502   6.963
    6AU       S 1912  21.313   6.984   7.816
    6AU     LIG 1913  21.412   6.550   7.880
    6AU     LIG 1914  21.554   6.211   8.156
    6AU    AUSL 1915  21.362   9.021   6.943
    6AU    AUSL 1916  21.677   8.987   7.273
    6AU     AUL 1917  21.709   9.266   7.057
    6AU       S 1918  21.361   9.245   6.723
    6AU     LIG 1919  21.624   9.624   6.532
    6AU     LIG 1920  21.479  10.082   6.524
    6AU       S 1921  22.298   9.021   6.788
    6AU     LIG 1922  22.570   9.356   6.755
    6AU     LIG 1923  22.683   9.675   6.432
    6AU    AUSL 1924  21.101   8.999   7.298
    6AU    AUSL 1925  20.960   8.971   6.830
    6AU     AUL 1926  20.982   9.240   7.045
    6AU       S 1927  21.167   9.517   6.692
    6AU     LIG 1928  21.060   9.974   6.819
    6AU     LIG 1929  21.034  10.438   6.676
    6AU       S 1930  20.700   9.063   6.689
    6AU     LIG 1931  20.587   9.255   6.316
    6AU     LIG 1932  20.333   9.608   6.155
    6AU    AUSL 1933  21.318   7.630   6.913
    6AU    AUSL 1934  20.798   7.671   7.091
    6AU     AUL 1935  21.039   7.535   6.929
    6AU       S 1936  20.570   7.642   6.878
    6AU     LIG 1937  20.211   7.310   6.957
    6AU     LIG 1938  19.784   7.114   6.809
    6AU       S 1939  21.233   7.131   7.146
    6AU     LIG 1940  21.118   6.694   6.947
    6AU     LIG 1941  21.067   6.240   6.735
    6AU    AUSL 1942  21.554   7.757   7.267
    6AU    AUSL 1943  21.696   7.815   6.845
    6AU     AUL 1944  21.629   7.473   7.061
    6AU       S 1945  21.113   7.040   7.354
    6AU     LIG 1946  21.356   6.662   7.390
    6AU     LIG 1947  21.593   6.425   7.075
    6AU       S 1948  21.865   7.694   6.695
    6AU     LIG 1949  21.946   7.536   6.262
    6AU     LIG 1950  22.254   7.206   6.119
    7AU     AUC 1951  39.182   6.871   7.485
    7AU     AUC 1952  39.482   6.911   7.322
    7AU     AUC 1953  39.447   6.897   7.655
    7AU     AUC 1954  38.902   6.849   7.314
    7AU     AUC 1955  38.920   6.860   7.673
    7AU     AUC 1956  38.985   7.110   7.509
    7AU     AUC 1957  39.318   7.146   7.487
    7AU     AUC 1958  39.020   6.586   7.487
    7AU     AUC 1959  39.381   6.642   7.481
    7AU     AUC 1960  39.217   6.707   7.765
    7AU     AUC 1961  39.162   7.033   7.763
    7AU     AUC 1962  39.215   6.718   7.208
    7AU     AUC 1963  39.187   7.046   7.212
    7AU     AUC 1964  39.803   6.936   7.173
    7AU     AUC 1965  39.828   6.936   7.491
    7AU     AUC 1966  39.760   6.907   7.854
    7AU     AUC 1967  38.605   6.820   7.140
    7AU     AUC 1968  38.570   6.835   7.505
    7AU     AUC 1969  38.613   6.832   7.864
    7AU     AUC 1970  38.796   7.408   7.502
    7AU     AUC 1971  39.136   7.484   7.479
    7AU     AUC 1972  39.458   7.474   7.496
    7AU     AUC 1973  38.850   6.268   7.489
    7AU     AUC 1974  39.187   6.319   7.490
    7AU     AUC 1975  39.585   6.357   7.466
    7AU     AUC 1976  39.226   6.496   8.062
    7AU     AUC 1977  39.196   6.818   8.103
    7AU     AUC 1978  39.182   7.193   8.058
    7AU     AUC 1979  39.236   6.520   6.904
    7AU     AUC 1980  39.209   6.867   6.905
    7AU     AUC 1981  39.197   7.233   6.931
    7AU     AUC 1982  39.515   6.658   7.961
    7AU     AUC 1983  39.482   7.031   7.997
    7AU     AUC 1984  39.515   6.712   7.006
    7AU     AUC 1985  39.530   7.083   7.012
    7AU     AUC 1986  38.893   6.660   7.995
    7AU     AUC 1987  38.898   7.003   7.992
    7AU     AUC 1988  38.892   6.674   7.010
    7AU     AUC 1989  38.861   7.032   7.004
    7AU     AUC 1990  39.674   7.215   7.336
    7AU     AUC 1991  39.619   7.186   7.692
    7AU     AUC 1992  38.688   7.120   7.305
    7AU     AUC 1993  38.679   7.141   7.697
    7AU     AUC 1994  39.705   6.628   7.307
    7AU     AUC 1995  39.702   6.606   7.630
    7AU     AUC 1996  38.694   6.538   7.305
    7AU     AUC 1997  38.706   6.556   7.644
    7AU     AUC 1998  38.973   7.350   7.783
    7AU     AUC 1999  39.307   7.364   7.789
    7AU     AUC 2000  38.979   6.380   7.782
    7AU     AUC 2001  39.394   6.388   7.795
    7AU     AUC 2002  38.964   7.308   7.172
    7AU     AUC 2003  39.365   7.357   7.176
    7AU     AUC 2004  39.004   6.389   7.184
    7AU     AUC 2005  39.388   6.405   7.167
    7AU    AUSL 2006  39.787   6.825   8.221
    7AU    AUSL 2007  39.622   6.314   8.094
    7AU     AUL 2008  39.848   6.444   8.316
    7AU       S 2009  40.011   6.053   8.117
    7AU     LIG 2010  40.027   5.733   8.443
    7AU     LIG 2011  40.199   5.462   8.785
    7AU       S 2012  40.051   6.875   8.352
    7AU     LIG 2013  40.181   6.967   8.779
    7AU     LIG 2014  40.049   6.732   9.170
    7AU    AUSL 2015  39.392   6.629   8.294
    7AU    AUSL 2016  39.074   6.952   8.409
    7AU     AUL 2017  39.291   6.794   8.635
    7AU       S 2018  39.753   6.700   8.686
    7AU     LIG 2019  39.684   6.397   9.024
    7AU     LIG 2020  39.813   6.294   9.473
    7AU       S 2021  38.592   6.750   8.717
    7AU     LIG 2022  38.705   6.981   9.102
    7AU     LIG 2023  38.611   7.046   9.563
    7AU    AUSL 2024  39.393   7.051   8.151
    7AU    AUSL 2025  39.800   7.249   8.115
    7AU     AUL 2026  39.631   7.080   8.438
    7AU       S 2027  39.251   7.318   8.623
    7AU     LIG 2028  39.531   7.451   8.943
    7AU     LIG 2029  39.877   7.217   9.118
    7AU       S 2030  39.942   7.412   8.314
    7AU     LIG 2031  40.356   7.344   8.428
    7AU     LIG 2032  40.768   7.533   8.320
    7AU    AUSL 2033  39.806   6.958   6.755
    7AU    AUSL 2034  39.631   7.451   6.819
    7AU     AUL 2035  39.746   7.244   6.500
    7AU       S 2036  39.746   6.815   6.301
    7AU     LIG 2037  40.053   6.891   5.986
    7AU     LIG 2038  40.053   6.780   5.540
    7AU       S 2039  39.928   7.578   6.770
    7AU     LIG 2040  40.003   7.873   6.438
    7AU     LIG 2041  40.413   7.954   6.232
    7AU    AUSL 2042  39.465   6.687   6.687
    7AU    AUSL 2043  39.743   6.642   7.055
    7AU     AUL 2044  39.885   6.651   6.705
    7AU       S 2045  40.031   6.163   6.654
    7AU     LIG 2046  40.279   5.859   6.407
    7AU     LIG 2047  40.545   5.534   6.162
    7AU       S 2048  39.517   6.534   6.401
    7AU     LIG 2049  39.414   6.303   6.002
    7AU     LIG 2050  39.666   6.342   5.585
    7AU    AUSL 2051  39.386   7.104   6.770
    7AU    AUSL 2052  39.058   6.661   6.574
    7AU     AUL 2053  39.301   6.955   6.441
    7AU       S 2054  38.910   6.700   6.282
    7AU     LIG 2055  39.023   6.597   5.843
    7AU     LIG 2056  38.691   6.561   5.500
    7AU       S 2057  39.775   6.530   6.238
    7AU     LIG 2058  39.575   6.771   5.846
    7AU     LIG 2059  39.709   7.165   5.621
    7AU    AUSL 2060  38.714   6.818   8.201
    7AU    AUSL 2061  38.926   7.254   8.140
    7AU     AUL 2062  38.818   7.133   8.461
    7AU       S 2063  38.464   6.829   8.463
    7AU     LIG 2064  38.239   7.058   8.831
    7AU     LIG 2065  38.235   6.839   9.258
    7AU       S 2066  38.504   7.455   8.301
    7AU     LIG 2067  38.400   7.701   8.628
    7AU     LIG 2068  38.209   8.111   8.726
    7AU    AUSL 2069  38.984   6.512   8.392
    7AU    AUSL 2070  38.481   6.480   8.074
    7AU     AUL 2071  38.640   6.413   8.352
    7AU       S 2072  38.257   6.164   8.191
    7AU     LIG 2073  37.871   5.928   8.357
    7AU     LIG 2074  37.682   5.593   8.670
    7AU       S 2075  38.813   6.674   8.692
    7AU     LIG 2076  38.813   6.477   9.094
    7AU     LIG 2077  38.637   6.529   9.520
    7AU    AUSL 2078  38.651   6.755   6.711
    7AU    AUSL 2079  38.955   6.460   6.943
    7AU     AUL 2080  38.814   6.389   6.627
    7AU       S 2081  38.504   6.684   6.424
    7AU     LIG 2082  38.219   6.858   6.108
    7AU     LIG 2083  38.210   6.840   5.631
    7AU       S 2084  38.348   6.243   6.619
    7AU     LIG 2085  38.165   5.844   6.493
    7AU     LIG 2086  37.941   5.491   6.275
    7AU    AUSL 2087  38.972   7.047   6.779
    7AU    AUSL 2088  38.539   7.117   6.924
    7AU     AUL 2089  38.730   7.075   6.534
    7AU       S 2090  38.344   7.250   6.738
    7AU     LIG 2091  38.042   7.566   6.591
    7AU     LIG 2092  37.911   7.926   6.321
    7AU       S 2093  38.652   6.599   6.194
    7AU     LIG 2094  38.665   6.950   5.874
    7AU     LIG 2095  38.625   7.075   5.413
    7AU    AUSL 2096  39.863   7.502   7.527
    7AU    AUSL 2097  39.846   7.205   7.108
    7AU     AUL 2098  40.006   7.593   7.235
    7AU       S 2099  40.123   7.265   6.919
    7AU     LIG 2100  40.606   7.354   6.835
    7AU     LIG 2101  40.806   7.640   6.495
    7AU       S 2102  40.381   7.405   7.897
    7AU     LIG 2103  40.680   7.743   7.820
    7AU     LIG 2104  41.028   8.057   7.869
    7AU    AUSL 2105  40.142   7.166   7.413
    7AU    AUSL 2106  40.145   6.770   7.685
    7AU     AUL 2107  40.435   6.968   7.535
    7AU       S 2108  40.324   7.411   7.616
    7AU     LIG 2109  40.705   7.510   7.320
    7AU     LIG 2110  41.073   7.288   7.079
    7AU       S 2111  40.420   6.486   7.577
    7AU     LIG 2112  40.753   6.188   7.749
    7AU     LIG 2113  41.231   6.269   7.879
    7AU    AUSL 2114  39.862   7.091   7.729
    7AU    AUSL 2115  39.536   7.408   7.789
    7AU     AUL 2116  39.901   7.505   7.853
    7AU       S 2117  39.902   7.716   8.310
    7AU     LIG 2118  40.334   7.814   8.211
    7AU     LIG 2119  40.724   8.045   8.294
    7AU       S 2120  40.224   7.167   7.924
    7AU     LIG 2121  40.648   7.059   8.121
    7AU     LIG 2122  40.954   7.313   7.891
    7AU    AUSL 2123  38.502   7.334   7.550
    7AU    AUSL 2124  38.545   7.126   7.954
    7AU     AUL 2125  38.241   7.434   7.796
    7AU       S 2126  38.432   7.218   8.173
    7AU     LIG 2127  38.048   7.291   8.401
    7AU     LIG 2128  37.896   7.702   8.524
    7AU       S 2129  38.435   7.767   7.522
    7AU     LIG 2130  38.042   7.913   7.297
    7AU     LIG 2131  37.618   7.937   7.088
    7AU    AUSL 2132  38.437   6.975   7.308
    7AU    AUSL 2133  38.552   7.498   7.160
    7AU     AUL 2134  38.274   7.302   7.214
    7AU       S 2135  38.134   6.862   6.970
    7AU     LIG 2136  37.641   6.991   6.967
    7AU     LIG 2137  37.424   7.419   6.966
    7AU       S 2138  38.374   7.699   6.950
    7AU     LIG 2139  38.135   8.059   6.779
    7AU     LIG 2140  37.974   8.423   6.502
    7AU    AUSL 2141  38.229   6.985   7.704
    7AU    AUSL 2142  38.235   6.605   7.377
    7AU     AUL 2143  38.065   6.939   7.430
    7AU       S 2144  37.955   6.511   7.578
    7AU     LIG 2145  37.607   6.431   7.259
    7AU     LIG 2146  37.230   6.584   7.111
    7AU       S 2147  38.052   7.014   7.943
    7AU     LIG 2148  37.634   7.224   7.956
    7AU     LIG 2149  37.256   7.412   7.788
    7AU    AUSL 2150  39.910   6.481   7.459
    7AU    AUSL 2151  39.759   6.637   7.841
    7AU     AUL 2152  40.077   6.512   7.895
    7AU       S 2153  40.222   6.323   7.485
    7AU     LIG 2154  40.397   5.933   7.441
    7AU     LIG 2155  40.812   5.775   7.362
    7AU       S 2156  40.264   6.058   7.925
    7AU     LIG 2157  40.494   5.813   8.233
    7AU     LIG 2158  40.668   5.576   8.599
    7AU    AUSL 2159  40.111   6.785   7.211
    7AU    AUSL 2160  39.826   6.179   7.172
    7AU     AUL 2161  40.051   6.430   7.073
    7AU       S 2162  40.422   6.553   7.315
    7AU     LIG 2163  40.750   6.272   7.238
    7AU     LIG 2164  41.180   6.152   7.384
    7AU       S 2165  39.957   5.995   6.895
    7AU     LIG 2166  40.296   5.667   6.886
    7AU     LIG 2167  40.584   5.333   6.659
    7AU    AUSL 2168  38.598   6.331   7.451
    7AU    AUSL 2169  38.537   6.571   7.075
    7AU     AUL 2170  38.271   6.294   7.281
    7AU       S 2171  38.332   6.422   6.834
    7AU     LIG 2172  37.882   6.178   6.793
    7AU     LIG 2173  37.633   5.830   6.577
    7AU       S 2174  37.885   6.333   7.667
    7AU     LIG 2175  37.810   5.928   7.679
    7AU     LIG 2176  37.563   5.733   7.977
    7AU    AUSL 2177  38.517   6.675   7.705
    7AU    AUSL 2178  38.633   6.148   7.832
    7AU     AUL 2179  38.360   6.292   7.752
    7AU       S 2180  38.453   5.909   8.007
    7AU     LIG 2181  38.102   5.647   8.000
    7AU     LIG 2182  37.822   5.379   8.238
    7AU       S 2183  38.003   6.567   7.808
    7AU     LIG 2184  37.541   6.542   7.952
    7AU     LIG 2185  37.255   6.162   8.035
    7AU    AUSL 2186  39.136   7.578   7.939
    7AU    AUSL 2187  38.700   7.531   7.880
    7AU     AUL 2188  38.950   7.591   8.239
    7AU       S 2189  38.555   7.709   8.020
    7AU     LIG 2190  38.225   7.975   8.211
    7AU     LIG 2191  38.165   8.433   8.307
    7AU       S 2192  39.091   7.972   7.990
    7AU     LIG 2193  39.268   8.312   8.270
    7AU     LIG 2194  39.128   8.748   8.439
    7AU    AUSL 2195  38.925   7.763   7.596
    7AU    AUSL 2196  39.258   7.808   7.243
    7AU     AUL 2197  38.961   8.023   7.372
    7AU       S 2198  39.067   8.200   7.819
    7AU     LIG 2199  39.019   8.630   7.954
    7AU     LIG 2200  39.281   9.030   8.027
    7AU       S 2201  39.213   8.035   6.953
    7AU     LIG 2202  39.435   8.421   7.134
    7AU     LIG 2203  39.410   8.885   7.081
    7AU    AUSL 2204  39.397   7.780   7.646
    7AU    AUSL 2205  39.430   7.466   8.226
    7AU     AUL 2206  39.503   7.732   8.004
    7AU       S 2207  39.653   7.576   8.448
    7AU     LIG 2208  40.021   7.578   8.772
    7AU     LIG 2209  40.447   7.773   8.713
    7AU       S 2210  39.319   8.058   7.707
    7AU     LIG 2211  39.493   8.489   7.812
    7AU     LIG 2212  39.751   8.821   8.058
    7AU    AUSL 2213  39.225   6.150   8.110
    7AU    AUSL 2214  39.787   6.154   7.709
    7AU     AUL 2215  39.548   5.954   8.015
    7AU       S 2216  38.941   5.581   8.082
    7AU     LIG 2217  39.143   5.165   8.245
    7AU     LIG 2218  38.999   4.702   8.295
    7AU       S 2219  39.983   6.020   7.794
    7AU     LIG 2220  40.127   5.572   7.950
    7AU     LIG 2221  40.332   5.301   8.297
    7AU    AUSL 2222  39.021   6.000   7.742
    7AU    AUSL 2223  38.940   6.435   7.977
    7AU     AUL 2224  38.889   6.074   8.119
    7AU       S 2225  38.915   5.727   7.802
    7AU     LIG 2226  38.680   5.368   7.714
    7AU     LIG 2227  38.695   5.057   8.040
    7AU       S 2228  38.426   5.949   8.284
    7AU     LIG 2229  38.230   5.591   8.505
    7AU     LIG 2230  38.127   5.488   8.945
    7AU    AUSL 2231  39.377   6.235   7.686
    7AU    AUSL 2232  39.016   6.090   7.325
    7AU     AUL 2233  39.318   5.876   7.556
    7AU       S 2234  38.888   5.775   7.321
    7AU     LIG 2235  38.616   5.411   7.194
    7AU     LIG 2236  38.819   4.960   7.203
    7AU       S 2237  39.156   5.551   7.900
    7AU     LIG 2238  39.154   5.126   7.734
    7AU     LIG 2239  39.351   4.744   7.921
    7AU    AUSL 2240  39.219   7.510   6.926
    7AU    AUSL 2241  39.533   7.475   7.260
    7AU     AUL 2242  39.570   7.750   7.043
    7AU       S 2243  39.219   7.732   6.711
    7AU     LIG 2244  39.491   8.052   6.495
    7AU     LIG 2245  39.412   8.489   6.625
    7AU       S 2246  40.147   7.445   6.709
    7AU     LIG 2247  40.403   7.828   6.758
    7AU     LIG 2248  40.726   8.144   6.616
    7AU    AUSL 2249  38.957   7.484   7.282
    7AU    AUSL 2250  38.817   7.444   6.814
    7AU     AUL 2251  38.842   7.722   7.018
    7AU       S 2252  39.050   8.050   6.720
    7AU     LIG 2253  38.971   8.496   6.918
    7AU     LIG 2254  38.896   8.941   7.057
    7AU       S 2255  38.554   7.533   6.668
    7AU     LIG 2256  38.433   7.870   6.391
    7AU     LIG 2257  38.282   8.220   6.092
    7AU    AUSL 2258  39.189   6.105   6.913
    7AU    AUSL 2259  38.671   6.146   7.071
    7AU     AUL 2260  38.913   6.015   6.914
    7AU       S 2261  38.441   6.122   6.864
    7AU     LIG 2262  38.182   5.719   6.988
    7AU     LIG 2263  37.871   5.406   6.809
    7AU       S 2264  39.116   5.627   7.154
    7AU     LIG 2265  38.991   5.300   6.850
    7AU     LIG 2266  38.797   4.883   6.684
    7AU    AUSL 2267  39.421   6.241   7.267
    7AU    AUSL 2268  39.559   6.304   6.840
    7AU     AUL 2269  39.505   5.959   7.062
    7AU       S 2270  39.060   5.494   7.383
    7AU     LIG 2271  39.302   5.141   7.229
    7AU     LIG 2272  39.249   4.797   6.925
    7AU       S 2273  39.730   6.181   6.685
    7AU     LIG 2274  39.785   6.011   6.246
    7AU     LIG 2275  40.054   5.730   5.956
    8AU     AUC 2276  20.943  29.333   7.494
    8AU     AUC 2277  21.241  29.379   7.332
    8AU     AUC 2278  21.207  29.355   7.664
    8AU     AUC 2279  20.664  29.317   7.323
    8AU     AUC 2280  20.675  29.315   7.680
    8AU     AUC 2281  20.747  29.574   7.521
    8AU     AUC 2282  21.079  29.609   7.503
    8AU     AUC 2283  20.785  29.051   7.492
    8AU     AUC 2284  21.141  29.100   7.482
    8AU     AUC 2285  20.977  29.162   7.770
    8AU     AUC 2286  20.922  29.488   7.776
    8AU     AUC 2287  20.976  29.188   7.215
    8AU     AUC 2288  20.948  29.517   7.225
    8AU     AUC 2289  21.563  29.408   7.181
    8AU     AUC 2290  21.586  29.396   7.498
    8AU     AUC 2291  21.518  29.360   7.862
    8AU     AUC 2292  20.369  29.295   7.145
    8AU     AUC 2293  20.328  29.305   7.514
    8AU     AUC 2294  20.371  29.286   7.868
    8AU     AUC 2295  20.559  29.873   7.522
    8AU     AUC 2296  20.893  29.948   7.503
    8AU     AUC 2297  21.218  29.935   7.520
    8AU     AUC 2298  20.614  28.732   7.488
    8AU     AUC 2299  20.954  28.777   7.491
    8AU     AUC 2300  21.345  28.816   7.461
    8AU     AUC 2301  20.988  28.942   8.063
    8AU     AUC 2302  20.952  29.263   8.107
    8AU     AUC 2303  20.940  29.641   8.073
    8AU     AUC 2304  20.996  29.001   6.911
    8AU     AUC 2305  20.977  29.343   6.912
    8AU     AUC 2306  20.959  29.710   6.948
    8AU     AUC 2307  21.275  29.110   7.966
    8AU     AUC 2308  21.243  29.480   8.011
    8AU     AUC 2309  21.274  29.190   7.007
    8AU     AUC 2310  21.293  29.563   7.029
    8AU     AUC 2311  20.655  29.102   7.992
    8AU     AUC 2312  20.654  29.453   7.998
    8AU     AUC 2313  20.656  29.151   7.017
    8AU     AUC 2314  20.626  29.507   7.013
    8AU     AUC 2315  21.433  29.680   7.355
    8AU     AUC 2316  21.380  29.642   7.710
    8AU     AUC 2317  20.453  29.587   7.315
    8AU     AUC 2318  20.439  29.602   7.710
    8AU     AUC 2319  21.459  29.095   7.303
    8AU     AUC 2320  21.460  29.065   7.632
    8AU     AUC 2321  20.453  29.015   7.314
    8AU     AUC 2322  20.466  29.020   7.651
    8AU     AUC 2323  20.733  29.805   7.803
    8AU     AUC 2324  21.068  29.817   7.810
    8AU     AUC 2325  20.747  28.830   7.778
    8AU     AUC 2326  21.159  28.841   7.797
    8AU     AUC 2327  20.724  29.779   7.189
    8AU     AUC 2328  21.123  29.830   7.199
    8AU     AUC 2329  20.768  28.859   7.190
    8AU     AUC 2330  21.145  28.875   7.170
    8AU    AUSL 2331  21.544  29.268   8.231
    8AU    AUSL 2332  21.389  28.767   8.098
    8AU     AUL 2333  21.621  28.895   8.310
    8AU       S 2334  21.776  28.496   8.129
    8AU     LIG 2335  21.744  28.197   8.468
    8AU     LIG 2336  22.076  27.970   8.707
    8AU       S 2337  21.809  29.317   8.413
    8AU     LIG 2338  21.899  29.345   8.864
    8AU     LIG 2339  21.758  29.199   9.289
    8AU    AUSL 2340  21.149  29.072   8.300
    8AU    AUSL 2341  20.822  29.388   8.410
    8AU     AUL 2342  21.032  29.236   8.639
    8AU       S 2343  21.485  29.118   8.687
    8AU     LIG 2344  21.446  28.858   9.046
    8AU     LIG 2345  21.441  28.801   9.516
    8AU       S 2346  20.313  29.184   8.706
    8AU     LIG 2347  20.400  29.445   9.095
    8AU     LIG 2348  20.302  29.578   9.550
    8AU    AUSL 2349  21.151  29.498   8.168
    8AU    AUSL 2350  21.564  29.693   8.133
    8AU     AUL 2351  21.388  29.520   8.455
    8AU       S 2352  20.998  29.751   8.632
    8AU     LIG 2353  21.273  29.886   8.963
    8AU     LIG 2354  21.671  29.723   9.132
    8AU       S 2355  21.705  29.857   8.344
    8AU     LIG 2356  22.084  29.898   8.569
    8AU     LIG 2357  22.350  30.213   8.791
    8AU    AUSL 2358  21.581  29.451   6.772
    8AU    AUSL 2359  21.391  29.937   6.844
    8AU     AUL 2360  21.521  29.737   6.531
    8AU       S 2361  21.535  29.329   6.284
    8AU     LIG 2362  21.769  29.283   5.861
    8AU     LIG 2363  21.881  29.179   5.412
    8AU       S 2364  21.704  30.064   6.806
    8AU     LIG 2365  21.798  30.391   6.508
    8AU     LIG 2366  22.155  30.631   6.323
    8AU    AUSL 2367  21.253  29.186   6.651
    8AU    AUSL 2368  21.494  29.123   7.048
    8AU     AUL 2369  21.642  29.147   6.698
    8AU       S 2370  21.737  28.681   6.609
    8AU     LIG 2371  22.052  28.433   6.405
    8AU     LIG 2372  22.229  28.145   6.069
    8AU       S 2373  21.283  29.043   6.369
    8AU     LIG 2374  21.237  28.727   6.006
    8AU     LIG 2375  21.505  28.840   5.611
    8AU    AUSL 2376  21.154  29.583   6.794
    8AU    AUSL 2377  20.836  29.141   6.597
    8AU     AUL 2378  21.070  29.458   6.453
    8AU       S 2379  20.691  29.186   6.291
    8AU     LIG 2380  20.802  28.996   5.872
    8AU     LIG 2381  20.520  28.986   5.487
    8AU       S 2382  21.540  29.027   6.235
    8AU     LIG 2383  21.267  29.220   5.874
    8AU     LIG 2384  21.384  29.340   5.442
    8AU    AUSL 2385  20.466  29.257   8.190
    8AU    AUSL 2386  20.680  29.700   8.151
    8AU     AUL 2387  20.564  29.566   8.464
    8AU       S 2388  20.214  29.258   8.437
    8AU     LIG 2389  19.981  29.531   8.780
    8AU     LIG 2390  19.904  29.425   9.240
    8AU       S 2391  20.257  29.902   8.328
    8AU     LIG 2392  20.064  30.044   8.690
    8AU     LIG 2393  19.827  30.433   8.801
    8AU    AUSL 2394  20.738  28.951   8.382
    8AU    AUSL 2395  20.263  28.896   8.067
    8AU     AUL 2396  20.409  28.845   8.347
    8AU       S 2397  20.028  28.598   8.173
    8AU     LIG 2398  19.854  28.462   8.609
    8AU     LIG 2399  19.581  28.161   8.882
    8AU       S 2400  20.552  29.117   8.691
    8AU     LIG 2401  20.537  28.953   9.109
    8AU     LIG 2402  20.262  29.063   9.473
    8AU    AUSL 2403  20.423  29.233   6.714
    8AU    AUSL 2404  20.714  28.929   6.953
    8AU     AUL 2405  20.597  28.869   6.629
    8AU       S 2406  20.284  29.162   6.423
    8AU     LIG 2407  20.012  29.317   6.082
    8AU     LIG 2408  20.034  29.240   5.610
    8AU       S 2409  20.151  28.706   6.603
    8AU     LIG 2410  20.054  28.321   6.411
    8AU     LIG 2411  19.875  28.075   6.058
    8AU    AUSL 2412  20.738  29.530   6.788
    8AU    AUSL 2413  20.304  29.592   6.929
    8AU     AUL 2414  20.495  29.559   6.542
    8AU       S 2415  20.111  29.731   6.755
    8AU     LIG 2416  19.807  30.024   6.603
    8AU     LIG 2417  19.695  30.352   6.290
    8AU       S 2418  20.431  29.062   6.202
    8AU     LIG 2419  20.474  29.387   5.862
    8AU     LIG 2420  20.440  29.497   5.397
    8AU    AUSL 2421  21.624  29.957   7.552
    8AU    AUSL 2422  21.604  29.688   7.131
    8AU     AUL 2423  21.748  30.080   7.279
    8AU       S 2424  21.874  29.765   6.954
    8AU     LIG 2425  22.196  29.665   6.652
    8AU     LIG 2426  22.227  30.070   6.404
    8AU       S 2427  22.135  29.939   7.758
    8AU     LIG 2428  22.362  30.251   7.485
    8AU     LIG 2429  22.658  30.340   7.123
    8AU    AUSL 2430  21.903  29.619   7.424
    8AU    AUSL 2431  21.901  29.220   7.679
    8AU     AUL 2432  22.212  29.396   7.561
    8AU       S 2433  22.077  29.833   7.534
    8AU     LIG 2434  22.384  29.886   7.139
    8AU     LIG 2435  22.805  29.872   7.308
    8AU       S 2436  22.150  28.920   7.545
    8AU     LIG 2437  22.511  28.733   7.768
    8AU     LIG 2438  22.985  28.728   7.793
    8AU    AUSL 2439  21.625  29.545   7.743
    8AU    AUSL 2440  21.297  29.861   7.812
    8AU     AUL 2441  21.661  29.961   7.879
    8AU       S 2442  21.676  30.165   8.326
    8AU     LIG 2443  22.114  30.339   8.307
    8AU     LIG 2444  22.394  30.671   8.524
    8AU       S 2445  21.989  29.640   7.905
    8AU     LIG 2446  22.363  29.766   8.147
    8AU     LIG 2447  22.711  29.885   7.865
    8AU    AUSL 2448  20.280  29.799   7.566
    8AU    AUSL 2449  20.293  29.585   7.970
    8AU     AUL 2450  20.007  29.905   7.799
    8AU       S 2451  20.176  29.668   8.179
    8AU     LIG 2452  19.767  29.753   8.370
    8AU     LIG 2453  19.522  30.072   8.583
    8AU       S 2454  20.212  30.242   7.540
    8AU     LIG 2455  19.775  30.360   7.381
    8AU     LIG 2456  19.299  30.271   7.449
    8AU    AUSL 2457  20.205  29.449   7.313
    8AU    AUSL 2458  20.310  29.966   7.175
    8AU     AUL 2459  20.043  29.776   7.234
    8AU       S 2460  19.905  29.334   6.960
    8AU     LIG 2461  19.535  29.646   6.872
    8AU     LIG 2462  19.167  29.897   7.093
    8AU       S 2463  20.129  30.175   6.977
    8AU     LIG 2464  20.057  30.492   6.660
    8AU     LIG 2465  19.911  30.843   6.365
    8AU    AUSL 2466  19.985  29.462   7.697
    8AU    AUSL 2467  19.995  29.083   7.382
    8AU     AUL 2468  19.821  29.404   7.415
    8AU       S 2469  19.743  28.997   7.632
    8AU     LIG 2470  19.278  29.053   7.474
    8AU     LIG 2471  18.895  28.901   7.237
    8AU       S 2472  19.793  29.492   7.914
    8AU     LIG 2473  19.338  29.558   7.927
    8AU     LIG 2474  18.951  29.797   8.091
    8AU    AUSL 2475  21.648  28.939   7.452
    8AU    AUSL 2476  21.520  29.092   7.845
    8AU     AUL 2477  21.839  28.973   7.887
    8AU       S 2478  21.958  28.766   7.471
    8AU     LIG 2479  22.211  28.396   7.530
    8AU     LIG 2480  22.431  28.008   7.395
    8AU       S 2481  22.060  28.568   8.007
    8AU     LIG 2482  22.193  28.416   8.436
    8AU     LIG 2483  22.276  28.408   8.907
    8AU    AUSL 2484  21.865  29.244   7.214
    8AU    AUSL 2485  21.579  28.668   7.129
    8AU     AUL 2486  21.806  28.910   7.059
    8AU       S 2487  22.177  29.002   7.308
    8AU     LIG 2488  22.528  28.742   7.248
    8AU     LIG 2489  23.000  28.789   7.223
    8AU       S 2490  21.678  28.514   6.826
    8AU     LIG 2491  21.932  28.150   6.815
    8AU     LIG 2492  22.254  27.930   6.557
    8AU    AUSL 2493  20.362  28.824   7.452
    8AU    AUSL 2494  20.294  29.050   7.072
    8AU     AUL 2495  20.019  28.791   7.269
    8AU       S 2496  20.102  28.896   6.818
    8AU     LIG 2497  19.678  28.664   6.672
    8AU     LIG 2498  19.587  28.487   6.233
    8AU       S 2499  19.666  28.777   7.658
    8AU     LIG 2500  19.642  28.308   7.493
    8AU     LIG 2501  19.455  28.130   7.089
    8AU    AUSL 2502  20.260  29.143   7.729
    8AU    AUSL 2503  20.407  28.581   7.797
    8AU     AUL 2504  20.135  28.729   7.733
    8AU       S 2505  20.217  28.329   7.964
    8AU     LIG 2506  19.795  28.153   8.012
    8AU     LIG 2507  19.548  28.122   8.373
    8AU       S 2508  19.811  29.026   7.849
    8AU     LIG 2509  19.356  29.010   7.978
    8AU     LIG 2510  18.925  28.839   7.872
    8AU    AUSL 2511  20.897  30.026   7.965
    8AU    AUSL 2512  20.457  29.992   7.909
    8AU     AUL 2513  20.706  30.036   8.260
    8AU       S 2514  20.298  30.170   8.066
    8AU     LIG 2515  19.889  30.313   8.289
    8AU     LIG 2516  19.461  30.553   8.386
    8AU       S 2517  20.856  30.429   8.025
    8AU     LIG 2518  21.103  30.800   8.235
    8AU     LIG 2519  21.115  31.269   8.314
    8AU    AUSL 2520  20.688  30.224   7.628
    8AU    AUSL 2521  21.014  30.280   7.273
    8AU     AUL 2522  20.720  30.495   7.402
    8AU       S 2523  20.844  30.669   7.842
    8AU     LIG 2524  20.846  31.146   7.887
    8AU     LIG 2525  20.855  31.627   8.003
    8AU       S 2526  20.967  30.508   6.978
    8AU     LIG 2527  21.217  30.889   7.163
    8AU     LIG 2528  21.515  31.242   7.042
    8AU    AUSL 2529  21.158  30.235   7.674
    8AU    AUSL 2530  21.193  29.911   8.248
    8AU     AUL 2531  21.262  30.181   8.032
    8AU       S 2532  21.412  30.014   8.468
    8AU     LIG 2533  21.702  30.143   8.812
    8AU     LIG 2534  21.948  30.530   8.776
    8AU       S 2535  21.086  30.510   7.735
    8AU     LIG 2536  21.295  30.931   7.742
    8AU     LIG 2537  21.318  31.405   7.840
    8AU    AUSL 2538  20.996  28.596   8.114
    8AU    AUSL 2539  21.559  28.610   7.714
    8AU     AUL 2540  21.320  28.404   8.007
    8AU       S 2541  20.623  28.011   8.066
    8AU     LIG 2542  20.824  27.644   8.304
    8AU     LIG 2543  20.960  27.214   8.489
    8AU       S 2544  21.792  28.470   7.838
    8AU     LIG 2545  22.122  28.092   7.988
    8AU     LIG 2546  22.475  27.857   8.230
    8AU    AUSL 2547  20.804  28.441   7.740
    8AU    AUSL 2548  20.708  28.868   7.965
    8AU     AUL 2549  20.654  28.508   8.100
    8AU       S 2550  20.675  28.151   7.788
    8AU     LIG 2551  20.478  27.764   7.662
    8AU     LIG 2552  20.539  27.417   7.948
    8AU       S 2553  20.195  28.389   8.226
    8AU     LIG 2554  20.090  28.043   8.441
    8AU     LIG 2555  20.074  28.030   8.909
    8AU    AUSL 2556  21.149  28.694   7.688
    8AU    AUSL 2557  20.767  28.565   7.334
    8AU     AUL 2558  21.075  28.326   7.548
    8AU       S 2559  20.642  28.243   7.318
    8AU     LIG 2560  20.323  27.932   7.182
    8AU     LIG 2561  20.413  27.481   7.056
    8AU       S 2562  20.888  27.990   7.912
    8AU     LIG 2563  21.031  27.580   7.828
    8AU     LIG 2564  21.232  27.228   8.038
    8AU    AUSL 2565  20.978  29.985   6.953
    8AU    AUSL 2566  21.289  29.948   7.287
    8AU     AUL 2567  21.326  30.226   7.070
    8AU       S 2568  20.978  30.204   6.735
    8AU     LIG 2569  21.263  30.514   6.513
    8AU     LIG 2570  21.267  30.952   6.651
    8AU       S 2571  21.972  30.042   6.851
    8AU     LIG 2572  22.216  30.425   6.823
    8AU     LIG 2573  22.263  30.902   6.756
    8AU    AUSL 2574  20.714  29.956   7.304
    8AU    AUSL 2575  20.579  29.924   6.831
    8AU     AUL 2576  20.599  30.196   7.044
    8AU       S 2577  20.814  30.498   6.726
    8AU     LIG 2578  20.774  30.960   6.873
    8AU     LIG 2579  20.662  31.401   7.023
    8AU       S 2580  20.316  30.018   6.687
    8AU     LIG 2581  20.195  30.180   6.276
    8AU     LIG 2582  20.061  30.532   5.968
    8AU    AUSL 2583  20.934  28.563   6.922
    8AU    AUSL 2584  20.422  28.621   7.081
    8AU     AUL 2585  20.658  28.495   6.919
    8AU       S 2586  20.201  28.614   6.858
    8AU     LIG 2587  19.919  28.264   6.898
    8AU     LIG 2588  19.594  28.131   6.598
    8AU       S 2589  20.848  28.098   7.137
    8AU     LIG 2590  20.625  27.870   6.773
    8AU     LIG 2591  20.733  27.447   6.575
    8AU    AUSL 2592  21.183  28.689   7.269
    8AU    AUSL 2593  21.269  28.808   6.840
    8AU     AUL 2594  21.260  28.433   7.041
    8AU       S 2595  20.814  27.942   7.342
    8AU     LIG 2596  20.961  27.602   7.028
    8AU     LIG 2597  21.191  27.282   6.772
    8AU       S 2598  21.430  28.691   6.665
    8AU     LIG 2599  21.482  28.349   6.356
    8AU     LIG 2600  21.786  27.998   6.316
    9AU     AUC 2601  15.423  36.066   7.488
    9AU     AUC 2602  15.719  36.107   7.323
    9AU     AUC 2603  15.690  36.083   7.656
    9AU     AUC 2604  15.140  36.053   7.320
    9AU     AUC 2605  15.163  36.055   7.677
    9AU     AUC 2606  15.233  36.308   7.518
    9AU     AUC 2607  15.567  36.339   7.493
    9AU     AUC 2608  15.256  35.784   7.486
    9AU     AUC 2609  15.617  35.834   7.478
    9AU     AUC 2610  15.456  35.894   7.764
    9AU     AUC 2611  15.410  36.223   7.770
    9AU     AUC 2612  15.445  35.922   7.211
    9AU     AUC 2613  15.435  36.250   7.221
    9AU     AUC 2614  16.036  36.131   7.173
    9AU     AUC 2615  16.071  36.119   7.490
    9AU     AUC 2616  16.004  36.083   7.852
    9AU     AUC 2617  14.839  36.032   7.151
    9AU     AUC 2618  14.812  36.039   7.513
    9AU     AUC 2619  14.857  36.030   7.869
    9AU     AUC 2620  15.053  36.613   7.517
    9AU     AUC 2621  15.393  36.681   7.492
    9AU     AUC 2622  15.714  36.661   7.505
    9AU     AUC 2623  15.081  35.468   7.480
    9AU     AUC 2624  15.419  35.514   7.478
    9AU     AUC 2625  15.816  35.547   7.452
    9AU     AUC 2626  15.463  35.676   8.057
    9AU     AUC 2627  15.439  36.000   8.103
    9AU     AUC 2628  15.434  36.378   8.065
    9AU     AUC 2629  15.449  35.732   6.904
    9AU     AUC 2630  15.436  36.090   6.901
    9AU     AUC 2631  15.447  36.436   6.929
    9AU     AUC 2632  15.754  35.838   7.957
    9AU     AUC 2633  15.731  36.209   8.000
    9AU     AUC 2634  15.736  35.928   7.009
    9AU     AUC 2635  15.761  36.295   7.001
    9AU     AUC 2636  15.135  35.848   7.994
    9AU     AUC 2637  15.146  36.194   7.998
    9AU     AUC 2638  15.112  35.877   7.017
    9AU     AUC 2639  15.100  36.245   7.019
    9AU     AUC 2640  15.922  36.404   7.340
    9AU     AUC 2641  15.869  36.368   7.697
    9AU     AUC 2642  14.937  36.328   7.317
    9AU     AUC 2643  14.930  36.340   7.708
    9AU     AUC 2644  15.938  35.821   7.298
    9AU     AUC 2645  15.939  35.789   7.622
    9AU     AUC 2646  14.924  35.745   7.306
    9AU     AUC 2647  14.943  35.758   7.645
    9AU     AUC 2648  15.229  36.544   7.795
    9AU     AUC 2649  15.563  36.549   7.798
    9AU     AUC 2650  15.215  35.571   7.776
    9AU     AUC 2651  15.629  35.573   7.787
    9AU     AUC 2652  15.216  36.516   7.188
    9AU     AUC 2653  15.616  36.550   7.176
    9AU     AUC 2654  15.233  35.595   7.178
    9AU     AUC 2655  15.614  35.611   7.156
    9AU    AUSL 2656  16.030  35.990   8.219
    9AU    AUSL 2657  15.854  35.493   8.084
    9AU     AUL 2658  16.088  35.609   8.301
    9AU       S 2659  16.250  35.222   8.098
    9AU     LIG 2660  16.305  34.899   8.392
    9AU     LIG 2661  16.590  34.716   8.713
    9AU       S 2662  16.294  36.030   8.381
    9AU     LIG 2663  16.406  36.069   8.830
    9AU     LIG 2664  16.345  35.921   9.277
    9AU    AUSL 2665  15.632  35.805   8.293
    9AU    AUSL 2666  15.319  36.131   8.410
    9AU     AUL 2667  15.527  35.971   8.637
    9AU       S 2668  15.979  35.849   8.677
    9AU     LIG 2669  15.991  35.611   9.056
    9AU     LIG 2670  16.091  35.502   9.509
    9AU       S 2671  14.821  35.943   8.709
    9AU     LIG 2672  14.913  36.186   9.100
    9AU     LIG 2673  14.857  36.238   9.576
    9AU    AUSL 2674  15.642  36.229   8.158
    9AU    AUSL 2675  16.057  36.415   8.120
    9AU     AUL 2676  15.880  36.248   8.443
    9AU       S 2677  15.501  36.493   8.625
    9AU     LIG 2678  15.772  36.608   8.955
    9AU     LIG 2679  16.128  36.386   9.133
    9AU       S 2680  16.201  36.579   8.334
    9AU     LIG 2681  16.641  36.553   8.375
    9AU     LIG 2682  16.974  36.807   8.563
    9AU    AUSL 2683  16.000  36.170   6.755
    9AU    AUSL 2684  15.879  36.636   6.829
    9AU     AUL 2685  16.049  36.439   6.512
    9AU       S 2686  15.925  36.027   6.303
    9AU     LIG 2687  16.224  36.058   5.935
    9AU     LIG 2688  16.202  35.920   5.486
    9AU       S 2689  16.175  36.790   6.783
    9AU     LIG 2690  16.240  37.096   6.462
    9AU     LIG 2691  16.597  37.181   6.180
    9AU    AUSL 2692  15.639  35.926   6.742
    9AU    AUSL 2693  15.976  35.845   7.049
    9AU     AUL 2694  16.090  35.872   6.701
    9AU       S 2695  16.241  35.372   6.639
    9AU     LIG 2696  16.519  35.145   6.355
    9AU     LIG 2697  16.772  34.931   6.011
    9AU       S 2698  15.723  35.754   6.404
    9AU     LIG 2699  15.594  35.473   6.065
    9AU     LIG 2700  15.926  35.433   5.712
    9AU    AUSL 2701  15.599  36.360   6.649
    9AU    AUSL 2702  15.262  35.868   6.556
    9AU     AUL 2703  15.475  36.146   6.416
    9AU       S 2704  15.076  35.920   6.261
    9AU     LIG 2705  15.227  35.787   5.849
    9AU     LIG 2706  14.946  35.687   5.479
    9AU       S 2707  15.977  35.726   6.241
    9AU     LIG 2708  15.747  35.909   5.849
    9AU     LIG 2709  15.804  36.260   5.546
    9AU    AUSL 2710  14.958  36.007   8.200
    9AU    AUSL 2711  15.181  36.445   8.150
    9AU     AUL 2712  15.064  36.314   8.466
    9AU       S 2713  14.701  36.017   8.458
    9AU     LIG 2714  14.455  36.225   8.846
    9AU     LIG 2715  14.446  36.055   9.294
    9AU       S 2716  14.763  36.651   8.319
    9AU     LIG 2717  14.570  36.748   8.699
    9AU     LIG 2718  14.292  37.107   8.809
    9AU    AUSL 2719  15.222  35.692   8.386
    9AU    AUSL 2720  14.722  35.669   8.074
    9AU     AUL 2721  14.883  35.599   8.350
    9AU       S 2722  14.471  35.400   8.182
    9AU     LIG 2723  14.095  35.151   8.315
    9AU     LIG 2724  14.007  34.769   8.578
    9AU       S 2725  15.046  35.861   8.695
    9AU     LIG 2726  14.994  35.681   9.113
    9AU     LIG 2727  14.794  35.723   9.535
    9AU    AUSL 2728  14.876  35.989   6.724
    9AU    AUSL 2729  15.178  35.682   6.937
    9AU     AUL 2730  15.010  35.623   6.622
    9AU       S 2731  14.702  35.939   6.437
    9AU     LIG 2732  14.396  36.058   6.125
    9AU     LIG 2733  14.379  35.873   5.689
    9AU       S 2734  14.535  35.502   6.609
    9AU     LIG 2735  14.354  35.110   6.479
    9AU     LIG 2736  14.314  34.655   6.428
    9AU    AUSL 2737  15.226  36.246   6.813
    9AU    AUSL 2738  14.785  36.344   6.948
    9AU     AUL 2739  14.978  36.294   6.552
    9AU       S 2740  14.596  36.475   6.766
    9AU     LIG 2741  14.273  36.763   6.640
    9AU     LIG 2742  14.133  37.070   6.318
    9AU       S 2743  14.824  35.796   6.195
    9AU     LIG 2744  14.832  36.105   5.843
    9AU     LIG 2745  14.987  36.198   5.400
    9AU    AUSL 2746  16.119  36.684   7.538
    9AU    AUSL 2747  16.099  36.394   7.113
    9AU     AUL 2748  16.258  36.780   7.248
    9AU       S 2749  16.346  36.447   6.927
    9AU     LIG 2750  16.728  36.340   6.720
    9AU     LIG 2751  16.778  36.668   6.377
    9AU       S 2752  16.647  36.583   7.847
    9AU     LIG 2753  17.057  36.768   7.731
    9AU     LIG 2754  17.496  36.965   7.725
    9AU    AUSL 2755  16.393  36.344   7.416
    9AU    AUSL 2756  16.387  35.941   7.675
    9AU     AUL 2757  16.690  36.124   7.522
    9AU       S 2758  16.577  36.571   7.584
    9AU     LIG 2759  16.921  36.681   7.246
    9AU     LIG 2760  17.388  36.634   7.311
    9AU       S 2761  16.642  35.647   7.552
    9AU     LIG 2762  16.960  35.485   7.837
    9AU     LIG 2763  17.408  35.366   7.884
    9AU    AUSL 2764  16.110  36.266   7.728
    9AU    AUSL 2765  15.793  36.588   7.800
    9AU     AUL 2766  16.166  36.672   7.866
    9AU       S 2767  16.172  36.880   8.314
    9AU     LIG 2768  16.589  37.060   8.291
    9AU     LIG 2769  16.962  37.320   8.461
    9AU       S 2770  16.491  36.336   7.913
    9AU     LIG 2771  16.984  36.292   8.062
    9AU     LIG 2772  17.412  36.429   7.894
    9AU    AUSL 2773  14.768  36.534   7.561
    9AU    AUSL 2774  14.796  36.328   7.966
    9AU     AUL 2775  14.507  36.642   7.797
    9AU       S 2776  14.682  36.416   8.177
    9AU     LIG 2777  14.312  36.423   8.404
    9AU     LIG 2778  14.046  36.754   8.519
    9AU       S 2779  14.697  36.991   7.545
    9AU     LIG 2780  14.212  37.072   7.433
    9AU     LIG 2781  13.841  36.825   7.609
    9AU    AUSL 2782  14.677  36.180   7.320
    9AU    AUSL 2783  14.810  36.724   7.181
    9AU     AUL 2784  14.527  36.524   7.246
    9AU       S 2785  14.380  36.093   6.987
    9AU     LIG 2786  14.026  36.373   6.874
    9AU     LIG 2787  13.881  36.782   7.077
    9AU       S 2788  14.625  36.922   6.985
    9AU     LIG 2789  14.474  37.243   6.685
    9AU     LIG 2790  14.257  37.567   6.394
    9AU    AUSL 2791  14.475  36.195   7.717
    9AU    AUSL 2792  14.467  35.814   7.389
    9AU     AUL 2793  14.316  36.149   7.447
    9AU       S 2794  14.187  35.722   7.591
    9AU     LIG 2795  13.859  35.485   7.297
    9AU     LIG 2796  13.508  35.568   6.987
    9AU       S 2797  14.280  36.244   7.939
    9AU     LIG 2798  13.942  36.518   8.055
    9AU     LIG 2799  13.718  36.880   8.112
    9AU    AUSL 2800  16.139  35.662   7.445
    9AU    AUSL 2801  16.000  35.814   7.834
    9AU     AUL 2802  16.315  35.687   7.882
    9AU       S 2803  16.438  35.494   7.463
    9AU     LIG 2804  16.593  35.097   7.449
    9AU     LIG 2805  16.890  34.945   7.723
    9AU       S 2806  16.510  35.245   7.934
    9AU     LIG 2807  16.788  34.987   8.224
    9AU     LIG 2808  17.049  34.653   8.470
    9AU    AUSL 2809  16.348  35.969   7.206
    9AU    AUSL 2810  16.050  35.382   7.138
    9AU     AUL 2811  16.287  35.638   7.053
    9AU       S 2812  16.672  35.697   7.305
    9AU     LIG 2813  17.034  35.354   7.352
    9AU     LIG 2814  17.533  35.311   7.379
    9AU       S 2815  16.167  35.210   6.879
    9AU     LIG 2816  16.408  34.854   6.768
    9AU     LIG 2817  16.634  34.626   6.423
    9AU    AUSL 2818  14.834  35.541   7.446
    9AU    AUSL 2819  14.756  35.781   7.072
    9AU     AUL 2820  14.501  35.503   7.279
    9AU       S 2821  14.550  35.649   6.837
    9AU     LIG 2822  14.098  35.398   6.823
    9AU     LIG 2823  13.844  35.287   6.473
    9AU       S 2824  14.124  35.580   7.719
    9AU     LIG 2825  13.991  35.159   7.675
    9AU     LIG 2826  13.671  35.021   7.342
    9AU    AUSL 2827  14.756  35.878   7.713
    9AU    AUSL 2828  14.861  35.342   7.820
    9AU     AUL 2829  14.598  35.490   7.742
    9AU       S 2830  14.648  35.109   8.003
    9AU     LIG 2831  14.290  34.795   8.025
    9AU     LIG 2832  14.179  34.402   8.252
    9AU       S 2833  14.272  35.783   7.857
    9AU     LIG 2834  13.928  35.611   8.152
    9AU     LIG 2835  13.619  35.498   7.829
    9AU    AUSL 2836  15.398  36.766   7.953
    9AU    AUSL 2837  14.959  36.732   7.896
    9AU     AUL 2838  15.211  36.780   8.251
    9AU       S 2839  14.808  36.911   8.049
    9AU     LIG 2840  14.420  37.040   8.296
    9AU     LIG 2841  13.990  37.246   8.353
    9AU       S 2842  15.369  37.162   8.009
    9AU     LIG 2843  15.598  37.501   8.260
    9AU     LIG 2844  15.446  37.884   8.500
    9AU    AUSL 2845  15.187  36.965   7.614
    9AU    AUSL 2846  15.520  37.007   7.257
    9AU     AUL 2847  15.236  37.235   7.385
    9AU       S 2848  15.354  37.402   7.835
    9AU     LIG 2849  15.363  37.850   7.965
    9AU     LIG 2850  15.201  38.236   8.198
    9AU       S 2851  15.465  37.231   6.952
    9AU     LIG 2852  15.735  37.619   6.979
    9AU     LIG 2853  15.976  37.962   6.734
    9AU    AUSL 2854  15.661  36.963   7.658
    9AU    AUSL 2855  15.692  36.643   8.235
    9AU     AUL 2856  15.773  36.908   8.014
    9AU       S 2857  15.910  36.743   8.453
    9AU     LIG 2858  16.209  36.850   8.802
    9AU     LIG 2859  16.601  37.109   8.811
    9AU       S 2860  15.590  37.231   7.720
    9AU     LIG 2861  15.813  37.607   7.754
    9AU     LIG 2862  16.022  37.809   8.097
    9AU    AUSL 2863  15.458  35.326   8.095
    9AU    AUSL 2864  16.019  35.336   7.697
    9AU     AUL 2865  15.783  35.137   8.002
    9AU       S 2866  15.330  34.803   7.991
    9AU     LIG 2867  15.133  34.514   8.263
    9AU     LIG 2868  15.394  34.222   8.554
    9AU       S 2869  16.222  35.198   7.792
    9AU     LIG 2870  16.419  34.761   7.899
    9AU     LIG 2871  16.611  34.501   8.243
    9AU    AUSL 2872  15.248  35.195   7.723
    9AU    AUSL 2873  15.177  35.618   7.971
    9AU     AUL 2874  15.109  35.248   8.096
    9AU       S 2875  15.127  34.913   7.751
    9AU     LIG 2876  14.793  34.615   7.842
    9AU     LIG 2877  14.665  34.265   8.118
    9AU       S 2878  14.625  35.174   8.265
    9AU     LIG 2879  14.671  34.734   8.353
    9AU     LIG 2880  14.502  34.443   8.650
    9AU    AUSL 2881  15.610  35.424   7.672
    9AU    AUSL 2882  15.245  35.289   7.308
    9AU     AUL 2883  15.554  35.073   7.553
    9AU       S 2884  15.175  34.996   7.275
    9AU     LIG 2885  14.848  34.728   7.304
    9AU     LIG 2886  14.735  34.342   7.072
    9AU       S 2887  15.305  34.662   7.759
    9AU     LIG 2888  15.542  34.320   8.021
    9AU     LIG 2889  15.599  33.866   8.178
    9AU    AUSL 2890  15.473  36.711   6.941
    9AU    AUSL 2891  15.788  36.667   7.271
    9AU     AUL 2892  15.823  36.946   7.057
    9AU       S 2893  15.477  36.933   6.722
    9AU     LIG 2894  15.743  37.308   6.532
    9AU     LIG 2895  15.597  37.749   6.458
    9AU       S 2896  16.404  36.693   6.771
    9AU     LIG 2897  16.678  37.038   6.739
    9AU     LIG 2898  16.910  37.406   6.559
    9AU    AUSL 2899  15.216  36.686   7.299
    9AU    AUSL 2900  15.072  36.651   6.829
    9AU     AUL 2901  15.099  36.931   7.037
    9AU       S 2902  15.285  37.212   6.691
    9AU     LIG 2903  15.238  37.672   6.837
    9AU     LIG 2904  15.493  38.058   6.865
    9AU       S 2905  14.797  36.760   6.692
    9AU     LIG 2906  14.649  36.936   6.309
    9AU     LIG 2907  14.515  37.292   6.023
    9AU    AUSL 2908  15.407  35.324   6.895
    9AU    AUSL 2909  14.898  35.360   7.063
    9AU     AUL 2910  15.128  35.247   6.882
    9AU       S 2911  14.651  35.341   6.847
    9AU     LIG 2912  14.534  34.859   6.896
    9AU     LIG 2913  14.274  34.459   6.898
    9AU       S 2914  15.316  34.841   7.079
    9AU     LIG 2915  15.104  34.576   6.810
    9AU     LIG 2916  15.349  34.339   6.501
    9AU    AUSL 2917  15.650  35.438   7.252
    9AU    AUSL 2918  15.773  35.528   6.819
    9AU     AUL 2919  15.718  35.167   7.034
    9AU       S 2920  15.375  34.727   7.260
    9AU     LIG 2921  15.472  34.307   7.035
    9AU     LIG 2922  15.487  33.917   6.767
    9AU       S 2923  15.944  35.390   6.660
    9AU     LIG 2924  16.006  35.205   6.232
    9AU     LIG 2925  16.251  34.885   5.988
   10AU     AUC 2926  17.919  24.386   7.485
   10AU     AUC 2927  18.216  24.428   7.319
   10AU     AUC 2928  18.187  24.408   7.653
   10AU     AUC 2929  17.635  24.370   7.318
   10AU     AUC 2930  17.652  24.367   7.673
   10AU     AUC 2931  17.722  24.625   7.513
   10AU     AUC 2932  18.055  24.660   7.490
   10AU     AUC 2933  17.762  24.104   7.485
   10AU     AUC 2934  18.120  24.158   7.477
   10AU     AUC 2935  17.960  24.216   7.761
   10AU     AUC 2936  17.902  24.541   7.767
   10AU     AUC 2937  17.947  24.238   7.206
   10AU     AUC 2938  17.923  24.566   7.213
   10AU     AUC 2939  18.535  24.454   7.166
   10AU     AUC 2940  18.566  24.452   7.483
   10AU     AUC 2941  18.504  24.417   7.849
   10AU     AUC 2942  17.334  24.347   7.144
   10AU     AUC 2943  17.302  24.359   7.512
   10AU     AUC 2944  17.353  24.339   7.865
   10AU     AUC 2945  17.536  24.925   7.514
   10AU     AUC 2946  17.873  24.999   7.492
   10AU     AUC 2947  18.196  24.987   7.503
   10AU     AUC 2948  17.591  23.786   7.483
   10AU     AUC 2949  17.931  23.832   7.484
   10AU     AUC 2950  18.326  23.871   7.456
   10AU     AUC 2951  17.975  23.997   8.053
   10AU     AUC 2952  17.937  24.318   8.097
   10AU     AUC 2953  17.924  24.694   8.062
   10AU     AUC 2954  17.960  24.045   6.903
   10AU     AUC 2955  17.938  24.392   6.906
   10AU     AUC 2956  17.931  24.758   6.934
   10AU     AUC 2957  18.261  24.166   7.956
   10AU     AUC 2958  18.228  24.535   7.998
   10AU     AUC 2959  18.244  24.236   7.002
   10AU     AUC 2960  18.261  24.605   7.008
   10AU     AUC 2961  17.640  24.155   7.987
   10AU     AUC 2962  17.636  24.505   7.991
   10AU     AUC 2963  17.616  24.198   7.015
   10AU     AUC 2964  17.593  24.558   7.009
   10AU     AUC 2965  18.408  24.732   7.333
   10AU     AUC 2966  18.358  24.695   7.691
   10AU     AUC 2967  17.425  24.642   7.310
   10AU     AUC 2968  17.416  24.655   7.704
   10AU     AUC 2969  18.439  24.145   7.299
   10AU     AUC 2970  18.447  24.121   7.622
   10AU     AUC 2971  17.422  24.069   7.315
   10AU     AUC 2972  17.444  24.073   7.650
   10AU     AUC 2973  17.712  24.856   7.793
   10AU     AUC 2974  18.049  24.870   7.797
   10AU     AUC 2975  17.732  23.882   7.771
   10AU     AUC 2976  18.146  23.897   7.787
   10AU     AUC 2977  17.701  24.831   7.179
   10AU     AUC 2978  18.100  24.876   7.178
   10AU     AUC 2979  17.733  23.914   7.182
   10AU     AUC 2980  18.117  23.926   7.160
   10AU    AUSL 2981  18.531  24.325   8.220
   10AU    AUSL 2982  18.376  23.824   8.083
   10AU     AUL 2983  18.607  23.947   8.295
   10AU       S 2984  18.762  23.547   8.110
   10AU     LIG 2985  18.793  23.151   8.366
   10AU     LIG 2986  19.136  22.941   8.632
   10AU       S 2987  18.795  24.366   8.414
   10AU     LIG 2988  18.879  24.381   8.873
   10AU     LIG 2989  18.792  24.234   9.316
   10AU    AUSL 2990  18.137  24.128   8.289
   10AU    AUSL 2991  17.811  24.444   8.402
   10AU     AUL 2992  18.022  24.296   8.627
   10AU       S 2993  18.471  24.171   8.673
   10AU     LIG 2994  18.429  23.962   9.064
   10AU     LIG 2995  18.416  23.916   9.534
   10AU       S 2996  17.316  24.235   8.714
   10AU     LIG 2997  17.439  24.495   9.092
   10AU     LIG 2998  17.368  24.613   9.550
   10AU    AUSL 2999  18.136  24.554   8.156
   10AU    AUSL 3000  18.551  24.747   8.112
   10AU     AUL 3001  18.378  24.579   8.440
   10AU       S 3002  17.991  24.811   8.616
   10AU     LIG 3003  18.288  24.955   8.937
   10AU     LIG 3004  18.593  24.700   9.164
   10AU       S 3005  18.700  24.907   8.315
   10AU     LIG 3006  19.140  24.946   8.370
   10AU     LIG 3007  19.368  25.144   8.733
   10AU    AUSL 3008  18.533  24.475   6.752
   10AU    AUSL 3009  18.363  24.981   6.822
   10AU     AUL 3010  18.507  24.758   6.512
   10AU       S 3011  18.463  24.330   6.289
   10AU     LIG 3012  18.742  24.238   5.901
   10AU     LIG 3013  18.895  24.040   5.503
   10AU       S 3014  18.652  25.114   6.772
   10AU     LIG 3015  18.758  25.446   6.506
   10AU     LIG 3016  19.147  25.491   6.268
   10AU    AUSL 3017  18.184  24.215   6.695
   10AU    AUSL 3018  18.474  24.158   7.049
   10AU     AUL 3019  18.608  24.174   6.697
   10AU       S 3020  18.755  23.693   6.639
   10AU     LIG 3021  19.014  23.475   6.326
   10AU     LIG 3022  19.229  23.239   5.969
   10AU       S 3023  18.227  24.056   6.404
   10AU     LIG 3024  18.107  23.740   6.082
   10AU     LIG 3025  18.493  23.722   5.778
   10AU    AUSL 3026  18.117  24.639   6.754
   10AU    AUSL 3027  17.779  24.183   6.576
   10AU     AUL 3028  18.023  24.479   6.440
   10AU       S 3029  17.633  24.223   6.281
   10AU     LIG 3030  17.740  24.028   5.862
   10AU     LIG 3031  17.401  23.941   5.548
   10AU       S 3032  18.471  24.016   6.258
   10AU     LIG 3033  18.240  24.174   5.867
   10AU     LIG 3034  18.373  24.139   5.433
   10AU    AUSL 3035  17.451  24.312   8.188
   10AU    AUSL 3036  17.661  24.750   8.142
   10AU     AUL 3037  17.551  24.618   8.458
   10AU       S 3038  17.200  24.310   8.449
   10AU     LIG 3039  16.984  24.572   8.811
   10AU     LIG 3040  16.963  24.418   9.263
   10AU       S 3041  17.243  24.951   8.319
   10AU     LIG 3042  17.095  25.073   8.702
   10AU     LIG 3043  16.907  25.474   8.838
   10AU    AUSL 3044  17.728  24.006   8.374
   10AU    AUSL 3045  17.256  23.945   8.069
   10AU     AUL 3046  17.402  23.904   8.348
   10AU       S 3047  17.021  23.665   8.178
   10AU     LIG 3048  16.611  23.493   8.247
   10AU     LIG 3049  16.396  23.227   8.568
   10AU       S 3050  17.548  24.173   8.691
   10AU     LIG 3051  17.570  24.000   9.101
   10AU     LIG 3052  17.352  24.096   9.500
   10AU    AUSL 3053  17.377  24.287   6.715
   10AU    AUSL 3054  17.673  23.988   6.948
   10AU     AUL 3055  17.538  23.917   6.632
   10AU       S 3056  17.232  24.215   6.422
   10AU     LIG 3057  16.949  24.323   6.064
   10AU     LIG 3058  16.957  24.244   5.589
   10AU       S 3059  17.083  23.760   6.608
   10AU     LIG 3060  17.051  23.327   6.475
   10AU     LIG 3061  16.809  23.015   6.223
   10AU    AUSL 3062  17.705  24.570   6.789
   10AU    AUSL 3063  17.271  24.650   6.927
   10AU     AUL 3064  17.464  24.604   6.538
   10AU       S 3065  17.086  24.782   6.753
   10AU     LIG 3066  16.765  25.052   6.621
   10AU     LIG 3067  16.633  25.374   6.309
   10AU       S 3068  17.377  24.099   6.200
   10AU     LIG 3069  17.402  24.402   5.837
   10AU     LIG 3070  17.386  24.453   5.363
   10AU    AUSL 3071  18.600  25.019   7.529
   10AU    AUSL 3072  18.576  24.725   7.102
   10AU     AUL 3073  18.729  25.117   7.237
   10AU       S 3074  18.834  24.791   6.919
   10AU     LIG 3075  19.234  24.675   6.758
   10AU     LIG 3076  19.352  25.019   6.460
   10AU       S 3077  19.116  25.047   7.796
   10AU     LIG 3078  19.273  25.367   7.475
   10AU     LIG 3079  19.607  25.558   7.209
   10AU    AUSL 3080  18.878  24.684   7.400
   10AU    AUSL 3081  18.890  24.288   7.669
   10AU     AUL 3082  19.186  24.477   7.519
   10AU       S 3083  19.063  24.921   7.555
   10AU     LIG 3084  19.379  24.989   7.156
   10AU     LIG 3085  19.816  24.829   7.111
   10AU       S 3086  19.140  24.003   7.527
   10AU     LIG 3087  19.453  23.777   7.733
   10AU     LIG 3088  19.880  23.641   7.771
   10AU    AUSL 3089  18.603  24.604   7.719
   10AU    AUSL 3090  18.277  24.915   7.793
   10AU     AUL 3091  18.638  25.015   7.855
   10AU       S 3092  18.673  25.224   8.292
   10AU     LIG 3093  19.093  25.451   8.317
   10AU     LIG 3094  19.300  25.880   8.384
   10AU       S 3095  18.994  24.720   7.886
   10AU     LIG 3096  19.493  24.811   7.984
   10AU     LIG 3097  19.893  24.686   7.757
   10AU    AUSL 3098  17.248  24.854   7.560
   10AU    AUSL 3099  17.273  24.634   7.964
   10AU     AUL 3100  16.982  24.957   7.810
   10AU       S 3101  17.153  24.706   8.173
   10AU     LIG 3102  16.766  24.788   8.393
   10AU     LIG 3103  16.570  25.142   8.606
   10AU       S 3104  17.168  25.291   7.537
   10AU     LIG 3105  16.660  25.427   7.485
   10AU     LIG 3106  16.158  25.560   7.502
   10AU    AUSL 3107  17.176  24.501   7.309
   10AU    AUSL 3108  17.292  25.025   7.172
   10AU     AUL 3109  17.014  24.836   7.230
   10AU       S 3110  16.868  24.391   6.956
   10AU     LIG 3111  16.442  24.677   6.901
   10AU     LIG 3112  15.928  24.774   6.908
   10AU       S 3113  17.111  25.229   6.964
   10AU     LIG 3114  16.972  25.546   6.668
   10AU     LIG 3115  16.701  25.895   6.467
   10AU    AUSL 3116  16.960  24.516   7.696
   10AU    AUSL 3117  16.968  24.136   7.392
   10AU     AUL 3118  16.796  24.461   7.410
   10AU       S 3119  16.731  24.061   7.644
   10AU     LIG 3120  16.360  23.972   7.319
   10AU     LIG 3121  15.955  23.923   7.275
   10AU       S 3122  16.727  24.561   7.898
   10AU     LIG 3123  16.317  24.779   7.813
   10AU     LIG 3124  16.137  25.222   7.898
   10AU    AUSL 3125  18.648  23.997   7.447
   10AU    AUSL 3126  18.508  24.151   7.833
   10AU     AUL 3127  18.829  24.028   7.875
   10AU       S 3128  18.966  23.823   7.466
   10AU     LIG 3129  19.184  23.414   7.490
   10AU     LIG 3130  19.647  23.277   7.413
   10AU       S 3131  19.022  23.589   7.942
   10AU     LIG 3132  19.216  23.410   8.312
   10AU     LIG 3133  19.427  23.364   8.730
   10AU    AUSL 3134  18.844  24.304   7.197
   10AU    AUSL 3135  18.554  23.696   7.161
   10AU     AUL 3136  18.783  23.950   7.062
   10AU       S 3137  19.165  24.072   7.282
   10AU     LIG 3138  19.469  23.746   7.218
   10AU     LIG 3139  19.925  23.653   7.237
   10AU       S 3140  18.680  23.520   6.886
   10AU     LIG 3141  18.708  23.169   6.613
   10AU     LIG 3142  19.025  22.943   6.358
   10AU    AUSL 3143  17.340  23.881   7.454
   10AU    AUSL 3144  17.251  24.096   7.071
   10AU     AUL 3145  16.993  23.835   7.282
   10AU       S 3146  17.063  23.947   6.830
   10AU     LIG 3147  16.625  23.723   6.780
   10AU     LIG 3148  16.529  23.353   6.519
   10AU       S 3149  16.649  23.899   7.735
   10AU     LIG 3150  16.467  23.533   7.584
   10AU     LIG 3151  16.077  23.393   7.387
   10AU    AUSL 3152  17.236  24.198   7.735
   10AU    AUSL 3153  17.391  23.632   7.793
   10AU     AUL 3154  17.113  23.784   7.737
   10AU       S 3155  17.196  23.401   7.992
   10AU     LIG 3156  16.806  23.167   7.902
   10AU     LIG 3157  16.523  22.918   8.184
   10AU       S 3158  16.813  24.095   7.898
   10AU     LIG 3159  16.358  23.936   8.108
   10AU     LIG 3160  16.029  23.775   7.794
   10AU    AUSL 3161  17.877  25.076   7.954
   10AU    AUSL 3162  17.438  25.041   7.900
   10AU     AUL 3163  17.694  25.082   8.257
   10AU       S 3164  17.302  25.219   8.041
   10AU     LIG 3165  16.951  25.373   8.312
   10AU     LIG 3166  16.591  25.647   8.435
   10AU       S 3167  17.830  25.473   8.017
   10AU     LIG 3168  18.058  25.801   8.290
   10AU     LIG 3169  18.039  26.224   8.539
   10AU    AUSL 3170  17.663  25.274   7.617
   10AU    AUSL 3171  17.996  25.329   7.262
   10AU     AUL 3172  17.703  25.546   7.400
   10AU       S 3173  17.803  25.732   7.860
   10AU     LIG 3174  17.845  26.204   8.051
   10AU     LIG 3175  18.059  26.629   8.193
   10AU       S 3176  17.940  25.565   6.978
   10AU     LIG 3177  18.196  25.940   7.137
   10AU     LIG 3178  18.296  26.333   6.942
   10AU    AUSL 3179  18.134  25.290   7.665
   10AU    AUSL 3180  18.184  24.968   8.230
   10AU     AUL 3181  18.244  25.235   8.018
   10AU       S 3182  18.429  25.077   8.451
   10AU     LIG 3183  18.829  25.197   8.750
   10AU     LIG 3184  19.136  25.589   8.823
   10AU       S 3185  18.053  25.567   7.736
   10AU     LIG 3186  18.221  25.997   7.759
   10AU     LIG 3187  18.364  26.206   8.137
   10AU    AUSL 3188  17.985  23.650   8.104
   10AU    AUSL 3189  18.544  23.666   7.699
   10AU     AUL 3190  18.306  23.461   7.998
   10AU       S 3191  17.910  23.134   8.035
   10AU     LIG 3192  17.670  22.864   8.279
   10AU     LIG 3193  17.721  22.418   8.419
   10AU       S 3194  18.750  23.527   7.795
   10AU     LIG 3195  18.992  23.103   7.891
   10AU     LIG 3196  19.320  22.878   8.158
   10AU    AUSL 3197  17.789  23.499   7.731
   10AU    AUSL 3198  17.695  23.921   7.957
   10AU     AUL 3199  17.637  23.565   8.098
   10AU       S 3200  17.703  23.210   7.801
   10AU     LIG 3201  17.382  22.937   7.856
   10AU     LIG 3202  17.430  22.494   7.973
   10AU       S 3203  17.175  23.450   8.265
   10AU     LIG 3204  16.924  23.114   8.428
   10AU     LIG 3205  16.654  22.774   8.656
   10AU    AUSL 3206  18.134  23.748   7.675
   10AU    AUSL 3207  17.745  23.613   7.322
   10AU     AUL 3208  18.066  23.386   7.532
   10AU       S 3209  17.613  23.304   7.326
   10AU     LIG 3210  17.255  23.041   7.207
   10AU     LIG 3211  17.363  22.607   7.103
   10AU       S 3212  17.901  22.984   7.807
   10AU     LIG 3213  17.961  22.556   7.973
   10AU     LIG 3214  17.976  22.077   8.087
   10AU    AUSL 3215  17.954  25.040   6.936
   10AU    AUSL 3216  18.266  24.991   7.266
   10AU     AUL 3217  18.300  25.275   7.054
   10AU       S 3218  17.955  25.288   6.723
   10AU     LIG 3219  18.225  25.727   6.593
   10AU     LIG 3220  18.199  26.205   6.461
   10AU       S 3221  18.892  25.019   6.759
   10AU     LIG 3222  19.186  25.359   6.817
   10AU     LIG 3223  19.470  25.686   6.635
   10AU    AUSL 3224  17.697  25.004   7.295
   10AU    AUSL 3225  17.555  24.970   6.822
   10AU     AUL 3226  17.580  25.249   7.036
   10AU       S 3227  17.774  25.561   6.716
   10AU     LIG 3228  17.829  26.038   6.799
   10AU     LIG 3229  17.798  26.441   7.055
   10AU       S 3230  17.292  25.067   6.682
   10AU     LIG 3231  17.150  25.229   6.305
   10AU     LIG 3232  17.039  25.653   6.140
   10AU    AUSL 3233  17.909  23.637   6.903
   10AU    AUSL 3234  17.392  23.673   7.082
   10AU     AUL 3235  17.631  23.542   6.916
   10AU       S 3236  17.159  23.644   6.871
   10AU     LIG 3237  16.845  23.262   6.939
   10AU     LIG 3238  16.638  22.884   6.703
   10AU       S 3239  17.842  23.156   7.149
   10AU     LIG 3240  17.722  22.877   6.832
   10AU     LIG 3241  17.774  22.423   6.745
   10AU    AUSL 3242  18.150  23.762   7.255
   10AU    AUSL 3243  18.285  23.825   6.829
   10AU     AUL 3244  18.227  23.481   7.045
   10AU       S 3245  17.733  23.014   7.337
   10AU     LIG 3246  17.911  22.587   7.225
   10AU     LIG 3247  18.103  22.150   7.064
   10AU       S 3248  18.457  23.700   6.675
   10AU     LIG 3249  18.498  23.487   6.266
   10AU     LIG 3250  18.712  23.180   5.998
   11POPC   NC3 3251  11.352  16.846   9.442
   11POPC   PO4 3252  11.870  16.551   9.714
   11POPC   GL1 3253  11.654  16.402   9.227
   11POPC   GL2 3254  11.283  16.466   9.134
   11POPC   C1A 3255  11.592  16.520   8.741
   11POPC   D2A 3256  11.481  16.867   8.462
   11POPC   C3A 3257  11.658  16.817   8.059
   11POPC   C4A 3258  11.452  16.897   7.665
   11POPC   C1B 3259  11.092  16.716   8.809
   11POPC   C2B 3260  10.972  16.740   8.386
   11POPC   C3B 3261  11.129  16.627   7.983
   11POPC   C4B 3262  10.974  16.744   7.585
   12POPC   NC3 3263  13.554  27.782   9.446
   12POPC   PO4 3264  13.768  27.112   9.378
   12POPC   GL1 3265  13.474  27.342   9.106
   12POPC   GL2 3266  13.396  27.713   8.988
   12POPC   C1A 3267  13.598  27.367   8.673
   12POPC   D2A 3268  13.540  27.623   8.326
   12POPC   C3A 3269  13.493  27.712   7.910
   12POPC   C4A 3270  13.817  27.526   7.714
   12POPC   C1B 3271  13.738  27.863   8.728
   12POPC   C2B 3272  13.927  28.010   8.377
   12POPC   C3B 3273  14.068  27.922   7.966
   12POPC   C4B 3274  13.769  28.046   7.647
   13POPC   NC3 3275  43.437  39.064   9.695
   13POPC   PO4 3276  44.039  38.973   9.491
   13POPC   GL1 3277  44.018  39.220   9.109
   13POPC   GL2 3278  44.347  39.362   9.009
   13POPC   C1A 3279  43.638  39.245   8.799
   13POPC   D2A 3280  43.403  39.415   8.406
   13POPC   C3A 3281  43.654  39.434   7.985
   13POPC   C4A 3282  43.598  39.528   7.557
   13POPC   C1B 3283  44.278  39.282   8.624
   13POPC   C2B 3284  43.911  39.233   8.376
   13POPC   C3B 3285  43.824  38.949   8.043
   13POPC   C4B 3286  44.189  39.011   7.812
   14POPC   NC3 3287  38.296  32.570   9.520
   14POPC   PO4 3288  38.027  31.909   9.485
   14POPC   GL1 3289  38.361  32.151   9.223
   14POPC   GL2 3290  38.249  32.470   9.032
   14POPC   C1A 3291  38.594  32.158   8.802
   14POPC   D2A 3292  38.697  32.320   8.378
   14POPC   C3A 3293  38.581  32.148   7.971
   14POPC   C4A 3294  38.507  32.219   7.491
   14POPC   C1B 3295  38.098  32.662   8.655
   14POPC   C2B 3296  38.221  32.507   8.234
   14POPC   C3B 3297  38.246  32.533   7.824
   14POPC   C4B 3298  38.182  32.629   7.377
   15POPC   NC3 3299   7.586  34.997   9.449
   15POPC   PO4 3300   7.080  35.505   9.464
   15POPC   GL1 3301   7.260  35.435   9.106
   15POPC   GL2 3302   7.226  35.091   9.094
   15POPC   C1A 3303   7.347  35.652   8.734
   15POPC   D2A 3304   7.571  35.482   8.420
   15POPC   C3A 3305   7.501  35.626   8.048
   15POPC   C4A 3306   7.515  35.423   7.711
   15POPC   C1B 3307   7.494  35.101   8.754
   15POPC   C2B 3308   7.366  35.021   8.336
   15POPC   C3B 3309   7.589  35.002   7.976
   15POPC   C4B 3310   7.492  34.923   7.552
   16POPC   NC3 3311  32.708   3.750   9.580
   16POPC   PO4 3312  32.953   3.051   9.597
   16POPC   GL1 3313  33.062   3.301   9.196
   16POPC   GL2 3314  33.070   3.669   9.170
   16POPC   C1A 3315  33.098   3.355   8.731
   16POPC   D2A 3316  32.911   3.216   8.312
   16POPC   C3A 3317  33.037   3.423   7.932
   16POPC   C4A 3318  33.108   3.395   7.486
   16POPC   C1B 3319  32.869   3.827   8.806
   16POPC   C2B 3320  32.804   3.703   8.393
   16POPC   C3B 3321  32.674   3.798   7.996
   16POPC   C4B 3322  32.965   3.870   7.649
   17POPC   NC3 3323  43.740  35.555   9.385
   17POPC   PO4 3324  43.947  34.936   9.479
   17POPC   GL1 3325  43.993  35.165   9.103
   17POPC   GL2 3326  43.649  35.182   9.042
   17POPC   C1A 3327  43.999  35.410   8.704
   17POPC   D2A 3328  43.801  35.459   8.316
   17POPC   C3A 3329  44.021  35.610   7.939
   17POPC   C4A 3330  44.278  35.605   7.553
   17POPC   C1B 3331  43.437  35.310   8.674
   17POPC   C2B 3332  43.383  35.167   8.252
   17POPC   C3B 3333  43.598  35.290   7.886
   17POPC   C4B 3334  43.992  35.165   7.697
   18POPC   NC3 3335   1.786  11.194   9.496
   18POPC   PO4 3336   2.399  11.446   9.472
   18POPC   GL1 3337   2.196  11.391   9.078
   18POPC   GL2 3338   1.868  11.514   9.076
   18POPC   C1A 3339   1.939  11.085   8.824
   18POPC   D2A 3340   1.759  11.026   8.413
   18POPC   C3A 3341   1.989  11.098   8.062
   18POPC   C4A 3342   1.891  11.204   7.658
   18POPC   C1B 3343   1.703  11.511   8.648
   18POPC   C2B 3344   1.982  11.581   8.311
   18POPC   C3B 3345   1.955  11.648   7.870
   18POPC   C4B 3346   1.770  11.656   7.431
   19POPC   NC3 3347  34.970  19.768   9.506
   19POPC   PO4 3348  35.537  19.384   9.753
   19POPC   GL1 3349  35.505  19.624   9.298
   19POPC   GL2 3350  35.330  19.945   9.196
   19POPC   C1A 3351  35.572  19.699   8.817
   19POPC   D2A 3352  35.472  19.887   8.390
   19POPC   C3A 3353  35.519  19.792   7.945
   19POPC   C4A 3354  35.178  19.802   7.658
   19POPC   C1B 3355  35.224  20.144   8.793
   19POPC   C2B 3356  35.309  20.355   8.386
   19POPC   C3B 3357  35.132  20.158   8.021
   19POPC   C4B 3358  34.979  20.279   7.608
   20POPC   NC3 3359  33.972  25.840   9.913
   20POPC   PO4 3360  33.789  25.460   9.369
   20POPC   GL1 3361  33.791  25.144   9.069
   20POPC   GL2 3362  34.115  25.029   8.920
   20POPC   C1A 3363  33.589  25.163   8.663
   20POPC   D2A 3364  33.849  25.063   8.331
   20POPC   C3A 3365  33.644  24.956   7.970
   20POPC   C4A 3366  33.629  25.020   7.531
   20POPC   C1B 3367  34.001  25.453   8.717
   20POPC   C2B 3368  33.764  25.589   8.353
   20POPC   C3B 3369  33.875  25.436   7.940
   20POPC   C4B 3370  33.880  25.435   7.501
   21POPC   NC3 3371  37.426   0.970   9.488
   21POPC   PO4 3372  37.846   1.424   9.293
   21POPC   GL1 3373  37.864   1.117   9.030
   21POPC   GL2 3374  37.489   1.098   9.000
   21POPC   C1A 3375  37.813   1.029   8.608
   21POPC   D2A 3376  37.610   1.164   8.239
   21POPC   C3A 3377  37.842   1.347   7.935
   21POPC   C4A 3378  38.169   1.160   7.738
   21POPC   C1B 3379  37.181   1.274   8.701
   21POPC   C2B 3380  37.197   1.453   8.266
   21POPC   C3B 3381  37.351   1.384   7.802
   21POPC   C4B 3382  37.362   1.253   7.347
   22POPC   NC3 3383  26.786   8.071   9.531
   22POPC   PO4 3384  26.813   8.712   9.349
   22POPC   GL1 3385  27.011   8.334   9.157
   22POPC   GL2 3386  26.713   8.134   9.029
   22POPC   C1A 3387  27.142   8.023   8.817
   22POPC   D2A 3388  26.829   7.981   8.502
   22POPC   C3A 3389  26.901   8.060   8.078
   22POPC   C4A 3390  26.851   8.087   7.656
   22POPC   C1B 3391  26.811   8.445   8.708
   22POPC   C2B 3392  26.899   8.520   8.283
   22POPC   C3B 3393  26.621   8.492   7.911
   22POPC   C4B 3394  26.198   8.558   7.807
   23POPC   NC3 3395  31.022  44.278   9.470
   23POPC   PO4 3396  30.923  43.642   9.534
   23POPC   GL1 3397  30.809  43.884   9.162
   23POPC   GL2 3398  30.492  43.977   9.049
   23POPC   C1A 3399  30.908  43.873   8.719
   23POPC   D2A 3400  30.795  43.693   8.293
   23POPC   C3A 3401  30.773  43.963   7.897
   23POPC   C4A 3402  30.740  43.832   7.451
   23POPC   C1B 3403  30.462  43.650   8.761
   23POPC   C2B 3404  30.278  43.600   8.379
   23POPC   C3B 3405  30.299  43.931   8.113
   23POPC   C4B 3406  30.279  43.983   7.691
   24POPC   NC3 3407   8.739   7.731   9.494
   24POPC   PO4 3408   9.187   7.214   9.323
   24POPC   GL1 3409   8.954   7.472   9.057
   24POPC   GL2 3410   8.605   7.583   9.026
   24POPC   C1A 3411   9.134   7.467   8.652
   24POPC   D2A 3412   8.971   7.586   8.274
   24POPC   C3A 3413   9.158   7.469   7.905
   24POPC   C4A 3414   8.795   7.464   7.673
   24POPC   C1B 3415   8.617   7.253   8.731
   24POPC   C2B 3416   8.562   7.192   8.329
   24POPC   C3B 3417   8.750   7.083   7.997
   24POPC   C4B 3418   8.544   7.035   7.608
   25POPC   NC3 3419  35.938   9.485   9.366
   25POPC   PO4 3420  35.999   8.795   9.567
   25POPC   GL1 3421  36.113   9.025   9.216
   25POPC   GL2 3422  35.805   9.059   9.133
   25POPC   C1A 3423  36.258   9.076   8.819
   25POPC   D2A 3424  36.269   9.315   8.459
   25POPC   C3A 3425  36.379   9.187   8.030
   25POPC   C4A 3426  36.226   8.809   7.768
   25POPC   C1B 3427  35.783   9.315   8.756
   25POPC   C2B 3428  35.795   9.177   8.339
   25POPC   C3B 3429  35.887   9.168   7.927
   25POPC   C4B 3430  35.770   9.426   7.639
   26POPC   NC3 3431  38.566  22.570   9.472
   26POPC   PO4 3432  38.098  23.113   9.507
   26POPC   GL1 3433  38.316  22.913   9.170
   26POPC   GL2 3434  38.592  23.064   8.977
   26POPC   C1A 3435  38.219  22.704   8.823
   26POPC   D2A 3436  38.176  22.841   8.420
   26POPC   C3A 3437  38.518  22.892   8.137
   26POPC   C4A 3438  38.503  22.856   7.714
   26POPC   C1B 3439  38.673  22.819   8.648
   26POPC   C2B 3440  38.557  22.482   8.434
   26POPC   C3B 3441  38.660  22.371   8.014
   26POPC   C4B 3442  38.954  22.618   7.760
   27POPC   NC3 3443   1.907  35.043   9.618
   27POPC   PO4 3444   2.206  35.569   9.819
   27POPC   GL1 3445   2.043  35.465   9.320
   27POPC   GL2 3446   1.791  35.217   9.153
   27POPC   C1A 3447   1.905  35.610   8.860
   27POPC   D2A 3448   1.825  35.455   8.432
   27POPC   C3A 3449   2.054  35.452   8.035
   27POPC   C4A 3450   1.881  35.505   7.627
   27POPC   C1B 3451   2.076  35.136   8.795
   27POPC   C2B 3452   2.101  35.011   8.353
   27POPC   C3B 3453   2.316  35.003   7.923
   27POPC   C4B 3454   2.379  35.310   7.548
   28POPC   NC3 3455   6.232  11.400   9.406
   28POPC   PO4 3456   5.602  11.112   9.737
   28POPC   GL1 3457   5.747  11.137   9.232
   28POPC   GL2 3458   5.785  11.453   8.996
   28POPC   C1A 3459   5.733  11.018   8.767
   28POPC   D2A 3460   5.751  11.331   8.427
   28POPC   C3A 3461   5.693  11.203   7.994
   28POPC   C4A 3462   5.964  10.976   7.721
   28POPC   C1B 3463   6.168  11.422   8.737
   28POPC   C2B 3464   6.277  11.502   8.299
   28POPC   C3B 3465   6.098  11.516   7.869
   28POPC   C4B 3466   6.349  11.612   7.482
   29POPC   NC3 3467  20.880  14.285   9.299
   29POPC   PO4 3468  20.267  14.478   9.490
   29POPC   GL1 3469  20.326  14.514   9.078
   29POPC   GL2 3470  20.639  14.678   9.068
   29POPC   C1A 3471  20.519  14.317   8.711
   29POPC   D2A 3472  20.502  14.101   8.335
   29POPC   C3A 3473  20.415  14.304   8.005
   29POPC   C4A 3474  20.630  14.348   7.657
   29POPC   C1B 3475  20.927  14.645   8.726
   29POPC   C2B 3476  20.964  14.344   8.385
   29POPC   C3B 3477  20.948  14.525   7.979
   29POPC   C4B 3478  20.971  14.994   7.851
   30POPC   NC3 3479  37.303  24.895   9.614
   30POPC   PO4 3480  37.079  24.282   9.383
   30POPC   GL1 3481  36.944  24.570   9.108
   30POPC   GL2 3482  36.641  24.413   9.109
   30POPC   C1A 3483  36.853  24.649   8.681
   30POPC   D2A 3484  37.042  24.490   8.317
   30POPC   C3A 3485  37.016  24.740   7.970
   30POPC   C4A 3486  36.630  24.849   7.818
   30POPC   C1B 3487  36.872  24.140   8.765
   30POPC   C2B 3488  36.748  24.062   8.333
   30POPC   C3B 3489  36.728  24.285   7.932
   30POPC   C4B 3490  37.140  24.285   7.746
   31POPC   NC3 3491  26.440  27.050   9.217
   31POPC   PO4 3492  26.203  26.801   9.758
   31POPC   GL1 3493  26.030  26.696   9.209
   31POPC   GL2 3494  25.951  26.986   9.062
   31POPC   C1A 3495  26.202  26.691   8.731
   31POPC   D2A 3496  26.031  26.706   8.316
   31POPC   C3A 3497  25.995  26.865   7.885
   31POPC   C4A 3498  25.846  26.618   7.519
   31POPC   C1B 3499  25.762  26.988   8.673
   31POPC   C2B 3500  25.796  27.213   8.286
   31POPC   C3B 3501  25.598  27.197   7.915
   31POPC   C4B 3502  25.599  27.047   7.515
   32POPC   NC3 3503  21.302  26.147   9.384
   32POPC   PO4 3504  21.328  25.524   9.423
   32POPC   GL1 3505  21.473  25.781   9.084
   32POPC   GL2 3506  21.695  26.085   9.035
   32POPC   C1A 3507  21.357  25.833   8.693
   32POPC   D2A 3508  21.422  25.945   8.296
   32POPC   C3A 3509  21.060  26.001   8.073
   32POPC   C4A 3510  21.162  25.892   7.677
   32POPC   C1B 3511  21.570  26.291   8.665
   32POPC   C2B 3512  21.669  26.393   8.246
   32POPC   C3B 3513  21.476  26.260   7.868
   32POPC   C4B 3514  21.108  26.408   7.672
   33POPC   NC3 3515   3.138  43.497   9.326
   33POPC   PO4 3516   2.426  43.432   9.396
   33POPC   GL1 3517   2.523  43.236   9.023
   33POPC   GL2 3518   2.859  43.205   9.020
   33POPC   C1A 3519   2.562  43.163   8.603
   33POPC   D2A 3520   2.826  43.368   8.332
   33POPC   C3A 3521   2.862  43.116   8.033
   33POPC   C4A 3522   2.710  43.136   7.679
   33POPC   C1B 3523   3.026  42.894   8.761
   33POPC   C2B 3524   3.188  42.963   8.399
   33POPC   C3B 3525   3.358  43.215   8.131
   33POPC   C4B 3526   3.250  43.213   7.714
   34POPC   NC3 3527   0.707   6.754   9.585
   34POPC   PO4 3528   0.238   6.267   9.407
   34POPC   GL1 3529   0.464   6.569   9.165
   34POPC   GL2 3530   0.760   6.388   9.097
   34POPC   C1A 3531   0.375   6.942   8.853
   34POPC   D2A 3532   0.504   6.956   8.402
   34POPC   C3A 3533   0.239   6.858   8.056
   34POPC   C4A 3534   0.416   6.998   7.671
   34POPC   C1B 3535   0.677   6.573   8.700
   34POPC   C2B 3536   0.308   6.447   8.438
   34POPC   C3B 3537   0.296   6.337   7.996
   34POPC   C4B 3538   0.632   6.540   7.803
   35POPC   NC3 3539   4.924  21.684   9.401
   35POPC   PO4 3540   5.402  21.299   9.763
   35POPC   GL1 3541   5.378  21.487   9.329
   35POPC   GL2 3542   5.093  21.266   9.193
   35POPC   C1A 3543   5.400  21.542   8.888
   35POPC   D2A 3544   5.550  21.227   8.611
   35POPC   C3A 3545   5.430  21.269   8.170
   35POPC   C4A 3546   5.207  21.193   7.778
   35POPC   C1B 3547   5.034  21.188   8.749
   35POPC   C2B 3548   4.900  21.225   8.304
   35POPC   C3B 3549   4.670  21.232   7.907
   35POPC   C4B 3550   4.803  21.316   7.460
   36POPC   NC3 3551   7.591  12.586   9.390
   36POPC   PO4 3552   6.938  12.860   9.579
   36POPC   GL1 3553   7.159  12.868   9.176
   36POPC   GL2 3554   7.131  12.535   9.082
   36POPC   C1A 3555   7.413  12.889   8.765
   36POPC   D2A 3556   7.369  12.874   8.302
   36POPC   C3A 3557   7.616  12.779   7.926
   36POPC   C4A 3558   7.287  13.027   7.717
   36POPC   C1B 3559   7.093  12.514   8.643
   36POPC   C2B 3560   7.277  12.362   8.276
   36POPC   C3B 3561   7.174  12.547   7.915
   36POPC   C4B 3562   7.248  12.563   7.510
   37POPC   NC3 3563  10.717   1.710   9.499
   37POPC   PO4 3564  10.395   2.257   9.245
   37POPC   GL1 3565  10.554   1.886   9.038
   37POPC   GL2 3566  10.211   1.821   8.937
   37POPC   C1A 3567  10.616   1.624   8.661
   37POPC   D2A 3568  10.769   1.630   8.225
   37POPC   C3A 3569  10.492   1.622   7.879
   37POPC   C4A 3570  10.058   1.760   7.806
   37POPC   C1B 3571  10.382   2.141   8.604
   37POPC   C2B 3572  10.231   2.398   8.255
   37POPC   C3B 3573  10.354   2.166   7.928
   37POPC   C4B 3574  10.796   2.053   7.918
   38POPC   NC3 3575  33.339  38.373   9.549
   38POPC   PO4 3576  34.003  38.211   9.393
   38POPC   GL1 3577  33.915  38.480   9.039
   38POPC   GL2 3578  33.546  38.504   9.072
   38POPC   C1A 3579  33.777  38.443   8.593
   38POPC   D2A 3580  33.655  38.128   8.256
   38POPC   C3A 3581  33.868  38.181   7.865
   38POPC   C4A 3582  34.096  38.511   7.667
   38POPC   C1B 3583  33.470  38.847   8.753
   38POPC   C2B 3584  33.462  38.760   8.329
   38POPC   C3B 3585  33.679  38.660   7.961
   38POPC   C4B 3586  33.721  38.855   7.566
   39POPC   NC3 3587  14.343  22.908   9.539
   39POPC   PO4 3588  14.853  22.639   9.299
   39POPC   GL1 3589  14.551  22.809   9.066
   39POPC   GL2 3590  14.474  23.167   9.118
   39POPC   C1A 3591  14.414  22.775   8.657
   39POPC   D2A 3592  14.221  22.629   8.290
   39POPC   C3A 3593  14.428  22.697   7.908
   39POPC   C4A 3594  14.656  23.036   7.761
   39POPC   C1B 3595  14.553  23.261   8.677
   39POPC   C2B 3596  14.392  23.126   8.268
   39POPC   C3B 3597  14.180  23.185   7.902
   39POPC   C4B 3598  14.276  23.298   7.479
   40POPC   NC3 3599  26.786  17.839   9.517
   40POPC   PO4 3600  27.110  18.463   9.495
   40POPC   GL1 3601  26.968  18.514   9.093
   40POPC   GL2 3602  26.771  18.216   9.155
   40POPC   C1A 3603  26.839  18.409   8.695
   40POPC   D2A 3604  26.813  18.194   8.334
   40POPC   C3A 3605  26.671  18.504   8.011
   40POPC   C4A 3606  26.607  18.815   7.673
   40POPC   C1B 3607  26.879  17.925   8.849
   40POPC   C2B 3608  27.060  17.673   8.536
   40POPC   C3B 3609  27.144  17.857   8.125
   40POPC   C4B 3610  26.825  18.050   7.850
   41POPC   NC3 3611  17.703  27.080   9.574
   41POPC   PO4 3612  17.407  26.419   9.711
   41POPC   GL1 3613  17.551  26.664   9.286
   41POPC   GL2 3614  17.391  26.986   9.155
   41POPC   C1A 3615  17.630  26.752   8.788
   41POPC   D2A 3616  17.624  26.970   8.350
   41POPC   C3A 3617  17.592  26.706   7.942
   41POPC   C4A 3618  17.814  26.440   7.602
   41POPC   C1B 3619  17.347  27.229   8.756
   41POPC   C2B 3620  17.106  27.149   8.371
   41POPC   C3B 3621  17.128  27.233   7.945
   41POPC   C4B 3622  17.435  27.112   7.638
   42POPC   NC3 3623   2.147  29.695   9.427
   42POPC   PO4 3624   1.647  30.206   9.422
   42POPC   GL1 3625   1.785  29.926   9.106
   42POPC   GL2 3626   1.553  29.696   9.033
   42POPC   C1A 3627   2.112  29.809   8.782
   42POPC   D2A 3628   2.304  29.559   8.443
   42POPC   C3A 3629   2.252  29.651   8.011
   42POPC   C4A 3630   1.968  29.933   7.837
   42POPC   C1B 3631   1.633  29.734   8.604
   42POPC   C2B 3632   1.791  29.585   8.253
   42POPC   C3B 3633   1.682  29.495   7.851
   42POPC   C4B 3634   1.917  29.591   7.478
   43POPC   NC3 3635   5.843  36.531   9.435
   43POPC   PO4 3636   5.675  37.139   9.518
   43POPC   GL1 3637   6.020  36.968   9.205
   43POPC   GL2 3638   6.306  36.731   9.173
   43POPC   C1A 3639   6.222  37.106   8.810
   43POPC   D2A 3640   6.245  37.205   8.351
   43POPC   C3A 3641   6.007  36.964   8.030
   43POPC   C4A 3642   5.684  36.954   7.676
   43POPC   C1B 3643   6.148  36.546   8.773
   43POPC   C2B 3644   6.021  36.445   8.316
   43POPC   C3B 3645   5.731  36.515   7.967
   43POPC   C4B 3646   5.783  36.479   7.530
   44POPC   NC3 3647   6.928  44.436   9.495
   44POPC   PO4 3648   6.267  44.579   9.755
   44POPC   GL1 3649   6.513  44.639   9.295
   44POPC   GL2 3650   6.682  44.335   9.087
   44POPC   C1A 3651   6.682  44.775   8.834
   44POPC   D2A 3652   6.584  44.628   8.419
   44POPC   C3A 3653   6.602  44.871   8.033
   44POPC   C4A 3654   6.607  44.774   7.603
   44POPC   C1B 3655   6.664  44.176   8.690
   44POPC   C2B 3656   6.823  44.193   8.294
   44POPC   C3B 3657   6.753  44.408   7.933
   44POPC   C4B 3658   6.903  44.362   7.507
   45POPC   NC3 3659  11.433  35.325   9.558
   45POPC   PO4 3660  10.813  35.161   9.312
   45POPC   GL1 3661  11.204  35.239   9.108
   45POPC   GL2 3662  11.388  35.575   9.113
   45POPC   C1A 3663  11.323  35.021   8.751
   45POPC   D2A 3664  11.261  35.234   8.377
   45POPC   C3A 3665  11.389  35.033   7.991
   45POPC   C4A 3666  11.204  35.207   7.611
   45POPC   C1B 3667  11.617  35.431   8.790
   45POPC   C2B 3668  11.721  35.546   8.405
   45POPC   C3B 3669  11.500  35.533   8.043
   45POPC   C4B 3670  11.657  35.390   7.684
   46POPC   NC3 3671  41.322  27.373   9.454
   46POPC   PO4 3672  41.732  27.837   9.264
   46POPC   GL1 3673  41.460  27.614   9.034
   46POPC   GL2 3674  41.622  27.315   9.057
   46POPC   C1A 3675  41.468  27.592   8.622
   46POPC   D2A 3676  41.278  27.518   8.290
   46POPC   C3A 3677  41.626  27.574   8.035
   46POPC   C4A 3678  41.585  27.714   7.644
   46POPC   C1B 3679  41.879  27.322   8.749
   46POPC   C2B 3680  42.183  27.269   8.456
   46POPC   C3B 3681  42.126  27.068   8.089
   46POPC   C4B 3682  42.005  27.265   7.712
   47POPC   NC3 3683  44.472  22.544   9.749
   47POPC   PO4 3684  44.409  23.097   9.329
   47POPC   GL1 3685  44.377  22.978   8.934
   47POPC   GL2 3686  44.676  22.777   8.995
   47POPC   C1A 3687  44.283  22.693   8.622
   47POPC   D2A 3688  44.525  22.714   8.296
   47POPC   C3A 3689  44.485  23.057   8.082
   47POPC   C4A 3690  44.364  22.928   7.737
   47POPC   C1B 3691  44.816  22.961   8.630
   47POPC   C2B 3692   0.032  22.799   8.291
   47POPC   C3B 3693  44.886  22.822   7.881
   47POPC   C4B 3694   0.211  23.100   7.736
   48POPC   NC3 3695  18.087   7.730   9.484
   48POPC   PO4 3696  18.471   8.283   9.483
   48POPC   GL1 3697  18.223   8.079   9.136
   48POPC   GL2 3698  17.893   8.183   9.035
   48POPC   C1A 3699  18.204   7.886   8.714
   48POPC   D2A 3700  18.466   8.012   8.350
   48POPC   C3A 3701  18.334   8.038   7.904
   48POPC   C4A 3702  18.587   8.018   7.514
   48POPC   C1B 3703  18.117   8.411   8.708
   48POPC   C2B 3704  18.178   8.442   8.282
   48POPC   C3B 3705  17.932   8.349   7.957
   48POPC   C4B 3706  18.077   8.422   7.550
   49POPC   NC3 3707   7.677  42.092   9.514
   49POPC   PO4 3708   7.294  42.575   9.508
   49POPC   GL1 3709   7.321  42.297   9.159
   49POPC   GL2 3710   7.693  42.306   9.066
   49POPC   C1A 3711   7.342  42.493   8.766
   49POPC   D2A 3712   7.310  42.663   8.373
   49POPC   C3A 3713   7.217  42.492   8.023
   49POPC   C4A 3714   7.349  42.281   7.670
   49POPC   C1B 3715   7.915  42.067   8.777
   49POPC   C2B 3716   7.858  41.851   8.454
   49POPC   C3B 3717   7.728  41.913   8.089
   49POPC   C4B 3718   7.823  42.113   7.763
   50POPC   NC3 3719  18.010   0.584   9.630
   50POPC   PO4 3720  18.484   0.122   9.598
   50POPC   GL1 3721  18.147   0.234   9.243
   50POPC   GL2 3722  18.061   0.606   9.134
   50POPC   C1A 3723  18.218   0.207   8.783
   50POPC   D2A 3724  18.382   0.125   8.356
   50POPC   C3A 3725  18.247   0.368   7.982
   50POPC   C4A 3726  18.030   0.573   7.627
   50POPC   C1B 3727  18.209   0.701   8.740
   50POPC   C2B 3728  18.456   0.632   8.424
   50POPC   C3B 3729  18.620   0.891   8.145
   50POPC   C4B 3730  18.500   0.767   7.765
   51POPC   NC3 3731  35.871   0.188   9.339
   51POPC   PO4 3732  36.398   0.569   9.484
   51POPC   GL1 3733  36.205   0.513   9.120
   51POPC   GL2 3734  36.338   0.167   9.113
   51POPC   C1A 3735  35.921   0.659   8.805
   51POPC   D2A 3736  35.811   0.496   8.401
   51POPC   C3A 3737  36.071   0.726   8.132
   51POPC   C4A 3738  36.233   0.815   7.741
   51POPC   C1B 3739  36.119   0.172   8.717
   51POPC   C2B 3740  36.229   0.236   8.299
   51POPC   C3B 3741  35.991   0.287   7.922
   51POPC   C4B 3742  35.798   0.565   7.664
   52POPC   NC3 3743   1.194  28.156   9.483
   52POPC   PO4 3744   1.125  28.773   9.602
   52POPC   GL1 3745   1.261  28.563   9.218
   52POPC   GL2 3746   0.964  28.449   9.084
   52POPC   C1A 3747   1.498  28.394   8.846
   52POPC   D2A 3748   1.428  28.244   8.437
   52POPC   C3A 3749   1.473  28.511   8.073
   52POPC   C4A 3750   1.495  28.321   7.663
   52POPC   C1B 3751   1.047  28.093   8.812
   52POPC   C2B 3752   0.972  27.971   8.382
   52POPC   C3B 3753   1.085  28.167   7.993
   52POPC   C4B 3754   1.064  28.082   7.540
   53POPC   NC3 3755  33.573  32.478   9.551
   53POPC   PO4 3756  34.153  32.686   9.618
   53POPC   GL1 3757  34.102  32.774   9.164
   53POPC   GL2 3758  33.760  32.904   9.102
   53POPC   C1A 3759  34.018  32.839   8.693
   53POPC   D2A 3760  33.837  32.549   8.469
   53POPC   C3A 3761  33.658  32.681   8.114
   53POPC   C4A 3762  33.818  32.777   7.731
   53POPC   C1B 3763  33.544  33.041   8.706
   53POPC   C2B 3764  33.552  33.146   8.272
   53POPC   C3B 3765  33.970  33.099   8.092
   53POPC   C4B 3766  34.175  33.401   7.763
   54POPC   NC3 3767  40.012  42.544   9.529
   54POPC   PO4 3768  39.992  43.273   9.578
   54POPC   GL1 3769  39.966  42.988   9.251
   54POPC   GL2 3770  39.794  43.237   9.071
   54POPC   C1A 3771  40.170  42.896   8.854
   54POPC   D2A 3772  40.052  42.995   8.436
   54POPC   C3A 3773  40.304  42.909   8.066
   54POPC   C4A 3774  40.095  42.982   7.689
   54POPC   C1B 3775  39.649  43.335   8.651
   54POPC   C2B 3776  39.699  43.306   8.191
   54POPC   C3B 3777  39.736  43.360   7.740
   54POPC   C4B 3778  39.598  43.516   7.329
   55POPC   NC3 3779  18.039   8.503   9.438
   55POPC   PO4 3780  17.853   9.075   9.812
   55POPC   GL1 3781  18.136   9.018   9.317
   55POPC   GL2 3782  18.025   8.789   9.036
   55POPC   C1A 3783  18.407   9.045   8.871
   55POPC   D2A 3784  18.538   8.781   8.488
   55POPC   C3A 3785  18.495   8.882   8.028
   55POPC   C4A 3786  18.450   9.019   7.609
   55POPC   C1B 3787  17.929   8.917   8.672
   55POPC   C2B 3788  18.085   8.950   8.303
   55POPC   C3B 3789  17.967   8.852   7.923
   55POPC   C4B 3790  17.927   8.905   7.509
   56POPC   NC3 3791  38.245   3.206   9.429
   56POPC   PO4 3792  38.616   2.684   9.672
   56POPC   GL1 3793  38.572   2.766   9.237
   56POPC   GL2 3794  38.208   2.763   9.149
   56POPC   C1A 3795  38.559   2.526   8.838
   56POPC   D2A 3796  38.323   2.477   8.467
   56POPC   C3A 3797  38.305   2.633   8.057
   56POPC   C4A 3798  38.584   2.558   7.727
   56POPC   C1B 3799  38.351   3.016   8.793
   56POPC   C2B 3800  38.303   3.123   8.373
   56POPC   C3B 3801  38.521   3.094   7.990
   56POPC   C4B 3802  38.201   3.053   7.686
   57POPC   NC3 3803   0.674  39.515   9.381
   57POPC   PO4 3804   0.593  40.110   9.523
   57POPC   GL1 3805   0.417  40.024   9.141
   57POPC   GL2 3806   0.200  39.718   9.189
   57POPC   C1A 3807   0.365  40.303   8.800
   57POPC   D2A 3808   0.415  40.149   8.423
   57POPC   C3A 3809   0.183  40.259   8.081
   57POPC   C4A 3810   0.385  40.246   7.700
   57POPC   C1B 3811   0.107  39.798   8.738
   57POPC   C2B 3812   0.156  39.750   8.270
   57POPC   C3B 3813   0.190  39.778   7.819
   57POPC   C4B 3814  44.918  39.712   7.426
   58POPC   NC3 3815  41.302  41.698   9.516
   58POPC   PO4 3816  41.814  41.284   9.476
   58POPC   GL1 3817  41.610  41.532   9.155
   58POPC   GL2 3818  41.499  41.280   8.997
   58POPC   C1A 3819  41.534  41.778   8.750
   58POPC   D2A 3820  41.533  41.567   8.342
   58POPC   C3A 3821  41.607  41.593   7.903
   58POPC   C4A 3822  41.330  41.808   7.621
   58POPC   C1B 3823  41.183  41.084   8.765
   58POPC   C2B 3824  41.085  41.030   8.347
   58POPC   C3B 3825  41.197  41.293   8.033
   58POPC   C4B 3826  41.244  41.312   7.637
   59POPC   NC3 3827  13.086  42.167   9.480
   59POPC   PO4 3828  12.614  42.558   9.662
   59POPC   GL1 3829  12.719  42.424   9.221
   59POPC   GL2 3830  12.695  42.036   9.194
   59POPC   C1A 3831  12.997  42.320   8.842
   59POPC   D2A 3832  13.180  42.448   8.462
   59POPC   C3A 3833  12.954  42.630   8.108
   59POPC   C4A 3834  12.869  42.412   7.708
   59POPC   C1B 3835  12.665  41.945   8.777
   59POPC   C2B 3836  12.849  41.998   8.383
   59POPC   C3B 3837  12.687  41.816   8.002
   59POPC   C4B 3838  12.548  42.000   7.640
   60POPC   NC3 3839   5.368  23.288   9.451
   60POPC   PO4 3840   5.220  22.634   9.638
   60POPC   GL1 3841   5.147  22.831   9.199
   60POPC   GL2 3842   4.898  23.103   9.250
   60POPC   C1A 3843   5.295  22.903   8.710
   60POPC   D2A 3844   5.141  22.756   8.268
   60POPC   C3A 3845   5.284  22.938   7.863
   60POPC   C4A 3846   5.279  23.357   7.671
   60POPC   C1B 3847   4.808  22.928   8.838
   60POPC   C2B 3848   4.730  23.093   8.428
   60POPC   C3B 3849   4.904  23.246   8.049
   60POPC   C4B 3850   4.789  23.408   7.656
   61POPC   NC3 3851  22.148  42.709   9.559
   61POPC   PO4 3852  21.851  42.090   9.488
   61POPC   GL1 3853  22.017  42.242   9.096
   61POPC   GL2 3854  22.087  42.600   9.068
   61POPC   C1A 3855  22.097  42.035   8.713
   61POPC   D2A 3856  22.195  42.077   8.287
   61POPC   C3A 3857  21.879  42.101   7.991
   61POPC   C4A 3858  21.806  42.222   7.562
   61POPC   C1B 3859  22.391  42.495   8.751
   61POPC   C2B 3860  22.328  42.596   8.335
   61POPC   C3B 3861  22.241  42.466   7.923
   61POPC   C4B 3862  22.403  42.075   7.822
   62POPC   NC3 3863   8.341  11.920   9.902
   62POPC   PO4 3864   7.957  12.279   9.468
   62POPC   GL1 3865   8.168  12.077   9.144
   62POPC   GL2 3866   8.486  12.026   9.227
   62POPC   C1A 3867   8.103  11.940   8.727
   62POPC   D2A 3868   8.023  11.745   8.338
   62POPC   C3A 3869   8.162  11.977   7.974
   62POPC   C4A 3870   8.178  12.106   7.528
   62POPC   C1B 3871   8.612  11.946   8.780
   62POPC   C2B 3872   8.533  11.817   8.316
   62POPC   C3B 3873   8.623  11.693   7.884
   62POPC   C4B 3874   8.611  11.718   7.399
   63POPC   NC3 3875   7.445  24.328   9.306
   63POPC   PO4 3876   8.135  24.392   9.410
   63POPC   GL1 3877   7.909  24.521   9.045
   63POPC   GL2 3878   7.851  24.918   8.978
   63POPC   C1A 3879   8.072  24.302   8.673
   63POPC   D2A 3880   8.242  24.143   8.298
   63POPC   C3A 3881   8.008  24.278   7.955
   63POPC   C4A 3882   8.292  24.554   7.752
   63POPC   C1B 3883   7.823  24.728   8.603
   63POPC   C2B 3884   8.059  24.729   8.247
   63POPC   C3B 3885   7.876  24.792   7.861
   63POPC   C4B 3886   7.838  24.503   7.516
   64POPC   NC3 3887  20.656  20.946   9.595
   64POPC   PO4 3888  20.558  21.578   9.589
   64POPC   GL1 3889  20.625  21.438   9.205
   64POPC   GL2 3890  20.940  21.518   9.128
   64POPC   C1A 3891  20.621  21.498   8.755
   64POPC   D2A 3892  20.612  21.229   8.426
   64POPC   C3A 3893  20.684  21.393   8.049
   64POPC   C4A 3894  20.538  21.532   7.685
   64POPC   C1B 3895  21.058  21.249   8.722
   64POPC   C2B 3896  21.079  21.106   8.268
   64POPC   C3B 3897  21.014  21.093   7.799
   64POPC   C4B 3898  20.860  21.200   7.347
   65POPC   NC3 3899   7.583  23.382   9.601
   65POPC   PO4 3900   7.226  24.061   9.624
   65POPC   GL1 3901   7.325  23.841   9.207
   65POPC   GL2 3902   7.404  23.485   9.109
   65POPC   C1A 3903   7.292  23.870   8.753
   65POPC   D2A 3904   7.091  24.064   8.395
   65POPC   C3A 3905   7.362  24.112   8.030
   65POPC   C4A 3906   7.510  24.091   7.599
   65POPC   C1B 3907   7.730  23.653   8.788
   65POPC   C2B 3908   7.600  23.767   8.335
   65POPC   C3B 3909   7.452  23.631   7.904
   65POPC   C4B 3910   7.396  23.552   7.446
   66POPC   NC3 3911  26.248   5.375   9.645
   66POPC   PO4 3912  26.551   4.781   9.543
   66POPC   GL1 3913  26.257   4.919   9.149
   66POPC   GL2 3914  26.324   5.108   8.906
   66POPC   C1A 3915  25.865   4.967   8.803
   66POPC   D2A 3916  25.835   5.217   8.424
   66POPC   C3A 3917  25.929   5.045   8.002
   66POPC   C4A 3918  25.711   4.746   7.754
   66POPC   C1B 3919  26.338   5.271   8.524
   66POPC   C2B 3920  26.556   5.271   8.193
   66POPC   C3B 3921  26.449   5.081   7.855
   66POPC   C4B 3922  26.376   5.255   7.476
   67POPC   NC3 3923  27.046   5.522   9.425
   67POPC   PO4 3924  26.918   6.188   9.421
   67POPC   GL1 3925  26.911   5.934   9.100
   67POPC   GL2 3926  26.639   5.777   9.241
   67POPC   C1A 3927  26.797   6.051   8.680
   67POPC   D2A 3928  26.472   5.911   8.354
   67POPC   C3A 3929  26.621   6.101   8.009
   67POPC   C4A 3930  27.045   6.111   7.873
   67POPC   C1B 3931  26.535   5.644   8.820
   67POPC   C2B 3932  26.845   5.583   8.470
   67POPC   C3B 3933  26.883   5.651   8.050
   67POPC   C4B 3934  26.831   5.400   7.690
   68POPC   NC3 3935  31.810  33.775   9.361
   68POPC   PO4 3936  31.144  33.971   9.488
   68POPC   GL1 3937  31.324  33.688   9.169
   68POPC   GL2 3938  31.541  33.909   8.955
   68POPC   C1A 3939  31.324  33.500   8.738
   68POPC   D2A 3940  31.417  33.743   8.346
   68POPC   C3A 3941  31.623  33.647   7.956
   68POPC   C4A 3942  31.487  33.621   7.531
   68POPC   C1B 3943  31.612  34.211   8.633
   68POPC   C2B 3944  31.629  34.191   8.180
   68POPC   C3B 3945  31.686  34.134   7.723
   68POPC   C4B 3946  31.779  34.174   7.264
   69POPC   NC3 3947  31.677  24.967   9.357
   69POPC   PO4 3948  31.381  24.281   9.527
   69POPC   GL1 3949  31.260  24.304   9.109
   69POPC   GL2 3950  31.279  24.665   9.035
   69POPC   C1A 3951  31.134  24.341   8.648
   69POPC   D2A 3952  31.148  24.685   8.324
   69POPC   C3A 3953  31.238  24.660   7.861
   69POPC   C4A 3954  31.290  24.328   7.526
   69POPC   C1B 3955  31.626  24.436   8.797
   69POPC   C2B 3956  31.605  24.296   8.370
   69POPC   C3B 3957  31.645  24.378   7.942
   69POPC   C4B 3958  31.837  24.242   7.586
   70POPC   NC3 3959  42.573   5.723   9.592
   70POPC   PO4 3960  42.006   5.478   9.444
   70POPC   GL1 3961  42.326   5.681   9.136
   70POPC   GL2 3962  42.506   6.016   9.175
   70POPC   C1A 3963  42.512   5.624   8.732
   70POPC   D2A 3964  42.353   5.506   8.315
   70POPC   C3A 3965  42.262   5.882   8.089
   70POPC   C4A 3966  42.098   5.889   7.683
   70POPC   C1B 3967  42.705   6.084   8.793
   70POPC   C2B 3968  42.585   6.228   8.358
   70POPC   C3B 3969  42.687   6.199   7.905
   70POPC   C4B 3970  42.531   6.084   7.465
   71POPC   NC3 3971  39.265  22.675   9.492
   71POPC   PO4 3972  38.725  23.013   9.461
   71POPC   GL1 3973  39.100  23.075   9.136
   71POPC   GL2 3974  39.451  22.890   9.053
   71POPC   C1A 3975  39.139  23.015   8.670
   71POPC   D2A 3976  39.028  22.773   8.273
   71POPC   C3A 3977  39.173  23.047   7.934
   71POPC   C4A 3978  39.386  23.192   7.529
   71POPC   C1B 3979  39.626  23.208   8.723
   71POPC   C2B 3980  39.630  23.308   8.263
   71POPC   C3B 3981  39.677  23.013   7.914
   71POPC   C4B 3982  39.479  22.607   7.825
   72POPC   NC3 3983  27.476  16.154   9.546
   72POPC   PO4 3984  27.914  15.734   9.436
   72POPC   GL1 3985  27.602  15.847   9.159
   72POPC   GL2 3986  27.373  15.577   9.125
   72POPC   C1A 3987  27.468  16.205   8.883
   72POPC   D2A 3988  27.201  16.156   8.534
   72POPC   C3A 3989  27.444  15.947   8.245
   72POPC   C4A 3990  27.560  16.249   7.975
   72POPC   C1B 3991  27.393  15.697   8.714
   72POPC   C2B 3992  27.415  15.434   8.380
   72POPC   C3B 3993  27.640  15.486   8.055
   72POPC   C4B 3994  27.597  15.773   7.762
   73POPC   NC3 3995   5.127  30.229   9.548
   73POPC   PO4 3996   5.089  29.607   9.435
   73POPC   GL1 3997   5.088  29.926   9.129
   73POPC   GL2 3998   5.442  30.071   9.175
   73POPC   C1A 3999   4.795  30.012   8.765
   73POPC   D2A 4000   4.769  29.849   8.323
   73POPC   C3A 4001   4.959  30.059   7.935
   73POPC   C4A 4002   5.249  29.855   7.659
   73POPC   C1B 4003   5.297  30.185   8.755
   73POPC   C2B 4004   5.459  30.331   8.394
   73POPC   C3B 4005   5.466  30.140   8.031
   73POPC   C4B 4006   5.482  30.284   7.617
   74POPC   NC3 4007   4.507  35.144   9.602
   74POPC   PO4 4008   3.929  35.130   9.335
   74POPC   GL1 4009   4.365  35.179   9.076
   74POPC   GL2 4010   4.571  35.467   9.126
   74POPC   C1A 4011   4.646  35.110   8.698
   74POPC   D2A 4012   4.637  35.046   8.254
   74POPC   C3A 4013   4.334  35.175   7.908
   74POPC   C4A 4014   4.468  35.288   7.493
   74POPC   C1B 4015   4.439  35.604   8.685
   74POPC   C2B 4016   4.351  35.619   8.190
   74POPC   C3B 4017   4.454  35.784   7.753
   74POPC   C4B 4018   4.624  35.749   7.315
   75POPC   NC3 4019  27.707  22.999   9.418
   75POPC   PO4 4020  27.194  22.453   9.358
   75POPC   GL1 4021  27.515  22.715   9.051
   75POPC   GL2 4022  27.452  23.092   8.987
   75POPC   C1A 4023  27.584  22.849   8.591
   75POPC   D2A 4024  27.412  23.227   8.418
   75POPC   C3A 4025  27.492  23.056   8.037
   75POPC   C4A 4026  27.590  22.710   7.744
   75POPC   C1B 4027  27.815  23.274   8.764
   75POPC   C2B 4028  27.944  23.178   8.328
   75POPC   C3B 4029  27.901  23.347   7.904
   75POPC   C4B 4030  27.635  23.208   7.583
   76POPC   NC3 4031   0.758  24.826   9.353
   76POPC   PO4 4032   1.336  24.531   9.396
   76POPC   GL1 4033   1.298  24.322   9.023
   76POPC   GL2 4034   1.141  24.599   8.884
   76POPC   C1A 4035   0.988  24.124   8.758
   76POPC   D2A 4036   1.066  24.288   8.352
   76POPC   C3A 4037   1.320  24.098   8.041
   76POPC   C4A 4038   1.070  24.053   7.722
   76POPC   C1B 4039   1.529  24.745   8.764
   76POPC   C2B 4040   1.602  24.881   8.353
   76POPC   C3B 4041   1.295  24.726   8.125
   76POPC   C4B 4042   1.273  24.512   7.727
   77POPC   NC3 4043  12.593  39.774   9.344
   77POPC   PO4 4044  13.164  40.202   9.462
   77POPC   GL1 4045  12.923  40.111   9.137
   77POPC   GL2 4046  12.612  40.299   9.175
   77POPC   C1A 4047  12.818  39.968   8.737
   77POPC   D2A 4048  12.875  39.760   8.352
   77POPC   C3A 4049  12.825  39.986   7.984
   77POPC   C4A 4050  13.025  39.998   7.619
   77POPC   C1B 4051  12.416  40.276   8.764
   77POPC   C2B 4052  12.594  40.242   8.363
   77POPC   C3B 4053  12.395  40.286   7.993
   77POPC   C4B 4054  12.468  40.115   7.621
   78POPC   NC3 4055  33.785  34.787   9.662
   78POPC   PO4 4056  33.917  34.117   9.788
   78POPC   GL1 4057  33.914  34.389   9.312
   78POPC   GL2 4058  33.900  34.765   9.184
   78POPC   C1A 4059  34.047  34.456   8.830
   78POPC   D2A 4060  33.826  34.428   8.415
   78POPC   C3A 4061  33.918  34.583   7.992
   78POPC   C4A 4062  33.981  34.341   7.595
   78POPC   C1B 4063  33.667  34.950   8.863
   78POPC   C2B 4064  33.739  34.920   8.431
   78POPC   C3B 4065  33.519  34.882   8.064
   78POPC   C4B 4066  33.570  34.698   7.646
   79POPC   NC3 4067   3.105  22.952   9.512
   79POPC   PO4 4068   2.524  23.317   9.550
   79POPC   GL1 4069   2.614  23.003   9.214
   79POPC   GL2 4070   2.938  23.007   9.043
   79POPC   C1A 4071   2.491  23.012   8.794
   79POPC   D2A 4072   2.662  22.912   8.418
   79POPC   C3A 4073   2.511  23.103   8.040
   79POPC   C4A 4074   2.426  22.829   7.710
   79POPC   C1B 4075   2.924  23.290   8.691
   79POPC   C2B 4076   3.057  23.191   8.258
   79POPC   C3B 4077   2.942  22.863   8.002
   79POPC   C4B 4078   2.903  23.043   7.652
   80POPC   NC3 4079   4.317  33.507   9.518
   80POPC   PO4 4080   4.440  32.818   9.365
   80POPC   GL1 4081   4.294  33.133   9.124
   80POPC   GL2 4082   4.622  33.320   9.150
   80POPC   C1A 4083   4.086  33.041   8.715
   80POPC   D2A 4084   4.064  32.849   8.269
   80POPC   C3A 4085   4.253  33.065   7.888
   80POPC   C4A 4086   4.211  32.999   7.435
   80POPC   C1B 4087   4.515  33.356   8.719
   80POPC   C2B 4088   4.542  33.110   8.330
   80POPC   C3B 4089   4.771  33.059   7.942
   80POPC   C4B 4090   4.673  33.175   7.522
   81POPC   NC3 4091   2.317  23.900   9.460
   81POPC   PO4 4092   1.799  24.213   9.718
   81POPC   GL1 4093   1.940  24.062   9.178
   81POPC   GL2 4094   2.234  24.101   8.986
   81POPC   C1A 4095   1.938  23.754   8.757
   81POPC   D2A 4096   2.095  23.588   8.317
   81POPC   C3A 4097   2.142  23.542   7.829
   81POPC   C4A 4098   1.849  23.480   7.452
   81POPC   C1B 4099   2.358  23.992   8.592
   81POPC   C2B 4100   2.075  24.146   8.343
   81POPC   C3B 4101   1.951  24.024   7.983
   81POPC   C4B 4102   2.138  24.029   7.612
   82POPC   NC3 4103   9.197  14.562   9.680
   82POPC   PO4 4104   8.617  14.397   9.531
   82POPC   GL1 4105   8.973  14.400   9.234
   82POPC   GL2 4106   9.102  14.705   9.149
   82POPC   C1A 4107   8.964  14.311   8.794
   82POPC   D2A 4108   9.227  14.283   8.459
   82POPC   C3A 4109   9.087  14.167   8.094
   82POPC   C4A 4110   9.000  14.337   7.733
   82POPC   C1B 4111   8.821  14.800   8.772
   82POPC   C2B 4112   8.963  14.708   8.341
   82POPC   C3B 4113   9.294  14.658   8.034
   82POPC   C4B 4114   9.076  14.894   7.724
   83POPC   NC3 4115  35.340  20.600   9.473
   83POPC   PO4 4116  35.743  20.048   9.482
   83POPC   GL1 4117  35.576  20.395   9.088
   83POPC   GL2 4118  35.649  20.798   9.133
   83POPC   C1A 4119  35.211  20.659   8.800
   83POPC   D2A 4120  34.986  20.766   8.350
   83POPC   C3A 4121  35.262  20.659   7.957
   83POPC   C4A 4122  35.613  20.342   7.934
   83POPC   C1B 4123  35.577  21.027   8.776
   83POPC   C2B 4124  35.520  20.832   8.392
   83POPC   C3B 4125  35.743  20.882   8.031
   83POPC   C4B 4126  35.640  21.010   7.627
   84POPC   NC3 4127  13.485  21.668   9.463
   84POPC   PO4 4128  14.017  21.252   9.513
   84POPC   GL1 4129  13.685  21.283   9.178
   84POPC   GL2 4130  13.334  21.225   9.237
   84POPC   C1A 4131  13.472  21.466   8.790
   84POPC   D2A 4132  13.663  21.580   8.401
   84POPC   C3A 4133  13.831  21.315   8.114
   84POPC   C4A 4134  13.751  21.505   7.720
   84POPC   C1B 4135  13.248  21.014   8.821
   84POPC   C2B 4136  13.330  21.104   8.395
   84POPC   C3B 4137  13.310  21.366   8.064
   84POPC   C4B 4138  13.427  21.122   7.734
   85POPC   NC3 4139   8.005  11.042   9.562
   85POPC   PO4 4140   8.254  11.675   9.529
   85POPC   GL1 4141   8.314  11.543   9.114
   85POPC   GL2 4142   8.159  11.219   9.101
   85POPC   C1A 4143   8.359  11.490   8.666
   85POPC   D2A 4144   8.218  11.246   8.297
   85POPC   C3A 4145   8.252  11.260   7.841
   85POPC   C4A 4146   8.182  11.609   7.645
   85POPC   C1B 4147   7.878  11.449   8.805
   85POPC   C2B 4148   7.727  11.331   8.415
   85POPC   C3B 4149   7.796  11.440   7.996
   85POPC   C4B 4150   7.776  11.318   7.578
   86POPC   NC3 4151  13.385  39.789   9.443
   86POPC   PO4 4152  13.830  40.359   9.373
   86POPC   GL1 4153  13.645  40.096   9.130
   86POPC   GL2 4154  13.891  39.809   9.205
   86POPC   C1A 4155  13.316  40.063   8.786
   86POPC   D2A 4156  13.119  40.196   8.382
   86POPC   C3A 4157  13.327  40.089   8.023
   86POPC   C4A 4158  13.674  40.336   7.979
   86POPC   C1B 4159  13.702  39.734   8.804
   86POPC   C2B 4160  13.529  39.690   8.391
   86POPC   C3B 4161  13.742  39.797   8.038
   86POPC   C4B 4162  13.731  39.972   7.645
   87POPC   NC3 4163  10.373  42.342   9.788
   87POPC   PO4 4164   9.790  42.137   9.506
   87POPC   GL1 4165   9.875  42.369   9.131
   87POPC   GL2 4166   9.913  42.039   9.013
   87POPC   C1A 4167   9.908  42.561   8.717
   87POPC   D2A 4168   9.991  42.515   8.277
   87POPC   C3A 4169   9.672  42.658   7.973
   87POPC   C4A 4170   9.668  42.550   7.529
   87POPC   C1B 4171   9.643  42.134   8.634
   87POPC   C2B 4172   9.569  42.191   8.173
   87POPC   C3B 4173   9.899  42.213   7.867
   87POPC   C4B 4174  10.063  42.187   7.496
   88POPC   NC3 4175   8.779  31.968   9.623
   88POPC   PO4 4176   9.429  32.011   9.406
   88POPC   GL1 4177   9.190  32.264   9.159
   88POPC   GL2 4178   8.972  32.470   9.370
   88POPC   C1A 4179   8.912  32.051   8.866
   88POPC   D2A 4180   8.904  31.925   8.435
   88POPC   C3A 4181   9.153  32.133   8.125
   88POPC   C4A 4182   8.941  31.975   7.787
   88POPC   C1B 4183   8.716  32.508   8.974
   88POPC   C2B 4184   8.770  32.434   8.514
   88POPC   C3B 4185   8.647  32.290   8.091
   88POPC   C4B 4186   8.676  32.403   7.636
   89POPC   NC3 4187  38.210  36.416   9.326
   89POPC   PO4 4188  38.678  35.978   9.471
   89POPC   GL1 4189  38.396  35.987   9.084
   89POPC   GL2 4190  38.050  35.918   9.115
   89POPC   C1A 4191  38.359  36.088   8.629
   89POPC   D2A 4192  38.523  35.808   8.302
   89POPC   C3A 4193  38.626  35.970   7.915
   89POPC   C4A 4194  38.695  36.371   7.745
   89POPC   C1B 4195  37.896  36.254   8.810
   89POPC   C2B 4196  37.985  36.378   8.400
   89POPC   C3B 4197  38.137  36.113   8.120
   89POPC   C4B 4198  38.203  36.186   7.726
   90POPC   NC3 4199  21.917  36.547   9.477
   90POPC   PO4 4200  21.705  35.986   9.440
   90POPC   GL1 4201  21.494  36.229   9.099
   90POPC   GL2 4202  21.681  36.552   9.017
   90POPC   C1A 4203  21.336  36.013   8.697
   90POPC   D2A 4204  21.524  35.971   8.303
   90POPC   C3A 4205  21.172  35.859   8.014
   90POPC   C4A 4206  21.478  35.793   7.746
   90POPC   C1B 4207  21.463  36.495   8.607
   90POPC   C2B 4208  21.188  36.341   8.266
   90POPC   C3B 4209  21.340  36.293   7.824
   90POPC   C4B 4210  21.279  36.385   7.404
   91POPC   NC3 4211  23.376  44.916   9.408
   91POPC   PO4 4212  22.770   0.078   9.282
   91POPC   GL1 4213  23.104   0.257   9.092
   91POPC   GL2 4214  23.125   0.570   9.273
   91POPC   C1A 4215  23.050   0.314   8.669
   91POPC   D2A 4216  22.733   0.267   8.374
   91POPC   C3A 4217  22.932   0.272   7.974
   91POPC   C4A 4218  23.132   0.511   7.658
   91POPC   C1B 4219  22.826   0.712   8.937
   91POPC   C2B 4220  22.849   0.783   8.498
   91POPC   C3B 4221  22.698   0.704   8.090
   91POPC   C4B 4222  22.596   0.562   7.696
   92POPC   NC3 4223   1.763  13.410   9.318
   92POPC   PO4 4224   1.252  13.872   9.369
   92POPC   GL1 4225   1.067  13.709   9.032
   92POPC   GL2 4226   1.350  13.511   8.971
   92POPC   C1A 4227   1.070  13.889   8.663
   92POPC   D2A 4228   1.358  13.703   8.419
   92POPC   C3A 4229   1.195  13.746   8.035
   92POPC   C4A 4230   1.262  14.116   7.815
   92POPC   C1B 4231   1.422  13.241   8.619
   92POPC   C2B 4232   1.394  13.268   8.149
   92POPC   C3B 4233   1.565  13.494   7.785
   92POPC   C4B 4234   1.567  13.377   7.334
   93POPC   NC3 4235  29.653  25.618   9.422
   93POPC   PO4 4236  29.628  26.302   9.650
   93POPC   GL1 4237  29.878  26.246   9.249
   93POPC   GL2 4238  29.872  25.910   9.075
   93POPC   C1A 4239  30.012  26.303   8.805
   93POPC   D2A 4240  29.876  26.011   8.498
   93POPC   C3A 4241  29.764  26.175   8.091
   93POPC   C4A 4242  29.941  26.398   7.734
   93POPC   C1B 4243  29.572  25.702   8.782
   93POPC   C2B 4244  29.691  25.560   8.352
   93POPC   C3B 4245  29.833  25.704   7.919
   93POPC   C4B 4246  29.700  25.971   7.542
   94POPC   NC3 4247   5.393  33.542   9.436
   94POPC   PO4 4248   4.717  33.854   9.544
   94POPC   GL1 4249   4.972  33.745   9.198
   94POPC   GL2 4250   5.228  34.000   9.207
   94POPC   C1A 4251   5.150  33.749   8.774
   94POPC   D2A 4252   5.421  33.576   8.480
   94POPC   C3A 4253   5.412  33.837   8.120
   94POPC   C4A 4254   5.194  33.822   7.745
   94POPC   C1B 4255   4.882  34.153   8.905
   94POPC   C2B 4256   4.788  34.021   8.485
   94POPC   C3B 4257   4.889  34.081   8.053
   94POPC   C4B 4258   4.763  34.046   7.619
   95POPC   NC3 4259  14.760  27.658   9.495
   95POPC   PO4 4260  15.360  27.849   9.737
   95POPC   GL1 4261  15.274  27.628   9.324
   95POPC   GL2 4262  15.014  27.423   9.129
   95POPC   C1A 4263  15.455  27.593   8.918
   95POPC   D2A 4264  15.460  27.776   8.481
   95POPC   C3A 4265  15.364  27.615   8.075
   95POPC   C4A 4266  15.388  27.699   7.650
   95POPC   C1B 4267  15.000  27.724   8.754
   95POPC   C2B 4268  14.945  27.869   8.337
   95POPC   C3B 4269  14.974  27.899   7.919
   95POPC   C4B 4270  14.922  27.512   7.707
   96POPC   NC3 4271  21.072  33.124   9.456
   96POPC   PO4 4272  21.777  32.951   9.512
   96POPC   GL1 4273  21.476  32.862   9.186
   96POPC   GL2 4274  21.696  32.641   9.062
   96POPC   C1A 4275  21.275  32.734   8.796
   96POPC   D2A 4276  21.152  33.046   8.499
   96POPC   C3A 4277  21.303  33.012   8.095
   96POPC   C4A 4278  21.128  32.960   7.707
   96POPC   C1B 4279  21.834  32.512   8.678
   96POPC   C2B 4280  21.873  32.706   8.287
   96POPC   C3B 4281  21.668  32.727   7.872
   96POPC   C4B 4282  21.497  32.748   7.429
   97POPC   NC3 4283  13.306  31.335   9.549
   97POPC   PO4 4284  13.985  31.273   9.639
   97POPC   GL1 4285  13.735  31.591   9.302
   97POPC   GL2 4286  13.409  31.478   9.079
   97POPC   C1A 4287  13.727  31.753   8.835
   97POPC   D2A 4288  13.489  31.559   8.478
   97POPC   C3A 4289  13.713  31.396   8.135
   97POPC   C4A 4290  13.766  31.178   7.767
   97POPC   C1B 4291  13.128  31.743   8.796
   97POPC   C2B 4292  13.033  31.849   8.354
   97POPC   C3B 4293  13.200  31.587   8.027
   97POPC   C4B 4294  13.491  31.628   7.697
   98POPC   NC3 4295   9.616  31.721   9.726
   98POPC   PO4 4296   9.959  32.248   9.503
   98POPC   GL1 4297   9.733  32.203   9.074
   98POPC   GL2 4298   9.649  32.521   8.960
   98POPC   C1A 4299   9.645  32.128   8.631
   98POPC   D2A 4300   9.918  32.218   8.293
   98POPC   C3A 4301   9.830  32.069   7.890
   98POPC   C4A 4302   9.455  31.958   7.692
   98POPC   C1B 4303   9.720  32.646   8.518
   98POPC   C2B 4304   9.490  32.538   8.197
   98POPC   C3B 4305   9.465  32.463   7.802
   98POPC   C4B 4306   9.811  32.471   7.542
   99POPC   NC3 4307  16.406  19.084   9.963
   99POPC   PO4 4308  16.028  18.867   9.390
   99POPC   GL1 4309  16.102  19.068   9.039
   99POPC   GL2 4310  16.248  18.802   8.855
   99POPC   C1A 4311  16.165  19.247   8.639
   99POPC   D2A 4312  16.124  19.082   8.249
   99POPC   C3A 4313  16.152  19.266   7.863
   99POPC   C4A 4314  15.848  19.447   7.601
   99POPC   C1B 4315  15.795  18.875   8.698
   99POPC   C2B 4316  15.602  19.087   8.352
   99POPC   C3B 4317  15.656  19.061   7.888
   99POPC   C4B 4318  15.696  18.815   7.478
  100POPC   NC3 4319   0.544  43.373   9.528
  100POPC   PO4 4320  44.950  43.170   9.372
  100POPC   GL1 4321   0.279  43.214   9.088
  100POPC   GL2 4322   0.541  42.981   9.168
  100POPC   C1A 4323   0.296  43.096   8.673
  100POPC   D2A 4324   0.540  43.245   8.340
  100POPC   C3A 4325   0.484  43.542   8.059
  100POPC   C4A 4326   0.173  43.314   7.855
  100POPC   C1B 4327   0.700  42.754   8.806
  100POPC   C2B 4328   0.627  42.738   8.373
  100POPC   C3B 4329   0.715  42.919   7.976
  100POPC   C4B 4330   0.723  42.662   7.596
  101POPC   NC3 4331  29.271   6.359   9.545
  101POPC   PO4 4332  29.175   7.041   9.457
  101POPC   GL1 4333  29.039   6.668   9.214
  101POPC   GL2 4334  29.345   6.548   9.080
  101POPC   C1A 4335  28.886   6.476   8.853
  101POPC   D2A 4336  28.696   6.637   8.507
  101POPC   C3A 4337  28.844   6.421   8.138
  101POPC   C4A 4338  28.707   6.584   7.744
  101POPC   C1B 4339  29.306   6.728   8.684
  101POPC   C2B 4340  29.488   6.711   8.287
  101POPC   C3B 4341  29.399   6.863   7.892
  101POPC   C4B 4342  29.313   6.658   7.494
  102POPC   NC3 4343  34.906  25.816   9.603
  102POPC   PO4 4344  34.291  26.219   9.453
  102POPC   GL1 4345  34.517  25.973   9.104
  102POPC   GL2 4346  34.741  25.680   9.154
  102POPC   C1A 4347  34.657  26.004   8.662
  102POPC   D2A 4348  34.844  26.174   8.259
  102POPC   C3A 4349  34.546  26.094   7.986
  102POPC   C4A 4350  34.249  26.404   7.970
  102POPC   C1B 4351  35.002  25.657   8.803
  102POPC   C2B 4352  34.946  25.683   8.355
  102POPC   C3B 4353  34.870  25.633   7.914
  102POPC   C4B 4354  34.653  25.839   7.566
  103POPC   NC3 4355   6.891  40.804   9.600
  103POPC   PO4 4356   6.370  40.406   9.704
  103POPC   GL1 4357   6.713  40.423   9.343
  103POPC   GL2 4358   6.580  40.795   9.214
  103POPC   C1A 4359   6.822  40.512   8.876
  103POPC   D2A 4360   6.452  40.527   8.575
  103POPC   C3A 4361   6.615  40.488   8.159
  103POPC   C4A 4362   6.677  40.716   7.787
  103POPC   C1B 4363   6.779  41.065   8.875
  103POPC   C2B 4364   6.739  41.300   8.474
  103POPC   C3B 4365   6.799  41.129   8.073
  103POPC   C4B 4366   7.121  40.994   7.804
  104POPC   NC3 4367  11.569  23.169   9.430
  104POPC   PO4 4368  11.371  22.548   9.281
  104POPC   GL1 4369  11.307  22.915   9.056
  104POPC   GL2 4370  11.103  23.191   9.189
  104POPC   C1A 4371  11.409  22.852   8.640
  104POPC   D2A 4372  11.728  22.874   8.340
  104POPC   C3A 4373  11.580  22.753   7.987
  104POPC   C4A 4374  11.186  22.845   7.818
  104POPC   C1B 4375  11.329  23.369   8.828
  104POPC   C2B 4376  11.442  23.297   8.411
  104POPC   C3B 4377  11.435  23.256   7.973
  104POPC   C4B 4378  11.683  23.479   7.687
  105POPC   NC3 4379  18.952   5.925   9.698
  105POPC   PO4 4380  18.337   5.846   9.453
  105POPC   GL1 4381  18.190   5.969   9.065
  105POPC   GL2 4382  18.485   6.050   8.959
  105POPC   C1A 4383  18.119   6.206   8.675
  105POPC   D2A 4384  18.361   6.223   8.320
  105POPC   C3A 4385  18.244   5.902   8.055
  105POPC   C4A 4386  18.189   5.869   7.618
  105POPC   C1B 4387  18.482   5.682   8.737
  105POPC   C2B 4388  18.619   5.667   8.328
  105POPC   C3B 4389  18.737   5.941   8.011
  105POPC   C4B 4390  18.670   5.737   7.610
  106POPC   NC3 4391  13.050  35.107   9.445
  106POPC   PO4 4392  13.375  34.522   9.412
  106POPC   GL1 4393  13.432  34.660   9.019
  106POPC   GL2 4394  13.297  35.004   9.016
  106POPC   C1A 4395  13.524  34.477   8.604
  106POPC   D2A 4396  13.700  34.611   8.206
  106POPC   C3A 4397  13.480  34.417   7.915
  106POPC   C4A 4398  13.591  34.175   7.549
  106POPC   C1B 4399  13.526  34.998   8.624
  106POPC   C2B 4400  13.564  35.141   8.203
  106POPC   C3B 4401  13.510  34.938   7.822
  106POPC   C4B 4402  13.855  34.662   7.682
  107POPC   NC3 4403  27.250   8.754   9.443
  107POPC   PO4 4404  27.762   9.076   9.432
  107POPC   GL1 4405  27.703   8.813   9.123
  107POPC   GL2 4406  27.954   8.604   9.200
  107POPC   C1A 4407  27.689   8.884   8.696
  107POPC   D2A 4408  27.691   9.106   8.320
  107POPC   C3A 4409  27.413   9.008   7.966
  107POPC   C4A 4410  27.601   9.147   7.563
  107POPC   C1B 4411  27.895   8.432   8.792
  107POPC   C2B 4412  27.923   8.526   8.357
  107POPC   C3B 4413  27.866   8.764   7.981
  107POPC   C4B 4414  27.588   8.634   7.665
  108POPC   NC3 4415   6.838  42.744   9.478
  108POPC   PO4 4416   6.393  42.177   9.472
  108POPC   GL1 4417   6.690  42.330   9.222
  108POPC   GL2 4418   6.431  42.550   9.136
  108POPC   C1A 4419   6.860  42.477   8.860
  108POPC   D2A 4420   6.921  42.314   8.473
  108POPC   C3A 4421   6.716  42.486   8.150
  108POPC   C4A 4422   6.828  42.390   7.722
  108POPC   C1B 4423   6.418  42.227   8.793
  108POPC   C2B 4424   6.328  42.215   8.365
  108POPC   C3B 4425   6.477  42.071   7.957
  108POPC   C4B 4426   6.389  41.811   7.604
  109POPC   NC3 4427  13.048  15.447   9.417
  109POPC   PO4 4428  12.424  15.289   9.560
  109POPC   GL1 4429  12.651  15.246   9.099
  109POPC   GL2 4430  12.998  15.135   9.004
  109POPC   C1A 4431  12.649  14.971   8.679
  109POPC   D2A 4432  12.870  14.858   8.258
  109POPC   C3A 4433  12.847  14.745   7.792
  109POPC   C4A 4434  12.785  14.904   7.344
  109POPC   C1B 4435  13.272  15.322   8.772
  109POPC   C2B 4436  13.226  15.493   8.381
  109POPC   C3B 4437  12.902  15.360   8.106
  109POPC   C4B 4438  12.954  15.226   7.727
  110POPC   NC3 4439  36.362  22.185   9.793
  110POPC   PO4 4440  36.864  22.031   9.356
  110POPC   GL1 4441  36.811  22.066   8.996
  110POPC   GL2 4442  36.580  22.332   9.018
  110POPC   C1A 4443  37.131  22.147   8.710
  110POPC   D2A 4444  37.146  22.006   8.315
  110POPC   C3A 4445  36.920  22.280   8.079
  110POPC   C4A 4446  36.851  22.340   7.668
  110POPC   C1B 4447  36.613  22.239   8.559
  110POPC   C2B 4448  36.633  21.871   8.294
  110POPC   C3B 4449  36.754  21.812   7.848
  110POPC   C4B 4450  36.640  21.733   7.360
  111POPC   NC3 4451  23.688  13.619   9.403
  111POPC   PO4 4452  24.049  14.033   9.715
  111POPC   GL1 4453  23.816  14.129   9.214
  111POPC   GL2 4454  23.679  13.810   8.959
  111POPC   C1A 4455  23.969  14.144   8.772
  111POPC   D2A 4456  24.013  13.736   8.547
  111POPC   C3A 4457  23.769  13.668   8.125
  111POPC   C4A 4458  23.911  13.780   7.698
  111POPC   C1B 4459  23.656  13.394   8.752
  111POPC   C2B 4460  23.665  13.198   8.342
  111POPC   C3B 4461  23.443  13.272   7.967
  111POPC   C4B 4462  23.502  13.408   7.559
  112POPC   NC3 4463  18.111   2.338   9.585
  112POPC   PO4 4464  18.418   1.770   9.564
  112POPC   GL1 4465  18.306   1.981   9.214
  112POPC   GL2 4466  17.966   2.040   9.155
  112POPC   C1A 4467  18.352   2.029   8.790
  112POPC   D2A 4468  18.636   2.077   8.458
  112POPC   C3A 4469  18.386   1.897   8.155
  112POPC   C4A 4470  18.341   1.743   7.767
  112POPC   C1B 4471  17.868   2.253   8.735
  112POPC   C2B 4472  17.890   2.038   8.350
  112POPC   C3B 4473  17.862   1.792   7.976
  112POPC   C4B 4474  17.907   1.914   7.557
  113POPC   NC3 4475  23.429  36.428   9.490
  113POPC   PO4 4476  23.957  35.950   9.487
  113POPC   GL1 4477  23.688  36.045   9.176
  113POPC   GL2 4478  23.522  35.743   9.064
  113POPC   C1A 4479  23.581  36.216   8.803
  113POPC   D2A 4480  23.341  36.243   8.472
  113POPC   C3A 4481  23.504  36.207   8.071
  113POPC   C4A 4482  23.685  36.526   7.818
  113POPC   C1B 4483  23.795  35.773   8.700
  113POPC   C2B 4484  23.965  36.098   8.445
  113POPC   C3B 4485  24.024  36.160   8.021
  113POPC   C4B 4486  23.862  35.828   7.791
  114POPC   NC3 4487  41.530  34.362   9.369
  114POPC   PO4 4488  41.627  33.657   9.535
  114POPC   GL1 4489  41.552  33.856   9.140
  114POPC   GL2 4490  41.813  33.710   8.938
  114POPC   C1A 4491  41.279  33.852   8.758
  114POPC   D2A 4492  41.033  33.758   8.379
  114POPC   C3A 4493  41.179  33.813   7.961
  114POPC   C4A 4494  41.383  33.920   7.599
  114POPC   C1B 4495  41.749  34.040   8.637
  114POPC   C2B 4496  41.479  34.066   8.302
  114POPC   C3B 4497  41.522  34.300   7.942
  114POPC   C4B 4498  41.634  34.392   7.544
  115POPC   NC3 4499  15.399   3.443   9.301
  115POPC   PO4 4500  14.885   3.805   9.505
  115POPC   GL1 4501  14.973   3.638   9.121
  115POPC   GL2 4502  14.960   3.252   9.104
  115POPC   C1A 4503  15.233   3.774   8.781
  115POPC   D2A 4504  15.253   3.939   8.396
  115POPC   C3A 4505  15.252   3.607   8.100
  115POPC   C4A 4506  15.104   3.587   7.702
  115POPC   C1B 4507  15.234   3.239   8.706
  115POPC   C2B 4508  15.403   3.141   8.289
  115POPC   C3B 4509  15.334   3.131   7.825
  115POPC   C4B 4510  15.587   3.143   7.431
  116POPC   NC3 4511  33.199  27.239   9.437
  116POPC   PO4 4512  32.730  27.740   9.565
  116POPC   GL1 4513  32.687  27.606   9.134
  116POPC   GL2 4514  32.880  27.328   9.067
  116POPC   C1A 4515  32.813  27.665   8.703
  116POPC   D2A 4516  33.183  27.901   8.578
  116POPC   C3A 4517  33.231  27.918   8.134
  116POPC   C4A 4518  32.964  27.697   7.870
  116POPC   C1B 4519  33.151  27.286   8.682
  116POPC   C2B 4520  33.221  27.348   8.226
  116POPC   C3B 4521  33.095  27.207   7.807
  116POPC   C4B 4522  33.126  27.453   7.438
  117POPC   NC3 4523   7.024  14.987   9.644
  117POPC   PO4 4524   7.528  15.432   9.452
  117POPC   GL1 4525   7.455  15.300   9.103
  117POPC   GL2 4526   7.266  15.024   9.143
  117POPC   C1A 4527   7.519  15.342   8.716
  117POPC   D2A 4528   7.469  15.081   8.410
  117POPC   C3A 4529   7.646  15.232   8.072
  117POPC   C4A 4530   7.555  15.489   7.731
  117POPC   C1B 4531   7.101  14.851   8.742
  117POPC   C2B 4532   7.158  14.697   8.306
  117POPC   C3B 4533   7.241  14.977   7.940
  117POPC   C4B 4534   7.284  15.131   7.496
  118POPC   NC3 4535  30.913  14.984   9.296
  118POPC   PO4 4536  30.389  15.480   9.410
  118POPC   GL1 4537  30.536  15.276   9.080
  118POPC   GL2 4538  30.394  14.973   9.162
  118POPC   C1A 4539  30.732  15.298   8.676
  118POPC   D2A 4540  30.627  15.431   8.258
  118POPC   C3A 4541  30.963  15.539   7.993
  118POPC   C4A 4542  31.031  15.480   7.547
  118POPC   C1B 4543  30.575  14.823   8.783
  118POPC   C2B 4544  30.611  14.702   8.387
  118POPC   C3B 4545  30.526  14.951   8.046
  118POPC   C4B 4546  30.608  15.262   7.747
  119POPC   NC3 4547  24.369  31.886   9.523
  119POPC   PO4 4548  24.606  31.310   9.451
  119POPC   GL1 4549  24.579  31.588   9.133
  119POPC   GL2 4550  24.874  31.781   9.120
  119POPC   C1A 4551  24.330  31.546   8.732
  119POPC   D2A 4552  24.287  31.290   8.345
  119POPC   C3A 4553  24.278  31.444   7.916
  119POPC   C4A 4554  24.249  31.617   7.450
  119POPC   C1B 4555  24.703  31.875   8.741
  119POPC   C2B 4556  24.673  31.667   8.381
  119POPC   C3B 4557  24.882  31.662   8.024
  119POPC   C4B 4558  24.728  31.473   7.691
  120POPC   NC3 4559  15.266  26.026   9.483
  120POPC   PO4 4560  14.786  25.458   9.367
  120POPC   GL1 4561  14.984  25.790   9.098
  120POPC   GL2 4562  14.886  26.164   9.066
  120POPC   C1A 4563  15.104  25.846   8.676
  120POPC   D2A 4564  15.019  26.204   8.425
  120POPC   C3A 4565  15.064  26.102   7.990
  120POPC   C4A 4566  14.872  26.291   7.634
  120POPC   C1B 4567  15.298  26.286   8.860
  120POPC   C2B 4568  15.507  26.323   8.432
  120POPC   C3B 4569  15.588  26.247   7.997
  120POPC   C4B 4570  15.381  26.336   7.636
  121POPC   NC3 4571   9.258  19.904   9.780
  121POPC   PO4 4572   8.774  19.650   9.365
  121POPC   GL1 4573   8.963  19.924   9.135
  121POPC   GL2 4574   8.674  19.962   8.921
  121POPC   C1A 4575   9.154  20.067   8.770
  121POPC   D2A 4576   9.020  20.343   8.493
  121POPC   C3A 4577   9.012  20.122   8.116
  121POPC   C4A 4578   8.626  20.066   7.872
  121POPC   C1B 4579   8.879  19.596   8.732
  121POPC   C2B 4580   9.052  19.628   8.360
  121POPC   C3B 4581   8.905  19.640   7.973
  121POPC   C4B 4582   8.743  19.653   7.594
  122POPC   NC3 4583  29.333  10.724   9.479
  122POPC   PO4 4584  29.349  10.032   9.543
  122POPC   GL1 4585  29.348  10.233   9.150
  122POPC   GL2 4586  29.393  10.555   9.009
  122POPC   C1A 4587  29.124  10.167   8.767
  122POPC   D2A 4588  29.067  10.471   8.433
  122POPC   C3A 4589  29.082  10.292   8.027
  122POPC   C4A 4590  29.183  10.395   7.621
  122POPC   C1B 4591  29.418  10.870   8.703
  122POPC   C2B 4592  29.140  10.977   8.344
  122POPC   C3B 4593  29.095  10.787   7.946
  122POPC   C4B 4594  29.260  10.882   7.531
  123POPC   NC3 4595  32.063  28.927   9.338
  123POPC   PO4 4596  32.716  29.074   9.320
  123POPC   GL1 4597  32.459  28.979   8.994
  123POPC   GL2 4598  32.318  29.270   8.970
  123POPC   C1A 4599  32.353  29.014   8.533
  123POPC   D2A 4600  32.342  29.189   8.141
  123POPC   C3A 4601  32.215  28.958   7.818
  123POPC   C4A 4602  32.056  29.081   7.453
  123POPC   C1B 4603  32.056  29.425   8.667
  123POPC   C2B 4604  31.978  29.580   8.274
  123POPC   C3B 4605  31.921  29.450   7.863
  123POPC   C4B 4606  31.876  29.552   7.428
  124POPC   NC3 4607   5.287  10.133   9.478
  124POPC   PO4 4608   4.901   9.654   9.473
  124POPC   GL1 4609   5.108   9.776   9.137
  124POPC   GL2 4610   4.928  10.039   9.051
  124POPC   C1A 4611   5.002   9.642   8.744
  124POPC   D2A 4612   5.132   9.830   8.398
  124POPC   C3A 4613   5.047   9.644   8.027
  124POPC   C4A 4614   5.195   9.730   7.600
  124POPC   C1B 4615   4.680  10.048   8.678
  124POPC   C2B 4616   4.711  10.068   8.232
  124POPC   C3B 4617   4.847  10.059   7.814
  124POPC   C4B 4618   4.889  10.182   7.420
  125POPC   NC3 4619  14.335  12.479   9.509
  125POPC   PO4 4620  14.304  13.123   9.286
  125POPC   GL1 4621  14.201  12.756   9.116
  125POPC   GL2 4622  14.530  12.710   9.083
  125POPC   C1A 4623  14.229  12.541   8.732
  125POPC   D2A 4624  14.238  12.807   8.417
  125POPC   C3A 4625  14.114  12.676   8.034
  125POPC   C4A 4626  14.292  12.845   7.686
  125POPC   C1B 4627  14.642  13.000   8.750
  125POPC   C2B 4628  14.884  13.049   8.386
  125POPC   C3B 4629  14.722  12.872   8.028
  125POPC   C4B 4630  14.810  12.886   7.628
  126POPC   NC3 4631  40.143  14.550   9.513
  126POPC   PO4 4632  39.920  15.285   9.479
  126POPC   GL1 4633  39.963  15.225   9.080
  126POPC   GL2 4634  40.174  14.927   9.148
  126POPC   C1A 4635  40.032  15.470   8.699
  126POPC   D2A 4636  39.849  15.715   8.372
  126POPC   C3A 4637  39.940  15.408   8.073
  126POPC   C4A 4638  39.792  15.282   7.676
  126POPC   C1B 4639  39.975  14.874   8.733
  126POPC   C2B 4640  40.118  14.950   8.337
  126POPC   C3B 4641  39.845  14.897   8.022
  126POPC   C4B 4642  39.868  14.757   7.627
  127POPC   NC3 4643  39.482  16.777   9.466
  127POPC   PO4 4644  38.824  16.545   9.487
  127POPC   GL1 4645  39.097  16.642   9.155
  127POPC   GL2 4646  39.221  16.929   9.029
  127POPC   C1A 4647  39.267  16.458   8.784
  127POPC   D2A 4648  39.055  16.464   8.411
  127POPC   C3A 4649  39.311  16.475   8.089
  127POPC   C4A 4650  39.118  16.424   7.731
  127POPC   C1B 4651  39.192  16.950   8.582
  127POPC   C2B 4652  39.368  16.980   8.210
  127POPC   C3B 4653  39.281  16.899   7.806
  127POPC   C4B 4654  39.161  17.076   7.411
  128POPC   NC3 4655  32.663  33.639   9.575
  128POPC   PO4 4656  32.468  34.279   9.514
  128POPC   GL1 4657  32.326  33.908   9.256
  128POPC   GL2 4658  32.510  33.638   9.107
  128POPC   C1A 4659  32.204  33.922   8.795
  128POPC   D2A 4660  31.915  33.821   8.456
  128POPC   C3A 4661  32.060  33.924   8.035
  128POPC   C4A 4662  32.378  34.132   7.804
  128POPC   C1B 4663  32.426  33.459   8.747
  128POPC   C2B 4664  32.662  33.523   8.398
  128POPC   C3B 4665  32.580  33.720   8.046
  128POPC   C4B 4666  32.320  33.557   7.751
  129POPC   NC3 4667   1.206   9.757   9.623
  129POPC   PO4 4668   1.301   9.022   9.535
  129POPC   GL1 4669   1.268   9.016   9.071
  129POPC   GL2 4670   0.917   8.945   8.952
  129POPC   C1A 4671   1.346   8.934   8.643
  129POPC   D2A 4672   1.186   8.677   8.314
  129POPC   C3A 4673   1.147   8.944   7.967
  129POPC   C4A 4674   1.534   9.099   7.923
  129POPC   C1B 4675   0.952   9.341   8.702
  129POPC   C2B 4676   1.077   9.370   8.263
  129POPC   C3B 4677   0.991   9.440   7.833
  129POPC   C4B 4678   1.151   9.187   7.497
  130POPC   NC3 4679  18.563  13.491   9.516
  130POPC   PO4 4680  17.898  13.288   9.549
  130POPC   GL1 4681  17.974  13.476   9.127
  130POPC   GL2 4682  18.190  13.768   9.136
  130POPC   C1A 4683  18.230  13.444   8.733
  130POPC   D2A 4684  18.481  13.561   8.360
  130POPC   C3A 4685  18.315  13.517   7.933
  130POPC   C4A 4686  18.233  13.505   7.466
  130POPC   C1B 4687  18.414  13.928   8.754
  130POPC   C2B 4688  18.405  14.213   8.414
  130POPC   C3B 4689  18.420  14.030   8.003
  130POPC   C4B 4690  18.639  13.796   7.644
  131POPC   NC3 4691  35.669  15.617   9.516
  131POPC   PO4 4692  36.352  15.945   9.533
  131POPC   GL1 4693  36.269  15.937   9.098
  131POPC   GL2 4694  35.921  15.961   9.102
  131POPC   C1A 4695  36.276  15.961   8.656
  131POPC   D2A 4696  36.389  15.689   8.309
  131POPC   C3A 4697  36.287  15.858   7.928
  131POPC   C4A 4698  36.420  15.782   7.534
  131POPC   C1B 4699  35.794  16.149   8.707
  131POPC   C2B 4700  35.923  16.040   8.301
  131POPC   C3B 4701  35.786  15.953   7.899
  131POPC   C4B 4702  35.943  15.903   7.465
  132POPC   NC3 4703  41.411  17.453   9.533
  132POPC   PO4 4704  42.071  17.772   9.465
  132POPC   GL1 4705  41.756  17.486   9.181
  132POPC   GL2 4706  41.416  17.648   9.088
  132POPC   C1A 4707  41.594  17.292   8.797
  132POPC   D2A 4708  41.604  17.435   8.414
  132POPC   C3A 4709  41.540  17.191   8.092
  132POPC   C4A 4710  41.709  17.313   7.687
  132POPC   C1B 4711  41.288  17.780   8.700
  132POPC   C2B 4712  41.147  17.640   8.318
  132POPC   C3B 4713  41.442  17.706   7.995
  132POPC   C4B 4714  41.512  17.765   7.582
  133POPC   NC3 4715   7.769  27.496   9.587
  133POPC   PO4 4716   7.177  27.522   9.367
  133POPC   GL1 4717   7.267  27.786   9.049
  133POPC   GL2 4718   7.605  27.783   9.180
  133POPC   C1A 4719   7.236  27.701   8.620
  133POPC   D2A 4720   7.334  27.446   8.256
  133POPC   C3A 4721   7.180  27.548   7.852
  133POPC   C4A 4722   7.130  27.948   7.619
  133POPC   C1B 4723   7.680  27.530   8.866
  133POPC   C2B 4724   7.787  27.308   8.540
  133POPC   C3B 4725   7.835  27.386   8.140
  133POPC   C4B 4726   7.616  27.265   7.810
  134POPC   NC3 4727  14.603   5.993   9.575
  134POPC   PO4 4728  13.951   5.772   9.516
  134POPC   GL1 4729  14.344   5.852   9.172
  134POPC   GL2 4730  14.724   5.790   9.060
  134POPC   C1A 4731  14.379   5.955   8.711
  134POPC   D2A 4732  14.565   5.648   8.405
  134POPC   C3A 4733  14.351   5.641   8.001
  134POPC   C4A 4734  14.475   5.721   7.570
  134POPC   C1B 4735  14.883   6.050   8.657
  134POPC   C2B 4736  14.803   6.049   8.219
  134POPC   C3B 4737  14.552   6.116   7.873
  134POPC   C4B 4738  14.536   6.384   7.501
  135POPC   NC3 4739  34.964   0.097   9.455
  135POPC   PO4 4740  35.218   0.755   9.586
  135POPC   GL1 4741  35.320   0.653   9.175
  135POPC   GL2 4742  35.020   0.485   9.126
  135POPC   C1A 4743  35.434   0.475   8.750
  135POPC   D2A 4744  35.463   0.121   8.449
  135POPC   C3A 4745  35.482   0.296   8.031
  135POPC   C4A 4746  35.370   0.327   7.599
  135POPC   C1B 4747  34.993   0.730   8.758
  135POPC   C2B 4748  35.207   0.861   8.410
  135POPC   C3B 4749  35.037   0.823   8.008
  135POPC   C4B 4750  35.039   0.705   7.572
  136POPC   NC3 4751  24.369   9.635   9.611
  136POPC   PO4 4752  24.648  10.083   9.437
  136POPC   GL1 4753  24.309   9.913   9.167
  136POPC   GL2 4754  24.327   9.541   9.118
  136POPC   C1A 4755  24.145   9.966   8.753
  136POPC   D2A 4756  24.192   9.782   8.330
  136POPC   C3A 4757  24.417  10.050   8.010
  136POPC   C4A 4758  24.425   9.991   7.556
  136POPC   C1B 4759  24.491   9.566   8.697
  136POPC   C2B 4760  24.539   9.371   8.278
  136POPC   C3B 4761  24.663   9.599   7.910
  136POPC   C4B 4762  25.013   9.715   7.664
  137POPC   NC3 4763  25.842  40.235   9.489
  137POPC   PO4 4764  26.381  39.829   9.471
  137POPC   GL1 4765  26.144  40.019   9.119
  137POPC   GL2 4766  25.767  39.973   9.072
  137POPC   C1A 4767  26.094  39.880   8.679
  137POPC   D2A 4768  26.421  39.863   8.388
  137POPC   C3A 4769  26.360  39.853   7.990
  137POPC   C4A 4770  26.316  40.054   7.633
  137POPC   C1B 4771  25.634  40.136   8.682
  137POPC   C2B 4772  25.586  39.956   8.280
  137POPC   C3B 4773  25.834  40.002   7.916
  137POPC   C4B 4774  25.751  40.263   7.565
  138POPC   NC3 4775   1.840  44.382   9.316
  138POPC   PO4 4776   2.193  44.884   9.658
  138POPC   GL1 4777   2.197  44.745   9.222
  138POPC   GL2 4778   2.242  44.438   8.993
  138POPC   C1A 4779   2.316  44.901   8.827
  138POPC   D2A 4780   2.040   0.076   8.569
  138POPC   C3A 4781   1.984  44.907   8.185
  138POPC   C4A 4782   2.093  44.832   7.786
  138POPC   C1B 4783   2.013  44.532   8.599
  138POPC   C2B 4784   2.109  44.415   8.174
  138POPC   C3B 4785   1.960  44.358   7.753
  138POPC   C4B 4786   1.774  44.275   7.354
  139POPC   NC3 4787  31.753  24.031   9.701
  139POPC   PO4 4788  31.466  23.509   9.471
  139POPC   GL1 4789  31.567  23.817   9.133
  139POPC   GL2 4790  31.772  24.098   9.195
  139POPC   C1A 4791  31.453  23.937   8.708
  139POPC   D2A 4792  31.209  23.952   8.286
  139POPC   C3A 4793  31.412  23.908   7.849
  139POPC   C4A 4794  31.491  23.517   7.597
  139POPC   C1B 4795  31.975  23.951   8.817
  139POPC   C2B 4796  31.895  23.853   8.403
  139POPC   C3B 4797  32.037  24.052   8.039
  139POPC   C4B 4798  31.928  23.767   7.733
  140POPC   NC3 4799  44.172  21.017   9.417
  140POPC   PO4 4800  44.887  21.111   9.553
  140POPC   GL1 4801  44.625  20.862   9.200
  140POPC   GL2 4802  44.290  20.627   9.134
  140POPC   C1A 4803  44.726  20.547   8.874
  140POPC   D2A 4804  44.701  20.628   8.414
  140POPC   C3A 4805  44.920  20.491   8.002
  140POPC   C4A 4806  44.959  20.349   7.544
  140POPC   C1B 4807  44.290  20.767   8.744
  140POPC   C2B 4808  44.170  20.598   8.357
  140POPC   C3B 4809  44.394  20.672   7.996
  140POPC   C4B 4810  44.529  20.582   7.628
  141POPC   NC3 4811   6.903  17.315   9.529
  141POPC   PO4 4812   6.868  17.963   9.573
  141POPC   GL1 4813   6.646  17.732   9.197
  141POPC   GL2 4814   6.736  17.375   9.071
  141POPC   C1A 4815   6.487  17.679   8.761
  141POPC   D2A 4816   6.635  17.624   8.390
  141POPC   C3A 4817   6.291  17.629   8.150
  141POPC   C4A 4818   6.275  17.731   7.759
  141POPC   C1B 4819   6.786  17.205   8.677
  141POPC   C2B 4820   6.925  17.237   8.241
  141POPC   C3B 4821   6.833  17.354   7.808
  141POPC   C4B 4822   6.803  17.179   7.392
  142POPC   NC3 4823   6.381   1.567   9.508
  142POPC   PO4 4824   6.784   0.911   9.507
  142POPC   GL1 4825   6.554   1.079   9.152
  142POPC   GL2 4826   6.511   1.442   9.049
  142POPC   C1A 4827   6.639   1.070   8.712
  142POPC   D2A 4828   6.409   0.968   8.334
  142POPC   C3A 4829   6.639   1.107   7.999
  142POPC   C4A 4830   6.679   0.997   7.583
  142POPC   C1B 4831   6.465   1.674   8.683
  142POPC   C2B 4832   6.598   1.587   8.309
  142POPC   C3B 4833   6.845   1.558   7.988
  142POPC   C4B 4834   6.645   1.501   7.665
  143POPC   NC3 4835  42.195   6.821   9.425
  143POPC   PO4 4836  42.566   6.202   9.667
  143POPC   GL1 4837  42.629   6.534   9.295
  143POPC   GL2 4838  42.627   6.949   9.201
  143POPC   C1A 4839  42.686   6.599   8.839
  143POPC   D2A 4840  42.316   6.605   8.588
  143POPC   C3A 4841  42.369   6.653   8.148
  143POPC   C4A 4842  42.212   6.375   7.807
  143POPC   C1B 4843  42.296   7.068   8.840
  143POPC   C2B 4844  42.101   7.030   8.412
  143POPC   C3B 4845  42.180   7.130   8.004
  143POPC   C4B 4846  42.205   6.864   7.674
  144POPC   NC3 4847  14.316   9.509   9.543
  144POPC   PO4 4848  14.759  10.026   9.586
  144POPC   GL1 4849  14.653   9.835   9.175
  144POPC   GL2 4850  14.302   9.766   9.092
  144POPC   C1A 4851  14.676   9.608   8.756
  144POPC   D2A 4852  14.787   9.441   8.347
  144POPC   C3A 4853  14.527   9.578   8.017
  144POPC   C4A 4854  14.640   9.717   7.602
  144POPC   C1B 4855  14.153   9.522   8.756
  144POPC   C2B 4856  14.018   9.462   8.346
  144POPC   C3B 4857  14.044   9.384   7.947
  144POPC   C4B 4858  14.156   9.657   7.638
  145POPC   NC3 4859  29.355  11.308   9.652
  145POPC   PO4 4860  28.943  10.958   9.448
  145POPC   GL1 4861  29.272  11.126   9.129
  145POPC   GL2 4862  29.425  11.466   9.130
  145POPC   C1A 4863  29.188  11.349   8.695
  145POPC   D2A 4864  29.213  11.481   8.240
  145POPC   C3A 4865  28.943  11.263   7.922
  145POPC   C4A 4866  28.693  10.924   7.666
  145POPC   C1B 4867  29.686  11.349   8.745
  145POPC   C2B 4868  29.640  11.161   8.348
  145POPC   C3B 4869  29.489  11.112   7.969
  145POPC   C4B 4870  29.411  11.350   7.649
  146POPC   NC3 4871  34.812   6.253   9.342
  146POPC   PO4 4872  34.331   5.883   9.600
  146POPC   GL1 4873  34.616   5.795   9.226
  146POPC   GL2 4874  34.356   5.803   9.027
  146POPC   C1A 4875  34.830   5.822   8.793
  146POPC   D2A 4876  34.723   5.825   8.335
  146POPC   C3A 4877  34.840   6.139   8.034
  146POPC   C4A 4878  34.812   6.047   7.601
  146POPC   C1B 4879  34.295   5.749   8.598
  146POPC   C2B 4880  34.164   5.752   8.173
  146POPC   C3B 4881  34.420   5.864   7.845
  146POPC   C4B 4882  34.333   6.168   7.457
  147POPC   NC3 4883  19.841  14.527   9.679
  147POPC   PO4 4884  19.576  14.026   9.289
  147POPC   GL1 4885  19.738  14.294   8.963
  147POPC   GL2 4886  19.795  14.598   9.141
  147POPC   C1A 4887  19.997  14.510   8.672
  147POPC   D2A 4888  20.122  14.661   8.263
  147POPC   C3A 4889  19.964  14.495   7.884
  147POPC   C4A 4890  19.588  14.257   7.816
  147POPC   C1B 4891  19.526  14.707   8.750
  147POPC   C2B 4892  19.617  14.619   8.291
  147POPC   C3B 4893  19.560  14.798   7.839
  147POPC   C4B 4894  19.464  14.735   7.329
  148POPC   NC3 4895  38.273  23.501   9.691
  148POPC   PO4 4896  38.701  23.903   9.397
  148POPC   GL1 4897  38.383  23.830   9.102
  148POPC   GL2 4898  38.205  23.496   9.138
  148POPC   C1A 4899  38.482  23.688   8.689
  148POPC   D2A 4900  38.402  23.832   8.283
  148POPC   C3A 4901  38.722  23.878   8.009
  148POPC   C4A 4902  38.495  23.724   7.693
  148POPC   C1B 4903  38.213  23.249   8.717
  148POPC   C2B 4904  38.260  23.328   8.260
  148POPC   C3B 4905  38.267  23.288   7.812
  148POPC   C4B 4906  38.423  23.292   7.385
  149POPC   NC3 4907  34.547  42.592   9.733
  149POPC   PO4 4908  34.601  41.998   9.455
  149POPC   GL1 4909  34.619  42.361   9.183
  149POPC   GL2 4910  34.307  42.582   9.228
  149POPC   C1A 4911  34.716  42.192   8.760
  149POPC   D2A 4912  34.680  41.980   8.351
  149POPC   C3A 4913  34.820  42.233   8.022
  149POPC   C4A 4914  34.974  42.071   7.665
  149POPC   C1B 4915  34.328  42.524   8.778
  149POPC   C2B 4916  34.383  42.371   8.372
  149POPC   C3B 4917  34.303  42.145   8.008
  149POPC   C4B 4918  34.216  42.538   7.846
  150POPC   NC3 4919  11.514   2.314   9.517
  150POPC   PO4 4920  11.157   1.758   9.658
  150POPC   GL1 4921  11.119   1.879   9.208
  150POPC   GL2 4922  10.964   2.205   9.151
  150POPC   C1A 4923  11.097   1.802   8.747
  150POPC   D2A 4924  11.099   2.013   8.347
  150POPC   C3A 4925  11.238   1.749   8.010
  150POPC   C4A 4926  11.458   1.679   7.607
  150POPC   C1B 4927  11.351   2.236   8.889
  150POPC   C2B 4928  11.563   2.184   8.500
  150POPC   C3B 4929  11.411   2.386   8.129
  150POPC   C4B 4930  11.281   2.186   7.748
  151POPC   NC3 4931  14.211   8.518   9.627
  151POPC   PO4 4932  14.384   9.129   9.819
  151POPC   GL1 4933  14.349   9.059   9.327
  151POPC   GL2 4934  14.259   8.789   9.194
  151POPC   C1A 4935  14.489   9.155   8.875
  151POPC   D2A 4936  14.380   9.116   8.430
  151POPC   C3A 4937  14.589   9.063   8.048
  151POPC   C4A 4938  14.452   9.219   7.638
  151POPC   C1B 4939  14.154   8.795   8.759
  151POPC   C2B 4940  14.129   8.675   8.311
  151POPC   C3B 4941  14.157   8.874   7.878
  151POPC   C4B 4942  14.127   8.889   7.388
  152POPC   NC3 4943   6.739   2.997   9.700
  152POPC   PO4 4944   6.744   3.623   9.423
  152POPC   GL1 4945   6.692   3.500   9.015
  152POPC   GL2 4946   6.384   3.617   9.032
  152POPC   C1A 4947   6.735   3.731   8.618
  152POPC   D2A 4948   6.637   3.961   8.222
  152POPC   C3A 4949   6.639   3.804   7.790
  152POPC   C4A 4950   6.884   3.680   7.420
  152POPC   C1B 4951   6.312   3.362   8.687
  152POPC   C2B 4952   6.365   3.507   8.278
  152POPC   C3B 4953   6.309   3.415   7.880
  152POPC   C4B 4954   6.741   3.299   7.779
  153POPC   NC3 4955  26.805  22.860   9.480
  153POPC   PO4 4956  27.327  23.331   9.407
  153POPC   GL1 4957  26.967  23.183   9.108
  153POPC   GL2 4958  27.013  22.809   9.025
  153POPC   C1A 4959  26.680  23.067   8.742
  153POPC   D2A 4960  26.470  22.962   8.327
  153POPC   C3A 4961  26.629  22.985   7.869
  153POPC   C4A 4962  26.804  22.802   7.469
  153POPC   C1B 4963  27.069  22.779   8.591
  153POPC   C2B 4964  26.996  22.993   8.212
  153POPC   C3B 4965  27.104  22.773   7.860
  153POPC   C4B 4966  27.249  22.403   8.000
  154POPC   NC3 4967  23.110  37.991   9.502
  154POPC   PO4 4968  22.697  37.378   9.535
  154POPC   GL1 4969  22.775  37.705   9.219
  154POPC   GL2 4970  23.118  37.698   9.091
  154POPC   C1A 4971  22.734  37.622   8.774
  154POPC   D2A 4972  22.978  37.453   8.470
  154POPC   C3A 4973  22.929  37.643   8.070
  154POPC   C4A 4974  22.593  37.443   7.842
  154POPC   C1B 4975  23.346  37.839   8.748
  154POPC   C2B 4976  23.267  37.930   8.364
  154POPC   C3B 4977  23.411  37.933   7.997
  154POPC   C4B 4978  23.199  37.885   7.651
  155POPC   NC3 4979  17.284  19.194   9.498
  155POPC   PO4 4980  17.893  18.935   9.496
  155POPC   GL1 4981  17.597  18.907   9.142
  155POPC   GL2 4982  17.419  19.193   8.994
  155POPC   C1A 4983  17.461  18.747   8.725
  155POPC   D2A 4984  17.630  18.776   8.305
  155POPC   C3A 4985  17.314  18.750   8.011
  155POPC   C4A 4986  17.297  18.662   7.572
  155POPC   C1B 4987  17.753  19.162   8.652
  155POPC   C2B 4988  17.971  19.195   8.224
  155POPC   C3B 4989  17.860  19.142   7.814
  155POPC   C4B 4990  17.440  19.134   7.649
  156POPC   NC3 4991  16.648  12.351   9.503
  156POPC   PO4 4992  16.376  11.628   9.409
  156POPC   GL1 4993  16.583  11.750   8.994
  156POPC   GL2 4994  16.627  12.079   9.081
  156POPC   C1A 4995  16.942  11.890   8.729
  156POPC   D2A 4996  16.899  12.117   8.350
  156POPC   C3A 4997  16.978  11.835   8.019
  156POPC   C4A 4998  16.783  11.931   7.672
  156POPC   C1B 4999  16.599  12.337   8.736
  156POPC   C2B 5000  16.404  12.498   8.382
  156POPC   C3B 5001  16.446  12.302   7.999
  156POPC   C4B 5002  16.680  12.446   7.675
  157POPC   NC3 5003  11.370  11.871   9.776
  157POPC   PO4 5004  11.208  12.472   9.653
  157POPC   GL1 5005  11.222  12.084   9.273
  157POPC   GL2 5006  11.460  11.843   9.201
  157POPC   C1A 5007  11.162  12.020   8.801
  157POPC   D2A 5008  10.988  11.899   8.393
  157POPC   C3A 5009  11.118  12.062   7.998
  157POPC   C4A 5010  11.138  11.824   7.626
  157POPC   C1B 5011  11.669  11.910   8.775
  157POPC   C2B 5012  11.521  12.060   8.354
  157POPC   C3B 5013  11.613  11.874   7.942
  157POPC   C4B 5014  11.805  11.557   7.648
  158POPC   NC3 5015  25.603  43.562   9.426
  158POPC   PO4 5016  25.559  42.896   9.477
  158POPC   GL1 5017  25.347  43.144   9.208
  158POPC   GL2 5018  25.316  42.896   9.001
  158POPC   C1A 5019  25.283  43.436   8.864
  158POPC   D2A 5020  25.460  43.515   8.439
  158POPC   C3A 5021  25.256  43.458   8.067
  158POPC   C4A 5022  25.395  43.428   7.657
  158POPC   C1B 5023  25.306  43.009   8.593
  158POPC   C2B 5024  25.287  42.799   8.241
  158POPC   C3B 5025  25.344  42.978   7.884
  158POPC   C4B 5026  25.228  42.910   7.502
  159POPC   NC3 5027  40.249   0.585   9.332
  159POPC   PO4 5028  40.030   0.134   9.817
  159POPC   GL1 5029  39.911   0.185   9.312
  159POPC   GL2 5030  40.083  44.925   9.179
  159POPC   C1A 5031  39.942   0.349   8.814
  159POPC   D2A 5032  40.225   0.545   8.528
  159POPC   C3A 5033  40.201   0.612   8.079
  159POPC   C4A 5034  39.826   0.676   7.811
  159POPC   C1B 5035  39.857  44.847   8.799
  159POPC   C2B 5036  39.931   0.028   8.404
  159POPC   C3B 5037  39.901   0.198   8.011
  159POPC   C4B 5038  40.172   0.323   7.672
  160POPC   NC3 5039   3.446  32.224   9.652
  160POPC   PO4 5040   3.938  31.958   9.282
  160POPC   GL1 5041   3.595  32.164   9.123
  160POPC   GL2 5042   3.277  32.313   9.143
  160POPC   C1A 5043   3.548  32.239   8.697
  160POPC   D2A 5044   3.689  32.132   8.307
  160POPC   C3A 5045   3.782  32.456   8.061
  160POPC   C4A 5046   3.790  32.288   7.677
  160POPC   C1B 5047   3.160  32.551   8.734
  160POPC   C2B 5048   3.145  32.327   8.357
  160POPC   C3B 5049   3.302  32.252   7.957
  160POPC   C4B 5050   3.393  31.989   7.645
  161POPC   NC3 5051  29.708   8.032   9.525
  161POPC   PO4 5052  30.053   8.584   9.562
  161POPC   GL1 5053  29.924   8.412   9.176
  161POPC   GL2 5054  30.161   8.160   9.067
  161POPC   C1A 5055  29.752   8.416   8.750
  161POPC   D2A 5056  29.583   8.113   8.431
  161POPC   C3A 5057  29.777   8.117   7.997
  161POPC   C4A 5058  29.919   8.403   7.655
  161POPC   C1B 5059  30.037   7.961   8.680
  161POPC   C2B 5060  30.199   7.934   8.267
  161POPC   C3B 5061  30.133   7.641   7.916
  161POPC   C4B 5062  30.105   7.935   7.620
  162POPC   NC3 5063  27.576  37.234   9.536
  162POPC   PO4 5064  27.320  36.592   9.412
  162POPC   GL1 5065  27.429  36.960   9.136
  162POPC   GL2 5066  27.689  37.221   9.057
  162POPC   C1A 5067  27.335  37.062   8.730
  162POPC   D2A 5068  27.491  36.833   8.424
  162POPC   C3A 5069  27.394  36.918   8.022
  162POPC   C4A 5070  27.578  36.792   7.672
  162POPC   C1B 5071  27.811  37.185   8.656
  162POPC   C2B 5072  27.601  37.323   8.276
  162POPC   C3B 5073  27.748  37.253   7.845
  162POPC   C4B 5074  27.923  37.154   7.411
  163POPC   NC3 5075  39.087  38.284   9.656
  163POPC   PO4 5076  38.434  38.373   9.403
  163POPC   GL1 5077  38.608  38.518   9.052
  163POPC   GL2 5078  38.935  38.572   9.239
  163POPC   C1A 5079  38.359  38.465   8.643
  163POPC   D2A 5080  38.103  38.670   8.300
  163POPC   C3A 5081  38.295  38.601   7.868
  163POPC   C4A 5082  38.406  38.197   7.772
  163POPC   C1B 5083  39.015  38.733   8.837
  163POPC   C2B 5084  38.847  38.526   8.495
  163POPC   C3B 5085  38.773  38.423   8.084
  163POPC   C4B 5086  38.821  38.668   7.743
  164POPC   NC3 5087   0.064  25.608   9.261
  164POPC   PO4 5088   0.426  25.110   9.494
  164POPC   GL1 5089   0.377  25.237   9.108
  164POPC   GL2 5090   0.733  25.265   9.094
  164POPC   C1A 5091   0.128  25.149   8.710
  164POPC   D2A 5092  44.975  25.056   8.272
  164POPC   C3A 5093   0.150  25.367   7.976
  164POPC   C4A 5094   0.185  25.799   7.829
  164POPC   C1B 5095   0.646  25.097   8.707
  164POPC   C2B 5096   0.512  25.190   8.302
  164POPC   C3B 5097   0.524  25.019   7.898
  164POPC   C4B 5098   0.314  25.036   7.484
  165POPC   NC3 5099  31.900   1.565   9.266
  165POPC   PO4 5100  31.383   1.883   9.374
  165POPC   GL1 5101  31.326   2.160   9.022
  165POPC   GL2 5102  31.585   2.328   9.196
  165POPC   C1A 5103  31.343   2.085   8.578
  165POPC   D2A 5104  31.419   1.689   8.367
  165POPC   C3A 5105  31.330   1.750   7.945
  165POPC   C4A 5106  31.327   2.160   7.753
  165POPC   C1B 5107  31.799   2.194   8.833
  165POPC   C2B 5108  31.765   2.312   8.409
  165POPC   C3B 5109  31.705   2.061   8.094
  165POPC   C4B 5110  31.855   2.047   7.692
  166POPC   NC3 5111   9.156  23.393   9.589
  166POPC   PO4 5112   8.833  23.988   9.520
  166POPC   GL1 5113   9.023  23.742   9.190
  166POPC   GL2 5114   8.890  23.380   9.145
  166POPC   C1A 5115   8.801  23.744   8.790
  166POPC   D2A 5116   8.872  23.554   8.406
  166POPC   C3A 5117   8.788  23.811   8.057
  166POPC   C4A 5118   8.660  23.611   7.688
  166POPC   C1B 5119   9.208  23.429   8.796
  166POPC   C2B 5120   9.378  23.404   8.350
  166POPC   C3B 5121   9.132  23.428   7.972
  166POPC   C4B 5122   9.162  23.661   7.614
  167POPC   NC3 5123   7.374  10.759   9.329
  167POPC   PO4 5124   7.626  11.338   9.536
  167POPC   GL1 5125   7.482  11.440   9.152
  167POPC   GL2 5126   7.625  11.117   9.073
  167POPC   C1A 5127   7.325  11.335   8.734
  167POPC   D2A 5128   7.265  11.111   8.373
  167POPC   C3A 5129   7.300  11.425   8.114
  167POPC   C4A 5130   7.248  11.518   7.711
  167POPC   C1B 5131   7.586  10.872   8.710
  167POPC   C2B 5132   7.695  10.835   8.299
  167POPC   C3B 5133   7.527  10.991   7.912
  167POPC   C4B 5134   7.577  10.872   7.478
  168POPC   NC3 5135  31.465  35.790   9.373
  168POPC   PO4 5136  31.333  36.463   9.433
  168POPC   GL1 5137  31.555  36.250   9.129
  168POPC   GL2 5138  31.216  36.113   9.059
  168POPC   C1A 5139  31.593  36.095   8.716
  168POPC   D2A 5140  31.279  35.891   8.482
  168POPC   C3A 5141  31.223  36.068   8.096
  168POPC   C4A 5142  31.485  36.053   7.747
  168POPC   C1B 5143  31.222  36.480   8.769
  168POPC   C2B 5144  31.422  36.476   8.361
  168POPC   C3B 5145  31.192  36.572   7.972
  168POPC   C4B 5146  31.331  36.742   7.566
  169POPC   NC3 5147   1.066   3.965   9.442
  169POPC   PO4 5148   1.665   4.385   9.467
  169POPC   GL1 5149   1.450   4.437   9.069
  169POPC   GL2 5150   1.176   4.228   9.023
  169POPC   C1A 5151   1.408   4.443   8.627
  169POPC   D2A 5152   1.576   4.482   8.245
  169POPC   C3A 5153   1.339   4.253   7.902
  169POPC   C4A 5154   1.472   4.070   7.500
  169POPC   C1B 5155   0.938   3.972   8.712
  169POPC   C2B 5156   1.020   3.929   8.241
  169POPC   C3B 5157   0.753   4.068   7.896
  169POPC   C4B 5158   0.632   4.501   7.765
  170POPC   NC3 5159  17.529  29.229   9.623
  170POPC   PO4 5160  18.120  29.017   9.449
  170POPC   GL1 5161  17.780  29.151   9.188
  170POPC   GL2 5162  17.493  28.890   9.232
  170POPC   C1A 5163  17.567  29.156   8.794
  170POPC   D2A 5164  17.713  29.014   8.428
  170POPC   C3A 5165  17.509  29.205   8.120
  170POPC   C4A 5166  17.646  29.350   7.743
  170POPC   C1B 5167  17.222  28.794   8.866
  170POPC   C2B 5168  17.176  28.896   8.403
  170POPC   C3B 5169  17.312  28.735   8.003
  170POPC   C4B 5170  17.408  28.911   7.641
  171POPC   NC3 5171  39.641  21.479   9.288
  171POPC   PO4 5172  39.080  21.564   9.671
  171POPC   GL1 5173  38.955  21.366   9.279
  171POPC   GL2 5174  39.150  21.584   9.141
  171POPC   C1A 5175  38.833  21.392   8.815
  171POPC   D2A 5176  38.907  21.643   8.462
  171POPC   C3A 5177  39.059  21.466   8.123
  171POPC   C4A 5178  39.190  21.433   7.713
  171POPC   C1B 5179  39.324  21.445   8.726
  171POPC   C2B 5180  39.539  21.378   8.362
  171POPC   C3B 5181  39.605  21.276   7.950
  171POPC   C4B 5182  39.684  21.404   7.538
  172POPC   NC3 5183  43.485  22.546   9.584
  172POPC   PO4 5184  44.056  22.251   9.393
  172POPC   GL1 5185  43.999  22.351   9.002
  172POPC   GL2 5186  43.650  22.400   9.083
  172POPC   C1A 5187  44.179  22.175   8.625
  172POPC   D2A 5188  43.968  21.948   8.289
  172POPC   C3A 5189  44.142  22.063   7.893
  172POPC   C4A 5190  44.274  22.099   7.465
  172POPC   C1B 5191  43.718  22.413   8.591
  172POPC   C2B 5192  43.723  22.368   8.148
  172POPC   C3B 5193  43.637  22.050   7.856
  172POPC   C4B 5194  43.639  22.075   7.400
  173POPC   NC3 5195  37.314  41.899   9.946
  173POPC   PO4 5196  37.830  41.722   9.523
  173POPC   GL1 5197  37.606  41.603   9.123
  173POPC   GL2 5198  37.314  41.349   9.120
  173POPC   C1A 5199  37.644  41.719   8.705
  173POPC   D2A 5200  37.435  41.728   8.315
  173POPC   C3A 5201  37.670  41.657   7.939
  173POPC   C4A 5202  37.629  41.623   7.492
  173POPC   C1B 5203  37.523  41.212   8.771
  173POPC   C2B 5204  37.698  41.275   8.382
  173POPC   C3B 5205  37.424  41.221   8.059
  173POPC   C4B 5206  37.597  41.129   7.656
  174POPC   NC3 5207   2.169   5.299   9.380
  174POPC   PO4 5208   2.389   5.913   9.405
  174POPC   GL1 5209   2.011   5.807   9.189
  174POPC   GL2 5210   1.792   6.124   9.199
  174POPC   C1A 5211   2.034   5.620   8.775
  174POPC   D2A 5212   1.864   5.464   8.386
  174POPC   C3A 5213   1.986   5.732   8.051
  174POPC   C4A 5214   2.075   5.473   7.714
  174POPC   C1B 5215   2.104   6.192   8.867
  174POPC   C2B 5216   2.210   6.124   8.429
  174POPC   C3B 5217   2.438   6.048   8.033
  174POPC   C4B 5218   2.282   5.933   7.663
  175POPC   NC3 5219  23.677   4.105   9.509
  175POPC   PO4 5220  23.721   4.712   9.310
  175POPC   GL1 5221  23.708   4.352   9.064
  175POPC   GL2 5222  24.018   4.135   9.121
  175POPC   C1A 5223  23.451   4.282   8.700
  175POPC   D2A 5224  23.562   4.153   8.275
  175POPC   C3A 5225  23.636   4.472   7.927
  175POPC   C4A 5226  23.522   4.401   7.486
  175POPC   C1B 5227  23.950   4.129   8.676
  175POPC   C2B 5228  24.100   4.312   8.297
  175POPC   C3B 5229  23.989   4.099   7.937
  175POPC   C4B 5230  23.884   3.914   7.581
  176POPC   NC3 5231  36.171   8.368   9.573
  176POPC   PO4 5232  35.890   7.816   9.393
  176POPC   GL1 5233  35.963   8.122   9.082
  176POPC   GL2 5234  36.296   8.248   9.096
  176POPC   C1A 5235  36.093   8.190   8.632
  176POPC   D2A 5236  36.295   8.369   8.287
  176POPC   C3A 5237  36.164   8.274   7.887
  176POPC   C4A 5238  36.296   8.365   7.467
  176POPC   C1B 5239  36.027   8.608   8.927
  176POPC   C2B 5240  35.973   8.735   8.509
  176POPC   C3B 5241  35.835   8.672   8.080
  176POPC   C4B 5242  35.786   8.538   7.654
  177POPC   NC3 5243   2.870  27.358   9.568
  177POPC   PO4 5244   2.463  27.823   9.484
  177POPC   GL1 5245   2.705  27.793   9.115
  177POPC   GL2 5246   2.984  27.561   9.122
  177POPC   C1A 5247   2.793  27.800   8.679
  177POPC   D2A 5248   2.486  27.661   8.407
  177POPC   C3A 5249   2.564  27.597   7.987
  177POPC   C4A 5250   2.361  27.834   7.689
  177POPC   C1B 5251   3.149  27.440   8.710
  177POPC   C2B 5252   2.980  27.475   8.289
  177POPC   C3B 5253   2.959  27.264   7.883
  177POPC   C4B 5254   2.909  27.184   7.440
  178POPC   NC3 5255  22.792  23.982   9.345
  178POPC   PO4 5256  23.332  23.715   9.604
  178POPC   GL1 5257  23.257  23.730   9.178
  178POPC   GL2 5258  22.978  23.508   9.143
  178POPC   C1A 5259  23.323  23.618   8.749
  178POPC   D2A 5260  23.135  23.832   8.405
  178POPC   C3A 5261  23.333  23.940   8.025
  178POPC   C4A 5262  23.104  23.752   7.683
  178POPC   C1B 5263  22.775  23.698   8.761
  178POPC   C2B 5264  22.668  23.531   8.355
  178POPC   C3B 5265  22.724  23.636   7.968
  178POPC   C4B 5266  22.695  23.415   7.566
  179POPC   NC3 5267   5.359  40.480   9.373
  179POPC   PO4 5268   5.636  41.089   9.481
  179POPC   GL1 5269   5.253  40.975   9.193
  179POPC   GL2 5270   4.978  40.687   9.111
  179POPC   C1A 5271   5.086  41.096   8.795
  179POPC   D2A 5272   5.047  40.825   8.471
  179POPC   C3A 5273   5.164  40.918   8.014
  179POPC   C4A 5274   5.287  40.887   7.558
  179POPC   C1B 5275   4.599  40.806   8.873
  179POPC   C2B 5276   4.521  40.831   8.447
  179POPC   C3B 5277   4.762  40.600   8.128
  179POPC   C4B 5278   4.922  40.569   7.749
  180POPC   NC3 5279  15.003  30.398   9.414
  180POPC   PO4 5280  15.329  29.811   9.522
  180POPC   GL1 5281  15.216  29.987   9.139
  180POPC   GL2 5282  15.349  30.334   9.046
  180POPC   C1A 5283  15.177  29.760   8.759
  180POPC   D2A 5284  15.147  29.534   8.385
  180POPC   C3A 5285  15.029  29.771   8.019
  180POPC   C4A 5286  15.198  29.795   7.612
  180POPC   C1B 5287  15.583  30.082   8.791
  180POPC   C2B 5288  15.555  29.879   8.416
  180POPC   C3B 5289  15.453  30.055   8.024
  180POPC   C4B 5290  15.089  30.272   7.801
  181POPC   NC3 5291  40.893   2.173   9.406
  181POPC   PO4 5292  40.473   1.706   9.581
  181POPC   GL1 5293  40.601   1.800   9.173
  181POPC   GL2 5294  40.395   2.076   9.164
  181POPC   C1A 5295  40.743   1.684   8.752
  181POPC   D2A 5296  41.092   1.651   8.447
  181POPC   C3A 5297  40.942   1.746   8.055
  181POPC   C4A 5298  40.856   1.815   7.630
  181POPC   C1B 5299  40.608   2.186   8.812
  181POPC   C2B 5300  40.801   2.113   8.422
  181POPC   C3B 5301  40.655   2.177   8.005
  181POPC   C4B 5302  40.321   2.415   7.767
  182POPC   NC3 5303  28.847   5.748   9.416
  182POPC   PO4 5304  29.481   5.916   9.439
  182POPC   GL1 5305  29.186   6.077   9.134
  182POPC   GL2 5306  29.057   5.845   8.970
  182POPC   C1A 5307  29.267   6.178   8.679
  182POPC   D2A 5308  29.037   5.891   8.393
  182POPC   C3A 5309  29.091   6.002   7.970
  182POPC   C4A 5310  29.033   6.240   7.606
  182POPC   C1B 5311  28.825   5.555   8.765
  182POPC   C2B 5312  28.808   5.406   8.387
  182POPC   C3B 5313  28.917   5.514   7.996
  182POPC   C4B 5314  28.896   5.718   7.623
  183POPC   NC3 5315  15.365   4.086   9.543
  183POPC   PO4 5316  15.083   4.709   9.517
  183POPC   GL1 5317  15.162   4.417   9.207
  183POPC   GL2 5318  14.941   4.177   9.168
  183POPC   C1A 5319  15.218   4.331   8.774
  183POPC   D2A 5320  15.125   4.620   8.479
  183POPC   C3A 5321  15.215   4.446   8.078
  183POPC   C4A 5322  14.946   4.441   7.703
  183POPC   C1B 5323  14.772   3.991   8.795
  183POPC   C2B 5324  14.746   3.874   8.370
  183POPC   C3B 5325  14.943   4.004   7.991
  183POPC   C4B 5326  14.753   3.976   7.606
  184POPC   NC3 5327  40.515  39.281   9.239
  184POPC   PO4 5328  39.911  39.205   9.579
  184POPC   GL1 5329  39.752  39.175   9.163
  184POPC   GL2 5330  40.026  39.376   9.091
  184POPC   C1A 5331  39.733  39.281   8.697
  184POPC   D2A 5332  39.752  39.396   8.269
  184POPC   C3A 5333  39.700  39.027   8.002
  184POPC   C4A 5334  39.854  38.993   7.549
  184POPC   C1B 5335  40.239  39.371   8.690
  184POPC   C2B 5336  40.304  39.501   8.326
  184POPC   C3B 5337  40.202  39.337   7.977
  184POPC   C4B 5338  40.189  39.566   7.670
  185POPC   NC3 5339  13.742   7.534   9.682
  185POPC   PO4 5340  13.311   7.166   9.267
  185POPC   GL1 5341  13.660   7.345   9.051
  185POPC   GL2 5342  13.918   7.598   9.185
  185POPC   C1A 5343  13.659   7.356   8.626
  185POPC   D2A 5344  13.690   7.101   8.268
  185POPC   C3A 5345  13.593   7.314   7.953
  185POPC   C4A 5346  13.418   7.170   7.591
  185POPC   C1B 5347  13.904   7.805   8.757
  185POPC   C2B 5348  13.981   7.602   8.318
  185POPC   C3B 5349  13.979   7.614   7.869
  185POPC   C4B 5350  13.989   7.628   7.400
  186POPC   NC3 5351  19.285   4.925   9.506
  186POPC   PO4 5352  18.916   5.487   9.547
  186POPC   GL1 5353  19.095   5.254   9.180
  186POPC   GL2 5354  18.896   4.944   9.180
  186POPC   C1A 5355  19.205   5.024   8.780
  186POPC   D2A 5356  19.390   4.933   8.371
  186POPC   C3A 5357  19.152   5.025   8.002
  186POPC   C4A 5358  19.202   5.025   7.555
  186POPC   C1B 5359  18.700   5.239   8.882
  186POPC   C2B 5360  18.499   5.200   8.516
  186POPC   C3B 5361  18.604   5.190   8.096
  186POPC   C4B 5362  18.713   5.097   7.681
  187POPC   NC3 5363  20.192  40.464   9.440
  187POPC   PO4 5364  20.598  40.990   9.483
  187POPC   GL1 5365  20.411  40.823   9.159
  187POPC   GL2 5366  20.066  40.945   9.240
  187POPC   C1A 5367  20.624  40.806   8.784
  187POPC   D2A 5368  20.851  40.967   8.438
  187POPC   C3A 5369  20.832  40.728   8.050
  187POPC   C4A 5370  20.927  40.876   7.646
  187POPC   C1B 5371  20.169  41.090   8.804
  187POPC   C2B 5372  20.292  40.956   8.391
  187POPC   C3B 5373  20.320  40.813   7.962
  187POPC   C4B 5374  20.445  41.087   7.650
  188POPC   NC3 5375  27.118  43.931   9.377
  188POPC   PO4 5376  26.649  43.746   9.770
  188POPC   GL1 5377  26.651  43.714   9.224
  188POPC   GL2 5378  26.887  43.557   9.077
  188POPC   C1A 5379  26.664  43.946   8.787
  188POPC   D2A 5380  26.888  44.059   8.386
  188POPC   C3A 5381  26.653  44.013   7.994
  188POPC   C4A 5382  26.795  43.625   7.841
  188POPC   C1B 5383  27.038  43.619   8.670
  188POPC   C2B 5384  27.360  43.521   8.378
  188POPC   C3B 5385  27.318  43.669   7.964
  188POPC   C4B 5386  27.139  44.111   7.847
  189POPC   NC3 5387  36.713  41.424   9.490
  189POPC   PO4 5388  37.292  41.714   9.515
  189POPC   GL1 5389  37.029  41.769   9.162
  189POPC   GL2 5390  36.688  41.674   9.042
  189POPC   C1A 5391  37.125  41.624   8.747
  189POPC   D2A 5392  37.007  41.400   8.394
  189POPC   C3A 5393  37.028  41.628   8.028
  189POPC   C4A 5394  37.186  41.484   7.662
  189POPC   C1B 5395  36.694  41.249   8.820
  189POPC   C2B 5396  36.507  41.120   8.407
  189POPC   C3B 5397  36.695  41.191   8.002
  189POPC   C4B 5398  36.670  41.514   7.683
  190POPC   NC3 5399  34.509   1.616   9.411
  190POPC   PO4 5400  34.854   2.242   9.473
  190POPC   GL1 5401  34.713   2.028   9.100
  190POPC   GL2 5402  34.939   1.728   9.075
  190POPC   C1A 5403  34.383   2.137   8.756
  190POPC   D2A 5404  34.158   1.951   8.400
  190POPC   C3A 5405  34.380   1.884   7.999
  190POPC   C4A 5406  34.532   2.020   7.614
  190POPC   C1B 5407  35.049   1.909   8.680
  190POPC   C2B 5408  34.779   2.027   8.314
  190POPC   C3B 5409  34.937   2.108   7.895
  190POPC   C4B 5410  34.993   2.090   7.435
  191POPC   NC3 5411  22.095  33.309   9.488
  191POPC   PO4 5412  21.958  33.961   9.531
  191POPC   GL1 5413  22.082  33.957   9.149
  191POPC   GL2 5414  21.938  33.630   9.099
  191POPC   C1A 5415  22.289  33.866   8.779
  191POPC   D2A 5416  22.198  33.880   8.390
  191POPC   C3A 5417  22.534  33.962   8.104
  191POPC   C4A 5418  22.414  33.985   7.674
  191POPC   C1B 5419  22.034  33.439   8.704
  191POPC   C2B 5420  22.232  33.372   8.327
  191POPC   C3B 5421  22.200  33.588   7.976
  191POPC   C4B 5422  22.227  33.514   7.570
  192POPC   NC3 5423  36.723  12.064   9.438
  192POPC   PO4 5424  37.373  12.030   9.473
  192POPC   GL1 5425  37.125  12.109   9.116
  192POPC   GL2 5426  36.877  11.854   8.992
  192POPC   C1A 5427  37.211  12.237   8.710
  192POPC   D2A 5428  37.030  12.084   8.363
  192POPC   C3A 5429  37.158  12.181   7.972
  192POPC   C4A 5430  37.445  11.953   7.783
  192POPC   C1B 5431  36.707  12.255   8.809
  192POPC   C2B 5432  36.735  12.478   8.437
  192POPC   C3B 5433  36.675  12.340   8.005
  192POPC   C4B 5434  36.642  12.327   7.549
  193POPC   NC3 5435  36.281  37.659   9.574
  193POPC   PO4 5436  35.691  37.981   9.444
  193POPC   GL1 5437  36.033  37.867   9.128
  193POPC   GL2 5438  36.393  37.754   9.096
  193POPC   C1A 5439  36.108  37.858   8.670
  193POPC   D2A 5440  35.947  37.800   8.251
  193POPC   C3A 5441  36.193  37.755   7.879
  193POPC   C4A 5442  36.251  38.047   7.582
  193POPC   C1B 5443  36.565  37.548   8.710
  193POPC   C2B 5444  36.370  37.514   8.314
  193POPC   C3B 5445  36.400  37.286   7.920
  193POPC   C4B 5446  36.618  37.467   7.579
  194POPC   NC3 5447   9.890   9.097   9.770
  194POPC   PO4 5448   9.389   8.694   9.601
  194POPC   GL1 5449   9.685   8.883   9.264
  194POPC   GL2 5450   9.677   9.220   9.240
  194POPC   C1A 5451   9.823   8.823   8.820
  194POPC   D2A 5452   9.725   8.631   8.385
  194POPC   C3A 5453   9.869   8.842   8.004
  194POPC   C4A 5454   9.788   9.040   7.591
  194POPC   C1B 5455   9.522   9.267   8.828
  194POPC   C2B 5456   9.678   9.154   8.433
  194POPC   C3B 5457   9.568   9.250   8.029
  194POPC   C4B 5458   9.559   9.572   7.780
  195POPC   NC3 5459  36.218  21.198   9.731
  195POPC   PO4 5460  35.917  21.741   9.467
  195POPC   GL1 5461  36.073  21.382   9.251
  195POPC   GL2 5462  36.346  21.469   9.041
  195POPC   C1A 5463  36.104  21.015   8.936
  195POPC   D2A 5464  36.025  20.905   8.493
  195POPC   C3A 5465  36.180  21.135   8.142
  195POPC   C4A 5466  36.152  21.070   7.706
  195POPC   C1B 5467  36.295  21.775   8.710
  195POPC   C2B 5468  36.099  21.658   8.355
  195POPC   C3B 5469  36.232  21.733   8.003
  195POPC   C4B 5470  36.295  21.543   7.657
  196POPC   NC3 5471  32.571  37.487   9.346
  196POPC   PO4 5472  32.068  37.735   9.642
  196POPC   GL1 5473  31.996  37.547   9.224
  196POPC   GL2 5474  32.237  37.701   9.046
  196POPC   C1A 5475  31.979  37.294   8.807
  196POPC   D2A 5476  32.192  37.180   8.389
  196POPC   C3A 5477  32.291  37.532   8.088
  196POPC   C4A 5478  32.118  37.620   7.669
  196POPC   C1B 5479  32.344  37.664   8.611
  196POPC   C2B 5480  32.536  37.931   8.275
  196POPC   C3B 5481  32.463  38.013   7.811
  196POPC   C4B 5482  32.501  37.839   7.409
  197POPC   NC3 5483  43.497  33.090   9.285
  197POPC   PO4 5484  43.990  33.429   9.556
  197POPC   GL1 5485  44.048  33.242   9.185
  197POPC   GL2 5486  43.982  32.867   9.216
  197POPC   C1A 5487  44.100  33.098   8.787
  197POPC   D2A 5488  43.849  33.089   8.422
  197POPC   C3A 5489  43.985  33.048   8.001
  197POPC   C4A 5490  43.627  32.988   7.712
  197POPC   C1B 5491  43.782  32.705   8.819
  197POPC   C2B 5492  43.980  32.610   8.422
  197POPC   C3B 5493  43.803  32.571   8.006
  197POPC   C4B 5494  44.010  32.695   7.584
  198POPC   NC3 5495  44.309  28.067   9.647
  198POPC   PO4 5496  44.839  28.393   9.534
  198POPC   GL1 5497  44.800  28.255   9.150
  198POPC   GL2 5498  44.470  28.215   9.146
  198POPC   C1A 5499  44.747  28.482   8.778
  198POPC   D2A 5500  44.518  28.511   8.398
  198POPC   C3A 5501  44.627  28.370   7.988
  198POPC   C4A 5502  44.490  28.618   7.635
  198POPC   C1B 5503  44.533  28.017   8.726
  198POPC   C2B 5504  44.270  28.042   8.354
  198POPC   C3B 5505  44.388  27.902   7.970
  198POPC   C4B 5506  44.796  27.933   7.810
  199POPC   NC3 5507  19.525   2.583   9.427
  199POPC   PO4 5508  19.222   3.113   9.209
  199POPC   GL1 5509  19.158   2.707   9.026
  199POPC   GL2 5510  18.797   2.546   9.049
  199POPC   C1A 5511  19.186   2.657   8.600
  199POPC   D2A 5512  19.069   3.003   8.294
  199POPC   C3A 5513  19.126   2.799   7.895
  199POPC   C4A 5514  19.269   2.338   7.819
  199POPC   C1B 5515  18.737   2.857   8.723
  199POPC   C2B 5516  18.734   2.628   8.306
  199POPC   C3B 5517  18.627   2.701   7.867
  199POPC   C4B 5518  18.743   2.979   7.498
  200POPC   NC3 5519  22.742   2.509   9.866
  200POPC   PO4 5520  23.158   3.085   9.665
  200POPC   GL1 5521  23.214   3.078   9.153
  200POPC   GL2 5522  22.989   2.752   8.991
  200POPC   C1A 5523  23.256   3.039   8.689
  200POPC   D2A 5524  23.021   2.749   8.442
  200POPC   C3A 5525  23.187   2.702   8.035
  200POPC   C4A 5526  23.194   2.883   7.649
  200POPC   C1B 5527  22.607   2.638   8.744
  200POPC   C2B 5528  22.530   2.536   8.340
  200POPC   C3B 5529  22.692   2.659   7.928
  200POPC   C4B 5530  22.624   2.547   7.487
  201POPC   NC3 5531  18.288  38.006   9.449
  201POPC   PO4 5532  18.089  37.365   9.527
  201POPC   GL1 5533  18.313  37.555   9.186
  201POPC   GL2 5534  17.989  37.659   9.127
  201POPC   C1A 5535  18.342  37.749   8.762
  201POPC   D2A 5536  18.550  37.617   8.393
  201POPC   C3A 5537  18.377  37.680   8.006
  201POPC   C4A 5538  18.521  37.829   7.655
  201POPC   C1B 5539  17.985  37.385   8.760
  201POPC   C2B 5540  18.070  37.451   8.332
  201POPC   C3B 5541  17.986  37.331   7.892
  201POPC   C4B 5542  18.082  37.603   7.541
  202POPC   NC3 5543  32.029  32.873   9.470
  202POPC   PO4 5544  32.499  33.264   9.760
  202POPC   GL1 5545  32.398  33.157   9.269
  202POPC   GL2 5546  32.655  33.094   9.031
  202POPC   C1A 5547  32.212  32.866   8.877
  202POPC   D2A 5548  32.269  32.539   8.552
  202POPC   C3A 5549  32.270  32.743   8.141
  202POPC   C4A 5550  31.901  32.761   7.848
  202POPC   C1B 5551  32.583  32.998   8.573
  202POPC   C2B 5552  32.828  33.061   8.239
  202POPC   C3B 5553  32.664  33.224   7.896
  202POPC   C4B 5554  32.318  33.036   7.661
  203POPC   NC3 5555  21.944   1.896   9.511
  203POPC   PO4 5556  21.332   2.221   9.438
  203POPC   GL1 5557  21.366   1.868   9.201
  203POPC   GL2 5558  21.660   2.022   9.109
  203POPC   C1A 5559  21.347   1.802   8.756
  203POPC   D2A 5560  21.376   2.113   8.414
  203POPC   C3A 5561  21.360   1.930   8.012
  203POPC   C4A 5562  21.162   1.548   7.861
  203POPC   C1B 5563  21.787   2.113   8.745
  203POPC   C2B 5564  21.964   1.966   8.409
  203POPC   C3B 5565  21.879   2.047   8.026
  203POPC   C4B 5566  21.721   2.178   7.696
  204POPC   NC3 5567  42.815  27.709   9.544
  204POPC   PO4 5568  43.414  27.352   9.484
  204POPC   GL1 5569  43.175  27.594   9.209
  204POPC   GL2 5570  42.959  27.402   9.037
  204POPC   C1A 5571  43.252  27.771   8.774
  204POPC   D2A 5572  43.537  27.715   8.431
  204POPC   C3A 5573  43.381  27.795   8.000
  204POPC   C4A 5574  43.259  27.937   7.577
  204POPC   C1B 5575  43.263  27.295   8.644
  204POPC   C2B 5576  43.186  27.364   8.198
  204POPC   C3B 5577  43.049  27.437   7.774
  204POPC   C4B 5578  42.838  27.206   7.438
  205POPC   NC3 5579  38.153   1.303   9.607
  205POPC   PO4 5580  38.649   0.895   9.576
  205POPC   GL1 5581  38.362   1.065   9.216
  205POPC   GL2 5582  38.343   1.441   9.159
  205POPC   C1A 5583  38.371   1.140   8.763
  205POPC   D2A 5584  38.569   1.405   8.476
  205POPC   C3A 5585  38.549   1.140   8.128
  205POPC   C4A 5586  38.655   1.289   7.751
  205POPC   C1B 5587  38.148   1.600   8.765
  205POPC   C2B 5588  38.084   1.437   8.367
  205POPC   C3B 5589  38.310   1.589   7.990
  205POPC   C4B 5590  38.325   1.599   7.505
  206POPC   NC3 5591  13.022   7.527   9.320
  206POPC   PO4 5592  12.419   7.241   9.448
  206POPC   GL1 5593  12.539   7.528   9.102
  206POPC   GL2 5594  12.707   7.871   9.041
  206POPC   C1A 5595  12.748   7.402   8.723
  206POPC   D2A 5596  12.821   7.500   8.306
  206POPC   C3A 5597  12.642   7.229   8.040
  206POPC   C4A 5598  12.730   7.514   7.736
  206POPC   C1B 5599  13.068   7.793   8.721
  206POPC   C2B 5600  13.306   7.643   8.357
  206POPC   C3B 5601  13.198   7.627   7.920
  206POPC   C4B 5602  13.512   7.693   7.596
  207POPC   NC3 5603   4.696  19.899   9.849
  207POPC   PO4 5604   4.143  19.906   9.492
  207POPC   GL1 5605   4.465  19.923   9.176
  207POPC   GL2 5606   4.221  19.688   8.982
  207POPC   C1A 5607   4.667  19.792   8.799
  207POPC   D2A 5608   4.421  19.800   8.457
  207POPC   C3A 5609   4.555  19.805   8.049
  207POPC   C4A 5610   4.224  19.724   7.772
  207POPC   C1B 5611   4.040  20.029   8.713
  207POPC   C2B 5612   4.033  20.071   8.248
  207POPC   C3B 5613   3.854  20.060   7.836
  207POPC   C4B 5614   4.116  20.204   7.506
  208POPC   NC3 5615  12.329  36.729   9.475
  208POPC   PO4 5616  11.837  37.201   9.491
  208POPC   GL1 5617  12.070  37.040   9.162
  208POPC   GL2 5618  12.399  37.171   9.212
  208POPC   C1A 5619  12.063  36.871   8.763
  208POPC   D2A 5620  11.746  36.853   8.459
  208POPC   C3A 5621  11.941  36.894   8.060
  208POPC   C4A 5622  12.005  37.012   7.662
  208POPC   C1B 5623  12.322  37.311   8.787
  208POPC   C2B 5624  12.401  37.079   8.407
  208POPC   C3B 5625  12.357  37.212   7.993
  208POPC   C4B 5626  12.324  37.418   7.617
  209POPC   NC3 5627  24.427  30.144   9.246
  209POPC   PO4 5628  24.624  29.539   9.491
  209POPC   GL1 5629  24.490  29.680   9.043
  209POPC   GL2 5630  24.150  29.837   8.962
  209POPC   C1A 5631  24.577  29.945   8.638
  209POPC   D2A 5632  24.830  29.798   8.265
  209POPC   C3A 5633  24.764  30.048   7.905
  209POPC   C4A 5634  24.506  29.853   7.626
  209POPC   C1B 5635  24.136  29.747   8.533
  209POPC   C2B 5636  24.329  29.970   8.176
  209POPC   C3B 5637  24.139  30.127   7.820
  209POPC   C4B 5638  24.005  29.826   7.533
  210POPC   NC3 5639   5.415  27.445   9.389
  210POPC   PO4 5640   4.768  27.309   9.626
  210POPC   GL1 5641   4.936  27.340   9.160
  210POPC   GL2 5642   5.069  27.627   9.073
  210POPC   C1A 5643   4.917  27.409   8.670
  210POPC   D2A 5644   5.040  27.152   8.343
  210POPC   C3A 5645   5.336  27.236   8.032
  210POPC   C4A 5646   4.992  27.147   7.767
  210POPC   C1B 5647   5.395  27.563   8.709
  210POPC   C2B 5648   5.224  27.668   8.312
  210POPC   C3B 5649   5.096  27.883   7.949
  210POPC   C4B 5650   5.049  27.713   7.545
  211POPC   NC3 5651  20.336  16.064   9.540
  211POPC   PO4 5652  19.691  16.068   9.546
  211POPC   GL1 5653  19.736  15.961   9.117
  211POPC   GL2 5654  20.040  15.767   9.108
  211POPC   C1A 5655  19.798  16.050   8.659
  211POPC   D2A 5656  19.967  15.931   8.243
  211POPC   C3A 5657  19.700  16.126   7.950
  211POPC   C4A 5658  19.268  16.034   8.017
  211POPC   C1B 5659  20.028  15.587   8.701
  211POPC   C2B 5660  20.121  15.428   8.277
  211POPC   C3B 5661  20.165  15.576   7.852
  211POPC   C4B 5662  20.293  15.840   7.475
  212POPC   NC3 5663  24.132   0.161   9.758
  212POPC   PO4 5664  23.594   0.495   9.496
  212POPC   GL1 5665  23.610   0.367   9.081
  212POPC   GL2 5666  23.889   0.526   8.956
  212POPC   C1A 5667  23.561   0.322   8.614
  212POPC   D2A 5668  23.315   0.491   8.247
  212POPC   C3A 5669  23.610   0.545   7.914
  212POPC   C4A 5670  23.942   0.238   7.868
  212POPC   C1B 5671  23.814   0.819   8.719
  212POPC   C2B 5672  23.849   0.689   8.341
  212POPC   C3B 5673  24.038   0.838   7.995
  212POPC   C4B 5674  23.926   0.823   7.601
  213POPC   NC3 5675  34.754  11.534   9.944
  213POPC   PO4 5676  34.897  10.884   9.637
  213POPC   GL1 5677  34.626  11.088   9.216
  213POPC   GL2 5678  34.266  11.138   9.058
  213POPC   C1A 5679  34.626  11.231   8.717
  213POPC   D2A 5680  34.327  11.297   8.339
  213POPC   C3A 5681  34.563  11.340   7.966
  213POPC   C4A 5682  34.607  11.130   7.592
  213POPC   C1B 5683  34.253  11.559   8.782
  213POPC   C2B 5684  34.102  11.756   8.379
  213POPC   C3B 5685  34.289  11.783   7.977
  213POPC   C4B 5686  34.283  11.692   7.540
  214POPC   NC3 5687  41.812  20.989   9.874
  214POPC   PO4 5688  41.370  20.727   9.402
  214POPC   GL1 5689  41.686  20.639   9.091
  214POPC   GL2 5690  41.411  20.633   8.888
  214POPC   C1A 5691  41.852  20.572   8.659
  214POPC   D2A 5692  41.502  20.742   8.379
  214POPC   C3A 5693  41.448  20.600   7.955
  214POPC   C4A 5694  41.790  20.601   7.651
  214POPC   C1B 5695  41.253  20.298   8.656
  214POPC   C2B 5696  41.091  20.316   8.277
  214POPC   C3B 5697  41.162  20.161   7.890
  214POPC   C4B 5698  41.137  20.441   7.548
  215POPC   NC3 5699  14.792  33.206   9.571
  215POPC   PO4 5700  14.208  32.930   9.529
  215POPC   GL1 5701  14.230  33.019   9.121
  215POPC   GL2 5702  14.586  32.951   9.172
  215POPC   C1A 5703  14.143  33.087   8.678
  215POPC   D2A 5704  14.363  33.319   8.356
  215POPC   C3A 5705  14.376  33.053   8.004
  215POPC   C4A 5706  14.215  33.110   7.611
  215POPC   C1B 5707  14.639  33.104   8.770
  215POPC   C2B 5708  14.871  33.196   8.415
  215POPC   C3B 5709  14.807  33.323   7.988
  215POPC   C4B 5710  14.709  33.194   7.600
  216POPC   NC3 5711  15.776  30.396   9.351
  216POPC   PO4 5712  16.317  30.853   9.428
  216POPC   GL1 5713  16.123  30.692   9.079
  216POPC   GL2 5714  15.823  30.820   9.086
  216POPC   C1A 5715  16.143  30.562   8.652
  216POPC   D2A 5716  15.981  30.822   8.324
  216POPC   C3A 5717  16.036  30.606   7.952
  216POPC   C4A 5718  16.258  30.728   7.615
  216POPC   C1B 5719  15.771  31.098   8.736
  216POPC   C2B 5720  15.510  31.043   8.373
  216POPC   C3B 5721  15.588  31.095   7.920
  216POPC   C4B 5722  15.452  31.114   7.475
  217POPC   NC3 5723  31.186   1.453   9.454
  217POPC   PO4 5724  31.041   0.768   9.507
  217POPC   GL1 5725  31.234   1.018   9.138
  217POPC   GL2 5726  31.554   0.873   8.996
  217POPC   C1A 5727  31.412   1.337   8.802
  217POPC   D2A 5728  31.680   1.225   8.443
  217POPC   C3A 5729  31.669   1.382   8.021
  217POPC   C4A 5730  31.570   1.144   7.655
  217POPC   C1B 5731  31.257   0.878   8.655
  217POPC   C2B 5732  31.290   0.807   8.252
  217POPC   C3B 5733  31.355   0.730   7.837
  217POPC   C4B 5734  31.114   0.918   7.521
  218POPC   NC3 5735   9.557  32.534   9.452
  218POPC   PO4 5736  10.154  32.970   9.451
  218POPC   GL1 5737   9.938  33.006   9.079
  218POPC   GL2 5738   9.645  32.984   9.197
  218POPC   C1A 5739  10.035  33.056   8.643
  218POPC   D2A 5740  10.156  33.111   8.223
  218POPC   C3A 5741   9.876  32.887   7.966
  218POPC   C4A 5742  10.021  33.078   7.603
  218POPC   C1B 5743   9.455  32.955   8.806
  218POPC   C2B 5744   9.371  33.027   8.366
  218POPC   C3B 5745   9.358  33.065   7.914
  218POPC   C4B 5746   9.547  32.899   7.547
  219POPC   NC3 5747   0.308   8.510   9.472
  219POPC   PO4 5748   0.844   8.137   9.442
  219POPC   GL1 5749   0.571   8.283   9.083
  219POPC   GL2 5750   0.168   8.240   9.069
  219POPC   C1A 5751   0.692   8.463   8.670
  219POPC   D2A 5752   0.649   8.513   8.223
  219POPC   C3A 5753   0.663   8.138   7.968
  219POPC   C4A 5754   0.651   8.318   7.554
  219POPC   C1B 5755   0.327   8.036   8.709
  219POPC   C2B 5756   0.305   8.161   8.330
  219POPC   C3B 5757   0.181   8.250   7.937
  219POPC   C4B 5758   0.284   7.863   7.721
  220POPC   NC3 5759  32.709  14.910   9.452
  220POPC   PO4 5760  33.300  15.170   9.411
  220POPC   GL1 5761  33.080  15.050   9.080
  220POPC   GL2 5762  32.827  15.310   9.128
  220POPC   C1A 5763  33.352  15.025   8.718
  220POPC   D2A 5764  33.291  15.145   8.305
  220POPC   C3A 5765  32.873  15.067   8.193
  220POPC   C4A 5766  32.806  15.063   7.770
  220POPC   C1B 5767  33.044  15.469   8.759
  220POPC   C2B 5768  32.939  15.548   8.326
  220POPC   C3B 5769  33.066  15.497   7.899
  220POPC   C4B 5770  32.893  15.720   7.541
  221POPC   NC3 5771   8.370  37.004   9.473
  221POPC   PO4 5772   7.918  36.548   9.477
  221POPC   GL1 5773   8.180  36.723   9.106
  221POPC   GL2 5774   8.103  37.098   9.056
  221POPC   C1A 5775   8.450  36.774   8.732
  221POPC   D2A 5776   8.432  36.611   8.301
  221POPC   C3A 5777   8.414  36.845   7.910
  221POPC   C4A 5778   8.384  36.578   7.560
  221POPC   C1B 5779   7.961  36.937   8.668
  221POPC   C2B 5780   8.006  36.905   8.240
  221POPC   C3B 5781   7.887  37.012   7.845
  221POPC   C4B 5782   8.104  36.986   7.444
  222POPC   NC3 5783  10.081  12.522   9.462
  222POPC   PO4 5784  10.049  13.243   9.537
  222POPC   GL1 5785   9.825  12.937   9.254
  222POPC   GL2 5786   9.693  13.147   9.012
  222POPC   C1A 5787   9.810  12.692   8.839
  222POPC   D2A 5788   9.967  12.825   8.425
  222POPC   C3A 5789   9.768  12.652   8.085
  222POPC   C4A 5790   9.702  12.688   7.663
  222POPC   C1B 5791   9.493  13.080   8.626
  222POPC   C2B 5792   9.553  13.109   8.212
  222POPC   C3B 5793   9.496  13.117   7.799
  222POPC   C4B 5794   9.322  13.368   7.500
  223POPC   NC3 5795  30.144  11.896   9.471
  223POPC   PO4 5796  29.808  12.501   9.509
  223POPC   GL1 5797  30.046  12.335   9.159
  223POPC   GL2 5798  29.892  12.029   9.081
  223POPC   C1A 5799  30.199  12.224   8.732
  223POPC   D2A 5800  30.047  12.349   8.340
  223POPC   C3A 5801  29.918  12.143   7.954
  223POPC   C4A 5802  29.974  12.296   7.504
  223POPC   C1B 5803  29.648  11.853   8.803
  223POPC   C2B 5804  29.732  11.902   8.397
  223POPC   C3B 5805  29.584  11.747   8.028
  223POPC   C4B 5806  29.596  11.863   7.633
  224POPC   NC3 5807  37.672  29.755   9.566
  224POPC   PO4 5808  37.556  30.416   9.602
  224POPC   GL1 5809  37.589  30.121   9.198
  224POPC   GL2 5810  37.392  29.799   9.164
  224POPC   C1A 5811  37.737  29.875   8.802
  224POPC   D2A 5812  37.950  29.924   8.389
  224POPC   C3A 5813  37.756  30.083   8.035
  224POPC   C4A 5814  37.567  29.719   7.857
  224POPC   C1B 5815  37.209  29.807   8.780
  224POPC   C2B 5816  37.409  29.707   8.406
  224POPC   C3B 5817  37.108  29.683   8.100
  224POPC   C4B 5818  37.079  29.687   7.684
  225POPC   NC3 5819  25.260  39.422   9.461
  225POPC   PO4 5820  25.077  38.787   9.610
  225POPC   GL1 5821  25.241  38.996   9.170
  225POPC   GL2 5822  25.537  38.840   8.980
  225POPC   C1A 5823  25.368  39.242   8.759
  225POPC   D2A 5824  25.195  39.074   8.361
  225POPC   C3A 5825  25.011  39.286   8.032
  225POPC   C4A 5826  25.082  39.463   7.623
  225POPC   C1B 5827  25.385  38.691   8.614
  225POPC   C2B 5828  25.677  38.805   8.283
  225POPC   C3B 5829  25.531  39.116   7.994
  225POPC   C4B 5830  25.237  38.977   7.684
  226POPC   NC3 5831  27.860   6.984   9.601
  226POPC   PO4 5832  27.572   7.410   9.307
  226POPC   GL1 5833  27.675   7.074   9.009
  226POPC   GL2 5834  27.331   6.928   8.958
  226POPC   C1A 5835  27.754   7.140   8.550
  226POPC   D2A 5836  27.707   7.589   8.402
  226POPC   C3A 5837  27.610   7.646   7.963
  226POPC   C4A 5838  27.690   7.339   7.660
  226POPC   C1B 5839  27.263   7.306   8.693
  226POPC   C2B 5840  27.179   7.629   8.386
  226POPC   C3B 5841  27.099   7.601   7.964
  226POPC   C4B 5842  27.197   7.318   7.690
  227POPC   NC3 5843  27.234   2.073   9.309
  227POPC   PO4 5844  26.691   1.638   9.422
  227POPC   GL1 5845  26.635   1.904   9.087
  227POPC   GL2 5846  26.755   2.241   9.149
  227POPC   C1A 5847  26.887   1.871   8.745
  227POPC   D2A 5848  27.164   2.038   8.432
  227POPC   C3A 5849  26.926   2.077   8.053
  227POPC   C4A 5850  26.644   1.848   7.806
  227POPC   C1B 5851  26.717   2.349   8.699
  227POPC   C2B 5852  26.509   2.351   8.276
  227POPC   C3B 5853  26.540   2.341   7.821
  227POPC   C4B 5854  26.738   2.180   7.420
  228POPC   NC3 5855  10.213  25.904   9.815
  228POPC   PO4 5856  10.827  25.932   9.499
  228POPC   GL1 5857  10.768  26.165   9.119
  228POPC   GL2 5858  10.426  26.115   9.180
  228POPC   C1A 5859  10.547  26.260   8.715
  228POPC   D2A 5860  10.353  26.307   8.339
  228POPC   C3A 5861  10.511  26.183   7.984
  228POPC   C4A 5862  10.373  25.966   7.629
  228POPC   C1B 5863  10.202  25.898   8.856
  228POPC   C2B 5864  10.289  25.808   8.448
  228POPC   C3B 5865  10.121  25.846   8.057
  228POPC   C4B 5866  10.156  25.522   7.757
  229POPC   NC3 5867  31.236  32.029   9.725
  229POPC   PO4 5868  31.649  32.588   9.479
  229POPC   GL1 5869  31.431  32.445   9.169
  229POPC   GL2 5870  31.541  32.124   9.230
  229POPC   C1A 5871  31.552  32.403   8.765
  229POPC   D2A 5872  31.348  32.269   8.408
  229POPC   C3A 5873  31.470  32.430   8.036
  229POPC   C4A 5874  31.575  32.208   7.653
  229POPC   C1B 5875  31.552  31.908   8.831
  229POPC   C2B 5876  31.428  31.759   8.435
  229POPC   C3B 5877  31.417  31.908   8.024
  229POPC   C4B 5878  31.549  31.694   7.638
  230POPC   NC3 5879   5.958  20.895   9.484
  230POPC   PO4 5880   5.621  20.351   9.533
  230POPC   GL1 5881   5.758  20.565   9.159
  230POPC   GL2 5882   6.096  20.464   9.026
  230POPC   C1A 5883   5.799  20.780   8.737
  230POPC   D2A 5884   5.682  20.588   8.329
  230POPC   C3A 5885   5.731  20.867   7.989
  230POPC   C4A 5886   5.573  20.802   7.599
  230POPC   C1B 5887   5.762  20.280   8.753
  230POPC   C2B 5888   5.461  20.112   8.456
  230POPC   C3B 5889   5.403  20.172   8.022
  230POPC   C4B 5890   5.670  20.263   7.674
  231POPC   NC3 5891  24.706  33.192   9.487
  231POPC   PO4 5892  24.276  32.738   9.569
  231POPC   GL1 5893  24.333  32.911   9.190
  231POPC   GL2 5894  24.673  32.817   9.133
  231POPC   C1A 5895  24.205  32.842   8.761
  231POPC   D2A 5896  24.245  33.175   8.447
  231POPC   C3A 5897  24.376  33.154   8.050
  231POPC   C4A 5898  24.403  32.854   7.739
  231POPC   C1B 5899  24.620  33.131   8.819
  231POPC   C2B 5900  24.785  33.102   8.436
  231POPC   C3B 5901  24.894  33.149   8.040
  231POPC   C4B 5902  24.704  33.246   7.671
  232POPC   NC3 5903  36.450  31.107   9.444
  232POPC   PO4 5904  36.912  31.643   9.390
  232POPC   GL1 5905  37.036  31.497   9.000
  232POPC   GL2 5906  36.694  31.339   8.957
  232POPC   C1A 5907  36.992  31.596   8.568
  232POPC   D2A 5908  36.596  31.689   8.347
  232POPC   C3A 5909  36.711  31.795   7.935
  232POPC   C4A 5910  37.029  31.464   7.801
  232POPC   C1B 5911  36.802  31.080   8.609
  232POPC   C2B 5912  36.636  30.909   8.248
  232POPC   C3B 5913  36.697  31.036   7.859
  232POPC   C4B 5914  36.518  31.376   7.729
  233POPC   NC3 5915  27.398   6.386   9.785
  233POPC   PO4 5916  27.467   5.763   9.480
  233POPC   GL1 5917  27.518   5.753   9.081
  233POPC   GL2 5918  27.856   5.700   9.107
  233POPC   C1A 5919  27.252   5.743   8.742
  233POPC   D2A 5920  27.188   5.960   8.352
  233POPC   C3A 5921  27.509   5.924   8.031
  233POPC   C4A 5922  27.406   5.874   7.600
  233POPC   C1B 5923  27.791   5.607   8.658
  233POPC   C2B 5924  27.908   5.618   8.213
  233POPC   C3B 5925  27.826   5.597   7.749
  233POPC   C4B 5926  27.759   5.670   7.286
  234POPC   NC3 5927  18.996  11.480   9.864
  234POPC   PO4 5928  19.030  12.023   9.382
  234POPC   GL1 5929  19.029  11.983   8.995
  234POPC   GL2 5930  19.281  11.762   8.946
  234POPC   C1A 5931  18.762  12.196   8.749
  234POPC   D2A 5932  18.677  12.389   8.397
  234POPC   C3A 5933  18.808  12.095   8.105
  234POPC   C4A 5934  18.961  11.935   7.682
  234POPC   C1B 5935  19.052  11.617   8.590
  234POPC   C2B 5936  19.038  11.631   8.125
  234POPC   C3B 5937  19.345  11.614   7.791
  234POPC   C4B 5938  19.231  11.635   7.357
  235POPC   NC3 5939  27.798  17.094   9.432
  235POPC   PO4 5940  27.389  16.591   9.665
  235POPC   GL1 5941  27.520  16.706   9.260
  235POPC   GL2 5942  27.836  16.542   9.226
  235POPC   C1A 5943  27.548  16.836   8.842
  235POPC   D2A 5944  27.554  16.600   8.459
  235POPC   C3A 5945  27.539  16.852   8.081
  235POPC   C4A 5946  27.584  16.663   7.688
  235POPC   C1B 5947  27.934  16.454   8.787
  235POPC   C2B 5948  27.942  16.254   8.359
  235POPC   C3B 5949  28.060  16.316   7.909
  235POPC   C4B 5950  28.118  16.503   7.510
  236POPC   NC3 5951  19.861  11.125   9.509
  236POPC   PO4 5952  19.380  11.531   9.615
  236POPC   GL1 5953  19.613  11.456   9.182
  236POPC   GL2 5954  19.878  11.194   9.025
  236POPC   C1A 5955  19.549  11.410   8.704
  236POPC   D2A 5956  19.764  11.180   8.387
  236POPC   C3A 5957  19.823  11.357   7.965
  236POPC   C4A 5958  20.066  11.108   7.664
  236POPC   C1B 5959  19.998  11.583   8.855
  236POPC   C2B 5960  20.089  11.602   8.413
  236POPC   C3B 5961  20.219  11.700   8.008
  236POPC   C4B 5962  20.079  11.663   7.587
  237POPC   NC3 5963  33.228  24.847   9.590
  237POPC   PO4 5964  32.882  24.256   9.507
  237POPC   GL1 5965  33.090  24.469   9.205
  237POPC   GL2 5966  32.909  24.768   9.175
  237POPC   C1A 5967  33.055  24.401   8.775
  237POPC   D2A 5968  32.878  24.189   8.438
  237POPC   C3A 5969  33.009  24.415   8.092
  237POPC   C4A 5970  32.990  24.256   7.677
  237POPC   C1B 5971  32.879  24.921   8.756
  237POPC   C2B 5972  32.762  24.832   8.322
  237POPC   C3B 5973  32.647  24.704   7.878
  237POPC   C4B 5974  32.825  24.652   7.442
  238POPC   NC3 5975  26.229  23.719   9.493
  238POPC   PO4 5976  25.583  23.605   9.411
  238POPC   GL1 5977  25.901  23.673   9.110
  238POPC   GL2 5978  26.136  23.385   9.121
  238POPC   C1A 5979  26.119  23.808   8.752
  238POPC   D2A 5980  25.886  23.654   8.409
  238POPC   C3A 5981  25.992  23.790   7.997
  238POPC   C4A 5982  25.829  23.478   7.742
  238POPC   C1B 5983  26.252  23.323   8.719
  238POPC   C2B 5984  26.370  23.469   8.348
  238POPC   C3B 5985  26.282  23.342   7.971
  238POPC   C4B 5986  26.390  23.575   7.649
  239POPC   NC3 5987  10.451  27.297   9.410
  239POPC   PO4 5988  10.828  27.670   9.797
  239POPC   GL1 5989  10.947  27.642   9.290
  239POPC   GL2 5990  10.896  27.288   9.138
  239POPC   C1A 5991  10.848  27.703   8.825
  239POPC   D2A 5992  10.553  27.562   8.487
  239POPC   C3A 5993  10.372  27.732   8.093
  239POPC   C4A 5994  10.515  27.919   7.685
  239POPC   C1B 5995  10.620  27.160   8.810
  239POPC   C2B 5996  10.628  27.072   8.390
  239POPC   C3B 5997  10.447  27.213   8.030
  239POPC   C4B 5998  10.629  27.396   7.712
  240POPC   NC3 5999  29.484  30.738   9.447
  240POPC   PO4 6000  28.754  30.598   9.664
  240POPC   GL1 6001  29.037  30.534   9.232
  240POPC   GL2 6002  29.327  30.301   9.160
  240POPC   C1A 6003  29.254  30.696   8.804
  240POPC   D2A 6004  29.181  30.721   8.327
  240POPC   C3A 6005  29.234  30.853   7.880
  240POPC   C4A 6006  29.333  30.650   7.490
  240POPC   C1B 6007  29.056  30.234   8.761
  240POPC   C2B 6008  28.953  30.261   8.296
  240POPC   C3B 6009  29.018  30.387   7.862
  240POPC   C4B 6010  28.835  30.693   7.576
  241POPC   NC3 6011  35.937  42.032   9.325
  241POPC   PO4 6012  36.455  42.554   9.357
  241POPC   GL1 6013  36.213  42.372   9.055
  241POPC   GL2 6014  36.295  42.018   8.928
  241POPC   C1A 6015  36.001  42.374   8.679
  241POPC   D2A 6016  36.092  42.196   8.280
  241POPC   C3A 6017  36.130  42.493   7.933
  241POPC   C4A 6018  36.085  42.662   7.480
  241POPC   C1B 6019  36.525  42.351   8.646
  241POPC   C2B 6020  36.578  42.378   8.177
  241POPC   C3B 6021  36.530  42.051   7.868
  241POPC   C4B 6022  36.564  41.945   7.425
  242POPC   NC3 6023   0.327  16.532   9.488
  242POPC   PO4 6024   0.790  17.080   9.478
  242POPC   GL1 6025   0.630  16.765   9.153
  242POPC   GL2 6026   0.585  16.389   9.086
  242POPC   C1A 6027   0.321  16.755   8.798
  242POPC   D2A 6028   0.385  17.083   8.486
  242POPC   C3A 6029   0.285  17.085   8.047
  242POPC   C4A 6030   0.423  16.913   7.671
  242POPC   C1B 6031   0.767  16.495   8.726
  242POPC   C2B 6032   0.535  16.593   8.343
  242POPC   C3B 6033   0.393  16.472   7.926
  242POPC   C4B 6034   0.653  16.328   7.574
  243POPC   NC3 6035  29.388  12.307   9.626
  243POPC   PO4 6036  29.653  11.654   9.556
  243POPC   GL1 6037  29.403  11.974   9.233
  243POPC   GL2 6038  29.493  12.333   9.138
  243POPC   C1A 6039  29.215  12.128   8.785
  243POPC   D2A 6040  29.231  12.021   8.342
  243POPC   C3A 6041  28.943  12.043   7.993
  243POPC   C4A 6042  29.111  11.720   7.770
  243POPC   C1B 6043  29.701  12.363   8.726
  243POPC   C2B 6044  29.553  12.404   8.287
  243POPC   C3B 6045  29.394  12.262   7.886
  243POPC   C4B 6046  29.479  12.359   7.450
  244POPC   NC3 6047  26.101  26.369   9.587
  244POPC   PO4 6048  26.470  25.876   9.522
  244POPC   GL1 6049  26.319  26.088   9.156
  244POPC   GL2 6050  25.966  26.128   9.172
  244POPC   C1A 6051  26.131  25.953   8.733
  244POPC   D2A 6052  26.104  26.148   8.319
  244POPC   C3A 6053  26.041  25.988   7.909
  244POPC   C4A 6054  26.054  26.121   7.449
  244POPC   C1B 6055  25.809  26.391   8.827
  244POPC   C2B 6056  25.649  26.351   8.418
  244POPC   C3B 6057  25.781  26.395   7.997
  244POPC   C4B 6058  25.602  26.189   7.623
  245POPC   NC3 6059   1.571   2.318   9.419
  245POPC   PO4 6060   0.983   1.906   9.383
  245POPC   GL1 6061   1.283   2.005   9.105
  245POPC   GL2 6062   1.192   2.349   9.085
  245POPC   C1A 6063   1.285   1.798   8.715
  245POPC   D2A 6064   1.281   1.527   8.333
  245POPC   C3A 6065   1.345   1.767   7.970
  245POPC   C4A 6066   1.401   1.941   7.562
  245POPC   C1B 6067   1.198   2.474   8.685
  245POPC   C2B 6068   0.977   2.435   8.311
  245POPC   C3B 6069   1.012   2.214   7.919
  245POPC   C4B 6070   1.090   2.346   7.490
  246POPC   NC3 6071   8.820  43.246   9.460
  246POPC   PO4 6072   9.506  43.096   9.482
  246POPC   GL1 6073   9.270  43.189   9.124
  246POPC   GL2 6074   8.998  42.917   9.111
  246POPC   C1A 6075   9.314  43.058   8.704
  246POPC   D2A 6076   9.043  42.979   8.376
  246POPC   C3A 6077   9.258  43.041   8.057
  246POPC   C4A 6078   9.298  42.876   7.705
  246POPC   C1B 6079   8.825  43.190   8.782
  246POPC   C2B 6080   8.541  43.217   8.422
  246POPC   C3B 6081   8.679  43.108   8.021
  246POPC   C4B 6082   8.805  42.710   7.821
  247POPC   NC3 6083  31.511   0.758   9.484
  247POPC   PO4 6084  31.281   0.049   9.568
  247POPC   GL1 6085  31.289   0.367   9.246
  247POPC   GL2 6086  31.667   0.378   9.158
  247POPC   C1A 6087  31.273   0.396   8.798
  247POPC   D2A 6088  31.508   0.357   8.371
  247POPC   C3A 6089  31.356   0.227   7.955
  247POPC   C4A 6090  31.492   0.333   7.503
  247POPC   C1B 6091  31.768   0.158   8.759
  247POPC   C2B 6092  31.996   0.129   8.338
  247POPC   C3B 6093  31.889   0.317   7.926
  247POPC   C4B 6094  31.839   0.682   7.651
  248POPC   NC3 6095   5.024   4.615   9.533
  248POPC   PO4 6096   5.113   5.305   9.439
  248POPC   GL1 6097   5.134   4.957   9.165
  248POPC   GL2 6098   4.866   4.761   9.094
  248POPC   C1A 6099   5.189   4.949   8.734
  248POPC   D2A 6100   5.281   5.200   8.423
  248POPC   C3A 6101   5.084   5.098   8.056
  248POPC   C4A 6102   4.943   5.323   7.726
  248POPC   C1B 6103   4.689   4.859   8.740
  248POPC   C2B 6104   4.780   4.797   8.334
  248POPC   C3B 6105   4.597   4.920   7.942
  248POPC   C4B 6106   4.783   4.870   7.557
  249POPC   NC3 6107   5.575   4.326   9.607
  249POPC   PO4 6108   5.978   3.894   9.450
  249POPC   GL1 6109   5.705   4.109   9.159
  249POPC   GL2 6110   5.607   4.452   9.121
  249POPC   C1A 6111   5.856   4.206   8.763
  249POPC   D2A 6112   5.920   4.415   8.428
  249POPC   C3A 6113   5.728   4.305   8.111
  249POPC   C4A 6114   5.935   4.312   7.754
  249POPC   C1B 6115   5.523   4.585   8.692
  249POPC   C2B 6116   5.571   4.797   8.263
  249POPC   C3B 6117   5.538   4.695   7.821
  249POPC   C4B 6118   5.710   4.592   7.411
  250POPC   NC3 6119   1.353   1.524   9.415
  250POPC   PO4 6120   1.045   0.843   9.424
  250POPC   GL1 6121   0.972   1.196   9.170
  250POPC   GL2 6122   1.315   1.129   9.076
  250POPC   C1A 6123   1.002   1.342   8.736
  250POPC   D2A 6124   1.028   1.058   8.380
  250POPC   C3A 6125   1.037   1.242   7.962
  250POPC   C4A 6126   1.123   1.483   7.603
  250POPC   C1B 6127   1.523   1.347   8.764
  250POPC   C2B 6128   1.696   1.206   8.394
  250POPC   C3B 6129   1.539   1.169   8.012
  250POPC   C4B 6130   1.417   1.043   7.631
  251POPC   NC3 6131  39.615  32.783   9.420
  251POPC   PO4 6132  40.029  33.289   9.534
  251POPC   GL1 6133  39.917  33.238   9.126
  251POPC   GL2 6134  39.617  33.399   9.062
  251POPC   C1A 6135  40.099  32.965   8.819
  251POPC   D2A 6136  40.041  32.747   8.448
  251POPC   C3A 6137  40.073  32.991   8.121
  251POPC   C4A 6138  40.224  32.854   7.751
  251POPC   C1B 6139  39.637  33.222   8.662
  251POPC   C2B 6140  39.569  32.946   8.315
  251POPC   C3B 6141  39.630  32.950   7.875
  251POPC   C4B 6142  39.821  33.261   7.627
  252POPC   NC3 6143  33.473   6.335   9.250
  252POPC   PO4 6144  34.075   6.758   9.432
  252POPC   GL1 6145  33.921   6.613   9.066
  252POPC   GL2 6146  33.803   6.924   8.885
  252POPC   C1A 6147  34.107   6.575   8.657
  252POPC   D2A 6148  33.864   6.721   8.324
  252POPC   C3A 6149  33.917   6.616   7.907
  252POPC   C4A 6150  34.018   6.582   7.476
  252POPC   C1B 6151  33.439   6.767   8.640
  252POPC   C2B 6152  33.361   6.646   8.240
  252POPC   C3B 6153  33.512   6.930   7.936
  252POPC   C4B 6154  33.642   6.977   7.531
  253POPC   NC3 6155  36.317  17.346   9.584
  253POPC   PO4 6156  35.767  17.770   9.530
  253POPC   GL1 6157  36.012  17.538   9.225
  253POPC   GL2 6158  36.398  17.602   9.149
  253POPC   C1A 6159  35.970  17.317   8.858
  253POPC   D2A 6160  35.890  17.493   8.448
  253POPC   C3A 6161  35.819  17.251   8.079
  253POPC   C4A 6162  35.817  17.444   7.679
  253POPC   C1B 6163  36.452  17.418   8.720
  253POPC   C2B 6164  36.404  17.456   8.269
  253POPC   C3B 6165  36.294  17.360   7.868
  253POPC   C4B 6166  36.279  17.376   7.417
  254POPC   NC3 6167  18.616  26.833   9.457
  254POPC   PO4 6168  19.261  26.805   9.525
  254POPC   GL1 6169  19.113  26.936   9.110
  254POPC   GL2 6170  18.860  26.685   9.027
  254POPC   C1A 6171  19.208  26.846   8.665
  254POPC   D2A 6172  19.167  26.621   8.279
  254POPC   C3A 6173  19.337  26.847   7.955
  254POPC   C4A 6174  19.278  27.233   7.767
  254POPC   C1B 6175  18.713  26.993   8.741
  254POPC   C2B 6176  18.870  27.057   8.307
  254POPC   C3B 6177  18.853  26.926   7.862
  254POPC   C4B 6178  18.985  26.486   7.802
  255POPC   NC3 6179  18.594  44.097   9.515
  255POPC   PO4 6180  17.969  43.791   9.396
  255POPC   GL1 6181  18.311  43.947   9.106
  255POPC   GL2 6182  18.545  44.258   9.037
  255POPC   C1A 6183  18.231  43.779   8.698
  255POPC   D2A 6184  18.049  43.927   8.333
  255POPC   C3A 6185  18.227  43.786   7.952
  255POPC   C4A 6186  18.233  44.030   7.575
  255POPC   C1B 6187  18.701  43.921   8.767
  255POPC   C2B 6188  18.641  43.821   8.332
  255POPC   C3B 6189  18.673  44.038   7.924
  255POPC   C4B 6190  18.706  44.138   7.459
  256POPC   NC3 6191   6.309  41.734   9.523
  256POPC   PO4 6192   6.720  41.232   9.512
  256POPC   GL1 6193   6.812  41.500   9.164
  256POPC   GL2 6194   6.789  41.830   9.303
  256POPC   C1A 6195   6.534  41.648   8.812
  256POPC   D2A 6196   6.416  41.727   8.371
  256POPC   C3A 6197   6.380  41.468   8.016
  256POPC   C4A 6198   6.611  41.366   7.658
  256POPC   C1B 6199   6.935  41.965   8.894
  256POPC   C2B 6200   6.915  41.808   8.467
  256POPC   C3B 6201   6.851  41.643   8.060
  256POPC   C4B 6202   6.883  41.867   7.690
  257POPC   NC3 6203  14.209  21.712   9.549
  257POPC   PO4 6204  14.140  22.471   9.530
  257POPC   GL1 6205  14.309  22.314   9.140
  257POPC   GL2 6206  14.470  21.956   9.145
  257POPC   C1A 6207  14.179  22.324   8.709
  257POPC   D2A 6208  14.385  22.130   8.353
  257POPC   C3A 6209  14.181  22.235   7.986
  257POPC   C4A 6210  14.298  22.279   7.558
  257POPC   C1B 6211  14.274  21.845   8.796
  257POPC   C2B 6212  14.170  21.669   8.430
  257POPC   C3B 6213  14.133  21.741   8.020
  257POPC   C4B 6214  14.432  21.801   7.688
  258POPC   NC3 6215   1.246  11.793   9.742
  258POPC   PO4 6216   1.515  12.317   9.418
  258POPC   GL1 6217   1.391  12.262   9.015
  258POPC   GL2 6218   1.446  11.905   8.854
  258POPC   C1A 6219   1.113  12.246   8.694
  258POPC   D2A 6220   1.064  12.313   8.304
  258POPC   C3A 6221   0.977  12.010   7.980
  258POPC   C4A 6222   1.142  12.164   7.575
  258POPC   C1B 6223   1.708  12.163   8.632
  258POPC   C2B 6224   1.559  12.441   8.348
  258POPC   C3B 6225   1.447  12.264   7.967
  258POPC   C4B 6226   1.457  11.844   7.802
  259POPC   NC3 6227  42.612  21.414   9.535
  259POPC   PO4 6228  41.929  21.373   9.654
  259POPC   GL1 6229  42.084  21.430   9.185
  259POPC   GL2 6230  42.436  21.603   9.090
  259POPC   C1A 6231  42.186  21.343   8.719
  259POPC   D2A 6232  42.424  21.206   8.348
  259POPC   C3A 6233  42.171  21.349   7.980
  259POPC   C4A 6234  41.986  21.520   7.579
  259POPC   C1B 6235  42.675  21.551   8.688
  259POPC   C2B 6236  42.613  21.692   8.250
  259POPC   C3B 6237  42.367  21.809   7.872
  259POPC   C4B 6238  42.469  21.632   7.472
  260POPC   NC3 6239  43.767   0.693   9.469
  260POPC   PO4 6240  44.376   0.577   9.398
  260POPC   GL1 6241  44.128   0.534   9.056
  260POPC   GL2 6242  44.354   0.770   8.910
  260POPC   C1A 6243  43.817   0.243   8.812
  260POPC   D2A 6244  43.477   0.142   8.496
  260POPC   C3A 6245  43.557   0.407   8.172
  260POPC   C4A 6246  43.697   0.285   7.779
  260POPC   C1B 6247  44.145   0.562   8.555
  260POPC   C2B 6248  44.077   0.327   8.182
  260POPC   C3B 6249  44.194   0.405   7.765
  260POPC   C4B 6250  44.224   0.582   7.335
  261POPC   NC3 6251   7.694   3.005   9.514
  261POPC   PO4 6252   7.044   2.666   9.398
  261POPC   GL1 6253   7.372   2.879   9.146
  261POPC   GL2 6254   7.708   2.662   9.093
  261POPC   C1A 6255   7.537   2.997   8.743
  261POPC   D2A 6256   7.387   2.804   8.373
  261POPC   C3A 6257   7.640   2.809   8.031
  261POPC   C4A 6258   7.657   3.059   7.681
  261POPC   C1B 6259   7.370   2.473   8.798
  261POPC   C2B 6260   7.139   2.338   8.410
  261POPC   C3B 6261   7.189   2.494   7.995
  261POPC   C4B 6262   7.454   2.526   7.655
  262POPC   NC3 6263  17.518  14.700   9.424
  262POPC   PO4 6264  16.851  14.512   9.624
  262POPC   GL1 6265  16.594  14.523   9.218
  262POPC   GL2 6266  16.498  14.834   9.088
  262POPC   C1A 6267  16.675  14.353   8.768
  262POPC   D2A 6268  16.434  14.181   8.380
  262POPC   C3A 6269  16.661  14.203   7.947
  262POPC   C4A 6270  17.076  14.240   7.706
  262POPC   C1B 6271  16.699  14.874   8.676
  262POPC   C2B 6272  16.748  14.589   8.307
  262POPC   C3B 6273  16.896  14.665   7.879
  262POPC   C4B 6274  16.840  14.721   7.392
  263POPC   NC3 6275   3.828  33.244   9.403
  263POPC   PO4 6276   3.606  32.612   9.426
  263POPC   GL1 6277   3.613  32.683   8.998
  263POPC   GL2 6278   3.566  33.046   9.004
  263POPC   C1A 6279   3.617  32.769   8.561
  263POPC   D2A 6280   3.675  33.197   8.446
  263POPC   C3A 6281   3.778  33.219   8.039
  263POPC   C4A 6282   3.797  32.883   7.753
  263POPC   C1B 6283   3.226  33.110   8.698
  263POPC   C2B 6284   3.154  32.901   8.350
  263POPC   C3B 6285   3.361  32.782   8.030
  263POPC   C4B 6286   3.354  33.097   7.725
  264POPC   NC3 6287   7.533  21.508   9.518
  264POPC   PO4 6288   7.069  21.042   9.403
  264POPC   GL1 6289   7.285  21.357   9.089
  264POPC   GL2 6290   7.673  21.468   9.046
  264POPC   C1A 6291   7.421  21.213   8.682
  264POPC   D2A 6292   7.337  20.987   8.325
  264POPC   C3A 6293   7.199  21.177   7.945
  264POPC   C4A 6294   7.039  21.021   7.527
  264POPC   C1B 6295   7.488  21.717   8.721
  264POPC   C2B 6296   7.513  21.547   8.296
  264POPC   C3B 6297   7.658  21.479   7.870
  264POPC   C4B 6298   7.488  21.264   7.521
  265POPC   NC3 6299  42.822   7.922   9.456
  265POPC   PO4 6300  43.372   8.202   9.384
  265POPC   GL1 6301  43.152   8.332   9.043
  265POPC   GL2 6302  42.827   8.214   9.049
  265POPC   C1A 6303  43.325   8.356   8.643
  265POPC   D2A 6304  43.348   8.151   8.295
  265POPC   C3A 6305  43.033   7.966   8.090
  265POPC   C4A 6306  43.180   8.014   7.698
  265POPC   C1B 6307  42.966   8.002   8.684
  265POPC   C2B 6308  42.857   8.343   8.422
  265POPC   C3B 6309  42.685   8.610   8.121
  265POPC   C4B 6310  42.638   8.434   7.704
  266POPC   NC3 6311  35.066  36.744   9.438
  266POPC   PO4 6312  35.715  37.072   9.272
  266POPC   GL1 6313  35.354  36.919   9.076
  266POPC   GL2 6314  35.327  36.575   9.038
  266POPC   C1A 6315  35.148  36.872   8.696
  266POPC   D2A 6316  35.202  36.666   8.362
  266POPC   C3A 6317  34.992  36.834   8.045
  266POPC   C4A 6318  35.171  37.127   7.755
  266POPC   C1B 6319  35.643  36.737   8.726
  266POPC   C2B 6320  35.720  36.658   8.369
  266POPC   C3B 6321  35.569  36.921   8.104
  266POPC   C4B 6322  35.666  37.011   7.744
  267POPC   NC3 6323  33.722  39.370   9.479
  267POPC   PO4 6324  33.240  38.819   9.415
  267POPC   GL1 6325  33.709  38.965   9.180
  267POPC   GL2 6326  33.728  39.291   8.987
  267POPC   C1A 6327  33.984  38.936   8.748
  267POPC   D2A 6328  33.884  39.075   8.292
  267POPC   C3A 6329  34.119  38.974   7.889
  267POPC   C4A 6330  34.114  39.156   7.463
  267POPC   C1B 6331  33.949  39.489   8.641
  267POPC   C2B 6332  33.841  39.614   8.210
  267POPC   C3B 6333  33.826  39.451   7.780
  267POPC   C4B 6334  33.536  39.672   7.513
  268POPC   NC3 6335  26.367  14.709   9.283
  268POPC   PO4 6336  26.917  14.109   9.452
  268POPC   GL1 6337  26.932  14.291   9.119
  268POPC   GL2 6338  26.659  14.151   8.975
  268POPC   C1A 6339  27.072  14.391   8.744
  268POPC   D2A 6340  26.872  14.234   8.381
  268POPC   C3A 6341  26.933  14.555   8.105
  268POPC   C4A 6342  27.272  14.641   7.856
  268POPC   C1B 6343  26.588  14.521   8.711
  268POPC   C2B 6344  26.478  14.705   8.320
  268POPC   C3B 6345  26.446  14.493   7.900
  268POPC   C4B 6346  26.718  14.167   7.673
  269POPC   NC3 6347  11.857   3.736   9.549
  269POPC   PO4 6348  12.413   3.930   9.803
  269POPC   GL1 6349  12.249   3.547   9.347
  269POPC   GL2 6350  11.975   3.293   9.278
  269POPC   C1A 6351  12.206   3.487   8.858
  269POPC   D2A 6352  12.214   3.707   8.435
  269POPC   C3A 6353  12.331   3.505   8.039
  269POPC   C4A 6354  12.181   3.420   7.653
  269POPC   C1B 6355  11.844   3.129   8.864
  269POPC   C2B 6356  11.982   3.247   8.453
  269POPC   C3B 6357  11.809   3.466   8.086
  269POPC   C4B 6358  11.703   3.265   7.686
  270POPC   NC3 6359  10.677  43.929   9.705
  270POPC   PO4 6360  10.102  43.753   9.468
  270POPC   GL1 6361  10.458  43.915   9.223
  270POPC   GL2 6362  10.804  43.754   9.220
  270POPC   C1A 6363  10.449  44.000   8.794
  270POPC   D2A 6364  10.270  43.899   8.402
  270POPC   C3A 6365  10.547  43.927   8.070
  270POPC   C4A 6366  10.546  44.129   7.698
  270POPC   C1B 6367  10.740  43.576   8.809
  270POPC   C2B 6368  10.602  43.511   8.380
  270POPC   C3B 6369  10.842  43.488   8.005
  270POPC   C4B 6370  10.878  43.772   7.689
  271POPC   NC3 6371  17.081  44.568   9.904
  271POPC   PO4 6372  17.660  44.536   9.577
  271POPC   GL1 6373  17.451  44.462   9.205
  271POPC   GL2 6374  17.229  44.743   9.297
  271POPC   C1A 6375  17.602  44.448   8.793
  271POPC   D2A 6376  17.468  44.475   8.388
  271POPC   C3A 6377  17.722  44.329   8.050
  271POPC   C4A 6378  17.569  44.592   7.758
  271POPC   C1B 6379  17.499  44.935   8.951
  271POPC   C2B 6380  17.638  44.967   8.498
  271POPC   C3B 6381  17.389  44.970   8.099
  271POPC   C4B 6382  17.210  44.962   7.677
  272POPC   NC3 6383   6.875  27.898   9.356
  272POPC   PO4 6384   6.429  27.455   9.502
  272POPC   GL1 6385   6.709  27.415   9.167
  272POPC   GL2 6386   6.548  27.707   9.021
  272POPC   C1A 6387   6.814  27.394   8.727
  272POPC   D2A 6388   6.528  27.413   8.388
  272POPC   C3A 6389   6.715  27.328   7.993
  272POPC   C4A 6390   6.724  27.617   7.656
  272POPC   C1B 6391   6.768  27.906   8.687
  272POPC   C2B 6392   6.871  27.791   8.262
  272POPC   C3B 6393   6.491  27.838   8.052
  272POPC   C4B 6394   6.384  28.001   7.671
  273POPC   NC3 6395  10.959   8.992   9.443
  273POPC   PO4 6396  10.329   8.973   9.662
  273POPC   GL1 6397  10.205   9.081   9.203
  273POPC   GL2 6398  10.566   9.062   9.099
  273POPC   C1A 6399  10.248   9.091   8.713
  273POPC   D2A 6400  10.574   8.913   8.494
  273POPC   C3A 6401  10.584   8.970   8.057
  273POPC   C4A 6402  10.310   8.989   7.713
  273POPC   C1B 6403  10.350   8.645   8.951
  273POPC   C2B 6404  10.224   8.480   8.539
  273POPC   C3B 6405  10.294   8.561   8.103
  273POPC   C4B 6406  10.124   8.512   7.699
  274POPC   NC3 6407  31.578  43.448   9.421
  274POPC   PO4 6408  31.425  44.062   9.679
  274POPC   GL1 6409  31.399  44.049   9.220
  274POPC   GL2 6410  31.276  43.729   9.118
  274POPC   C1A 6411  31.380  44.141   8.774
  274POPC   D2A 6412  31.276  43.952   8.383
  274POPC   C3A 6413  31.267  44.148   7.992
  274POPC   C4A 6414  31.235  43.810   7.681
  274POPC   C1B 6415  31.524  43.639   8.767
  274POPC   C2B 6416  31.730  43.708   8.392
  274POPC   C3B 6417  31.698  43.879   8.013
  274POPC   C4B 6418  31.784  43.663   7.668
  275POPC   NC3 6419  42.027   4.985   9.485
  275POPC   PO4 6420  42.665   5.279   9.522
  275POPC   GL1 6421  42.374   5.181   9.158
  275POPC   GL2 6422  42.270   4.819   9.081
  275POPC   C1A 6423  42.287   5.179   8.708
  275POPC   D2A 6424  42.469   4.988   8.345
  275POPC   C3A 6425  42.299   5.040   7.962
  275POPC   C4A 6426  42.193   4.733   7.650
  275POPC   C1B 6427  42.567   4.750   8.773
  275POPC   C2B 6428  42.943   4.803   8.513
  275POPC   C3B 6429  42.887   4.797   8.064
  275POPC   C4B 6430  42.706   4.660   7.680
  276POPC   NC3 6431  18.641  12.277   9.406
  276POPC   PO4 6432  18.001  12.330   9.283
  276POPC   GL1 6433  18.183  12.174   8.934
  276POPC   GL2 6434  17.879  12.299   8.779
  276POPC   C1A 6435  18.391  11.810   8.727
  276POPC   D2A 6436  18.322  11.538   8.355
  276POPC   C3A 6437  18.513  11.691   7.956
  276POPC   C4A 6438  18.478  12.103   7.715
  276POPC   C1B 6439  17.977  12.012   8.488
  276POPC   C2B 6440  18.290  12.066   8.230
  276POPC   C3B 6441  18.053  12.256   7.945
  276POPC   C4B 6442  17.869  12.096   7.620
  277POPC   NC3 6443  25.630  42.020   9.288
  277POPC   PO4 6444  26.099  42.278   9.681
  277POPC   GL1 6445  26.070  42.407   9.265
  277POPC   GL2 6446  25.765  42.545   9.189
  277POPC   C1A 6447  26.045  42.341   8.813
  277POPC   D2A 6448  26.202  42.572   8.478
  277POPC   C3A 6449  26.172  42.401   8.059
  277POPC   C4A 6450  25.892  42.227   7.723
  277POPC   C1B 6451  25.741  42.739   8.772
  277POPC   C2B 6452  25.722  42.545   8.357
  277POPC   C3B 6453  25.746  42.678   7.943
  277POPC   C4B 6454  25.434  42.481   7.704
  278POPC   NC3 6455   1.508  24.071   9.408
  278POPC   PO4 6456   1.058  23.576   9.505
  278POPC   GL1 6457   1.117  23.738   9.133
  278POPC   GL2 6458   1.445  23.664   9.082
  278POPC   C1A 6459   1.083  23.534   8.745
  278POPC   D2A 6460   1.102  23.760   8.402
  278POPC   C3A 6461   1.178  23.507   8.108
  278POPC   C4A 6462   1.111  23.530   7.709
  278POPC   C1B 6463   1.456  23.916   8.735
  278POPC   C2B 6464   1.637  23.855   8.349
  278POPC   C3B 6465   1.639  23.639   7.950
  278POPC   C4B 6466   1.499  23.826   7.584
  279POPC   NC3 6467  16.511  33.537   9.849
  279POPC   PO4 6468  16.742  32.909   9.605
  279POPC   GL1 6469  16.815  33.026   9.188
  279POPC   GL2 6470  16.839  33.377   9.287
  279POPC   C1A 6471  16.657  32.929   8.763
  279POPC   D2A 6472  16.499  32.824   8.351
  279POPC   C3A 6473  16.831  32.993   8.136
  279POPC   C4A 6474  16.993  32.946   7.763
  279POPC   C1B 6475  16.505  33.382   8.956
  279POPC   C2B 6476  16.462  33.334   8.482
  279POPC   C3B 6477  16.584  33.468   8.050
  279POPC   C4B 6478  16.767  33.434   7.623
  280POPC   NC3 6479  32.820  17.274   9.422
  280POPC   PO4 6480  32.806  17.956   9.424
  280POPC   GL1 6481  33.148  17.859   9.141
  280POPC   GL2 6482  33.124  17.509   9.053
  280POPC   C1A 6483  33.295  17.862   8.707
  280POPC   D2A 6484  33.462  17.694   8.348
  280POPC   C3A 6485  33.207  17.510   8.099
  280POPC   C4A 6486  33.076  17.620   7.744
  280POPC   C1B 6487  32.799  17.528   8.717
  280POPC   C2B 6488  32.736  17.387   8.277
  280POPC   C3B 6489  32.735  17.215   7.880
  280POPC   C4B 6490  32.410  17.082   7.602
  281POPC   NC3 6491  30.273  24.467   9.699
  281POPC   PO4 6492  29.715  24.176   9.451
  281POPC   GL1 6493  29.876  24.407   9.136
  281POPC   GL2 6494  30.213  24.538   9.177
  281POPC   C1A 6495  29.883  24.344   8.710
  281POPC   D2A 6496  30.026  24.569   8.371
  281POPC   C3A 6497  29.832  24.487   8.000
  281POPC   C4A 6498  29.889  24.262   7.655
  281POPC   C1B 6499  30.341  24.711   8.758
  281POPC   C2B 6500  30.438  24.866   8.311
  281POPC   C3B 6501  30.311  24.671   7.935
  281POPC   C4B 6502  30.033  24.761   7.616
  282POPC   NC3 6503  19.971  20.603   9.543
  282POPC   PO4 6504  19.596  20.112   9.506
  282POPC   GL1 6505  19.589  20.434   9.141
  282POPC   GL2 6506  19.585  20.783   9.240
  282POPC   C1A 6507  19.615  20.520   8.668
  282POPC   D2A 6508  19.596  20.599   8.190
  282POPC   C3A 6509  19.845  20.439   7.801
  282POPC   C4A 6510  20.020  20.271   7.376
  282POPC   C1B 6511  19.874  20.892   8.890
  282POPC   C2B 6512  19.707  21.007   8.502
  282POPC   C3B 6513  19.875  21.022   8.134
  282POPC   C4B 6514  19.696  20.940   7.752
  283POPC   NC3 6515   1.019  17.483   9.487
  283POPC   PO4 6516   1.590  17.691   9.521
  283POPC   GL1 6517   1.388  17.539   9.148
  283POPC   GL2 6518   1.133  17.809   9.105
  283POPC   C1A 6519   1.193  17.453   8.743
  283POPC   D2A 6520   1.370  17.266   8.387
  283POPC   C3A 6521   1.249  17.385   7.954
  283POPC   C4A 6522   0.868  17.151   7.799
  283POPC   C1B 6523   1.303  17.997   8.731
  283POPC   C2B 6524   1.334  17.896   8.284
  283POPC   C3B 6525   1.262  17.945   7.829
  283POPC   C4B 6526   1.397  17.663   7.513
  284POPC   NC3 6527  34.832  14.139   9.442
  284POPC   PO4 6528  34.379  14.671   9.572
  284POPC   GL1 6529  34.576  14.587   9.212
  284POPC   GL2 6530  34.875  14.744   9.158
  284POPC   C1A 6531  34.478  14.647   8.797
  284POPC   D2A 6532  34.551  14.453   8.424
  284POPC   C3A 6533  34.363  14.576   8.027
  284POPC   C4A 6534  34.483  14.509   7.611
  284POPC   C1B 6535  34.981  14.494   8.779
  284POPC   C2B 6536  35.037  14.625   8.354
  284POPC   C3B 6537  34.866  14.616   7.970
  284POPC   C4B 6538  34.938  14.779   7.556
  285POPC   NC3 6539  13.316  19.847   9.306
  285POPC   PO4 6540  13.714  20.348   9.213
  285POPC   GL1 6541  13.568  20.065   8.922
  285POPC   GL2 6542  13.732  19.761   9.033
  285POPC   C1A 6543  13.758  19.957   8.560
  285POPC   D2A 6544  13.969  20.178   8.269
  285POPC   C3A 6545  13.733  20.006   8.000
  285POPC   C4A 6546  13.749  19.933   7.619
  285POPC   C1B 6547  13.482  19.543   8.674
  285POPC   C2B 6548  13.375  19.648   8.246
  285POPC   C3B 6549  13.431  19.610   7.826
  285POPC   C4B 6550  13.719  19.413   7.562
  286POPC   NC3 6551  32.773  43.501   9.284
  286POPC   PO4 6552  32.060  43.718   9.486
  286POPC   GL1 6553  32.320  43.776   9.132
  286POPC   GL2 6554  32.478  43.518   8.894
  286POPC   C1A 6555  32.053  43.741   8.786
  286POPC   D2A 6556  32.202  43.490   8.456
  286POPC   C3A 6557  32.134  43.617   8.060
  286POPC   C4A 6558  32.328  43.652   7.686
  286POPC   C1B 6559  32.549  43.863   8.649
  286POPC   C2B 6560  32.565  43.814   8.220
  286POPC   C3B 6561  32.675  43.970   7.838
  286POPC   C4B 6562  32.612  43.955   7.374
  287POPC   NC3 6563   6.035   9.002   9.643
  287POPC   PO4 6564   5.596   8.726   9.228
  287POPC   GL1 6565   5.918   9.005   9.127
  287POPC   GL2 6566   6.198   8.781   9.211
  287POPC   C1A 6567   5.803   9.242   8.759
  287POPC   D2A 6568   5.851   8.961   8.430
  287POPC   C3A 6569   5.703   9.013   8.026
  287POPC   C4A 6570   5.563   8.883   7.636
  287POPC   C1B 6571   6.090   8.666   8.796
  287POPC   C2B 6572   6.155   8.516   8.409
  287POPC   C3B 6573   6.116   8.727   8.057
  287POPC   C4B 6574   5.985   8.631   7.694
  288POPC   NC3 6575  38.870  20.416   9.303
  288POPC   PO4 6576  39.485  20.239   9.494
  288POPC   GL1 6577  39.374  20.563   9.196
  288POPC   GL2 6578  39.154  20.863   9.326
  288POPC   C1A 6579  39.439  20.632   8.758
  288POPC   D2A 6580  39.191  20.588   8.395
  288POPC   C3A 6581  39.472  20.594   8.043
  288POPC   C4A 6582  39.294  20.410   7.693
  288POPC   C1B 6583  39.032  20.922   8.889
  288POPC   C2B 6584  39.045  21.085   8.458
  288POPC   C3B 6585  39.163  20.988   8.021
  288POPC   C4B 6586  39.341  20.950   7.600
  289POPC   NC3 6587  34.910   0.920   9.901
  289POPC   PO4 6588  34.413   1.146   9.456
  289POPC   GL1 6589  34.350   1.138   9.079
  289POPC   GL2 6590  34.547   1.386   8.972
  289POPC   C1A 6591  34.389   0.965   8.695
  289POPC   D2A 6592  34.699   1.000   8.396
  289POPC   C3A 6593  34.487   0.958   8.015
  289POPC   C4A 6594  34.700   1.047   7.670
  289POPC   C1B 6595  34.595   1.676   8.676
  289POPC   C2B 6596  34.840   1.519   8.372
  289POPC   C3B 6597  34.717   1.499   7.981
  289POPC   C4B 6598  34.378   1.411   7.718
  290POPC   NC3 6599  22.246  43.513   9.826
  290POPC   PO4 6600  22.464  44.151   9.499
  290POPC   GL1 6601  22.346  44.008   9.054
  290POPC   GL2 6602  22.023  43.905   9.016
  290POPC   C1A 6603  22.253  44.012   8.578
  290POPC   D2A 6604  22.453  43.761   8.258
  290POPC   C3A 6605  22.311  43.962   7.901
  290POPC   C4A 6606  21.947  44.238   7.828
  290POPC   C1B 6607  22.099  43.557   8.692
  290POPC   C2B 6608  22.068  43.384   8.292
  290POPC   C3B 6609  21.996  43.527   7.890
  290POPC   C4B 6610  21.696  43.704   7.610
  291POPC   NC3 6611  43.913  41.263   9.468
  291POPC   PO4 6612  43.460  41.595   9.674
  291POPC   GL1 6613  43.508  41.394   9.190
  291POPC   GL2 6614  43.750  41.135   9.012
  291POPC   C1A 6615  43.597  41.505   8.695
  291POPC   D2A 6616  43.896  41.606   8.355
  291POPC   C3A 6617  43.696  41.735   7.973
  291POPC   C4A 6618  43.812  41.697   7.521
  291POPC   C1B 6619  43.812  41.055   8.564
  291POPC   C2B 6620  43.602  41.210   8.189
  291POPC   C3B 6621  43.877  41.282   7.833
  291POPC   C4B 6622  44.053  41.231   7.417
  292POPC   NC3 6623  32.759  30.486   9.547
  292POPC   PO4 6624  33.472  30.563   9.454
  292POPC   GL1 6625  33.117  30.738   9.169
  292POPC   GL2 6626  32.751  30.693   9.080
  292POPC   C1A 6627  33.102  30.819   8.721
  292POPC   D2A 6628  33.265  30.996   8.348
  292POPC   C3A 6629  32.993  30.867   8.004
  292POPC   C4A 6630  32.889  30.576   7.676
  292POPC   C1B 6631  32.652  31.062   8.810
  292POPC   C2B 6632  32.809  31.217   8.436
  292POPC   C3B 6633  32.712  31.306   8.043
  292POPC   C4B 6634  32.480  31.179   7.710
  293POPC   NC3 6635  34.319  23.364   9.539
  293POPC   PO4 6636  34.898  23.668   9.330
  293POPC   GL1 6637  34.538  23.646   9.087
  293POPC   GL2 6638  34.232  23.844   9.217
  293POPC   C1A 6639  34.639  23.650   8.652
  293POPC   D2A 6640  34.612  23.455   8.282
  293POPC   C3A 6641  34.832  23.527   7.919
  293POPC   C4A 6642  34.840  23.939   7.690
  293POPC   C1B 6643  34.234  23.960   8.771
  293POPC   C2B 6644  34.366  23.990   8.344
  293POPC   C3B 6645  34.335  23.765   7.953
  293POPC   C4B 6646  34.393  23.401   7.672
  294POPC   NC3 6647  32.825   8.748   9.921
  294POPC   PO4 6648  32.752   9.146   9.320
  294POPC   GL1 6649  33.040   9.034   9.005
  294POPC   GL2 6650  33.324   8.747   9.055
  294POPC   C1A 6651  33.108   9.147   8.589
  294POPC   D2A 6652  33.177   8.828   8.293
  294POPC   C3A 6653  33.115   8.932   7.883
  294POPC   C4A 6654  32.950   9.344   7.844
  294POPC   C1B 6655  33.008   8.597   8.746
  294POPC   C2B 6656  32.781   8.524   8.400
  294POPC   C3B 6657  32.946   8.450   8.018
  294POPC   C4B 6658  32.787   8.595   7.638
  295POPC   NC3 6659  23.497  10.121   9.541
  295POPC   PO4 6660  23.685  10.713   9.487
  295POPC   GL1 6661  23.929  10.523   9.159
  295POPC   GL2 6662  23.826  10.185   9.138
  295POPC   C1A 6663  23.954  10.431   8.699
  295POPC   D2A 6664  23.912  10.208   8.303
  295POPC   C3A 6665  24.001  10.464   7.914
  295POPC   C4A 6666  24.094  10.408   7.479
  295POPC   C1B 6667  23.480  10.396   8.912
  295POPC   C2B 6668  23.431  10.427   8.478
  295POPC   C3B 6669  23.504  10.345   8.045
  295POPC   C4B 6670  23.248  10.199   7.717
  296POPC   NC3 6671  42.037  19.649   9.726
  296POPC   PO4 6672  42.608  19.957   9.598
  296POPC   GL1 6673  42.378  19.960   9.217
  296POPC   GL2 6674  42.095  19.691   9.164
  296POPC   C1A 6675  42.534  19.791   8.833
  296POPC   D2A 6676  42.308  19.684   8.461
  296POPC   C3A 6677  42.511  19.553   8.118
  296POPC   C4A 6678  42.658  19.833   7.846
  296POPC   C1B 6679  41.865  19.619   8.730
  296POPC   C2B 6680  41.848  19.778   8.265
  296POPC   C3B 6681  41.960  19.729   7.792
  296POPC   C4B 6682  41.942  19.651   7.351
  297POPC   NC3 6683  25.287  21.285   9.643
  297POPC   PO4 6684  25.811  21.657   9.374
  297POPC   GL1 6685  25.454  21.429   9.167
  297POPC   GL2 6686  25.205  21.154   9.164
  297POPC   C1A 6687  25.194  21.548   8.819
  297POPC   D2A 6688  25.280  21.414   8.385
  297POPC   C3A 6689  25.150  21.662   8.076
  297POPC   C4A 6690  25.467  21.708   7.810
  297POPC   C1B 6691  25.366  21.069   8.746
  297POPC   C2B 6692  25.170  20.909   8.362
  297POPC   C3B 6693  25.157  20.862   7.941
  297POPC   C4B 6694  25.350  21.227   7.834
  298POPC   NC3 6695   3.512  34.981   9.462
  298POPC   PO4 6696   3.926  34.465   9.542
  298POPC   GL1 6697   3.718  34.552   9.186
  298POPC   GL2 6698   3.399  34.446   9.250
  298POPC   C1A 6699   3.658  34.796   8.814
  298POPC   D2A 6700   3.481  34.774   8.414
  298POPC   C3A 6701   3.766  34.837   8.079
  298POPC   C4A 6702   3.589  34.904   7.679
  298POPC   C1B 6703   3.440  34.337   8.786
  298POPC   C2B 6704   3.317  34.276   8.343
  298POPC   C3B 6705   3.393  34.485   7.953
  298POPC   C4B 6706   3.223  34.521   7.536
  299POPC   NC3 6707  43.051  41.495   9.461
  299POPC   PO4 6708  43.488  41.935   9.167
  299POPC   GL1 6709  43.174  41.731   9.008
  299POPC   GL2 6710  42.843  41.776   9.069
  299POPC   C1A 6711  43.150  41.329   8.837
  299POPC   D2A 6712  43.096  41.247   8.411
  299POPC   C3A 6713  43.197  41.538   8.111
  299POPC   C4A 6714  43.062  41.378   7.740
  299POPC   C1B 6715  42.864  41.672   8.614
  299POPC   C2B 6716  42.858  41.927   8.259
  299POPC   C3B 6717  42.917  41.886   7.840
  299POPC   C4B 6718  43.327  41.824   7.606
  300POPC   NC3 6719  44.051   5.377   9.653
  300POPC   PO4 6720  44.224   4.763   9.789
  300POPC   GL1 6721  44.002   4.903   9.333
  300POPC   GL2 6722  44.100   5.236   9.159
  300POPC   C1A 6723  43.837   4.961   8.831
  300POPC   D2A 6724  43.923   5.013   8.356
  300POPC   C3A 6725  43.688   5.193   8.009
  300POPC   C4A 6726  43.615   4.965   7.609
  300POPC   C1B 6727  44.293   5.274   8.708
  300POPC   C2B 6728  44.363   5.265   8.235
  300POPC   C3B 6729  44.101   5.486   7.900
  300POPC   C4B 6730  43.999   5.284   7.470
  301POPC   NC3 6731   9.992  30.897   9.501
  301POPC   PO4 6732   9.275  31.078   9.414
  301POPC   GL1 6733   9.457  30.835   9.083
  301POPC   GL2 6734   9.812  30.781   9.048
  301POPC   C1A 6735   9.477  30.602   8.734
  301POPC   D2A 6736   9.667  30.697   8.386
  301POPC   C3A 6737   9.685  30.513   8.004
  301POPC   C4A 6738   9.862  30.673   7.642
  301POPC   C1B 6739  10.071  30.816   8.659
  301POPC   C2B 6740  10.067  30.929   8.195
  301POPC   C3B 6741  10.290  30.947   7.818
  301POPC   C4B 6742  10.215  30.869   7.348
  302POPC   NC3 6743  21.634  39.173   9.454
  302POPC   PO4 6744  21.195  39.630   9.528
  302POPC   GL1 6745  21.263  39.357   9.137
  302POPC   GL2 6746  21.243  38.952   9.186
  302POPC   C1A 6747  21.502  39.167   8.787
  302POPC   D2A 6748  21.387  39.006   8.397
  302POPC   C3A 6749  21.610  39.205   8.111
  302POPC   C4A 6750  21.574  39.530   7.795
  302POPC   C1B 6751  21.025  38.977   8.781
  302POPC   C2B 6752  20.849  38.974   8.381
  302POPC   C3B 6753  20.981  38.862   7.977
  302POPC   C4B 6754  21.343  39.031   7.718
  303POPC   NC3 6755  11.356  18.656   9.803
  303POPC   PO4 6756  11.597  18.182   9.397
  303POPC   GL1 6757  11.422  18.164   8.998
  303POPC   GL2 6758  11.090  18.029   8.946
  303POPC   C1A 6759  11.380  18.370   8.629
  303POPC   D2A 6760  11.551  18.561   8.282
  303POPC   C3A 6761  11.289  18.466   7.947
  303POPC   C4A 6762  11.482  18.126   7.777
  303POPC   C1B 6763  11.278  17.846   8.611
  303POPC   C2B 6764  11.206  18.046   8.230
  303POPC   C3B 6765  10.992  18.045   7.835
  303POPC   C4B 6766  11.178  17.829   7.472
  304POPC   NC3 6767  27.761   0.534   9.493
  304POPC   PO4 6768  27.163   0.806   9.397
  304POPC   GL1 6769  27.429   0.511   9.136
  304POPC   GL2 6770  27.396   0.153   9.225
  304POPC   C1A 6771  27.725   0.521   8.803
  304POPC   D2A 6772  27.804   0.798   8.477
  304POPC   C3A 6773  27.743   0.580   8.080
  304POPC   C4A 6774  27.670   0.503   7.677
  304POPC   C1B 6775  27.443   0.090   8.784
  304POPC   C2B 6776  27.642   0.187   8.393
  304POPC   C3B 6777  27.488   0.118   7.959
  304POPC   C4B 6778  27.518   0.006   7.516
  305POPC   NC3 6779  14.584  42.101   9.504
  305POPC   PO4 6780  14.159  42.631   9.506
  305POPC   GL1 6781  14.248  42.452   9.149
  305POPC   GL2 6782  14.584  42.409   9.105
  305POPC   C1A 6783  14.126  42.590   8.755
  305POPC   D2A 6784  14.178  42.428   8.352
  305POPC   C3A 6785  14.362  42.492   7.967
  305POPC   C4A 6786  14.169  42.117   7.812
  305POPC   C1B 6787  14.529  42.293   8.722
  305POPC   C2B 6788  14.688  42.326   8.338
  305POPC   C3B 6789  14.588  41.996   8.085
  305POPC   C4B 6790  14.580  41.857   7.682
  306POPC   NC3 6791  44.653  27.262   9.405
  306POPC   PO4 6792  44.232  27.646   9.807
  306POPC   GL1 6793  44.362  27.718   9.286
  306POPC   GL2 6794  44.684  27.746   9.124
  306POPC   C1A 6795  44.351  27.527   8.823
  306POPC   D2A 6796  44.545  27.577   8.423
  306POPC   C3A 6797  44.388  27.384   8.052
  306POPC   C4A 6798  44.535  27.518   7.663
  306POPC   C1B 6799  44.906  27.498   8.805
  306POPC   C2B 6800   0.034  27.342   8.426
  306POPC   C3B 6801  44.905  27.506   8.062
  306POPC   C4B 6802   0.016  27.390   7.699
  307POPC   NC3 6803   9.616  15.017   9.451
  307POPC   PO4 6804  10.277  15.096   9.417
  307POPC   GL1 6805   9.985  14.914   9.095
  307POPC   GL2 6806   9.597  14.886   8.973
  307POPC   C1A 6807  10.019  15.023   8.674
  307POPC   D2A 6808   9.792  14.907   8.335
  307POPC   C3A 6809   9.856  15.235   8.108
  307POPC   C4A 6810  10.005  15.233   7.713
  307POPC   C1B 6811   9.600  15.339   8.811
  307POPC   C2B 6812   9.462  15.489   8.393
  307POPC   C3B 6813   9.341  15.180   8.095
  307POPC   C4B 6814   9.535  15.074   7.737
  308POPC   NC3 6815   1.388  29.764   9.504
  308POPC   PO4 6816   0.857  30.077   9.648
  308POPC   GL1 6817   1.166  30.089   9.223
  308POPC   GL2 6818   1.028  29.766   9.119
  308POPC   C1A 6819   1.363  30.109   8.781
  308POPC   D2A 6820   1.503  30.255   8.348
  308POPC   C3A 6821   1.487  30.062   7.926
  308POPC   C4A 6822   1.228  30.195   7.532
  308POPC   C1B 6823   1.100  29.646   8.698
  308POPC   C2B 6824   1.203  29.788   8.288
  308POPC   C3B 6825   1.078  29.796   7.836
  308POPC   C4B 6826   1.386  29.711   7.500
  309POPC   NC3 6827  36.617  26.234   9.593
  309POPC   PO4 6828  35.950  26.283   9.400
  309POPC   GL1 6829  36.110  25.944   9.146
  309POPC   GL2 6830  36.385  26.184   9.135
  309POPC   C1A 6831  35.907  25.720   8.769
  309POPC   D2A 6832  35.895  25.898   8.337
  309POPC   C3A 6833  36.047  25.727   7.960
  309POPC   C4A 6834  35.950  25.900   7.559
  309POPC   C1B 6835  36.232  26.125   8.703
  309POPC   C2B 6836  36.395  26.008   8.331
  309POPC   C3B 6837  36.391  26.189   7.943
  309POPC   C4B 6838  36.444  25.984   7.557
  310POPC   NC3 6839  13.863   6.375   9.475
  310POPC   PO4 6840  13.567   7.014   9.685
  310POPC   GL1 6841  13.605   6.773   9.178
  310POPC   GL2 6842  13.660   6.488   9.015
  310POPC   C1A 6843  13.532   6.853   8.715
  310POPC   D2A 6844  13.527   6.494   8.448
  310POPC   C3A 6845  13.486   6.535   8.013
  310POPC   C4A 6846  13.198   6.637   7.691
  310POPC   C1B 6847  13.970   6.375   8.706
  310POPC   C2B 6848  13.898   6.148   8.320
  310POPC   C3B 6849  14.035   6.205   7.910
  310POPC   C4B 6850  13.745   6.274   7.603
  311POPC   NC3 6851  17.625  37.428   9.542
  311POPC   PO4 6852  17.366  38.053   9.589
  311POPC   GL1 6853  17.565  37.962   9.161
  311POPC   GL2 6854  17.893  38.164   9.132
  311POPC   C1A 6855  17.499  37.584   8.809
  311POPC   D2A 6856  17.577  37.319   8.386
  311POPC   C3A 6857  17.472  37.470   7.929
  311POPC   C4A 6858  17.190  37.628   7.558
  311POPC   C1B 6859  17.852  37.921   8.733
  311POPC   C2B 6860  17.694  37.821   8.355
  311POPC   C3B 6861  17.862  37.806   7.966
  311POPC   C4B 6862  17.639  37.847   7.594
  312POPC   NC3 6863  35.604   1.025   9.510
  312POPC   PO4 6864  34.935   1.303   9.606
  312POPC   GL1 6865  35.246   1.373   9.296
  312POPC   GL2 6866  35.136   1.128   9.070
  312POPC   C1A 6867  35.397   1.502   8.867
  312POPC   D2A 6868  35.323   1.361   8.480
  312POPC   C3A 6869  35.461   1.304   8.082
  312POPC   C4A 6870  35.130   1.296   7.788
  312POPC   C1B 6871  35.504   0.994   8.829
  312POPC   C2B 6872  35.714   0.995   8.421
  312POPC   C3B 6873  35.573   0.800   8.060
  312POPC   C4B 6874  35.459   0.937   7.701
  313POPC   NC3 6875   7.103  28.988   9.379
  313POPC   PO4 6876   6.490  28.875   9.630
  313POPC   GL1 6877   6.580  29.025   9.208
  313POPC   GL2 6878   6.735  29.343   9.152
  313POPC   C1A 6879   6.467  29.021   8.769
  313POPC   D2A 6880   6.604  28.824   8.380
  313POPC   C3A 6881   6.386  28.930   8.011
  313POPC   C4A 6882   6.480  29.025   7.566
  313POPC   C1B 6883   6.983  29.188   8.777
  313POPC   C2B 6884   7.028  29.378   8.412
  313POPC   C3B 6885   6.902  29.134   8.092
  313POPC   C4B 6886   6.930  29.257   7.708
  314POPC   NC3 6887  28.565  38.620   9.385
  314POPC   PO4 6888  28.177  38.235   9.712
  314POPC   GL1 6889  28.098  38.290   9.220
  314POPC   GL2 6890  28.355  38.404   8.986
  314POPC   C1A 6891  27.945  38.279   8.744
  314POPC   D2A 6892  27.998  38.182   8.329
  314POPC   C3A 6893  28.205  38.406   7.997
  314POPC   C4A 6894  28.393  38.285   7.600
  314POPC   C1B 6895  28.387  38.441   8.565
  314POPC   C2B 6896  28.564  38.196   8.309
  314POPC   C3B 6897  28.736  38.347   8.006
  314POPC   C4B 6898  28.785  38.572   7.709
  315POPC   NC3 6899  40.807  14.148   9.511
  315POPC   PO4 6900  40.517  14.830   9.547
  315POPC   GL1 6901  40.656  14.698   9.144
  315POPC   GL2 6902  40.706  14.324   9.049
  315POPC   C1A 6903  40.702  14.691   8.706
  315POPC   D2A 6904  40.906  14.554   8.354
  315POPC   C3A 6905  40.692  14.725   8.035
  315POPC   C4A 6906  40.844  14.532   7.688
  315POPC   C1B 6907  41.059  14.245   8.746
  315POPC   C2B 6908  41.335  14.225   8.371
  315POPC   C3B 6909  41.247  14.386   7.980
  315POPC   C4B 6910  41.233  14.199   7.566
  316POPC   NC3 6911  42.704  35.184   9.376
  316POPC   PO4 6912  43.347  35.273   9.455
  316POPC   GL1 6913  43.142  35.321   9.108
  316POPC   GL2 6914  43.119  34.968   9.102
  316POPC   C1A 6915  42.992  35.596   8.770
  316POPC   D2A 6916  43.003  35.821   8.368
  316POPC   C3A 6917  42.917  35.663   7.942
  316POPC   C4A 6918  43.214  35.500   7.632
  316POPC   C1B 6919  42.969  35.068   8.709
  316POPC   C2B 6920  42.899  35.288   8.341
  316POPC   C3B 6921  42.975  35.154   7.912
  316POPC   C4B 6922  42.718  35.011   7.571
  317POPC   NC3 6923  21.295   3.337   9.594
  317POPC   PO4 6924  21.135   4.000   9.472
  317POPC   GL1 6925  21.231   3.663   9.196
  317POPC   GL2 6926  21.579   3.714   9.187
  317POPC   C1A 6927  21.376   3.399   8.830
  317POPC   D2A 6928  21.206   3.331   8.431
  317POPC   C3A 6929  21.367   3.372   8.033
  317POPC   C4A 6930  21.191   3.250   7.660
  317POPC   C1B 6931  21.423   3.899   8.780
  317POPC   C2B 6932  21.361   3.813   8.343
  317POPC   C3B 6933  21.190   3.877   7.950
  317POPC   C4B 6934  21.454   3.704   7.652
  318POPC   NC3 6935  11.328  42.047   9.748
  318POPC   PO4 6936  11.339  41.381   9.608
  318POPC   GL1 6937  11.427  41.478   9.176
  318POPC   GL2 6938  11.736  41.311   9.104
  318POPC   C1A 6939  11.183  41.690   8.797
  318POPC   D2A 6940  10.933  41.703   8.396
  318POPC   C3A 6941  11.121  41.808   7.987
  318POPC   C4A 6942  11.357  41.741   7.581
  318POPC   C1B 6943  11.789  41.559   8.727
  318POPC   C2B 6944  11.538  41.750   8.405
  318POPC   C3B 6945  11.635  41.779   7.994
  318POPC   C4B 6946  11.719  41.376   7.767
  319POPC   NC3 6947  30.262   1.836   9.459
  319POPC   PO4 6948  29.539   1.943   9.634
  319POPC   GL1 6949  29.703   2.066   9.187
  319POPC   GL2 6950  30.032   2.254   9.135
  319POPC   C1A 6951  29.823   2.011   8.734
  319POPC   D2A 6952  29.749   1.828   8.322
  319POPC   C3A 6953  29.958   1.947   7.958
  319POPC   C4A 6954  29.900   1.714   7.610
  319POPC   C1B 6955  29.997   2.503   8.729
  319POPC   C2B 6956  29.950   2.340   8.330
  319POPC   C3B 6957  29.839   2.442   7.925
  319POPC   C4B 6958  30.147   2.351   7.605
  320POPC   NC3 6959  22.748   1.474   9.479
  320POPC   PO4 6960  23.073   2.133   9.504
  320POPC   GL1 6961  23.091   2.146   9.075
  320POPC   GL2 6962  23.090   1.798   9.115
  320POPC   C1A 6963  22.903   2.224   8.675
  320POPC   D2A 6964  23.066   2.270   8.283
  320POPC   C3A 6965  22.820   2.189   8.005
  320POPC   C4A 6966  22.643   2.032   7.655
  320POPC   C1B 6967  22.889   1.665   8.772
  320POPC   C2B 6968  22.937   1.788   8.366
  320POPC   C3B 6969  22.729   1.681   8.041
  320POPC   C4B 6970  22.814   1.519   7.707
  321POPC   NC3 6971   8.305  36.296   9.516
  321POPC   PO4 6972   7.868  35.762   9.510
  321POPC   GL1 6973   8.171  35.895   9.223
  321POPC   GL2 6974   8.066  36.224   9.095
  321POPC   C1A 6975   8.229  35.863   8.795
  321POPC   D2A 6976   8.031  35.674   8.488
  321POPC   C3A 6977   8.076  35.885   8.120
  321POPC   C4A 6978   8.324  36.126   7.861
  321POPC   C1B 6979   8.095  36.393   8.694
  321POPC   C2B 6980   7.931  36.404   8.306
  321POPC   C3B 6981   8.003  36.506   7.892
  321POPC   C4B 6982   8.006  36.250   7.489
  322POPC   NC3 6983  22.116  35.840   9.578
  322POPC   PO4 6984  22.366  36.466   9.503
  322POPC   GL1 6985  22.349  36.164   9.187
  322POPC   GL2 6986  22.035  36.177   9.125
  322POPC   C1A 6987  22.328  35.948   8.788
  322POPC   D2A 6988  22.136  35.840   8.413
  322POPC   C3A 6989  22.352  36.039   8.105
  322POPC   C4A 6990  22.331  36.091   7.681
  322POPC   C1B 6991  21.848  36.144   8.732
  322POPC   C2B 6992  21.926  36.316   8.334
  322POPC   C3B 6993  21.850  36.172   7.915
  322POPC   C4B 6994  21.842  36.441   7.561
  323POPC   NC3 6995  27.484  18.118   9.556
  323POPC   PO4 6996  27.754  18.792   9.572
  323POPC   GL1 6997  27.731  18.423   9.240
  323POPC   GL2 6998  27.396  18.252   9.080
  323POPC   C1A 6999  27.781  18.332   8.778
  323POPC   D2A 7000  27.427  18.593   8.601
  323POPC   C3A 7001  27.434  18.633   8.164
  323POPC   C4A 7002  27.168  18.451   7.860
  323POPC   C1B 7003  27.301  18.117   8.636
  323POPC   C2B 7004  27.573  18.120   8.261
  323POPC   C3B 7005  27.518  18.063   7.801
  323POPC   C4B 7006  27.205  18.110   7.462
  324POPC   NC3 7007   8.236  35.501   9.611
  324POPC   PO4 7008   8.042  34.860   9.472
  324POPC   GL1 7009   8.236  35.108   9.153
  324POPC   GL2 7010   8.426  35.434   9.147
  324POPC   C1A 7011   8.105  35.224   8.744
  324POPC   D2A 7012   7.911  35.080   8.376
  324POPC   C3A 7013   7.957  35.367   8.083
  324POPC   C4A 7014   8.003  35.336   7.702
  324POPC   C1B 7015   8.648  35.596   8.801
  324POPC   C2B 7016   8.494  35.494   8.389
  324POPC   C3B 7017   8.425  35.565   7.934
  324POPC   C4B 7018   8.284  35.732   7.546
  325POPC   NC3 7019  15.177  27.019   9.556
  325POPC   PO4 7020  14.887  26.440   9.527
  325POPC   GL1 7021  14.942  26.710   9.169
  325POPC   GL2 7022  15.234  26.935   9.084
  325POPC   C1A 7023  15.012  26.673   8.729
  325POPC   D2A 7024  14.939  26.776   8.339
  325POPC   C3A 7025  15.199  26.593   8.060
  325POPC   C4A 7026  15.108  26.762   7.681
  325POPC   C1B 7027  15.231  27.178   8.747
  325POPC   C2B 7028  15.088  27.329   8.391
  325POPC   C3B 7029  15.240  27.110   8.054
  325POPC   C4B 7030  15.366  27.199   7.677
  326POPC   NC3 7031  44.954   7.355   9.521
  326POPC   PO4 7032   0.556   7.180   9.458
  326POPC   GL1 7033   0.661   7.363   9.064
  326POPC   GL2 7034   0.462   7.691   9.067
  326POPC   C1A 7035   0.580   7.425   8.628
  326POPC   D2A 7036   0.440   7.657   8.283
  326POPC   C3A 7037   0.647   7.436   7.963
  326POPC   C4A 7038   0.660   7.401   7.527
  326POPC   C1B 7039   0.124   7.421   8.853
  326POPC   C2B 7040   0.080   7.252   8.428
  326POPC   C3B 7041   0.124   7.363   7.996
  326POPC   C4B 7042  44.948   7.170   7.653
  327POPC   NC3 7043  28.474  27.061   9.978
  327POPC   PO4 7044  27.903  26.875   9.702
  327POPC   GL1 7045  28.011  26.965   9.248
  327POPC   GL2 7046  28.282  26.783   9.039
  327POPC   C1A 7047  28.027  27.143   8.807
  327POPC   D2A 7048  28.170  27.124   8.375
  327POPC   C3A 7049  28.088  26.745   8.113
  327POPC   C4A 7050  28.028  26.797   7.675
  327POPC   C1B 7051  28.565  26.975   8.732
  327POPC   C2B 7052  28.613  26.873   8.287
  327POPC   C3B 7053  28.494  26.948   7.861
  327POPC   C4B 7054  28.506  26.515   7.773
  328POPC   NC3 7055  34.739  27.381   9.532
  328POPC   PO4 7056  34.334  27.874   9.342
  328POPC   GL1 7057  34.500  27.539   9.095
  328POPC   GL2 7058  34.819  27.670   9.077
  328POPC   C1A 7059  34.510  27.473   8.646
  328POPC   D2A 7060  34.259  27.697   8.347
  328POPC   C3A 7061  34.311  27.536   7.935
  328POPC   C4A 7062  34.439  27.581   7.499
  328POPC   C1B 7063  34.887  27.822   8.675
  328POPC   C2B 7064  34.760  27.758   8.246
  328POPC   C3B 7065  34.822  27.563   7.859
  328POPC   C4B 7066  34.988  27.809   7.491
  329POPC   NC3 7067  42.118   5.981   9.493
  329POPC   PO4 7068  41.394   5.939   9.412
  329POPC   GL1 7069  41.571   6.008   9.033
  329POPC   GL2 7070  41.873   5.907   9.072
  329POPC   C1A 7071  41.760   6.100   8.603
  329POPC   D2A 7072  41.821   6.153   8.126
  329POPC   C3A 7073  41.552   5.839   7.910
  329POPC   C4A 7074  41.075   5.761   7.840
  329POPC   C1B 7075  41.971   5.614   8.750
  329POPC   C2B 7076  41.836   5.606   8.331
  329POPC   C3B 7077  41.952   5.480   7.945
  329POPC   C4B 7078  41.759   5.485   7.539
  330POPC   NC3 7079  37.646  11.683   9.530
  330POPC   PO4 7080  37.638  11.065   9.464
  330POPC   GL1 7081  37.516  11.362   9.147
  330POPC   GL2 7082  37.246  11.582   9.215
  330POPC   C1A 7083  37.519  11.249   8.736
  330POPC   D2A 7084  37.819  11.235   8.416
  330POPC   C3A 7085  37.632  11.031   8.078
  330POPC   C4A 7086  37.713  11.124   7.677
  330POPC   C1B 7087  37.327  11.738   8.790
  330POPC   C2B 7088  37.436  11.613   8.367
  330POPC   C3B 7089  37.724  11.582   8.013
  330POPC   C4B 7090  37.721  11.600   7.533
  331POPC   NC3 7091  15.091   5.672   9.418
  331POPC   PO4 7092  15.004   6.219   9.714
  331POPC   GL1 7093  15.258   6.112   9.231
  331POPC   GL2 7094  15.500   5.852   9.166
  331POPC   C1A 7095  15.382   6.210   8.758
  331POPC   D2A 7096  15.279   6.247   8.279
  331POPC   C3A 7097  15.203   5.926   7.930
  331POPC   C4A 7098  14.851   5.622   7.920
  331POPC   C1B 7099  15.241   5.704   8.805
  331POPC   C2B 7100  15.147   5.683   8.381
  331POPC   C3B 7101  15.301   5.415   8.070
  331POPC   C4B 7102  15.484   5.276   7.722
  332POPC   NC3 7103  43.474  44.506   9.396
  332POPC   PO4 7104  42.896  44.754   9.552
  332POPC   GL1 7105  43.045  44.595   9.137
  332POPC   GL2 7106  43.067  44.239   9.082
  332POPC   C1A 7107  43.206  44.799   8.767
  332POPC   D2A 7108  42.964  44.954   8.391
  332POPC   C3A 7109  42.887  44.766   7.969
  332POPC   C4A 7110  43.053  44.785   7.551
  332POPC   C1B 7111  43.043  44.332   8.639
  332POPC   C2B 7112  43.291  44.566   8.328
  332POPC   C3B 7113  43.303  44.458   7.921
  332POPC   C4B 7114  43.013  44.295   7.665
  333POPC   NC3 7115  27.671  24.566   9.648
  333POPC   PO4 7116  28.126  24.130   9.425
  333POPC   GL1 7117  27.882  24.313   9.100
  333POPC   GL2 7118  27.892  24.668   9.190
  333POPC   C1A 7119  27.775  24.546   8.699
  333POPC   D2A 7120  27.443  24.644   8.370
  333POPC   C3A 7121  27.610  24.540   7.979
  333POPC   C4A 7122  27.923  24.644   7.664
  333POPC   C1B 7123  27.998  24.967   8.851
  333POPC   C2B 7124  27.854  24.981   8.428
  333POPC   C3B 7125  27.801  25.009   8.027
  333POPC   C4B 7126  27.548  24.977   7.675
  334POPC   NC3 7127  26.396  41.300   9.337
  334POPC   PO4 7128  26.836  41.840   9.411
  334POPC   GL1 7129  26.784  41.488   9.056
  334POPC   GL2 7130  26.535  41.674   8.978
  334POPC   C1A 7131  26.850  41.179   8.698
  334POPC   D2A 7132  27.079  41.231   8.285
  334POPC   C3A 7133  26.855  41.447   7.951
  334POPC   C4A 7134  26.456  41.455   7.719
  334POPC   C1B 7135  26.904  41.871   8.744
  334POPC   C2B 7136  26.810  41.705   8.378
  334POPC   C3B 7137  26.507  41.824   8.073
  334POPC   C4B 7138  26.390  42.075   7.711
  335POPC   NC3 7139  39.693  14.843   9.377
  335POPC   PO4 7140  40.085  14.103   9.456
  335POPC   GL1 7141  39.886  14.166   9.094
  335POPC   GL2 7142  39.872  14.499   9.057
  335POPC   C1A 7143  39.758  14.164   8.687
  335POPC   D2A 7144  39.554  14.253   8.314
  335POPC   C3A 7145  39.882  14.384   8.017
  335POPC   C4A 7146  40.011  14.196   7.625
  335POPC   C1B 7147  40.253  14.447   8.829
  335POPC   C2B 7148  40.380  14.432   8.384
  335POPC   C3B 7149  40.417  14.298   7.948
  335POPC   C4B 7150  40.349  14.602   7.621
  336POPC   NC3 7151  41.625   4.344   9.473
  336POPC   PO4 7152  41.916   3.791   9.185
  336POPC   GL1 7153  41.789   4.191   8.998
  336POPC   GL2 7154  41.821   4.567   9.071
  336POPC   C1A 7155  41.783   4.248   8.564
  336POPC   D2A 7156  41.544   4.096   8.248
  336POPC   C3A 7157  41.528   4.285   7.869
  336POPC   C4A 7158  41.106   4.337   7.814
  336POPC   C1B 7159  41.468   4.600   8.760
  336POPC   C2B 7160  41.573   4.659   8.313
  336POPC   C3B 7161  41.365   4.776   7.932
  336POPC   C4B 7162  41.542   4.683   7.529
  337POPC   NC3 7163  30.177  23.094   9.810
  337POPC   PO4 7164  29.789  22.655   9.677
  337POPC   GL1 7165  29.903  22.955   9.272
  337POPC   GL2 7166  29.647  23.230   9.155
  337POPC   C1A 7167  29.916  22.998   8.778
  337POPC   D2A 7168  29.866  23.207   8.341
  337POPC   C3A 7169  30.025  23.071   7.909
  337POPC   C4A 7170  30.283  23.038   7.515
  337POPC   C1B 7171  29.554  23.365   8.735
  337POPC   C2B 7172  29.394  23.370   8.304
  337POPC   C3B 7173  29.562  23.322   7.908
  337POPC   C4B 7174  29.565  22.936   7.692
  338POPC   NC3 7175  31.267  16.500   9.417
  338POPC   PO4 7176  31.893  16.728   9.638
  338POPC   GL1 7177  31.648  16.828   9.205
  338POPC   GL2 7178  31.483  16.571   8.968
  338POPC   C1A 7179  31.847  16.957   8.791
  338POPC   D2A 7180  31.953  17.001   8.339
  338POPC   C3A 7181  31.659  16.795   8.093
  338POPC   C4A 7182  31.657  16.616   7.698
  338POPC   C1B 7183  31.316  16.838   8.646
  338POPC   C2B 7184  31.185  17.004   8.216
  338POPC   C3B 7185  31.289  16.957   7.751
  338POPC   C4B 7186  31.251  16.614   7.401
  339POPC   NC3 7187  41.033  15.923   9.567
  339POPC   PO4 7188  40.390  16.000   9.508
  339POPC   GL1 7189  40.661  15.851   9.182
  339POPC   GL2 7190  40.892  16.104   9.120
  339POPC   C1A 7191  40.757  15.643   8.788
  339POPC   D2A 7192  40.906  15.756   8.365
  339POPC   C3A 7193  40.803  15.545   7.987
  339POPC   C4A 7194  40.723  15.832   7.667
  339POPC   C1B 7195  41.114  16.057   8.742
  339POPC   C2B 7196  41.177  16.206   8.350
  339POPC   C3B 7197  41.138  16.022   7.927
  339POPC   C4B 7198  41.151  16.059   7.451
  340POPC   NC3 7199  41.784  42.605   9.549
  340POPC   PO4 7200  41.494  42.058   9.739
  340POPC   GL1 7201  41.591  42.165   9.271
  340POPC   GL2 7202  41.842  41.972   9.104
  340POPC   C1A 7203  41.632  42.328   8.808
  340POPC   D2A 7204  41.846  42.472   8.398
  340POPC   C3A 7205  41.599  42.574   7.989
  340POPC   C4A 7206  41.367  42.317   7.661
  340POPC   C1B 7207  42.046  42.023   8.696
  340POPC   C2B 7208  41.950  41.920   8.280
  340POPC   C3B 7209  41.733  42.082   7.936
  340POPC   C4B 7210  41.777  42.007   7.495
  341POPC   NC3 7211  16.529  30.424   9.446
  341POPC   PO4 7212  16.887  30.973   9.645
  341POPC   GL1 7213  16.925  30.745   9.236
  341POPC   GL2 7214  16.627  30.685   9.017
  341POPC   C1A 7215  17.086  30.577   8.823
  341POPC   D2A 7216  16.892  30.456   8.398
  341POPC   C3A 7217  16.531  30.663   8.182
  341POPC   C4A 7218  16.629  30.982   7.864
  341POPC   C1B 7219  16.586  30.314   8.768
  341POPC   C2B 7220  16.441  30.159   8.362
  341POPC   C3B 7221  16.700  30.191   8.004
  341POPC   C4B 7222  16.717  30.491   7.692
  342POPC   NC3 7223  34.303  41.076   9.429
  342POPC   PO4 7224  34.574  40.430   9.532
  342POPC   GL1 7225  34.820  40.535   9.141
  342POPC   GL2 7226  34.666  40.850   9.113
  342POPC   C1A 7227  34.724  40.570   8.671
  342POPC   D2A 7228  34.517  40.336   8.315
  342POPC   C3A 7229  34.485  40.539   7.929
  342POPC   C4A 7230  34.862  40.692   7.776
  342POPC   C1B 7231  34.713  41.129   8.764
  342POPC   C2B 7232  34.542  41.179   8.356
  342POPC   C3B 7233  34.506  41.098   7.916
  342POPC   C4B 7234  34.798  41.142   7.573
  343POPC   NC3 7235  42.846  17.283   9.327
  343POPC   PO4 7236  43.429  17.461   9.491
  343POPC   GL1 7237  43.308  17.626   9.108
  343POPC   GL2 7238  43.000  17.740   9.086
  343POPC   C1A 7239  43.149  17.495   8.686
  343POPC   D2A 7240  43.177  17.741   8.311
  343POPC   C3A 7241  43.268  17.506   7.958
  343POPC   C4A 7242  43.131  17.414   7.552
  343POPC   C1B 7243  42.870  17.936   8.717
  343POPC   C2B 7244  42.710  18.051   8.297
  343POPC   C3B 7245  42.817  17.812   7.918
  343POPC   C4B 7246  42.807  17.847   7.465
  344POPC   NC3 7247  12.331  13.044   9.558
  344POPC   PO4 7248  12.966  12.749   9.562
  344POPC   GL1 7249  12.888  12.982   9.199
  344POPC   GL2 7250  12.908  12.693   9.037
  344POPC   C1A 7251  12.662  13.106   8.834
  344POPC   D2A 7252  12.627  12.915   8.408
  344POPC   C3A 7253  12.870  12.988   8.012
  344POPC   C4A 7254  12.646  12.898   7.616
  344POPC   C1B 7255  12.869  12.522   8.636
  344POPC   C2B 7256  12.939  12.319   8.208
  344POPC   C3B 7257  12.895  12.470   7.765
  344POPC   C4B 7258  12.992  12.699   7.330
  345POPC   NC3 7259  34.450  10.660   9.565
  345POPC   PO4 7260  34.794  10.114   9.344
  345POPC   GL1 7261  34.522  10.287   9.083
  345POPC   GL2 7262  34.703  10.589   9.140
  345POPC   C1A 7263  34.479  10.204   8.637
  345POPC   D2A 7264  34.304  10.400   8.278
  345POPC   C3A 7265  34.499  10.336   7.906
  345POPC   C4A 7266  34.423  10.269   7.506
  345POPC   C1B 7267  34.507  10.743   8.799
  345POPC   C2B 7268  34.541  10.832   8.376
  345POPC   C3B 7269  34.675  10.815   7.969
  345POPC   C4B 7270  34.735  10.658   7.497
  346POPC   NC3 7271   2.843   3.892   9.403
  346POPC   PO4 7272   2.831   3.172   9.570
  346POPC   GL1 7273   2.675   3.433   9.218
  346POPC   GL2 7274   2.952   3.437   9.062
  346POPC   C1A 7275   2.595   3.318   8.739
  346POPC   D2A 7276   2.871   3.351   8.369
  346POPC   C3A 7277   2.647   3.286   7.971
  346POPC   C4A 7278   2.641   3.346   7.531
  346POPC   C1B 7279   2.990   3.729   8.772
  346POPC   C2B 7280   2.992   3.902   8.396
  346POPC   C3B 7281   2.901   3.741   8.013
  346POPC   C4B 7282   3.012   3.664   7.607
  347POPC   NC3 7283  12.683  41.252   9.523
  347POPC   PO4 7284  13.132  41.712   9.533
  347POPC   GL1 7285  13.082  41.511   9.146
  347POPC   GL2 7286  12.743  41.516   9.082
  347POPC   C1A 7287  13.141  41.616   8.710
  347POPC   D2A 7288  12.912  41.486   8.347
  347POPC   C3A 7289  13.093  41.430   7.936
  347POPC   C4A 7290  13.036  41.770   7.622
  347POPC   C1B 7291  12.835  41.198   8.782
  347POPC   C2B 7292  12.621  41.076   8.417
  347POPC   C3B 7293  12.492  41.314   8.080
  347POPC   C4B 7294  12.639  41.402   7.671
  348POPC   NC3 7295   0.043  24.840   9.441
  348POPC   PO4 7296   0.381  24.232   9.391
  348POPC   GL1 7297   0.178  24.408   9.074
  348POPC   GL2 7298   0.315  24.734   9.012
  348POPC   C1A 7299   0.244  24.310   8.658
  348POPC   D2A 7300   0.329  24.699   8.393
  348POPC   C3A 7301   0.333  24.557   7.993
  348POPC   C4A 7302   0.548  24.200   7.840
  348POPC   C1B 7303   0.663  24.578   8.755
  348POPC   C2B 7304   0.859  24.762   8.390
  348POPC   C3B 7305   0.835  24.588   7.982
  348POPC   C4B 7306   0.638  24.645   7.574
  349POPC   NC3 7307  43.501   2.953   9.442
  349POPC   PO4 7308  42.914   3.031   9.316
  349POPC   GL1 7309  43.203   2.806   8.998
  349POPC   GL2 7310  43.440   2.538   9.142
  349POPC   C1A 7311  43.167   2.675   8.534
  349POPC   D2A 7312  43.016   2.790   8.086
  349POPC   C3A 7313  43.225   3.138   7.940
  349POPC   C4A 7314  43.590   2.893   7.853
  349POPC   C1B 7315  43.521   2.343   8.730
  349POPC   C2B 7316  43.587   2.480   8.279
  349POPC   C3B 7317  43.368   2.427   7.887
  349POPC   C4B 7318  43.108   2.642   7.590
  350POPC   NC3 7319  44.481  36.989   9.429
  350POPC   PO4 7320   0.039  36.641   9.457
  350POPC   GL1 7321  44.741  36.625   9.128
  350POPC   GL2 7322  44.440  36.413   9.163
  350POPC   C1A 7323  44.594  36.886   8.787
  350POPC   D2A 7324  44.616  37.188   8.437
  350POPC   C3A 7325  44.349  37.247   8.109
  350POPC   C4A 7326  44.522  37.032   7.763
  350POPC   C1B 7327  44.297  36.439   8.742
  350POPC   C2B 7328  44.341  36.717   8.390
  350POPC   C3B 7329  44.449  36.613   8.018
  350POPC   C4B 7330  44.507  36.545   7.617
  351POPC   NC3 7331  23.738  28.657   9.432
  351POPC   PO4 7332  24.054  27.935   9.406
  351POPC   GL1 7333  23.839  28.220   9.144
  351POPC   GL2 7334  23.953  28.517   9.001
  351POPC   C1A 7335  23.611  28.184   8.789
  351POPC   D2A 7336  23.487  28.117   8.398
  351POPC   C3A 7337  23.636  28.412   8.104
  351POPC   C4A 7338  23.717  28.359   7.688
  351POPC   C1B 7339  23.840  28.588   8.557
  351POPC   C2B 7340  24.078  28.689   8.191
  351POPC   C3B 7341  24.129  28.710   7.728
  351POPC   C4B 7342  23.936  28.628   7.316
  352POPC   NC3 7343  28.649   4.768   9.440
  352POPC   PO4 7344  29.100   5.271   9.535
  352POPC   GL1 7345  29.127   5.371   9.143
  352POPC   GL2 7346  29.443   5.485   9.074
  352POPC   C1A 7347  29.060   5.099   8.818
  352POPC   D2A 7348  28.882   4.915   8.482
  352POPC   C3A 7349  29.159   5.086   8.172
  352POPC   C4A 7350  29.137   5.133   7.739
  352POPC   C1B 7351  29.346   5.556   8.655
  352POPC   C2B 7352  29.446   5.542   8.223
  352POPC   C3B 7353  29.375   5.587   7.771
  352POPC   C4B 7354  29.191   5.425   7.342
  353POPC   NC3 7355  10.788  19.048   9.520
  353POPC   PO4 7356  10.289  18.643   9.579
  353POPC   GL1 7357  10.305  18.919   9.204
  353POPC   GL2 7358  10.458  19.237   9.182
  353POPC   C1A 7359  10.266  18.987   8.752
  353POPC   D2A 7360  10.553  18.880   8.408
  353POPC   C3A 7361  10.476  19.028   8.018
  353POPC   C4A 7362  10.419  18.705   7.772
  353POPC   C1B 7363  10.738  19.157   8.841
  353POPC   C2B 7364  10.766  19.333   8.433
  353POPC   C3B 7365  10.716  19.482   8.011
  353POPC   C4B 7366  10.725  19.419   7.558
  354POPC   NC3 7367  12.196  21.030   9.487
  354POPC   PO4 7368  11.955  20.462   9.324
  354POPC   GL1 7369  12.037  20.738   9.021
  354POPC   GL2 7370  11.803  20.936   9.116
  354POPC   C1A 7371  12.271  20.784   8.648
  354POPC   D2A 7372  12.521  20.602   8.316
  354POPC   C3A 7373  12.302  20.442   7.923
  354POPC   C4A 7374  11.951  20.157   7.877
  354POPC   C1B 7375  11.657  20.994   8.711
  354POPC   C2B 7376  11.852  20.860   8.335
  354POPC   C3B 7377  11.827  20.652   7.941
  354POPC   C4B 7378  11.677  20.752   7.542
  355POPC   NC3 7379  28.466   0.428   9.462
  355POPC   PO4 7380  27.803   0.082   9.513
  355POPC   GL1 7381  28.073   0.322   9.153
  355POPC   GL2 7382  28.443   0.224   9.001
  355POPC   C1A 7383  28.247   0.632   8.802
  355POPC   D2A 7384  28.615   0.565   8.481
  355POPC   C3A 7385  28.473   0.727   8.087
  355POPC   C4A 7386  28.172   0.532   7.819
  355POPC   C1B 7387  28.080   0.132   8.702
  355POPC   C2B 7388  28.129   0.384   8.356
  355POPC   C3B 7389  28.451   0.213   8.130
  355POPC   C4B 7390  28.393   0.083   7.729
  356POPC   NC3 7391  22.057   2.888   9.566
  356POPC   PO4 7392  22.706   2.674   9.424
  356POPC   GL1 7393  22.307   2.698   9.135
  356POPC   GL2 7394  21.965   2.863   9.088
  356POPC   C1A 7395  22.078   2.546   8.719
  356POPC   D2A 7396  21.778   2.477   8.382
  356POPC   C3A 7397  21.907   2.587   7.967
  356POPC   C4A 7398  22.239   2.783   7.767
  356POPC   C1B 7399  22.188   3.037   8.750
  356POPC   C2B 7400  22.110   2.922   8.326
  356POPC   C3B 7401  22.006   3.188   7.981
  356POPC   C4B 7402  22.015   3.171   7.535
  357POPC   NC3 7403  29.334   4.149   9.825
  357POPC   PO4 7404  29.127   3.626   9.409
  357POPC   GL1 7405  29.055   3.530   9.014
  357POPC   GL2 7406  29.172   3.873   8.970
  357POPC   C1A 7407  29.189   3.509   8.588
  357POPC   D2A 7408  29.444   3.776   8.334
  357POPC   C3A 7409  29.360   3.734   7.919
  357POPC   C4A 7410  29.289   3.451   7.572
  357POPC   C1B 7411  28.792   3.830   8.685
  357POPC   C2B 7412  28.750   3.629   8.290
  357POPC   C3B 7413  28.736   3.761   7.877
  357POPC   C4B 7414  29.038   3.932   7.583
  358POPC   NC3 7415   4.986  31.852   9.673
  358POPC   PO4 7416   5.309  32.447   9.565
  358POPC   GL1 7417   5.152  32.369   9.145
  358POPC   GL2 7418   5.084  32.048   9.212
  358POPC   C1A 7419   5.141  32.323   8.688
  358POPC   D2A 7420   5.272  32.492   8.298
  358POPC   C3A 7421   4.989  32.583   7.980
  358POPC   C4A 7422   5.182  32.386   7.691
  358POPC   C1B 7423   4.832  31.952   8.872
  358POPC   C2B 7424   4.796  31.984   8.470
  358POPC   C3B 7425   4.953  32.087   8.102
  358POPC   C4B 7426   5.036  31.910   7.710
  359POPC   NC3 7427  33.365   0.998   9.914
  359POPC   PO4 7428  32.758   1.145   9.620
  359POPC   GL1 7429  32.955   1.206   9.209
  359POPC   GL2 7430  33.238   1.484   9.257
  359POPC   C1A 7431  32.850   1.384   8.794
  359POPC   D2A 7432  32.791   1.131   8.420
  359POPC   C3A 7433  32.921   1.325   8.031
  359POPC   C4A 7434  32.774   1.130   7.607
  359POPC   C1B 7435  33.343   1.257   8.886
  359POPC   C2B 7436  33.270   1.398   8.464
  359POPC   C3B 7437  33.446   1.381   8.054
  359POPC   C4B 7438  33.316   1.122   7.711
  360POPC   NC3 7439  37.458   3.524   9.488
  360POPC   PO4 7440  38.182   3.679   9.451
  360POPC   GL1 7441  37.856   3.614   9.166
  360POPC   GL2 7442  37.634   3.872   9.121
  360POPC   C1A 7443  37.625   3.471   8.798
  360POPC   D2A 7444  37.806   3.289   8.425
  360POPC   C3A 7445  37.730   3.484   8.051
  360POPC   C4A 7446  37.703   3.266   7.703
  360POPC   C1B 7447  37.428   3.960   8.744
  360POPC   C2B 7448  37.372   3.786   8.315
  360POPC   C3B 7449  37.346   4.045   7.937
  360POPC   C4B 7450  37.632   3.868   7.654
  361POPC   NC3 7451  14.423  26.562   9.514
  361POPC   PO4 7452  14.706  27.147   9.456
  361POPC   GL1 7453  14.473  26.909   9.081
  361POPC   GL2 7454  14.349  26.573   8.999
  361POPC   C1A 7455  14.151  26.955   8.729
  361POPC   D2A 7456  14.127  26.698   8.338
  361POPC   C3A 7457  14.471  26.875   8.115
  361POPC   C4A 7458  14.698  27.063   7.781
  361POPC   C1B 7459  14.556  26.476   8.597
  361POPC   C2B 7460  14.635  26.383   8.148
  361POPC   C3B 7461  14.421  26.493   7.773
  361POPC   C4B 7462  14.187  26.520   7.366
  362POPC   NC3 7463   6.056  35.842   9.459
  362POPC   PO4 7464   5.537  36.152   9.440
  362POPC   GL1 7465   5.865  36.161   9.090
  362POPC   GL2 7466   6.209  36.009   9.008
  362POPC   C1A 7467   5.842  36.098   8.670
  362POPC   D2A 7468   5.823  35.771   8.396
  362POPC   C3A 7469   5.658  35.990   8.061
  362POPC   C4A 7470   5.679  35.961   7.634
  362POPC   C1B 7471   6.344  36.074   8.594
  362POPC   C2B 7472   6.238  35.983   8.174
  362POPC   C3B 7473   6.101  36.187   7.839
  362POPC   C4B 7474   6.230  36.602   7.754
  363POPC   NC3 7475  42.901  38.391   9.457
  363POPC   PO4 7476  43.454  38.577   9.851
  363POPC   GL1 7477  43.427  38.468   9.348
  363POPC   GL2 7478  43.247  38.160   9.181
  363POPC   C1A 7479  43.278  38.619   8.897
  363POPC   D2A 7480  43.035  38.447   8.505
  363POPC   C3A 7481  42.975  38.667   8.071
  363POPC   C4A 7482  42.867  38.912   7.678
  363POPC   C1B 7483  43.490  38.157   8.837
  363POPC   C2B 7484  43.492  38.133   8.429
  363POPC   C3B 7485  43.287  38.261   8.095
  363POPC   C4B 7486  43.101  38.080   7.760
  364POPC   NC3 7487  31.114  26.431   9.404
  364POPC   PO4 7488  31.495  25.999   9.746
  364POPC   GL1 7489  31.514  26.050   9.190
  364POPC   GL2 7490  31.529  26.380   9.073
  364POPC   C1A 7491  31.625  25.943   8.744
  364POPC   D2A 7492  31.806  26.151   8.341
  364POPC   C3A 7493  31.634  26.033   7.947
  364POPC   C4A 7494  31.298  25.761   7.786
  364POPC   C1B 7495  31.288  26.308   8.690
  364POPC   C2B 7496  31.251  26.091   8.289
  364POPC   C3B 7497  31.213  26.270   7.865
  364POPC   C4B 7498  31.287  26.116   7.437
  365POPC   NC3 7499  35.802   3.362   9.598
  365POPC   PO4 7500  36.397   3.623   9.597
  365POPC   GL1 7501  36.175   3.537   9.194
  365POPC   GL2 7502  35.824   3.533   9.127
  365POPC   C1A 7503  36.116   3.541   8.721
  365POPC   D2A 7504  36.346   3.326   8.386
  365POPC   C3A 7505  36.323   3.617   8.066
  365POPC   C4A 7506  36.172   3.582   7.656
  365POPC   C1B 7507  35.667   3.224   8.832
  365POPC   C2B 7508  35.730   3.266   8.382
  365POPC   C3B 7509  35.784   3.609   8.053
  365POPC   C4B 7510  35.638   3.674   7.616
  366POPC   NC3 7511  36.639  24.935   9.280
  366POPC   PO4 7512  36.173  24.568   9.528
  366POPC   GL1 7513  36.159  24.254   9.179
  366POPC   GL2 7514  36.113  24.534   8.976
  366POPC   C1A 7515  36.018  24.085   8.764
  366POPC   D2A 7516  35.947  24.371   8.433
  366POPC   C3A 7517  35.785  24.232   8.021
  366POPC   C4A 7518  35.865  24.327   7.555
  366POPC   C1B 7519  36.416  24.374   8.671
  366POPC   C2B 7520  36.494  24.548   8.309
  366POPC   C3B 7521  36.232  24.538   7.988
  366POPC   C4B 7522  36.335  24.492   7.570
  367POPC   NC3 7523  37.650  10.651   9.677
  367POPC   PO4 7524  38.059  10.171   9.615
  367POPC   GL1 7525  37.851  10.370   9.293
  367POPC   GL2 7526  37.496  10.341   9.292
  367POPC   C1A 7527  37.874  10.354   8.866
  367POPC   D2A 7528  37.880  10.698   8.575
  367POPC   C3A 7529  37.832  10.538   8.179
  367POPC   C4A 7530  37.731  10.586   7.763
  367POPC   C1B 7531  37.468  10.663   8.910
  367POPC   C2B 7532  37.370  10.736   8.437
  367POPC   C3B 7533  37.266  10.652   7.983
  367POPC   C4B 7534  37.290  10.375   7.612
  368POPC   NC3 7535  25.338  34.343   9.550
  368POPC   PO4 7536  25.122  34.992   9.560
  368POPC   GL1 7537  25.156  34.665   9.172
  368POPC   GL2 7538  25.371  34.407   9.037
  368POPC   C1A 7539  25.131  34.695   8.727
  368POPC   D2A 7540  25.149  34.481   8.346
  368POPC   C3A 7541  25.297  34.772   8.050
  368POPC   C4A 7542  25.187  34.818   7.624
  368POPC   C1B 7543  25.573  34.410   8.653
  368POPC   C2B 7544  25.725  34.368   8.239
  368POPC   C3B 7545  25.428  34.308   7.903
  368POPC   C4B 7546  25.489  34.051   7.517
  369POPC   NC3 7547  43.002  34.116   9.518
  369POPC   PO4 7548  43.205  33.419   9.432
  369POPC   GL1 7549  43.085  33.760   9.167
  369POPC   GL2 7550  43.347  33.978   9.142
  369POPC   C1A 7551  42.909  34.038   8.812
  369POPC   D2A 7552  42.677  33.998   8.385
  369POPC   C3A 7553  42.927  33.901   7.984
  369POPC   C4A 7554  43.022  34.065   7.547
  369POPC   C1B 7555  43.331  33.755   8.739
  369POPC   C2B 7556  43.198  33.662   8.342
  369POPC   C3B 7557  43.454  33.878   8.038
  369POPC   C4B 7558  43.512  33.943   7.630
  370POPC   NC3 7559  44.392  12.151   9.487
  370POPC   PO4 7560  44.921  12.532   9.481
  370POPC   GL1 7561  44.751  12.295   9.155
  370POPC   GL2 7562  44.438  12.467   9.071
  370POPC   C1A 7563  44.686  11.927   8.899
  370POPC   D2A 7564  44.785  11.674   8.532
  370POPC   C3A 7565  44.693  11.970   8.190
  370POPC   C4A 7566  44.679  11.849   7.763
  370POPC   C1B 7567  44.280  12.234   8.727
  370POPC   C2B 7568  44.228  12.183   8.301
  370POPC   C3B 7569  44.346  12.258   7.894
  370POPC   C4B 7570  44.272  12.004   7.540
  371POPC   NC3 7571   8.862  26.185   9.548
  371POPC   PO4 7572   9.532  26.419   9.399
  371POPC   GL1 7573   9.245  26.180   9.106
  371POPC   GL2 7574   8.889  26.150   9.064
  371POPC   C1A 7575   9.194  26.030   8.685
  371POPC   D2A 7576   9.208  25.875   8.289
  371POPC   C3A 7577   9.016  26.144   7.994
  371POPC   C4A 7578   8.882  25.814   7.739
  371POPC   C1B 7579   8.639  26.134   8.731
  371POPC   C2B 7580   8.673  25.933   8.354
  371POPC   C3B 7581   8.507  26.078   7.995
  371POPC   C4B 7582   8.575  26.212   7.609
  372POPC   NC3 7583  34.693  35.026   9.481
  372POPC   PO4 7584  34.866  35.636   9.564
  372POPC   GL1 7585  34.587  35.525   9.204
  372POPC   GL2 7586  34.616  35.220   9.019
  372POPC   C1A 7587  34.318  35.573   8.801
  372POPC   D2A 7588  34.321  35.758   8.356
  372POPC   C3A 7589  34.231  35.509   7.958
  372POPC   C4A 7590  34.369  35.185   7.640
  372POPC   C1B 7591  34.621  35.028   8.616
  372POPC   C2B 7592  34.611  35.193   8.197
  372POPC   C3B 7593  34.785  35.416   7.854
  372POPC   C4B 7594  34.863  35.700   7.512
  373POPC   NC3 7595  24.354  29.088   9.566
  373POPC   PO4 7596  24.941  28.886   9.244
  373POPC   GL1 7597  24.560  29.132   9.054
  373POPC   GL2 7598  24.194  28.948   9.129
  373POPC   C1A 7599  24.567  29.406   8.631
  373POPC   D2A 7600  24.409  29.470   8.205
  373POPC   C3A 7601  24.669  29.427   7.859
  373POPC   C4A 7602  24.605  29.410   7.393
  373POPC   C1B 7603  24.254  28.828   8.739
  373POPC   C2B 7604  24.520  28.924   8.440
  373POPC   C3B 7605  24.458  28.997   8.029
  373POPC   C4B 7606  24.580  28.951   7.641
  374POPC   NC3 7607  20.858   0.437   9.233
  374POPC   PO4 7608  20.257   0.701   9.502
  374POPC   GL1 7609  20.353   0.592   9.081
  374POPC   GL2 7610  20.353   0.248   9.148
  374POPC   C1A 7611  20.276   0.723   8.634
  374POPC   D2A 7612  20.476   0.588   8.276
  374POPC   C3A 7613  20.345   0.594   7.867
  374POPC   C4A 7614  20.689   0.594   7.586
  374POPC   C1B 7615  20.504   0.270   8.706
  374POPC   C2B 7616  20.460   0.070   8.334
  374POPC   C3B 7617  20.659   0.203   7.968
  374POPC   C4B 7618  20.541   0.102   7.569
  375POPC   NC3 7619  24.215  26.460   9.451
  375POPC   PO4 7620  24.681  26.016   9.471
  375POPC   GL1 7621  24.474  26.122   9.118
  375POPC   GL2 7622  24.655  26.419   9.138
  375POPC   C1A 7623  24.368  25.934   8.714
  375POPC   D2A 7624  24.132  25.979   8.333
  375POPC   C3A 7625  24.133  25.715   7.989
  375POPC   C4A 7626  24.463  25.754   7.710
  375POPC   C1B 7627  24.778  26.323   8.742
  375POPC   C2B 7628  24.594  26.237   8.353
  375POPC   C3B 7629  24.414  26.224   7.968
  375POPC   C4B 7630  24.626  26.332   7.623
  376POPC   NC3 7631  24.462  23.891   9.561
  376POPC   PO4 7632  24.727  23.315   9.504
  376POPC   GL1 7633  24.586  23.606   9.135
  376POPC   GL2 7634  24.596  23.992   9.103
  376POPC   C1A 7635  24.344  23.735   8.754
  376POPC   D2A 7636  24.145  23.814   8.382
  376POPC   C3A 7637  24.217  23.492   8.097
  376POPC   C4A 7638  24.177  23.566   7.682
  376POPC   C1B 7639  24.841  23.953   8.749
  376POPC   C2B 7640  24.618  24.007   8.393
  376POPC   C3B 7641  24.626  23.842   8.009
  376POPC   C4B 7642  24.993  23.982   7.800
  377POPC   NC3 7643   1.872  31.743   9.509
  377POPC   PO4 7644   2.069  31.089   9.419
  377POPC   GL1 7645   2.274  31.325   9.078
  377POPC   GL2 7646   2.501  31.629   9.163
  377POPC   C1A 7647   2.028  31.459   8.714
  377POPC   D2A 7648   1.630  31.344   8.500
  377POPC   C3A 7649   1.710  31.269   8.059
  377POPC   C4A 7650   1.889  31.626   7.823
  377POPC   C1B 7651   2.380  31.832   8.760
  377POPC   C2B 7652   2.335  31.632   8.325
  377POPC   C3B 7653   2.374  31.798   7.896
  377POPC   C4B 7654   2.476  31.759   7.449
  378POPC   NC3 7655   1.103  12.586   9.460
  378POPC   PO4 7656   1.436  13.210   9.581
  378POPC   GL1 7657   1.373  13.014   9.163
  378POPC   GL2 7658   1.060  13.100   8.975
  378POPC   C1A 7659   1.402  12.743   8.772
  378POPC   D2A 7660   1.192  12.827   8.363
  378POPC   C3A 7661   1.419  12.778   7.980
  378POPC   C4A 7662   1.463  12.576   7.564
  378POPC   C1B 7663   0.944  13.376   8.629
  378POPC   C2B 7664   0.855  13.230   8.209
  378POPC   C3B 7665   1.004  13.039   7.840
  378POPC   C4B 7666   1.252  13.010   7.458
  379POPC   NC3 7667  41.089  32.479   9.592
  379POPC   PO4 7668  40.586  31.980   9.497
  379POPC   GL1 7669  40.807  32.026   9.118
  379POPC   GL2 7670  40.791  32.363   9.147
  379POPC   C1A 7671  40.730  31.988   8.689
  379POPC   D2A 7672  40.777  32.244   8.346
  379POPC   C3A 7673  40.722  32.052   8.003
  379POPC   C4A 7674  40.494  32.020   7.647
  379POPC   C1B 7675  40.991  32.459   8.768
  379POPC   C2B 7676  41.202  32.531   8.385
  379POPC   C3B 7677  40.986  32.629   8.022
  379POPC   C4B 7678  40.648  32.524   7.749
  380POPC   NC3 7679  39.233  31.981   9.598
  380POPC   PO4 7680  38.786  32.524   9.506
  380POPC   GL1 7681  38.989  32.244   9.166
  380POPC   GL2 7682  39.351  32.083   9.125
  380POPC   C1A 7683  39.080  32.354   8.729
  380POPC   D2A 7684  39.345  32.484   8.366
  380POPC   C3A 7685  39.087  32.363   8.041
  380POPC   C4A 7686  38.976  32.167   7.668
  380POPC   C1B 7687  39.533  32.143   8.750
  380POPC   C2B 7688  39.323  31.989   8.402
  380POPC   C3B 7689  39.510  32.093   8.009
  380POPC   C4B 7690  39.605  31.972   7.618
  381POPC   NC3 7691   6.850  35.083   9.473
  381POPC   PO4 7692   6.349  35.531   9.649
  381POPC   GL1 7693   6.507  35.634   9.209
  381POPC   GL2 7694   6.748  35.383   9.076
  381POPC   C1A 7695   6.397  35.525   8.750
  381POPC   D2A 7696   6.556  35.182   8.426
  381POPC   C3A 7697   6.547  35.319   7.966
  381POPC   C4A 7698   6.711  35.343   7.537
  381POPC   C1B 7699   6.984  35.285   8.684
  381POPC   C2B 7700   7.050  35.425   8.247
  381POPC   C3B 7701   7.097  35.193   7.860
  381POPC   C4B 7702   7.184  35.268   7.367
  382POPC   NC3 7703  21.624  39.931   9.448
  382POPC   PO4 7704  20.950  40.132   9.444
  382POPC   GL1 7705  21.211  39.920   9.095
  382POPC   GL2 7706  21.579  40.075   8.977
  382POPC   C1A 7707  21.214  39.962   8.647
  382POPC   D2A 7708  21.512  40.236   8.461
  382POPC   C3A 7709  21.528  40.322   8.029
  382POPC   C4A 7710  21.493  40.055   7.666
  382POPC   C1B 7711  21.604  39.666   8.798
  382POPC   C2B 7712  21.657  39.681   8.354
  382POPC   C3B 7713  21.301  39.850   8.114
  382POPC   C4B 7714  21.109  39.728   7.713
  383POPC   NC3 7715  13.942  13.390   9.386
  383POPC   PO4 7716  14.531  13.698   9.463
  383POPC   GL1 7717  14.425  13.568   9.043
  383POPC   GL2 7718  14.651  13.845   8.945
  383POPC   C1A 7719  14.247  13.336   8.662
  383POPC   D2A 7720  14.411  13.241   8.242
  383POPC   C3A 7721  14.064  13.274   7.963
  383POPC   C4A 7722  14.079  13.622   7.698
  383POPC   C1B 7723  14.345  13.841   8.603
  383POPC   C2B 7724  14.299  13.743   8.170
  383POPC   C3B 7725  14.554  13.783   7.817
  383POPC   C4B 7726  14.862  14.027   7.656
  384POPC   NC3 7727  33.079  31.608   9.561
  384POPC   PO4 7728  32.778  30.989   9.505
  384POPC   GL1 7729  32.948  31.243   9.190
  384POPC   GL2 7730  32.667  31.450   9.207
  384POPC   C1A 7731  33.149  31.342   8.790
  384POPC   D2A 7732  33.199  31.549   8.379
  384POPC   C3A 7733  33.213  31.339   7.960
  384POPC   C4A 7734  32.951  31.483   7.631
  384POPC   C1B 7735  32.669  31.578   8.788
  384POPC   C2B 7736  32.710  31.723   8.367
  384POPC   C3B 7737  32.794  31.827   7.942
  384POPC   C4B 7738  32.825  31.970   7.494
  385POPC   NC3 7739   6.138  35.148   9.842
  385POPC   PO4 7740   5.594  35.154   9.455
  385POPC   GL1 7741   5.853  35.335   9.133
  385POPC   GL2 7742   6.220  35.215   9.134
  385POPC   C1A 7743   5.641  35.422   8.736
  385POPC   D2A 7744   5.621  35.217   8.340
  385POPC   C3A 7745   5.681  35.479   7.955
  385POPC   C4A 7746   5.453  35.510   7.557
  385POPC   C1B 7747   6.060  35.149   8.687
  385POPC   C2B 7748   6.103  35.342   8.273
  385POPC   C3B 7749   6.048  35.107   7.888
  385POPC   C4B 7750   6.216  35.228   7.502
  386POPC   NC3 7751  40.613  12.746   9.566
  386POPC   PO4 7752  41.265  12.848   9.424
  386POPC   GL1 7753  41.009  12.937   9.074
  386POPC   GL2 7754  40.692  13.091   9.170
  386POPC   C1A 7755  40.795  12.831   8.684
  386POPC   D2A 7756  40.533  12.765   8.315
  386POPC   C3A 7757  40.850  12.732   8.007
  386POPC   C4A 7758  40.847  12.938   7.623
  386POPC   C1B 7759  40.645  13.315   8.778
  386POPC   C2B 7760  40.756  13.244   8.347
  386POPC   C3B 7761  40.559  13.168   7.948
  386POPC   C4B 7762  40.719  13.417   7.573
  387POPC   NC3 7763  11.446  41.086   9.996
  387POPC   PO4 7764  11.356  40.538   9.507
  387POPC   GL1 7765  11.347  40.693   9.112
  387POPC   GL2 7766  11.175  41.013   9.120
  387POPC   C1A 7767  11.458  40.747   8.711
  387POPC   D2A 7768  11.298  40.796   8.316
  387POPC   C3A 7769  11.527  40.889   7.975
  387POPC   C4A 7770  11.416  40.724   7.577
  387POPC   C1B 7771  11.367  41.223   8.755
  387POPC   C2B 7772  11.593  41.221   8.385
  387POPC   C3B 7773  11.321  41.348   8.079
  387POPC   C4B 7774  11.187  41.166   7.689
  388POPC   NC3 7775  14.440  21.032   9.524
  388POPC   PO4 7776  14.723  21.675   9.530
  388POPC   GL1 7777  14.540  21.419   9.201
  388POPC   GL2 7778  14.191  21.476   9.109
  388POPC   C1A 7779  14.557  21.406   8.759
  388POPC   D2A 7780  14.693  21.751   8.534
  388POPC   C3A 7781  14.680  21.726   8.098
  388POPC   C4A 7782  14.731  21.326   7.780
  388POPC   C1B 7783  13.983  21.336   8.768
  388POPC   C2B 7784  14.226  21.162   8.476
  388POPC   C3B 7785  14.391  21.298   8.154
  388POPC   C4B 7786  14.224  21.322   7.767
  389POPC   NC3 7787  20.135  42.420   9.455
  389POPC   PO4 7788  19.534  42.123   9.471
  389POPC   GL1 7789  19.758  42.255   9.139
  389POPC   GL2 7790  19.974  41.991   9.063
  389POPC   C1A 7791  19.683  42.600   8.849
  389POPC   D2A 7792  19.481  42.540   8.447
  389POPC   C3A 7793  19.718  42.258   8.177
  389POPC   C4A 7794  19.668  42.286   7.726
  389POPC   C1B 7795  20.005  42.231   8.687
  389POPC   C2B 7796  20.212  42.547   8.459
  389POPC   C3B 7797  20.314  42.566   8.030
  389POPC   C4B 7798  20.165  42.321   7.681
  390POPC   NC3 7799  13.270  10.040   9.368
  390POPC   PO4 7800  13.902   9.900   9.404
  390POPC   GL1 7801  13.742   9.681   9.074
  390POPC   GL2 7802  13.374   9.625   9.084
  390POPC   C1A 7803  13.641   9.553   8.673
  390POPC   D2A 7804  13.327   9.619   8.382
  390POPC   C3A 7805  13.513   9.677   8.008
  390POPC   C4A 7806  13.660   9.599   7.628
  390POPC   C1B 7807  13.433  10.006   8.750
  390POPC   C2B 7808  13.365  10.156   8.326
  390POPC   C3B 7809  13.252  10.135   7.888
  390POPC   C4B 7810  13.476  10.077   7.481
  391POPC   NC3 7811  10.049  26.693   9.515
  391POPC   PO4 7812  10.739  26.921   9.477
  391POPC   GL1 7813  10.755  26.716   9.104
  391POPC   GL2 7814  10.426  26.617   9.147
  391POPC   C1A 7815  10.795  26.694   8.672
  391POPC   D2A 7816  10.750  26.605   8.237
  391POPC   C3A 7817  10.849  26.934   7.925
  391POPC   C4A 7818  10.613  26.913   7.525
  391POPC   C1B 7819  10.304  26.754   8.754
  391POPC   C2B 7820  10.220  26.803   8.319
  391POPC   C3B 7821  10.373  26.712   7.931
  391POPC   C4B 7822  10.328  26.478   7.579
  392POPC   NC3 7823  18.685  34.510   9.396
  392POPC   PO4 7824  19.067  34.980   9.770
  392POPC   GL1 7825  19.110  34.780   9.321
  392POPC   GL2 7826  19.309  34.460   9.265
  392POPC   C1A 7827  18.993  34.729   8.866
  392POPC   D2A 7828  18.885  34.953   8.491
  392POPC   C3A 7829  18.927  34.743   8.102
  392POPC   C4A 7830  19.104  34.624   7.717
  392POPC   C1B 7831  19.163  34.246   8.863
  392POPC   C2B 7832  19.142  34.425   8.459
  392POPC   C3B 7833  19.086  34.256   8.085
  392POPC   C4B 7834  19.204  34.124   7.711
  393POPC   NC3 7835  39.465  21.856   9.721
  393POPC   PO4 7836  38.966  22.286   9.515
  393POPC   GL1 7837  39.200  22.299   9.156
  393POPC   GL2 7838  39.426  22.003   9.206
  393POPC   C1A 7839  39.117  22.493   8.762
  393POPC   D2A 7840  38.998  22.248   8.421
  393POPC   C3A 7841  39.181  22.226   8.030
  393POPC   C4A 7842  38.974  21.905   7.858
  393POPC   C1B 7843  39.195  21.943   8.802
  393POPC   C2B 7844  39.350  21.875   8.410
  393POPC   C3B 7845  39.448  21.772   8.038
  393POPC   C4B 7846  39.471  21.865   7.677
  394POPC   NC3 7847  43.793  17.764   9.440
  394POPC   PO4 7848  44.181  17.199   9.470
  394POPC   GL1 7849  44.052  17.437   9.166
  394POPC   GL2 7850  43.757  17.355   9.124
  394POPC   C1A 7851  44.157  17.541   8.776
  394POPC   D2A 7852  44.027  17.431   8.415
  394POPC   C3A 7853  43.852  17.645   8.091
  394POPC   C4A 7854  44.020  17.851   7.729
  394POPC   C1B 7855  43.650  17.564   8.745
  394POPC   C2B 7856  43.543  17.345   8.371
  394POPC   C3B 7857  43.877  16.992   8.229
  394POPC   C4B 7858  43.889  17.155   7.834
  395POPC   NC3 7859   4.671  29.350   9.410
  395POPC   PO4 7860   4.092  29.016   9.614
  395POPC   GL1 7861   4.277  29.071   9.199
  395POPC   GL2 7862   4.449  28.748   9.099
  395POPC   C1A 7863   4.276  29.252   8.762
  395POPC   D2A 7864   4.143  29.065   8.370
  395POPC   C3A 7865   4.266  29.096   7.942
  395POPC   C4A 7866   3.996  29.148   7.606
  395POPC   C1B 7867   4.516  28.817   8.655
  395POPC   C2B 7868   4.646  28.894   8.245
  395POPC   C3B 7869   4.529  28.625   7.929
  395POPC   C4B 7870   4.577  28.588   7.484
  396POPC   NC3 7871   9.509  38.373   9.388
  396POPC   PO4 7872   8.779  38.288   9.556
  396POPC   GL1 7873   9.017  38.421   9.211
  396POPC   GL2 7874   8.849  38.219   8.972
  396POPC   C1A 7875   9.183  38.537   8.799
  396POPC   D2A 7876   8.914  38.441   8.460
  396POPC   C3A 7877   9.002  38.612   8.084
  396POPC   C4A 7878   9.283  38.556   7.705
  396POPC   C1B 7879   9.116  38.033   8.722
  396POPC   C2B 7880   9.015  37.965   8.317
  396POPC   C3B 7881   9.095  38.132   7.934
  396POPC   C4B 7882   8.948  38.202   7.517
  397POPC   NC3 7883  30.035  44.308   9.312
  397POPC   PO4 7884  29.672  44.889   9.377
  397POPC   GL1 7885  29.905  44.730   9.057
  397POPC   GL2 7886  30.256  44.750   9.154
  397POPC   C1A 7887  29.727  44.507   8.696
  397POPC   D2A 7888  29.707  44.667   8.277
  397POPC   C3A 7889  29.939  44.526   7.952
  397POPC   C4A 7890  30.121  44.587   7.562
  397POPC   C1B 7891  30.355  44.920   8.762
  397POPC   C2B 7892  30.318  44.744   8.354
  397POPC   C3B 7893  30.303  44.905   7.945
  397POPC   C4B 7894  30.194   0.074   7.544
  398POPC   NC3 7895  44.156   1.307   9.701
  398POPC   PO4 7896  43.527   1.073   9.580
  398POPC   GL1 7897  43.831   1.273   9.289
  398POPC   GL2 7898  44.093   1.031   9.268
  398POPC   C1A 7899  43.896   1.451   8.862
  398POPC   D2A 7900  43.681   1.455   8.454
  398POPC   C3A 7901  43.919   1.378   8.061
  398POPC   C4A 7902  43.742   1.146   7.737
  398POPC   C1B 7903  43.895   0.955   8.865
  398POPC   C2B 7904  44.099   1.105   8.498
  398POPC   C3B 7905  44.111   0.869   8.124
  398POPC   C4B 7906  44.190   0.918   7.710
  399POPC   NC3 7907  33.977  31.797   9.590
  399POPC   PO4 7908  33.416  31.724   9.276
  399POPC   GL1 7909  33.742  32.031   9.151
  399POPC   GL2 7910  33.723  32.393   9.075
  399POPC   C1A 7911  33.998  32.100   8.755
  399POPC   D2A 7912  34.215  32.217   8.361
  399POPC   C3A 7913  33.957  32.304   7.983
  399POPC   C4A 7914  33.793  31.901   7.841
  399POPC   C1B 7915  33.497  32.236   8.711
  399POPC   C2B 7916  33.572  32.160   8.272
  399POPC   C3B 7917  33.459  32.299   7.846
  399POPC   C4B 7918  33.365  32.636   7.591
  400POPC   NC3 7919   2.245  27.419   9.417
  400POPC   PO4 7920   1.633  27.541   9.578
  400POPC   GL1 7921   1.806  27.518   9.167
  400POPC   GL2 7922   1.968  27.827   9.258
  400POPC   C1A 7923   2.079  27.555   8.783
  400POPC   D2A 7924   2.087  27.356   8.369
  400POPC   C3A 7925   2.051  27.642   8.068
  400POPC   C4A 7926   1.999  27.473   7.675
  400POPC   C1B 7927   1.823  28.002   8.891
  400POPC   C2B 7928   1.860  27.930   8.467
  400POPC   C3B 7929   1.848  28.146   8.077
  400POPC   C4B 7930   1.844  27.968   7.728
  401POPC   NC3 7931  13.813  26.119   9.638
  401POPC   PO4 7932  13.146  26.227   9.521
  401POPC   GL1 7933  13.434  26.235   9.146
  401POPC   GL2 7934  13.730  26.024   9.125
  401POPC   C1A 7935  13.545  26.152   8.689
  401POPC   D2A 7936  13.407  26.265   8.302
  401POPC   C3A 7937  13.600  26.079   7.985
  401POPC   C4A 7938  13.377  25.955   7.649
  401POPC   C1B 7939  13.866  25.761   8.751
  401POPC   C2B 7940  13.873  25.731   8.317
  401POPC   C3B 7941  14.016  25.660   7.902
  401POPC   C4B 7942  13.812  25.736   7.572
  402POPC   NC3 7943  42.867  39.831   9.626
  402POPC   PO4 7944  43.296  40.316   9.595
  402POPC   GL1 7945  43.219  39.965   9.282
  402POPC   GL2 7946  42.934  40.088   9.134
  402POPC   C1A 7947  43.270  39.752   8.856
  402POPC   D2A 7948  43.156  39.877   8.428
  402POPC   C3A 7949  43.388  39.844   8.075
  402POPC   C4A 7950  43.341  39.999   7.660
  402POPC   C1B 7951  42.768  40.005   8.725
  402POPC   C2B 7952  42.670  40.005   8.293
  402POPC   C3B 7953  42.906  39.986   7.932
  402POPC   C4B 7954  42.837  39.846   7.543
  403POPC   NC3 7955  33.996  24.224   9.510
  403POPC   PO4 7956  33.693  24.812   9.569
  403POPC   GL1 7957  33.837  24.637   9.158
  403POPC   GL2 7958  33.958  24.300   9.026
  403POPC   C1A 7959  33.825  24.677   8.709
  403POPC   D2A 7960  33.921  24.310   8.503
  403POPC   C3A 7961  33.983  24.449   8.126
  403POPC   C4A 7962  33.840  24.551   7.734
  403POPC   C1B 7963  33.550  24.284   8.872
  403POPC   C2B 7964  33.409  24.230   8.429
  403POPC   C3B 7965  33.494  24.282   7.987
  403POPC   C4B 7966  33.502  24.200   7.535
  404POPC   NC3 7967  35.924  19.626   9.605
  404POPC   PO4 7968  36.427  20.000   9.536
  404POPC   GL1 7969  36.246  19.771   9.193
  404POPC   GL2 7970  35.979  19.518   9.126
  404POPC   C1A 7971  36.062  19.919   8.800
  404POPC   D2A 7972  36.227  19.791   8.402
  404POPC   C3A 7973  36.012  19.996   8.056
  404POPC   C4A 7974  36.230  20.194   7.720
  404POPC   C1B 7975  36.000  19.417   8.719
  404POPC   C2B 7976  35.804  19.522   8.334
  404POPC   C3B 7977  35.972  19.488   7.915
  404POPC   C4B 7978  35.821  19.477   7.496
  405POPC   NC3 7979  20.432  14.940   9.483
  405POPC   PO4 7980  20.312  15.613   9.527
  405POPC   GL1 7981  20.454  15.347   9.141
  405POPC   GL2 7982  20.279  15.043   9.013
  405POPC   C1A 7983  20.734  15.171   8.784
  405POPC   D2A 7984  20.932  15.112   8.367
  405POPC   C3A 7985  20.638  15.323   8.067
  405POPC   C4A 7986  20.688  15.582   7.688
  405POPC   C1B 7987  20.391  14.826   8.660
  405POPC   C2B 7988  20.614  14.705   8.317
  405POPC   C3B 7989  20.501  14.804   7.908
  405POPC   C4B 7990  20.425  15.142   7.628
  406POPC   NC3 7991  14.050   2.750   9.481
  406POPC   PO4 7992  14.692   2.918   9.446
  406POPC   GL1 7993  14.342   3.096   9.201
  406POPC   GL2 7994  14.312   2.793   9.046
  406POPC   C1A 7995  14.281   3.215   8.774
  406POPC   D2A 7996  14.441   3.049   8.390
  406POPC   C3A 7997  14.326   3.137   7.983
  406POPC   C4A 7998  14.328   2.792   7.682
  406POPC   C1B 7999  14.112   2.735   8.652
  406POPC   C2B 8000  14.114   2.389   8.361
  406POPC   C3B 8001  14.020   2.384   7.930
  406POPC   C4B 8002  14.064   2.383   7.485
  407POPC   NC3 8003  28.403  21.490   9.691
  407POPC   PO4 8004  28.277  21.847   9.211
  407POPC   GL1 8005  28.259  21.497   9.012
  407POPC   GL2 8006  28.018  21.277   9.125
  407POPC   C1A 8007  28.432  21.519   8.631
  407POPC   D2A 8008  28.569  21.858   8.418
  407POPC   C3A 8009  28.580  21.713   8.020
  407POPC   C4A 8010  28.600  21.292   7.859
  407POPC   C1B 8011  28.074  21.140   8.678
  407POPC   C2B 8012  28.239  21.220   8.247
  407POPC   C3B 8013  28.086  21.347   7.828
  407POPC   C4B 8014  28.109  21.235   7.369
  408POPC   NC3 8015  31.146  23.857   9.426
  408POPC   PO4 8016  30.579  24.185   9.501
  408POPC   GL1 8017  30.639  23.896   9.179
  408POPC   GL2 8018  30.932  23.958   8.958
  408POPC   C1A 8019  30.523  23.719   8.794
  408POPC   D2A 8020  30.702  23.918   8.454
  408POPC   C3A 8021  30.612  23.779   8.064
  408POPC   C4A 8022  30.793  23.982   7.732
  408POPC   C1B 8023  31.041  23.618   8.696
  408POPC   C2B 8024  30.972  23.475   8.270
  408POPC   C3B 8025  31.037  23.536   7.824
  408POPC   C4B 8026  31.054  23.332   7.387
  409POPC   NC3 8027  10.611   8.077   9.649
  409POPC   PO4 8028  10.040   8.037   9.435
  409POPC   GL1 8029  10.401   8.137   9.169
  409POPC   GL2 8030  10.762   8.306   9.214
  409POPC   C1A 8031  10.565   8.116   8.775
  409POPC   D2A 8032  10.612   7.946   8.389
  409POPC   C3A 8033  10.336   8.054   8.124
  409POPC   C4A 8034  10.437   8.107   7.729
  409POPC   C1B 8035  10.844   8.556   8.829
  409POPC   C2B 8036  10.730   8.446   8.405
  409POPC   C3B 8037  10.780   8.363   8.007
  409POPC   C4B 8038  10.667   8.615   7.705
  410POPC   NC3 8039  10.570  37.559   9.572
  410POPC   PO4 8040  10.841  38.171   9.448
  410POPC   GL1 8041  10.739  37.871   9.115
  410POPC   GL2 8042  10.466  37.624   9.075
  410POPC   C1A 8043  10.596  37.895   8.679
  410POPC   D2A 8044  10.377  37.976   8.291
  410POPC   C3A 8045  10.487  37.641   7.983
  410POPC   C4A 8046  10.603  37.646   7.524
  410POPC   C1B 8047  10.761  37.333   8.854
  410POPC   C2B 8048  10.967  37.283   8.442
  410POPC   C3B 8049  10.960  37.176   8.025
  410POPC   C4B 8050  10.641  37.207   7.751
  411POPC   NC3 8051   4.586  15.959   9.458
  411POPC   PO4 8052   5.236  16.007   9.840
  411POPC   GL1 8053   5.113  15.844   9.394
  411POPC   GL2 8054   4.964  16.070   9.160
  411POPC   C1A 8055   5.152  15.682   8.929
  411POPC   D2A 8056   5.329  15.653   8.511
  411POPC   C3A 8057   5.051  15.598   8.155
  411POPC   C4A 8058   5.085  15.726   7.690
  411POPC   C1B 8059   4.841  16.084   8.771
  411POPC   C2B 8060   5.001  16.065   8.399
  411POPC   C3B 8061   4.880  16.065   8.004
  411POPC   C4B 8062   4.869  16.260   7.612
  412POPC   NC3 8063  36.659  32.015   9.193
  412POPC   PO4 8064  37.177  32.259   9.582
  412POPC   GL1 8065  37.113  32.332   9.152
  412POPC   GL2 8066  37.236  31.976   9.143
  412POPC   C1A 8067  36.853  32.445   8.728
  412POPC   D2A 8068  36.831  32.138   8.364
  412POPC   C3A 8069  36.856  32.322   7.971
  412POPC   C4A 8070  36.560  32.568   7.763
  412POPC   C1B 8071  37.182  32.068   8.732
  412POPC   C2B 8072  37.346  32.155   8.345
  412POPC   C3B 8073  37.195  31.877   8.084
  412POPC   C4B 8074  37.125  31.979   7.680
  413POPC   NC3 8075  42.653  42.145   9.418
  413POPC   PO4 8076  42.036  42.206   9.533
  413POPC   GL1 8077  42.244  42.277   9.121
  413POPC   GL2 8078  42.351  41.909   9.085
  413POPC   C1A 8079  42.315  42.528   8.714
  413POPC   D2A 8080  42.450  42.739   8.338
  413POPC   C3A 8081  42.159  42.611   8.008
  413POPC   C4A 8082  42.175  42.271   7.753
  413POPC   C1B 8083  42.580  42.088   8.737
  413POPC   C2B 8084  42.417  42.193   8.345
  413POPC   C3B 8085  42.405  41.912   8.008
  413POPC   C4B 8086  42.090  41.714   7.774
  414POPC   NC3 8087  15.510  33.494   9.624
  414POPC   PO4 8088  14.932  33.608   9.405
  414POPC   GL1 8089  15.163  33.659   9.056
  414POPC   GL2 8090  15.002  33.976   8.996
  414POPC   C1A 8091  15.235  33.695   8.600
  414POPC   D2A 8092  15.236  33.481   8.218
  414POPC   C3A 8093  15.256  33.653   7.821
  414POPC   C4A 8094  14.986  33.621   7.459
  414POPC   C1B 8095  14.895  34.104   8.575
  414POPC   C2B 8096  15.117  34.013   8.195
  414POPC   C3B 8097  15.113  34.174   7.802
  414POPC   C4B 8098  15.128  34.327   7.409
  415POPC   NC3 8099  26.854  36.544   9.496
  415POPC   PO4 8100  27.049  37.222   9.498
  415POPC   GL1 8101  26.928  36.932   9.140
  415POPC   GL2 8102  26.597  36.834   9.133
  415POPC   C1A 8103  26.915  36.788   8.691
  415POPC   D2A 8104  26.993  37.071   8.318
  415POPC   C3A 8105  26.888  36.839   7.957
  415POPC   C4A 8106  27.162  36.499   7.830
  415POPC   C1B 8107  26.555  37.139   8.784
  415POPC   C2B 8108  26.499  36.956   8.368
  415POPC   C3B 8109  26.371  36.867   7.950
  415POPC   C4B 8110  26.534  36.977   7.568
  416POPC   NC3 8111  10.335  44.954   9.781
  416POPC   PO4 8112  10.556  44.339   9.537
  416POPC   GL1 8113  10.416  44.632   9.233
  416POPC   GL2 8114  10.672  44.895   9.297
  416POPC   C1A 8115  10.341  44.517   8.778
  416POPC   D2A 8116  10.572  44.341   8.420
  416POPC   C3A 8117  10.485  44.523   8.031
  416POPC   C4A 8118  10.699  44.611   7.663
  416POPC   C1B 8119  10.722  44.852   8.857
  416POPC   C2B 8120  10.550  44.883   8.427
  416POPC   C3B 8121  10.764   0.005   8.035
  416POPC   C4B 8122  10.729   0.120   7.618
  417POPC   NC3 8123  15.073  31.892   9.436
  417POPC   PO4 8124  15.404  32.385   9.311
  417POPC   GL1 8125  15.100  32.229   9.031
  417POPC   GL2 8126  15.183  31.895   8.930
  417POPC   C1A 8127  15.028  32.289   8.583
  417POPC   D2A 8128  15.182  32.503   8.204
  417POPC   C3A 8129  14.926  32.307   7.910
  417POPC   C4A 8130  15.007  31.901   7.725
  417POPC   C1B 8131  15.474  32.061   8.624
  417POPC   C2B 8132  15.323  32.024   8.205
  417POPC   C3B 8133  15.427  32.157   7.821
  417POPC   C4B 8134  15.757  31.962   7.663
  418POPC   NC3 8135  25.172  23.454   9.547
  418POPC   PO4 8136  24.924  24.085   9.538
  418POPC   GL1 8137  25.057  23.810   9.222
  418POPC   GL2 8138  25.339  23.890   9.037
  418POPC   C1A 8139  25.058  23.509   8.888
  418POPC   D2A 8140  25.297  23.710   8.551
  418POPC   C3A 8141  25.050  23.628   8.197
  418POPC   C4A 8142  25.160  23.510   7.795
  418POPC   C1B 8143  25.674  24.053   8.817
  418POPC   C2B 8144  25.650  24.099   8.388
  418POPC   C3B 8145  25.490  23.861   8.082
  418POPC   C4B 8146  25.522  23.897   7.695
  419POPC   NC3 8147  31.151  17.536   9.318
  419POPC   PO4 8148  30.527  17.805   9.542
  419POPC   GL1 8149  30.618  17.613   9.159
  419POPC   GL2 8150  30.739  17.276   9.102
  419POPC   C1A 8151  30.768  17.729   8.769
  419POPC   D2A 8152  30.723  17.764   8.343
  419POPC   C3A 8153  30.711  17.393   8.078
  419POPC   C4A 8154  30.505  17.438   7.692
  419POPC   C1B 8155  30.984  17.260   8.699
  419POPC   C2B 8156  31.145  17.501   8.365
  419POPC   C3B 8157  31.084  17.732   7.968
  419POPC   C4B 8158  31.040  17.427   7.664
  420POPC   NC3 8159  15.991  21.054   9.853
  420POPC   PO4 8160  16.100  20.417   9.622
  420POPC   GL1 8161  15.892  20.647   9.301
  420POPC   GL2 8162  15.625  20.416   9.168
  420POPC   C1A 8163  16.007  20.657   8.872
  420POPC   D2A 8164  16.077  20.441   8.496
  420POPC   C3A 8165  16.287  20.672   8.164
  420POPC   C4A 8166  16.240  20.782   7.750
  420POPC   C1B 8167  15.545  20.474   8.715
  420POPC   C2B 8168  15.609  20.606   8.304
  420POPC   C3B 8169  15.767  20.785   7.953
  420POPC   C4B 8170  15.805  20.541   7.595
  421POPC   NC3 8171  17.388  40.058   9.595
  421POPC   PO4 8172  17.844  40.492   9.329
  421POPC   GL1 8173  17.590  40.222   9.090
  421POPC   GL2 8174  17.640  39.859   9.160
  421POPC   C1A 8175  17.500  40.224   8.657
  421POPC   D2A 8176  17.758  40.090   8.328
  421POPC   C3A 8177  17.588  40.221   7.928
  421POPC   C4A 8178  17.624  40.206   7.470
  421POPC   C1B 8179  17.527  39.737   8.737
  421POPC   C2B 8180  17.386  39.735   8.301
  421POPC   C3B 8181  17.579  39.717   7.884
  421POPC   C4B 8182  17.352  39.779   7.495
  422POPC   NC3 8183   1.591   3.144   9.517
  422POPC   PO4 8184   2.177   2.729   9.691
  422POPC   GL1 8185   2.101   2.642   9.224
  422POPC   GL2 8186   1.959   2.978   9.199
  422POPC   C1A 8187   2.088   2.461   8.750
  422POPC   D2A 8188   2.086   2.681   8.317
  422POPC   C3A 8189   2.003   2.547   7.863
  422POPC   C4A 8190   1.772   2.305   7.537
  422POPC   C1B 8191   2.061   2.959   8.783
  422POPC   C2B 8192   2.108   3.189   8.410
  422POPC   C3B 8193   2.140   3.156   7.979
  422POPC   C4B 8194   1.856   3.022   7.663
  423POPC   NC3 8195  39.882  24.589   9.563
  423POPC   PO4 8196  40.074  25.181   9.409
  423POPC   GL1 8197  40.019  25.092   9.037
  423POPC   GL2 8198  40.139  24.746   9.104
  423POPC   C1A 8199  39.877  25.421   8.760
  423POPC   D2A 8200  39.771  25.316   8.351
  423POPC   C3A 8201  39.718  25.525   7.995
  423POPC   C4A 8202  39.905  25.385   7.636
  423POPC   C1B 8203  40.270  24.827   8.684
  423POPC   C2B 8204  40.249  24.954   8.287
  423POPC   C3B 8205  40.044  25.024   7.962
  423POPC   C4B 8206  40.366  25.157   7.678
  424POPC   NC3 8207  25.021  15.695   9.457
  424POPC   PO4 8208  25.226  15.124   9.724
  424POPC   GL1 8209  25.306  15.127   9.260
  424POPC   GL2 8210  24.966  15.071   9.091
  424POPC   C1A 8211  25.412  15.093   8.806
  424POPC   D2A 8212  25.210  15.005   8.414
  424POPC   C3A 8213  25.325  15.154   7.994
  424POPC   C4A 8214  25.601  14.939   7.767
  424POPC   C1B 8215  24.919  15.346   8.681
  424POPC   C2B 8216  24.934  15.399   8.208
  424POPC   C3B 8217  24.910  15.364   7.752
  424POPC   C4B 8218  25.087  15.617   7.425
  425POPC   NC3 8219  18.002  31.290   9.499
  425POPC   PO4 8220  18.670  31.117   9.449
  425POPC   GL1 8221  18.350  31.219   9.104
  425POPC   GL2 8222  18.129  31.556   9.111
  425POPC   C1A 8223  18.189  31.355   8.673
  425POPC   D2A 8224  17.869  31.392   8.391
  425POPC   C3A 8225  18.081  31.444   8.025
  425POPC   C4A 8226  18.378  31.314   7.717
  425POPC   C1B 8227  18.545  31.643   8.926
  425POPC   C2B 8228  18.539  31.694   8.479
  425POPC   C3B 8229  18.538  31.709   8.035
  425POPC   C4B 8230  18.240  31.816   7.685
  426POPC   NC3 8231  17.448  41.269   9.619
  426POPC   PO4 8232  17.208  41.876   9.345
  426POPC   GL1 8233  17.489  41.701   9.013
  426POPC   GL2 8234  17.831  41.808   8.993
  426POPC   C1A 8235  17.670  41.507   8.631
  426POPC   D2A 8236  17.483  41.524   8.256
  426POPC   C3A 8237  17.652  41.444   7.862
  426POPC   C4A 8238  17.357  41.140   7.666
  426POPC   C1B 8239  17.800  42.027   8.622
  426POPC   C2B 8240  17.731  41.969   8.166
  426POPC   C3B 8241  17.377  41.899   7.907
  426POPC   C4B 8242  17.144  41.555   7.843
  427POPC   NC3 8243  25.313   3.431   9.480
  427POPC   PO4 8244  24.951   4.029   9.563
  427POPC   GL1 8245  25.335   3.913   9.294
  427POPC   GL2 8246  25.115   3.726   9.108
  427POPC   C1A 8247  25.524   3.812   8.858
  427POPC   D2A 8248  25.446   3.977   8.413
  427POPC   C3A 8249  25.345   3.720   7.994
  427POPC   C4A 8250  25.239   3.731   7.515
  427POPC   C1B 8251  25.055   3.492   8.710
  427POPC   C2B 8252  25.040   3.177   8.361
  427POPC   C3B 8253  25.268   3.104   7.965
  427POPC   C4B 8254  25.548   3.318   7.695
  428POPC   NC3 8255  40.950   0.117   9.337
  428POPC   PO4 8256  40.713   0.746   9.443
  428POPC   GL1 8257  40.713   0.502   9.071
  428POPC   GL2 8258  40.497   0.216   9.106
  428POPC   C1A 8259  40.835   0.264   8.704
  428POPC   D2A 8260  40.904   0.149   8.295
  428POPC   C3A 8261  41.056   0.441   7.978
  428POPC   C4A 8262  40.886   0.492   7.533
  428POPC   C1B 8263  40.351   0.067   8.707
  428POPC   C2B 8264  40.403   0.152   8.251
  428POPC   C3B 8265  40.636   0.172   7.859
  428POPC   C4B 8266  40.530   0.068   7.442
  429POPC   NC3 8267  22.446  20.915   9.252
  429POPC   PO4 8268  22.018  21.026   9.802
  429POPC   GL1 8269  22.270  21.365   9.439
  429POPC   GL2 8270  22.567  21.429   9.152
  429POPC   C1A 8271  22.122  21.519   8.979
  429POPC   D2A 8272  21.994  21.470   8.527
  429POPC   C3A 8273  22.143  21.394   8.111
  429POPC   C4A 8274  22.012  21.243   7.707
  429POPC   C1B 8275  22.522  21.739   8.756
  429POPC   C2B 8276  22.712  21.903   8.335
  429POPC   C3B 8277  22.569  21.790   7.929
  429POPC   C4B 8278  22.469  21.424   7.723
  430POPC   NC3 8279  33.963   0.066   9.437
  430POPC   PO4 8280  33.569   0.644   9.641
  430POPC   GL1 8281  33.624   0.431   9.264
  430POPC   GL2 8282  33.974   0.537   9.223
  430POPC   C1A 8283  33.543   0.424   8.824
  430POPC   D2A 8284  33.650   0.607   8.429
  430POPC   C3A 8285  33.604   0.428   8.023
  430POPC   C4A 8286  33.749   0.681   7.717
  430POPC   C1B 8287  34.046   0.579   8.802
  430POPC   C2B 8288  34.115   0.337   8.442
  430POPC   C3B 8289  34.115   0.520   8.042
  430POPC   C4B 8290  34.054   0.261   7.700
  431POPC   NC3 8291  19.502  10.642   9.659
  431POPC   PO4 8292  19.961  10.262   9.735
  431POPC   GL1 8293  20.040  10.494   9.334
  431POPC   GL2 8294  19.765  10.709   9.209
  431POPC   C1A 8295  20.059  10.480   8.868
  431POPC   D2A 8296  20.132  10.345   8.440
  431POPC   C3A 8297  19.775  10.324   8.172
  431POPC   C4A 8298  19.888  10.404   7.766
  431POPC   C1B 8299  19.573  10.831   8.792
  431POPC   C2B 8300  19.490  10.730   8.345
  431POPC   C3B 8301  19.680  10.852   7.929
  431POPC   C4B 8302  19.668  10.839   7.453
  432POPC   NC3 8303  28.472  13.991   9.429
  432POPC   PO4 8304  28.407  13.360   9.492
  432POPC   GL1 8305  28.166  13.597   9.130
  432POPC   GL2 8306  28.221  13.922   9.010
  432POPC   C1A 8307  28.060  13.569   8.680
  432POPC   D2A 8308  28.296  13.659   8.302
  432POPC   C3A 8309  28.244  13.520   7.864
  432POPC   C4A 8310  28.310  13.800   7.526
  432POPC   C1B 8311  28.525  13.893   8.721
  432POPC   C2B 8312  28.623  14.048   8.347
  432POPC   C3B 8313  28.488  14.003   7.948
  432POPC   C4B 8314  28.825  13.972   7.647
  433POPC   NC3 8315  34.494  43.329   9.579
  433POPC   PO4 8316  34.976  42.874   9.760
  433POPC   GL1 8317  34.693  42.891   9.324
  433POPC   GL2 8318  34.642  43.226   9.121
  433POPC   C1A 8319  34.720  42.847   8.826
  433POPC   D2A 8320  34.491  42.860   8.413
  433POPC   C3A 8321  34.671  42.743   8.025
  433POPC   C4A 8322  34.705  42.979   7.649
  433POPC   C1B 8323  34.802  43.384   8.750
  433POPC   C2B 8324  34.505  43.375   8.443
  433POPC   C3B 8325  34.602  43.263   8.057
  433POPC   C4B 8326  34.856  43.459   7.773
  434POPC   NC3 8327  24.485   3.881   9.533
  434POPC   PO4 8328  24.868   3.346   9.314
  434POPC   GL1 8329  24.612   3.612   9.036
  434POPC   GL2 8330  24.282   3.694   9.107
  434POPC   C1A 8331  24.568   3.660   8.589
  434POPC   D2A 8332  24.888   3.679   8.254
  434POPC   C3A 8333  24.882   3.438   7.874
  434POPC   C4A 8334  24.616   3.205   7.600
  434POPC   C1B 8335  24.068   3.633   8.739
  434POPC   C2B 8336  24.112   3.776   8.317
  434POPC   C3B 8337  24.377   3.738   7.942
  434POPC   C4B 8338  24.241   3.547   7.551
  435POPC   NC3 8339  20.518  43.961   9.643
  435POPC   PO4 8340  20.978  44.142   9.189
  435POPC   GL1 8341  20.802  43.728   9.095
  435POPC   GL2 8342  20.514  43.559   9.316
  435POPC   C1A 8343  20.761  43.697   8.628
  435POPC   D2A 8344  21.116  43.857   8.316
  435POPC   C3A 8345  20.890  44.005   7.952
  435POPC   C4A 8346  20.470  43.840   7.839
  435POPC   C1B 8347  20.308  43.651   8.936
  435POPC   C2B 8348  20.135  43.572   8.550
  435POPC   C3B 8349  20.115  43.573   8.126
  435POPC   C4B 8350  19.961  43.483   7.752
  436POPC   NC3 8351  16.624  44.180   9.702
  436POPC   PO4 8352  16.764  44.864   9.671
  436POPC   GL1 8353  16.694  44.548   9.343
  436POPC   GL2 8354  16.942  44.315   9.230
  436POPC   C1A 8355  16.483  44.430   8.964
  436POPC   D2A 8356  16.376  44.448   8.504
  436POPC   C3A 8357  16.616  44.583   8.138
  436POPC   C4A 8358  16.719  44.687   7.719
  436POPC   C1B 8359  17.050  44.556   8.848
  436POPC   C2B 8360  17.034  44.754   8.425
  436POPC   C3B 8361  17.113  44.538   8.009
  436POPC   C4B 8362  16.833  44.215   7.815
  437POPC   NC3 8363  14.562  38.526   9.564
  437POPC   PO4 8364  13.922  38.598   9.597
  437POPC   GL1 8365  14.034  38.700   9.141
  437POPC   GL2 8366  14.398  38.706   9.118
  437POPC   C1A 8367  14.151  38.488   8.716
  437POPC   D2A 8368  14.009  38.336   8.293
  437POPC   C3A 8369  14.249  38.462   7.928
  437POPC   C4A 8370  14.715  38.343   7.832
  437POPC   C1B 8371  14.605  38.724   8.730
  437POPC   C2B 8372  14.471  38.703   8.316
  437POPC   C3B 8373  14.580  38.848   7.904
  437POPC   C4B 8374  14.499  38.671   7.494
  438POPC   NC3 8375  35.725  29.100   9.337
  438POPC   PO4 8376  35.154  29.357   9.623
  438POPC   GL1 8377  35.110  29.100   9.156
  438POPC   GL2 8378  35.398  29.028   8.962
  438POPC   C1A 8379  35.054  29.258   8.697
  438POPC   D2A 8380  35.300  29.094   8.385
  438POPC   C3A 8381  35.148  29.250   8.027
  438POPC   C4A 8382  35.284  29.170   7.632
  438POPC   C1B 8383  35.702  29.218   8.697
  438POPC   C2B 8384  35.712  29.532   8.414
  438POPC   C3B 8385  35.669  29.304   8.042
  438POPC   C4B 8386  35.789  29.227   7.642
  439POPC   NC3 8387  26.569  40.318   9.419
  439POPC   PO4 8388  26.852  41.053   9.389
  439POPC   GL1 8389  26.679  40.747   9.110
  439POPC   GL2 8390  26.898  40.454   9.053
  439POPC   C1A 8391  26.474  40.743   8.690
  439POPC   D2A 8392  26.469  40.678   8.216
  439POPC   C3A 8393  26.718  40.957   7.945
  439POPC   C4A 8394  26.725  41.061   7.502
  439POPC   C1B 8395  26.989  40.665   8.705
  439POPC   C2B 8396  27.000  40.728   8.304
  439POPC   C3B 8397  27.063  40.580   7.909
  439POPC   C4B 8398  27.057  40.640   7.462
  440POPC   NC3 8399  27.185  29.260   9.761
  440POPC   PO4 8400  26.527  28.962   9.602
  440POPC   GL1 8401  26.793  29.118   9.271
  440POPC   GL2 8402  26.927  28.848   9.073
  440POPC   C1A 8403  26.732  29.270   8.866
  440POPC   D2A 8404  26.649  29.259   8.447
  440POPC   C3A 8405  27.007  29.290   8.212
  440POPC   C4A 8406  27.045  29.406   7.828
  440POPC   C1B 8407  26.723  28.800   8.695
  440POPC   C2B 8408  26.912  28.807   8.299
  440POPC   C3B 8409  26.800  28.931   7.893
  440POPC   C4B 8410  26.974  28.701   7.545
  441POPC   NC3 8411   6.961   0.223   9.354
  441POPC   PO4 8412   7.616   0.071   9.635
  441POPC   GL1 8413   7.475   0.148   9.174
  441POPC   GL2 8414   7.336   0.488   9.065
  441POPC   C1A 8415   7.371   0.098   8.727
  441POPC   D2A 8416   7.313   0.376   8.368
  441POPC   C3A 8417   7.316   0.203   7.944
  441POPC   C4A 8418   7.347   0.399   7.534
  441POPC   C1B 8419   7.137   0.758   8.700
  441POPC   C2B 8420   6.925   0.772   8.284
  441POPC   C3B 8421   7.039   0.720   7.810
  441POPC   C4B 8422   7.073   0.789   7.317
  442POPC   NC3 8423  25.522  35.284   9.520
  442POPC   PO4 8424  24.846  35.461   9.495
  442POPC   GL1 8425  25.174  35.440   9.161
  442POPC   GL2 8426  25.273  35.138   9.091
  442POPC   C1A 8427  25.465  35.485   8.794
  442POPC   D2A 8428  25.309  35.580   8.389
  442POPC   C3A 8429  25.252  35.286   8.087
  442POPC   C4A 8430  25.550  35.141   7.783
  442POPC   C1B 8431  25.047  35.190   8.695
  442POPC   C2B 8432  24.880  34.949   8.332
  442POPC   C3B 8433  24.815  35.053   7.903
  442POPC   C4B 8434  25.047  35.307   7.611
  443POPC   NC3 8435  14.874  10.378   9.836
  443POPC   PO4 8436  14.411  10.744   9.574
  443POPC   GL1 8437  14.382  10.597   9.093
  443POPC   GL2 8438  14.388  10.268   9.104
  443POPC   C1A 8439  14.223  10.463   8.657
  443POPC   D2A 8440  14.496  10.390   8.274
  443POPC   C3A 8441  14.248  10.567   7.933
  443POPC   C4A 8442  14.177  10.994   7.800
  443POPC   C1B 8443  14.577  10.108   8.733
  443POPC   C2B 8444  14.366   9.879   8.411
  443POPC   C3B 8445  14.258  10.014   7.999
  443POPC   C4B 8446  14.506  10.210   7.682
  444POPC   NC3 8447  14.679  23.537   9.442
  444POPC   PO4 8448  14.114  23.854   9.499
  444POPC   GL1 8449  14.216  23.645   9.139
  444POPC   GL2 8450  14.545  23.657   8.983
  444POPC   C1A 8451  14.120  23.603   8.723
  444POPC   D2A 8452  14.323  23.647   8.358
  444POPC   C3A 8453  14.006  23.644   8.067
  444POPC   C4A 8454  14.069  23.723   7.653
  444POPC   C1B 8455  14.790  23.724   8.615
  444POPC   C2B 8456  14.792  23.461   8.242
  444POPC   C3B 8457  14.559  23.547   7.879
  444POPC   C4B 8458  14.756  23.888   7.660
  445POPC   NC3 8459   3.783  29.783   9.253
  445POPC   PO4 8460   3.277  30.032   9.439
  445POPC   GL1 8461   3.518  30.157   9.043
  445POPC   GL2 8462   3.528  29.886   8.834
  445POPC   C1A 8463   3.299  30.276   8.644
  445POPC   D2A 8464   3.167  30.039   8.318
  445POPC   C3A 8465   3.499  30.186   8.060
  445POPC   C4A 8466   3.642  29.951   7.696
  445POPC   C1B 8467   3.841  30.064   8.621
  445POPC   C2B 8468   3.984  30.003   8.206
  445POPC   C3B 8469   4.054  30.191   7.819
  445POPC   C4B 8470   3.893  30.207   7.362
  446POPC   NC3 8471   2.058  28.850   9.346
  446POPC   PO4 8472   1.726  29.434   9.517
  446POPC   GL1 8473   1.772  29.236   9.137
  446POPC   GL2 8474   1.627  28.902   9.078
  446POPC   C1A 8475   1.927  29.332   8.746
  446POPC   D2A 8476   2.233  29.039   8.624
  446POPC   C3A 8477   2.299  29.104   8.226
  446POPC   C4A 8478   2.096  29.180   7.884
  446POPC   C1B 8479   1.733  28.861   8.690
  446POPC   C2B 8480   1.796  29.078   8.332
  446POPC   C3B 8481   1.610  29.009   7.992
  446POPC   C4B 8482   1.352  28.989   7.696
  447POPC   NC3 8483   6.932  38.118   9.620
  447POPC   PO4 8484   6.884  38.747   9.451
  447POPC   GL1 8485   6.708  38.495   9.180
  447POPC   GL2 8486   6.998  38.291   9.124
  447POPC   C1A 8487   6.722  38.597   8.750
  447POPC   D2A 8488   6.709  38.789   8.372
  447POPC   C3A 8489   6.608  38.579   8.008
  447POPC   C4A 8490   6.336  38.716   7.699
  447POPC   C1B 8491   6.634  38.114   8.840
  447POPC   C2B 8492   6.469  38.241   8.417
  447POPC   C3B 8493   6.481  38.072   7.984
  447POPC   C4B 8494   6.437  38.202   7.543
  448POPC   NC3 8495   5.506  41.569   9.762
  448POPC   PO4 8496   4.907  41.773   9.524
  448POPC   GL1 8497   4.845  41.470   9.194
  448POPC   GL2 8498   4.989  41.659   8.943
  448POPC   C1A 8499   4.638  41.339   8.769
  448POPC   D2A 8500   4.803  41.242   8.336
  448POPC   C3A 8501   4.851  41.540   8.007
  448POPC   C4A 8502   5.186  41.844   7.907
  448POPC   C1B 8503   5.364  41.743   8.687
  448POPC   C2B 8504   5.573  41.423   8.458
  448POPC   C3B 8505   5.379  41.366   8.058
  448POPC   C4B 8506   5.487  41.361   7.636
  449POPC   NC3 8507   3.669   5.282   9.548
  449POPC   PO4 8508   3.015   5.137   9.469
  449POPC   GL1 8509   3.367   5.113   9.128
  449POPC   GL2 8510   3.363   5.433   9.151
  449POPC   C1A 8511   3.610   4.917   8.742
  449POPC   D2A 8512   3.894   4.784   8.365
  449POPC   C3A 8513   3.680   4.751   7.957
  449POPC   C4A 8514   3.264   4.522   7.839
  449POPC   C1B 8515   3.779   5.363   8.919
  449POPC   C2B 8516   3.880   5.297   8.504
  449POPC   C3B 8517   3.621   5.224   8.177
  449POPC   C4B 8518   3.683   5.328   7.773
  450POPC   NC3 8519  13.252   1.950   9.480
  450POPC   PO4 8520  13.804   2.346   9.475
  450POPC   GL1 8521  13.640   2.054   9.144
  450POPC   GL2 8522  13.901   2.070   8.916
  450POPC   C1A 8523  13.479   1.741   8.820
  450POPC   D2A 8524  13.170   1.878   8.523
  450POPC   C3A 8525  13.227   1.831   8.100
  450POPC   C4A 8526  13.361   1.860   7.728
  450POPC   C1B 8527  13.714   2.065   8.498
  450POPC   C2B 8528  13.761   1.832   8.112
  450POPC   C3B 8529  13.856   1.956   7.690
  450POPC   C4B 8530  13.985   1.934   7.258
  451POPC   NC3 8531   6.146  13.041   9.537
  451POPC   PO4 8532   5.657  12.502   9.480
  451POPC   GL1 8533   5.731  12.830   9.226
  451POPC   GL2 8534   6.060  12.760   9.145
  451POPC   C1A 8535   5.720  12.820   8.786
  451POPC   D2A 8536   5.770  12.788   8.369
  451POPC   C3A 8537   5.654  13.122   8.118
  451POPC   C4A 8538   5.740  13.107   7.672
  451POPC   C1B 8539   6.145  13.113   8.849
  451POPC   C2B 8540   6.104  13.245   8.417
  451POPC   C3B 8541   6.131  13.241   7.975
  451POPC   C4B 8542   6.210  12.934   7.697
  452POPC   NC3 8543  15.742   2.520   9.478
  452POPC   PO4 8544  16.294   2.976   9.466
  452POPC   GL1 8545  15.923   2.897   9.162
  452POPC   GL2 8546  15.945   2.549   9.018
  452POPC   C1A 8547  15.707   2.908   8.750
  452POPC   D2A 8548  15.895   2.620   8.439
  452POPC   C3A 8549  16.092   2.771   8.045
  452POPC   C4A 8550  16.069   3.036   7.635
  452POPC   C1B 8551  16.276   2.374   8.754
  452POPC   C2B 8552  16.407   2.378   8.313
  452POPC   C3B 8553  16.192   2.276   7.921
  452POPC   C4B 8554  15.911   2.316   7.544
  453POPC   NC3 8555  25.844   0.211   9.528
  453POPC   PO4 8556  26.258   0.677   9.592
  453POPC   GL1 8557  26.129   0.482   9.180
  453POPC   GL2 8558  25.774   0.372   9.065
  453POPC   C1A 8559  26.196   0.300   8.779
  453POPC   D2A 8560  26.066   0.334   8.372
  453POPC   C3A 8561  26.258   0.618   8.124
  453POPC   C4A 8562  26.354   0.234   7.875
  453POPC   C1B 8563  25.714   0.548   8.674
  453POPC   C2B 8564  25.576   0.398   8.269
  453POPC   C3B 8565  25.807   0.290   7.909
  453POPC   C4B 8566  26.007   0.607   7.690
  454POPC   NC3 8567  27.753  35.332   9.575
  454POPC   PO4 8568  27.084  35.122   9.659
  454POPC   GL1 8569  27.151  35.191   9.182
  454POPC   GL2 8570  27.365  34.928   9.208
  454POPC   C1A 8571  27.464  35.327   8.786
  454POPC   D2A 8572  27.674  35.420   8.377
  454POPC   C3A 8573  27.757  35.092   8.090
  454POPC   C4A 8574  27.637  35.261   7.696
  454POPC   C1B 8575  27.256  34.881   8.773
  454POPC   C2B 8576  27.122  35.129   8.459
  454POPC   C3B 8577  27.270  35.177   8.107
  454POPC   C4B 8578  27.331  34.880   7.814
  455POPC   NC3 8579   3.039  19.084   9.506
  455POPC   PO4 8580   2.468  19.321   9.754
  455POPC   GL1 8581   2.583  19.008   9.288
  455POPC   GL2 8582   2.777  18.721   9.199
  455POPC   C1A 8583   2.606  19.062   8.792
  455POPC   D2A 8584   2.550  19.059   8.326
  455POPC   C3A 8585   2.835  19.325   8.091
  455POPC   C4A 8586   2.963  19.259   7.654
  455POPC   C1B 8587   2.839  18.619   8.752
  455POPC   C2B 8588   2.941  18.523   8.349
  455POPC   C3B 8589   2.739  18.663   7.989
  455POPC   C4B 8590   2.554  18.624   7.569
  456POPC   NC3 8591  32.523  35.838   9.363
  456POPC   PO4 8592  33.166  36.229   9.412
  456POPC   GL1 8593  32.935  36.221   9.064
  456POPC   GL2 8594  33.241  36.266   8.881
  456POPC   C1A 8595  32.858  35.988   8.682
  456POPC   D2A 8596  33.029  36.093   8.260
  456POPC   C3A 8597  32.790  36.104   7.862
  456POPC   C4A 8598  32.728  36.124   7.406
  456POPC   C1B 8599  33.412  35.881   8.676
  456POPC   C2B 8600  33.413  35.767   8.239
  456POPC   C3B 8601  33.454  36.071   7.928
  456POPC   C4B 8602  33.218  36.246   7.632
  457POPC   NC3 8603  33.154  28.947   9.388
  457POPC   PO4 8604  33.605  29.531   9.342
  457POPC   GL1 8605  33.350  29.454   9.006
  457POPC   GL2 8606  32.985  29.421   9.065
  457POPC   C1A 8607  33.271  29.319   8.588
  457POPC   D2A 8608  33.179  28.876   8.466
  457POPC   C3A 8609  33.313  28.918   8.058
  457POPC   C4A 8610  33.229  29.164   7.698
  457POPC   C1B 8611  32.790  29.226   8.687
  457POPC   C2B 8612  32.847  29.195   8.239
  457POPC   C3B 8613  32.731  29.141   7.804
  457POPC   C4B 8614  32.836  29.417   7.447
  458POPC   NC3 8615  30.862   7.331   9.677
  458POPC   PO4 8616  30.403   7.818   9.416
  458POPC   GL1 8617  30.443   7.731   8.951
  458POPC   GL2 8618  30.801   7.551   9.012
  458POPC   C1A 8619  30.507   7.624   8.537
  458POPC   D2A 8620  30.802   7.476   8.233
  458POPC   C3A 8621  30.603   7.273   7.882
  458POPC   C4A 8622  30.525   7.305   7.424
  458POPC   C1B 8623  30.840   7.211   8.716
  458POPC   C2B 8624  31.105   7.077   8.349
  458POPC   C3B 8625  31.021   6.944   7.908
  458POPC   C4B 8626  30.988   7.141   7.549
  459POPC   NC3 8627  29.313  37.160   9.695
  459POPC   PO4 8628  28.908  36.779   9.436
  459POPC   GL1 8629  28.994  37.023   9.119
  459POPC   GL2 8630  29.338  36.995   9.182
  459POPC   C1A 8631  28.873  36.875   8.720
  459POPC   D2A 8632  29.074  36.712   8.350
  459POPC   C3A 8633  28.970  36.742   7.913
  459POPC   C4A 8634  29.253  36.632   7.606
  459POPC   C1B 8635  29.345  37.067   8.728
  459POPC   C2B 8636  29.299  37.183   8.289
  459POPC   C3B 8637  29.359  37.093   7.838
  459POPC   C4B 8638  29.077  37.116   7.469
  460POPC   NC3 8639   9.585  17.734   9.287
  460POPC   PO4 8640   9.551  18.320   9.602
  460POPC   GL1 8641   9.806  18.232   9.226
  460POPC   GL2 8642   9.598  18.482   9.086
  460POPC   C1A 8643   9.998  18.097   8.809
  460POPC   D2A 8644   9.838  18.093   8.356
  460POPC   C3A 8645  10.034  18.368   8.023
  460POPC   C4A 8646  10.009  18.503   7.571
  460POPC   C1B 8647   9.476  18.154   8.784
  460POPC   C2B 8648   9.302  17.947   8.426
  460POPC   C3B 8649   9.402  18.022   8.027
  460POPC   C4B 8650   9.591  18.273   7.771
  461POPC   NC3 8651  26.050  42.826   9.584
  461POPC   PO4 8652  26.061  43.489   9.490
  461POPC   GL1 8653  25.901  43.184   9.185
  461POPC   GL2 8654  26.126  42.902   9.093
  461POPC   C1A 8655  25.747  43.259   8.777
  461POPC   D2A 8656  25.770  43.063   8.354
  461POPC   C3A 8657  25.786  43.265   7.956
  461POPC   C4A 8658  25.751  43.043   7.543
  461POPC   C1B 8659  26.189  43.045   8.695
  461POPC   C2B 8660  26.295  43.077   8.283
  461POPC   C3B 8661  26.183  42.962   7.859
  461POPC   C4B 8662  26.235  43.203   7.462
  462POPC   NC3 8663  23.240  17.158   9.631
  462POPC   PO4 8664  23.831  17.593   9.564
  462POPC   GL1 8665  23.634  17.349   9.260
  462POPC   GL2 8666  23.945  17.413   9.049
  462POPC   C1A 8667  23.577  17.154   8.831
  462POPC   D2A 8668  23.852  17.363   8.538
  462POPC   C3A 8669  23.677  17.621   8.211
  462POPC   C4A 8670  23.585  17.452   7.793
  462POPC   C1B 8671  24.153  17.728   8.793
  462POPC   C2B 8672  24.254  17.649   8.365
  462POPC   C3B 8673  24.110  17.509   7.982
  462POPC   C4B 8674  23.904  17.871   7.798
  463POPC   NC3 8675  41.677  30.838   9.413
  463POPC   PO4 8676  41.087  30.849   9.700
  463POPC   GL1 8677  41.222  30.781   9.180
  463POPC   GL2 8678  41.483  31.043   9.014
  463POPC   C1A 8679  41.395  30.615   8.749
  463POPC   D2A 8680  41.605  30.403   8.402
  463POPC   C3A 8681  41.507  30.514   7.949
  463POPC   C4A 8682  41.884  30.570   7.665
  463POPC   C1B 8683  41.351  31.124   8.630
  463POPC   C2B 8684  41.312  30.867   8.281
  463POPC   C3B 8685  41.414  30.994   7.872
  463POPC   C4B 8686  41.320  31.319   7.620
  464POPC   NC3 8687  18.127  10.443   9.516
  464POPC   PO4 8688  18.540  11.025   9.420
  464POPC   GL1 8689  18.320  10.814   9.076
  464POPC   GL2 8690  18.124  10.498   9.027
  464POPC   C1A 8691  18.285  10.770   8.620
  464POPC   D2A 8692  18.331  10.551   8.232
  464POPC   C3A 8693  18.457  10.703   7.816
  464POPC   C4A 8694  18.333  10.866   7.367
  464POPC   C1B 8695  18.211  10.270   8.651
  464POPC   C2B 8696  17.981  10.186   8.296
  464POPC   C3B 8697  18.010  10.350   7.884
  464POPC   C4B 8698  17.987  10.798   7.730
  465POPC   NC3 8699  34.757  44.274   9.385
  465POPC   PO4 8700  34.300  43.790   9.519
  465POPC   GL1 8701  34.450  43.927   9.108
  465POPC   GL2 8702  34.217  44.178   9.102
  465POPC   C1A 8703  34.643  43.879   8.673
  465POPC   D2A 8704  34.777  43.773   8.241
  465POPC   C3A 8705  34.432  43.720   7.943
  465POPC   C4A 8706  34.381  43.421   7.592
  465POPC   C1B 8707  34.353  44.308   8.700
  465POPC   C2B 8708  34.611  44.340   8.341
  465POPC   C3B 8709  34.618  44.196   7.928
  465POPC   C4B 8710  34.197  44.139   7.762
  466POPC   NC3 8711  31.071   2.208   9.451
  466POPC   PO4 8712  30.459   2.263   9.408
  466POPC   GL1 8713  30.658   1.989   9.126
  466POPC   GL2 8714  30.945   1.805   9.143
  466POPC   C1A 8715  30.535   1.751   8.761
  466POPC   D2A 8716  30.285   1.867   8.379
  466POPC   C3A 8717  30.477   2.047   7.989
  466POPC   C4A 8718  30.449   1.970   7.547
  466POPC   C1B 8719  31.056   1.708   8.762
  466POPC   C2B 8720  30.887   1.794   8.377
  466POPC   C3B 8721  30.816   1.603   8.014
  466POPC   C4B 8722  30.898   1.897   7.732
  467POPC   NC3 8723   1.474  22.401   9.543
  467POPC   PO4 8724   2.025  21.956   9.467
  467POPC   GL1 8725   1.979  22.159   9.129
  467POPC   GL2 8726   2.056  22.482   9.224
  467POPC   C1A 8727   2.113  22.120   8.725
  467POPC   D2A 8728   1.883  22.379   8.445
  467POPC   C3A 8729   1.670  22.178   8.106
  467POPC   C4A 8730   1.681  22.100   7.678
  467POPC   C1B 8731   2.198  22.607   8.830
  467POPC   C2B 8732   2.407  22.429   8.457
  467POPC   C3B 8733   2.235  22.218   8.117
  467POPC   C4B 8734   2.105  22.413   7.757
  468POPC   NC3 8735  17.970  18.468   9.455
  468POPC   PO4 8736  17.348  18.097   9.525
  468POPC   GL1 8737  17.452  18.398   9.182
  468POPC   GL2 8738  17.157  18.633   9.121
  468POPC   C1A 8739  17.665  18.271   8.781
  468POPC   D2A 8740  17.883  18.309   8.389
  468POPC   C3A 8741  17.699  18.079   8.058
  468POPC   C4A 8742  17.690  18.466   7.821
  468POPC   C1B 8743  17.133  18.347   8.765
  468POPC   C2B 8744  17.349  18.351   8.352
  468POPC   C3B 8745  17.239  18.225   7.923
  468POPC   C4B 8746  17.010  17.897   7.708
  469POPC   NC3 8747  38.805  13.499   9.516
  469POPC   PO4 8748  38.126  13.605   9.567
  469POPC   GL1 8749  38.356  13.517   9.137
  469POPC   GL2 8750  38.656  13.687   9.071
  469POPC   C1A 8751  38.246  13.326   8.719
  469POPC   D2A 8752  38.071  13.395   8.326
  469POPC   C3A 8753  38.373  13.381   8.021
  469POPC   C4A 8754  38.425  13.602   7.655
  469POPC   C1B 8755  38.737  13.379   8.780
  469POPC   C2B 8756  38.745  13.565   8.376
  469POPC   C3B 8757  38.793  13.776   7.989
  469POPC   C4B 8758  38.928  13.752   7.562
  470POPC   NC3 8759  18.308  40.535   9.380
  470POPC   PO4 8760  18.486  39.987   9.758
  470POPC   GL1 8761  18.454  39.977   9.265
  470POPC   GL2 8762  18.123  40.084   9.210
  470POPC   C1A 8763  18.468  40.218   8.821
  470POPC   D2A 8764  18.282  40.116   8.423
  470POPC   C3A 8765  18.522  40.093   8.045
  470POPC   C4A 8766  18.453  40.317   7.681
  470POPC   C1B 8767  17.979  39.987   8.811
  470POPC   C2B 8768  17.999  39.636   8.546
  470POPC   C3B 8769  18.035  39.712   8.133
  470POPC   C4B 8770  18.026  39.990   7.763
  471POPC   NC3 8771  12.982  22.954   9.633
  471POPC   PO4 8772  13.053  23.509   9.272
  471POPC   GL1 8773  12.887  23.125   9.111
  471POPC   GL2 8774  13.004  22.778   9.154
  471POPC   C1A 8775  12.568  23.149   8.750
  471POPC   D2A 8776  12.796  23.198   8.376
  471POPC   C3A 8777  12.615  23.210   8.009
  471POPC   C4A 8778  12.993  23.155   7.760
  471POPC   C1B 8779  12.932  22.820   8.705
  471POPC   C2B 8780  12.682  22.668   8.348
  471POPC   C3B 8781  12.727  22.728   7.872
  471POPC   C4B 8782  13.039  22.707   7.530
  472POPC   NC3 8783  32.851   6.769   9.436
  472POPC   PO4 8784  33.484   6.788   9.271
  472POPC   GL1 8785  33.105   6.608   9.010
  472POPC   GL2 8786  32.739   6.458   9.045
  472POPC   C1A 8787  33.049   6.366   8.642
  472POPC   D2A 8788  32.815   6.305   8.277
  472POPC   C3A 8789  33.038   6.438   7.896
  472POPC   C4A 8790  33.404   6.503   7.613
  472POPC   C1B 8791  32.612   6.684   8.701
  472POPC   C2B 8792  32.892   6.828   8.402
  472POPC   C3B 8793  33.008   6.939   8.004
  472POPC   C4B 8794  32.697   6.790   7.730
  473POPC   NC3 8795  31.801  15.159   9.387
  473POPC   PO4 8796  31.105  15.396   9.347
  473POPC   GL1 8797  31.376  15.085   9.099
  473POPC   GL2 8798  31.258  14.730   9.027
  473POPC   C1A 8799  31.582  15.027   8.708
  473POPC   D2A 8800  31.451  15.190   8.299
  473POPC   C3A 8801  31.506  14.848   8.009
  473POPC   C4A 8802  31.737  14.869   7.640
  473POPC   C1B 8803  31.075  14.896   8.662
  473POPC   C2B 8804  30.963  15.054   8.275
  473POPC   C3B 8805  31.064  15.051   7.868
  473POPC   C4B 8806  31.448  15.292   7.781
  474POPC   NC3 8807  13.199  29.480   9.802
  474POPC   PO4 8808  13.558  29.042   9.399
  474POPC   GL1 8809  13.664  29.134   9.060
  474POPC   GL2 8810  13.754  28.789   9.010
  474POPC   C1A 8811  13.467  29.307   8.681
  474POPC   D2A 8812  13.612  29.382   8.288
  474POPC   C3A 8813  13.423  29.311   7.899
  474POPC   C4A 8814  13.629  29.167   7.530
  474POPC   C1B 8815  13.800  28.937   8.629
  474POPC   C2B 8816  13.965  28.934   8.312
  474POPC   C3B 8817  13.778  28.917   7.970
  474POPC   C4B 8818  14.035  28.898   7.623
  475POPC   NC3 8819  18.057  16.284   9.376
  475POPC   PO4 8820  18.387  15.714   9.646
  475POPC   GL1 8821  18.414  15.940   9.243
  475POPC   GL2 8822  18.742  15.993   9.084
  475POPC   C1A 8823  18.317  16.138   8.807
  475POPC   D2A 8824  18.035  16.199   8.446
  475POPC   C3A 8825  18.243  16.089   8.059
  475POPC   C4A 8826  18.062  15.959   7.686
  475POPC   C1B 8827  18.515  15.668   8.838
  475POPC   C2B 8828  18.355  15.736   8.459
  475POPC   C3B 8829  18.429  15.619   8.053
  475POPC   C4B 8830  18.502  15.764   7.688
  476POPC   NC3 8831   9.775  16.064   9.520
  476POPC   PO4 8832  10.433  15.969   9.614
  476POPC   GL1 8833  10.459  15.947   9.200
  476POPC   GL2 8834  10.118  15.925   9.125
  476POPC   C1A 8835  10.532  15.803   8.805
  476POPC   D2A 8836  10.456  15.899   8.410
  476POPC   C3A 8837  10.644  15.794   8.039
  476POPC   C4A 8838  10.448  15.977   7.680
  476POPC   C1B 8839  10.070  15.568   8.824
  476POPC   C2B 8840  10.234  15.432   8.401
  476POPC   C3B 8841  10.154  15.655   8.017
  476POPC   C4B 8842  10.040  15.700   7.582
  477POPC   NC3 8843  13.863  11.847   9.369
  477POPC   PO4 8844  14.505  11.704   9.444
  477POPC   GL1 8845  14.421  12.069   9.150
  477POPC   GL2 8846  14.707  12.251   9.238
  477POPC   C1A 8847  14.429  12.074   8.676
  477POPC   D2A 8848  14.480  11.781   8.304
  477POPC   C3A 8849  14.293  11.992   7.944
  477POPC   C4A 8850  14.230  12.327   7.664
  477POPC   C1B 8851  14.832  12.398   8.850
  477POPC   C2B 8852  14.697  12.574   8.479
  477POPC   C3B 8853  14.550  12.397   8.118
  477POPC   C4B 8854  14.743  12.382   7.722
  478POPC   NC3 8855  29.036  25.360   9.573
  478POPC   PO4 8856  28.873  24.716   9.451
  478POPC   GL1 8857  29.066  25.045   9.136
  478POPC   GL2 8858  29.259  25.392   9.088
  478POPC   C1A 8859  28.989  25.155   8.711
  478POPC   D2A 8860  28.758  25.060   8.353
  478POPC   C3A 8861  28.903  25.337   8.049
  478POPC   C4A 8862  29.014  25.430   7.620
  478POPC   C1B 8863  29.490  25.197   8.743
  478POPC   C2B 8864  29.417  25.127   8.315
  478POPC   C3B 8865  29.407  25.393   7.962
  478POPC   C4B 8866  29.524  25.475   7.551
  479POPC   NC3 8867   6.913  10.354   9.614
  479POPC   PO4 8868   7.611  10.345   9.416
  479POPC   GL1 8869   7.314  10.289   9.142
  479POPC   GL2 8870   7.467  10.035   9.001
  479POPC   C1A 8871   7.236  10.502   8.759
  479POPC   D2A 8872   7.388  10.408   8.388
  479POPC   C3A 8873   7.177  10.638   8.119
  479POPC   C4A 8874   7.207  10.630   7.696
  479POPC   C1B 8875   7.749  10.325   8.751
  479POPC   C2B 8876   7.901  10.356   8.320
  479POPC   C3B 8877   7.652  10.464   7.947
  479POPC   C4B 8878   7.455  10.171   7.707
  480POPC   NC3 8879  44.936  20.582   9.502
  480POPC   PO4 8880   0.594  20.776   9.678
  480POPC   GL1 8881   0.461  20.757   9.221
  480POPC   GL2 8882   0.153  20.945   9.150
  480POPC   C1A 8883   0.668  20.598   8.809
  480POPC   D2A 8884   0.879  20.730   8.419
  480POPC   C3A 8885   0.761  20.466   8.041
  480POPC   C4A 8886   0.407  20.457   7.773
  480POPC   C1B 8887   0.172  20.732   8.754
  480POPC   C2B 8888   0.368  20.755   8.367
  480POPC   C3B 8889   0.249  20.917   8.021
  480POPC   C4B 8890   0.113  20.843   7.634
  481POPC   NC3 8891  18.878  43.139   9.528
  481POPC   PO4 8892  19.448  43.421   9.488
  481POPC   GL1 8893  19.169  43.227   9.104
  481POPC   GL2 8894  19.071  42.867   9.123
  481POPC   C1A 8895  19.062  43.009   8.656
  481POPC   D2A 8896  19.205  43.011   8.237
  481POPC   C3A 8897  19.370  42.704   7.949
  481POPC   C4A 8898  19.210  42.956   7.634
  481POPC   C1B 8899  18.657  42.767   8.833
  481POPC   C2B 8900  18.651  42.785   8.394
  481POPC   C3B 8901  18.658  42.950   7.982
  481POPC   C4B 8902  18.722  42.827   7.570
  482POPC   NC3 8903  15.533   7.355   9.533
  482POPC   PO4 8904  16.246   7.547   9.487
  482POPC   GL1 8905  16.061   7.688   9.131
  482POPC   GL2 8906  15.720   7.669   9.167
  482POPC   C1A 8907  16.128   7.553   8.722
  482POPC   D2A 8908  15.893   7.420   8.363
  482POPC   C3A 8909  16.138   7.309   8.009
  482POPC   C4A 8910  16.028   7.493   7.632
  482POPC   C1B 8911  15.551   7.610   8.755
  482POPC   C2B 8912  15.436   7.730   8.331
  482POPC   C3B 8913  15.608   7.573   7.944
  482POPC   C4B 8914  15.563   7.276   7.617
  483POPC   NC3 8915  13.163   1.310   9.444
  483POPC   PO4 8916  12.565   1.003   9.386
  483POPC   GL1 8917  12.736   1.335   9.132
  483POPC   GL2 8918  12.998   1.083   9.032
  483POPC   C1A 8919  12.899   1.470   8.711
  483POPC   D2A 8920  12.907   1.209   8.355
  483POPC   C3A 8921  13.012   1.368   7.978
  483POPC   C4A 8922  12.752   1.581   7.728
  483POPC   C1B 8923  12.632   1.003   8.746
  483POPC   C2B 8924  12.431   0.911   8.369
  483POPC   C3B 8925  12.555   0.868   7.970
  483POPC   C4B 8926  12.764   1.075   7.637
  484POPC   NC3 8927  43.746   2.180   9.435
  484POPC   PO4 8928  44.273   1.737   9.540
  484POPC   GL1 8929  44.023   1.820   9.195
  484POPC   GL2 8930  43.650   1.755   9.179
  484POPC   C1A 8931  43.984   1.948   8.777
  484POPC   D2A 8932  44.144   1.661   8.454
  484POPC   C3A 8933  44.176   1.823   8.052
  484POPC   C4A 8934  44.221   2.210   7.845
  484POPC   C1B 8935  43.475   1.825   8.762
  484POPC   C2B 8936  43.664   1.970   8.366
  484POPC   C3B 8937  43.718   2.033   7.932
  484POPC   C4B 8938  43.760   1.705   7.630
  485POPC   NC3 8939   8.780   5.912   9.525
  485POPC   PO4 8940   9.281   6.329   9.413
  485POPC   GL1 8941   9.242   5.878   9.236
  485POPC   GL2 8942   8.945   5.749   9.064
  485POPC   C1A 8943   9.405   5.689   8.845
  485POPC   D2A 8944   9.221   5.432   8.523
  485POPC   C3A 8945   9.170   5.667   8.134
  485POPC   C4A 8946   9.200   5.544   7.712
  485POPC   C1B 8947   8.845   5.763   8.599
  485POPC   C2B 8948   8.796   6.008   8.212
  485POPC   C3B 8949   8.817   5.894   7.777
  485POPC   C4B 8950   8.739   6.091   7.333
  486POPC   NC3 8951   8.668  39.403   9.374
  486POPC   PO4 8952   8.180  39.751   9.583
  486POPC   GL1 8953   8.077  39.570   9.113
  486POPC   GL2 8954   8.220  39.228   9.091
  486POPC   C1A 8955   8.140  39.398   8.639
  486POPC   D2A 8956   8.156  39.074   8.325
  486POPC   C3A 8957   8.020  39.197   7.924
  486POPC   C4A 8958   8.076  39.128   7.492
  486POPC   C1B 8959   8.311  38.899   8.773
  486POPC   C2B 8960   8.618  38.856   8.446
  486POPC   C3B 8961   8.555  38.906   8.007
  486POPC   C4B 8962   8.559  38.963   7.571
  487POPC   NC3 8963  13.836  42.261   9.475
  487POPC   PO4 8964  13.280  42.576   9.401
  487POPC   GL1 8965  13.479  42.339   9.107
  487POPC   GL2 8966  13.747  42.589   9.104
  487POPC   C1A 8967  13.525  42.134   8.703
  487POPC   D2A 8968  13.422  41.995   8.267
  487POPC   C3A 8969  13.666  42.163   7.888
  487POPC   C4A 8970  13.833  42.067   7.443
  487POPC   C1B 8971  13.610  42.648   8.716
  487POPC   C2B 8972  13.675  42.471   8.314
  487POPC   C3B 8973  13.558  42.665   7.942
  487POPC   C4B 8974  13.254  42.863   7.730
  488POPC   NC3 8975   4.914  31.099   9.954
  488POPC   PO4 8976   4.761  30.532   9.537
  488POPC   GL1 8977   4.883  30.411   9.143
  488POPC   GL2 8978   5.203  30.516   9.115
  488POPC   C1A 8979   4.866  30.526   8.729
  488POPC   D2A 8980   4.940  30.332   8.361
  488POPC   C3A 8981   4.812  30.568   8.020
  488POPC   C4A 8982   4.963  30.951   7.886
  488POPC   C1B 8983   5.356  30.691   8.758
  488POPC   C2B 8984   5.167  30.798   8.363
  488POPC   C3B 8985   5.330  30.626   7.981
  488POPC   C4B 8986   5.397  30.785   7.580
  489POPC   NC3 8987  20.921  20.312   9.434
  489POPC   PO4 8988  20.403  20.617   9.362
  489POPC   GL1 8989  20.734  20.696   9.101
  489POPC   GL2 8990  20.868  21.003   9.123
  489POPC   C1A 8991  20.771  20.787   8.645
  489POPC   D2A 8992  20.951  20.578   8.293
  489POPC   C3A 8993  20.742  20.602   7.900
  489POPC   C4A 8994  20.437  20.393   7.661
  489POPC   C1B 8995  20.422  21.054   8.900
  489POPC   C2B 8996  20.247  20.858   8.508
  489POPC   C3B 8997  20.372  20.925   8.076
  489POPC   C4B 8998  20.534  21.018   7.682
  490POPC   NC3 8999  35.388   4.270   9.529
  490POPC   PO4 9000  34.715   4.253   9.485
  490POPC   GL1 9001  35.119   4.177   9.105
  490POPC   GL2 9002  35.535   4.170   9.072
  490POPC   C1A 9003  35.285   4.155   8.626
  490POPC   D2A 9004  35.209   4.247   8.205
  490POPC   C3A 9005  35.400   4.004   7.920
  490POPC   C4A 9006  35.527   4.168   7.533
  490POPC   C1B 9007  35.755   4.335   8.737
  490POPC   C2B 9008  35.675   4.507   8.399
  490POPC   C3B 9009  35.713   4.399   8.000
  490POPC   C4B 9010  35.827   4.558   7.645
  491POPC   NC3 9011  44.872  15.643   9.442
  491POPC   PO4 9012  44.255  15.928   9.483
  491POPC   GL1 9013  44.513  15.954   9.154
  491POPC   GL2 9014  44.344  15.644   9.013
  491POPC   C1A 9015  44.757  16.223   8.856
  491POPC   D2A 9016  44.747  16.467   8.469
  491POPC   C3A 9017  44.699  16.234   8.097
  491POPC   C4A 9018  44.477  16.105   7.758
  491POPC   C1B 9019  44.761  15.706   8.802
  491POPC   C2B 9020  44.828  15.838   8.404
  491POPC   C3B 9021  44.833  15.744   7.971
  491POPC   C4B 9022  44.974  15.772   7.546
  492POPC   NC3 9023  15.779  10.122   9.651
  492POPC   PO4 9024  16.142  10.716   9.547
  492POPC   GL1 9025  15.903  10.652   9.160
  492POPC   GL2 9026  15.872  10.324   9.177
  492POPC   C1A 9027  15.885  10.535   8.682
  492POPC   D2A 9028  15.833  10.254   8.299
  492POPC   C3A 9029  15.803  10.504   7.903
  492POPC   C4A 9030  15.926  10.558   7.448
  492POPC   C1B 9031  16.278  10.346   8.955
  492POPC   C2B 9032  16.333  10.309   8.515
  492POPC   C3B 9033  16.276  10.419   8.087
  492POPC   C4B 9034  16.235  10.242   7.685
  493POPC   NC3 9035   4.112  32.399   9.298
  493POPC   PO4 9036   4.544  31.942   9.555
  493POPC   GL1 9037   4.443  32.029   9.158
  493POPC   GL2 9038   4.633  32.341   9.196
  493POPC   C1A 9039   4.329  31.973   8.714
  493POPC   D2A 9040   4.179  32.295   8.421
  493POPC   C3A 9041   4.225  32.152   8.021
  493POPC   C4A 9042   4.039  31.855   7.785
  493POPC   C1B 9043   4.626  32.416   8.775
  493POPC   C2B 9044   4.676  32.461   8.355
  493POPC   C3B 9045   4.478  32.633   8.033
  493POPC   C4B 9046   4.191  32.576   7.738
  494POPC   NC3 9047  33.284  10.650   9.919
  494POPC   PO4 9048  33.944  10.587   9.579
  494POPC   GL1 9049  33.986  10.708   9.166
  494POPC   GL2 9050  33.637  10.716   9.104
  494POPC   C1A 9051  34.043  10.568   8.731
  494POPC   D2A 9052  33.843  10.635   8.334
  494POPC   C3A 9053  34.103  10.873   8.082
  494POPC   C4A 9054  34.251  10.756   7.676
  494POPC   C1B 9055  33.560  10.427   8.754
  494POPC   C2B 9056  33.383  10.387   8.363
  494POPC   C3B 9057  33.521  10.349   7.981
  494POPC   C4B 9058  33.761  10.624   7.777
  495POPC   NC3 9059  10.640  16.374   9.719
  495POPC   PO4 9060  10.342  16.961   9.699
  495POPC   GL1 9061  10.451  16.787   9.238
  495POPC   GL2 9062  10.345  16.440   9.163
  495POPC   C1A 9063  10.574  16.702   8.753
  495POPC   D2A 9064  10.455  16.641   8.322
  495POPC   C3A 9065  10.652  16.838   7.988
  495POPC   C4A 9066  10.339  16.994   7.729
  495POPC   C1B 9067  10.758  16.276   8.951
  495POPC   C2B 9068  10.827  16.246   8.489
  495POPC   C3B 9069  10.706  16.304   8.048
  495POPC   C4B 9070  10.419  16.481   7.725
  496POPC   NC3 9071  15.294  22.664   9.343
  496POPC   PO4 9072  14.766  23.111   9.589
  496POPC   GL1 9073  14.978  23.114   9.184
  496POPC   GL2 9074  15.326  23.150   9.193
  496POPC   C1A 9075  15.004  22.943   8.742
  496POPC   D2A 9076  15.369  22.832   8.473
  496POPC   C3A 9077  15.303  22.578   8.148
  496POPC   C4A 9078  14.999  22.639   7.836
  496POPC   C1B 9079  15.441  23.228   8.784
  496POPC   C2B 9080  15.550  23.280   8.325
  496POPC   C3B 9081  15.306  23.080   7.972
  496POPC   C4B 9082  15.462  22.830   7.607
  497POPC   NC3 9083  24.996  31.546   9.565
  497POPC   PO4 9084  25.644  31.670   9.574
  497POPC   GL1 9085  25.373  31.552   9.223
  497POPC   GL2 9086  25.087  31.332   9.117
  497POPC   C1A 9087  25.405  31.582   8.808
  497POPC   D2A 9088  25.187  31.595   8.452
  497POPC   C3A 9089  25.415  31.777   8.120
  497POPC   C4A 9090  25.303  31.673   7.719
  497POPC   C1B 9091  24.841  31.349   8.753
  497POPC   C2B 9092  24.878  31.204   8.318
  497POPC   C3B 9093  25.120  31.057   7.970
  497POPC   C4B 9094  25.050  31.134   7.537
  498POPC   NC3 9095   7.094   8.372   9.438
  498POPC   PO4 9096   6.578   8.035   9.541
  498POPC   GL1 9097   6.616   8.211   9.169
  498POPC   GL2 9098   6.924   8.043   9.096
  498POPC   C1A 9099   6.382   8.248   8.784
  498POPC   D2A 9100   6.537   8.167   8.355
  498POPC   C3A 9101   6.271   8.223   7.983
  498POPC   C4A 9102   6.417   8.397   7.595
  498POPC   C1B 9103   6.883   8.288   8.744
  498POPC   C2B 9104   6.967   8.466   8.381
  498POPC   C3B 9105   6.943   8.249   8.013
  498POPC   C4B 9106   6.940   8.469   7.652
  499POPC   NC3 9107  38.230  19.425   9.519
  499POPC   PO4 9108  38.674  20.029   9.476
  499POPC   GL1 9109  38.361  19.820   9.236
  499POPC   GL2 9110  38.569  19.542   9.148
  499POPC   C1A 9111  38.094  19.751   8.878
  499POPC   D2A 9112  38.129  19.909   8.458
  499POPC   C3A 9113  38.295  19.741   8.062
  499POPC   C4A 9114  38.362  19.982   7.665
  499POPC   C1B 9115  38.614  19.798   8.763
  499POPC   C2B 9116  38.721  19.665   8.353
  499POPC   C3B 9117  38.785  19.829   7.928
  499POPC   C4B 9118  38.595  19.552   7.640
  500POPC   NC3 9119  32.432  24.318   9.461
  500POPC   PO4 9120  32.139  24.910   9.347
  500POPC   GL1 9121  32.402  24.665   9.087
  500POPC   GL2 9122  32.184  24.363   9.020
  500POPC   C1A 9123  32.563  24.489   8.712
  500POPC   D2A 9124  32.413  24.456   8.308
  500POPC   C3A 9125  32.552  24.199   7.985
  500POPC   C4A 9126  32.460  24.295   7.540
  500POPC   C1B 9127  32.064  24.676   8.691
  500POPC   C2B 9128  31.953  24.662   8.264
  500POPC   C3B 9129  32.140  24.558   7.882
  500POPC   C4B 9130  31.904  24.731   7.596
  501POPC   NC3 9131  26.707  30.071   9.425
  501POPC   PO4 9132  27.209  29.693   9.588
  501POPC   GL1 9133  26.891  29.660   9.162
  501POPC   GL2 9134  26.561  29.665   9.115
  501POPC   C1A 9135  26.810  29.727   8.660
  501POPC   D2A 9136  26.760  29.736   8.210
  501POPC   C3A 9137  27.058  29.910   7.908
  501POPC   C4A 9138  27.251  29.769   7.500
  501POPC   C1B 9139  26.410  29.992   8.818
  501POPC   C2B 9140  26.367  30.049   8.373
  501POPC   C3B 9141  26.414  29.968   7.923
  501POPC   C4B 9142  26.440  30.287   7.620
  502POPC   NC3 9143  14.612   0.327   9.572
  502POPC   PO4 9144  14.010   0.214   9.692
  502POPC   GL1 9145  14.183   0.333   9.238
  502POPC   GL2 9146  14.544   0.296   9.073
  502POPC   C1A 9147  14.164   0.582   8.828
  502POPC   D2A 9148  14.421   0.422   8.519
  502POPC   C3A 9149  14.404   0.407   8.071
  502POPC   C4A 9150  14.495   0.510   7.646
  502POPC   C1B 9151  14.828   0.173   8.720
  502POPC   C2B 9152  14.766   0.057   8.281
  502POPC   C3B 9153  14.834   0.190   7.858
  502POPC   C4B 9154  14.758   0.116   7.425
  503POPC   NC3 9155  42.917  25.604   9.201
  503POPC   PO4 9156  43.495  25.305   9.372
  503POPC   GL1 9157  43.216  25.150   9.057
  503POPC   GL2 9158  42.911  25.010   9.187
  503POPC   C1A 9159  43.196  25.311   8.661
  503POPC   D2A 9160  43.491  25.476   8.372
  503POPC   C3A 9161  43.342  25.314   8.024
  503POPC   C4A 9162  43.012  25.462   7.783
  503POPC   C1B 9163  42.878  24.886   8.738
  503POPC   C2B 9164  43.120  24.908   8.344
  503POPC   C3B 9165  43.035  24.919   7.907
  503POPC   C4B 9166  42.656  25.085   7.796
  504POPC   NC3 9167  35.157  29.881   9.632
  504POPC   PO4 9168  35.449  29.487   9.211
  504POPC   GL1 9169  35.499  29.862   9.035
  504POPC   GL2 9170  35.249  30.017   9.146
  504POPC   C1A 9171  35.682  30.032   8.696
  504POPC   D2A 9172  35.474  30.073   8.320
  504POPC   C3A 9173  35.363  29.733   8.081
  504POPC   C4A 9174  35.455  29.622   7.685
  504POPC   C1B 9175  35.250  30.282   8.766
  504POPC   C2B 9176  35.079  30.409   8.384
  504POPC   C3B 9177  35.172  30.315   7.987
  504POPC   C4B 9178  35.236  30.064   7.653
  505POPC   NC3 9179  32.159   3.136   9.794
  505POPC   PO4 9180  32.467   2.630   9.451
  505POPC   GL1 9181  32.300   2.734   9.067
  505POPC   GL2 9182  32.164   3.018   9.044
  505POPC   C1A 9183  32.542   2.791   8.708
  505POPC   D2A 9184  32.484   2.922   8.311
  505POPC   C3A 9185  32.458   2.664   7.971
  505POPC   C4A 9186  32.458   2.924   7.572
  505POPC   C1B 9187  32.087   3.001   8.648
  505POPC   C2B 9188  32.000   2.778   8.315
  505POPC   C3B 9189  32.075   2.980   7.917
  505POPC   C4B 9190  31.930   2.981   7.482
  506POPC   NC3 9191  22.902  30.197   9.719
  506POPC   PO4 9192  23.028  30.772   9.562
  506POPC   GL1 9193  23.140  30.716   9.110
  506POPC   GL2 9194  23.216  30.359   9.092
  506POPC   C1A 9195  22.965  30.859   8.685
  506POPC   D2A 9196  22.824  30.722   8.254
  506POPC   C3A 9197  22.958  30.779   7.816
  506POPC   C4A 9198  22.991  30.698   7.328
  506POPC   C1B 9199  22.868  30.358   8.752
  506POPC   C2B 9200  22.625  30.227   8.362
  506POPC   C3B 9201  22.554  30.369   7.952
  506POPC   C4B 9202  22.852  30.309   7.608
  507POPC   NC3 9203   2.714   7.530   9.536
  507POPC   PO4 9204   3.326   7.299   9.595
  507POPC   GL1 9205   3.021   7.315   9.184
  507POPC   GL2 9206   2.769   7.053   9.145
  507POPC   C1A 9207   2.763   7.472   8.770
  507POPC   D2A 9208   2.765   7.390   8.289
  507POPC   C3A 9209   2.696   7.628   7.916
  507POPC   C4A 9210   3.001   7.869   7.653
  507POPC   C1B 9211   2.490   7.035   8.783
  507POPC   C2B 9212   2.433   7.003   8.361
  507POPC   C3B 9213   2.417   7.171   7.985
  507POPC   C4B 9214   2.605   7.140   7.613
  508POPC   NC3 9215  26.098  17.113   9.507
  508POPC   PO4 9216  25.947  16.477   9.543
  508POPC   GL1 9217  26.147  16.640   9.203
  508POPC   GL2 9218  25.961  16.391   9.041
  508POPC   C1A 9219  26.015  16.842   8.819
  508POPC   D2A 9220  26.153  16.843   8.429
  508POPC   C3A 9221  25.986  16.854   8.052
  508POPC   C4A 9222  26.129  16.742   7.666
  508POPC   C1B 9223  26.255  16.360   8.730
  508POPC   C2B 9224  26.213  16.185   8.326
  508POPC   C3B 9225  26.174  16.295   7.912
  508POPC   C4B 9226  26.302  16.328   7.447
  509POPC   NC3 9227  43.862  16.173   9.587
  509POPC   PO4 9228  43.657  15.522   9.587
  509POPC   GL1 9229  43.857  15.820   9.191
  509POPC   GL2 9230  43.692  16.155   9.103
  509POPC   C1A 9231  44.105  16.080   8.848
  509POPC   D2A 9232  44.389  16.088   8.509
  509POPC   C3A 9233  44.277  15.839   8.150
  509POPC   C4A 9234  43.987  15.865   7.792
  509POPC   C1B 9235  43.601  16.042   8.687
  509POPC   C2B 9236  43.664  15.929   8.249
  509POPC   C3B 9237  43.471  15.845   7.846
  509POPC   C4B 9238  43.634  15.575   7.515
  510POPC   NC3 9239   1.470  23.372   9.528
  510POPC   PO4 9240   1.780  22.765   9.538
  510POPC   GL1 9241   1.375  22.853   9.245
  510POPC   GL2 9242   1.178  23.189   9.159
  510POPC   C1A 9243   1.159  22.810   8.817
  510POPC   D2A 9244   1.188  23.060   8.432
  510POPC   C3A 9245   1.035  23.007   8.002
  510POPC   C4A 9246   0.857  22.685   7.747
  510POPC   C1B 9247   1.505  23.217   8.833
  510POPC   C2B 9248   1.605  23.360   8.422
  510POPC   C3B 9249   1.527  23.156   8.039
  510POPC   C4B 9250   1.416  23.075   7.659
  511POPC   NC3 9251  36.583  42.107   9.328
  511POPC   PO4 9252  37.131  42.274   9.579
  511POPC   GL1 9253  37.086  42.270   9.179
  511POPC   GL2 9254  36.866  42.466   9.094
  511POPC   C1A 9255  37.087  42.144   8.767
  511POPC   D2A 9256  37.339  42.227   8.425
  511POPC   C3A 9257  37.089  42.182   8.071
  511POPC   C4A 9258  37.016  42.012   7.666
  511POPC   C1B 9259  36.905  42.688   8.779
  511POPC   C2B 9260  36.968  42.571   8.440
  511POPC   C3B 9261  36.977  42.710   8.077
  511POPC   C4B 9262  36.980  42.551   7.733
  512POPC   NC3 9263   2.116  41.334   9.457
  512POPC   PO4 9264   1.918  41.998   9.468
  512POPC   GL1 9265   1.821  41.640   9.174
  512POPC   GL2 9266   2.123  41.677   9.049
  512POPC   C1A 9267   1.769  41.488   8.751
  512POPC   D2A 9268   1.825  41.177   8.435
  512POPC   C3A 9269   1.817  41.356   8.033
  512POPC   C4A 9270   1.764  41.739   7.793
  512POPC   C1B 9271   2.247  41.317   8.778
  512POPC   C2B 9272   2.296  41.340   8.341
  512POPC   C3B 9273   2.190  41.705   8.116
  512POPC   C4B 9274   2.268  41.774   7.725
  513POPC   NC3 9275  28.682  18.259   9.349
  513POPC   PO4 9276  29.332  18.575   9.510
  513POPC   GL1 9277  29.236  18.699   9.089
  513POPC   GL2 9278  29.091  18.378   9.082
  513POPC   C1A 9279  29.367  18.466   8.689
  513POPC   D2A 9280  29.277  18.270   8.317
  513POPC   C3A 9281  29.078  18.421   7.962
  513POPC   C4A 9282  28.748  18.155   7.792
  513POPC   C1B 9283  28.938  18.165   8.715
  513POPC   C2B 9284  28.936  17.860   8.381
  513POPC   C3B 9285  29.170  17.888   7.988
  513POPC   C4B 9286  29.550  18.128   7.878
  514POPC   NC3 9287  44.865  37.876   9.579
  514POPC   PO4 9288  44.327  37.393   9.594
  514POPC   GL1 9289  44.613  37.507   9.291
  514POPC   GL2 9290  44.495  37.829   9.202
  514POPC   C1A 9291  44.539  37.438   8.870
  514POPC   D2A 9292  44.426  37.685   8.538
  514POPC   C3A 9293  44.654  37.667   8.165
  514POPC   C4A 9294  44.700  37.502   7.775
  514POPC   C1B 9295  44.799  37.903   8.871
  514POPC   C2B 9296  44.853  38.046   8.459
  514POPC   C3B 9297   0.040  38.019   8.052
  514POPC   C4B 9298  44.839  37.990   7.665
  515POPC   NC3 9299  19.061  21.016   9.511
  515POPC   PO4 9300  18.798  20.361   9.552
  515POPC   GL1 9301  19.097  20.543   9.278
  515POPC   GL2 9302  18.825  20.707   9.170
  515POPC   C1A 9303  19.228  20.798   8.881
  515POPC   D2A 9304  19.101  20.864   8.446
  515POPC   C3A 9305  19.109  20.558   8.090
  515POPC   C4A 9306  19.336  20.585   7.739
  515POPC   C1B 9307  18.655  20.551   8.789
  515POPC   C2B 9308  18.730  20.463   8.387
  515POPC   C3B 9309  18.619  20.384   7.929
  515POPC   C4B 9310  18.601  20.416   7.425
  516POPC   NC3 9311  29.712   5.470   9.500
  516POPC   PO4 9312  29.997   4.831   9.507
  516POPC   GL1 9313  29.776   5.048   9.177
  516POPC   GL2 9314  30.069   5.257   9.165
  516POPC   C1A 9315  29.579   5.078   8.758
  516POPC   D2A 9316  29.811   5.049   8.360
  516POPC   C3A 9317  29.636   5.112   7.945
  516POPC   C4A 9318  29.619   5.200   7.512
  516POPC   C1B 9319  30.126   5.039   8.788
  516POPC   C2B 9320  30.249   4.769   8.464
  516POPC   C3B 9321  30.176   4.844   8.035
  516POPC   C4B 9322  30.143   5.223   7.774
  517POPC   NC3 9323  10.283  31.848   9.399
  517POPC   PO4 9324  10.931  31.618   9.582
  517POPC   GL1 9325  10.612  31.489   9.217
  517POPC   GL2 9326  10.379  31.190   9.289
  517POPC   C1A 9327  10.633  31.374   8.774
  517POPC   D2A 9328  10.613  31.547   8.342
  517POPC   C3A 9329  10.646  31.344   7.945
  517POPC   C4A 9330  10.601  31.733   7.762
  517POPC   C1B 9331  10.149  31.254   8.913
  517POPC   C2B 9332  10.110  31.352   8.480
  517POPC   C3B 9333  10.156  31.424   8.034
  517POPC   C4B 9334  10.104  31.685   7.660
  518POPC   NC3 9335  37.919  42.939   9.447
  518POPC   PO4 9336  37.287  43.091   9.492
  518POPC   GL1 9337  37.240  43.029   9.063
  518POPC   GL2 9338  37.612  42.994   9.010
  518POPC   C1A 9339  37.349  43.349   8.725
  518POPC   D2A 9340  37.633  43.509   8.391
  518POPC   C3A 9341  37.610  43.275   7.984
  518POPC   C4A 9342  37.622  42.997   7.615
  518POPC   C1B 9343  37.860  42.753   8.723
  518POPC   C2B 9344  38.166  42.790   8.404
  518POPC   C3B 9345  37.959  42.853   8.025
  518POPC   C4B 9346  37.915  42.575   7.697
  519POPC   NC3 9347  33.600  33.774   9.821
  519POPC   PO4 9348  33.960  33.615   9.305
  519POPC   GL1 9349  33.690  33.912   9.212
  519POPC   GL2 9350  33.422  33.691   9.234
  519POPC   C1A 9351  33.775  34.031   8.799
  519POPC   D2A 9352  34.059  33.980   8.438
  519POPC   C3A 9353  33.887  34.088   8.038
  519POPC   C4A 9354  33.831  33.860   7.667
  519POPC   C1B 9355  33.460  33.535   8.850
  519POPC   C2B 9356  33.690  33.597   8.504
  519POPC   C3B 9357  33.858  33.588   8.120
  519POPC   C4B 9358  33.660  33.351   7.791
  520POPC   NC3 9359  16.273   9.414   9.146
  520POPC   PO4 9360  15.697   9.691   9.499
  520POPC   GL1 9361  15.995   9.839   9.154
  520POPC   GL2 9362  16.361   9.928   9.238
  520POPC   C1A 9363  16.001   9.901   8.687
  520POPC   D2A 9364  15.673   9.738   8.389
  520POPC   C3A 9365  15.775   9.624   7.977
  520POPC   C4A 9366  15.794  10.014   7.753
  520POPC   C1B 9367  16.517   9.904   8.802
  520POPC   C2B 9368  16.515   9.848   8.355
  520POPC   C3B 9369  16.201   9.888   8.056
  520POPC   C4B 9370  16.197   9.723   7.608
  521POPC   NC3 9371   2.158  19.556   9.496
  521POPC   PO4 9372   1.829  20.081   9.500
  521POPC   GL1 9373   1.927  19.856   9.148
  521POPC   GL2 9374   1.763  19.562   9.132
  521POPC   C1A 9375   2.085  19.740   8.751
  521POPC   D2A 9376   2.283  20.038   8.493
  521POPC   C3A 9377   2.065  20.048   8.156
  521POPC   C4A 9378   2.196  20.177   7.772
  521POPC   C1B 9379   1.639  19.391   8.749
  521POPC   C2B 9380   1.468  19.335   8.329
  521POPC   C3B 9381   1.587  19.553   7.982
  521POPC   C4B 9382   1.957  19.704   7.804
  522POPC   NC3 9383  34.977  41.716   9.431
  522POPC   PO4 9384  35.609  41.443   9.493
  522POPC   GL1 9385  35.371  41.501   9.122
  522POPC   GL2 9386  35.039  41.475   8.991
  522POPC   C1A 9387  35.492  41.522   8.699
  522POPC   D2A 9388  35.391  41.340   8.332
  522POPC   C3A 9389  35.641  41.479   8.060
  522POPC   C4A 9390  35.707  41.404   7.696
  522POPC   C1B 9391  35.123  41.872   8.771
  522POPC   C2B 9392  35.176  42.080   8.379
  522POPC   C3B 9393  35.258  41.814   8.022
  522POPC   C4B 9394  35.208  41.525   7.691
  523POPC   NC3 9395  32.028  31.449   9.694
  523POPC   PO4 9396  32.436  31.859   9.420
  523POPC   GL1 9397  32.205  31.740   9.078
  523POPC   GL2 9398  32.146  31.404   9.143
  523POPC   C1A 9399  32.155  31.646   8.662
  523POPC   D2A 9400  32.304  31.389   8.357
  523POPC   C3A 9401  32.327  31.635   7.988
  523POPC   C4A 9402  32.428  31.656   7.538
  523POPC   C1B 9403  32.115  31.115   8.775
  523POPC   C2B 9404  31.967  30.963   8.386
  523POPC   C3B 9405  32.038  31.117   7.989
  523POPC   C4B 9406  31.985  31.436   7.685
  524POPC   NC3 9407  40.674  23.244   9.455
  524POPC   PO4 9408  40.862  23.895   9.542
  524POPC   GL1 9409  40.890  23.649   9.180
  524POPC   GL2 9410  40.543  23.644   9.160
  524POPC   C1A 9411  41.030  23.582   8.757
  524POPC   D2A 9412  40.899  23.762   8.362
  524POPC   C3A 9413  40.632  23.544   8.065
  524POPC   C4A 9414  40.889  23.516   7.725
  524POPC   C1B 9415  40.565  23.856   8.782
  524POPC   C2B 9416  40.516  24.087   8.440
  524POPC   C3B 9417  40.606  24.180   8.053
  524POPC   C4B 9418  40.541  23.979   7.710
  525POPC   NC3 9419   0.394   1.799   9.479
  525POPC   PO4 9420   0.341   2.426   9.525
  525POPC   GL1 9421   0.325   2.240   9.120
  525POPC   GL2 9422   0.589   1.981   9.060
  525POPC   C1A 9423   0.321   2.156   8.688
  525POPC   D2A 9424   0.516   2.215   8.320
  525POPC   C3A 9425   0.361   1.949   8.033
  525POPC   C4A 9426   0.047   2.026   7.696
  525POPC   C1B 9427   0.845   2.092   8.721
  525POPC   C2B 9428   0.924   1.894   8.341
  525POPC   C3B 9429   0.826   1.721   7.955
  525POPC   C4B 9430   0.811   1.895   7.542
  526POPC   NC3 9431  11.356  14.979   9.495
  526POPC   PO4 9432  11.508  15.686   9.613
  526POPC   GL1 9433  11.582  15.382   9.305
  526POPC   GL2 9434  11.252  15.403   9.204
  526POPC   C1A 9435  11.512  15.163   8.856
  526POPC   D2A 9436  11.310  15.317   8.460
  526POPC   C3A 9437  11.420  15.137   8.075
  526POPC   C4A 9438  11.176  15.116   7.691
  526POPC   C1B 9439  11.446  15.671   8.924
  526POPC   C2B 9440  11.553  15.770   8.515
  526POPC   C3B 9441  11.548  15.685   8.106
  526POPC   C4B 9442  11.585  15.454   7.731
  527POPC   NC3 9443   5.019  25.753   9.692
  527POPC   PO4 9444   5.221  26.418   9.671
  527POPC   GL1 9445   5.248  26.093   9.297
  527POPC   GL2 9446   4.912  25.985   9.176
  527POPC   C1A 9447   5.285  26.092   8.818
  527POPC   D2A 9448   5.050  25.958   8.445
  527POPC   C3A 9449   5.195  26.052   8.027
  527POPC   C4A 9450   5.391  26.011   7.627
  527POPC   C1B 9451   4.724  26.251   8.838
  527POPC   C2B 9452   4.624  26.210   8.415
  527POPC   C3B 9453   4.761  26.320   8.014
  527POPC   C4B 9454   4.940  26.227   7.584
  528POPC   NC3 9455  42.699  24.291   9.431
  528POPC   PO4 9456  42.165  24.660   9.490
  528POPC   GL1 9457  42.116  24.499   9.109
  528POPC   GL2 9458  41.871  24.250   9.084
  528POPC   C1A 9459  42.460  24.418   8.835
  528POPC   D2A 9460  42.561  24.360   8.432
  528POPC   C3A 9461  42.585  24.700   8.164
  528POPC   C4A 9462  42.390  24.611   7.790
  528POPC   C1B 9463  42.007  24.374   8.627
  528POPC   C2B 9464  42.067  24.441   8.176
  528POPC   C3B 9465  41.938  24.343   7.749
  528POPC   C4B 9466  41.938  24.278   7.298
  529POPC   NC3 9467   9.851  18.673   9.501
  529POPC   PO4 9468   9.405  18.989   9.265
  529POPC   GL1 9469   9.804  18.956   9.073
  529POPC   GL2 9470   9.951  19.299   9.104
  529POPC   C1A 9471   9.852  18.702   8.702
  529POPC   D2A 9472   9.712  18.892   8.320
  529POPC   C3A 9473   9.938  18.875   7.930
  529POPC   C4A 9474   9.557  18.769   7.691
  529POPC   C1B 9475   9.829  19.276   8.674
  529POPC   C2B 9476   9.719  19.409   8.275
  529POPC   C3B 9477   9.627  19.262   7.874
  529POPC   C4B 9478   9.786  19.409   7.502
  530POPC   NC3 9479   4.839  26.869   9.764
  530POPC   PO4 9480   5.459  26.964   9.504
  530POPC   GL1 9481   5.152  26.886   9.212
  530POPC   GL2 9482   4.970  26.536   9.237
  530POPC   C1A 9483   5.229  27.056   8.808
  530POPC   D2A 9484   5.426  26.829   8.472
  530POPC   C3A 9485   5.234  26.721   8.077
  530POPC   C4A 9486   5.365  26.808   7.689
  530POPC   C1B 9487   5.113  26.568   8.802
  530POPC   C2B 9488   4.900  26.646   8.441
  530POPC   C3B 9489   4.729  26.834   8.070
  530POPC   C4B 9490   4.738  26.682   7.638
  531POPC   NC3 9491  29.863   6.159   9.397
  531POPC   PO4 9492  30.155   5.642   9.508
  531POPC   GL1 9493  29.902   5.731   9.108
  531POPC   GL2 9494  29.658   5.952   8.968
  531POPC   C1A 9495  29.872   5.488   8.730
  531POPC   D2A 9496  30.067   5.498   8.313
  531POPC   C3A 9497  29.873   5.630   7.947
  531POPC   C4A 9498  29.885   6.062   7.869
  531POPC   C1B 9499  29.731   5.928   8.544
  531POPC   C2B 9500  29.508   6.080   8.224
  531POPC   C3B 9501  29.481   6.351   7.866
  531POPC   C4B 9502  29.655   6.256   7.428
  532POPC   NC3 9503  29.156  26.447   9.580
  532POPC   PO4 9504  29.347  25.735   9.740
  532POPC   GL1 9505  29.208  25.875   9.294
  532POPC   GL2 9506  29.012  26.186   9.173
  532POPC   C1A 9507  29.059  25.793   8.847
  532POPC   D2A 9508  29.178  25.574   8.463
  532POPC   C3A 9509  29.017  25.823   8.118
  532POPC   C4A 9510  29.267  25.877   7.773
  532POPC   C1B 9511  29.427  26.177   8.930
  532POPC   C2B 9512  29.361  26.064   8.491
  532POPC   C3B 9513  29.249  26.283   8.147
  532POPC   C4B 9514  28.963  26.303   7.817
  533POPC   NC3 9515   9.589  39.373   9.607
  533POPC   PO4 9516   9.679  38.697   9.706
  533POPC   GL1 9517   9.787  38.987   9.310
  533POPC   GL2 9518   9.957  39.351   9.262
  533POPC   C1A 9519   9.606  39.141   8.885
  533POPC   D2A 9520   9.510  38.923   8.471
  533POPC   C3A 9521   9.477  39.165   8.091
  533POPC   C4A 9522   9.548  39.030   7.708
  533POPC   C1B 9523   9.923  39.575   8.851
  533POPC   C2B 9524   9.741  39.455   8.426
  533POPC   C3B 9525   9.936  39.357   7.989
  533POPC   C4B 9526   9.931  39.268   7.503
  534POPC   NC3 9527  43.996  36.209   9.578
  534POPC   PO4 9528  44.199  35.676   9.272
  534POPC   GL1 9529  43.886  35.955   9.093
  534POPC   GL2 9530  43.914  36.315   9.090
  534POPC   C1A 9531  43.696  35.850   8.719
  534POPC   D2A 9532  43.939  35.943   8.359
  534POPC   C3A 9533  43.758  36.039   7.956
  534POPC   C4A 9534  43.938  35.991   7.560
  534POPC   C1B 9535  43.788  36.379   8.664
  534POPC   C2B 9536  43.941  36.430   8.235
  534POPC   C3B 9537  44.041  36.429   7.790
  534POPC   C4B 9538  43.959  36.460   7.347
  535POPC   NC3 9539   2.891   1.812   9.460
  535POPC   PO4 9540   2.325   2.150   9.469
  535POPC   GL1 9541   2.599   2.086   9.113
  535POPC   GL2 9542   2.959   2.220   9.133
  535POPC   C1A 9543   2.787   1.776   8.799
  535POPC   D2A 9544   3.003   1.649   8.390
  535POPC   C3A 9545   2.770   1.844   8.035
  535POPC   C4A 9546   2.438   1.676   7.740
  535POPC   C1B 9547   2.815   2.322   8.711
  535POPC   C2B 9548   2.559   2.396   8.344
  535POPC   C3B 9549   2.793   2.373   7.967
  535POPC   C4B 9550   2.970   2.155   7.643
  536POPC   NC3 9551  34.698  13.245   9.447
  536POPC   PO4 9552  34.376  13.874   9.503
  536POPC   GL1 9553  34.425  13.580   9.159
  536POPC   GL2 9554  34.753  13.713   9.167
  536POPC   C1A 9555  34.653  13.432   8.772
  536POPC   D2A 9556  34.959  13.471   8.442
  536POPC   C3A 9557  34.655  13.515   8.104
  536POPC   C4A 9558  34.286  13.353   7.869
  536POPC   C1B 9559  34.486  13.993   8.853
  536POPC   C2B 9560  34.329  13.995   8.411
  536POPC   C3B 9561  34.585  14.118   8.039
  536POPC   C4B 9562  34.531  13.873   7.715
  537POPC   NC3 9563  12.887  11.738   9.180
  537POPC   PO4 9564  12.645  11.229   9.505
  537POPC   GL1 9565  12.836  11.206   9.120
  537POPC   GL2 9566  13.163  11.230   9.277
  537POPC   C1A 9567  12.678  11.380   8.708
  537POPC   D2A 9568  12.404  11.404   8.370
  537POPC   C3A 9569  12.741  11.368   8.109
  537POPC   C4A 9570  12.856  11.409   7.693
  537POPC   C1B 9571  13.248  11.343   8.834
  537POPC   C2B 9572  13.115  11.556   8.468
  537POPC   C3B 9573  13.239  11.478   8.067
  537POPC   C4B 9574  13.378  11.494   7.683
  538POPC   NC3 9575  25.433   4.073   9.786
  538POPC   PO4 9576  25.554   4.781   9.630
  538POPC   GL1 9577  25.469   4.408   9.357
  538POPC   GL2 9578  25.111   4.385   9.245
  538POPC   C1A 9579  25.454   4.337   8.882
  538POPC   D2A 9580  25.459   4.638   8.521
  538POPC   C3A 9581  25.424   4.476   8.094
  538POPC   C4A 9582  25.399   4.188   7.719
  538POPC   C1B 9583  24.968   4.141   8.886
  538POPC   C2B 9584  25.035   4.303   8.489
  538POPC   C3B 9585  25.058   4.133   8.105
  538POPC   C4B 9586  24.850   3.948   7.801
  539POPC   NC3 9587  12.336  24.541   9.474
  539POPC   PO4 9588  11.994  23.901   9.569
  539POPC   GL1 9589  11.988  24.281   9.214
  539POPC   GL2 9590  12.359  24.305   9.037
  539POPC   C1A 9591  11.976  24.553   8.793
  539POPC   D2A 9592  12.154  24.465   8.369
  539POPC   C3A 9593  11.835  24.529   8.029
  539POPC   C4A 9594  11.950  24.591   7.617
  539POPC   C1B 9595  12.585  24.544   8.690
  539POPC   C2B 9596  12.643  24.511   8.217
  539POPC   C3B 9597  12.418  24.504   7.812
  539POPC   C4B 9598  12.383  24.709   7.375
  540POPC   NC3 9599   8.587  21.588   9.401
  540POPC   PO4 9600   7.927  21.274   9.481
  540POPC   GL1 9601   8.115  21.136   9.097
  540POPC   GL2 9602   8.495  21.087   9.167
  540POPC   C1A 9603   8.044  21.380   8.691
  540POPC   D2A 9604   7.934  21.791   8.471
  540POPC   C3A 9605   8.124  21.850   8.078
  540POPC   C4A 9606   8.168  21.552   7.751
  540POPC   C1B 9607   8.547  21.242   8.747
  540POPC   C2B 9608   8.374  21.137   8.343
  540POPC   C3B 9609   8.486  21.208   7.921
  540POPC   C4B 9610   8.704  21.422   7.558
  541POPC   NC3 9611  11.341   8.031   9.567
  541POPC   PO4 9612  11.284   8.678   9.657
  541POPC   GL1 9613  11.526   8.460   9.270
  541POPC   GL2 9614  11.725   8.153   9.250
  541POPC   C1A 9615  11.361   8.430   8.827
  541POPC   D2A 9616  11.088   8.130   8.589
  541POPC   C3A 9617  11.201   8.107   8.138
  541POPC   C4A 9618  11.271   8.421   7.791
  541POPC   C1B 9619  11.549   7.966   8.867
  541POPC   C2B 9620  11.618   8.089   8.458
  541POPC   C3B 9621  11.645   7.808   8.120
  541POPC   C4B 9622  11.509   7.964   7.738
  542POPC   NC3 9623  41.221   0.798   9.431
  542POPC   PO4 9624  41.893   1.133   9.484
  542POPC   GL1 9625  41.596   1.104   9.152
  542POPC   GL2 9626  41.404   1.418   9.017
  542POPC   C1A 9627  41.462   0.979   8.774
  542POPC   D2A 9628  41.401   1.228   8.419
  542POPC   C3A 9629  41.466   1.074   8.000
  542POPC   C4A 9630  41.219   1.306   7.682
  542POPC   C1B 9631  41.729   1.508   8.753
  542POPC   C2B 9632  41.707   1.748   8.387
  542POPC   C3B 9633  41.534   1.580   8.042
  542POPC   C4B 9634  41.648   1.587   7.624
  543POPC   NC3 9635  18.068   4.559   9.416
  543POPC   PO4 9636  18.393   4.029   9.654
  543POPC   GL1 9637  18.354   4.099   9.170
  543POPC   GL2 9638  18.222   4.398   8.976
  543POPC   C1A 9639  18.551   4.139   8.708
  543POPC   D2A 9640  18.472   4.473   8.403
  543POPC   C3A 9641  18.439   4.306   8.025
  543POPC   C4A 9642  18.364   4.384   7.620
  543POPC   C1B 9643  17.850   4.416   8.730
  543POPC   C2B 9644  17.817   4.587   8.294
  543POPC   C3B 9645  17.909   4.466   7.847
  543POPC   C4B 9646  17.927   4.454   7.358
  544POPC   NC3 9647  16.415  15.952   9.518
  544POPC   PO4 9648  15.808  15.713   9.739
  544POPC   GL1 9649  15.940  15.858   9.277
  544POPC   GL2 9650  16.177  15.615   9.197
  544POPC   C1A 9651  16.057  16.005   8.788
  544POPC   D2A 9652  16.192  16.245   8.345
  544POPC   C3A 9653  15.915  16.227   7.927
  544POPC   C4A 9654  15.554  16.196   7.608
  544POPC   C1B 9655  16.472  15.726   8.871
  544POPC   C2B 9656  16.549  15.881   8.487
  544POPC   C3B 9657  16.413  15.703   8.130
  544POPC   C4B 9658  16.020  15.668   7.879
  545POPC   NC3 9659   9.640  13.419   9.436
  545POPC   PO4 9660  10.199  13.726   9.226
  545POPC   GL1 9661   9.861  13.644   9.054
  545POPC   GL2 9662   9.645  13.885   9.167
  545POPC   C1A 9663   9.652  13.552   8.703
  545POPC   D2A 9664   9.828  13.538   8.302
  545POPC   C3A 9665   9.692  13.571   7.886
  545POPC   C4A 9666   9.866  13.404   7.533
  545POPC   C1B 9667   9.817  14.033   8.730
  545POPC   C2B 9668  10.045  14.013   8.316
  545POPC   C3B 9669   9.977  14.010   7.836
  545POPC   C4B 9670   9.854  14.256   7.427
  546POPC   NC3 9671   3.363  31.124   9.569
  546POPC   PO4 9672   3.426  31.768   9.739
  546POPC   GL1 9673   3.534  31.640   9.268
  546POPC   GL2 9674   3.689  31.353   9.195
  546POPC   C1A 9675   3.500  31.725   8.808
  546POPC   D2A 9676   3.303  31.807   8.384
  546POPC   C3A 9677   3.604  31.682   8.037
  546POPC   C4A 9678   3.552  31.495   7.609
  546POPC   C1B 9679   3.689  31.129   8.791
  546POPC   C2B 9680   3.702  31.271   8.387
  546POPC   C3B 9681   3.643  31.139   7.968
  546POPC   C4B 9682   3.692  30.996   7.557
  547POPC   NC3 9683  36.456  14.058   9.444
  547POPC   PO4 9684  36.061  14.648   9.384
  547POPC   GL1 9685  36.108  14.276   9.128
  547POPC   GL2 9686  36.452  14.216   8.978
  547POPC   C1A 9687  36.030  14.090   8.731
  547POPC   D2A 9688  36.092  14.294   8.359
  547POPC   C3A 9689  35.920  14.164   7.984
  547POPC   C4A 9690  35.852  14.567   7.837
  547POPC   C1B 9691  36.736  14.241   8.630
  547POPC   C2B 9692  36.578  14.183   8.228
  547POPC   C3B 9693  36.387  14.461   7.928
  547POPC   C4B 9694  36.560  14.549   7.508
  548POPC   NC3 9695  44.618  17.911   9.721
  548POPC   PO4 9696  44.660  18.594   9.587
  548POPC   GL1 9697  44.720  18.527   9.170
  548POPC   GL2 9698  44.639  18.161   9.157
  548POPC   C1A 9699  44.504  18.539   8.775
  548POPC   D2A 9700  44.400  18.360   8.368
  548POPC   C3A 9701  44.567  18.588   8.029
  548POPC   C4A 9702  44.547  18.598   7.591
  548POPC   C1B 9703  44.446  17.998   8.762
  548POPC   C2B 9704  44.346  17.816   8.354
  548POPC   C3B 9705  44.459  17.955   7.972
  548POPC   C4B 9706  44.785  18.185   7.817
  549POPC   NC3 9707  18.233  33.906   9.530
  549POPC   PO4 9708  18.503  33.340   9.504
  549POPC   GL1 9709  18.447  33.568   9.120
  549POPC   GL2 9710  18.089  33.695   9.080
  549POPC   C1A 9711  18.382  33.526   8.659
  549POPC   D2A 9712  18.081  33.411   8.324
  549POPC   C3A 9713  18.135  33.700   7.968
  549POPC   C4A 9714  18.386  33.902   7.672
  549POPC   C1B 9715  18.132  34.000   8.715
  549POPC   C2B 9716  18.245  34.097   8.273
  549POPC   C3B 9717  18.022  34.193   7.859
  549POPC   C4B 9718  18.039  34.086   7.337
  550POPC   NC3 9719  12.511  31.742   9.486
  550POPC   PO4 9720  13.166  31.814   9.448
  550POPC   GL1 9721  12.913  31.471   9.222
  550POPC   GL2 9722  12.599  31.273   9.194
  550POPC   C1A 9723  13.006  31.189   8.863
  550POPC   D2A 9724  13.019  31.342   8.436
  550POPC   C3A 9725  12.786  31.243   8.045
  550POPC   C4A 9726  12.923  31.413   7.620
  550POPC   C1B 9727  12.626  31.519   8.787
  550POPC   C2B 9728  12.582  31.623   8.358
  550POPC   C3B 9729  12.696  31.750   7.960
  550POPC   C4B 9730  12.574  31.869   7.563
  551POPC   NC3 9731   1.990  16.520   9.374
  551POPC   PO4 9732   2.294  17.066   9.465
  551POPC   GL1 9733   2.084  17.040   9.064
  551POPC   GL2 9734   1.774  17.218   9.008
  551POPC   C1A 9735   2.225  16.899   8.654
  551POPC   D2A 9736   2.437  16.754   8.254
  551POPC   C3A 9737   2.098  16.731   7.956
  551POPC   C4A 9738   1.646  16.580   7.947
  551POPC   C1B 9739   1.689  16.986   8.713
  551POPC   C2B 9740   1.748  16.887   8.339
  551POPC   C3B 9741   1.704  17.118   7.993
  551POPC   C4B 9742   1.831  17.003   7.611
  552POPC   NC3 9743  43.037  29.369   9.666
  552POPC   PO4 9744  43.499  28.848   9.535
  552POPC   GL1 9745  43.140  28.966   9.227
  552POPC   GL2 9746  43.036  29.295   9.166
  552POPC   C1A 9747  43.184  28.895   8.772
  552POPC   D2A 9748  43.154  29.131   8.404
  552POPC   C3A 9749  43.240  28.956   8.020
  552POPC   C4A 9750  43.047  29.099   7.685
  552POPC   C1B 9751  42.840  29.265   8.788
  552POPC   C2B 9752  42.793  29.494   8.442
  552POPC   C3B 9753  42.766  29.315   8.053
  552POPC   C4B 9754  42.874  29.577   7.747
  553POPC   NC3 9755   9.161  12.460   9.624
  553POPC   PO4 9756   8.784  11.927   9.797
  553POPC   GL1 9757   8.977  12.040   9.365
  553POPC   GL2 9758   8.868  12.368   9.188
  553POPC   C1A 9759   9.115  11.936   8.928
  553POPC   D2A 9760   9.019  11.760   8.500
  553POPC   C3A 9761   9.040  11.990   8.105
  553POPC   C4A 9762   8.898  12.058   7.681
  553POPC   C1B 9763   8.941  12.394   8.750
  553POPC   C2B 9764   8.715  12.281   8.379
  553POPC   C3B 9765   8.572  12.298   7.960
  553POPC   C4B 9766   8.839  12.570   7.689
  554POPC   NC3 9767  37.349  33.719   9.413
  554POPC   PO4 9768  37.945  33.689   9.670
  554POPC   GL1 9769  37.819  33.756   9.204
  554POPC   GL2 9770  37.635  34.106   9.194
  554POPC   C1A 9771  37.634  33.556   8.784
  554POPC   D2A 9772  37.602  33.314   8.357
  554POPC   C3A 9773  37.816  33.356   7.964
  554POPC   C4A 9774  38.067  33.631   7.754
  554POPC   C1B 9775  37.824  34.139   8.794
  554POPC   C2B 9776  37.675  33.927   8.436
  554POPC   C3B 9777  37.635  33.829   8.017
  554POPC   C4B 9778  37.772  34.042   7.648
  555POPC   NC3 9779   0.637  38.759   9.631
  555POPC   PO4 9780   0.226  38.244   9.593
  555POPC   GL1 9781   0.224  38.439   9.184
  555POPC   GL2 9782   0.034  38.754   9.174
  555POPC   C1A 9783   0.319  38.297   8.759
  555POPC   D2A 9784   0.549  38.465   8.402
  555POPC   C3A 9785   0.508  38.288   8.014
  555POPC   C4A 9786   0.222  38.406   7.716
  555POPC   C1B 9787   0.076  38.868   8.761
  555POPC   C2B 9788   0.114  38.738   8.327
  555POPC   C3B 9789   0.091  38.859   7.907
  555POPC   C4B 9790   0.115  38.860   7.452
  556POPC   NC3 9791  43.807  27.724   9.669
  556POPC   PO4 9792  44.175  27.264   9.380
  556POPC   GL1 9793  43.883  27.583   9.186
  556POPC   GL2 9794  43.613  27.463   9.021
  556POPC   C1A 9795  43.920  27.801   8.794
  556POPC   D2A 9796  44.034  27.592   8.413
  556POPC   C3A 9797  43.896  27.742   8.045
  556POPC   C4A 9798  44.030  27.519   7.698
  556POPC   C1B 9799  43.780  27.245   8.697
  556POPC   C2B 9800  43.675  27.216   8.266
  556POPC   C3B 9801  43.585  27.333   7.832
  556POPC   C4B 9802  43.749  27.217   7.382
  557POPC   NC3 9803  12.488  23.786   9.530
  557POPC   PO4 9804  12.029  23.296   9.367
  557POPC   GL1 9805  12.045  23.536   9.055
  557POPC   GL2 9806  12.183  23.830   9.109
  557POPC   C1A 9807  12.278  23.575   8.695
  557POPC   D2A 9808  12.177  23.778   8.349
  557POPC   C3A 9809  12.247  23.604   7.965
  557POPC   C4A 9810  12.123  23.725   7.554
  557POPC   C1B 9811  12.010  24.051   8.750
  557POPC   C2B 9812  11.797  24.113   8.328
  557POPC   C3B 9813  12.075  24.101   7.909
  557POPC   C4B 9814  12.213  24.205   7.437
  558POPC   NC3 9815  13.802  33.172   9.437
  558POPC   PO4 9816  13.242  32.710   9.393
  558POPC   GL1 9817  13.526  32.694   9.055
  558POPC   GL2 9818  13.704  33.007   8.973
  558POPC   C1A 9819  13.563  32.670   8.604
  558POPC   D2A 9820  13.275  32.895   8.339
  558POPC   C3A 9821  13.461  32.928   7.970
  558POPC   C4A 9822  13.748  33.207   7.788
  558POPC   C1B 9823  13.771  33.418   8.757
  558POPC   C2B 9824  13.824  33.359   8.325
  558POPC   C3B 9825  13.918  32.936   8.184
  558POPC   C4B 9826  13.919  32.719   7.771
  559POPC   NC3 9827   1.415  21.094   9.555
  559POPC   PO4 9828   1.094  21.597   9.402
  559POPC   GL1 9829   1.077  21.223   9.138
  559POPC   GL2 9830   1.382  21.156   9.048
  559POPC   C1A 9831   1.007  21.217   8.681
  559POPC   D2A 9832   1.031  21.567   8.387
  559POPC   C3A 9833   0.910  21.502   7.967
  559POPC   C4A 9834   1.102  21.259   7.671
  559POPC   C1B 9835   1.413  21.501   8.800
  559POPC   C2B 9836   1.560  21.403   8.425
  559POPC   C3B 9837   1.444  21.543   8.035
  559POPC   C4B 9838   1.585  21.492   7.645
  560POPC   NC3 9839   0.134  34.863   9.258
  560POPC   PO4 9840   0.439  34.367   9.568
  560POPC   GL1 9841   0.467  34.415   9.131
  560POPC   GL2 9842   0.607  34.709   9.067
  560POPC   C1A 9843   0.447  34.466   8.662
  560POPC   D2A 9844   0.679  34.482   8.314
  560POPC   C3A 9845   0.474  34.535   7.981
  560POPC   C4A 9846   0.553  34.259   7.670
  560POPC   C1B 9847   0.707  34.905   8.700
  560POPC   C2B 9848   0.557  35.004   8.292
  560POPC   C3B 9849   0.742  34.981   7.907
  560POPC   C4B 9850   0.678  34.747   7.559
  561POPC   NC3 9851   2.871  30.320   9.471
  561POPC   PO4 9852   2.605  29.709   9.565
  561POPC   GL1 9853   2.796  29.709   9.127
  561POPC   GL2 9854   3.041  29.956   9.008
  561POPC   C1A 9855   2.634  29.835   8.716
  561POPC   D2A 9856   2.608  30.085   8.332
  561POPC   C3A 9857   2.631  29.978   7.875
  561POPC   C4A 9858   2.778  30.016   7.426
  561POPC   C1B 9859   3.099  29.644   8.682
  561POPC   C2B 9860   2.853  29.594   8.289
  561POPC   C3B 9861   3.005  29.583   7.906
  561POPC   C4B 9862   3.147  29.956   7.771
  562POPC   NC3 9863  35.009  10.418   9.600
  562POPC   PO4 9864  35.659  10.290   9.537
  562POPC   GL1 9865  35.556  10.455   9.123
  562POPC   GL2 9866  35.207  10.546   9.126
  562POPC   C1A 9867  35.489  10.489   8.704
  562POPC   D2A 9868  35.320  10.605   8.320
  562POPC   C3A 9869  35.495  10.427   7.999
  562POPC   C4A 9870  35.640  10.698   7.719
  562POPC   C1B 9871  34.960  10.526   8.701
  562POPC   C2B 9872  34.861  10.353   8.296
  562POPC   C3B 9873  35.006  10.448   7.885
  562POPC   C4B 9874  35.168  10.890   7.832
  563POPC   NC3 9875  32.986  20.495  10.210
  563POPC   PO4 9876  33.042  20.669   9.639
  563POPC   GL1 9877  33.018  20.588   9.198
  563POPC   GL2 9878  32.907  20.909   9.060
  563POPC   C1A 9879  33.173  20.599   8.756
  563POPC   D2A 9880  33.036  20.785   8.345
  563POPC   C3A 9881  33.333  20.805   8.010
  563POPC   C4A 9882  33.389  20.508   7.692
  563POPC   C1B 9883  32.650  20.765   8.688
  563POPC   C2B 9884  32.504  20.697   8.247
  563POPC   C3B 9885  32.823  20.646   7.898
  563POPC   C4B 9886  33.016  20.961   7.629
  564POPC   NC3 9887  42.681  23.308   9.250
  564POPC   PO4 9888  42.273  22.804   9.539
  564POPC   GL1 9889  42.492  22.846   9.198
  564POPC   GL2 9890  42.230  23.085   9.062
  564POPC   C1A 9891  42.603  22.873   8.782
  564POPC   D2A 9892  42.323  22.987   8.475
  564POPC   C3A 9893  42.477  23.148   8.112
  564POPC   C4A 9894  42.678  23.131   7.731
  564POPC   C1B 9895  42.146  22.650   8.849
  564POPC   C2B 9896  42.069  22.542   8.396
  564POPC   C3B 9897  42.150  22.782   8.006
  564POPC   C4B 9898  42.353  22.771   7.575
  565POPC   NC3 9899  42.282  41.170   9.485
  565POPC   PO4 9900  42.359  40.452   9.580
  565POPC   GL1 9901  42.434  40.718   9.203
  565POPC   GL2 9902  42.731  40.919   9.185
  565POPC   C1A 9903  42.345  40.781   8.781
  565POPC   D2A 9904  42.114  40.908   8.419
  565POPC   C3A 9905  42.267  40.729   8.073
  565POPC   C4A 9906  42.249  40.705   7.663
  565POPC   C1B 9907  42.797  40.995   8.751
  565POPC   C2B 9908  42.621  41.009   8.334
  565POPC   C3B 9909  42.653  41.012   7.888
  565POPC   C4B 9910  42.542  41.042   7.449
  566POPC   NC3 9911  31.822  11.679   9.453
  566POPC   PO4 9912  31.739  12.326   9.487
  566POPC   GL1 9913  31.553  12.265   9.104
  566POPC   GL2 9914  31.321  11.986   9.188
  566POPC   C1A 9915  31.616  12.238   8.671
  566POPC   D2A 9916  31.847  11.986   8.394
  566POPC   C3A 9917  31.632  12.078   8.050
  566POPC   C4A 9918  31.544  12.239   7.654
  566POPC   C1B 9919  31.463  11.763   8.808
  566POPC   C2B 9920  31.319  11.879   8.414
  566POPC   C3B 9921  31.223  11.774   8.010
  566POPC   C4B 9922  31.469  11.752   7.647
  567POPC   NC3 9923  18.932  22.658   9.832
  567POPC   PO4 9924  19.309  22.140   9.668
  567POPC   GL1 9925  19.377  22.122   9.173
  567POPC   GL2 9926  19.239  21.797   9.025
  567POPC   C1A 9927  19.171  22.202   8.727
  567POPC   D2A 9928  19.020  21.919   8.353
  567POPC   C3A 9929  19.108  22.163   7.972
  567POPC   C4A 9930  19.047  22.570   7.766
  567POPC   C1B 9931  19.420  21.777   8.641
  567POPC   C2B 9932  19.536  21.967   8.248
  567POPC   C3B 9933  19.508  21.895   7.812
  567POPC   C4B 9934  19.128  21.735   7.659
  568POPC   NC3 9935  18.539  28.777   9.558
  568POPC   PO4 9936  18.604  29.364   9.805
  568POPC   GL1 9937  18.519  29.291   9.290
  568POPC   GL2 9938  18.502  28.972   9.089
  568POPC   C1A 9939  18.251  29.329   8.864
  568POPC   D2A 9940  18.301  29.432   8.416
  568POPC   C3A 9941  18.041  29.258   8.077
  568POPC   C4A 9942  17.837  28.896   7.914
  568POPC   C1B 9943  18.272  28.729   8.740
  568POPC   C2B 9944  18.157  28.772   8.282
  568POPC   C3B 9945  18.343  28.807   7.840
  568POPC   C4B 9946  18.590  29.130   7.585
  569POPC   NC3 9947  42.787   0.221   9.522
  569POPC   PO4 9948  43.422   0.414   9.377
  569POPC   GL1 9949  43.041   0.422   9.106
  569POPC   GL2 9950  42.904   0.086   9.058
  569POPC   C1A 9951  43.135   0.493   8.675
  569POPC   D2A 9952  42.983   0.436   8.259
  569POPC   C3A 9953  43.165   0.187   7.937
  569POPC   C4A 9954  43.257   0.573   7.765
  569POPC   C1B 9955  42.698   0.254   8.714
  569POPC   C2B 9956  42.485   0.199   8.363
  569POPC   C3B 9957  42.623   0.224   7.979
  569POPC   C4B 9958  42.691   0.131   7.579
  570POPC   NC3 9959   1.721   7.440   9.452
  570POPC   PO4 9960   2.340   7.412   9.322
  570POPC   GL1 9961   2.033   7.427   9.045
  570POPC   GL2 9962   1.673   7.403   8.951
  570POPC   C1A 9963   2.063   7.589   8.697
  570POPC   D2A 9964   2.290   7.512   8.387
  570POPC   C3A 9965   2.024   7.459   8.070
  570POPC   C4A 9966   2.249   7.529   7.663
  570POPC   C1B 9967   1.578   7.510   8.528
  570POPC   C2B 9968   1.457   7.863   8.330
  570POPC   C3B 9969   1.634   7.842   7.962
  570POPC   C4B 9970   1.639   7.422   7.770
  571POPC   NC3 9971  25.451  13.760   9.670
  571POPC   PO4 9972  24.843  13.647   9.496
  571POPC   GL1 9973  25.202  13.765   9.189
  571POPC   GL2 9974  25.601  13.846   9.194
  571POPC   C1A 9975  25.392  13.613   8.782
  571POPC   D2A 9976  25.610  13.529   8.382
  571POPC   C3A 9977  25.329  13.335   8.061
  571POPC   C4A 9978  25.220  13.064   7.695
  571POPC   C1B 9979  25.733  13.981   8.775
  571POPC   C2B 9980  25.538  14.043   8.373
  571POPC   C3B 9981  25.464  13.840   7.976
  571POPC   C4B 9982  25.437  13.913   7.558
  572POPC   NC3 9983  18.792  44.847   9.848
  572POPC   PO4 9984  19.300  44.408   9.551
  572POPC   GL1 9985  19.015  44.607   9.238
  572POPC   GL2 9986  18.702  44.783   9.196
  572POPC   C1A 9987  19.103  44.776   8.811
  572POPC   D2A 9988  19.124  44.509   8.429
  572POPC   C3A 9989  19.313  44.586   8.026
  572POPC   C4A 9990  18.981  44.433   7.768
  572POPC   C1B 9991  18.595  44.836   8.754
  572POPC   C2B 9992  18.877  44.975   8.381
  572POPC   C3B 9993  18.978  44.969   7.923
  572POPC   C4B 9994  18.587   0.041   7.676
  573POPC   NC3 9995  15.979  26.721   9.572
  573POPC   PO4 9996  15.576  27.241   9.507
  573POPC   GL1 9997  15.738  26.944   9.198
  573POPC   GL2 9998  16.110  26.956   9.125
  573POPC   C1A 9999  15.619  26.701   8.855
  573POPC   D2A10000  15.449  26.819   8.468
  573POPC   C3A10001  15.751  26.824   8.162
  573POPC   C4A10002  15.649  26.753   7.750
  573POPC   C1B10003  16.299  26.736   8.776
  573POPC   C2B10004  16.275  26.645   8.309
  573POPC   C3B10005  16.064  26.471   7.932
  573POPC   C4B10006  16.172  26.444   7.500
  574POPC   NC310007   3.398  14.871   9.386
  574POPC   PO410008   4.007  14.927   9.523
  574POPC   GL110009   3.842  15.183   9.170
  574POPC   GL210010   3.450  15.303   9.136
  574POPC   C1A10011   3.694  15.050   8.772
  574POPC   D2A10012   3.621  15.222   8.370
  574POPC   C3A10013   3.394  15.013   8.034
  574POPC   C4A10014   3.712  15.163   7.730
  574POPC   C1B10015   3.266  15.367   8.738
  574POPC   C2B10016   3.356  15.677   8.395
  574POPC   C3B10017   3.374  15.512   7.995
  574POPC   C4B10018   3.236  15.286   7.623
  575POPC   NC310019  32.463  18.786   9.766
  575POPC   PO410020  32.071  18.346   9.561
  575POPC   GL110021  32.221  18.407   9.165
  575POPC   GL210022  32.373  18.725   9.259
  575POPC   C1A10023  32.260  18.241   8.738
  575POPC   D2A10024  32.424  18.044   8.354
  575POPC   C3A10025  32.304  18.307   8.012
  575POPC   C4A10026  32.231  18.565   7.662
  575POPC   C1B10027  32.493  18.690   8.830
  575POPC   C2B10028  32.618  18.494   8.449
  575POPC   C3B10029  32.797  18.326   8.101
  575POPC   C4B10030  32.708  18.356   7.687
  576POPC   NC310031  34.665  15.040   9.546
  576POPC   PO410032  34.541  15.647   9.422
  576POPC   GL110033  34.577  15.303   9.141
  576POPC   GL210034  34.898  15.253   9.085
  576POPC   C1A10035  34.407  15.147   8.800
  576POPC   D2A10036  34.301  15.391   8.530
  576POPC   C3A10037  34.245  15.312   8.159
  576POPC   C4A10038  34.238  15.417   7.758
  576POPC   C1B10039  34.876  14.997   8.693
  576POPC   C2B10040  34.628  14.954   8.303
  576POPC   C3B10041  34.566  15.022   7.847
  576POPC   C4B10042  34.742  15.261   7.490
  577POPC   NC310043  23.208  24.891   9.351
  577POPC   PO410044  23.212  24.239   9.427
  577POPC   GL110045  22.926  24.445   9.114
  577POPC   GL210046  23.183  24.600   8.936
  577POPC   C1A10047  22.739  24.392   8.659
  577POPC   D2A10048  22.677  24.057   8.299
  577POPC   C3A10049  22.741  24.154   7.834
  577POPC   C4A10050  22.803  24.586   7.653
  577POPC   C1B10051  23.236  24.180   8.780
  577POPC   C2B10052  23.303  24.319   8.387
  577POPC   C3B10053  23.118  24.462   8.030
  577POPC   C4B10054  23.208  24.247   7.638
  578POPC   NC310055  30.070   0.121   9.438
  578POPC   PO410056  29.868   0.787   9.410
  578POPC   GL110057  30.119   0.531   9.102
  578POPC   GL210058  29.858   0.258   9.016
  578POPC   C1A10059  30.076   0.502   8.641
  578POPC   D2A10060  29.707   0.687   8.422
  578POPC   C3A10061  29.706   0.523   8.025
  578POPC   C4A10062  30.130   0.454   7.869
  578POPC   C1B10063  29.871   0.016   8.642
  578POPC   C2B10064  29.980   0.130   8.255
  578POPC   C3B10065  29.788   0.032   7.856
  578POPC   C4B10066  29.745   0.357   7.537
  579POPC   NC310067  42.547  20.417   9.509
  579POPC   PO410068  41.985  20.742   9.532
  579POPC   GL110069  42.199  20.594   9.132
  579POPC   GL210070  42.535  20.428   9.011
  579POPC   C1A10071  42.312  20.802   8.738
  579POPC   D2A10072  42.389  20.614   8.341
  579POPC   C3A10073  42.066  20.582   8.072
  579POPC   C4A10074  42.206  20.887   7.762
  579POPC   C1B10075  42.240  20.217   8.780
  579POPC   C2B10076  42.138  20.170   8.385
  579POPC   C3B10077  42.252  20.106   7.980
  579POPC   C4B10078  42.315  20.401   7.667
  580POPC   NC310079  26.355  44.576   9.414
  580POPC   PO410080  25.702  44.803   9.678
  580POPC   GL110081  25.670  44.853   9.213
  580POPC   GL210082  25.583  44.566   8.989
  580POPC   C1A10083  25.875  44.920   8.826
  580POPC   D2A10084  25.726  44.946   8.425
  580POPC   C3A10085  26.032  44.839   8.114
  580POPC   C4A10086  26.015  44.827   7.687
  580POPC   C1B10087  25.850  44.331   8.705
  580POPC   C2B10088  26.054  44.328   8.291
  580POPC   C3B10089  25.820  44.328   7.903
  580POPC   C4B10090  25.704  44.455   7.490
  581POPC   NC310091  12.486  43.429   9.284
  581POPC   PO410092  11.947  43.887   9.470
  581POPC   GL110093  12.097  43.750   9.113
  581POPC   GL210094  11.790  43.731   9.010
  581POPC   C1A10095  12.181  43.891   8.701
  581POPC   D2A10096  12.511  43.855   8.373
  581POPC   C3A10097  12.298  43.866   7.982
  581POPC   C4A10098  11.936  44.048   7.807
  581POPC   C1B10099  11.684  43.549   8.633
  581POPC   C2B10100  11.907  43.650   8.249
  581POPC   C3B10101  11.846  43.549   7.816
  581POPC   C4B10102  11.681  43.686   7.417
  582POPC   NC310103  36.093  12.466   9.423
  582POPC   PO410104  35.863  13.191   9.402
  582POPC   GL110105  36.141  12.915   9.167
  582POPC   GL210106  36.505  12.987   9.145
  582POPC   C1A10107  36.082  12.699   8.782
  582POPC   D2A10108  35.838  12.800   8.419
  582POPC   C3A10109  36.068  12.902   8.102
  582POPC   C4A10110  36.051  12.937   7.706
  582POPC   C1B10111  36.338  13.275   8.823
  582POPC   C2B10112  36.448  13.356   8.402
  582POPC   C3B10113  36.329  13.323   7.978
  582POPC   C4B10114  36.180  13.411   7.580
  583POPC   NC310115  22.691  25.551   9.865
  583POPC   PO410116  22.119  25.346   9.493
  583POPC   GL110117  22.275  25.229   9.106
  583POPC   GL210118  22.022  24.995   9.058
  583POPC   C1A10119  22.515  25.346   8.727
  583POPC   D2A10120  22.450  25.332   8.283
  583POPC   C3A10121  22.073  25.474   8.089
  583POPC   C4A10122  22.174  25.641   7.684
  583POPC   C1B10123  22.024  25.186   8.648
  583POPC   C2B10124  21.881  25.012   8.285
  583POPC   C3B10125  21.958  24.963   7.882
  583POPC   C4B10126  21.849  25.272   7.651
  584POPC   NC310127  21.738  14.386   9.891
  584POPC   PO410128  22.383  14.458   9.605
  584POPC   GL110129  22.218  14.472   9.175
  584POPC   GL210130  21.869  14.489   9.114
  584POPC   C1A10131  22.199  14.537   8.725
  584POPC   D2A10132  22.353  14.746   8.405
  584POPC   C3A10133  22.232  14.855   8.009
  584POPC   C4A10134  22.066  14.555   7.721
  584POPC   C1B10135  21.788  14.229   8.772
  584POPC   C2B10136  21.974  14.200   8.400
  584POPC   C3B10137  22.149  14.173   8.028
  584POPC   C4B10138  21.975  14.049   7.642
  585POPC   NC310139  34.774   7.180   9.518
  585POPC   PO410140  34.413   7.699   9.440
  585POPC   GL110141  34.704   7.478   9.102
  585POPC   GL210142  34.870   7.093   9.046
  585POPC   C1A10143  34.502   7.262   8.750
  585POPC   D2A10144  34.325   7.389   8.365
  585POPC   C3A10145  34.573   7.359   7.989
  585POPC   C4A10146  34.287   7.416   7.665
  585POPC   C1B10147  35.033   7.296   8.705
  585POPC   C2B10148  35.105   7.423   8.291
  585POPC   C3B10149  35.036   7.063   8.040
  585POPC   C4B10150  34.843   6.987   7.656
  586POPC   NC310151  10.099  21.256   9.580
  586POPC   PO410152   9.738  21.782   9.615
  586POPC   GL110153   9.777  21.543   9.247
  586POPC   GL210154   9.729  21.192   9.188
  586POPC   C1A10155   9.814  21.577   8.804
  586POPC   D2A10156   9.737  21.756   8.399
  586POPC   C3A10157   9.960  21.555   8.077
  586POPC   C4A10158  10.037  21.659   7.662
  586POPC   C1B10159   9.521  21.118   8.798
  586POPC   C2B10160   9.506  21.287   8.387
  586POPC   C3B10161   9.446  21.051   7.995
  586POPC   C4B10162   9.318  20.802   7.606
  587POPC   NC310163  31.501  30.424   9.483
  587POPC   PO410164  31.824  31.107   9.451
  587POPC   GL110165  31.569  30.986   9.070
  587POPC   GL210166  31.391  30.651   9.058
  587POPC   C1A10167  31.229  30.998   8.754
  587POPC   D2A10168  31.183  30.905   8.321
  587POPC   C3A10169  31.546  30.900   8.088
  587POPC   C4A10170  31.620  30.785   7.703
  587POPC   C1B10171  31.434  30.336   8.725
  587POPC   C2B10172  31.475  30.461   8.316
  587POPC   C3B10173  31.443  30.351   7.911
  587POPC   C4B10174  31.366  30.399   7.437
  588POPC   NC310175  35.679  13.620   9.325
  588POPC   PO410176  35.127  13.435   9.440
  588POPC   GL110177  35.230  13.567   9.070
  588POPC   GL210178  35.272  13.922   9.186
  588POPC   C1A10179  35.406  13.632   8.691
  588POPC   D2A10180  35.573  13.768   8.327
  588POPC   C3A10181  35.395  13.525   7.999
  588POPC   C4A10182  35.446  13.766   7.617
  588POPC   C1B10183  35.025  13.978   8.827
  588POPC   C2B10184  34.835  13.977   8.464
  588POPC   C3B10185  35.028  13.869   8.100
  588POPC   C4B10186  34.980  13.664   7.736
  589POPC   NC310187  34.769  11.574   9.316
  589POPC   PO410188  34.478  12.164   9.536
  589POPC   GL110189  34.471  12.240   9.133
  589POPC   GL210190  34.803  12.072   9.115
  589POPC   C1A10191  34.379  12.068   8.738
  589POPC   D2A10192  34.574  11.988   8.354
  589POPC   C3A10193  34.467  12.305   8.074
  589POPC   C4A10194  34.461  12.195   7.680
  589POPC   C1B10195  34.886  12.204   8.714
  589POPC   C2B10196  34.924  12.385   8.299
  589POPC   C3B10197  34.943  12.179   7.891
  589POPC   C4B10198  34.758  11.782   7.771
  590POPC   NC310199  41.143  38.575   9.567
  590POPC   PO410200  41.874  38.520   9.687
  590POPC   GL110201  41.628  38.540   9.236
  590POPC   GL210202  41.632  38.262   9.044
  590POPC   C1A10203  41.368  38.700   8.874
  590POPC   D2A10204  41.523  38.686   8.433
  590POPC   C3A10205  41.376  38.659   8.018
  590POPC   C4A10206  41.554  38.631   7.563
  590POPC   C1B10207  41.390  38.228   8.668
  590POPC   C2B10208  41.478  38.173   8.241
  590POPC   C3B10209  41.708  38.291   7.906
  590POPC   C4B10210  41.929  38.697   7.924
  591POPC   NC310211  41.303  43.340   9.453
  591POPC   PO410212  41.879  43.063   9.741
  591POPC   GL110213  41.758  43.214   9.286
  591POPC   GL210214  41.477  42.943   9.178
  591POPC   C1A10215  41.692  43.233   8.797
  591POPC   D2A10216  41.556  42.976   8.413
  591POPC   C3A10217  41.738  43.075   8.002
  591POPC   C4A10218  41.753  42.976   7.576
  591POPC   C1B10219  41.188  42.950   8.805
  591POPC   C2B10220  41.045  43.080   8.388
  591POPC   C3B10221  41.247  43.273   8.027
  591POPC   C4B10222  41.501  43.412   7.656
  592POPC   NC310223  44.619  10.412   9.485
  592POPC   PO410224   0.174  10.769   9.424
  592POPC   GL110225   0.056  10.470   9.120
  592POPC   GL210226  44.801  10.674   9.042
  592POPC   C1A10227  44.845  10.231   8.800
  592POPC   D2A10228  44.626  10.222   8.433
  592POPC   C3A10229  44.708  10.448   8.063
  592POPC   C4A10230  44.415  10.540   7.744
  592POPC   C1B10231  44.781  10.697   8.587
  592POPC   C2B10232  44.404  10.748   8.335
  592POPC   C3B10233  44.440  10.999   7.977
  592POPC   C4B10234  44.815  10.850   7.719
  593POPC   NC310235  43.592  15.131   9.345
  593POPC   PO410236  44.188  14.972   9.136
  593POPC   GL110237  43.879  15.038   8.933
  593POPC   GL210238  43.875  15.369   8.970
  593POPC   C1A10239  43.969  15.062   8.517
  593POPC   D2A10240  43.965  14.725   8.248
  593POPC   C3A10241  43.863  14.908   7.839
  593POPC   C4A10242  43.584  14.905   7.471
  593POPC   C1B10243  43.968  15.604   8.587
  593POPC   C2B10244  43.909  15.449   8.139
  593POPC   C3B10245  44.057  15.356   7.706
  593POPC   C4B10246  44.093  15.605   7.312
  594POPC   NC310247  13.784  22.389   9.823
  594POPC   PO410248  13.608  22.928   9.440
  594POPC   GL110249  13.753  23.039   9.015
  594POPC   GL210250  13.440  22.930   8.921
  594POPC   C1A10251  13.853  22.848   8.581
  594POPC   D2A10252  13.725  22.554   8.206
  594POPC   C3A10253  13.912  22.727   7.858
  594POPC   C4A10254  13.794  23.102   7.596
  594POPC   C1B10255  13.374  22.661   8.565
  594POPC   C2B10256  13.168  22.729   8.166
  594POPC   C3B10257  13.413  22.850   7.830
  594POPC   C4B10258  13.592  22.635   7.463
  595POPC   NC310259  42.583  15.818   9.593
  595POPC   PO410260  41.927  16.139   9.430
  595POPC   GL110261  42.091  15.989   9.064
  595POPC   GL210262  42.434  15.931   9.128
  595POPC   C1A10263  42.277  16.179   8.709
  595POPC   D2A10264  42.554  16.113   8.361
  595POPC   C3A10265  42.299  16.110   7.987
  595POPC   C4A10266  42.345  16.142   7.547
  595POPC   C1B10267  42.447  15.706   8.761
  595POPC   C2B10268  42.517  15.534   8.381
  595POPC   C3B10269  42.596  15.703   8.034
  595POPC   C4B10270  42.365  15.641   7.706
  596POPC   NC310271  14.612  15.755   9.399
  596POPC   PO410272  14.259  16.276   9.739
  596POPC   GL110273  14.249  16.118   9.269
  596POPC   GL210274  14.133  15.840   9.088
  596POPC   C1A10275  14.500  16.039   8.814
  596POPC   D2A10276  14.577  15.866   8.408
  596POPC   C3A10277  14.560  16.159   8.083
  596POPC   C4A10278  14.401  16.078   7.691
  596POPC   C1B10279  14.238  15.593   8.697
  596POPC   C2B10280  14.334  15.439   8.283
  596POPC   C3B10281  14.284  15.659   7.935
  596POPC   C4B10282  14.071  15.688   7.572
  597POPC   NC310283  36.054   1.679   9.684
  597POPC   PO410284  35.844   2.235   9.338
  597POPC   GL110285  35.905   2.253   8.927
  597POPC   GL210286  36.259   2.106   8.921
  597POPC   C1A10287  36.002   2.190   8.495
  597POPC   D2A10288  36.095   1.969   8.142
  597POPC   C3A10289  35.908   2.000   7.779
  597POPC   C4A10290  35.732   1.632   7.797
  597POPC   C1B10291  36.525   2.080   8.571
  597POPC   C2B10292  36.547   2.195   8.154
  597POPC   C3B10293  36.362   2.242   7.775
  597POPC   C4B10294  36.581   2.261   7.377
  598POPC   NC310295  12.588  10.768   9.425
  598POPC   PO410296  12.815  10.112   9.320
  598POPC   GL110297  12.990  10.491   9.186
  598POPC   GL210298  12.714  10.571   8.968
  598POPC   C1A10299  13.148  10.835   8.900
  598POPC   D2A10300  13.018  11.047   8.492
  598POPC   C3A10301  13.140  10.974   8.074
  598POPC   C4A10302  12.884  10.811   7.802
  598POPC   C1B10303  13.009  10.379   8.661
  598POPC   C2B10304  12.967  10.472   8.211
  598POPC   C3B10305  12.757  10.299   7.839
  598POPC   C4B10306  12.968  10.169   7.458
  599POPC   NC310307   3.697  28.814   9.484
  599POPC   PO410308   3.365  28.247   9.411
  599POPC   GL110309   3.631  28.430   9.139
  599POPC   GL210310   3.408  28.726   9.050
  599POPC   C1A10311   3.766  28.507   8.733
  599POPC   D2A10312   3.650  28.428   8.327
  599POPC   C3A10313   3.830  28.700   8.011
  599POPC   C4A10314   3.634  28.501   7.687
  599POPC   C1B10315   3.257  28.352   8.772
  599POPC   C2B10316   3.219  28.103   8.395
  599POPC   C3B10317   3.280  28.226   7.975
  599POPC   C4B10318   3.510  28.016   7.670
  600POPC   NC310319  32.964  34.226   9.551
  600POPC   PO410320  33.331  34.749   9.689
  600POPC   GL110321  33.101  34.651   9.280
  600POPC   GL210322  33.423  34.609   9.192
  600POPC   C1A10323  32.978  34.451   8.841
  600POPC   D2A10324  32.839  34.402   8.394
  600POPC   C3A10325  33.014  34.677   8.057
  600POPC   C4A10326  33.063  34.692   7.624
  600POPC   C1B10327  33.500  34.467   8.813
  600POPC   C2B10328  33.336  34.555   8.431
  600POPC   C3B10329  33.427  34.377   8.013
  600POPC   C4B10330  33.399  34.215   7.601
  601POPC   NC310331  18.884   9.893   9.542
  601POPC   PO410332  18.555   9.279   9.517
  601POPC   GL110333  18.749   9.593   9.173
  601POPC   GL210334  19.039   9.531   8.969
  601POPC   C1A10335  18.955   9.997   8.900
  601POPC   D2A10336  19.120   9.791   8.528
  601POPC   C3A10337  18.838   9.845   8.202
  601POPC   C4A10338  18.919   9.927   7.778
  601POPC   C1B10339  19.353   9.347   8.708
  601POPC   C2B10340  19.386   9.364   8.272
  601POPC   C3B10341  19.279   9.499   7.850
  601POPC   C4B10342  19.266   9.204   7.449
  602POPC   NC310343   9.483  28.442   9.223
  602POPC   PO410344  10.042  28.674   9.445
  602POPC   GL110345  10.067  28.512   9.054
  602POPC   GL210346   9.913  28.194   9.045
  602POPC   C1A10347   9.900  28.524   8.627
  602POPC   D2A10348   9.594  28.596   8.305
  602POPC   C3A10349   9.740  28.442   7.917
  602POPC   C4A10350   9.766  28.510   7.475
  602POPC   C1B10351   9.691  28.028   8.664
  602POPC   C2B10352   9.574  28.064   8.229
  602POPC   C3B10353   9.865  27.883   7.944
  602POPC   C4B10354   9.997  28.055   7.553
  603POPC   NC310355  37.132  17.924   9.553
  603POPC   PO410356  37.002  18.570   9.340
  603POPC   GL110357  37.005  18.217   9.068
  603POPC   GL210358  36.747  17.992   9.193
  603POPC   C1A10359  36.985  18.234   8.609
  603POPC   D2A10360  36.663  18.346   8.356
  603POPC   C3A10361  36.767  18.292   7.927
  603POPC   C4A10362  37.013  18.573   7.723
  603POPC   C1B10363  36.773  17.806   8.782
  603POPC   C2B10364  36.712  17.860   8.322
  603POPC   C3B10365  36.530  17.842   7.920
  603POPC   C4B10366  36.650  17.924   7.472
  604POPC   NC310367   6.674  40.039   9.723
  604POPC   PO410368   6.979  39.713   9.291
  604POPC   GL110369   6.600  39.916   9.057
  604POPC   GL210370   6.253  39.710   9.060
  604POPC   C1A10371   6.593  40.023   8.601
  604POPC   D2A10372   6.848  39.896   8.229
  604POPC   C3A10373   6.852  40.147   7.842
  604POPC   C4A10374   6.455  40.258   7.705
  604POPC   C1B10375   6.332  39.543   8.701
  604POPC   C2B10376   6.254  39.632   8.330
  604POPC   C3B10377   6.193  39.677   7.936
  604POPC   C4B10378   6.590  39.716   7.802
  605POPC   NC310379  33.766   8.794   9.587
  605POPC   PO410380  33.133   9.043   9.739
  605POPC   GL110381  33.405   9.181   9.350
  605POPC   GL210382  33.794   9.242   9.311
  605POPC   C1A10383  33.496   9.194   8.899
  605POPC   D2A10384  33.581   8.824   8.615
  605POPC   C3A10385  33.650   8.836   8.168
  605POPC   C4A10386  33.558   9.203   7.895
  605POPC   C1B10387  33.984   9.145   8.882
  605POPC   C2B10388  34.181   9.156   8.483
  605POPC   C3B10389  34.034   9.139   8.063
  605POPC   C4B10390  34.240   9.175   7.691
  606POPC   NC310391   6.376   2.308   9.474
  606POPC   PO410392   6.848   1.815   9.453
  606POPC   GL110393   6.671   1.969   9.104
  606POPC   GL210394   6.314   1.947   9.078
  606POPC   C1A10395   6.915   1.986   8.730
  606POPC   D2A10396   7.096   1.827   8.341
  606POPC   C3A10397   6.963   2.037   7.921
  606POPC   C4A10398   6.909   1.866   7.460
  606POPC   C1B10399   6.429   2.213   8.727
  606POPC   C2B10400   6.624   2.107   8.329
  606POPC   C3B10401   6.462   1.948   7.945
  606POPC   C4B10402   6.455   2.122   7.525
  607POPC   NC310403  38.914  38.761   9.721
  607POPC   PO410404  39.446  38.346   9.366
  607POPC   GL110405  39.189  38.113   9.138
  607POPC   GL210406  38.834  38.053   9.250
  607POPC   C1A10407  39.251  38.259   8.743
  607POPC   D2A10408  39.345  38.556   8.457
  607POPC   C3A10409  39.374  38.444   8.030
  607POPC   C4A10410  39.691  38.550   7.742
  607POPC   C1B10411  38.777  38.108   8.791
  607POPC   C2B10412  39.017  38.041   8.349
  607POPC   C3B10413  39.065  38.060   7.873
  607POPC   C4B10414  39.189  38.383   7.539
  608POPC   NC310415  23.795  19.669   9.644
  608POPC   PO410416  23.350  20.076   9.375
  608POPC   GL110417  23.555  19.834   9.070
  608POPC   GL210418  23.588  19.513   9.196
  608POPC   C1A10419  23.687  19.927   8.659
  608POPC   D2A10420  23.922  20.079   8.301
  608POPC   C3A10421  23.763  19.836   7.960
  608POPC   C4A10422  23.320  19.761   7.812
  608POPC   C1B10423  23.888  19.433   8.845
  608POPC   C2B10424  23.945  19.551   8.423
  608POPC   C3B10425  24.093  19.407   8.056
  608POPC   C4B10426  24.153  19.603   7.695
  609POPC   NC310427  26.771  43.358   9.571
  609POPC   PO410428  26.519  42.777   9.558
  609POPC   GL110429  26.866  42.962   9.261
  609POPC   GL210430  26.578  43.155   9.134
  609POPC   C1A10431  27.084  43.143   8.864
  609POPC   D2A10432  26.910  43.186   8.424
  609POPC   C3A10433  27.147  43.179   8.036
  609POPC   C4A10434  27.111  43.314   7.605
  609POPC   C1B10435  26.661  42.899   8.777
  609POPC   C2B10436  26.657  42.728   8.403
  609POPC   C3B10437  26.709  42.868   8.046
  609POPC   C4B10438  26.658  43.130   7.733
  610POPC   NC310439  31.185  27.646   9.561
  610POPC   PO410440  31.186  26.931   9.556
  610POPC   GL110441  31.422  26.878   9.137
  610POPC   GL210442  31.586  27.206   9.085
  610POPC   C1A10443  31.477  26.799   8.692
  610POPC   D2A10444  31.394  26.603   8.265
  610POPC   C3A10445  31.564  26.699   7.847
  610POPC   C4A10446  31.501  26.567   7.393
  610POPC   C1B10447  31.176  27.202   8.837
  610POPC   C2B10448  31.100  27.032   8.405
  610POPC   C3B10449  31.211  27.133   7.975
  610POPC   C4B10450  31.210  26.958   7.566
  611POPC   NC310451  17.055  39.235   9.581
  611POPC   PO410452  16.481  39.540   9.321
  611POPC   GL110453  16.842  39.475   9.051
  611POPC   GL210454  16.917  39.122   9.096
  611POPC   C1A10455  16.786  39.583   8.599
  611POPC   D2A10456  16.382  39.522   8.370
  611POPC   C3A10457  16.388  39.156   8.127
  611POPC   C4A10458  16.684  39.229   7.795
  611POPC   C1B10459  16.817  39.068   8.677
  611POPC   C2B10460  16.914  39.198   8.269
  611POPC   C3B10461  17.022  38.904   7.967
  611POPC   C4B10462  16.814  38.714   7.617
  612POPC   NC310463  16.780  17.297   9.825
  612POPC   PO410464  16.721  17.900   9.453
  612POPC   GL110465  16.796  17.463   9.217
  612POPC   GL210466  16.528  17.265   9.184
  612POPC   C1A10467  16.878  17.276   8.793
  612POPC   D2A10468  16.891  17.558   8.429
  612POPC   C3A10469  16.841  17.341   8.047
  612POPC   C4A10470  16.641  17.145   7.687
  612POPC   C1B10471  16.524  17.654   8.839
  612POPC   C2B10472  16.452  17.854   8.435
  612POPC   C3B10473  16.448  17.660   8.032
  612POPC   C4B10474  16.164  17.562   7.671
  613POPC   NC310475  33.567   4.100   9.502
  613POPC   PO410476  33.227   4.751   9.384
  613POPC   GL110477  33.506   4.463   9.150
  613POPC   GL210478  33.573   4.704   8.956
  613POPC   C1A10479  33.803   4.242   8.863
  613POPC   D2A10480  33.782   3.999   8.479
  613POPC   C3A10481  33.802   4.139   8.047
  613POPC   C4A10482  34.087   4.240   7.708
  613POPC   C1B10483  33.581   4.557   8.527
  613POPC   C2B10484  33.749   4.631   8.099
  613POPC   C3B10485  33.691   4.594   7.636
  613POPC   C4B10486  33.568   4.664   7.181
  614POPC   NC310487  16.129   7.953   9.671
  614POPC   PO410488  15.455   7.875   9.577
  614POPC   GL110489  15.566   8.163   9.205
  614POPC   GL210490  15.946   8.183   9.233
  614POPC   C1A10491  15.714   8.133   8.764
  614POPC   D2A10492  15.912   7.918   8.431
  614POPC   C3A10493  15.799   8.037   8.026
  614POPC   C4A10494  15.790   8.394   7.795
  614POPC   C1B10495  16.201   8.275   8.847
  614POPC   C2B10496  16.118   8.375   8.416
  614POPC   C3B10497  16.254   8.349   8.020
  614POPC   C4B10498  16.262   8.529   7.640
  615POPC   NC310499  43.134   5.416   9.556
  615POPC   PO410500  43.216   4.738   9.519
  615POPC   GL110501  43.086   5.013   9.231
  615POPC   GL210502  42.777   4.881   9.203
  615POPC   C1A10503  43.302   5.066   8.845
  615POPC   D2A10504  43.473   5.297   8.497
  615POPC   C3A10505  43.227   5.166   8.196
  615POPC   C4A10506  43.185   5.125   7.793
  615POPC   C1B10507  42.788   5.182   8.856
  615POPC   C2B10508  42.837   5.327   8.472
  615POPC   C3B10509  42.759   5.299   8.059
  615POPC   C4B10510  42.700   5.174   7.675
  616POPC   NC310511  20.289   1.203   9.505
  616POPC   PO410512  20.960   1.411   9.478
  616POPC   GL110513  20.648   1.295   9.156
  616POPC   GL210514  20.681   0.945   9.256
  616POPC   C1A10515  20.607   1.439   8.708
  616POPC   D2A10516  20.830   1.531   8.283
  616POPC   C3A10517  20.561   1.574   7.901
  616POPC   C4A10518  20.392   1.513   7.477
  616POPC   C1B10519  20.721   0.923   8.794
  616POPC   C2B10520  20.695   1.036   8.353
  616POPC   C3B10521  20.661   1.036   7.896
  616POPC   C4B10522  20.402   1.006   7.513
  617POPC   NC310523  26.630  18.625   9.440
  617POPC   PO410524  26.873  19.265   9.602
  617POPC   GL110525  26.940  19.049   9.201
  617POPC   GL210526  26.607  19.038   9.083
  617POPC   C1A10527  27.004  18.906   8.765
  617POPC   D2A10528  26.970  18.750   8.335
  617POPC   C3A10529  27.023  18.961   7.927
  617POPC   C4A10530  27.007  19.100   7.480
  617POPC   C1B10531  26.648  19.273   8.682
  617POPC   C2B10532  26.699  19.261   8.234
  617POPC   C3B10533  26.612  19.284   7.806
  617POPC   C4B10534  26.537  19.269   7.351
  618POPC   NC310535  34.310  38.565   9.413
  618POPC   PO410536  34.498  37.925   9.191
  618POPC   GL110537  34.439  38.319   8.994
  618POPC   GL210538  34.687  38.609   9.081
  618POPC   C1A10539  34.284  38.525   8.635
  618POPC   D2A10540  34.150  38.493   8.197
  618POPC   C3A10541  34.488  38.322   7.917
  618POPC   C4A10542  34.498  38.283   7.438
  618POPC   C1B10543  34.804  38.487   8.672
  618POPC   C2B10544  34.747  38.611   8.263
  618POPC   C3B10545  34.833  38.675   7.824
  618POPC   C4B10546  34.944  38.548   7.410
  619POPC   NC310547  18.662   6.304   9.346
  619POPC   PO410548  18.099   6.627   9.378
  619POPC   GL110549  18.248   6.534   9.026
  619POPC   GL210550  18.525   6.723   9.042
  619POPC   C1A10551  18.230   6.786   8.641
  619POPC   D2A10552  18.099   7.030   8.263
  619POPC   C3A10553  18.253   6.812   7.899
  619POPC   C4A10554  18.141   6.369   7.846
  619POPC   C1B10555  18.638   6.444   8.698
  619POPC   C2B10556  18.854   6.415   8.315
  619POPC   C3B10557  18.644   6.465   7.963
  619POPC   C4B10558  18.569   6.240   7.600
  620POPC   NC310559   4.013  21.800   9.535
  620POPC   PO410560   4.368  22.340   9.570
  620POPC   GL110561   4.236  22.166   9.149
  620POPC   GL210562   4.099  22.452   8.904
  620POPC   C1A10563   4.383  21.933   8.783
  620POPC   D2A10564   4.450  22.136   8.426
  620POPC   C3A10565   4.595  21.960   8.062
  620POPC   C4A10566   4.699  22.127   7.671
  620POPC   C1B10567   3.906  22.105   8.723
  620POPC   C2B10568   3.959  22.036   8.331
  620POPC   C3B10569   4.112  22.168   8.054
  620POPC   C4B10570   4.087  21.983   7.731
  621POPC   NC310571  20.918   1.979   9.473
  621POPC   PO410572  20.226   1.701   9.497
  621POPC   GL110573  20.521   1.825   9.173
  621POPC   GL210574  20.876   1.731   9.046
  621POPC   C1A10575  20.446   1.938   8.769
  621POPC   D2A10576  20.340   1.760   8.379
  621POPC   C3A10577  20.345   2.080   8.074
  621POPC   C4A10578  20.331   2.025   7.653
  621POPC   C1B10579  20.941   2.094   8.805
  621POPC   C2B10580  20.822   2.033   8.396
  621POPC   C3B10581  20.856   2.001   7.968
  621POPC   C4B10582  20.741   2.311   7.697
  622POPC   NC310583  29.917  15.625   9.325
  622POPC   PO410584  30.036  16.251   9.483
  622POPC   GL110585  29.909  16.190   9.085
  622POPC   GL210586  29.545  16.141   9.048
  622POPC   C1A10587  29.926  15.939   8.709
  622POPC   D2A10588  29.950  15.605   8.382
  622POPC   C3A10589  29.972  15.820   7.960
  622POPC   C4A10590  29.854  15.839   7.514
  622POPC   C1B10591  29.424  16.092   8.603
  622POPC   C2B10592  29.706  16.127   8.263
  622POPC   C3B10593  29.748  16.251   7.837
  622POPC   C4B10594  29.806  16.360   7.383
  623POPC   NC310595  20.565  24.732   9.574
  623POPC   PO410596  20.599  24.160   9.753
  623POPC   GL110597  20.557  24.319   9.270
  623POPC   GL210598  20.349  24.613   9.132
  623POPC   C1A10599  20.716  24.416   8.828
  623POPC   D2A10600  20.499  24.339   8.436
  623POPC   C3A10601  20.681  24.339   8.026
  623POPC   C4A10602  20.753  24.044   7.670
  623POPC   C1B10603  20.431  24.841   8.715
  623POPC   C2B10604  20.531  24.804   8.272
  623POPC   C3B10605  20.386  24.812   7.848
  623POPC   C4B10606  20.216  24.942   7.434
  624POPC   NC310607  26.624   2.977   9.496
  624POPC   PO410608  27.134   2.534   9.404
  624POPC   GL110609  26.983   2.822   9.108
  624POPC   GL210610  26.632   2.740   9.051
  624POPC   C1A10611  26.937   2.809   8.652
  624POPC   D2A10612  27.071   2.532   8.354
  624POPC   C3A10613  26.965   2.593   7.943
  624POPC   C4A10614  26.929   2.906   7.673
  624POPC   C1B10615  26.429   2.776   8.648
  624POPC   C2B10616  26.617   2.849   8.257
  624POPC   C3B10617  26.435   2.842   7.889
  624POPC   C4B10618  26.508   3.174   7.663
  625POPC   NC310619   7.901  44.882   9.334
  625POPC   PO410620   8.338  44.381   9.573
  625POPC   GL110621   8.079  44.398   9.237
  625POPC   GL210622   8.323  44.670   9.150
  625POPC   C1A10623   8.036  44.492   8.786
  625POPC   D2A10624   8.331  44.528   8.443
  625POPC   C3A10625   8.267  44.347   8.014
  625POPC   C4A10626   8.599  44.301   7.728
  625POPC   C1B10627   8.308  44.938   8.826
  625POPC   C2B10628   8.309   0.045   8.415
  625POPC   C3B10629   8.148  44.850   8.070
  625POPC   C4B10630   8.233   0.041   7.713
  626POPC   NC310631  22.649  21.850   9.446
  626POPC   PO410632  22.800  21.144   9.494
  626POPC   GL110633  23.045  21.179   9.100
  626POPC   GL210634  23.410  21.088   9.050
  626POPC   C1A10635  22.898  21.404   8.745
  626POPC   D2A10636  22.612  21.407   8.364
  626POPC   C3A10637  22.870  21.373   8.009
  626POPC   C4A10638  22.995  21.485   7.588
  626POPC   C1B10639  23.336  21.147   8.629
  626POPC   C2B10640  22.968  21.029   8.398
  626POPC   C3B10641  22.887  20.876   8.002
  626POPC   C4B10642  23.151  20.985   7.687
  627POPC   NC310643  43.651   9.332   9.415
  627POPC   PO410644  44.118   8.746   9.473
  627POPC   GL110645  43.956   8.988   9.148
  627POPC   GL210646  44.234   9.227   9.176
  627POPC   C1A10647  43.981   9.079   8.711
  627POPC   D2A10648  43.835   9.081   8.281
  627POPC   C3A10649  43.913   8.856   7.905
  627POPC   C4A10650  43.524   8.776   7.682
  627POPC   C1B10651  44.413   9.333   8.779
  627POPC   C2B10652  44.244   9.373   8.346
  627POPC   C3B10653  44.237   9.296   7.883
  627POPC   C4B10654  44.170   9.279   7.417
  628POPC   NC310655  39.677  23.255   9.375
  628POPC   PO410656  40.273  23.451   9.658
  628POPC   GL110657  40.058  23.601   9.293
  628POPC   GL210658  39.772  23.789   9.233
  628POPC   C1A10659  40.111  23.611   8.859
  628POPC   D2A10660  40.328  23.502   8.485
  628POPC   C3A10661  40.069  23.569   8.139
  628POPC   C4A10662  40.198  23.626   7.752
  628POPC   C1B10663  39.771  23.988   8.812
  628POPC   C2B10664  40.019  23.958   8.453
  628POPC   C3B10665  40.006  24.074   7.997
  628POPC   C4B10666  39.838  23.963   7.588
  629POPC   NC310667  13.594  34.130   9.491
  629POPC   PO410668  13.448  33.472   9.381
  629POPC   GL110669  13.630  33.774   9.096
  629POPC   GL210670  13.522  34.148   9.008
  629POPC   C1A10671  13.421  33.791   8.688
  629POPC   D2A10672  13.310  34.055   8.342
  629POPC   C3A10673  13.456  33.910   7.968
  629POPC   C4A10674  13.700  33.701   7.694
  629POPC   C1B10675  13.869  34.040   8.722
  629POPC   C2B10676  13.853  33.891   8.303
  629POPC   C3B10677  13.924  34.132   7.913
  629POPC   C4B10678  14.273  34.371   7.737
  630POPC   NC310679   8.487  16.529   9.643
  630POPC   PO410680   9.010  16.843   9.447
  630POPC   GL110681   9.125  16.742   9.063
  630POPC   GL210682   9.240  17.090   8.941
  630POPC   C1A10683   8.854  16.514   8.781
  630POPC   D2A10684   8.585  16.678   8.423
  630POPC   C3A10685   8.749  16.891   8.036
  630POPC   C4A10686   8.612  16.753   7.609
  630POPC   C1B10687   9.108  16.889   8.542
  630POPC   C2B10688   9.083  16.466   8.328
  630POPC   C3B10689   9.061  16.503   7.919
  630POPC   C4B10690   9.352  16.876   7.850
  631POPC   NC310691  26.234   1.106   9.747
  631POPC   PO410692  25.770   1.526   9.794
  631POPC   GL110693  25.904   1.516   9.335
  631POPC   GL210694  26.267   1.362   9.249
  631POPC   C1A10695  25.922   1.405   8.881
  631POPC   D2A10696  25.959   1.169   8.508
  631POPC   C3A10697  26.098   1.358   8.142
  631POPC   C4A10698  26.168   1.064   7.783
  631POPC   C1B10699  26.349   1.062   8.844
  631POPC   C2B10700  26.477   1.085   8.362
  631POPC   C3B10701  26.572   1.321   7.952
  631POPC   C4B10702  26.264   1.547   7.692
  632POPC   NC310703  14.066  25.682   9.352
  632POPC   PO410704  14.128  26.262   9.336
  632POPC   GL110705  14.228  26.063   8.996
  632POPC   GL210706  14.474  25.816   9.078
  632POPC   C1A10707  14.103  26.201   8.598
  632POPC   D2A10708  14.239  26.062   8.216
  632POPC   C3A10709  14.069  26.150   7.811
  632POPC   C4A10710  14.247  26.030   7.422
  632POPC   C1B10711  14.598  25.960   8.661
  632POPC   C2B10712  14.695  25.823   8.249
  632POPC   C3B10713  14.564  25.949   7.839
  632POPC   C4B10714  14.714  25.810   7.444
  633POPC   NC310715  33.626   1.862   9.651
  633POPC   PO410716  34.243   1.995   9.399
  633POPC   GL110717  33.870   2.050   9.142
  633POPC   GL210718  33.572   1.867   9.149
  633POPC   C1A10719  33.754   2.119   8.702
  633POPC   D2A10720  33.725   2.309   8.295
  633POPC   C3A10721  34.034   2.258   7.994
  633POPC   C4A10722  34.048   2.143   7.576
  633POPC   C1B10723  33.671   1.621   8.817
  633POPC   C2B10724  33.698   1.687   8.402
  633POPC   C3B10725  33.646   1.893   8.031
  633POPC   C4B10726  33.482   1.751   7.665
  634POPC   NC310727   1.401  10.184   9.385
  634POPC   PO410728   1.339   9.507   9.249
  634POPC   GL110729   1.081   9.860   9.133
  634POPC   GL210730   1.302  10.021   8.906
  634POPC   C1A10731   0.818  10.013   8.802
  634POPC   D2A10732   0.856   9.794   8.430
  634POPC   C3A10733   1.138   9.883   8.104
  634POPC   C4A10734   1.112  10.053   7.715
  634POPC   C1B10735   1.369   9.678   8.581
  634POPC   C2B10736   1.545   9.577   8.147
  634POPC   C3B10737   1.515   9.526   7.679
  634POPC   C4B10738   1.658   9.536   7.200
  635POPC   NC310739  44.270  24.254   9.643
  635POPC   PO410740  43.938  24.933   9.610
  635POPC   GL110741  43.938  24.545   9.346
  635POPC   GL210742  44.211  24.524   9.163
  635POPC   C1A10743  43.772  24.269   8.981
  635POPC   D2A10744  43.882  24.071   8.583
  635POPC   C3A10745  43.800  24.160   8.151
  635POPC   C4A10746  43.865  24.360   7.768
  635POPC   C1B10747  43.948  24.724   8.859
  635POPC   C2B10748  43.915  24.577   8.490
  635POPC   C3B10749  44.013  24.694   8.118
  635POPC   C4B10750  44.108  24.815   7.740
  636POPC   NC310751  36.048  38.547   9.137
  636POPC   PO410752  36.357  38.115   9.498
  636POPC   GL110753  36.461  38.261   9.102
  636POPC   GL210754  36.575  38.579   9.074
  636POPC   C1A10755  36.460  38.243   8.672
  636POPC   D2A10756  36.273  38.483   8.382
  636POPC   C3A10757  36.175  38.255   8.046
  636POPC   C4A10758  36.162  38.543   7.710
  636POPC   C1B10759  36.586  38.792   8.697
  636POPC   C2B10760  36.593  38.945   8.290
  636POPC   C3B10761  36.556  38.844   7.865
  636POPC   C4B10762  36.422  38.888   7.434
  637POPC   NC310763   7.219  25.445   9.505
  637POPC   PO410764   7.526  24.787   9.364
  637POPC   GL110765   7.383  25.107   9.088
  637POPC   GL210766   7.558  25.392   9.137
  637POPC   C1A10767   7.532  25.180   8.669
  637POPC   D2A10768   7.631  25.039   8.264
  637POPC   C3A10769   7.569  25.190   7.904
  637POPC   C4A10770   7.263  25.071   7.637
  637POPC   C1B10771   7.205  25.526   8.831
  637POPC   C2B10772   7.314  25.522   8.356
  637POPC   C3B10773   7.185  25.498   7.918
  637POPC   C4B10774   7.149  25.524   7.438
  638POPC   NC310775  37.122  13.024   9.492
  638POPC   PO410776  36.569  12.543   9.395
  638POPC   GL110777  36.949  12.661   9.068
  638POPC   GL210778  36.995  13.043   8.997
  638POPC   C1A10779  37.145  12.748   8.616
  638POPC   D2A10780  37.026  13.138   8.360
  638POPC   C3A10781  36.991  13.065   7.921
  638POPC   C4A10782  37.070  12.648   7.743
  638POPC   C1B10783  36.669  12.932   8.667
  638POPC   C2B10784  36.574  12.896   8.206
  638POPC   C3B10785  36.557  12.821   7.767
  638POPC   C4B10786  36.467  13.063   7.405
  639POPC   NC310787  28.615  24.236   9.626
  639POPC   PO410788  28.117  24.628   9.821
  639POPC   GL110789  28.372  24.561   9.327
  639POPC   GL210790  28.532  24.210   9.134
  639POPC   C1A10791  28.276  24.541   8.870
  639POPC   D2A10792  28.302  24.718   8.474
  639POPC   C3A10793  28.107  24.557   8.143
  639POPC   C4A10794  28.415  24.543   7.811
  639POPC   C1B10795  28.663  24.265   8.688
  639POPC   C2B10796  28.538  24.277   8.271
  639POPC   C3B10797  28.564  24.042   7.896
  639POPC   C4B10798  28.505  24.174   7.465
  640POPC   NC310799   2.885  26.791   9.683
  640POPC   PO410800   2.288  26.578   9.541
  640POPC   GL110801   2.657  26.689   9.228
  640POPC   GL210802   2.872  27.000   9.209
  640POPC   C1A10803   2.730  26.772   8.784
  640POPC   D2A10804   2.605  26.648   8.371
  640POPC   C3A10805   2.871  26.509   8.028
  640POPC   C4A10806   2.815  26.775   7.722
  640POPC   C1B10807   2.645  27.268   8.896
  640POPC   C2B10808   2.596  27.168   8.469
  640POPC   C3B10809   2.499  27.065   8.072
  640POPC   C4B10810   2.462  27.207   7.674
  641POPC   NC310811   2.184  11.854   9.399
  641POPC   PO410812   1.559  11.729   9.397
  641POPC   GL110813   1.838  12.027   9.112
  641POPC   GL210814   2.110  12.248   9.022
  641POPC   C1A10815   2.099  11.841   8.751
  641POPC   D2A10816   2.206  12.069   8.417
  641POPC   C3A10817   1.882  12.071   8.158
  641POPC   C4A10818   1.910  12.123   7.766
  641POPC   C1B10819   2.414  12.419   8.734
  641POPC   C2B10820   2.568  12.511   8.329
  641POPC   C3B10821   2.366  12.296   7.967
  641POPC   C4B10822   2.419  11.881   7.818
  642POPC   NC310823   0.764   2.328   9.377
  642POPC   PO410824   1.282   2.753   9.445
  642POPC   GL110825   1.423   2.846   9.089
  642POPC   GL210826   1.642   2.610   9.016
  642POPC   C1A10827   1.179   2.982   8.771
  642POPC   D2A10828   0.884   2.992   8.469
  642POPC   C3A10829   1.026   2.894   8.054
  642POPC   C4A10830   1.067   2.882   7.612
  642POPC   C1B10831   1.642   2.735   8.619
  642POPC   C2B10832   1.458   2.651   8.248
  642POPC   C3B10833   1.482   2.660   7.813
  642POPC   C4B10834   1.510   2.736   7.384
  643POPC   NC310835  13.525  17.226   9.523
  643POPC   PO410836  14.011  17.730   9.437
  643POPC   GL110837  13.755  17.517   9.138
  643POPC   GL210838  13.808  17.160   9.127
  643POPC   C1A10839  13.718  17.689   8.725
  643POPC   D2A10840  13.651  17.817   8.307
  643POPC   C3A10841  13.663  17.524   7.965
  643POPC   C4A10842  13.867  17.644   7.613
  643POPC   C1B10843  13.511  17.227   8.787
  643POPC   C2B10844  13.366  17.379   8.392
  643POPC   C3B10845  13.234  17.259   7.985
  643POPC   C4B10846  13.400  17.356   7.567
  644POPC   NC310847  39.855  42.008   9.279
  644POPC   PO410848  40.441  42.387   9.486
  644POPC   GL110849  40.271  42.246   9.090
  644POPC   GL210850  39.963  42.458   9.026
  644POPC   C1A10851  40.148  42.127   8.648
  644POPC   D2A10852  40.182  42.483   8.374
  644POPC   C3A10853  39.977  42.520   7.980
  644POPC   C4A10854  39.827  42.572   7.535
  644POPC   C1B10855  39.683  42.327   8.697
  644POPC   C2B10856  39.647  42.192   8.292
  644POPC   C3B10857  39.531  42.308   7.898
  644POPC   C4B10858  39.527  42.164   7.473
  645POPC   NC310859   7.220  29.647   9.140
  645POPC   PO410860   7.405  30.145   9.527
  645POPC   GL110861   7.523  30.069   9.137
  645POPC   GL210862   7.759  29.789   9.201
  645POPC   C1A10863   7.410  30.054   8.677
  645POPC   D2A10864   7.460  29.729   8.353
  645POPC   C3A10865   7.397  29.847   7.916
  645POPC   C4A10866   7.489  30.160   7.625
  645POPC   C1B10867   7.827  29.656   8.786
  645POPC   C2B10868   7.904  29.487   8.387
  645POPC   C3B10869   7.829  29.524   7.972
  645POPC   C4B10870   7.821  29.739   7.599
  646POPC   NC310871   9.500   0.050   9.455
  646POPC   PO410872   9.925   0.600   9.426
  646POPC   GL110873   9.694   0.454   9.129
  646POPC   GL210874   9.413   0.634   9.201
  646POPC   C1A10875   9.784   0.411   8.709
  646POPC   D2A10876   9.608   0.523   8.344
  646POPC   C3A10877   9.795   0.471   7.944
  646POPC   C4A10878   9.844   0.074   7.805
  646POPC   C1B10879   9.348   0.763   8.778
  646POPC   C2B10880   9.149   0.718   8.377
  646POPC   C3B10881   9.339   0.738   7.956
  646POPC   C4B10882   9.450   0.625   7.508
  647POPC   NC310883   2.998   1.200   9.512
  647POPC   PO410884   3.502   0.883   9.410
  647POPC   GL110885   3.568   1.031   9.032
  647POPC   GL210886   3.326   1.302   9.102
  647POPC   C1A10887   3.655   0.833   8.628
  647POPC   D2A10888   3.695   0.806   8.194
  647POPC   C3A10889   3.936   1.179   8.082
  647POPC   C4A10890   3.753   1.600   7.936
  647POPC   C1B10891   3.414   1.466   8.710
  647POPC   C2B10892   3.473   1.322   8.279
  647POPC   C3B10893   3.193   1.453   7.942
  647POPC   C4B10894   2.985   1.641   7.615
  648POPC   NC310895  41.325  13.335   9.475
  648POPC   PO410896  40.741  13.682   9.599
  648POPC   GL110897  40.732  13.628   9.191
  648POPC   GL210898  40.968  13.871   9.104
  648POPC   C1A10899  40.471  13.817   8.888
  648POPC   D2A10900  40.402  13.677   8.459
  648POPC   C3A10901  40.606  13.659   8.052
  648POPC   C4A10902  40.419  13.838   7.666
  648POPC   C1B10903  40.924  13.749   8.668
  648POPC   C2B10904  40.851  14.023   8.322
  648POPC   C3B10905  40.874  14.048   7.889
  648POPC   C4B10906  41.097  13.715   7.720
  649POPC   NC310907  32.460  39.297   9.602
  649POPC   PO410908  31.866  39.481   9.397
  649POPC   GL110909  32.215  39.311   9.129
  649POPC   GL210910  32.437  39.032   9.138
  649POPC   C1A10911  32.408  39.411   8.724
  649POPC   D2A10912  32.488  39.661   8.331
  649POPC   C3A10913  32.244  39.581   7.957
  649POPC   C4A10914  32.272  39.272   7.608
  649POPC   C1B10915  32.438  38.872   8.706
  649POPC   C2B10916  32.433  39.008   8.263
  649POPC   C3B10917  32.570  38.879   7.832
  649POPC   C4B10918  32.857  38.915   7.454
  650POPC   NC310919  42.860   3.487   9.389
  650POPC   PO410920  43.539   3.414   9.443
  650POPC   GL110921  43.268   3.679   9.152
  650POPC   GL210922  43.169   3.362   8.990
  650POPC   C1A10923  42.984   3.802   8.765
  650POPC   D2A10924  42.805   3.960   8.363
  650POPC   C3A10925  42.884   3.764   7.961
  650POPC   C4A10926  43.027   3.523   7.610
  650POPC   C1B10927  42.752   3.357   8.761
  650POPC   C2B10928  42.731   3.460   8.348
  650POPC   C3B10929  42.681   3.298   7.944
  650POPC   C4B10930  42.812   3.037   7.620
  651POPC   NC310931  10.734  29.483   9.574
  651POPC   PO410932  10.640  28.872   9.417
  651POPC   GL110933  10.604  29.157   9.078
  651POPC   GL210934  10.696  29.498   9.075
  651POPC   C1A10935  10.411  29.305   8.698
  651POPC   D2A10936  10.544  29.328   8.273
  651POPC   C3A10937  10.197  29.399   7.992
  651POPC   C4A10938  10.285  29.095   7.735
  651POPC   C1B10939  10.936  29.337   8.724
  651POPC   C2B10940  11.138  29.544   8.407
  651POPC   C3B10941  11.015  29.416   8.042
  651POPC   C4B10942  10.710  29.356   7.741
  652POPC   NC310943  31.356  41.662   9.664
  652POPC   PO410944  31.608  41.079   9.490
  652POPC   GL110945  31.572  41.353   9.118
  652POPC   GL210946  31.415  41.678   9.146
  652POPC   C1A10947  31.566  41.503   8.674
  652POPC   D2A10948  31.347  41.321   8.342
  652POPC   C3A10949  31.363  41.544   8.009
  652POPC   C4A10950  31.569  41.566   7.677
  652POPC   C1B10951  31.151  41.754   8.764
  652POPC   C2B10952  31.121  41.885   8.331
  652POPC   C3B10953  30.957  41.827   7.930
  652POPC   C4B10954  31.260  41.975   7.666
  653POPC   NC310955   0.274  14.933   9.497
  653POPC   PO410956   0.749  15.404   9.536
  653POPC   GL110957   0.426  15.340   9.242
  653POPC   GL210958   0.648  15.060   9.139
  653POPC   C1A10959   0.234  15.149   8.843
  653POPC   D2A10960   0.441  15.190   8.437
  653POPC   C3A10961   0.297  15.071   8.049
  653POPC   C4A10962   0.194  15.399   7.798
  653POPC   C1B10963   0.685  15.425   8.826
  653POPC   C2B10964   0.796  15.582   8.410
  653POPC   C3B10965   0.681  15.521   8.005
  653POPC   C4B10966   0.667  15.294   7.642
  654POPC   NC310967  10.367   3.516   9.928
  654POPC   PO410968  10.828   3.737   9.468
  654POPC   GL110969  10.773   3.584   9.075
  654POPC   GL210970  10.481   3.480   9.084
  654POPC   C1A10971  10.809   3.518   8.655
  654POPC   D2A10972  10.591   3.312   8.332
  654POPC   C3A10973  10.657   3.514   7.952
  654POPC   C4A10974  10.452   3.509   7.574
  654POPC   C1B10975  10.243   3.358   8.745
  654POPC   C2B10976  10.081   3.196   8.385
  654POPC   C3B10977  10.163   3.396   7.993
  654POPC   C4B10978  10.061   3.170   7.637
  655POPC   NC310979  44.521  14.759   9.340
  655POPC   PO410980  44.557  14.136   9.524
  655POPC   GL110981  44.742  14.286   9.131
  655POPC   GL210982  44.974  14.543   9.281
  655POPC   C1A10983  44.744  14.291   8.648
  655POPC   D2A10984  44.499  14.431   8.268
  655POPC   C3A10985  44.566  14.277   7.850
  655POPC   C4A10986  44.637  14.225   7.377
  655POPC   C1B10987   0.096  14.571   8.864
  655POPC   C2B10988   0.016  14.775   8.455
  655POPC   C3B10989  44.852  14.744   8.034
  655POPC   C4B10990   0.039  14.825   7.654
  656POPC   NC310991  26.169  13.154   9.568
  656POPC   PO410992  26.064  12.531   9.549
  656POPC   GL110993  26.100  12.849   9.154
  656POPC   GL210994  25.845  13.131   9.139
  656POPC   C1A10995  26.206  12.811   8.680
  656POPC   D2A10996  26.237  12.429   8.380
  656POPC   C3A10997  26.133  12.551   7.985
  656POPC   C4A10998  26.204  12.944   7.755
  656POPC   C1B10999  25.974  13.299   8.697
  656POPC   C2B11000  25.995  13.171   8.230
  656POPC   C3B11001  25.720  12.940   7.915
  656POPC   C4B11002  25.685  13.030   7.456
  657POPC   NC311003  19.095  35.906   9.519
  657POPC   PO411004  19.394  36.364   9.156
  657POPC   GL111005  19.048  36.385   8.925
  657POPC   GL211006  18.942  36.076   9.050
  657POPC   C1A11007  19.047  36.422   8.526
  657POPC   D2A11008  18.949  36.222   8.212
  657POPC   C3A11009  19.273  36.192   7.924
  657POPC   C4A11010  18.938  36.348   7.708
  657POPC   C1B11011  19.101  35.929   8.650
  657POPC   C2B11012  18.936  35.736   8.275
  657POPC   C3B11013  18.994  35.766   7.834
  657POPC   C4B11014  19.324  35.875   7.498
  658POPC   NC311015  36.548   3.142   9.635
  658POPC   PO411016  36.799   2.502   9.473
  658POPC   GL111017  37.011   2.465   9.089
  658POPC   GL211018  36.702   2.366   8.963
  658POPC   C1A11019  37.075   2.795   8.778
  658POPC   D2A11020  36.812   3.095   8.549
  658POPC   C3A11021  36.841   2.997   8.120
  658POPC   C4A11022  36.544   3.190   7.860
  658POPC   C1B11023  36.979   2.316   8.598
  658POPC   C2B11024  36.987   2.455   8.184
  658POPC   C3B11025  36.842   2.437   7.780
  658POPC   C4B11026  36.922   2.659   7.398
  659POPC   NC311027  42.788   8.669   9.326
  659POPC   PO411028  43.226   9.132   9.463
  659POPC   GL111029  43.380   9.072   9.065
  659POPC   GL211030  43.446   8.745   9.076
  659POPC   C1A11031  43.475   9.075   8.642
  659POPC   D2A11032  43.326   9.252   8.269
  659POPC   C3A11033  43.113   9.054   7.916
  659POPC   C4A11034  43.167   9.230   7.517
  659POPC   C1B11035  43.085   8.776   8.752
  659POPC   C2B11036  43.173   8.724   8.303
  659POPC   C3B11037  43.128   8.515   7.882
  659POPC   C4B11038  43.059   8.723   7.454
  660POPC   NC311039  24.461  14.958   9.568
  660POPC   PO411040  24.586  15.589   9.635
  660POPC   GL111041  24.486  15.322   9.212
  660POPC   GL211042  24.389  14.946   9.092
  660POPC   C1A11043  24.395  15.394   8.786
  660POPC   D2A11044  24.098  15.588   8.523
  660POPC   C3A11045  24.156  15.391   8.112
  660POPC   C4A11046  24.358  15.477   7.700
  660POPC   C1B11047  24.610  14.926   8.725
  660POPC   C2B11048  24.547  15.087   8.312
  660POPC   C3B11049  24.583  14.974   7.857
  660POPC   C4B11050  24.339  15.015   7.468
  661POPC   NC311051   2.570   6.331   9.539
  661POPC   PO411052   1.992   6.553   9.697
  661POPC   GL111053   1.912   6.647   9.246
  661POPC   GL211054   1.854   6.983   9.273
  661POPC   C1A11055   1.703   6.542   8.852
  661POPC   D2A11056   1.647   6.625   8.405
  661POPC   C3A11057   1.891   6.407   8.088
  661POPC   C4A11058   1.738   6.423   7.646
  661POPC   C1B11059   1.964   6.980   8.851
  661POPC   C2B11060   1.922   7.115   8.459
  661POPC   C3B11061   1.937   6.942   8.069
  661POPC   C4B11062   2.012   7.094   7.659
  662POPC   NC311063  38.253  34.826   9.468
  662POPC   PO411064  38.633  34.367   9.728
  662POPC   GL111065  38.535  34.423   9.289
  662POPC   GL211066  38.834  34.627   9.247
  662POPC   C1A11067  38.279  34.519   8.887
  662POPC   D2A11068  38.363  34.496   8.451
  662POPC   C3A11069  38.238  34.731   8.093
  662POPC   C4A11070  38.008  34.465   7.795
  662POPC   C1B11071  38.775  34.563   8.809
  662POPC   C2B11072  38.847  34.320   8.434
  662POPC   C3B11073  38.626  34.301   8.035
  662POPC   C4B11074  38.493  34.540   7.695
  663POPC   NC311075  43.587  33.795   9.573
  663POPC   PO411076  44.130  34.089   9.327
  663POPC   GL111077  43.893  33.783   9.144
  663POPC   GL211078  43.622  33.553   9.146
  663POPC   C1A11079  43.812  33.937   8.765
  663POPC   D2A11080  44.144  34.007   8.486
  663POPC   C3A11081  43.979  33.934   8.112
  663POPC   C4A11082  44.022  33.910   7.698
  663POPC   C1B11083  43.736  33.436   8.778
  663POPC   C2B11084  43.695  33.596   8.404
  663POPC   C3B11085  43.620  33.403   8.063
  663POPC   C4B11086  43.772  33.473   7.703
  664POPC   NC311087   1.169  25.905   9.468
  664POPC   PO411088   1.523  26.544   9.684
  664POPC   GL111089   1.392  26.361   9.253
  664POPC   GL211090   1.040  26.309   9.158
  664POPC   C1A11091   1.373  26.394   8.799
  664POPC   D2A11092   1.329  26.089   8.476
  664POPC   C3A11093   1.293  26.254   8.085
  664POPC   C4A11094   1.368  26.278   7.663
  664POPC   C1B11095   0.903  26.118   8.800
  664POPC   C2B11096   0.887  25.845   8.459
  664POPC   C3B11097   1.160  25.748   8.128
  664POPC   C4B11098   1.030  25.914   7.784
  665POPC   NC311099  42.458  28.337   9.643
  665POPC   PO411100  42.018  28.774   9.460
  665POPC   GL111101  42.202  28.413   9.223
  665POPC   GL211102  42.561  28.373   9.131
  665POPC   C1A11103  42.161  28.197   8.836
  665POPC   D2A11104  42.160  28.243   8.393
  665POPC   C3A11105  42.346  28.135   7.977
  665POPC   C4A11106  42.165  28.279   7.575
  665POPC   C1B11107  42.616  28.445   8.668
  665POPC   C2B11108  42.617  28.564   8.221
  665POPC   C3B11109  42.600  28.567   7.753
  665POPC   C4B11110  42.668  28.274   7.400
  666POPC   NC311111  20.561  42.976   9.475
  666POPC   PO411112  20.972  43.420   9.515
  666POPC   GL111113  20.848  43.216   9.109
  666POPC   GL211114  20.860  42.865   9.052
  666POPC   C1A11115  20.550  43.234   8.750
  666POPC   D2A11116  20.530  43.310   8.289
  666POPC   C3A11117  20.290  43.083   7.932
  666POPC   C4A11118  20.391  42.768   7.569
  666POPC   C1B11119  20.938  42.939   8.621
  666POPC   C2B11120  20.733  42.784   8.253
  666POPC   C3B11121  20.775  42.927   7.850
  666POPC   C4B11122  20.734  43.398   7.834
  667POPC   NC311123  23.123  32.100   9.614
  667POPC   PO411124  22.637  32.555   9.504
  667POPC   GL111125  22.665  32.277   9.122
  667POPC   GL211126  23.013  32.164   9.112
  667POPC   C1A11127  22.770  32.332   8.657
  667POPC   D2A11128  23.157  32.250   8.387
  667POPC   C3A11129  23.153  32.388   7.943
  667POPC   C4A11130  22.884  32.192   7.634
  667POPC   C1B11131  22.929  31.866   8.786
  667POPC   C2B11132  22.799  31.892   8.379
  667POPC   C3B11133  22.941  31.836   7.982
  667POPC   C4B11134  22.841  31.663   7.601
  668POPC   NC311135  23.794  35.498   9.465
  668POPC   PO411136  23.413  34.965   9.285
  668POPC   GL111137  23.630  35.240   9.054
  668POPC   GL211138  23.975  35.405   9.010
  668POPC   C1A11139  23.535  35.322   8.675
  668POPC   D2A11140  23.578  35.304   8.283
  668POPC   C3A11141  23.467  35.644   8.062
  668POPC   C4A11142  23.623  35.354   7.752
  668POPC   C1B11143  24.035  35.335   8.582
  668POPC   C2B11144  24.016  35.597   8.235
  668POPC   C3B11145  24.114  35.393   7.870
  668POPC   C4B11146  24.036  35.281   7.436
  669POPC   NC311147   5.978  27.560   9.622
  669POPC   PO411148   5.444  27.893   9.264
  669POPC   GL111149   5.807  27.712   9.133
  669POPC   GL211150   6.114  27.861   9.242
  669POPC   C1A11151   5.916  27.461   8.800
  669POPC   D2A11152   5.753  27.243   8.439
  669POPC   C3A11153   6.065  27.307   8.126
  669POPC   C4A11154   6.069  27.623   7.804
  669POPC   C1B11155   6.171  27.970   8.798
  669POPC   C2B11156   6.113  27.742   8.409
  669POPC   C3B11157   5.722  27.717   8.190
  669POPC   C4B11158   5.548  27.663   7.780
  670POPC   NC311159  34.671  22.046   9.567
  670POPC   PO411160  34.770  22.662   9.565
  670POPC   GL111161  34.778  22.387   9.188
  670POPC   GL211162  34.479  22.274   9.160
  670POPC   C1A11163  34.805  22.195   8.747
  670POPC   D2A11164  34.608  21.915   8.417
  670POPC   C3A11165  34.785  22.016   8.025
  670POPC   C4A11166  34.980  22.355   7.865
  670POPC   C1B11167  34.304  22.138   8.771
  670POPC   C2B11168  34.242  22.264   8.331
  670POPC   C3B11169  34.288  22.067   7.934
  670POPC   C4B11170  34.246  22.279   7.530
  671POPC   NC311171  34.131  40.250   9.499
  671POPC   PO411172  33.628  39.758   9.749
  671POPC   GL111173  33.914  39.848   9.339
  671POPC   GL211174  33.699  40.137   9.175
  671POPC   C1A11175  34.082  39.978   8.900
  671POPC   D2A11176  34.077  40.341   8.574
  671POPC   C3A11177  34.003  40.317   8.101
  671POPC   C4A11178  33.917  39.978   7.776
  671POPC   C1B11179  33.602  40.068   8.687
  671POPC   C2B11180  33.416  40.120   8.233
  671POPC   C3B11181  33.406  40.125   7.753
  671POPC   C4B11182  33.680  40.160   7.343
  672POPC   NC311183   3.694  41.025   9.548
  672POPC   PO411184   3.129  40.812   9.303
  672POPC   GL111185   3.542  40.698   9.176
  672POPC   GL211186   3.659  41.000   9.046
  672POPC   C1A11187   3.692  40.577   8.773
  672POPC   D2A11188   3.575  40.808   8.440
  672POPC   C3A11189   3.630  40.586   8.057
  672POPC   C4A11190   3.459  40.605   7.691
  672POPC   C1B11191   3.650  41.241   8.717
  672POPC   C2B11192   3.503  41.292   8.336
  672POPC   C3B11193   3.569  41.088   7.966
  672POPC   C4B11194   3.974  41.136   7.833
  673POPC   NC311195  34.354  17.533   9.522
  673POPC   PO411196  34.880  17.926   9.377
  673POPC   GL111197  34.670  17.554   9.120
  673POPC   GL211198  34.308  17.651   9.036
  673POPC   C1A11199  34.534  17.374   8.703
  673POPC   D2A11200  34.460  17.599   8.364
  673POPC   C3A11201  34.488  17.333   8.021
  673POPC   C4A11202  34.543  17.278   7.588
  673POPC   C1B11203  34.267  17.958   8.691
  673POPC   C2B11204  34.271  18.091   8.259
  673POPC   C3B11205  34.446  17.841   7.923
  673POPC   C4B11206  34.256  17.726   7.552
  674POPC   NC311207  43.438  13.628   9.722
  674POPC   PO411208  42.882  13.840   9.403
  674POPC   GL111209  43.176  13.651   9.131
  674POPC   GL211210  43.529  13.614   9.166
  674POPC   C1A11211  43.080  13.655   8.695
  674POPC   D2A11212  42.805  13.907   8.427
  674POPC   C3A11213  42.913  13.781   8.013
  674POPC   C4A11214  43.071  13.410   7.796
  674POPC   C1B11215  43.551  13.440   8.727
  674POPC   C2B11216  43.476  13.638   8.293
  674POPC   C3B11217  43.577  13.519   7.849
  674POPC   C4B11218  43.527  13.392   7.359
  675POPC   NC311219  32.263  34.666   9.314
  675POPC   PO411220  31.771  34.232   9.480
  675POPC   GL111221  32.027  34.290   9.087
  675POPC   GL211222  32.463  34.326   8.997
  675POPC   C1A11223  32.101  34.441   8.673
  675POPC   D2A11224  32.318  34.370   8.307
  675POPC   C3A11225  32.027  34.476   7.999
  675POPC   C4A11226  32.069  34.477   7.580
  675POPC   C1B11227  32.557  34.719   8.721
  675POPC   C2B11228  32.578  34.858   8.283
  675POPC   C3B11229  32.531  34.631   7.884
  675POPC   C4B11230  32.579  34.776   7.471
  676POPC   NC311231  32.797   1.592   9.491
  676POPC   PO411232  33.253   2.103   9.491
  676POPC   GL111233  33.075   2.020   9.136
  676POPC   GL211234  32.742   2.028   9.252
  676POPC   C1A11235  33.187   1.824   8.750
  676POPC   D2A11236  32.928   1.763   8.383
  676POPC   C3A11237  33.139   1.811   8.018
  676POPC   C4A11238  33.033   2.049   7.633
  676POPC   C1B11239  32.678   1.914   8.819
  676POPC   C2B11240  32.675   2.221   8.493
  676POPC   C3B11241  32.736   2.177   8.057
  676POPC   C4B11242  32.668   1.760   7.884
  677POPC   NC311243  15.634  13.516   9.452
  677POPC   PO411244  16.237  13.821   9.519
  677POPC   GL111245  15.969  13.861   9.148
  677POPC   GL211246  15.602  13.952   9.192
  677POPC   C1A11247  16.118  13.616   8.779
  677POPC   D2A11248  16.351  13.587   8.395
  677POPC   C3A11249  16.213  13.338   8.071
  677POPC   C4A11250  16.122  13.550   7.687
  677POPC   C1B11251  15.608  13.678   8.804
  677POPC   C2B11252  15.761  13.458   8.423
  677POPC   C3B11253  15.834  13.710   8.073
  677POPC   C4B11254  15.657  13.734   7.663
  678POPC   NC311255   1.147  11.884   9.255
  678POPC   PO411256   1.369  11.328   9.687
  678POPC   GL111257   1.132  11.319   9.255
  678POPC   GL211258   1.352  11.441   9.036
  678POPC   C1A11259   1.150  11.050   8.828
  678POPC   D2A11260   1.268  11.166   8.406
  678POPC   C3A11261   1.044  11.435   8.115
  678POPC   C4A11262   0.840  11.267   7.756
  678POPC   C1B11263   1.121  11.591   8.652
  678POPC   C2B11264   1.386  11.786   8.328
  678POPC   C3B11265   1.556  11.436   8.080
  678POPC   C4B11266   1.377  11.351   7.672
  679POPC   NC311267  44.936  24.085   9.420
  679POPC   PO411268  44.546  24.638   9.539
  679POPC   GL111269  44.708  24.658   9.118
  679POPC   GL211270  44.673  24.330   9.041
  679POPC   C1A11271  44.902  24.682   8.700
  679POPC   D2A11272  44.897  24.432   8.306
  679POPC   C3A11273  44.850  24.674   7.933
  679POPC   C4A11274  44.572  24.666   7.601
  679POPC   C1B11275  44.337  24.224   8.760
  679POPC   C2B11276  44.289  24.250   8.296
  679POPC   C3B11277  44.570  24.239   7.939
  679POPC   C4B11278   0.032  24.168   7.862
  680POPC   NC311279  11.708  10.343   9.443
  680POPC   PO411280  12.417  10.369   9.650
  680POPC   GL111281  12.148  10.547   9.294
  680POPC   GL211282  12.262  10.344   9.047
  680POPC   C1A11283  11.937  10.719   8.883
  680POPC   D2A11284  12.149  10.576   8.495
  680POPC   C3A11285  12.035  10.763   8.089
  680POPC   C4A11286  12.255  10.586   7.700
  680POPC   C1B11287  11.920  10.223   8.824
  680POPC   C2B11288  11.870  10.107   8.443
  680POPC   C3B11289  11.976  10.270   8.071
  680POPC   C4B11290  11.782  10.382   7.707
  681POPC   NC311291  44.386   9.865   9.587
  681POPC   PO411292  44.997  10.149   9.508
  681POPC   GL111293  44.696   9.949   9.189
  681POPC   GL211294  44.397   9.723   9.107
  681POPC   C1A11295  44.778   9.718   8.801
  681POPC   D2A11296   0.013   9.840   8.484
  681POPC   C3A11297  44.998   9.676   8.099
  681POPC   C4A11298  44.744   9.536   7.772
  681POPC   C1B11299  44.283   9.813   8.656
  681POPC   C2B11300  44.499   9.790   8.234
  681POPC   C3B11301  44.532  10.001   7.836
  681POPC   C4B11302  44.355   9.748   7.499
  682POPC   NC311303  21.324   1.111   9.474
  682POPC   PO411304  21.921   1.440   9.625
  682POPC   GL111305  21.798   1.202   9.265
  682POPC   GL211306  21.749   1.512   9.120
  682POPC   C1A11307  21.541   1.111   8.847
  682POPC   D2A11308  21.197   0.910   8.552
  682POPC   C3A11309  21.159   1.098   8.135
  682POPC   C4A11310  21.508   1.124   7.880
  682POPC   C1B11311  21.785   1.564   8.682
  682POPC   C2B11312  21.501   1.475   8.359
  682POPC   C3B11313  21.709   1.576   8.031
  682POPC   C4B11314  21.720   1.668   7.645
  683POPC   NC311315  13.811  25.117   9.731
  683POPC   PO411316  13.607  25.715   9.501
  683POPC   GL111317  13.682  25.347   9.268
  683POPC   GL211318  13.348  25.249   9.138
  683POPC   C1A11319  13.859  25.246   8.875
  683POPC   D2A11320  13.636  25.307   8.511
  683POPC   C3A11321  13.815  25.244   8.129
  683POPC   C4A11322  13.606  25.141   7.779
  683POPC   C1B11323  13.378  25.627   8.847
  683POPC   C2B11324  13.367  25.747   8.389
  683POPC   C3B11325  13.475  25.586   7.973
  683POPC   C4B11326  13.294  25.483   7.530
  684POPC   NC311327  25.730  16.260   9.877
  684POPC   PO411328  26.223  15.872   9.556
  684POPC   GL111329  26.205  15.950   9.142
  684POPC   GL211330  25.859  15.897   9.167
  684POPC   C1A11331  26.101  15.842   8.725
  684POPC   D2A11332  25.912  15.719   8.356
  684POPC   C3A11333  26.148  15.758   8.003
  684POPC   C4A11334  26.116  15.892   7.611
  684POPC   C1B11335  25.663  16.082   8.769
  684POPC   C2B11336  25.523  16.048   8.353
  684POPC   C3B11337  25.706  16.002   7.950
  684POPC   C4B11338  25.771  16.300   7.605
  685POPC   NC311339  43.434  28.464   9.818
  685POPC   PO411340  42.888  28.202   9.514
  685POPC   GL111341  43.090  28.090   9.126
  685POPC   GL211342  43.487  28.017   9.132
  685POPC   C1A11343  43.112  28.263   8.684
  685POPC   D2A11344  43.136  28.585   8.362
  685POPC   C3A11345  43.156  28.445   7.932
  685POPC   C4A11346  43.122  28.492   7.485
  685POPC   C1B11347  43.616  28.204   8.725
  685POPC   C2B11348  43.546  28.240   8.280
  685POPC   C3B11349  43.609  28.216   7.826
  685POPC   C4B11350  43.592  28.260   7.347
  686POPC   NC311351  18.691  28.038   9.853
  686POPC   PO411352  18.188  28.217   9.477
  686POPC   GL111353  18.336  28.224   9.112
  686POPC   GL211354  18.521  28.477   9.142
  686POPC   C1A11355  18.213  28.178   8.735
  686POPC   D2A11356  18.113  28.269   8.339
  686POPC   C3A11357  18.246  28.106   7.969
  686POPC   C4A11358  18.250  28.342   7.568
  686POPC   C1B11359  18.692  28.402   8.750
  686POPC   C2B11360  18.597  28.511   8.326
  686POPC   C3B11361  18.668  28.394   7.915
  686POPC   C4B11362  18.711  28.514   7.503
  687POPC   NC311363  44.949  13.805   9.492
  687POPC   PO411364  44.365  13.274   9.343
  687POPC   GL111365  44.490  13.416   8.984
  687POPC   GL211366  44.740  13.634   9.043
  687POPC   C1A11367  44.392  13.678   8.664
  687POPC   D2A11368  44.658  13.868   8.383
  687POPC   C3A11369  44.527  13.758   7.990
  687POPC   C4A11370  44.733  13.799   7.626
  687POPC   C1B11371  44.933  13.441   8.664
  687POPC   C2B11372  44.924  13.441   8.205
  687POPC   C3B11373  44.994  13.320   7.776
  687POPC   C4B11374  44.957  13.452   7.350
  688POPC   NC311375  13.003  33.328   9.408
  688POPC   PO411376  12.634  33.879   9.499
  688POPC   GL111377  12.764  33.676   9.127
  688POPC   GL211378  13.112  33.798   9.119
  688POPC   C1A11379  12.909  33.595   8.696
  688POPC   D2A11380  12.783  33.842   8.366
  688POPC   C3A11381  12.967  33.807   7.985
  688POPC   C4A11382  12.904  33.575   7.617
  688POPC   C1B11383  13.056  34.145   8.789
  688POPC   C2B11384  12.888  34.349   8.394
  688POPC   C3B11385  12.648  34.236   8.027
  688POPC   C4B11386  12.658  34.029   7.634
  689POPC   NC311387  38.228   9.277   9.342
  689POPC   PO411388  38.574   9.719   9.744
  689POPC   GL111389  38.517   9.837   9.248
  689POPC   GL211390  38.228  10.042   9.147
  689POPC   C1A11391  38.529   9.651   8.766
  689POPC   D2A11392  38.408   9.359   8.373
  689POPC   C3A11393  38.151   9.507   8.027
  689POPC   C4A11394  38.323   9.770   7.731
  689POPC   C1B11395  38.082   9.882   8.749
  689POPC   C2B11396  38.301   9.863   8.355
  689POPC   C3B11397  38.136  10.125   8.051
  689POPC   C4B11398  38.035  10.177   7.651
  690POPC   NC311399  21.974  11.220   9.634
  690POPC   PO411400  21.276  11.300   9.682
  690POPC   GL111401  21.290  11.453   9.215
  690POPC   GL211402  21.629  11.613   9.167
  690POPC   C1A11403  21.217  11.343   8.757
  690POPC   D2A11404  21.489  11.399   8.376
  690POPC   C3A11405  21.423  11.026   8.131
  690POPC   C4A11406  21.311  10.919   7.724
  690POPC   C1B11407  21.458  11.791   8.765
  690POPC   C2B11408  21.496  11.952   8.369
  690POPC   C3B11409  21.472  11.730   7.970
  690POPC   C4B11410  21.608  11.365   7.796
  691POPC   NC311411   5.090   5.748   9.546
  691POPC   PO411412   5.403   6.264   9.425
  691POPC   GL111413   5.151   6.070   9.142
  691POPC   GL211414   4.839   6.079   9.190
  691POPC   C1A11415   5.126   5.747   8.860
  691POPC   D2A11416   5.327   5.695   8.493
  691POPC   C3A11417   5.166   5.613   8.102
  691POPC   C4A11418   5.436   5.767   7.813
  691POPC   C1B11419   4.833   6.282   8.805
  691POPC   C2B11420   4.922   6.018   8.432
  691POPC   C3B11421   4.999   6.091   8.002
  691POPC   C4B11422   4.724   6.307   7.754
  692POPC   NC311423  18.200   3.609   9.697
  692POPC   PO411424  18.671   3.338   9.343
  692POPC   GL111425  18.299   3.349   9.119
  692POPC   GL211426  18.099   3.640   9.161
  692POPC   C1A11427  18.320   3.469   8.692
  692POPC   D2A11428  18.367   3.734   8.337
  692POPC   C3A11429  18.251   3.464   8.011
  692POPC   C4A11430  18.479   3.351   7.680
  692POPC   C1B11431  18.090   3.927   8.763
  692POPC   C2B11432  18.063   4.145   8.351
  692POPC   C3B11433  18.096   3.957   7.936
  692POPC   C4B11434  18.450   3.868   7.704
  693POPC   NC311435  11.021  44.422   9.520
  693POPC   PO411436  11.514  44.736   9.443
  693POPC   GL111437  11.196  44.763   9.163
  693POPC   GL211438  11.085  44.460   9.009
  693POPC   C1A11439  11.211  44.882   8.751
  693POPC   D2A11440  11.040  44.768   8.416
  693POPC   C3A11441  11.284  44.887   8.068
  693POPC   C4A11442  11.176  44.811   7.658
  693POPC   C1B11443  11.545  44.528   8.832
  693POPC   C2B11444  11.545  44.570   8.394
  693POPC   C3B11445  11.174  44.385   8.134
  693POPC   C4B11446  11.064  44.257   7.721
  694POPC   NC311447  11.369  37.179   9.505
  694POPC   PO411448  10.934  36.726   9.438
  694POPC   GL111449  11.157  36.951   9.105
  694POPC   GL211450  11.554  36.883   9.119
  694POPC   C1A11451  11.321  37.047   8.713
  694POPC   D2A11452  11.255  36.840   8.347
  694POPC   C3A11453  11.462  37.067   8.070
  694POPC   C4A11454  11.502  37.249   7.706
  694POPC   C1B11455  11.349  36.538   8.856
  694POPC   C2B11456  11.406  36.347   8.450
  694POPC   C3B11457  11.586  36.497   8.085
  694POPC   C4B11458  11.587  36.728   7.704
  695POPC   NC311459  35.397  43.029   9.887
  695POPC   PO411460  35.083  43.194   9.342
  695POPC   GL111461  35.426  43.110   9.042
  695POPC   GL211462  35.733  42.883   9.136
  695POPC   C1A11463  35.223  43.049   8.664
  695POPC   D2A11464  34.951  43.063   8.357
  695POPC   C3A11465  35.115  43.072   7.955
  695POPC   C4A11466  35.196  43.069   7.517
  695POPC   C1B11467  35.630  42.760   8.717
  695POPC   C2B11468  35.559  42.949   8.281
  695POPC   C3B11469  35.578  42.859   7.834
  695POPC   C4B11470  35.578  42.761   7.380
  696POPC   NC311471  22.849  26.484   9.312
  696POPC   PO411472  22.968  25.794   9.564
  696POPC   GL111473  22.965  25.953   9.177
  696POPC   GL211474  23.233  26.191   9.164
  696POPC   C1A11475  22.860  25.750   8.799
  696POPC   D2A11476  22.897  25.593   8.388
  696POPC   C3A11477  23.060  25.863   8.101
  696POPC   C4A11478  22.816  26.198   7.916
  696POPC   C1B11479  23.068  26.228   8.737
  696POPC   C2B11480  23.120  26.349   8.327
  696POPC   C3B11481  23.351  26.280   7.978
  696POPC   C4B11482  23.514  26.219   7.617
  697POPC   NC311483   3.770  12.169   9.434
  697POPC   PO411484   3.232  11.770   9.563
  697POPC   GL111485   3.343  11.998   9.219
  697POPC   GL211486   3.545  11.754   9.071
  697POPC   C1A11487   3.415  12.147   8.797
  697POPC   D2A11488   3.639  12.278   8.401
  697POPC   C3A11489   3.442  12.189   8.007
  697POPC   C4A11490   3.285  12.356   7.623
  697POPC   C1B11491   3.775  11.821   8.698
  697POPC   C2B11492   3.527  11.788   8.333
  697POPC   C3B11493   3.661  11.725   7.919
  697POPC   C4B11494   4.045  11.598   7.766
  698POPC   NC311495  40.696  19.645   9.447
  698POPC   PO411496  40.202  20.220   9.394
  698POPC   GL111497  40.536  20.106   9.063
  698POPC   GL211498  40.677  19.740   8.959
  698POPC   C1A11499  40.757  20.097   8.639
  698POPC   D2A11500  40.817  19.873   8.265
  698POPC   C3A11501  40.656  20.021   7.888
  698POPC   C4A11502  40.530  19.740   7.562
  698POPC   C1B11503  40.871  19.488   8.631
  698POPC   C2B11504  41.082  19.426   8.218
  698POPC   C3B11505  41.006  19.633   7.810
  698POPC   C4B11506  40.971  19.503   7.395
  699POPC   NC311507  44.255   7.400   9.570
  699POPC   PO411508  44.766   7.753   9.674
  699POPC   GL111509  44.607   7.691   9.283
  699POPC   GL211510  44.934   7.781   9.184
  699POPC   C1A11511  44.602   7.439   8.915
  699POPC   D2A11512  44.430   7.376   8.513
  699POPC   C3A11513  44.612   7.427   8.130
  699POPC   C4A11514  44.389   7.370   7.725
  699POPC   C1B11515  44.851   7.882   8.798
  699POPC   C2B11516  44.950   7.746   8.441
  699POPC   C3B11517  44.901   7.855   8.070
  699POPC   C4B11518  44.815   7.653   7.703
  700POPC   NC311519  16.287  32.769   9.449
  700POPC   PO411520  15.867  33.258   9.464
  700POPC   GL111521  15.897  32.917   9.142
  700POPC   GL211522  15.547  32.806   9.041
  700POPC   C1A11523  16.121  32.906   8.729
  700POPC   D2A11524  15.918  32.938   8.313
  700POPC   C3A11525  16.162  33.166   8.035
  700POPC   C4A11526  16.478  33.046   7.783
  700POPC   C1B11527  15.646  33.115   8.736
  700POPC   C2B11528  15.700  33.409   8.416
  700POPC   C3B11529  15.690  33.370   7.980
  700POPC   C4B11530  15.739  32.964   7.797
  701POPC   NC311531  11.067   8.884  10.024
  701POPC   PO411532  11.294   9.280   9.619
  701POPC   GL111533  11.285   9.191   9.131
  701POPC   GL211534  11.295   8.861   9.086
  701POPC   C1A11535  10.983   9.068   8.767
  701POPC   D2A11536  11.022   9.172   8.329
  701POPC   C3A11537  11.077   8.861   8.006
  701POPC   C4A11538  10.977   9.039   7.630
  701POPC   C1B11539  11.489   9.029   8.682
  701POPC   C2B11540  11.530   8.978   8.230
  701POPC   C3B11541  11.474   9.208   7.824
  701POPC   C4B11542  11.473   9.311   7.369
  702POPC   NC311543   8.262  29.370   9.610
  702POPC   PO411544   8.160  28.759   9.728
  702POPC   GL111545   8.012  29.053   9.301
  702POPC   GL211546   8.238  29.197   9.126
  702POPC   C1A11547   7.944  28.981   8.792
  702POPC   D2A11548   8.080  28.718   8.438
  702POPC   C3A11549   7.867  28.977   8.150
  702POPC   C4A11550   7.733  29.045   7.755
  702POPC   C1B11551   8.288  29.400   8.763
  702POPC   C2B11552   8.285  29.178   8.392
  702POPC   C3B11553   8.343  28.985   7.998
  702POPC   C4B11554   8.188  29.277   7.699
  703POPC   NC311555   4.098  21.154   9.593
  703POPC   PO411556   4.467  21.752   9.413
  703POPC   GL111557   4.525  21.383   9.139
  703POPC   GL211558   4.236  21.164   9.115
  703POPC   C1A11559   4.521  21.250   8.701
  703POPC   D2A11560   4.508  21.579   8.407
  703POPC   C3A11561   4.249  21.573   8.064
  703POPC   C4A11562   4.448  21.655   7.663
  703POPC   C1B11563   4.006  21.166   8.778
  703POPC   C2B11564   4.135  21.110   8.354
  703POPC   C3B11565   3.900  21.153   7.973
  703POPC   C4B11566   3.878  21.519   7.724
  704POPC   NC311567  37.535  41.319   9.558
  704POPC   PO411568  37.733  40.712   9.526
  704POPC   GL111569  37.601  40.910   9.194
  704POPC   GL211570  37.862  41.159   9.167
  704POPC   C1A11571  37.685  40.717   8.808
  704POPC   D2A11572  37.490  40.801   8.431
  704POPC   C3A11573  37.613  40.735   8.011
  704POPC   C4A11574  37.373  40.549   7.696
  704POPC   C1B11575  38.033  41.086   8.748
  704POPC   C2B11576  38.008  40.824   8.356
  704POPC   C3B11577  38.071  40.945   7.917
  704POPC   C4B11578  38.084  40.924   7.459
  705POPC   NC311579   4.632  39.861   9.441
  705POPC   PO411580   4.041  39.823   9.652
  705POPC   GL111581   4.210  40.033   9.199
  705POPC   GL211582   4.557  40.224   9.070
  705POPC   C1A11583   4.351  39.938   8.721
  705POPC   D2A11584   4.239  39.920   8.267
  705POPC   C3A11585   4.262  39.708   7.866
  705POPC   C4A11586   4.214  39.572   7.444
  705POPC   C1B11587   4.691  40.340   8.641
  705POPC   C2B11588   4.760  40.116   8.266
  705POPC   C3B11589   4.559  40.128   7.877
  705POPC   C4B11590   4.649  39.898   7.493
  706POPC   NC311591   6.790  23.968   9.434
  706POPC   PO411592   6.539  23.372   9.444
  706POPC   GL111593   6.528  23.592   9.106
  706POPC   GL211594   6.889  23.589   9.107
  706POPC   C1A11595   6.310  23.619   8.716
  706POPC   D2A11596   6.502  23.666   8.316
  706POPC   C3A11597   6.449  23.438   7.979
  706POPC   C4A11598   6.531  23.728   7.666
  706POPC   C1B11599   6.834  23.691   8.698
  706POPC   C2B11600   7.116  23.563   8.382
  706POPC   C3B11601   6.945  23.720   8.029
  706POPC   C4B11602   7.039  23.838   7.647
  707POPC   NC311603  42.727  14.284   9.415
  707POPC   PO411604  42.085  14.545   9.477
  707POPC   GL111605  42.313  14.421   9.137
  707POPC   GL211606  42.268  14.083   9.219
  707POPC   C1A11607  42.353  14.646   8.755
  707POPC   D2A11608  42.039  14.738   8.453
  707POPC   C3A11609  42.212  14.576   8.070
  707POPC   C4A11610  42.057  14.500   7.654
  707POPC   C1B11611  42.477  14.030   8.820
  707POPC   C2B11612  42.392  14.239   8.430
  707POPC   C3B11613  42.569  14.202   8.053
  707POPC   C4B11614  42.417  13.895   7.822
  708POPC   NC311615   0.657  37.960   9.620
  708POPC   PO411616   0.187  37.460   9.559
  708POPC   GL111617   0.423  37.664   9.246
  708POPC   GL211618   0.193  37.909   9.180
  708POPC   C1A11619   0.469  37.749   8.773
  708POPC   D2A11620   0.496  37.506   8.368
  708POPC   C3A11621   0.627  37.767   8.022
  708POPC   C4A11622   0.646  37.790   7.566
  708POPC   C1B11623   0.056  37.485   8.942
  708POPC   C2B11624  44.991  37.510   8.523
  708POPC   C3B11625   0.053  37.322   8.110
  708POPC   C4B11626   0.211  37.599   7.777
  709POPC   NC311627   1.251  10.902   9.520
  709POPC   PO411628   1.005  10.244   9.610
  709POPC   GL111629   0.999  10.405   9.165
  709POPC   GL211630   1.318  10.602   9.115
  709POPC   C1A11631   1.045  10.483   8.716
  709POPC   D2A11632   0.933  10.297   8.341
  709POPC   C3A11633   0.999  10.566   7.997
  709POPC   C4A11634   1.385  10.470   7.822
  709POPC   C1B11635   1.528  10.706   8.743
  709POPC   C2B11636   1.370  10.678   8.320
  709POPC   C3B11637   1.481  10.943   7.955
  709POPC   C4B11638   1.644  10.804   7.508
  710POPC   NC311639  12.385   9.990   9.388
  710POPC   PO411640  11.743   9.842   9.451
  710POPC   GL111641  11.981   9.810   9.111
  710POPC   GL211642  12.117   9.491   9.137
  710POPC   C1A11643  12.171   9.778   8.713
  710POPC   D2A11644  12.230   9.532   8.374
  710POPC   C3A11645  12.005   9.754   8.073
  710POPC   C4A11646  12.104   9.962   7.685
  710POPC   C1B11647  11.780   9.452   8.786
  710POPC   C2B11648  11.678   9.454   8.362
  710POPC   C3B11649  11.944   9.241   8.042
  710POPC   C4B11650  11.939   9.468   7.663
  711POPC   NC311651  29.726  43.420   9.449
  711POPC   PO411652  30.367  43.344   9.563
  711POPC   GL111653  30.155  43.051   9.234
  711POPC   GL211654  29.799  43.066   9.108
  711POPC   C1A11655  30.132  42.782   8.859
  711POPC   D2A11656  30.172  42.783   8.396
  711POPC   C3A11657  30.060  43.158   8.177
  711POPC   C4A11658  29.973  43.197   7.733
  711POPC   C1B11659  29.628  42.806   8.793
  711POPC   C2B11660  29.624  42.808   8.348
  711POPC   C3B11661  29.542  43.104   8.024
  711POPC   C4B11662  29.477  43.209   7.604
  712POPC   NC311663  36.424   7.762   9.452
  712POPC   PO411664  36.269   7.160   9.530
  712POPC   GL111665  36.186   7.406   9.144
  712POPC   GL211666  36.287   7.738   8.986
  712POPC   C1A11667  36.206   7.270   8.723
  712POPC   D2A11668  35.875   7.296   8.404
  712POPC   C3A11669  35.963   7.482   7.978
  712POPC   C4A11670  36.342   7.388   7.792
  712POPC   C1B11671  35.962   7.711   8.734
  712POPC   C2B11672  36.201   7.721   8.373
  712POPC   C3B11673  36.456   7.832   8.032
  712POPC   C4B11674  36.310   7.865   7.610
  713POPC   NC311675   0.222  31.019   9.625
  713POPC   PO411676   0.407  30.453   9.556
  713POPC   GL111677   0.357  30.743   9.216
  713POPC   GL211678   0.595  31.016   9.234
  713POPC   C1A11679   0.192  30.742   8.823
  713POPC   D2A11680   0.400  30.614   8.442
  713POPC   C3A11681   0.188  30.689   8.053
  713POPC   C4A11682   0.310  30.310   7.878
  713POPC   C1B11683   0.714  30.877   8.816
  713POPC   C2B11684   0.742  30.988   8.391
  713POPC   C3B11685   0.708  30.746   8.009
  713POPC   C4B11686   0.562  30.879   7.636
  714POPC   NC311687  38.381  24.253   9.476
  714POPC   PO411688  38.479  24.905   9.238
  714POPC   GL111689  38.515  24.484   9.049
  714POPC   GL211690  38.170  24.329   9.028
  714POPC   C1A11691  38.778  24.413   8.704
  714POPC   D2A11692  38.817  24.812   8.432
  714POPC   C3A11693  38.607  24.805   8.023
  714POPC   C4A11694  38.736  24.679   7.618
  714POPC   C1B11695  38.270  24.169   8.649
  714POPC   C2B11696  38.491  24.357   8.279
  714POPC   C3B11697  38.416  24.277   7.859
  714POPC   C4B11698  38.056  24.020   7.757
  715POPC   NC311699  44.154   6.758   9.465
  715POPC   PO411700  43.503   6.507   9.499
  715POPC   GL111701  43.774   6.557   9.136
  715POPC   GL211702  43.773   6.903   9.121
  715POPC   C1A11703  44.044   6.645   8.741
  715POPC   D2A11704  43.970   6.651   8.272
  715POPC   C3A11705  44.282   6.567   7.936
  715POPC   C4A11706  44.189   6.554   7.447
  715POPC   C1B11707  43.585   6.896   8.714
  715POPC   C2B11708  43.446   6.617   8.380
  715POPC   C3B11709  43.593   6.408   8.016
  715POPC   C4B11710  43.724   6.605   7.676
  716POPC   NC311711  41.723  44.109   9.335
  716POPC   PO411712  42.288  43.976   9.705
  716POPC   GL111713  42.314  43.849   9.251
  716POPC   GL211714  42.553  44.082   9.150
  716POPC   C1A11715  42.159  43.847   8.783
  716POPC   D2A11716  42.252  43.619   8.372
  716POPC   C3A11717  42.002  43.525   7.985
  716POPC   C4A11718  41.983  43.698   7.554
  716POPC   C1B11719  42.565  44.178   8.731
  716POPC   C2B11720  42.333  44.121   8.346
  716POPC   C3B11721  42.329  43.922   7.938
  716POPC   C4B11722  42.205  44.155   7.588
  717POPC   NC311723  39.644  25.512   9.465
  717POPC   PO411724  39.247  25.081   9.730
  717POPC   GL111725  39.321  25.150   9.238
  717POPC   GL211726  39.582  24.849   9.210
  717POPC   C1A11727  39.359  25.499   8.813
  717POPC   D2A11728  39.421  25.707   8.385
  717POPC   C3A11729  39.198  25.497   8.014
  717POPC   C4A11730  38.989  25.114   7.806
  717POPC   C1B11731  39.555  25.032   8.809
  717POPC   C2B11732  39.297  25.139   8.452
  717POPC   C3B11733  39.423  25.033   8.056
  717POPC   C4B11734  39.621  24.972   7.680
  718POPC   NC311735  36.791  35.157   9.599
  718POPC   PO411736  36.427  35.679   9.588
  718POPC   GL111737  36.663  35.423   9.166
  718POPC   GL211738  36.890  35.117   9.111
  718POPC   C1A11739  36.906  35.476   8.762
  718POPC   D2A11740  37.046  35.193   8.418
  718POPC   C3A11741  37.007  35.337   7.982
  718POPC   C4A11742  36.879  35.609   7.595
  718POPC   C1B11743  36.575  35.042   8.786
  718POPC   C2B11744  36.577  34.872   8.369
  718POPC   C3B11745  36.634  34.980   7.958
  718POPC   C4B11746  36.649  35.163   7.538
  719POPC   NC311747  27.827  19.875   9.174
  719POPC   PO411748  27.273  20.097   9.533
  719POPC   GL111749  27.364  20.078   9.119
  719POPC   GL211750  27.357  19.727   9.031
  719POPC   C1A11751  27.497  20.086   8.677
  719POPC   D2A11752  27.282  20.155   8.323
  719POPC   C3A11753  27.499  20.123   7.921
  719POPC   C4A11754  27.415  19.842   7.599
  719POPC   C1B11755  27.411  19.591   8.647
  719POPC   C2B11756  27.433  19.678   8.231
  719POPC   C3B11757  27.739  19.649   7.954
  719POPC   C4B11758  28.019  20.002   7.891
  720POPC   NC311759  16.851  40.660   9.712
  720POPC   PO411760  16.267  40.451   9.479
  720POPC   GL111761  16.497  40.773   9.247
  720POPC   GL211762  16.817  40.771   9.176
  720POPC   C1A11763  16.531  40.720   8.771
  720POPC   D2A11764  16.504  40.913   8.373
  720POPC   C3A11765  16.291  40.655   8.074
  720POPC   C4A11766  16.593  40.687   7.768
  720POPC   C1B11767  16.975  40.972   8.801
  720POPC   C2B11768  16.991  40.767   8.414
  720POPC   C3B11769  17.030  40.852   7.997
  720POPC   C4B11770  17.082  40.702   7.604
  721POPC   NC311771  31.239  36.920   9.479
  721POPC   PO411772  31.712  37.353   9.602
  721POPC   GL111773  31.543  37.238   9.177
  721POPC   GL211774  31.171  37.298   9.120
  721POPC   C1A11775  31.560  36.968   8.772
  721POPC   D2A11776  31.624  37.112   8.337
  721POPC   C3A11777  31.617  36.822   7.992
  721POPC   C4A11778  31.798  36.480   7.717
  721POPC   C1B11779  31.057  37.084   8.757
  721POPC   C2B11780  31.142  36.894   8.370
  721POPC   C3B11781  31.156  37.090   7.954
  721POPC   C4B11782  31.474  37.260   7.668
  722POPC   NC311783  29.464  22.939   9.523
  722POPC   PO411784  28.805  22.646   9.498
  722POPC   GL111785  28.992  22.924   9.150
  722POPC   GL211786  28.846  23.284   9.053
  722POPC   C1A11787  29.200  23.019   8.786
  722POPC   D2A11788  29.271  22.753   8.458
  722POPC   C3A11789  29.221  22.896   8.056
  722POPC   C4A11790  29.057  22.746   7.668
  722POPC   C1B11791  28.742  23.233   8.713
  722POPC   C2B11792  28.927  23.198   8.363
  722POPC   C3B11793  28.791  23.139   7.945
  722POPC   C4B11794  29.103  23.244   7.662
  723POPC   NC311795  23.383   0.887   9.648
  723POPC   PO411796  22.716   1.024   9.594
  723POPC   GL111797  23.003   1.076   9.241
  723POPC   GL211798  23.227   1.337   9.265
  723POPC   C1A11799  23.083   1.166   8.800
  723POPC   D2A11800  22.933   1.284   8.391
  723POPC   C3A11801  23.061   1.031   8.061
  723POPC   C4A11802  22.896   0.991   7.674
  723POPC   C1B11803  23.448   1.495   8.878
  723POPC   C2B11804  23.444   1.448   8.421
  723POPC   C3B11805  23.286   1.467   7.985
  723POPC   C4B11806  23.267   1.416   7.530
  724POPC   NC311807  26.974   4.526   9.379
  724POPC   PO411808  26.670   3.970   9.481
  724POPC   GL111809  26.729   4.183   9.082
  724POPC   GL211810  27.064   4.226   8.993
  724POPC   C1A11811  26.716   4.234   8.625
  724POPC   D2A11812  27.015   4.036   8.336
  724POPC   C3A11813  26.932   4.112   7.906
  724POPC   C4A11814  26.608   4.227   7.613
  724POPC   C1B11815  27.103   4.650   8.761
  724POPC   C2B11816  27.048   4.566   8.331
  724POPC   C3B11817  27.202   4.568   7.931
  724POPC   C4B11818  27.129   4.402   7.514
  725POPC   NC311819  17.870   5.841   9.451
  725POPC   PO411820  17.303   6.143   9.549
  725POPC   GL111821  17.431   5.995   9.140
  725POPC   GL211822  17.733   6.199   9.084
  725POPC   C1A11823  17.245   5.840   8.730
  725POPC   D2A11824  17.199   6.055   8.338
  725POPC   C3A11825  17.317   5.882   7.959
  725POPC   C4A11826  17.402   6.188   7.602
  725POPC   C1B11827  17.757   5.859   8.755
  725POPC   C2B11828  17.775   6.012   8.325
  725POPC   C3B11829  17.784   6.022   7.889
  725POPC   C4B11830  17.685   5.734   7.548
  726POPC   NC311831   6.483   7.593   9.618
  726POPC   PO411832   6.815   7.067   9.627
  726POPC   GL111833   6.627   7.255   9.225
  726POPC   GL211834   6.486   7.617   9.126
  726POPC   C1A11835   6.707   7.247   8.783
  726POPC   D2A11836   6.586   7.163   8.381
  726POPC   C3A11837   6.830   7.328   8.037
  726POPC   C4A11838   6.702   7.420   7.624
  726POPC   C1B11839   6.630   7.795   8.774
  726POPC   C2B11840   6.700   7.668   8.403
  726POPC   C3B11841   6.544   7.760   8.030
  726POPC   C4B11842   6.640   7.987   7.706
  727POPC   NC311843  44.191  31.912   9.322
  727POPC   PO411844  44.031  32.536   9.618
  727POPC   GL111845  43.827  32.355   9.217
  727POPC   GL211846  43.726  31.995   9.123
  727POPC   C1A11847  44.007  32.246   8.797
  727POPC   D2A11848  43.778  32.154   8.450
  727POPC   C3A11849  44.074  32.134   8.139
  727POPC   C4A11850  44.065  32.207   7.720
  727POPC   C1B11851  43.678  31.748   8.736
  727POPC   C2B11852  43.873  31.675   8.307
  727POPC   C3B11853  43.902  31.710   7.832
  727POPC   C4B11854  43.659  31.941   7.526
  728POPC   NC311855  27.870   1.981   9.505
  728POPC   PO411856  27.380   1.656   9.165
  728POPC   GL111857  27.666   1.902   9.060
  728POPC   GL211858  27.938   1.647   9.102
  728POPC   C1A11859  27.623   2.203   8.738
  728POPC   D2A11860  27.612   2.437   8.369
  728POPC   C3A11861  27.384   2.290   8.017
  728POPC   C4A11862  27.229   2.184   7.587
  728POPC   C1B11863  27.921   1.795   8.660
  728POPC   C2B11864  27.625   1.836   8.291
  728POPC   C3B11865  27.461   1.806   7.857
  728POPC   C4B11866  27.405   1.725   7.416
  729POPC   NC311867  27.369  30.810   9.382
  729POPC   PO411868  26.729  30.556   9.429
  729POPC   GL111869  26.675  30.680   9.022
  729POPC   GL211870  27.045  30.678   8.979
  729POPC   C1A11871  26.616  30.431   8.645
  729POPC   D2A11872  26.907  30.216   8.355
  729POPC   C3A11873  26.781  30.344   7.962
  729POPC   C4A11874  26.592  30.761   7.769
  729POPC   C1B11875  26.954  30.802   8.552
  729POPC   C2B11876  27.009  30.758   8.113
  729POPC   C3B11877  27.040  31.094   7.808
  729POPC   C4B11878  27.337  31.242   7.465
  730POPC   NC311879  37.380  18.832   9.452
  730POPC   PO411880  37.502  18.191   9.683
  730POPC   GL111881  37.514  18.104   9.226
  730POPC   GL211882  37.860  18.101   9.078
  730POPC   C1A11883  37.453  18.128   8.791
  730POPC   D2A11884  37.461  18.422   8.462
  730POPC   C3A11885  37.251  18.309   8.110
  730POPC   C4A11886  37.469  18.300   7.740
  730POPC   C1B11887  37.925  18.405   8.787
  730POPC   C2B11888  37.967  18.483   8.370
  730POPC   C3B11889  37.922  18.420   7.953
  730POPC   C4B11890  37.926  18.069   7.705
  731POPC   NC311891  34.203   6.354   9.599
  731POPC   PO411892  34.837   6.677   9.542
  731POPC   GL111893  34.552   6.702   9.220
  731POPC   GL211894  34.379   6.394   9.120
  731POPC   C1A11895  34.592   6.731   8.787
  731POPC   D2A11896  34.701   6.553   8.391
  731POPC   C3A11897  34.565   6.840   8.088
  731POPC   C4A11898  34.323   6.912   7.737
  731POPC   C1B11899  34.492   6.213   8.737
  731POPC   C2B11900  34.346   6.197   8.327
  731POPC   C3B11901  34.377   6.378   7.941
  731POPC   C4B11902  34.657   6.520   7.661
  732POPC   NC311903  23.350  43.306   9.507
  732POPC   PO411904  23.978  43.017   9.705
  732POPC   GL111905  23.754  43.050   9.283
  732POPC   GL211906  23.961  43.019   9.008
  732POPC   C1A11907  23.481  43.034   8.867
  732POPC   D2A11908  23.518  42.890   8.431
  732POPC   C3A11909  23.509  43.156   8.073
  732POPC   C4A11910  23.474  42.983   7.668
  732POPC   C1B11911  23.903  43.199   8.616
  732POPC   C2B11912  24.000  43.027   8.218
  732POPC   C3B11913  23.949  43.151   7.796
  732POPC   C4B11914  23.886  43.064   7.366
  733POPC   NC311915  41.453  16.665   9.817
  733POPC   PO411916  41.823  17.069   9.480
  733POPC   GL111917  41.534  16.965   9.186
  733POPC   GL211918  41.396  16.642   9.263
  733POPC   C1A11919  41.640  16.788   8.779
  733POPC   D2A11920  41.443  16.670   8.403
  733POPC   C3A11921  41.712  16.702   8.087
  733POPC   C4A11922  41.789  16.819   7.702
  733POPC   C1B11923  41.164  16.612   8.842
  733POPC   C2B11924  40.921  16.645   8.477
  733POPC   C3B11925  41.047  16.611   8.069
  733POPC   C4B11926  41.269  16.851   7.837
  734POPC   NC311927  30.518   9.893   9.769
  734POPC   PO411928  30.876   9.428   9.433
  734POPC   GL111929  30.647   9.800   9.224
  734POPC   GL211930  30.908   9.794   9.031
  734POPC   C1A11931  30.592  10.078   8.779
  734POPC   D2A11932  30.873   9.914   8.451
  734POPC   C3A11933  30.835  10.079   8.035
  734POPC   C4A11934  30.848  10.045   7.594
  734POPC   C1B11935  30.829   9.476   8.732
  734POPC   C2B11936  30.700   9.379   8.346
  734POPC   C3B11937  30.840   9.329   7.940
  734POPC   C4B11938  30.814   9.539   7.546
  735POPC   NC311939  38.132  26.886   9.542
  735POPC   PO411940  37.481  27.026   9.495
  735POPC   GL111941  37.593  26.788   9.161
  735POPC   GL211942  37.923  26.646   9.134
  735POPC   C1A11943  37.416  26.727   8.768
  735POPC   D2A11944  37.341  26.958   8.382
  735POPC   C3A11945  37.474  26.825   7.984
  735POPC   C4A11946  37.794  27.055   7.767
  735POPC   C1B11947  37.922  26.858   8.741
  735POPC   C2B11948  38.039  26.678   8.392
  735POPC   C3B11949  37.926  26.589   7.999
  735POPC   C4B11950  38.040  26.592   7.592
  736POPC   NC311951  44.559   4.799   9.458
  736POPC   PO411952  44.452   5.486   9.465
  736POPC   GL111953  44.594   5.145   9.104
  736POPC   GL211954  44.371   4.819   8.997
  736POPC   C1A11955  44.750   4.983   8.706
  736POPC   D2A11956  44.877   5.203   8.359
  736POPC   C3A11957  44.811   5.092   7.986
  736POPC   C4A11958  44.503   5.263   7.714
  736POPC   C1B11959  44.301   4.759   8.579
  736POPC   C2B11960  44.558   4.718   8.250
  736POPC   C3B11961  44.452   4.740   7.844
  736POPC   C4B11962  44.099   4.964   7.826
  737POPC   NC311963  20.955   4.857   9.385
  737POPC   PO411964  21.574   5.078   9.542
  737POPC   GL111965  21.469   5.196   9.155
  737POPC   GL211966  21.771   5.328   9.100
  737POPC   C1A11967  21.262   5.054   8.774
  737POPC   D2A11968  21.203   4.834   8.394
  737POPC   C3A11969  21.339   5.025   8.031
  737POPC   C4A11970  21.251   5.386   7.793
  737POPC   C1B11971  21.628   5.405   8.716
  737POPC   C2B11972  21.655   5.189   8.385
  737POPC   C3B11973  21.830   5.185   7.988
  737POPC   C4B11974  21.672   5.204   7.584
  738POPC   NC311975  23.877   9.230   9.626
  738POPC   PO411976  23.551   8.708   9.542
  738POPC   GL111977  23.814   8.861   9.202
  738POPC   GL211978  23.843   9.192   9.126
  738POPC   C1A11979  23.877   8.833   8.764
  738POPC   D2A11980  23.893   8.686   8.352
  738POPC   C3A11981  23.762   8.961   8.070
  738POPC   C4A11982  23.996   9.028   7.783
  738POPC   C1B11983  23.521   9.206   8.820
  738POPC   C2B11984  23.400   9.088   8.387
  738POPC   C3B11985  23.417   9.348   7.988
  738POPC   C4B11986  23.689   9.447   7.609
  739POPC   NC311987  18.324  39.582   9.585
  739POPC   PO411988  18.164  38.959   9.376
  739POPC   GL111989  18.341  39.298   9.099
  739POPC   GL211990  18.126  39.581   9.098
  739POPC   C1A11991  18.513  39.225   8.656
  739POPC   D2A11992  18.338  39.013   8.277
  739POPC   C3A11993  18.377  39.089   7.820
  739POPC   C4A11994  18.434  39.330   7.425
  739POPC   C1B11995  18.444  39.714   8.799
  739POPC   C2B11996  18.534  39.658   8.346
  739POPC   C3B11997  18.448  39.597   7.879
  739POPC   C4B11998  18.028  39.471   7.687
  740POPC   NC311999   5.783  21.585   9.625
  740POPC   PO412000   5.520  21.006   9.315
  740POPC   GL112001   5.832  21.201   9.089
  740POPC   GL212002   5.874  21.528   9.126
  740POPC   C1A12003   6.082  21.200   8.729
  740POPC   D2A12004   5.955  21.223   8.291
  740POPC   C3A12005   6.192  21.310   7.911
  740POPC   C4A12006   6.149  21.426   7.421
  740POPC   C1B12007   5.868  21.650   8.704
  740POPC   C2B12008   6.096  21.730   8.333
  740POPC   C3B12009   5.760  21.841   8.068
  740POPC   C4B12010   5.463  21.649   7.818
  741POPC   NC312011  15.123  29.406   9.463
  741POPC   PO412012  15.416  28.808   9.510
  741POPC   GL112013  15.402  29.036   9.145
  741POPC   GL212014  15.050  29.024   9.113
  741POPC   C1A12015  15.333  29.189   8.717
  741POPC   D2A12016  15.083  29.014   8.372
  741POPC   C3A12017  15.307  29.062   7.954
  741POPC   C4A12018  15.273  29.296   7.548
  741POPC   C1B12019  14.863  29.360   8.843
  741POPC   C2B12020  14.676  29.342   8.457
  741POPC   C3B12021  14.853  29.297   8.020
  741POPC   C4B12022  14.777  29.503   7.632
  742POPC   NC312023  24.922  29.892   9.665
  742POPC   PO412024  25.463  30.082   9.482
  742POPC   GL112025  25.321  29.824   9.197
  742POPC   GL212026  24.959  29.855   9.161
  742POPC   C1A12027  25.427  29.942   8.782
  742POPC   D2A12028  25.188  30.173   8.452
  742POPC   C3A12029  25.278  30.008   8.052
  742POPC   C4A12030  25.547  29.865   7.726
  742POPC   C1B12031  24.986  29.700   8.750
  742POPC   C2B12032  25.278  29.594   8.423
  742POPC   C3B12033  25.240  29.491   7.992
  742POPC   C4B12034  25.043  29.671   7.653
  743POPC   NC312035  38.697  17.899   9.517
  743POPC   PO412036  38.135  18.261   9.468
  743POPC   GL112037  38.381  18.131   9.181
  743POPC   GL212038  38.256  17.786   9.201
  743POPC   C1A12039  38.454  18.327   8.795
  743POPC   D2A12040  38.645  18.461   8.440
  743POPC   C3A12041  38.405  18.492   8.109
  743POPC   C4A12042  38.380  18.309   7.726
  743POPC   C1B12043  38.249  17.875   8.778
  743POPC   C2B12044  38.271  18.063   8.377
  743POPC   C3B12045  38.279  17.871   7.992
  743POPC   C4B12046  38.473  17.681   7.652
  744POPC   NC312047  12.973  18.688   9.503
  744POPC   PO412048  12.585  18.106   9.365
  744POPC   GL112049  12.830  18.385   9.123
  744POPC   GL212050  12.617  18.655   9.088
  744POPC   C1A12051  13.074  18.520   8.763
  744POPC   D2A12052  13.285  18.478   8.403
  744POPC   C3A12053  13.083  18.420   8.015
  744POPC   C4A12054  12.976  18.130   7.755
  744POPC   C1B12055  12.567  18.453   8.700
  744POPC   C2B12056  12.770  18.218   8.411
  744POPC   C3B12057  12.557  18.351   8.059
  744POPC   C4B12058  12.575  18.396   7.632
  745POPC   NC312059  41.869  32.246   9.665
  745POPC   PO412060  41.330  31.819   9.676
  745POPC   GL112061  41.302  32.012   9.262
  745POPC   GL212062  41.307  32.344   9.161
  745POPC   C1A12063  41.248  31.999   8.798
  745POPC   D2A12064  41.517  32.098   8.420
  745POPC   C3A12065  41.313  32.174   8.017
  745POPC   C4A12066  41.380  32.499   7.707
  745POPC   C1B12067  41.521  32.465   8.804
  745POPC   C2B12068  41.708  32.624   8.438
  745POPC   C3B12069  41.933  32.704   8.072
  745POPC   C4B12070  41.898  32.458   7.714
  746POPC   NC312071  16.485  31.240   9.625
  746POPC   PO412072  15.919  31.543   9.464
  746POPC   GL112073  16.035  31.551   9.076
  746POPC   GL212074  16.125  31.225   9.100
  746POPC   C1A12075  16.102  31.495   8.640
  746POPC   D2A12076  15.911  31.365   8.283
  746POPC   C3A12077  16.017  31.600   7.926
  746POPC   C4A12078  15.856  31.437   7.536
  746POPC   C1B12079  16.319  31.034   8.734
  746POPC   C2B12080  16.385  31.153   8.298
  746POPC   C3B12081  16.147  31.127   7.886
  746POPC   C4B12082  16.332  31.260   7.452
  747POPC   NC312083  20.539  36.386   9.361
  747POPC   PO412084  20.243  35.814   9.467
  747POPC   GL112085  20.573  35.864   9.166
  747POPC   GL212086  20.331  36.083   9.019
  747POPC   C1A12087  20.784  36.106   8.802
  747POPC   D2A12088  20.551  36.159   8.405
  747POPC   C3A12089  20.760  36.161   8.033
  747POPC   C4A12090  20.807  36.277   7.609
  747POPC   C1B12091  20.322  35.789   8.697
  747POPC   C2B12092  20.056  35.932   8.384
  747POPC   C3B12093  20.229  36.003   7.984
  747POPC   C4B12094  20.538  35.845   7.697
  748POPC   NC312095  22.757  36.214   9.492
  748POPC   PO412096  23.313  35.937   9.501
  748POPC   GL112097  23.089  36.070   9.104
  748POPC   GL212098  22.782  35.863   9.111
  748POPC   C1A12099  22.869  36.321   8.733
  748POPC   D2A12100  22.941  36.468   8.266
  748POPC   C3A12101  22.789  36.234   7.899
  748POPC   C4A12102  22.723  36.309   7.419
  748POPC   C1B12103  22.800  35.813   8.680
  748POPC   C2B12104  22.958  35.942   8.311
  748POPC   C3B12105  22.863  35.704   7.989
  748POPC   C4B12106  22.745  35.809   7.629
  749POPC   NC312107   2.588  17.411   9.478
  749POPC   PO412108   3.082  17.819   9.470
  749POPC   GL112109   2.915  17.759   9.086
  749POPC   GL212110   2.887  17.416   9.068
  749POPC   C1A12111   2.535  17.770   8.818
  749POPC   D2A12112   2.322  17.804   8.405
  749POPC   C3A12113   2.613  17.698   8.090
  749POPC   C4A12114   2.775  17.778   7.676
  749POPC   C1B12115   2.628  17.257   8.763
  749POPC   C2B12116   2.704  17.205   8.329
  749POPC   C3B12117   2.561  17.241   7.895
  749POPC   C4B12118   2.738  17.270   7.493
  750POPC   NC312119  42.105   3.990   9.544
  750POPC   PO412120  42.416   3.333   9.473
  750POPC   GL112121  42.364   3.527   9.110
  750POPC   GL212122  42.510   3.841   9.240
  750POPC   C1A12123  42.245   3.491   8.665
  750POPC   D2A12124  42.280   3.222   8.312
  750POPC   C3A12125  42.175   3.344   7.898
  750POPC   C4A12126  42.402   3.300   7.482
  750POPC   C1B12127  42.482   3.936   8.814
  750POPC   C2B12128  42.277   4.007   8.440
  750POPC   C3B12129  42.363   3.768   8.117
  750POPC   C4B12130  42.441   3.742   7.708
  751POPC   NC312131  11.982  19.064   9.661
  751POPC   PO412132  12.573  18.923   9.512
  751POPC   GL112133  12.240  19.143   9.225
  751POPC   GL212134  11.934  18.956   9.162
  751POPC   C1A12135  12.054  19.349   8.855
  751POPC   D2A12136  12.027  19.158   8.477
  751POPC   C3A12137  12.052  19.162   8.056
  751POPC   C4A12138  11.930  18.897   7.768
  751POPC   C1B12139  12.243  18.848   8.811
  751POPC   C2B12140  12.312  18.758   8.350
  751POPC   C3B12141  12.404  18.809   7.892
  751POPC   C4B12142  12.294  18.857   7.427
  752POPC   NC312143  33.310  44.309   9.397
  752POPC   PO412144  33.847  44.672   9.647
  752POPC   GL112145  33.655  44.699   9.249
  752POPC   GL212146  33.761  44.400   9.168
  752POPC   C1A12147  33.553  44.909   8.856
  752POPC   D2A12148  33.506   0.078   8.426
  752POPC   C3A12149  33.854  44.997   8.134
  752POPC   C4A12150  33.692  44.904   7.750
  752POPC   C1B12151  33.923  44.563   8.808
  752POPC   C2B12152  33.760  44.570   8.422
  752POPC   C3B12153  33.855  44.486   8.009
  752POPC   C4B12154  33.784  44.356   7.567
  753POPC   NC312155  27.230  22.296   9.788
  753POPC   PO412156  27.821  22.470   9.461
  753POPC   GL112157  27.512  22.206   9.082
  753POPC   GL212158  27.234  22.349   8.851
  753POPC   C1A12159  27.455  21.915   8.746
  753POPC   D2A12160  27.669  21.888   8.351
  753POPC   C3A12161  27.618  22.074   7.974
  753POPC   C4A12162  27.280  21.991   7.691
  753POPC   C1B12163  27.675  22.354   8.621
  753POPC   C2B12164  27.817  22.511   8.203
  753POPC   C3B12165  27.997  22.389   7.786
  753POPC   C4B12166  27.723  22.312   7.440
  754POPC   NC312167  44.585  29.630   9.428
  754POPC   PO412168  44.920  30.186   9.471
  754POPC   GL112169  44.726  30.191   9.082
  754POPC   GL212170  44.460  29.949   9.061
  754POPC   C1A12171  44.728  30.075   8.652
  754POPC   D2A12172  44.765  29.659   8.405
  754POPC   C3A12173  44.741  29.762   7.962
  754POPC   C4A12174  44.691  30.180   7.826
  754POPC   C1B12175  44.326  29.769   8.663
  754POPC   C2B12176  44.399  30.015   8.262
  754POPC   C3B12177  44.205  29.922   7.890
  754POPC   C4B12178  44.341  29.570   7.735
  755POPC   NC312179  11.343   1.381   9.426
  755POPC   PO412180  10.901   0.817   9.436
  755POPC   GL112181  11.168   0.990   9.093
  755POPC   GL212182  11.414   0.745   9.076
  755POPC   C1A12183  11.377   1.318   8.760
  755POPC   D2A12184  11.619   1.421   8.354
  755POPC   C3A12185  11.459   1.283   7.947
  755POPC   C4A12186  11.040   1.359   7.733
  755POPC   C1B12187  11.300   0.847   8.633
  755POPC   C2B12188  11.373   0.822   8.254
  755POPC   C3B12189  11.133   0.883   7.926
  755POPC   C4B12190  11.425   0.840   7.689
  756POPC   NC312191  37.493  38.883   9.847
  756POPC   PO412192  37.571  39.441   9.515
  756POPC   GL112193  37.758  39.296   9.139
  756POPC   GL212194  38.055  39.264   9.250
  756POPC   C1A12195  37.579  39.151   8.737
  756POPC   D2A12196  37.405  39.379   8.392
  756POPC   C3A12197  37.497  39.238   8.018
  756POPC   C4A12198  37.686  39.236   7.554
  756POPC   C1B12199  38.109  39.231   8.780
  756POPC   C2B12200  37.930  39.174   8.359
  756POPC   C3B12201  37.942  39.443   8.022
  756POPC   C4B12202  37.898  39.675   7.703
  757POPC   NC312203   3.044  12.307   9.515
  757POPC   PO412204   2.380  12.279   9.442
  757POPC   GL112205   2.634  12.142   9.118
  757POPC   GL212206   2.812  11.880   9.242
  757POPC   C1A12207   2.924  12.322   8.812
  757POPC   D2A12208   3.107  12.218   8.403
  757POPC   C3A12209   2.959  12.390   8.015
  757POPC   C4A12210   2.799  12.174   7.642
  757POPC   C1B12211   3.063  11.761   8.884
  757POPC   C2B12212   3.023  11.701   8.465
  757POPC   C3B12213   2.925  11.864   8.052
  757POPC   C4B12214   3.197  11.836   7.700
  758POPC   NC312215  21.901  31.823   9.790
  758POPC   PO412216  22.488  31.570   9.596
  758POPC   GL112217  22.476  31.498   9.108
  758POPC   GL212218  22.125  31.617   9.003
  758POPC   C1A12219  22.344  31.282   8.691
  758POPC   D2A12220  22.047  31.437   8.371
  758POPC   C3A12221  22.174  31.354   7.934
  758POPC   C4A12222  22.300  31.109   7.527
  758POPC   C1B12223  22.370  31.795   8.656
  758POPC   C2B12224  22.340  31.809   8.197
  758POPC   C3B12225  22.371  31.824   7.773
  758POPC   C4B12226  22.114  31.592   7.497
  759POPC   NC312227  28.131  23.706   9.596
  759POPC   PO412228  27.549  23.805   9.865
  759POPC   GL112229  27.679  23.873   9.350
  759POPC   GL212230  27.411  24.103   9.208
  759POPC   C1A12231  27.705  23.834   8.843
  759POPC   D2A12232  27.735  23.644   8.381
  759POPC   C3A12233  27.453  23.568   7.981
  759POPC   C4A12234  27.662  23.706   7.581
  759POPC   C1B12235  27.377  24.247   8.785
  759POPC   C2B12236  27.631  24.158   8.413
  759POPC   C3B12237  27.646  24.026   8.009
  759POPC   C4B12238  27.528  24.199   7.617
  760POPC   NC312239  32.333  16.807   9.555
  760POPC   PO412240  31.957  16.447   9.117
  760POPC   GL112241  32.259  16.673   9.059
  760POPC   GL212242  32.497  16.437   9.242
  760POPC   C1A12243  32.451  16.814   8.668
  760POPC   D2A12244  32.468  16.931   8.223
  760POPC   C3A12245  32.166  16.756   7.930
  760POPC   C4A12246  32.082  16.734   7.464
  760POPC   C1B12247  32.535  16.300   8.830
  760POPC   C2B12248  32.683  16.352   8.442
  760POPC   C3B12249  32.517  16.365   8.042
  760POPC   C4B12250  32.646  16.684   7.785
  761POPC   NC312251   8.885  20.781   9.479
  761POPC   PO412252   9.274  20.223   9.460
  761POPC   GL112253   9.128  20.429   9.132
  761POPC   GL212254   8.787  20.434   9.094
  761POPC   C1A12255   9.326  20.615   8.809
  761POPC   D2A12256   9.270  20.831   8.438
  761POPC   C3A12257   9.151  20.633   8.067
  761POPC   C4A12258   8.973  20.431   7.708
  761POPC   C1B12259   8.837  20.794   8.816
  761POPC   C2B12260   8.680  20.712   8.431
  761POPC   C3B12261   8.646  20.718   8.025
  761POPC   C4B12262   8.853  20.927   7.725
  762POPC   NC312263   6.831  19.595   9.470
  762POPC   PO412264   6.616  20.256   9.600
  762POPC   GL112265   6.614  19.961   9.221
  762POPC   GL212266   6.968  20.032   9.187
  762POPC   C1A12267   6.650  19.836   8.754
  762POPC   D2A12268   6.453  19.899   8.322
  762POPC   C3A12269   6.617  19.814   7.912
  762POPC   C4A12270   6.768  19.490   7.663
  762POPC   C1B12271   7.002  20.212   8.778
  762POPC   C2B12272   6.974  20.025   8.378
  762POPC   C3B12273   6.969  20.176   7.977
  762POPC   C4B12274   6.830  20.181   7.575
  763POPC   NC312275  24.480  34.059   9.409
  763POPC   PO412276  25.035  33.529   9.426
  763POPC   GL112277  24.633  33.577   9.161
  763POPC   GL212278  24.672  33.862   8.967
  763POPC   C1A12279  24.335  33.563   8.774
  763POPC   D2A12280  24.600  33.575   8.382
  763POPC   C3A12281  24.532  33.677   7.949
  763POPC   C4A12282  24.198  33.541   7.709
  763POPC   C1B12283  24.449  34.082   8.657
  763POPC   C2B12284  24.302  34.028   8.241
  763POPC   C3B12285  24.436  34.211   7.839
  763POPC   C4B12286  24.628  34.130   7.457
  764POPC   NC312287  23.368  18.301   9.603
  764POPC   PO412288  24.040  18.380   9.551
  764POPC   GL112289  23.832  18.239   9.202
  764POPC   GL212290  23.780  17.892   9.159
  764POPC   C1A12291  23.951  18.227   8.766
  764POPC   D2A12292  24.116  18.130   8.365
  764POPC   C3A12293  23.933  18.340   8.031
  764POPC   C4A12294  23.780  18.337   7.614
  764POPC   C1B12295  23.654  17.814   8.722
  764POPC   C2B12296  23.600  18.104   8.363
  764POPC   C3B12297  23.459  18.082   7.930
  764POPC   C4B12298  23.453  17.876   7.523
  765POPC   NC312299  22.996  13.247   9.559
  765POPC   PO412300  23.023  12.617   9.476
  765POPC   GL112301  22.980  12.897   9.156
  765POPC   GL212302  22.645  13.046   9.200
  765POPC   C1A12303  23.086  12.849   8.732
  765POPC   D2A12304  23.174  13.065   8.350
  765POPC   C3A12305  23.162  12.803   7.984
  765POPC   C4A12306  23.047  12.651   7.579
  765POPC   C1B12307  22.729  13.198   8.777
  765POPC   C2B12308  22.687  12.956   8.399
  765POPC   C3B12309  22.708  13.013   7.978
  765POPC   C4B12310  22.425  13.245   7.787
  766POPC   NC312311  13.300  29.416   9.293
  766POPC   PO412312  12.706  29.332   9.612
  766POPC   GL112313  12.868  29.102   9.230
  766POPC   GL212314  13.153  28.870   9.155
  766POPC   C1A12315  12.951  29.176   8.780
  766POPC   D2A12316  13.045  29.390   8.389
  766POPC   C3A12317  12.930  29.211   8.012
  766POPC   C4A12318  12.982  29.329   7.588
  766POPC   C1B12319  13.324  28.818   8.732
  766POPC   C2B12320  13.334  28.959   8.283
  766POPC   C3B12321  13.275  28.809   7.841
  766POPC   C4B12322  13.228  28.890   7.386
  767POPC   NC312323  13.706  18.939   9.459
  767POPC   PO412324  13.862  19.671   9.545
  767POPC   GL112325  13.943  19.314   9.195
  767POPC   GL212326  13.618  19.254   9.064
  767POPC   C1A12327  13.970  18.979   8.802
  767POPC   D2A12328  13.732  18.854   8.395
  767POPC   C3A12329  13.790  19.103   8.018
  767POPC   C4A12330  14.108  19.074   7.726
  767POPC   C1B12331  13.394  19.000   8.789
  767POPC   C2B12332  13.247  18.980   8.408
  767POPC   C3B12333  13.342  18.855   8.028
  767POPC   C4B12334  13.304  19.115   7.713
  768POPC   NC312335  40.419   4.513   9.497
  768POPC   PO412336  41.113   4.313   9.472
  768POPC   GL112337  40.796   4.319   9.164
  768POPC   GL212338  40.572   4.072   9.284
  768POPC   C1A12339  40.829   4.408   8.711
  768POPC   D2A12340  41.100   4.494   8.357
  768POPC   C3A12341  40.853   4.682   8.095
  768POPC   C4A12342  40.622   4.472   7.772
  768POPC   C1B12343  40.612   3.940   8.842
  768POPC   C2B12344  40.318   3.878   8.502
  768POPC   C3B12345  40.353   3.773   8.073
  768POPC   C4B12346  40.487   3.973   7.719
  769POPC   NC312347   5.417   2.031   9.529
  769POPC   PO412348   6.086   1.957   9.521
  769POPC   GL112349   5.836   2.124   9.186
  769POPC   GL212350   5.574   1.908   9.047
  769POPC   C1A12351   5.918   2.166   8.745
  769POPC   D2A12352   6.122   1.971   8.394
  769POPC   C3A12353   6.043   2.251   8.066
  769POPC   C4A12354   5.946   2.076   7.697
  769POPC   C1B12355   5.423   2.004   8.611
  769POPC   C2B12356   5.626   1.933   8.194
  769POPC   C3B12357   5.658   1.656   7.820
  769POPC   C4B12358   5.513   1.698   7.375
  770POPC   NC312359   2.590  33.475   9.752
  770POPC   PO412360   3.046  33.243   9.307
  770POPC   GL112361   2.794  32.967   9.053
  770POPC   GL212362   2.488  32.809   9.061
  770POPC   C1A12363   2.720  33.009   8.639
  770POPC   D2A12364   2.835  33.309   8.345
  770POPC   C3A12365   2.582  33.273   8.007
  770POPC   C4A12366   2.893  32.974   7.871
  770POPC   C1B12367   2.238  32.808   8.694
  770POPC   C2B12368   2.313  32.888   8.269
  770POPC   C3B12369   2.431  32.793   7.817
  770POPC   C4B12370   2.523  32.817   7.310
  771POPC   NC312371  13.307  14.766   9.465
  771POPC   PO412372  13.473  15.324   9.509
  771POPC   GL112373  13.634  15.175   9.128
  771POPC   GL212374  13.869  15.397   8.997
  771POPC   C1A12375  13.649  14.982   8.711
  771POPC   D2A12376  13.350  14.724   8.432
  771POPC   C3A12377  13.327  14.841   7.976
  771POPC   C4A12378  13.721  14.926   7.765
  771POPC   C1B12379  13.711  15.508   8.625
  771POPC   C2B12380  13.842  15.541   8.215
  771POPC   C3B12381  13.668  15.494   7.838
  771POPC   C4B12382  13.264  15.634   7.880
  772POPC   NC312383   4.191   0.467   9.607
  772POPC   PO412384   4.804   0.151   9.733
  772POPC   GL112385   4.632   0.286   9.326
  772POPC   GL212386   4.530   0.041   9.061
  772POPC   C1A12387   4.591   0.546   8.935
  772POPC   D2A12388   4.579   0.668   8.485
  772POPC   C3A12389   4.210   0.623   8.193
  772POPC   C4A12390   4.318   0.592   7.749
  772POPC   C1B12391   4.195  44.915   8.745
  772POPC   C2B12392   4.117   0.124   8.361
  772POPC   C3B12393   4.290   0.117   7.940
  772POPC   C4B12394   4.095   0.205   7.534
  773POPC   NC312395  28.738  19.867   9.542
  773POPC   PO412396  28.134  20.036   9.478
  773POPC   GL112397  28.344  19.895   9.129
  773POPC   GL212398  28.548  20.148   9.073
  773POPC   C1A12399  28.311  19.680   8.726
  773POPC   D2A12400  28.083  19.761   8.335
  773POPC   C3A12401  28.240  19.560   7.922
  773POPC   C4A12402  28.391  19.473   7.504
  773POPC   C1B12403  28.678  20.010   8.662
  773POPC   C2B12404  28.617  19.762   8.270
  773POPC   C3B12405  28.695  19.796   7.812
  773POPC   C4B12406  28.813  20.154   7.554
  774POPC   NC312407  17.096  21.388   9.581
  774POPC   PO412408  16.375  21.205   9.639
  774POPC   GL112409  16.615  21.185   9.247
  774POPC   GL212410  16.383  21.346   9.059
  774POPC   C1A12411  16.828  21.245   8.803
  774POPC   D2A12412  16.886  21.562   8.438
  774POPC   C3A12413  16.948  21.459   7.987
  774POPC   C4A12414  17.049  21.651   7.575
  774POPC   C1B12415  16.382  21.387   8.583
  774POPC   C2B12416  16.442  21.521   8.157
  774POPC   C3B12417  16.522  21.226   7.815
  774POPC   C4B12418  16.460  21.072   7.400
  775POPC   NC312419  26.989  34.691   9.504
  775POPC   PO412420  26.477  34.176   9.543
  775POPC   GL112421  26.591  34.500   9.164
  775POPC   GL212422  26.863  34.754   9.029
  775POPC   C1A12423  26.586  34.504   8.689
  775POPC   D2A12424  26.794  34.302   8.319
  775POPC   C3A12425  26.682  34.285   7.906
  775POPC   C4A12426  26.760  34.367   7.484
  775POPC   C1B12427  26.699  35.000   8.692
  775POPC   C2B12428  26.711  34.828   8.277
  775POPC   C3B12429  26.812  34.790   7.844
  775POPC   C4B12430  27.015  34.797   7.424
  776POPC   NC312431   8.200  33.925   9.722
  776POPC   PO412432   8.555  33.341   9.472
  776POPC   GL112433   8.417  33.516   9.053
  776POPC   GL212434   8.328  33.864   9.081
  776POPC   C1A12435   8.353  33.654   8.616
  776POPC   D2A12436   8.056  33.546   8.362
  776POPC   C3A12437   8.155  33.588   7.965
  776POPC   C4A12438   7.922  33.425   7.629
  776POPC   C1B12439   8.211  34.140   8.736
  776POPC   C2B12440   8.312  34.140   8.310
  776POPC   C3B12441   8.291  34.114   7.888
  776POPC   C4B12442   8.016  33.920   7.600
  777POPC   NC312443  17.430   9.116   9.577
  777POPC   PO412444  17.498   9.754   9.613
  777POPC   GL112445  17.418   9.794   9.203
  777POPC   GL212446  17.253   9.490   9.224
  777POPC   C1A12447  17.591   9.965   8.817
  777POPC   D2A12448  17.644   9.799   8.393
  777POPC   C3A12449  17.554  10.071   8.063
  777POPC   C4A12450  17.417  10.016   7.676
  777POPC   C1B12451  17.474   9.464   8.804
  777POPC   C2B12452  17.258   9.440   8.419
  777POPC   C3B12453  17.380   9.544   8.001
  777POPC   C4B12454  17.324   9.502   7.552
  778POPC   NC312455  32.955   4.991   9.682
  778POPC   PO412456  32.629   5.550   9.441
  778POPC   GL112457  32.909   5.214   9.209
  778POPC   GL212458  32.833   4.959   9.031
  778POPC   C1A12459  33.082   5.313   8.793
  778POPC   D2A12460  32.895   5.164   8.434
  778POPC   C3A12461  33.078   5.128   8.034
  778POPC   C4A12462  33.010   5.195   7.639
  778POPC   C1B12463  32.644   4.774   8.670
  778POPC   C2B12464  32.540   4.824   8.226
  778POPC   C3B12465  32.775   4.755   7.847
  778POPC   C4B12466  32.727   4.831   7.399
  779POPC   NC312467  17.126  17.682   9.522
  779POPC   PO412468  17.667  17.319   9.608
  779POPC   GL112469  17.439  17.376   9.236
  779POPC   GL212470  17.717  17.371   9.063
  779POPC   C1A12471  17.300  17.596   8.833
  779POPC   D2A12472  17.337  17.845   8.428
  779POPC   C3A12473  17.339  17.615   8.018
  779POPC   C4A12474  17.119  17.413   7.639
  779POPC   C1B12475  17.831  17.687   8.768
  779POPC   C2B12476  17.749  17.555   8.368
  779POPC   C3B12477  17.783  17.233   8.084
  779POPC   C4B12478  17.897  17.432   7.711
  780POPC   NC312479  25.251  44.907   9.690
  780POPC   PO412480  24.942  44.362   9.533
  780POPC   GL112481  25.112  44.434   9.115
  780POPC   GL212482  25.160  44.810   9.191
  780POPC   C1A12483  25.281  44.362   8.652
  780POPC   D2A12484  25.561  44.486   8.312
  780POPC   C3A12485  25.412  44.647   7.918
  780POPC   C4A12486  25.087  44.386   7.751
  780POPC   C1B12487  25.041  44.806   8.769
  780POPC   C2B12488  25.148  44.792   8.357
  780POPC   C3B12489  24.933  44.830   7.985
  780POPC   C4B12490  25.035  44.849   7.547
  781POPC   NC312491   8.343  30.319   9.607
  781POPC   PO412492   7.977  30.830   9.404
  781POPC   GL112493   8.158  30.698   9.060
  781POPC   GL212494   8.459  30.530   9.148
  781POPC   C1A12495   8.240  30.469   8.689
  781POPC   D2A12496   8.082  30.516   8.322
  781POPC   C3A12497   8.232  30.442   7.966
  781POPC   C4A12498   8.110  30.704   7.683
  781POPC   C1B12499   8.578  30.818   8.814
  781POPC   C2B12500   8.549  30.745   8.393
  781POPC   C3B12501   8.403  30.924   8.061
  781POPC   C4B12502   8.550  31.024   7.670
  782POPC   NC312503   0.039  44.978   9.541
  782POPC   PO412504   0.704  44.601   9.502
  782POPC   GL112505   0.419  44.783   9.228
  782POPC   GL212506   0.493  44.505   9.014
  782POPC   C1A12507   0.165  44.882   8.864
  782POPC   D2A12508   0.289   0.103   8.487
  782POPC   C3A12509   0.148   0.038   8.081
  782POPC   C4A12510   0.189  44.727   7.726
  782POPC   C1B12511   0.554  44.625   8.607
  782POPC   C2B12512   0.512  44.674   8.168
  782POPC   C3B12513   0.640  44.533   7.781
  782POPC   C4B12514   0.753  44.394   7.385
  783POPC   NC312515  24.569  28.112   9.539
  783POPC   PO412516  24.156  28.662   9.609
  783POPC   GL112517  24.434  28.519   9.231
  783POPC   GL212518  24.366  28.189   9.085
  783POPC   C1A12519  24.635  28.503   8.790
  783POPC   D2A12520  24.466  28.410   8.411
  783POPC   C3A12521  24.699  28.561   8.107
  783POPC   C4A12522  24.572  28.431   7.747
  783POPC   C1B12523  24.156  28.153   8.728
  783POPC   C2B12524  24.019  28.157   8.353
  783POPC   C3B12525  24.144  28.240   7.926
  783POPC   C4B12526  24.215  28.220   7.451
  784POPC   NC312527  36.393  15.045   9.381
  784POPC   PO412528  35.814  15.159   9.563
  784POPC   GL112529  35.923  15.108   9.150
  784POPC   GL212530  35.950  15.444   9.081
  784POPC   C1A12531  36.153  14.944   8.772
  784POPC   D2A12532  36.275  14.792   8.355
  784POPC   C3A12533  36.271  15.150   8.089
  784POPC   C4A12534  36.515  15.387   7.805
  784POPC   C1B12535  36.064  15.453   8.628
  784POPC   C2B12536  35.930  15.524   8.178
  784POPC   C3B12537  35.978  15.462   7.724
  784POPC   C4B12538  35.780  15.422   7.295
  785POPC   NC312539  19.237  27.887   9.419
  785POPC   PO412540  18.793  28.384   9.578
  785POPC   GL112541  18.834  28.081   9.182
  785POPC   GL212542  19.095  28.300   9.095
  785POPC   C1A12543  19.009  28.003   8.705
  785POPC   D2A12544  19.044  28.232   8.270
  785POPC   C3A12545  19.097  28.101   7.811
  785POPC   C4A12546  19.031  28.108   7.359
  785POPC   C1B12547  19.232  28.483   8.687
  785POPC   C2B12548  19.465  28.623   8.319
  785POPC   C3B12549  19.405  28.474   7.941
  785POPC   C4B12550  19.207  28.555   7.549
  786POPC   NC312551  30.384   9.366   9.376
  786POPC   PO412552  30.705   8.764   9.536
  786POPC   GL112553  30.725   8.805   9.070
  786POPC   GL212554  30.702   9.115   9.063
  786POPC   C1A12555  30.692   8.702   8.620
  786POPC   D2A12556  30.519   8.916   8.268
  786POPC   C3A12557  30.689   8.785   7.886
  786POPC   C4A12558  31.113   8.747   7.777
  786POPC   C1B12559  30.407   9.121   8.746
  786POPC   C2B12560  30.159   9.282   8.427
  786POPC   C3B12561  30.253   9.317   8.036
  786POPC   C4B12562  30.429   9.174   7.707
  787POPC   NC312563   9.359   5.139   9.510
  787POPC   PO412564   9.952   4.756   9.480
  787POPC   GL112565   9.704   4.929   9.165
  787POPC   GL212566   9.367   4.776   9.169
  787POPC   C1A12567   9.561   5.114   8.787
  787POPC   D2A12568   9.711   5.247   8.411
  787POPC   C3A12569   9.433   5.221   8.083
  787POPC   C4A12570   9.595   5.155   7.682
  787POPC   C1B12571   9.499   4.604   8.782
  787POPC   C2B12572   9.611   4.734   8.367
  787POPC   C3B12573   9.392   4.726   7.976
  787POPC   C4B12574   9.541   4.495   7.614
  788POPC   NC312575   2.937  41.192   9.477
  788POPC   PO412576   2.491  41.582   9.353
  788POPC   GL112577   2.679  41.372   9.054
  788POPC   GL212578   2.973  41.539   9.079
  788POPC   C1A12579   2.735  41.459   8.633
  788POPC   D2A12580   2.632  41.733   8.356
  788POPC   C3A12581   2.649  41.496   7.980
  788POPC   C4A12582   2.780  41.779   7.707
  788POPC   C1B12583   3.134  41.187   8.782
  788POPC   C2B12584   3.036  41.073   8.350
  788POPC   C3B12585   3.056  41.172   7.890
  788POPC   C4B12586   3.016  41.396   7.487
  789POPC   NC312587   8.518  32.846   9.540
  789POPC   PO412588   9.265  32.977   9.526
  789POPC   GL112589   8.969  32.965   9.197
  789POPC   GL212590   8.873  33.283   9.085
  789POPC   C1A12591   8.955  32.892   8.749
  789POPC   D2A12592   8.852  32.940   8.331
  789POPC   C3A12593   9.008  32.664   8.049
  789POPC   C4A12594   9.054  32.748   7.640
  789POPC   C1B12595   9.167  33.357   8.852
  789POPC   C2B12596   9.065  33.432   8.478
  789POPC   C3B12597   8.807  33.422   8.155
  789POPC   C4B12598   8.898  33.264   7.775
  790POPC   NC312599  38.847  29.352   9.424
  790POPC   PO412600  39.506  29.110   9.461
  790POPC   GL112601  39.264  29.264   9.120
  790POPC   GL212602  39.003  28.989   9.069
  790POPC   C1A12603  39.348  29.231   8.689
  790POPC   D2A12604  39.429  28.964   8.362
  790POPC   C3A12605  39.385  29.139   7.949
  790POPC   C4A12606  39.381  29.036   7.495
  790POPC   C1B12607  38.839  29.207   8.709
  790POPC   C2B12608  39.012  29.317   8.295
  790POPC   C3B12609  38.875  29.220   7.862
  790POPC   C4B12610  38.938  29.279   7.401
  791POPC   NC312611  11.880  30.394   9.419
  791POPC   PO412612  12.001  31.009   9.597
  791POPC   GL112613  11.998  30.833   9.199
  791POPC   GL212614  12.345  30.813   9.202
  791POPC   C1A12615  11.828  30.738   8.786
  791POPC   D2A12616  11.866  30.948   8.393
  791POPC   C3A12617  11.941  30.698   8.027
  791POPC   C4A12618  11.817  30.782   7.610
  791POPC   C1B12619  12.291  30.506   8.872
  791POPC   C2B12620  12.299  30.670   8.450
  791POPC   C3B12621  12.445  30.816   8.061
  791POPC   C4B12622  12.302  30.896   7.656
  792POPC   NC312623   5.456  13.665   9.366
  792POPC   PO412624   6.190  13.514   9.467
  792POPC   GL112625   5.841  13.339   9.214
  792POPC   GL212626   5.844  13.666   9.056
  792POPC   C1A12627   5.626  13.308   8.794
  792POPC   D2A12628   5.777  13.614   8.535
  792POPC   C3A12629   5.612  13.644   8.163
  792POPC   C4A12630   5.808  13.607   7.759
  792POPC   C1B12631   6.207  13.727   8.848
  792POPC   C2B12632   6.304  13.777   8.483
  792POPC   C3B12633   6.135  13.720   8.141
  792POPC   C4B12634   6.319  13.713   7.765
  793POPC   NC312635   5.123  39.007   9.616
  793POPC   PO412636   4.899  39.512   9.325
  793POPC   GL112637   5.205  39.240   9.127
  793POPC   GL212638   4.918  39.038   9.086
  793POPC   C1A12639   5.459  39.263   8.750
  793POPC   D2A12640   5.400  39.513   8.362
  793POPC   C3A12641   5.443  39.267   7.975
  793POPC   C4A12642   5.091  39.167   7.682
  793POPC   C1B12643   4.961  39.285   8.676
  793POPC   C2B12644   5.013  39.175   8.243
  793POPC   C3B12645   4.750  38.934   7.962
  793POPC   C4B12646   4.565  39.273   7.688
  794POPC   NC312647  10.353  15.536   9.468
  794POPC   PO412648  10.951  15.214   9.565
  794POPC   GL112649  10.771  15.236   9.179
  794POPC   GL212650  11.011  14.926   9.107
  794POPC   C1A12651  10.498  15.265   8.808
  794POPC   D2A12652  10.504  14.927   8.486
  794POPC   C3A12653  10.280  14.941   8.099
  794POPC   C4A12654  10.411  14.907   7.683
  794POPC   C1B12655  10.955  15.084   8.720
  794POPC   C2B12656  10.802  15.319   8.361
  794POPC   C3B12657  10.722  15.213   7.958
  794POPC   C4B12658  10.463  15.437   7.699
  795POPC   NC312659  27.272  38.137   9.394
  795POPC   PO412660  27.600  37.667   9.706
  795POPC   GL112661  27.379  37.596   9.236
  795POPC   GL212662  27.162  37.406   9.062
  795POPC   C1A12663  27.510  37.587   8.748
  795POPC   D2A12664  27.554  37.911   8.421
  795POPC   C3A12665  27.781  37.766   8.067
  795POPC   C4A12666  27.590  37.711   7.704
  795POPC   C1B12667  26.987  37.436   8.684
  795POPC   C2B12668  27.116  37.585   8.280
  795POPC   C3B12669  27.235  37.385   7.878
  795POPC   C4B12670  27.429  37.262   7.441
  796POPC   NC312671  28.629   3.855   9.327
  796POPC   PO412672  28.486   3.282   9.633
  796POPC   GL112673  28.292   3.368   9.251
  796POPC   GL212674  28.547   3.443   9.040
  796POPC   C1A12675  28.090   3.628   8.946
  796POPC   D2A12676  28.311   3.657   8.549
  796POPC   C3A12677  28.216   3.620   8.098
  796POPC   C4A12678  28.237   3.827   7.709
  796POPC   C1B12679  28.703   3.276   8.694
  796POPC   C2B12680  28.917   3.120   8.367
  796POPC   C3B12681  29.078   3.310   8.019
  796POPC   C4B12682  28.789   3.304   7.681
  797POPC   NC312683  29.296  43.918   9.411
  797POPC   PO412684  28.857  43.489   9.348
  797POPC   GL112685  29.135  43.625   9.016
  797POPC   GL212686  29.512  43.609   9.013
  797POPC   C1A12687  29.215  43.533   8.588
  797POPC   D2A12688  29.250  43.801   8.248
  797POPC   C3A12689  29.435  43.664   7.898
  797POPC   C4A12690  29.205  43.653   7.552
  797POPC   C1B12691  29.441  43.998   8.722
  797POPC   C2B12692  29.340  44.283   8.348
  797POPC   C3B12693  29.325  44.187   7.863
  797POPC   C4B12694  29.483  44.025   7.397
  798POPC   NC312695  38.736  12.627   9.400
  798POPC   PO412696  39.447  12.595   9.355
  798POPC   GL112697  39.361  12.649   8.955
  798POPC   GL212698  39.007  12.749   8.984
  798POPC   C1A12699  39.210  12.543   8.551
  798POPC   D2A12700  39.035  12.771   8.201
  798POPC   C3A12701  39.356  12.946   7.963
  798POPC   C4A12702  39.660  12.651   7.795
  798POPC   C1B12703  39.144  13.067   8.671
  798POPC   C2B12704  39.168  13.313   8.293
  798POPC   C3B12705  38.922  13.280   7.913
  798POPC   C4B12706  38.880  12.942   7.635
  799POPC   NC312707  13.482   5.628   9.494
  799POPC   PO412708  13.414   6.319   9.433
  799POPC   GL112709  13.538   6.005   9.140
  799POPC   GL212710  13.883   6.037   9.088
  799POPC   C1A12711  13.608   5.922   8.682
  799POPC   D2A12712  13.414   5.721   8.335
  799POPC   C3A12713  13.466   6.003   7.986
  799POPC   C4A12714  13.405   5.800   7.631
  799POPC   C1B12715  13.995   5.642   8.875
  799POPC   C2B12716  14.047   5.642   8.447
  799POPC   C3B12717  13.854   5.693   8.075
  799POPC   C4B12718  13.921   5.756   7.665
  800POPC   NC312719  15.654  31.157   9.418
  800POPC   PO412720  15.035  31.443   9.562
  800POPC   GL112721  15.248  31.410   9.185
  800POPC   GL212722  15.490  31.643   9.246
  800POPC   C1A12723  15.189  31.314   8.756
  800POPC   D2A12724  14.903  31.328   8.424
  800POPC   C3A12725  15.024  31.557   8.099
  800POPC   C4A12726  15.088  31.342   7.733
  800POPC   C1B12727  15.611  31.601   8.813
  800POPC   C2B12728  15.458  31.566   8.393
  800POPC   C3B12729  15.507  31.607   7.941
  800POPC   C4B12730  15.403  31.655   7.501
  801POPC   NC312731  19.794  35.788   9.633
  801POPC   PO412732  19.408  36.328   9.664
  801POPC   GL112733  19.849  36.236   9.319
  801POPC   GL212734  19.838  35.916   9.147
  801POPC   C1A12735  19.917  36.259   8.797
  801POPC   D2A12736  19.578  36.325   8.486
  801POPC   C3A12737  19.761  36.253   8.084
  801POPC   C4A12738  20.062  36.450   7.829
  801POPC   C1B12739  19.606  35.849   8.753
  801POPC   C2B12740  19.489  35.856   8.302
  801POPC   C3B12741  19.543  35.673   7.914
  801POPC   C4B12742  19.920  35.746   7.666
  802POPC   NC312743  12.166  11.430   9.555
  802POPC   PO412744  11.768  10.822   9.559
  802POPC   GL112745  12.062  11.063   9.221
  802POPC   GL212746  12.332  11.316   9.094
  802POPC   C1A12747  11.913  11.276   8.824
  802POPC   D2A12748  11.824  11.121   8.429
  802POPC   C3A12749  12.004  11.285   8.047
  802POPC   C4A12750  12.010  11.046   7.645
  802POPC   C1B12751  12.360  10.989   8.756
  802POPC   C2B12752  12.533  10.901   8.326
  802POPC   C3B12753  12.441  11.027   7.904
  802POPC   C4B12754  12.516  11.073   7.454
  803POPC   NC312755  11.117  32.104   9.273
  803POPC   PO412756  11.686  32.532   9.434
  803POPC   GL112757  11.562  32.419   9.016
  803POPC   GL212758  11.248  32.589   9.059
  803POPC   C1A12759  11.335  32.293   8.611
  803POPC   D2A12760  10.947  32.112   8.376
  803POPC   C3A12761  11.067  31.885   7.998
  803POPC   C4A12762  11.459  31.935   7.729
  803POPC   C1B12763  11.470  32.795   8.678
  803POPC   C2B12764  11.468  32.674   8.263
  803POPC   C3B12765  11.251  32.385   8.015
  803POPC   C4B12766  11.571  32.442   7.768
  804POPC   NC312767  41.445  19.318   9.575
  804POPC   PO412768  41.392  18.679   9.248
  804POPC   GL112769  41.671  19.042   9.186
  804POPC   GL212770  41.503  19.361   9.084
  804POPC   C1A12771  41.845  19.104   8.785
  804POPC   D2A12772  41.784  18.855   8.432
  804POPC   C3A12773  41.983  18.838   8.048
  804POPC   C4A12774  41.647  18.774   7.777
  804POPC   C1B12775  41.346  19.240   8.700
  804POPC   C2B12776  41.583  19.352   8.358
  804POPC   C3B12777  41.548  19.248   7.946
  804POPC   C4B12778  41.470  19.428   7.527
  805POPC   NC312779  25.781  26.935   9.558
  805POPC   PO412780  25.274  27.318   9.746
  805POPC   GL112781  25.313  27.111   9.305
  805POPC   GL212782  25.478  26.785   9.156
  805POPC   C1A12783  25.294  27.174   8.841
  805POPC   D2A12784  25.042  27.007   8.478
  805POPC   C3A12785  25.090  27.126   8.046
  805POPC   C4A12786  25.093  26.967   7.625
  805POPC   C1B12787  25.362  26.673   8.719
  805POPC   C2B12788  25.468  26.801   8.261
  805POPC   C3B12789  25.415  26.663   7.821
  805POPC   C4B12790  25.377  26.650   7.329
  806POPC   NC312791  12.526  26.607   9.235
  806POPC   PO412792  13.019  26.757   9.647
  806POPC   GL112793  12.961  26.936   9.243
  806POPC   GL212794  13.026  26.578   9.159
  806POPC   C1A12795  12.741  27.130   8.873
  806POPC   D2A12796  12.763  26.936   8.511
  806POPC   C3A12797  12.808  27.048   8.099
  806POPC   C4A12798  12.582  26.782   7.834
  806POPC   C1B12799  13.186  26.511   8.766
  806POPC   C2B12800  13.184  26.705   8.380
  806POPC   C3B12801  13.059  26.612   7.994
  806POPC   C4B12802  13.329  26.438   7.724
  807POPC   NC312803   4.151   6.026   9.346
  807POPC   PO412804   4.656   5.686   9.756
  807POPC   GL112805   4.649   5.618   9.270
  807POPC   GL212806   4.333   5.606   9.138
  807POPC   C1A12807   4.618   5.820   8.808
  807POPC   D2A12808   4.397   6.107   8.521
  807POPC   C3A12809   4.489   5.964   8.105
  807POPC   C4A12810   4.303   6.028   7.731
  807POPC   C1B12811   4.300   5.424   8.779
  807POPC   C2B12812   4.284   5.602   8.410
  807POPC   C3B12813   4.005   5.616   8.101
  807POPC   C4B12814   4.130   5.554   7.728
  808POPC   NC312815   1.865  26.508   9.359
  808POPC   PO412816   1.608  25.888   9.295
  808POPC   GL112817   1.873  26.110   9.055
  808POPC   GL212818   2.232  26.136   9.175
  808POPC   C1A12819   1.790  26.134   8.650
  808POPC   D2A12820   1.847  25.934   8.270
  808POPC   C3A12821   1.630  25.916   7.892
  808POPC   C4A12822   1.805  26.117   7.481
  808POPC   C1B12823   2.224  25.913   8.745
  808POPC   C2B12824   2.345  25.857   8.278
  808POPC   C3B12825   2.161  25.929   7.846
  808POPC   C4B12826   2.264  25.896   7.417
  809POPC   NC312827  38.648  26.564   9.399
  809POPC   PO412828  38.503  27.140   9.380
  809POPC   GL112829  38.335  26.933   9.091
  809POPC   GL212830  38.013  27.164   9.119
  809POPC   C1A12831  38.364  26.589   8.799
  809POPC   D2A12832  38.489  26.392   8.417
  809POPC   C3A12833  38.429  26.611   8.069
  809POPC   C4A12834  38.292  26.945   7.839
  809POPC   C1B12835  38.299  27.227   8.713
  809POPC   C2B12836  38.438  27.027   8.364
  809POPC   C3B12837  38.650  27.232   8.030
  809POPC   C4B12838  38.444  27.397   7.660
  810POPC   NC312839   3.350  20.580   9.260
  810POPC   PO412840   2.755  20.471   9.669
  810POPC   GL112841   2.617  20.569   9.232
  810POPC   GL212842   2.821  20.820   9.060
  810POPC   C1A12843   2.475  20.503   8.783
  810POPC   D2A12844   2.625  20.466   8.341
  810POPC   C3A12845   2.526  20.806   8.049
  810POPC   C4A12846   2.518  21.009   7.648
  810POPC   C1B12847   2.987  20.547   8.715
  810POPC   C2B12848   3.167  20.298   8.385
  810POPC   C3B12849   3.256  20.426   7.967
  810POPC   C4B12850   2.949  20.703   7.760
  811POPC   NC312851   2.357  21.085   9.890
  811POPC   PO412852   2.643  21.672   9.596
  811POPC   GL112853   2.704  21.569   9.127
  811POPC   GL212854   2.487  21.292   8.970
  811POPC   C1A12855   2.869  21.525   8.682
  811POPC   D2A12856   2.663  21.311   8.307
  811POPC   C3A12857   2.929  21.194   7.944
  811POPC   C4A12858   2.998  21.145   7.502
  811POPC   C1B12859   2.376  21.662   8.704
  811POPC   C2B12860   2.415  21.756   8.256
  811POPC   C3B12861   2.404  21.499   7.849
  811POPC   C4B12862   2.355  21.397   7.377
  812POPC   NC312863  35.653  27.505   9.434
  812POPC   PO412864  35.063  27.724   9.514
  812POPC   GL112865  35.308  27.804   9.192
  812POPC   GL212866  35.182  28.069   9.066
  812POPC   C1A12867  35.321  27.582   8.820
  812POPC   D2A12868  35.483  27.565   8.427
  812POPC   C3A12869  35.285  27.634   8.067
  812POPC   C4A12870  35.267  27.417   7.688
  812POPC   C1B12871  35.121  28.274   8.693
  812POPC   C2B12872  35.164  28.091   8.305
  812POPC   C3B12873  35.290  28.111   7.893
  812POPC   C4B12874  35.486  27.872   7.573
  813POPC   NC312875  30.311   8.915   9.743
  813POPC   PO412876  29.883   9.314   9.411
  813POPC   GL112877  29.940   8.965   9.188
  813POPC   GL212878  30.258   8.877   9.213
  813POPC   C1A12879  29.912   8.987   8.765
  813POPC   D2A12880  29.700   8.986   8.403
  813POPC   C3A12881  29.778   9.139   8.025
  813POPC   C4A12882  29.707   8.873   7.686
  813POPC   C1B12883  30.247   8.620   8.840
  813POPC   C2B12884  30.091   8.651   8.403
  813POPC   C3B12885  30.152   8.779   7.945
  813POPC   C4B12886  30.312   8.710   7.505
  814POPC   NC312887  17.178  15.994   9.424
  814POPC   PO412888  17.665  15.683   9.764
  814POPC   GL112889  17.735  15.740   9.254
  814POPC   GL212890  17.457  15.932   9.013
  814POPC   C1A12891  17.885  15.819   8.798
  814POPC   D2A12892  17.554  15.878   8.456
  814POPC   C3A12893  17.735  15.974   8.069
  814POPC   C4A12894  17.690  16.280   7.714
  814POPC   C1B12895  17.427  16.314   8.714
  814POPC   C2B12896  17.254  16.377   8.288
  814POPC   C3B12897  17.268  16.080   7.922
  814POPC   C4B12898  17.234  16.117   7.499
  815POPC   NC312899  43.516  23.201   9.619
  815POPC   PO412900  44.069  22.835   9.679
  815POPC   GL112901  43.830  22.849   9.315
  815POPC   GL212902  43.865  23.192   9.239
  815POPC   C1A12903  43.846  22.831   8.859
  815POPC   D2A12904  43.764  22.903   8.413
  815POPC   C3A12905  44.057  22.729   8.094
  815POPC   C4A12906  44.023  22.520   7.670
  815POPC   C1B12907  43.996  23.304   8.829
  815POPC   C2B12908  44.182  23.207   8.445
  815POPC   C3B12909  44.005  23.227   7.992
  815POPC   C4B12910  44.235  23.386   7.596
  816POPC   NC312911  37.700  27.457   9.554
  816POPC   PO412912  37.631  28.145   9.431
  816POPC   GL112913  37.785  27.791   9.179
  816POPC   GL212914  37.539  27.560   9.088
  816POPC   C1A12915  37.923  27.548   8.773
  816POPC   D2A12916  37.934  27.258   8.367
  816POPC   C3A12917  37.971  27.474   7.959
  816POPC   C4A12918  37.976  27.527   7.500
  816POPC   C1B12919  37.553  27.224   8.834
  816POPC   C2B12920  37.482  27.456   8.464
  816POPC   C3B12921  37.478  27.346   8.052
  816POPC   C4B12922  37.515  27.523   7.683
  817POPC   NC312923   4.162  16.906   9.316
  817POPC   PO412924   4.658  16.424   9.392
  817POPC   GL112925   4.416  16.517   9.088
  817POPC   GL212926   4.184  16.255   9.210
  817POPC   C1A12927   4.542  16.834   8.771
  817POPC   D2A12928   4.467  17.117   8.431
  817POPC   C3A12929   4.594  16.981   8.048
  817POPC   C4A12930   4.317  17.060   7.712
  817POPC   C1B12931   3.937  16.401   8.850
  817POPC   C2B12932   4.025  16.748   8.561
  817POPC   C3B12933   4.143  16.757   8.122
  817POPC   C4B12934   4.185  16.543   7.724
  818POPC   NC312935  17.927   3.097   9.388
  818POPC   PO412936  17.771   2.495   9.328
  818POPC   GL112937  17.550   2.661   9.022
  818POPC   GL212938  17.410   2.929   9.173
  818POPC   C1A12939  17.675   2.761   8.628
  818POPC   D2A12940  17.811   2.573   8.256
  818POPC   C3A12941  17.731   2.706   7.830
  818POPC   C4A12942  17.763   2.767   7.382
  818POPC   C1B12943  17.410   3.175   8.790
  818POPC   C2B12944  17.577   3.233   8.380
  818POPC   C3B12945  17.482   3.128   7.997
  818POPC   C4B12946  17.384   3.053   7.599
  819POPC   NC312947  44.391  13.726   9.397
  819POPC   PO412948  43.774  13.935   9.569
  819POPC   GL112949  43.934  13.954   9.153
  819POPC   GL212950  44.028  13.614   9.060
  819POPC   C1A12951  43.819  13.881   8.696
  819POPC   D2A12952  43.980  13.586   8.357
  819POPC   C3A12953  44.006  13.769   7.952
  819POPC   C4A12954  43.638  14.031   7.895
  819POPC   C1B12955  44.055  13.274   8.754
  819POPC   C2B12956  44.245  13.147   8.386
  819POPC   C3B12957  44.039  13.220   7.986
  819POPC   C4B12958  43.977  13.330   7.563
  820POPC   NC312959  10.742  10.319   9.557
  820POPC   PO412960  10.693  11.042   9.435
  820POPC   GL112961  10.560  10.816   9.062
  820POPC   GL212962  10.402  10.505   9.198
  820POPC   C1A12963  10.313  10.717   8.715
  820POPC   D2A12964  10.137  10.652   8.317
  820POPC   C3A12965  10.458  10.566   8.012
  820POPC   C4A12966  10.553  10.694   7.620
  820POPC   C1B12967  10.597  10.306   8.865
  820POPC   C2B12968  10.651  10.385   8.450
  820POPC   C3B12969  10.894  10.181   8.141
  820POPC   C4B12970  10.761  10.228   7.727
  821POPC   NC312971  38.532  10.172   9.668
  821POPC   PO412972  38.423  10.830   9.625
  821POPC   GL112973  38.351  10.534   9.317
  821POPC   GL212974  38.653  10.364   9.217
  821POPC   C1A12975  38.327  10.571   8.883
  821POPC   D2A12976  38.268  10.337   8.521
  821POPC   C3A12977  38.471  10.500   8.167
  821POPC   C4A12978  38.227  10.628   7.821
  821POPC   C1B12979  38.639  10.144   8.846
  821POPC   C2B12980  38.754  10.138   8.431
  821POPC   C3B12981  38.663  10.039   8.016
  821POPC   C4B12982  38.616  10.318   7.673
  822POPC   NC312983  35.717  34.541   9.323
  822POPC   PO412984  36.411  34.838   9.449
  822POPC   GL112985  36.159  34.693   9.092
  822POPC   GL212986  36.102  34.336   8.994
  822POPC   C1A12987  36.006  34.688   8.666
  822POPC   D2A12988  36.120  34.570   8.308
  822POPC   C3A12989  36.136  34.829   8.000
  822POPC   C4A12990  36.275  34.810   7.611
  822POPC   C1B12991  35.840  34.173   8.644
  822POPC   C2B12992  35.619  34.453   8.354
  822POPC   C3B12993  35.766  34.413   7.958
  822POPC   C4B12994  36.124  34.295   7.755
  823POPC   NC312995   4.971  34.258   9.604
  823POPC   PO412996   4.678  34.826   9.313
  823POPC   GL112997   4.932  34.659   9.048
  823POPC   GL212998   5.135  34.492   9.197
  823POPC   C1A12999   4.974  34.668   8.647
  823POPC   D2A13000   4.815  34.520   8.308
  823POPC   C3A13001   5.027  34.744   8.017
  823POPC   C4A13002   4.783  34.980   7.773
  823POPC   C1B13003   5.346  34.363   8.819
  823POPC   C2B13004   5.282  34.216   8.442
  823POPC   C3B13005   5.378  34.347   8.044
  823POPC   C4B13006   5.182  34.384   7.674
  824POPC   NC313007  41.046  14.972   9.431
  824POPC   PO413008  41.673  15.298   9.522
  824POPC   GL113009  41.601  15.372   9.127
  824POPC   GL213010  41.266  15.300   9.097
  824POPC   C1A13011  41.626  15.126   8.765
  824POPC   D2A13012  41.546  15.266   8.382
  824POPC   C3A13013  41.667  15.099   8.023
  824POPC   C4A13014  41.431  15.131   7.648
  824POPC   C1B13015  41.261  15.548   8.721
  824POPC   C2B13016  41.435  15.762   8.357
  824POPC   C3B13017  41.335  15.525   7.996
  824POPC   C4B13018  41.150  15.570   7.610
  825POPC   NC313019  41.076  22.673   9.514
  825POPC   PO413020  40.389  22.869   9.459
  825POPC   GL113021  40.520  22.934   9.069
  825POPC   GL213022  40.828  22.877   9.128
  825POPC   C1A13023  40.682  23.213   8.750
  825POPC   D2A13024  40.911  23.166   8.350
  825POPC   C3A13025  40.736  22.923   8.013
  825POPC   C4A13026  40.577  23.136   7.672
  825POPC   C1B13027  40.879  22.731   8.734
  825POPC   C2B13028  41.024  22.618   8.350
  825POPC   C3B13029  41.151  22.500   7.968
  825POPC   C4B13030  40.985  22.690   7.600
  826POPC   NC313031  43.406  20.924   9.455
  826POPC   PO413032  42.939  20.534   9.329
  826POPC   GL113033  43.021  20.617   8.978
  826POPC   GL213034  43.301  20.399   8.937
  826POPC   C1A13035  42.820  20.654   8.596
  826POPC   D2A13036  43.010  20.735   8.162
  826POPC   C3A13037  42.681  20.791   7.881
  826POPC   C4A13038  42.619  20.742   7.416
  826POPC   C1B13039  43.328  20.701   8.601
  826POPC   C2B13040  43.533  20.678   8.239
  826POPC   C3B13041  43.420  20.860   7.864
  826POPC   C4B13042  43.087  20.792   7.586
  827POPC   NC313043  42.063  33.793   9.374
  827POPC   PO413044  42.741  33.729   9.554
  827POPC   GL113045  42.572  33.774   9.088
  827POPC   GL213046  42.294  33.940   8.957
  827POPC   C1A13047  42.709  33.574   8.665
  827POPC   D2A13048  42.525  33.467   8.231
  827POPC   C3A13049  42.397  33.808   7.937
  827POPC   C4A13050  42.553  34.244   7.944
  827POPC   C1B13051  42.222  33.728   8.597
  827POPC   C2B13052  41.983  33.815   8.254
  827POPC   C3B13053  41.771  33.829   7.909
  827POPC   C4B13054  41.957  33.517   7.681
  828POPC   NC313055  11.108   5.504   9.468
  828POPC   PO413056  11.444   6.024   9.550
  828POPC   GL113057  11.241   5.897   9.150
  828POPC   GL213058  11.426   5.580   9.085
  828POPC   C1A13059  11.284   5.875   8.676
  828POPC   D2A13060  11.193   5.749   8.269
  828POPC   C3A13061  11.452   5.925   7.931
  828POPC   C4A13062  11.447   5.999   7.476
  828POPC   C1B13063  11.029   5.463   8.824
  828POPC   C2B13064  10.997   5.256   8.404
  828POPC   C3B13065  10.913   5.421   7.982
  828POPC   C4B13066  11.175   5.603   7.674
  829POPC   NC313067  13.798   0.890   9.433
  829POPC   PO413068  13.569   1.584   9.450
  829POPC   GL113069  13.549   1.229   9.105
  829POPC   GL213070  13.887   1.095   8.988
  829POPC   C1A13071  13.376   1.090   8.690
  829POPC   D2A13072  13.376   1.431   8.383
  829POPC   C3A13073  13.510   1.405   7.955
  829POPC   C4A13074  13.429   1.078   7.696
  829POPC   C1B13075  13.848   1.260   8.592
  829POPC   C2B13076  13.700   1.023   8.250
  829POPC   C3B13077  13.931   1.051   7.897
  829POPC   C4B13078  13.976   1.466   7.780
  830POPC   NC313079  23.324  23.172   9.450
  830POPC   PO413080  22.745  22.839   9.687
  830POPC   GL113081  22.709  22.918   9.202
  830POPC   GL213082  22.569  23.207   9.024
  830POPC   C1A13083  22.765  22.709   8.768
  830POPC   D2A13084  23.183  22.791   8.521
  830POPC   C3A13085  23.136  22.710   8.055
  830POPC   C4A13086  22.709  22.688   7.868
  830POPC   C1B13087  22.851  23.195   8.697
  830POPC   C2B13088  22.758  22.992   8.303
  830POPC   C3B13089  22.920  23.163   7.960
  830POPC   C4B13090  23.228  23.444   8.084
  831POPC   NC313091  10.634  34.036   9.465
  831POPC   PO413092  10.317  33.514   9.571
  831POPC   GL113093  10.571  33.608   9.191
  831POPC   GL213094  10.286  33.847   9.144
  831POPC   C1A13095  10.590  33.752   8.746
  831POPC   D2A13096  10.399  33.931   8.384
  831POPC   C3A13097  10.619  33.859   8.020
  831POPC   C4A13098  10.505  33.748   7.612
  831POPC   C1B13099  10.180  33.476   8.903
  831POPC   C2B13100  10.088  33.540   8.473
  831POPC   C3B13101  10.177  33.591   8.021
  831POPC   C4B13102  10.051  33.928   7.749
  832POPC   NC313103  42.704  31.682   9.623
  832POPC   PO413104  42.099  31.846   9.680
  832POPC   GL113105  42.259  31.556   9.344
  832POPC   GL213106  42.486  31.249   9.308
  832POPC   C1A13107  42.358  31.607   8.920
  832POPC   D2A13108  42.428  31.836   8.547
  832POPC   C3A13109  42.341  31.777   8.121
  832POPC   C4A13110  42.619  31.666   7.806
  832POPC   C1B13111  42.529  31.135   8.857
  832POPC   C2B13112  42.340  31.318   8.478
  832POPC   C3B13113  42.452  31.250   8.051
  832POPC   C4B13114  42.591  31.214   7.599
  833POPC   NC313115  40.336  23.979   9.578
  833POPC   PO413116  39.651  24.192   9.515
  833POPC   GL113117  39.887  24.305   9.159
  833POPC   GL213118  40.183  24.089   9.113
  833POPC   C1A13119  39.748  24.540   8.782
  833POPC   D2A13120  39.787  24.818   8.427
  833POPC   C3A13121  39.724  24.624   8.058
  833POPC   C4A13122  39.827  24.463   7.678
  833POPC   C1B13123  40.212  24.326   8.765
  833POPC   C2B13124  40.121  24.446   8.333
  833POPC   C3B13125  40.294  24.575   7.910
  833POPC   C4B13126  40.395  24.432   7.475
  834POPC   NC313127  16.546   2.460   9.415
  834POPC   PO413128  17.015   2.960   9.514
  834POPC   GL113129  16.878   2.816   9.136
  834POPC   GL213130  17.041   2.548   9.053
  834POPC   C1A13131  16.624   2.753   8.776
  834POPC   D2A13132  16.556   2.957   8.393
  834POPC   C3A13133  16.626   2.741   8.041
  834POPC   C4A13134  16.405   2.660   7.664
  834POPC   C1B13135  17.136   2.766   8.682
  834POPC   C2B13136  17.303   2.753   8.277
  834POPC   C3B13137  17.224   2.616   7.872
  834POPC   C4B13138  16.916   2.758   7.623
  835POPC   NC313139  20.397  10.202   9.599
  835POPC   PO413140  20.979  10.347   9.735
  835POPC   GL113141  20.694  10.477   9.266
  835POPC   GL213142  20.466  10.782   9.138
  835POPC   C1A13143  20.578  10.499   8.750
  835POPC   D2A13144  20.480  10.788   8.358
  835POPC   C3A13145  20.333  10.592   7.953
  835POPC   C4A13146  20.302  10.125   7.812
  835POPC   C1B13147  20.714  11.022   8.787
  835POPC   C2B13148  20.967  10.985   8.375
  835POPC   C3B13149  20.814  10.940   7.935
  835POPC   C4B13150  20.552  10.913   7.573
  836POPC   NC313151   6.124  30.833   9.508
  836POPC   PO413152   5.471  30.547   9.537
  836POPC   GL113153   5.737  30.596   9.131
  836POPC   GL213154   6.111  30.626   9.054
  836POPC   C1A13155   5.837  30.548   8.656
  836POPC   D2A13156   5.668  30.823   8.330
  836POPC   C3A13157   5.784  30.870   7.933
  836POPC   C4A13158   5.869  30.598   7.620
  836POPC   C1B13159   6.232  30.946   8.764
  836POPC   C2B13160   6.211  30.817   8.348
  836POPC   C3B13161   6.264  30.728   7.946
  836POPC   C4B13162   6.234  30.938   7.549
  837POPC   NC313163  16.828  11.714   9.417
  837POPC   PO413164  16.813  11.071   9.453
  837POPC   GL113165  16.700  11.262   9.102
  837POPC   GL213166  17.002  11.434   9.012
  837POPC   C1A13167  16.496  11.334   8.712
  837POPC   D2A13168  16.648  11.628   8.396
  837POPC   C3A13169  16.567  11.500   8.005
  837POPC   C4A13170  16.318  11.248   7.756
  837POPC   C1B13171  17.002  11.060   8.730
  837POPC   C2B13172  17.018  10.959   8.289
  837POPC   C3B13173  16.935  11.181   7.922
  837POPC   C4B13174  16.941  11.013   7.511
  838POPC   NC313175  34.131  11.923   9.357
  838POPC   PO413176  33.767  12.440   9.454
  838POPC   GL113177  33.840  12.260   9.089
  838POPC   GL213178  33.588  12.000   9.135
  838POPC   C1A13179  33.860  12.092   8.676
  838POPC   D2A13180  33.990  12.277   8.259
  838POPC   C3A13181  33.939  12.112   7.815
  838POPC   C4A13182  33.871  11.954   7.388
  838POPC   C1B13183  33.385  12.303   8.844
  838POPC   C2B13184  33.434  12.197   8.423
  838POPC   C3B13185  33.509  12.319   8.025
  838POPC   C4B13186  33.463  12.240   7.618
  839POPC   NC313187  19.597   9.926   9.577
  839POPC   PO413188  20.215   9.835   9.385
  839POPC   GL113189  19.850  10.026   9.130
  839POPC   GL213190  19.474   9.861   9.081
  839POPC   C1A13191  19.747  10.056   8.671
  839POPC   D2A13192  19.577   9.846   8.277
  839POPC   C3A13193  19.850   9.872   7.906
  839POPC   C4A13194  19.920   9.886   7.447
  839POPC   C1B13195  19.776   9.576   8.876
  839POPC   C2B13196  19.859   9.365   8.489
  839POPC   C3B13197  19.861   9.358   8.051
  839POPC   C4B13198  19.727   9.432   7.639
  840POPC   NC313199  14.054  10.463   9.435
  840POPC   PO413200  13.341  10.515   9.575
  840POPC   GL113201  13.533  10.503   9.167
  840POPC   GL213202  13.785  10.254   9.061
  840POPC   C1A13203  13.525  10.530   8.719
  840POPC   D2A13204  13.768  10.474   8.367
  840POPC   C3A13205  13.508  10.587   8.028
  840POPC   C4A13206  13.788  10.645   7.713
  840POPC   C1B13207  13.969  10.013   8.737
  840POPC   C2B13208  13.831   9.937   8.334
  840POPC   C3B13209  13.760  10.136   7.941
  840POPC   C4B13210  13.982  10.144   7.568
  841POPC   NC313211  34.891  31.835   9.468
  841POPC   PO413212  35.384  31.425   9.473
  841POPC   GL113213  35.559  31.357   9.090
  841POPC   GL213214  35.786  31.635   9.143
  841POPC   C1A13215  35.371  31.198   8.692
  841POPC   D2A13216  35.321  31.351   8.277
  841POPC   C3A13217  35.279  31.204   7.858
  841POPC   C4A13218  34.978  31.294   7.539
  841POPC   C1B13219  35.663  31.789   8.753
  841POPC   C2B13220  35.766  31.604   8.371
  841POPC   C3B13221  35.675  31.531   7.942
  841POPC   C4B13222  35.446  31.612   7.568
  842POPC   NC313223  35.956  10.611   9.383
  842POPC   PO413224  36.351  10.134   9.551
  842POPC   GL113225  36.267  10.313   9.124
  842POPC   GL213226  36.354  10.626   9.031
  842POPC   C1A13227  35.988  10.406   8.756
  842POPC   D2A13228  35.851  10.682   8.410
  842POPC   C3A13229  35.989  10.505   8.053
  842POPC   C4A13230  36.106  10.441   7.656
  842POPC   C1B13231  36.304  10.800   8.626
  842POPC   C2B13232  36.352  10.845   8.198
  842POPC   C3B13233  36.529  10.690   7.833
  842POPC   C4B13234  36.440  10.769   7.404
  843POPC   NC313235  13.963  24.235   9.285
  843POPC   PO413236  14.512  24.578   9.461
  843POPC   GL113237  14.389  24.436   9.096
  843POPC   GL213238  14.472  24.114   9.188
  843POPC   C1A13239  14.172  24.509   8.728
  843POPC   D2A13240  14.395  24.581   8.400
  843POPC   C3A13241  14.213  24.483   8.023
  843POPC   C4A13242  14.302  24.671   7.630
  843POPC   C1B13243  14.400  24.056   8.736
  843POPC   C2B13244  14.582  24.107   8.325
  843POPC   C3B13245  14.380  24.020   7.952
  843POPC   C4B13246  14.319  24.165   7.537
  844POPC   NC313247  38.831  33.402   9.378
  844POPC   PO413248  38.413  32.964   9.727
  844POPC   GL113249  38.348  32.952   9.217
  844POPC   GL213250  38.677  32.936   9.229
  844POPC   C1A13251  38.506  33.160   8.796
  844POPC   D2A13252  38.548  33.451   8.431
  844POPC   C3A13253  38.401  33.341   8.008
  844POPC   C4A13254  38.308  33.069   7.677
  844POPC   C1B13255  38.700  32.682   8.861
  844POPC   C2B13256  38.563  32.805   8.458
  844POPC   C3B13257  38.588  32.871   8.061
  844POPC   C4B13258  38.727  32.606   7.783
  845POPC   NC313259  15.449   0.837   9.842
  845POPC   PO413260  15.023   0.306   9.782
  845POPC   GL113261  15.049   0.456   9.306
  845POPC   GL213262  14.831   0.760   9.251
  845POPC   C1A13263  15.259   0.407   8.881
  845POPC   D2A13264  15.282   0.106   8.500
  845POPC   C3A13265  15.266   0.312   8.158
  845POPC   C4A13266  15.348   0.339   7.781
  845POPC   C1B13267  14.770   0.680   8.804
  845POPC   C2B13268  14.872   0.564   8.364
  845POPC   C3B13269  14.958   0.678   7.950
  845POPC   C4B13270  15.331   0.853   7.734
  846POPC   NC313271  37.025  37.083   9.332
  846POPC   PO413272  36.841  36.458   9.517
  846POPC   GL113273  36.994  36.593   9.163
  846POPC   GL213274  36.674  36.768   9.110
  846POPC   C1A13275  37.119  36.712   8.763
  846POPC   D2A13276  36.932  36.729   8.368
  846POPC   C3A13277  37.121  36.839   7.960
  846POPC   C4A13278  37.094  37.205   7.703
  846POPC   C1B13279  36.707  37.028   8.745
  846POPC   C2B13280  36.517  37.035   8.361
  846POPC   C3B13281  36.607  36.821   7.978
  846POPC   C4B13282  36.658  36.964   7.570
  847POPC   NC313283   1.949  12.446   9.458
  847POPC   PO413284   2.090  13.140   9.546
  847POPC   GL113285   2.171  13.161   9.131
  847POPC   GL213286   2.099  12.795   9.121
  847POPC   C1A13287   1.896  13.108   8.758
  847POPC   D2A13288   1.728  12.927   8.378
  847POPC   C3A13289   1.878  13.100   8.017
  847POPC   C4A13290   1.723  13.020   7.662
  847POPC   C1B13291   1.933  12.611   8.733
  847POPC   C2B13292   2.053  12.542   8.316
  847POPC   C3B13293   1.893  12.595   7.897
  847POPC   C4B13294   1.950  12.503   7.428
  848POPC   NC313295  37.786  36.666   9.699
  848POPC   PO413296  37.446  37.174   9.513
  848POPC   GL113297  37.462  36.951   9.135
  848POPC   GL213298  37.773  36.933   9.086
  848POPC   C1A13299  37.436  37.132   8.730
  848POPC   D2A13300  37.420  36.926   8.369
  848POPC   C3A13301  37.634  36.972   7.997
  848POPC   C4A13302  37.554  36.754   7.630
  848POPC   C1B13303  37.890  36.819   8.660
  848POPC   C2B13304  38.102  36.848   8.219
  848POPC   C3B13305  38.062  36.694   7.766
  848POPC   C4B13306  37.944  36.754   7.306
  849POPC   NC313307  29.204  39.057   9.464
  849POPC   PO413308  29.770  39.315   9.626
  849POPC   GL113309  29.438  39.423   9.159
  849POPC   GL213310  29.049  39.368   9.105
  849POPC   C1A13311  29.284  39.489   8.685
  849POPC   D2A13312  28.947  39.263   8.426
  849POPC   C3A13313  28.898  39.418   8.027
  849POPC   C4A13314  29.118  39.365   7.659
  849POPC   C1B13315  29.123  38.990   8.823
  849POPC   C2B13316  29.411  39.020   8.488
  849POPC   C3B13317  29.373  39.209   8.088
  849POPC   C4B13318  29.603  39.212   7.703
  850POPC   NC313319  12.340  35.251   9.804
  850POPC   PO413320  12.812  35.481   9.337
  850POPC   GL113321  12.865  35.304   8.953
  850POPC   GL213322  12.718  35.024   8.932
  850POPC   C1A13323  13.051  35.228   8.547
  850POPC   D2A13324  13.230  35.536   8.232
  850POPC   C3A13325  13.128  35.377   7.838
  850POPC   C4A13326  13.309  35.373   7.421
  850POPC   C1B13327  12.457  35.208   8.616
  850POPC   C2B13328  12.341  35.227   8.185
  850POPC   C3B13329  12.505  35.466   7.852
  850POPC   C4B13330  12.765  35.348   7.478
  851POPC   NC313331  36.617  38.483   9.578
  851POPC   PO413332  37.268  38.605   9.540
  851POPC   GL113333  37.010  38.348   9.227
  851POPC   GL213334  36.847  38.057   9.352
  851POPC   C1A13335  36.947  38.415   8.761
  851POPC   D2A13336  36.792  38.430   8.317
  851POPC   C3A13337  37.062  38.643   8.017
  851POPC   C4A13338  37.333  38.876   7.732
  851POPC   C1B13339  36.812  37.951   8.899
  851POPC   C2B13340  36.852  37.883   8.438
  851POPC   C3B13341  36.639  37.953   8.036
  851POPC   C4B13342  36.635  38.333   7.803
  852POPC   NC313343  22.056   3.862   9.340
  852POPC   PO413344  21.783   3.239   9.463
  852POPC   GL113345  21.971   3.376   9.122
  852POPC   GL213346  22.279   3.406   9.244
  852POPC   C1A13347  21.874   3.567   8.759
  852POPC   D2A13348  21.722   3.408   8.406
  852POPC   C3A13349  21.818   3.659   8.071
  852POPC   C4A13350  21.925   3.864   7.717
  852POPC   C1B13351  22.386   3.499   8.813
  852POPC   C2B13352  22.245   3.425   8.402
  852POPC   C3B13353  22.481   3.454   8.040
  852POPC   C4B13354  22.331   3.583   7.667
  853POPC   NC313355  32.279   1.113   9.608
  853POPC   PO413356  31.615   1.229   9.413
  853POPC   GL113357  32.006   1.095   9.142
  853POPC   GL213358  32.389   1.206   9.125
  853POPC   C1A13359  32.023   0.966   8.740
  853POPC   D2A13360  32.238   1.072   8.354
  853POPC   C3A13361  32.031   1.031   7.949
  853POPC   C4A13362  32.280   0.968   7.544
  853POPC   C1B13363  32.328   1.431   8.744
  853POPC   C2B13364  32.476   1.538   8.338
  853POPC   C3B13365  32.416   1.340   7.936
  853POPC   C4B13366  32.184   1.533   7.613
  854POPC   NC313367  14.844  31.002   9.606
  854POPC   PO413368  15.397  30.693   9.401
  854POPC   GL113369  15.109  30.901   9.178
  854POPC   GL213370  15.342  30.864   8.907
  854POPC   C1A13371  14.850  30.930   8.825
  854POPC   D2A13372  15.060  30.773   8.472
  854POPC   C3A13373  15.070  30.982   8.101
  854POPC   C4A13374  15.144  30.800   7.750
  854POPC   C1B13375  15.633  30.588   8.691
  854POPC   C2B13376  15.755  30.354   8.349
  854POPC   C3B13377  15.525  30.568   8.033
  854POPC   C4B13378  15.620  30.667   7.626
  855POPC   NC313379   6.019   9.997   9.537
  855POPC   PO413380   5.867   9.397   9.486
  855POPC   GL113381   5.949   9.654   9.156
  855POPC   GL213382   5.637   9.850   9.205
  855POPC   C1A13383   6.095   9.659   8.743
  855POPC   D2A13384   5.833   9.616   8.392
  855POPC   C3A13385   5.910   9.483   8.002
  855POPC   C4A13386   6.219   9.635   7.745
  855POPC   C1B13387   5.525   9.776   8.772
  855POPC   C2B13388   5.586  10.049   8.379
  855POPC   C3B13389   5.514   9.817   8.010
  855POPC   C4B13390   5.715   9.770   7.618
  856POPC   NC313391  28.465   4.485   9.961
  856POPC   PO413392  28.226   4.051   9.494
  856POPC   GL113393  28.328   4.416   9.218
  856POPC   GL213394  28.056   4.436   8.988
  856POPC   C1A13395  28.513   4.622   8.813
  856POPC   D2A13396  28.747   4.424   8.472
  856POPC   C3A13397  28.663   4.545   8.090
  856POPC   C4A13398  28.711   4.260   7.790
  856POPC   C1B13399  28.351   4.141   8.724
  856POPC   C2B13400  28.424   4.081   8.241
  856POPC   C3B13401  28.207   4.305   7.871
  856POPC   C4B13402  28.023   4.210   7.437
  857POPC   NC313403  25.035   7.102   9.457
  857POPC   PO413404  25.607   7.517   9.504
  857POPC   GL113405  25.440   7.523   9.095
  857POPC   GL213406  25.097   7.478   9.104
  857POPC   C1A13407  25.591   7.533   8.675
  857POPC   D2A13408  25.382   7.618   8.281
  857POPC   C3A13409  25.291   7.356   7.924
  857POPC   C4A13410  25.604   7.127   7.618
  857POPC   C1B13411  25.060   7.471   8.676
  857POPC   C2B13412  24.873   7.650   8.321
  857POPC   C3B13413  24.886   7.793   7.931
  857POPC   C4B13414  25.135   7.712   7.584
  858POPC   NC313415  40.090  28.600   9.431
  858POPC   PO413416  39.674  28.138   9.499
  858POPC   GL113417  39.841  28.248   9.114
  858POPC   GL213418  40.212  28.263   9.038
  858POPC   C1A13419  39.877  28.497   8.737
  858POPC   D2A13420  40.034  28.510   8.330
  858POPC   C3A13421  39.846  28.832   8.085
  858POPC   C4A13422  39.774  28.557   7.753
  858POPC   C1B13423  40.402  28.522   8.708
  858POPC   C2B13424  40.427  28.823   8.349
  858POPC   C3B13425  40.311  28.713   7.910
  858POPC   C4B13426  40.279  28.601   7.465
  859POPC   NC313427  28.991  14.235   9.767
  859POPC   PO413428  29.253  14.834   9.564
  859POPC   GL113429  29.187  14.557   9.143
  859POPC   GL213430  29.026  14.214   9.195
  859POPC   C1A13431  29.235  14.470   8.659
  859POPC   D2A13432  28.987  14.392   8.336
  859POPC   C3A13433  29.117  14.281   7.944
  859POPC   C4A13434  29.059  14.508   7.571
  859POPC   C1B13435  29.035  14.013   8.759
  859POPC   C2B13436  29.340  13.993   8.391
  859POPC   C3B13437  29.550  14.038   7.978
  859POPC   C4B13438  29.400  14.104   7.516
  860POPC   NC313439  14.792  44.469   9.358
  860POPC   PO413440  14.193  44.590   9.545
  860POPC   GL113441  14.341  44.650   9.125
  860POPC   GL213442  14.686  44.767   8.971
  860POPC   C1A13443  14.406  44.424   8.741
  860POPC   D2A13444  14.479  44.560   8.361
  860POPC   C3A13445  14.318  44.331   8.047
  860POPC   C4A13446  14.608  44.191   7.762
  860POPC   C1B13447  14.365  44.959   8.713
  860POPC   C2B13448  14.240  44.985   8.289
  860POPC   C3B13449  14.468  44.816   7.889
  860POPC   C4B13450  14.399  44.780   7.396
  861POPC   NC313451  35.734  19.130   9.410
  861POPC   PO413452  36.374  19.283   9.354
  861POPC   GL113453  36.061  19.002   9.049
  861POPC   GL213454  35.999  18.597   9.008
  861POPC   C1A13455  35.952  18.910   8.613
  861POPC   D2A13456  36.134  19.149   8.289
  861POPC   C3A13457  36.117  18.950   7.921
  861POPC   C4A13458  36.201  19.159   7.570
  861POPC   C1B13459  36.394  18.722   8.805
  861POPC   C2B13460  36.447  18.786   8.423
  861POPC   C3B13461  36.569  18.750   8.040
  861POPC   C4B13462  36.551  18.789   7.641
  862POPC   NC313463  18.276   6.981   9.596
  862POPC   PO413464  18.537   7.582   9.435
  862POPC   GL113465  18.291   7.385   9.114
  862POPC   GL213466  18.139   7.053   9.084
  862POPC   C1A13467  18.473   7.232   8.729
  862POPC   D2A13468  18.494   7.507   8.447
  862POPC   C3A13469  18.445   7.353   8.083
  862POPC   C4A13470  18.517   7.582   7.770
  862POPC   C1B13471  17.971   7.264   8.704
  862POPC   C2B13472  17.984   7.573   8.342
  862POPC   C3B13473  18.009   7.561   7.876
  862POPC   C4B13474  18.191   7.226   7.583
  863POPC   NC313475   8.377   3.484   9.492
  863POPC   PO413476   7.699   3.418   9.317
  863POPC   GL113477   8.082   3.555   9.089
  863POPC   GL213478   8.330   3.256   9.047
  863POPC   C1A13479   8.346   3.676   8.740
  863POPC   D2A13480   8.322   3.508   8.320
  863POPC   C3A13481   7.984   3.716   8.105
  863POPC   C4A13482   8.136   3.895   7.763
  863POPC   C1B13483   8.039   3.207   8.696
  863POPC   C2B13484   7.872   3.235   8.265
  863POPC   C3B13485   8.071   3.287   7.838
  863POPC   C4B13486   8.150   3.093   7.412
  864POPC   NC313487  38.289  38.824   9.391
  864POPC   PO413488  38.913  39.192   9.520
  864POPC   GL113489  38.699  39.039   9.148
  864POPC   GL213490  38.527  39.338   9.097
  864POPC   C1A13491  38.555  38.946   8.701
  864POPC   D2A13492  38.567  38.866   8.240
  864POPC   C3A13493  38.286  39.089   7.981
  864POPC   C4A13494  38.196  39.287   7.588
  864POPC   C1B13495  38.795  39.399   8.756
  864POPC   C2B13496  38.851  39.265   8.345
  864POPC   C3B13497  38.758  39.189   7.875
  864POPC   C4B13498  38.694  39.411   7.444
  865POPC   NC313499   4.351  18.501   9.529
  865POPC   PO413500   4.705  17.871   9.581
  865POPC   GL113501   4.672  18.200   9.233
  865POPC   GL213502   4.654  18.615   9.158
  865POPC   C1A13503   4.414  18.226   8.860
  865POPC   D2A13504   4.090  18.133   8.548
  865POPC   C3A13505   4.255  18.020   8.151
  865POPC   C4A13506   4.174  18.074   7.738
  865POPC   C1B13507   4.464  18.727   8.745
  865POPC   C2B13508   4.447  18.515   8.326
  865POPC   C3B13509   4.302  18.649   7.893
  865POPC   C4B13510   4.340  18.469   7.473
  866POPC   NC313511  37.903  30.708   9.765
  866POPC   PO413512  37.557  31.046   9.304
  866POPC   GL113513  37.762  30.947   8.957
  866POPC   GL213514  37.787  30.599   9.054
  866POPC   C1A13515  37.901  30.821   8.563
  866POPC   D2A13516  37.597  30.564   8.377
  866POPC   C3A13517  37.559  30.577   7.964
  866POPC   C4A13518  37.336  30.575   7.599
  866POPC   C1B13519  37.924  30.334   8.710
  866POPC   C2B13520  38.082  30.427   8.271
  866POPC   C3B13521  38.044  30.755   7.930
  866POPC   C4B13522  37.714  30.918   7.614
  867POPC   NC313523   2.651  18.163   9.489
  867POPC   PO413524   3.222  18.619   9.466
  867POPC   GL113525   3.063  18.289   9.157
  867POPC   GL213526   2.714  18.225   9.011
  867POPC   C1A13527   3.121  18.139   8.749
  867POPC   D2A13528   2.836  17.998   8.457
  867POPC   C3A13529   2.904  18.117   8.050
  867POPC   C4A13530   2.913  18.290   7.683
  867POPC   C1B13531   2.465  18.276   8.655
  867POPC   C2B13532   2.448  18.288   8.225
  867POPC   C3B13533   2.427  18.115   7.826
  867POPC   C4B13534   2.510  18.143   7.379
  868POPC   NC313535  34.022  28.463   9.500
  868POPC   PO413536  33.710  27.881   9.708
  868POPC   GL113537  33.669  28.064   9.261
  868POPC   GL213538  33.985  28.142   9.104
  868POPC   C1A13539  33.597  28.143   8.784
  868POPC   D2A13540  33.575  28.532   8.500
  868POPC   C3A13541  33.713  28.535   8.080
  868POPC   C4A13542  33.612  28.144   7.851
  868POPC   C1B13543  34.030  28.443   8.769
  868POPC   C2B13544  34.040  28.246   8.367
  868POPC   C3B13545  34.065  27.986   7.973
  868POPC   C4B13546  34.163  28.161   7.552
  869POPC   NC313547   9.685  34.344   9.397
  869POPC   PO413548  10.014  34.892   9.624
  869POPC   GL113549   9.892  34.842   9.199
  869POPC   GL213550   9.525  34.862   9.236
  869POPC   C1A13551   9.900  34.568   8.809
  869POPC   D2A13552   9.713  34.582   8.388
  869POPC   C3A13553   9.901  34.368   8.035
  869POPC   C4A13554  10.022  34.711   7.768
  869POPC   C1B13555   9.452  34.840   8.786
  869POPC   C2B13556   9.379  35.006   8.351
  869POPC   C3B13557   9.392  34.939   7.894
  869POPC   C4B13558   9.336  35.136   7.455
  870POPC   NC313559  43.468  32.537   9.616
  870POPC   PO413560  43.045  32.000   9.491
  870POPC   GL113561  43.273  32.240   9.203
  870POPC   GL213562  43.239  31.966   8.974
  870POPC   C1A13563  43.224  32.496   8.811
  870POPC   D2A13564  43.399  32.497   8.393
  870POPC   C3A13565  43.117  32.310   8.099
  870POPC   C4A13566  42.991  32.400   7.651
  870POPC   C1B13567  43.165  32.004   8.534
  870POPC   C2B13568  42.922  31.795   8.207
  870POPC   C3B13569  43.140  31.886   7.831
  870POPC   C4B13570  43.559  32.079   7.992
  871POPC   NC313571  14.019  29.193   9.500
  871POPC   PO413572  14.673  29.541   9.512
  871POPC   GL113573  14.539  29.172   9.203
  871POPC   GL213574  14.202  29.052   9.054
  871POPC   C1A13575  14.646  28.894   8.825
  871POPC   D2A13576  14.574  28.821   8.389
  871POPC   C3A13577  14.384  29.114   8.126
  871POPC   C4A13578  14.473  29.096   7.760
  871POPC   C1B13579  14.014  29.367   8.772
  871POPC   C2B13580  14.102  29.489   8.351
  871POPC   C3B13581  13.987  29.379   7.929
  871POPC   C4B13582  14.253  29.514   7.627
  872POPC   NC313583  22.768  38.708   9.456
  872POPC   PO413584  23.378  38.393   9.472
  872POPC   GL113585  22.988  38.364   9.178
  872POPC   GL213586  23.186  38.213   9.023
  872POPC   C1A13587  22.715  38.555   8.810
  872POPC   D2A13588  22.711  38.813   8.421
  872POPC   C3A13589  22.647  38.607   8.016
  872POPC   C4A13590  22.778  38.835   7.633
  872POPC   C1B13591  22.931  38.113   8.713
  872POPC   C2B13592  22.947  38.346   8.360
  872POPC   C3B13593  23.022  38.262   7.947
  872POPC   C4B13594  22.843  38.344   7.533
  873POPC   NC313595  13.457  11.977   9.849
  873POPC   PO413596  13.861  12.304   9.502
  873POPC   GL113597  13.787  12.422   9.114
  873POPC   GL213598  13.531  12.182   9.129
  873POPC   C1A13599  13.868  12.184   8.740
  873POPC   D2A13600  13.971  11.955   8.374
  873POPC   C3A13601  13.835  12.212   8.037
  873POPC   C4A13602  13.728  12.402   7.663
  873POPC   C1B13603  13.390  12.427   8.774
  873POPC   C2B13604  13.458  12.196   8.408
  873POPC   C3B13605  13.360  11.978   8.068
  873POPC   C4B13606  13.266  12.117   7.683
  874POPC   NC313607   3.844   9.933   9.458
  874POPC   PO413608   3.257   9.538   9.502
  874POPC   GL113609   3.436   9.777   9.185
  874POPC   GL213610   3.720   9.538   9.161
  874POPC   C1A13611   3.630   9.904   8.807
  874POPC   D2A13612   3.443   9.963   8.413
  874POPC   C3A13613   3.648   9.925   8.029
  874POPC   C4A13614   3.443   9.781   7.693
  874POPC   C1B13615   3.942   9.493   8.785
  874POPC   C2B13616   3.799   9.589   8.374
  874POPC   C3B13617   3.703   9.407   7.945
  874POPC   C4B13618   3.740   9.443   7.473
  875POPC   NC313619   8.378  12.529   9.422
  875POPC   PO413620   7.875  12.939   9.238
  875POPC   GL113621   8.311  13.123   9.170
  875POPC   GL213622   8.466  12.815   9.010
  875POPC   C1A13623   8.361  13.260   8.752
  875POPC   D2A13624   8.106  12.963   8.515
  875POPC   C3A13625   8.081  12.992   8.085
  875POPC   C4A13626   8.022  12.960   7.664
  875POPC   C1B13627   8.393  12.428   8.757
  875POPC   C2B13628   8.195  12.333   8.341
  875POPC   C3B13629   8.090  12.491   7.900
  875POPC   C4B13630   8.366  12.622   7.555
  876POPC   NC313631  26.576  24.448   9.541
  876POPC   PO413632  27.223  24.544   9.489
  876POPC   GL113633  26.951  24.349   9.203
  876POPC   GL213634  26.878  24.679   9.099
  876POPC   C1A13635  26.865  24.198   8.798
  876POPC   D2A13636  27.042  24.294   8.385
  876POPC   C3A13637  26.740  24.341   8.047
  876POPC   C4A13638  26.687  24.539   7.632
  876POPC   C1B13639  27.038  24.694   8.704
  876POPC   C2B13640  26.902  24.780   8.275
  876POPC   C3B13641  27.118  24.656   7.894
  876POPC   C4B13642  27.128  24.780   7.470
  877POPC   NC313643  26.525  38.478   9.612
  877POPC   PO413644  27.255  38.596   9.572
  877POPC   GL113645  27.060  38.544   9.120
  877POPC   GL213646  26.717  38.714   9.173
  877POPC   C1A13647  27.082  38.700   8.658
  877POPC   D2A13648  27.055  38.765   8.194
  877POPC   C3A13649  27.021  38.367   7.937
  877POPC   C4A13650  27.255  37.976   7.965
  877POPC   C1B13651  26.571  38.694   8.744
  877POPC   C2B13652  26.670  38.454   8.361
  877POPC   C3B13653  26.513  38.349   7.947
  877POPC   C4B13654  26.623  38.492   7.500
  878POPC   NC313655  33.339  25.592   9.436
  878POPC   PO413656  32.859  25.137   9.544
  878POPC   GL113657  32.976  25.293   9.185
  878POPC   GL213658  33.301  25.138   9.182
  878POPC   C1A13659  33.112  25.395   8.790
  878POPC   D2A13660  33.123  25.231   8.392
  878POPC   C3A13661  33.374  25.399   8.059
  878POPC   C4A13662  33.252  25.390   7.621
  878POPC   C1B13663  33.361  24.790   8.903
  878POPC   C2B13664  33.293  24.748   8.430
  878POPC   C3B13665  33.143  24.905   7.989
  878POPC   C4B13666  33.301  24.659   7.656
  879POPC   NC313667  33.208  39.627   9.596
  879POPC   PO413668  32.848  39.133   9.778
  879POPC   GL113669  32.896  39.249   9.323
  879POPC   GL213670  33.232  39.266   9.192
  879POPC   C1A13671  32.865  39.093   8.876
  879POPC   D2A13672  32.838  39.295   8.466
  879POPC   C3A13673  32.921  39.176   8.056
  879POPC   C4A13674  32.762  39.365   7.683
  879POPC   C1B13675  33.282  39.335   8.744
  879POPC   C2B13676  33.396  39.272   8.347
  879POPC   C3B13677  33.352  39.427   7.954
  879POPC   C4B13678  33.288  39.132   7.637
  880POPC   NC313679  11.741  34.508   9.505
  880POPC   PO413680  12.406  34.730   9.278
  880POPC   GL113681  12.187  34.525   8.981
  880POPC   GL213682  11.912  34.373   9.061
  880POPC   C1A13683  12.122  34.410   8.564
  880POPC   D2A13684  12.161  34.771   8.317
  880POPC   C3A13685  12.352  34.708   7.953
  880POPC   C4A13686  12.312  34.410   7.662
  880POPC   C1B13687  11.680  34.624   8.747
  880POPC   C2B13688  11.708  34.535   8.307
  880POPC   C3B13689  11.841  34.521   7.905
  880POPC   C4B13690  11.547  34.688   7.616
  881POPC   NC313691   6.054  40.767   9.524
  881POPC   PO413692   6.274  40.404   9.131
  881POPC   GL113693   6.015  40.637   8.953
  881POPC   GL213694   5.733  40.753   9.121
  881POPC   C1A13695   5.917  40.549   8.561
  881POPC   D2A13696   6.066  40.789   8.269
  881POPC   C3A13697   6.156  40.621   7.919
  881POPC   C4A13698   6.237  41.016   7.768
  881POPC   C1B13699   5.501  40.789   8.742
  881POPC   C2B13700   5.555  40.801   8.288
  881POPC   C3B13701   5.712  40.925   7.857
  881POPC   C4B13702   5.809  41.029   7.387
  882POPC   NC313703  23.763  38.679   9.523
  882POPC   PO413704  24.384  38.927   9.392
  882POPC   GL113705  24.060  38.649   9.111
  882POPC   GL213706  23.678  38.509   9.060
  882POPC   C1A13707  24.004  38.505   8.685
  882POPC   D2A13708  24.037  38.403   8.264
  882POPC   C3A13709  23.872  38.190   7.936
  882POPC   C4A13710  23.837  38.353   7.507
  882POPC   C1B13711  23.487  38.375   8.653
  882POPC   C2B13712  23.495  38.395   8.234
  882POPC   C3B13713  23.621  38.636   7.899
  882POPC   C4B13714  23.342  38.457   7.610
  883POPC   NC313715  20.357  32.427   9.490
  883POPC   PO413716  21.051  32.610   9.427
  883POPC   GL113717  20.772  32.443   9.095
  883POPC   GL213718  20.622  32.126   9.176
  883POPC   C1A13719  20.830  32.449   8.644
  883POPC   D2A13720  20.547  32.374   8.329
  883POPC   C3A13721  20.720  32.321   7.951
  883POPC   C4A13722  20.362  32.373   7.715
  883POPC   C1B13723  20.409  32.120   8.774
  883POPC   C2B13724  20.458  31.871   8.384
  883POPC   C3B13725  20.416  31.913   7.943
  883POPC   C4B13726  20.735  31.966   7.589
  884POPC   NC313727   8.559  34.772   9.407
  884POPC   PO413728   8.208  34.241   9.390
  884POPC   GL113729   8.136  34.531   9.078
  884POPC   GL213730   8.392  34.655   8.945
  884POPC   C1A13731   7.986  34.661   8.652
  884POPC   D2A13732   8.008  34.547   8.211
  884POPC   C3A13733   8.052  34.835   7.862
  884POPC   C4A13734   7.991  34.903   7.425
  884POPC   C1B13735   8.608  34.442   8.650
  884POPC   C2B13736   8.747  34.432   8.249
  884POPC   C3B13737   8.484  34.579   7.979
  884POPC   C4B13738   8.490  34.603   7.564
  885POPC   NC313739   4.350  16.581   9.695
  885POPC   PO413740   4.141  15.888   9.573
  885POPC   GL113741   4.268  15.674   9.164
  885POPC   GL213742   4.113  15.843   8.914
  885POPC   C1A13743   4.567  15.652   8.792
  885POPC   D2A13744   4.543  15.841   8.392
  885POPC   C3A13745   4.535  15.660   8.031
  885POPC   C4A13746   4.469  15.938   7.701
  885POPC   C1B13747   4.348  16.148   8.739
  885POPC   C2B13748   4.233  16.307   8.368
  885POPC   C3B13749   4.119  16.117   8.012
  885POPC   C4B13750   3.968  16.065   7.581
  886POPC   NC313751  21.138  22.879   9.540
  886POPC   PO413752  21.868  22.787   9.581
  886POPC   GL113753  21.543  22.742   9.253
  886POPC   GL213754  21.437  23.097   9.143
  886POPC   C1A13755  21.535  22.745   8.784
  886POPC   D2A13756  21.505  23.034   8.394
  886POPC   C3A13757  21.608  22.874   7.982
  886POPC   C4A13758  21.457  22.772   7.564
  886POPC   C1B13759  21.141  23.061   8.764
  886POPC   C2B13760  20.982  22.949   8.330
  886POPC   C3B13761  21.072  22.822   7.908
  886POPC   C4B13762  21.003  22.988   7.482
  887POPC   NC313763  35.065   1.844   9.554
  887POPC   PO413764  35.657   1.646   9.467
  887POPC   GL113765  35.459   1.914   9.133
  887POPC   GL213766  35.302   2.201   9.199
  887POPC   C1A13767  35.569   1.948   8.677
  887POPC   D2A13768  35.597   1.806   8.289
  887POPC   C3A13769  35.218   1.747   8.111
  887POPC   C4A13770  35.269   1.766   7.680
  887POPC   C1B13771  35.332   2.373   8.762
  887POPC   C2B13772  35.236   2.251   8.330
  887POPC   C3B13773  35.459   2.179   7.946
  887POPC   C4B13774  35.586   2.338   7.536
  888POPC   NC313775  42.850   1.914   9.383
  888POPC   PO413776  42.347   2.335   9.454
  888POPC   GL113777  42.323   2.002   9.164
  888POPC   GL213778  42.579   2.078   8.981
  888POPC   C1A13779  42.082   1.885   8.779
  888POPC   D2A13780  42.220   1.666   8.388
  888POPC   C3A13781  42.040   1.710   7.980
  888POPC   C4A13782  42.047   1.899   7.586
  888POPC   C1B13783  42.604   1.778   8.698
  888POPC   C2B13784  42.732   1.891   8.288
  888POPC   C3B13785  42.520   1.901   7.933
  888POPC   C4B13786  42.480   1.660   7.630
  889POPC   NC313787  21.628   2.551   9.347
  889POPC   PO413788  21.180   2.903   9.635
  889POPC   GL113789  21.192   2.807   9.213
  889POPC   GL213790  21.466   2.999   9.115
  889POPC   C1A13791  21.240   2.542   8.820
  889POPC   D2A13792  21.265   2.631   8.400
  889POPC   C3A13793  21.407   2.473   8.026
  889POPC   C4A13794  21.237   2.305   7.696
  889POPC   C1B13795  21.644   2.944   8.674
  889POPC   C2B13796  21.601   2.948   8.210
  889POPC   C3B13797  21.573   2.947   7.763
  889POPC   C4B13798  21.566   3.110   7.294
  890POPC   NC313799  11.968  38.626   9.551
  890POPC   PO413800  12.587  38.421   9.481
  890POPC   GL113801  12.281  38.450   9.141
  890POPC   GL213802  11.934  38.391   9.118
  890POPC   C1A13803  12.234  38.332   8.713
  890POPC   D2A13804  12.234  38.544   8.356
  890POPC   C3A13805  12.146  38.301   8.006
  890POPC   C4A13806  12.274  38.278   7.641
  890POPC   C1B13807  11.710  38.298   8.754
  890POPC   C2B13808  11.789  38.282   8.357
  890POPC   C3B13809  11.629  38.395   7.953
  890POPC   C4B13810  11.763  38.260   7.546
  891POPC   NC313811  17.967  12.771   9.436
  891POPC   PO413812  18.627  12.745   9.473
  891POPC   GL113813  18.578  13.073   9.196
  891POPC   GL213814  18.237  13.043   9.075
  891POPC   C1A13815  18.668  13.167   8.782
  891POPC   D2A13816  18.429  13.037   8.469
  891POPC   C3A13817  18.598  13.108   8.099
  891POPC   C4A13818  18.363  13.050   7.752
  891POPC   C1B13819  18.298  12.677   8.802
  891POPC   C2B13820  18.191  12.571   8.367
  891POPC   C3B13821  18.455  12.590   7.987
  891POPC   C4B13822  18.434  12.586   7.541
  892POPC   NC313823  27.021  35.558   9.524
  892POPC   PO413824  26.594  34.990   9.362
  892POPC   GL113825  26.648  35.319   9.084
  892POPC   GL213826  26.751  35.659   9.112
  892POPC   C1A13827  26.446  35.506   8.732
  892POPC   D2A13828  26.457  35.595   8.285
  892POPC   C3A13829  26.773  35.309   8.111
  892POPC   C4A13830  27.000  35.251   7.693
  892POPC   C1B13831  26.990  35.526   8.763
  892POPC   C2B13832  27.202  35.628   8.381
  892POPC   C3B13833  27.188  35.651   7.938
  892POPC   C4B13834  26.740  35.720   7.821
  893POPC   NC313835  39.617  13.948   9.465
  893POPC   PO413836  38.865  13.968   9.462
  893POPC   GL113837  39.172  13.708   9.174
  893POPC   GL213838  39.511  13.809   8.998
  893POPC   C1A13839  39.143  13.657   8.712
  893POPC   D2A13840  39.126  13.924   8.388
  893POPC   C3A13841  39.290  13.759   8.044
  893POPC   C4A13842  39.397  13.930   7.691
  893POPC   C1B13843  39.564  13.371   8.818
  893POPC   C2B13844  39.664  13.177   8.434
  893POPC   C3B13845  39.628  13.378   8.053
  893POPC   C4B13846  39.380  13.400   7.671
  894POPC   NC313847  17.430   7.712   9.373
  894POPC   PO413848  17.894   7.242   9.479
  894POPC   GL113849  17.648   7.310   9.098
  894POPC   GL213850  17.264   7.320   9.056
  894POPC   C1A13851  17.619   7.635   8.753
  894POPC   D2A13852  17.458   7.634   8.340
  894POPC   C3A13853  17.613   7.254   8.145
  894POPC   C4A13854  17.724   7.147   7.742
  894POPC   C1B13855  17.091   7.645   8.753
  894POPC   C2B13856  17.039   7.936   8.404
  894POPC   C3B13857  17.046   7.828   7.990
  894POPC   C4B13858  17.023   7.664   7.584
  895POPC   NC313859   0.475   5.198   9.498
  895POPC   PO413860   0.006   4.653   9.472
  895POPC   GL113861   0.109   5.022   9.120
  895POPC   GL213862   0.323   5.373   9.060
  895POPC   C1A13863   0.250   5.074   8.673
  895POPC   D2A13864   0.541   4.946   8.354
  895POPC   C3A13865   0.364   4.932   7.941
  895POPC   C4A13866   0.426   4.938   7.499
  895POPC   C1B13867   0.449   5.542   8.642
  895POPC   C2B13868   0.342   5.401   8.208
  895POPC   C3B13869   0.450   5.398   7.745
  895POPC   C4B13870   0.735   5.336   7.377
  896POPC   NC313871  40.450  11.787   9.419
  896POPC   PO413872  39.773  11.740   9.437
  896POPC   GL113873  39.983  12.030   9.178
  896POPC   GL213874  40.300  12.220   9.166
  896POPC   C1A13875  39.855  11.897   8.791
  896POPC   D2A13876  39.724  12.104   8.433
  896POPC   C3A13877  39.721  11.896   8.075
  896POPC   C4A13878  39.682  12.127   7.733
  896POPC   C1B13879  40.360  11.937   8.795
  896POPC   C2B13880  40.187  11.780   8.396
  896POPC   C3B13881  40.222  11.930   7.984
  896POPC   C4B13882  40.379  12.011   7.570
  897POPC   NC313883  18.671  18.182   9.551
  897POPC   PO413884  18.109  18.015   9.366
  897POPC   GL113885  18.127  18.234   9.018
  897POPC   GL213886  18.450  18.329   9.102
  897POPC   C1A13887  18.222  18.025   8.634
  897POPC   D2A13888  18.147  17.871   8.207
  897POPC   C3A13889  18.152  18.209   7.870
  897POPC   C4A13890  18.183  18.515   7.524
  897POPC   C1B13891  18.440  18.502   8.713
  897POPC   C2B13892  18.402  18.378   8.285
  897POPC   C3B13893  18.585  18.474   7.890
  897POPC   C4B13894  18.607  18.199   7.546
  898POPC   NC313895  44.943  31.656   9.493
  898POPC   PO413896   0.402  31.404   9.866
  898POPC   GL113897   0.427  31.504   9.365
  898POPC   GL213898   0.170  31.303   9.197
  898POPC   C1A13899   0.423  31.718   8.907
  898POPC   D2A13900   0.552  31.543   8.479
  898POPC   C3A13901   0.458  31.717   8.076
  898POPC   C4A13902   0.451  31.533   7.657
  898POPC   C1B13903   0.342  31.225   8.822
  898POPC   C2B13904   0.229  31.087   8.424
  898POPC   C3B13905   0.361  31.178   8.018
  898POPC   C4B13906   0.129  31.134   7.619
  899POPC   NC313907  26.814  17.173   9.408
  899POPC   PO413908  27.238  17.733   9.473
  899POPC   GL113909  26.970  17.516   9.113
  899POPC   GL213910  27.013  17.150   8.958
  899POPC   C1A13911  26.643  17.467   8.798
  899POPC   D2A13912  26.549  17.750   8.472
  899POPC   C3A13913  26.703  17.599   8.086
  899POPC   C4A13914  26.422  17.722   7.776
  899POPC   C1B13915  26.957  17.082   8.544
  899POPC   C2B13916  26.820  17.044   8.141
  899POPC   C3B13917  26.967  17.230   7.782
  899POPC   C4B13918  27.010  17.641   7.651
  900POPC   NC313919   4.861  44.762   9.452
  900POPC   PO413920   5.331  44.301   9.749
  900POPC   GL113921   5.332  44.528   9.241
  900POPC   GL213922   5.542  44.845   9.054
  900POPC   C1A13923   5.263  44.550   8.755
  900POPC   D2A13924   4.922  44.812   8.556
  900POPC   C3A13925   4.917  44.800   8.105
  900POPC   C4A13926   5.188  44.566   7.855
  900POPC   C1B13927   5.378   0.068   8.623
  900POPC   C2B13928   5.277   0.186   8.192
  900POPC   C3B13929   5.327   0.048   7.759
  900POPC   C4B13930   5.375  44.871   7.346
  901POPC   NC313931  40.812  44.159   9.749
  901POPC   PO413932  40.672  44.748   9.413
  901POPC   GL113933  40.693  44.770   8.998
  901POPC   GL213934  40.982  44.621   9.015
  901POPC   C1A13935  40.724  44.752   8.574
  901POPC   D2A13936  40.710  44.380   8.385
  901POPC   C3A13937  40.617  44.390   7.962
  901POPC   C4A13938  40.812  44.678   7.702
  901POPC   C1B13939  41.197  44.552   8.659
  901POPC   C2B13940  41.119  44.688   8.250
  901POPC   C3B13941  41.232  44.945   7.950
  901POPC   C4B13942  41.368  44.726   7.646
  902POPC   NC313943   7.415   3.758   9.477
  902POPC   PO413944   7.234   3.143   9.599
  902POPC   GL113945   7.215   3.439   9.158
  902POPC   GL213946   7.093   3.811   9.090
  902POPC   C1A13947   7.255   3.476   8.716
  902POPC   D2A13948   7.530   3.654   8.379
  902POPC   C3A13949   7.469   3.413   8.003
  902POPC   C4A13950   7.200   3.036   7.907
  902POPC   C1B13951   7.288   3.992   8.726
  902POPC   C2B13952   7.168   4.049   8.288
  902POPC   C3B13953   7.161   3.826   7.868
  902POPC   C4B13954   7.334   3.887   7.436
  903POPC   NC313955  30.052  29.675   9.467
  903POPC   PO413956  29.706  30.321   9.525
  903POPC   GL113957  29.875  30.067   9.134
  903POPC   GL213958  30.196  30.079   9.099
  903POPC   C1A13959  29.924  29.722   8.826
  903POPC   D2A13960  29.705  29.654   8.449
  903POPC   C3A13961  29.914  29.786   8.114
  903POPC   C4A13962  29.787  30.023   7.820
  903POPC   C1B13963  30.132  30.200   8.707
  903POPC   C2B13964  29.963  30.266   8.320
  903POPC   C3B13965  30.161  30.340   7.946
  903POPC   C4B13966  30.308  30.008   7.718
  904POPC   NC313967   7.557  32.799   9.474
  904POPC   PO413968   7.591  33.460   9.302
  904POPC   GL113969   7.633  33.076   9.053
  904POPC   GL213970   7.820  32.763   9.036
  904POPC   C1A13971   7.383  32.853   8.756
  904POPC   D2A13972   7.476  33.006   8.351
  904POPC   C3A13973   7.180  33.071   8.034
  904POPC   C4A13974   7.389  33.230   7.685
  904POPC   C1B13975   7.772  32.530   8.656
  904POPC   C2B13976   7.793  32.603   8.235
  904POPC   C3B13977   7.561  32.762   7.906
  904POPC   C4B13978   7.440  32.767   7.481
  905POPC   NC313979  11.036  15.668   9.621
  905POPC   PO413980  11.109  16.323   9.629
  905POPC   GL113981  11.253  15.995   9.274
  905POPC   GL213982  10.959  15.822   9.142
  905POPC   C1A13983  11.233  16.099   8.783
  905POPC   D2A13984  11.324  16.300   8.367
  905POPC   C3A13985  11.178  16.104   7.986
  905POPC   C4A13986  11.374  15.917   7.652
  905POPC   C1B13987  10.985  15.601   8.759
  905POPC   C2B13988  11.065  15.761   8.348
  905POPC   C3B13989  11.085  15.580   7.912
  905POPC   C4B13990  10.850  15.725   7.532
  906POPC   NC313991  36.086  35.825   9.870
  906POPC   PO413992  36.161  36.425   9.545
  906POPC   GL113993  36.131  36.248   9.169
  906POPC   GL213994  36.037  35.939   9.308
  906POPC   C1A13995  35.969  36.368   8.787
  906POPC   D2A13996  35.896  36.160   8.388
  906POPC   C3A13997  35.909  36.360   8.003
  906POPC   C4A13998  36.338  36.396   7.924
  906POPC   C1B13999  35.859  35.865   8.849
  906POPC   C2B14000  35.988  35.668   8.468
  906POPC   C3B14001  36.214  35.855   8.098
  906POPC   C4B14002  36.088  36.012   7.677
  907POPC   NC314003  38.690  23.443   9.293
  907POPC   PO414004  39.329  23.548   9.340
  907POPC   GL114005  39.313  23.803   8.999
  907POPC   GL214006  38.969  23.937   8.959
  907POPC   C1A14007  39.416  23.716   8.584
  907POPC   D2A14008  39.188  23.741   8.230
  907POPC   C3A14009  39.516  23.726   7.958
  907POPC   C4A14010  39.729  23.478   7.749
  907POPC   C1B14011  38.974  23.515   8.730
  907POPC   C2B14012  38.736  23.281   8.437
  907POPC   C3B14013  38.739  23.344   7.996
  907POPC   C4B14014  39.075  23.529   7.776
  908POPC   NC314015  33.755  43.416   9.456
  908POPC   PO414016  34.178  42.887   9.636
  908POPC   GL114017  33.943  42.975   9.269
  908POPC   GL214018  34.143  43.252   9.186
  908POPC   C1A14019  33.708  43.079   8.871
  908POPC   D2A14020  33.500  42.993   8.484
  908POPC   C3A14021  33.646  43.235   8.139
  908POPC   C4A14022  33.680  43.100   7.715
  908POPC   C1B14023  34.225  43.037   8.823
  908POPC   C2B14024  34.029  43.061   8.426
  908POPC   C3B14025  34.146  43.075   7.980
  908POPC   C4B14026  34.154  42.951   7.547
  909POPC   NC314027  18.391   5.369   9.453
  909POPC   PO414028  18.514   4.704   9.428
  909POPC   GL114029  18.326   4.913   9.089
  909POPC   GL214030  17.977   4.964   9.119
  909POPC   C1A14031  18.162   4.827   8.659
  909POPC   D2A14032  18.086   5.032   8.260
  909POPC   C3A14033  18.316   4.808   7.922
  909POPC   C4A14034  18.293   4.862   7.461
  909POPC   C1B14035  18.076   5.319   8.816
  909POPC   C2B14036  18.053   5.563   8.427
  909POPC   C3B14037  17.931   5.503   7.990
  909POPC   C4B14038  18.273   5.364   7.724
  910POPC   NC314039  43.601   4.514   9.425
  910POPC   PO414040  43.007   4.056   9.424
  910POPC   GL114041  43.137   4.193   9.043
  910POPC   GL214042  43.114   4.520   9.059
  910POPC   C1A14043  43.291   4.172   8.580
  910POPC   D2A14044  43.139   4.354   8.178
  910POPC   C3A14045  43.153   4.129   7.758
  910POPC   C4A14046  43.131   3.972   7.312
  910POPC   C1B14047  43.458   4.585   8.804
  910POPC   C2B14048  43.468   4.785   8.436
  910POPC   C3B14049  43.521   4.704   8.032
  910POPC   C4B14050  43.229   4.622   7.712
  911POPC   NC314051  14.695  16.523   9.681
  911POPC   PO414052  15.355  16.593   9.595
  911POPC   GL114053  15.446  16.630   9.192
  911POPC   GL214054  15.504  16.964   9.091
  911POPC   C1A14055  15.195  16.570   8.845
  911POPC   D2A14056  15.361  16.494   8.454
  911POPC   C3A14057  15.144  16.717   8.153
  911POPC   C4A14058  15.210  16.554   7.749
  911POPC   C1B14059  15.413  16.989   8.624
  911POPC   C2B14060  15.393  17.227   8.237
  911POPC   C3B14061  15.352  17.060   7.788
  911POPC   C4B14062  15.322  17.154   7.339
  912POPC   NC314063  33.678  35.754   9.431
  912POPC   PO414064  34.022  36.231   9.775
  912POPC   GL114065  33.963  36.174   9.291
  912POPC   GL214066  33.635  36.230   9.217
  912POPC   C1A14067  33.943  35.965   8.855
  912POPC   D2A14068  33.928  36.134   8.449
  912POPC   C3A14069  33.891  35.880   8.110
  912POPC   C4A14070  33.998  35.915   7.709
  912POPC   C1B14071  33.723  36.426   8.834
  912POPC   C2B14072  33.737  36.626   8.434
  912POPC   C3B14073  33.806  36.436   8.043
  912POPC   C4B14074  33.739  36.363   7.605
  913POPC   NC314075  41.102   4.752   9.317
  913POPC   PO414076  40.549   4.943   9.423
  913POPC   GL114077  40.695   4.811   9.009
  913POPC   GL214078  40.576   5.101   8.825
  913POPC   C1A14079  41.009   4.899   8.656
  913POPC   D2A14080  40.834   5.163   8.342
  913POPC   C3A14081  40.939   5.162   7.932
  913POPC   C4A14082  40.905   5.303   7.526
  913POPC   C1B14083  40.507   4.799   8.494
  913POPC   C2B14084  40.362   4.822   8.050
  913POPC   C3B14085  40.471   4.958   7.610
  913POPC   C4B14086  40.269   4.922   7.168
  914POPC   NC314087  19.202  37.602   9.457
  914POPC   PO414088  18.714  38.149   9.542
  914POPC   GL114089  18.792  37.854   9.202
  914POPC   GL214090  19.151  37.919   9.058
  914POPC   C1A14091  18.833  37.630   8.813
  914POPC   D2A14092  19.041  37.789   8.447
  914POPC   C3A14093  18.934  37.660   8.039
  914POPC   C4A14094  19.026  37.903   7.694
  914POPC   C1B14095  19.434  37.673   8.752
  914POPC   C2B14096  19.467  37.490   8.329
  914POPC   C3B14097  19.434  37.615   7.874
  914POPC   C4B14098  19.535  37.563   7.434
  915POPC   NC314099  28.362  30.804   9.504
  915POPC   PO414100  27.728  30.541   9.463
  915POPC   GL114101  27.562  30.451   9.054
  915POPC   GL214102  27.851  30.600   8.902
  915POPC   C1A14103  27.410  30.551   8.630
  915POPC   D2A14104  27.590  30.506   8.232
  915POPC   C3A14105  27.298  30.367   7.946
  915POPC   C4A14106  27.061  30.609   7.611
  915POPC   C1B14107  27.796  30.897   8.564
  915POPC   C2B14108  27.687  30.998   8.151
  915POPC   C3B14109  27.476  30.836   7.824
  915POPC   C4B14110  27.502  30.756   7.393
  916POPC   NC314111  41.824  13.301   9.773
  916POPC   PO414112  41.538  13.801   9.492
  916POPC   GL114113  41.424  13.654   9.087
  916POPC   GL214114  41.185  13.411   9.000
  916POPC   C1A14115  41.434  13.835   8.703
  916POPC   D2A14116  41.703  13.794   8.370
  916POPC   C3A14117  41.502  13.901   7.985
  916POPC   C4A14118  41.571  13.568   7.711
  916POPC   C1B14119  41.231  13.355   8.584
  916POPC   C2B14120  41.190  13.539   8.205
  916POPC   C3B14121  41.161  13.241   7.879
  916POPC   C4B14122  41.227  13.212   7.421
  917POPC   NC314123  33.787   7.115   9.368
  917POPC   PO414124  33.673   7.742   9.500
  917POPC   GL114125  33.793   7.575   9.123
  917POPC   GL214126  33.501   7.358   8.989
  917POPC   C1A14127  33.980   7.419   8.766
  917POPC   D2A14128  33.767   7.210   8.437
  917POPC   C3A14129  33.979   7.150   8.052
  917POPC   C4A14130  33.794   7.412   7.783
  917POPC   C1B14131  33.515   7.734   8.706
  917POPC   C2B14132  33.445   7.879   8.266
  917POPC   C3B14133  33.496   7.841   7.789
  917POPC   C4B14134  33.350   7.832   7.352
  918POPC   NC314135  38.004   8.406   9.444
  918POPC   PO414136  37.355   8.395   9.469
  918POPC   GL114137  37.559   8.425   9.115
  918POPC   GL214138  37.690   8.103   9.152
  918POPC   C1A14139  37.799   8.396   8.744
  918POPC   D2A14140  37.739   8.166   8.368
  918POPC   C3A14141  37.736   8.362   7.969
  918POPC   C4A14142  37.705   8.235   7.514
  918POPC   C1B14143  37.520   7.931   8.780
  918POPC   C2B14144  37.403   7.789   8.330
  918POPC   C3B14145  37.583   7.817   7.896
  918POPC   C4B14146  37.655   7.561   7.476
  919POPC   NC314147   3.885  29.423   9.695
  919POPC   PO414148   3.318  29.095   9.482
  919POPC   GL114149   3.634  29.264   9.226
  919POPC   GL214150   3.341  29.512   9.135
  919POPC   C1A14151   3.849  29.009   8.876
  919POPC   D2A14152   3.654  28.948   8.455
  919POPC   C3A14153   3.705  29.183   8.039
  919POPC   C4A14154   3.528  28.976   7.616
  919POPC   C1B14155   3.586  29.407   8.746
  919POPC   C2B14156   3.777  29.563   8.404
  919POPC   C3B14157   3.503  29.663   8.081
  919POPC   C4B14158   3.469  29.475   7.669
  920POPC   NC314159  15.474  25.107   9.501
  920POPC   PO414160  16.066  24.888   9.467
  920POPC   GL114161  15.711  24.689   9.229
  920POPC   GL214162  15.581  24.924   9.014
  920POPC   C1A14163  15.665  24.393   8.860
  920POPC   D2A14164  15.973  24.317   8.504
  920POPC   C3A14165  15.968  24.354   8.047
  920POPC   C4A14166  16.259  24.255   7.727
  920POPC   C1B14167  15.927  24.819   8.722
  920POPC   C2B14168  16.019  24.819   8.262
  920POPC   C3B14169  15.806  24.832   7.847
  920POPC   C4B14170  15.991  25.026   7.432
  921POPC   NC314171  38.969   9.713   9.502
  921POPC   PO414172  39.541   9.404   9.696
  921POPC   GL114173  39.441   9.836   9.338
  921POPC   GL214174  39.118  10.020   9.126
  921POPC   C1A14175  39.543  10.009   8.862
  921POPC   D2A14176  39.482  10.020   8.377
  921POPC   C3A14177  39.241   9.762   8.046
  921POPC   C4A14178  39.217   9.443   7.716
  921POPC   C1B14179  39.063   9.836   8.707
  921POPC   C2B14180  38.837   9.631   8.348
  921POPC   C3B14181  38.745   9.539   7.922
  921POPC   C4B14182  38.844   9.792   7.574
  922POPC   NC314183  14.725   5.005   9.486
  922POPC   PO414184  15.378   5.324   9.458
  922POPC   GL114185  15.120   5.145   9.198
  922POPC   GL214186  15.323   4.886   9.108
  922POPC   C1A14187  14.935   4.992   8.826
  922POPC   D2A14188  15.048   5.173   8.460
  922POPC   C3A14189  15.040   4.941   8.095
  922POPC   C4A14190  14.984   5.155   7.732
  922POPC   C1B14191  15.508   4.793   8.760
  922POPC   C2B14192  15.504   4.930   8.341
  922POPC   C3B14193  15.662   4.835   7.954
  922POPC   C4B14194  15.315   4.794   7.700
  923POPC   NC314195  28.798   1.658   9.320
  923POPC   PO414196  29.127   1.142   9.483
  923POPC   GL114197  29.264   1.202   9.094
  923POPC   GL214198  28.957   1.305   9.003
  923POPC   C1A14199  29.446   1.163   8.708
  923POPC   D2A14200  29.256   1.063   8.344
  923POPC   C3A14201  29.461   0.977   7.985
  923POPC   C4A14202  29.604   1.317   7.753
  923POPC   C1B14203  28.948   1.501   8.624
  923POPC   C2B14204  29.235   1.578   8.280
  923POPC   C3B14205  29.122   1.392   7.917
  923POPC   C4B14206  28.805   1.135   7.784
  924POPC   NC314207   9.287  21.720   9.537
  924POPC   PO414208   8.919  21.240   9.427
  924POPC   GL114209   8.966  21.386   9.056
  924POPC   GL214210   9.300  21.472   9.082
  924POPC   C1A14211   9.047  21.282   8.639
  924POPC   D2A14212   8.888  21.132   8.278
  924POPC   C3A14213   8.991  21.360   7.992
  924POPC   C4A14214   9.184  21.292   7.638
  924POPC   C1B14215   9.311  21.721   8.719
  924POPC   C2B14216   9.215  21.725   8.283
  924POPC   C3B14217   9.478  21.563   7.954
  924POPC   C4B14218   9.592  21.532   7.524
  925POPC   NC314219   6.033  44.202   9.875
  925POPC   PO414220   5.832  44.442   9.299
  925POPC   GL114221   5.921  44.483   8.923
  925POPC   GL214222   6.241  44.500   8.898
  925POPC   C1A14223   5.730  44.623   8.571
  925POPC   D2A14224   5.424  44.699   8.287
  925POPC   C3A14225   5.667  44.725   7.976
  925POPC   C4A14226   5.696  44.561   7.597
  925POPC   C1B14227   6.174  44.864   8.667
  925POPC   C2B14228   6.127  44.772   8.232
  925POPC   C3B14229   6.150  44.757   7.815
  925POPC   C4B14230   6.154  44.744   7.376
  926POPC   NC314231  15.994  41.072   9.403
  926POPC   PO414232  15.599  40.549   9.307
  926POPC   GL114233  15.752  40.805   8.996
  926POPC   GL214234  16.066  40.680   9.014
  926POPC   C1A14235  15.834  40.685   8.556
  926POPC   D2A14236  15.560  40.522   8.254
  926POPC   C3A14237  15.787  40.471   7.916
  926POPC   C4A14238  15.887  40.881   7.757
  926POPC   C1B14239  16.121  41.071   8.729
  926POPC   C2B14240  16.038  41.067   8.271
  926POPC   C3B14241  16.296  41.149   7.899
  926POPC   C4B14242  16.293  40.973   7.463
  927POPC   NC314243  21.122  23.701   9.474
  927POPC   PO414244  21.713  23.767   9.452
  927POPC   GL114245  21.435  23.675   9.066
  927POPC   GL214246  21.097  23.478   9.038
  927POPC   C1A14247  21.290  23.977   8.745
  927POPC   D2A14248  20.935  24.049   8.448
  927POPC   C3A14249  21.112  24.020   8.032
  927POPC   C4A14250  21.381  23.751   7.802
  927POPC   C1B14251  21.078  23.548   8.614
  927POPC   C2B14252  21.210  23.465   8.235
  927POPC   C3B14253  21.105  23.325   7.864
  927POPC   C4B14254  21.094  23.512   7.458
  928POPC   NC314255  40.238  44.624   9.608
  928POPC   PO414256  39.584  44.622   9.415
  928POPC   GL114257  39.902  44.432   9.120
  928POPC   GL214258  40.289  44.471   9.131
  928POPC   C1A14259  39.739  44.321   8.709
  928POPC   D2A14260  39.783  44.296   8.274
  928POPC   C3A14261  39.810  44.659   8.050
  928POPC   C4A14262  39.797  44.809   7.678
  928POPC   C1B14263  40.266  44.551   8.704
  928POPC   C2B14264  40.269  44.644   8.283
  928POPC   C3B14265  40.278  44.806   7.870
  928POPC   C4B14266  40.290  44.601   7.488
  929POPC   NC314267  25.013  29.336   9.314
  929POPC   PO414268  25.565  29.233   9.636
  929POPC   GL114269  25.449  29.186   9.134
  929POPC   GL214270  25.339  29.405   8.916
  929POPC   C1A14271  25.510  28.982   8.696
  929POPC   D2A14272  25.384  29.097   8.291
  929POPC   C3A14273  25.505  29.038   7.867
  929POPC   C4A14274  25.472  29.383   7.540
  929POPC   C1B14275  25.033  29.189   8.669
  929POPC   C2B14276  24.888  29.236   8.281
  929POPC   C3B14277  24.980  29.004   7.956
  929POPC   C4B14278  25.037  29.163   7.577
  930POPC   NC314279  12.243  13.804   9.582
  930POPC   PO414280  11.851  13.227   9.526
  930POPC   GL114281  12.103  13.428   9.232
  930POPC   GL214282  11.794  13.434   9.041
  930POPC   C1A14283  12.147  13.764   8.909
  930POPC   D2A14284  12.144  13.714   8.464
  930POPC   C3A14285  12.309  13.469   8.104
  930POPC   C4A14286  12.228  13.646   7.686
  930POPC   C1B14287  11.653  13.706   8.707
  930POPC   C2B14288  11.700  13.968   8.370
  930POPC   C3B14289  11.853  13.776   8.024
  930POPC   C4B14290  11.800  13.404   7.812
  931POPC   NC314291  42.591  39.341   9.406
  931POPC   PO414292  43.233  39.536   9.674
  931POPC   GL114293  43.107  39.434   9.229
  931POPC   GL214294  42.837  39.588   9.041
  931POPC   C1A14295  43.139  39.147   8.832
  931POPC   D2A14296  43.323  38.905   8.436
  931POPC   C3A14297  43.242  39.110   8.004
  931POPC   C4A14298  43.151  39.510   7.778
  931POPC   C1B14299  42.852  39.503   8.606
  931POPC   C2B14300  42.845  39.517   8.177
  931POPC   C3B14301  42.650  39.411   7.774
  931POPC   C4B14302  42.837  39.378   7.386
  932POPC   NC314303   7.656  18.803   9.440
  932POPC   PO414304   7.195  19.330   9.620
  932POPC   GL114305   7.430  19.163   9.184
  932POPC   GL214306   7.218  18.956   8.939
  932POPC   C1A14307   7.539  19.267   8.733
  932POPC   D2A14308   7.446  19.228   8.323
  932POPC   C3A14309   7.700  19.115   7.994
  932POPC   C4A14310   7.844  18.789   7.711
  932POPC   C1B14311   7.423  18.755   8.643
  932POPC   C2B14312   7.486  18.716   8.246
  932POPC   C3B14313   7.330  18.722   7.886
  932POPC   C4B14314   7.358  18.903   7.506
  933POPC   NC314315  12.098  37.607   9.586
  933POPC   PO414316  11.728  38.193   9.555
  933POPC   GL114317  12.050  37.921   9.196
  933POPC   GL214318  12.008  37.548   9.108
  933POPC   C1A14319  12.268  37.828   8.769
  933POPC   D2A14320  12.391  37.605   8.367
  933POPC   C3A14321  12.265  37.791   7.986
  933POPC   C4A14322  12.026  37.839   7.613
  933POPC   C1B14323  11.799  37.314   8.781
  933POPC   C2B14324  11.952  37.307   8.351
  933POPC   C3B14325  11.900  37.437   7.920
  933POPC   C4B14326  11.860  37.416   7.416
  934POPC   NC314327  37.179  26.588   9.500
  934POPC   PO414328  36.899  26.042   9.881
  934POPC   GL114329  36.847  25.911   9.312
  934POPC   GL214330  36.899  26.261   9.157
  934POPC   C1A14331  36.995  25.858   8.861
  934POPC   D2A14332  36.924  26.054   8.437
  934POPC   C3A14333  37.222  26.041   8.070
  934POPC   C4A14334  37.280  25.912   7.618
  934POPC   C1B14335  36.688  26.345   8.784
  934POPC   C2B14336  36.542  26.491   8.396
  934POPC   C3B14337  36.848  26.419   8.080
  934POPC   C4B14338  36.870  26.197   7.713
  935POPC   NC314339  31.155  28.523   9.247
  935POPC   PO414340  31.422  28.120   9.780
  935POPC   GL114341  31.558  28.220   9.260
  935POPC   GL214342  31.693  28.490   9.072
  935POPC   C1A14343  31.435  28.177   8.765
  935POPC   D2A14344  31.651  28.330   8.396
  935POPC   C3A14345  31.562  28.185   7.997
  935POPC   C4A14346  31.629  28.378   7.609
  935POPC   C1B14347  31.468  28.709   8.697
  935POPC   C2B14348  31.404  28.847   8.283
  935POPC   C3B14349  31.312  28.654   7.902
  935POPC   C4B14350  31.135  28.291   7.705
  936POPC   NC314351   7.715  28.735   9.551
  936POPC   PO414352   7.422  29.332   9.413
  936POPC   GL114353   7.601  29.266   9.066
  936POPC   GL214354   7.543  28.917   9.108
  936POPC   C1A14355   7.511  29.266   8.646
  936POPC   D2A14356   7.399  29.046   8.304
  936POPC   C3A14357   7.360  29.344   8.014
  936POPC   C4A14358   7.416  29.414   7.612
  936POPC   C1B14359   7.379  28.783   8.744
  936POPC   C2B14360   7.583  28.534   8.431
  936POPC   C3B14361   7.541  28.587   8.013
  936POPC   C4B14362   7.264  28.883   7.835
  937POPC   NC314363  37.291  13.851   9.434
  937POPC   PO414364  36.793  13.368   9.479
  937POPC   GL114365  36.988  13.553   9.126
  937POPC   GL214366  36.898  13.906   8.972
  937POPC   C1A14367  36.854  13.472   8.718
  937POPC   D2A14368  36.875  13.772   8.387
  937POPC   C3A14369  36.806  13.539   8.047
  937POPC   C4A14370  36.703  13.443   7.645
  937POPC   C1B14371  37.249  13.810   8.750
  937POPC   C2B14372  37.384  13.971   8.339
  937POPC   C3B14373  37.187  13.924   7.966
  937POPC   C4B14374  36.791  13.998   7.804
  938POPC   NC314375  19.638  13.569   9.357
  938POPC   PO414376  19.007  13.504   9.606
  938POPC   GL114377  18.972  13.408   9.178
  938POPC   GL214378  18.686  13.590   9.044
  938POPC   C1A14379  19.165  13.346   8.769
  938POPC   D2A14380  19.289  13.625   8.431
  938POPC   C3A14381  18.999  13.503   8.121
  938POPC   C4A14382  19.061  13.509   7.708
  938POPC   C1B14383  18.978  13.810   8.820
  938POPC   C2B14384  18.853  13.905   8.439
  938POPC   C3B14385  18.920  14.018   8.054
  938POPC   C4B14386  19.122  14.042   7.717
  939POPC   NC314387  41.959  23.931   9.498
  939POPC   PO414388  42.644  23.732   9.496
  939POPC   GL114389  42.360  23.680   9.150
  939POPC   GL214390  42.335  24.024   9.146
  939POPC   C1A14391  42.380  23.488   8.699
  939POPC   D2A14392  42.625  23.626   8.344
  939POPC   C3A14393  42.508  23.608   7.912
  939POPC   C4A14394  42.189  23.338   7.715
  939POPC   C1B14395  42.089  23.900   8.785
  939POPC   C2B14396  42.224  23.953   8.368
  939POPC   C3B14397  42.088  23.901   7.955
  939POPC   C4B14398  42.387  24.095   7.692
  940POPC   NC314399  17.489   4.939   9.628
  940POPC   PO414400  17.926   5.367   9.460
  940POPC   GL114401  17.543   5.225   9.173
  940POPC   GL214402  17.412   4.853   9.135
  940POPC   C1A14403  17.459   5.375   8.744
  940POPC   D2A14404  17.518   5.568   8.327
  940POPC   C3A14405  17.332   5.344   7.941
  940POPC   C4A14406  17.433   5.306   7.491
  940POPC   C1B14407  17.637   4.884   8.742
  940POPC   C2B14408  17.556   5.054   8.341
  940POPC   C3B14409  17.544   4.859   7.950
  940POPC   C4B14410  17.885   5.019   7.780
  941POPC   NC314411  26.272  35.316   9.440
  941POPC   PO414412  25.722  35.743   9.392
  941POPC   GL114413  25.951  35.530   9.066
  941POPC   GL214414  25.826  35.240   9.082
  941POPC   C1A14415  25.948  35.487   8.597
  941POPC   D2A14416  25.828  35.274   8.198
  941POPC   C3A14417  26.072  35.444   7.840
  941POPC   C4A14418  26.323  35.671   7.484
  941POPC   C1B14419  26.148  35.049   8.820
  941POPC   C2B14420  26.291  35.110   8.397
  941POPC   C3B14421  26.314  34.993   7.976
  941POPC   C4B14422  26.509  35.237   7.682
  942POPC   NC314423  18.460  20.025   9.511
  942POPC   PO414424  17.994  19.620   9.530
  942POPC   GL114425  18.245  19.664   9.186
  942POPC   GL214426  18.123  19.991   9.135
  942POPC   C1A14427  18.429  19.775   8.797
  942POPC   D2A14428  18.453  20.055   8.445
  942POPC   C3A14429  18.287  20.006   8.029
  942POPC   C4A14430  18.394  19.985   7.596
  942POPC   C1B14431  18.085  20.180   8.775
  942POPC   C2B14432  17.931  20.084   8.396
  942POPC   C3B14433  17.837  20.282   8.046
  942POPC   C4B14434  17.892  20.034   7.667
  943POPC   NC314435  32.611  10.362   9.455
  943POPC   PO414436  31.948  10.592   9.588
  943POPC   GL114437  32.151  10.391   9.221
  943POPC   GL214438  32.396  10.587   9.026
  943POPC   C1A14439  32.044  10.323   8.802
  943POPC   D2A14440  32.270  10.589   8.488
  943POPC   C3A14441  32.284  10.569   8.050
  943POPC   C4A14442  32.236  10.417   7.629
  943POPC   C1B14443  32.532  10.225   8.715
  943POPC   C2B14444  32.492  10.080   8.269
  943POPC   C3B14445  32.650  10.258   7.876
  943POPC   C4B14446  32.668  10.689   7.698
  944POPC   NC314447  30.338   4.615   9.251
  944POPC   PO414448  30.649   4.142   9.646
  944POPC   GL114449  30.760   4.264   9.246
  944POPC   GL214450  30.435   4.118   9.149
  944POPC   C1A14451  30.941   4.414   8.862
  944POPC   D2A14452  30.667   4.451   8.502
  944POPC   C3A14453  30.802   4.385   8.105
  944POPC   C4A14454  30.764   4.376   7.696
  944POPC   C1B14455  30.623   3.980   8.782
  944POPC   C2B14456  30.693   3.941   8.335
  944POPC   C3B14457  30.590   3.921   7.865
  944POPC   C4B14458  30.471   4.038   7.429
  945POPC   NC314459  41.863  22.996   9.475
  945POPC   PO414460  41.178  23.149   9.476
  945POPC   GL114461  41.320  22.950   9.125
  945POPC   GL214462  41.561  22.741   9.171
  945POPC   C1A14463  41.236  23.086   8.733
  945POPC   D2A14464  41.427  22.949   8.360
  945POPC   C3A14465  41.249  22.988   7.963
  945POPC   C4A14466  41.407  23.118   7.571
  945POPC   C1B14467  41.746  22.989   8.800
  945POPC   C2B14468  41.866  23.212   8.395
  945POPC   C3B14469  41.754  23.103   7.977
  945POPC   C4B14470  41.880  22.938   7.581
  946POPC   NC314471  19.449  12.034   9.567
  946POPC   PO414472  20.000  12.246   9.293
  946POPC   GL114473  19.747  11.979   9.085
  946POPC   GL214474  19.498  12.195   9.100
  946POPC   C1A14475  19.645  11.942   8.647
  946POPC   D2A14476  19.862  12.036   8.288
  946POPC   C3A14477  19.763  11.909   7.920
  946POPC   C4A14478  19.882  12.256   7.715
  946POPC   C1B14479  19.309  12.353   8.767
  946POPC   C2B14480  19.436  12.389   8.367
  946POPC   C3B14481  19.322  12.114   8.070
  946POPC   C4B14482  19.376  12.234   7.691
  947POPC   NC314483  12.881  10.238   9.754
  947POPC   PO414484  13.025   9.567   9.540
  947POPC   GL114485  12.869   9.615   9.136
  947POPC   GL214486  12.569   9.703   9.019
  947POPC   C1A14487  12.983   9.751   8.729
  947POPC   D2A14488  12.897   9.953   8.335
  947POPC   C3A14489  12.994   9.696   7.994
  947POPC   C4A14490  13.148   9.682   7.593
  947POPC   C1B14491  12.573  10.084   8.730
  947POPC   C2B14492  12.391  10.111   8.338
  947POPC   C3B14493  12.497   9.840   8.013
  947POPC   C4B14494  12.661   9.822   7.627
  948POPC   NC314495   3.520   3.994   9.533
  948POPC   PO414496   3.545   4.735   9.428
  948POPC   GL114497   3.502   4.519   9.053
  948POPC   GL214498   3.567   4.161   9.065
  948POPC   C1A14499   3.738   4.424   8.692
  948POPC   D2A14500   3.869   4.097   8.499
  948POPC   C3A14501   3.809   4.261   8.142
  948POPC   C4A14502   3.721   4.281   7.768
  948POPC   C1B14503   3.227   4.230   8.739
  948POPC   C2B14504   3.315   4.322   8.331
  948POPC   C3B14505   3.339   4.029   8.005
  948POPC   C4B14506   3.287   4.079   7.582
  949POPC   NC314507  32.794  38.737   9.551
  949POPC   PO414508  32.976  38.145   9.722
  949POPC   GL114509  32.935  38.288   9.234
  949POPC   GL214510  33.185  38.149   9.041
  949POPC   C1A14511  32.742  38.184   8.755
  949POPC   D2A14512  32.524  38.425   8.428
  949POPC   C3A14513  32.767  38.352   8.047
  949POPC   C4A14514  32.831  38.410   7.599
  949POPC   C1B14515  33.041  38.581   8.819
  949POPC   C2B14516  32.938  38.781   8.395
  949POPC   C3B14517  33.122  38.704   7.947
  949POPC   C4B14518  33.329  38.274   7.817
  950POPC   NC314519  10.229   7.537   9.507
  950POPC   PO414520  10.944   7.769   9.617
  950POPC   GL114521  10.767   7.754   9.191
  950POPC   GL214522  10.504   7.526   9.051
  950POPC   C1A14523  10.861   7.669   8.737
  950POPC   D2A14524  10.593   7.446   8.439
  950POPC   C3A14525  10.474   7.570   8.025
  950POPC   C4A14526  10.283   7.622   7.617
  950POPC   C1B14527  10.268   7.213   8.745
  950POPC   C2B14528  10.533   6.943   8.431
  950POPC   C3B14529  10.726   7.091   8.080
  950POPC   C4B14530  10.540   7.165   7.704
  951POPC   NC314531  20.242  38.031   9.498
  951POPC   PO414532  19.553  37.892   9.357
  951POPC   GL114533  19.889  37.609   9.163
  951POPC   GL214534  20.209  37.784   9.043
  951POPC   C1A14535  19.946  37.459   8.741
  951POPC   D2A14536  20.128  37.701   8.407
  951POPC   C3A14537  19.907  37.595   8.060
  951POPC   C4A14538  19.954  37.352   7.680
  951POPC   C1B14539  19.873  37.964   8.770
  951POPC   C2B14540  19.656  38.005   8.354
  951POPC   C3B14541  19.740  38.118   7.908
  951POPC   C4B14542  19.935  37.845   7.618
  952POPC   NC314543  19.058  13.948   9.450
  952POPC   PO414544  19.396  14.472   9.624
  952POPC   GL114545  19.273  14.440   9.168
  952POPC   GL214546  18.930  14.400   9.223
  952POPC   C1A14547  19.293  14.246   8.731
  952POPC   D2A14548  19.366  14.137   8.304
  952POPC   C3A14549  19.205  14.463   8.058
  952POPC   C4A14550  19.134  14.581   7.696
  952POPC   C1B14551  18.803  14.279   8.809
  952POPC   C2B14552  18.884  14.404   8.425
  952POPC   C3B14553  18.699  14.500   8.035
  952POPC   C4B14554  18.701  14.309   7.656
  953POPC   NC314555  25.130  17.358   9.551
  953POPC   PO414556  25.771  17.461   9.535
  953POPC   GL114557  25.456  17.587   9.212
  953POPC   GL214558  25.271  17.280   9.079
  953POPC   C1A14559  25.277  17.700   8.800
  953POPC   D2A14560  25.390  17.483   8.423
  953POPC   C3A14561  25.134  17.523   8.059
  953POPC   C4A14562  25.311  17.739   7.725
  953POPC   C1B14563  25.491  17.085   8.766
  953POPC   C2B14564  25.581  16.945   8.363
  953POPC   C3B14565  25.518  17.186   7.987
  953POPC   C4B14566  25.308  17.223   7.589
  954POPC   NC314567  29.781  18.861   9.537
  954POPC   PO414568  29.753  19.477   9.426
  954POPC   GL114569  29.705  19.149   9.104
  954POPC   GL214570  30.050  18.988   9.113
  954POPC   C1A14571  29.678  19.177   8.650
  954POPC   D2A14572  29.785  19.061   8.219
  954POPC   C3A14573  29.662  19.357   7.934
  954POPC   C4A14574  29.885  19.216   7.593
  954POPC   C1B14575  30.165  18.982   8.642
  954POPC   C2B14576  30.311  19.004   8.231
  954POPC   C3B14577  30.235  18.911   7.828
  954POPC   C4B14578  30.253  18.905   7.390
  955POPC   NC314579  23.996  20.356   9.376
  955POPC   PO414580  23.626  20.877   9.499
  955POPC   GL114581  23.689  20.628   9.067
  955POPC   GL214582  23.823  20.859   8.869
  955POPC   C1A14583  23.658  20.470   8.589
  955POPC   D2A14584  23.671  20.876   8.343
  955POPC   C3A14585  23.529  20.782   7.935
  955POPC   C4A14586  23.629  20.334   7.930
  955POPC   C1B14587  24.115  20.540   8.756
  955POPC   C2B14588  24.178  20.682   8.364
  955POPC   C3B14589  24.010  20.674   7.987
  955POPC   C4B14590  23.938  20.964   7.678
  956POPC   NC314591  44.141  42.829   9.564
  956POPC   PO414592  43.618  43.266   9.519
  956POPC   GL114593  43.828  43.062   9.191
  956POPC   GL214594  44.030  43.338   9.109
  956POPC   C1A14595  43.902  42.988   8.756
  956POPC   D2A14596  43.946  43.263   8.407
  956POPC   C3A14597  44.034  43.025   8.012
  956POPC   C4A14598  43.721  42.887   7.699
  956POPC   C1B14599  43.642  43.441   8.841
  956POPC   C2B14600  43.437  43.375   8.430
  956POPC   C3B14601  43.569  43.251   8.025
  956POPC   C4B14602  43.847  43.398   7.703
  957POPC   NC314603  37.749  16.268   9.716
  957POPC   PO414604  37.404  16.784   9.460
  957POPC   GL114605  37.635  16.817   9.114
  957POPC   GL214606  37.788  16.566   9.157
  957POPC   C1A14607  37.850  16.845   8.745
  957POPC   D2A14608  37.644  16.765   8.361
  957POPC   C3A14609  37.810  16.986   8.036
  957POPC   C4A14610  37.892  16.819   7.656
  957POPC   C1B14611  37.586  16.417   8.770
  957POPC   C2B14612  37.184  16.460   8.553
  957POPC   C3B14613  37.159  16.542   8.125
  957POPC   C4B14614  37.473  16.561   7.783
  958POPC   NC314615  27.864  28.649   9.559
  958POPC   PO414616  27.236  28.903   9.464
  958POPC   GL114617  27.362  28.543   9.167
  958POPC   GL214618  27.655  28.300   9.207
  958POPC   C1A14619  27.651  28.593   8.777
  958POPC   D2A14620  27.887  28.719   8.416
  958POPC   C3A14621  27.723  28.599   8.014
  958POPC   C4A14622  27.591  28.363   7.669
  958POPC   C1B14623  27.567  28.097   8.789
  958POPC   C2B14624  27.756  28.184   8.371
  958POPC   C3B14625  27.808  27.978   7.971
  958POPC   C4B14626  27.489  27.875   7.662
  959POPC   NC314627  14.225  27.161   9.453
  959POPC   PO414628  14.363  27.780   9.692
  959POPC   GL114629  14.343  27.689   9.215
  959POPC   GL214630  14.487  27.416   9.087
  959POPC   C1A14631  14.492  27.810   8.787
  959POPC   D2A14632  14.429  27.941   8.397
  959POPC   C3A14633  14.526  27.639   8.074
  959POPC   C4A14634  14.334  27.462   7.703
  959POPC   C1B14635  14.092  27.481   8.826
  959POPC   C2B14636  14.046  27.497   8.366
  959POPC   C3B14637  13.990  27.156   8.048
  959POPC   C4B14638  14.187  26.953   7.684
  960POPC   NC314639  22.421   6.110   9.506
  960POPC   PO414640  22.114   5.473   9.535
  960POPC   GL114641  22.196   5.580   9.065
  960POPC   GL214642  22.311   5.925   8.984
  960POPC   C1A14643  22.044   5.684   8.616
  960POPC   D2A14644  22.040   6.061   8.337
  960POPC   C3A14645  21.976   6.007   7.890
  960POPC   C4A14646  21.909   5.617   7.717
  960POPC   C1B14647  22.549   5.639   8.676
  960POPC   C2B14648  22.458   5.730   8.225
  960POPC   C3B14649  22.498   6.105   7.989
  960POPC   C4B14650  22.333   6.249   7.569
  961POPC   NC314651   4.215  31.622   9.444
  961POPC   PO414652   4.679  31.070   9.564
  961POPC   GL114653   4.479  31.218   9.210
  961POPC   GL214654   4.154  31.157   9.092
  961POPC   C1A14655   4.519  31.499   8.871
  961POPC   D2A14656   4.406  31.404   8.458
  961POPC   C3A14657   4.490  31.715   8.166
  961POPC   C4A14658   4.557  31.744   7.748
  961POPC   C1B14659   4.009  31.521   8.796
  961POPC   C2B14660   3.998  31.711   8.381
  961POPC   C3B14661   4.068  31.423   8.040
  961POPC   C4B14662   4.054  31.383   7.594
  962POPC   NC314663  33.976   0.929   9.562
  962POPC   PO414664  33.513   1.404   9.743
  962POPC   GL114665  33.760   1.377   9.308
  962POPC   GL214666  34.058   1.560   9.138
  962POPC   C1A14667  33.859   1.114   8.928
  962POPC   D2A14668  33.704   1.137   8.509
  962POPC   C3A14669  33.898   0.986   8.141
  962POPC   C4A14670  33.824   1.179   7.755
  962POPC   C1B14671  34.128   1.462   8.651
  962POPC   C2B14672  34.097   1.479   8.160
  962POPC   C3B14673  33.968   1.657   7.722
  962POPC   C4B14674  33.993   1.352   7.319
  963POPC   NC314675  42.509  18.818   9.473
  963POPC   PO414676  41.948  19.209   9.663
  963POPC   GL114677  42.176  19.174   9.242
  963POPC   GL214678  42.282  18.882   9.010
  963POPC   C1A14679  42.278  19.342   8.834
  963POPC   D2A14680  42.252  19.147   8.424
  963POPC   C3A14681  42.048  19.335   8.090
  963POPC   C4A14682  41.956  19.203   7.655
  963POPC   C1B14683  42.595  18.846   8.666
  963POPC   C2B14684  42.654  18.601   8.264
  963POPC   C3B14685  42.475  18.726   7.843
  963POPC   C4B14686  42.425  18.530   7.431
  964POPC   NC314687  34.153  14.267   9.610
  964POPC   PO414688  33.556  14.278   9.488
  964POPC   GL114689  33.719  14.436   9.117
  964POPC   GL214690  34.076  14.465   9.144
  964POPC   C1A14691  33.576  14.498   8.705
  964POPC   D2A14692  33.648  14.754   8.357
  964POPC   C3A14693  33.595  14.592   7.967
  964POPC   C4A14694  33.945  14.475   7.726
  964POPC   C1B14695  34.065  14.341   8.704
  964POPC   C2B14696  33.976  14.350   8.261
  964POPC   C3B14697  34.103  14.045   7.922
  964POPC   C4B14698  34.162  14.126   7.438
  965POPC   NC314699  22.918  33.849   9.665
  965POPC   PO414700  23.080  34.040   9.099
  965POPC   GL114701  22.749  33.745   8.967
  965POPC   GL214702  22.462  33.566   9.141
  965POPC   C1A14703  22.740  33.748   8.531
  965POPC   D2A14704  23.168  33.856   8.391
  965POPC   C3A14705  23.138  34.056   8.008
  965POPC   C4A14706  22.945  33.974   7.614
  965POPC   C1B14707  22.525  33.337   8.738
  965POPC   C2B14708  22.719  33.197   8.350
  965POPC   C3B14709  22.909  33.504   8.115
  965POPC   C4B14710  22.677  33.576   7.797
  966POPC   NC314711  44.219  23.478   9.497
  966POPC   PO414712  43.635  23.648   9.643
  966POPC   GL114713  43.797  23.736   9.244
  966POPC   GL214714  44.094  23.976   9.252
  966POPC   C1A14715  43.639  23.689   8.824
  966POPC   D2A14716  43.844  23.590   8.419
  966POPC   C3A14717  43.649  23.638   8.033
  966POPC   C4A14718  43.752  23.504   7.628
  966POPC   C1B14719  44.169  23.764   8.879
  966POPC   C2B14720  44.340  23.766   8.487
  966POPC   C3B14721  44.287  23.631   8.086
  966POPC   C4B14722  44.055  23.873   7.802
  967POPC   NC314723  23.028  35.564   9.613
  967POPC   PO414724  23.234  35.001   9.774
  967POPC   GL114725  22.995  35.227   9.273
  967POPC   GL214726  22.950  34.995   8.998
  967POPC   C1A14727  23.100  35.466   8.895
  967POPC   D2A14728  23.082  35.458   8.418
  967POPC   C3A14729  23.119  35.264   7.999
  967POPC   C4A14730  23.167  35.098   7.583
  967POPC   C1B14731  22.732  35.109   8.631
  967POPC   C2B14732  22.644  34.976   8.197
  967POPC   C3B14733  22.665  35.113   7.750
  967POPC   C4B14734  22.447  35.048   7.321
  968POPC   NC314735  11.799  21.561   9.604
  968POPC   PO414736  12.407  21.450   9.575
  968POPC   GL114737  12.241  21.631   9.205
  968POPC   GL214738  12.017  21.397   9.122
  968POPC   C1A14739  12.128  21.788   8.778
  968POPC   D2A14740  11.957  21.828   8.380
  968POPC   C3A14741  12.074  21.576   8.020
  968POPC   C4A14742  11.926  21.157   7.904
  968POPC   C1B14743  12.077  21.268   8.682
  968POPC   C2B14744  12.282  21.167   8.297
  968POPC   C3B14745  12.403  20.928   7.936
  968POPC   C4B14746  12.173  20.852   7.576
  969POPC   NC314747  43.483  40.740   9.575
  969POPC   PO414748  44.134  40.863   9.571
  969POPC   GL114749  43.876  40.690   9.247
  969POPC   GL214750  43.964  40.333   9.196
  969POPC   C1A14751  43.740  40.628   8.839
  969POPC   D2A14752  43.870  40.517   8.419
  969POPC   C3A14753  43.908  40.812   8.101
  969POPC   C4A14754  43.585  40.877   7.761
  969POPC   C1B14755  44.015  40.155   8.771
  969POPC   C2B14756  44.287  40.212   8.412
  969POPC   C3B14757  44.145  40.351   7.992
  969POPC   C4B14758  43.689  40.397   7.885
  970POPC   NC314759  18.103  11.269   9.468
  970POPC   PO414760  18.669  11.663   9.612
  970POPC   GL114761  18.465  11.546   9.199
  970POPC   GL214762  18.118  11.700   9.166
  970POPC   C1A14763  18.318  11.281   8.832
  970POPC   D2A14764  18.000  11.162   8.512
  970POPC   C3A14765  18.233  11.052   8.139
  970POPC   C4A14766  18.314  11.239   7.728
  970POPC   C1B14767  17.904  11.587   8.783
  970POPC   C2B14768  17.766  11.577   8.347
  970POPC   C3B14769  17.984  11.682   7.973
  970POPC   C4B14770  17.757  11.602   7.615
  971POPC   NC314771  15.694  39.464   9.545
  971POPC   PO414772  15.171  39.162   9.785
  971POPC   GL114773  15.270  39.218   9.250
  971POPC   GL214774  14.954  39.182   9.099
  971POPC   C1A14775  15.238  39.312   8.730
  971POPC   D2A14776  15.307  39.081   8.322
  971POPC   C3A14777  15.480  39.202   7.917
  971POPC   C4A14778  15.333  39.293   7.495
  971POPC   C1B14779  14.721  39.228   8.724
  971POPC   C2B14780  14.861  39.402   8.316
  971POPC   C3B14781  14.969  39.195   7.926
  971POPC   C4B14782  14.843  39.051   7.502
  972POPC   NC314783  43.740  12.330   9.586
  972POPC   PO414784  44.140  11.744   9.495
  972POPC   GL114785  44.150  11.880   9.090
  972POPC   GL214786  43.989  12.194   9.152
  972POPC   C1A14787  43.847  11.865   8.753
  972POPC   D2A14788  43.734  12.012   8.346
  972POPC   C3A14789  43.989  11.844   8.001
  972POPC   C4A14790  43.790  11.904   7.611
  972POPC   C1B14791  43.775  12.394   8.816
  972POPC   C2B14792  43.842  12.510   8.392
  972POPC   C3B14793  43.843  12.347   7.943
  972POPC   C4B14794  43.740  12.401   7.508
  973POPC   NC314795  18.625  38.930   9.291
  973POPC   PO414796  18.134  38.426   9.528
  973POPC   GL114797  18.376  38.493   9.160
  973POPC   GL214798  18.435  38.188   9.015
  973POPC   C1A14799  18.538  38.625   8.726
  973POPC   D2A14800  18.417  38.502   8.294
  973POPC   C3A14801  18.059  38.612   8.045
  973POPC   C4A14802  18.243  38.606   7.703
  973POPC   C1B14803  18.175  38.284   8.702
  973POPC   C2B14804  18.170  38.023   8.336
  973POPC   C3B14805  18.224  38.152   7.940
  973POPC   C4B14806  18.032  38.154   7.578
  974POPC   NC314807  27.693  17.646   9.345
  974POPC   PO414808  27.285  17.192   9.448
  974POPC   GL114809  27.461  17.338   9.041
  974POPC   GL214810  27.386  17.726   8.959
  974POPC   C1A14811  27.444  17.311   8.601
  974POPC   D2A14812  27.235  17.343   8.195
  974POPC   C3A14813  27.468  17.532   7.897
  974POPC   C4A14814  27.813  17.285   7.877
  974POPC   C1B14815  27.700  17.789   8.679
  974POPC   C2B14816  27.878  17.537   8.378
  974POPC   C3B14817  27.929  17.763   8.031
  974POPC   C4B14818  27.864  17.734   7.617
  975POPC   NC314819   9.253  24.148   9.444
  975POPC   PO414820   9.370  24.825   9.628
  975POPC   GL114821   9.096  24.671   9.241
  975POPC   GL214822   9.300  24.452   9.034
  975POPC   C1A14823   8.814  24.474   8.857
  975POPC   D2A14824   8.741  24.160   8.473
  975POPC   C3A14825   8.685  24.351   8.044
  975POPC   C4A14826   8.925  24.704   7.855
  975POPC   C1B14827   9.201  24.074   8.791
  975POPC   C2B14828   9.207  23.918   8.374
  975POPC   C3B14829   9.180  24.178   8.030
  975POPC   C4B14830   8.980  24.131   7.665
  976POPC   NC314831  30.574   5.491   9.615
  976POPC   PO414832  30.685   4.783   9.519
  976POPC   GL114833  30.727   5.012   9.171
  976POPC   GL214834  30.853   5.364   9.194
  976POPC   C1A14835  30.764   4.905   8.754
  976POPC   D2A14836  31.042   4.800   8.438
  976POPC   C3A14837  30.731   4.883   8.152
  976POPC   C4A14838  30.595   4.845   7.754
  976POPC   C1B14839  30.520   5.359   8.863
  976POPC   C2B14840  30.467   5.227   8.444
  976POPC   C3B14841  30.564   5.351   8.038
  976POPC   C4B14842  30.823   5.305   7.705
  977POPC   NC314843  11.016  38.573   9.296
  977POPC   PO414844  11.541  38.876   9.563
  977POPC   GL114845  11.495  38.612   9.173
  977POPC   GL214846  11.410  38.257   9.166
  977POPC   C1A14847  11.322  38.617   8.754
  977POPC   D2A14848  11.334  38.483   8.380
  977POPC   C3A14849  11.049  38.627   8.130
  977POPC   C4A14850  11.156  38.495   7.742
  977POPC   C1B14851  11.215  38.087   8.828
  977POPC   C2B14852  11.382  37.965   8.435
  977POPC   C3B14853  11.248  38.085   8.033
  977POPC   C4B14854  10.999  37.949   7.712
  978POPC   NC314855   1.797  13.344   9.855
  978POPC   PO414856   2.190  13.782   9.528
  978POPC   GL114857   2.060  13.756   9.111
  978POPC   GL214858   1.710  13.863   9.060
  978POPC   C1A14859   2.099  13.570   8.718
  978POPC   D2A14860   1.842  13.478   8.362
  978POPC   C3A14861   2.078  13.586   7.977
  978POPC   C4A14862   2.028  13.422   7.573
  978POPC   C1B14863   1.930  14.109   8.768
  978POPC   C2B14864   2.054  13.969   8.370
  978POPC   C3B14865   1.710  13.924   8.085
  978POPC   C4B14866   1.778  13.976   7.663
  979POPC   NC314867  21.154  43.854   9.517
  979POPC   PO414868  21.861  43.875   9.574
  979POPC   GL114869  21.566  43.810   9.210
  979POPC   GL214870  21.364  43.504   9.205
  979POPC   C1A14871  21.552  43.926   8.745
  979POPC   D2A14872  21.747  44.000   8.297
  979POPC   C3A14873  21.470  44.087   7.909
  979POPC   C4A14874  21.570  44.155   7.448
  979POPC   C1B14875  21.645  43.422   8.868
  979POPC   C2B14876  21.602  43.509   8.451
  979POPC   C3B14877  21.493  43.598   8.063
  979POPC   C4B14878  21.197  43.659   7.763
  980POPC   NC314879   6.574  20.486   9.996
  980POPC   PO414880   6.409  20.723   9.353
  980POPC   GL114881   6.572  20.734   8.997
  980POPC   GL214882   6.623  20.409   9.027
  980POPC   C1A14883   6.850  20.762   8.666
  980POPC   D2A14884   6.830  20.983   8.280
  980POPC   C3A14885   6.530  20.844   7.980
  980POPC   C4A14886   6.650  20.643   7.606
  980POPC   C1B14887   6.514  20.341   8.650
  980POPC   C2B14888   6.669  20.436   8.295
  980POPC   C3B14889   6.476  20.321   7.969
  980POPC   C4B14890   6.096  20.523   7.853
  981POPC   NC314891  10.625  33.196   9.486
  981POPC   PO414892  10.878  32.613   9.489
  981POPC   GL114893  10.662  32.768   9.118
  981POPC   GL214894  10.446  33.032   9.041
  981POPC   C1A14895  10.566  32.707   8.662
  981POPC   D2A14896  10.629  32.947   8.284
  981POPC   C3A14897  10.482  32.859   7.878
  981POPC   C4A14898  10.756  32.727   7.528
  981POPC   C1B14899  10.595  33.244   8.702
  981POPC   C2B14900  10.598  33.447   8.311
  981POPC   C3B14901  10.625  33.340   7.873
  981POPC   C4B14902  10.512  33.180   7.455
  982POPC   NC314903  43.868   6.089   9.466
  982POPC   PO414904  43.627   5.542   9.599
  982POPC   GL114905  43.792   5.651   9.207
  982POPC   GL214906  44.143   5.765   9.164
  982POPC   C1A14907  43.828   5.501   8.804
  982POPC   D2A14908  43.938   5.533   8.383
  982POPC   C3A14909  43.634   5.703   8.115
  982POPC   C4A14910  43.567   5.957   7.755
  982POPC   C1B14911  44.156   6.116   8.840
  982POPC   C2B14912  44.286   6.277   8.443
  982POPC   C3B14913  43.994   6.111   8.154
  982POPC   C4B14914  44.029   6.181   7.744
  983POPC   NC314915  40.542  10.967   9.485
  983POPC   PO414916  40.875  11.604   9.428
  983POPC   GL114917  40.694  11.578   9.028
  983POPC   GL214918  40.634  11.242   9.058
  983POPC   C1A14919  40.717  11.613   8.591
  983POPC   D2A14920  40.940  11.349   8.332
  983POPC   C3A14921  40.857  11.338   7.958
  983POPC   C4A14922  40.961  11.611   7.680
  983POPC   C1B14923  40.720  11.046   8.685
  983POPC   C2B14924  40.816  10.839   8.284
  983POPC   C3B14925  40.898  10.854   7.845
  983POPC   C4B14926  40.653  11.121   7.509
  984POPC   NC314927  22.178  26.550   9.463
  984POPC   PO414928  21.890  27.185   9.551
  984POPC   GL114929  22.086  26.966   9.181
  984POPC   GL214930  21.920  26.660   9.024
  984POPC   C1A14931  22.295  26.883   8.764
  984POPC   D2A14932  22.395  27.059   8.329
  984POPC   C3A14933  22.278  26.834   7.947
  984POPC   C4A14934  22.037  26.877   7.550
  984POPC   C1B14935  22.074  26.389   8.682
  984POPC   C2B14936  22.185  26.380   8.222
  984POPC   C3B14937  21.950  26.453   7.818
  984POPC   C4B14938  22.079  26.392   7.376
  985POPC   NC314939  44.066  37.891   9.544
  985POPC   PO414940  43.638  37.393   9.734
  985POPC   GL114941  43.903  37.466   9.319
  985POPC   GL214942  43.819  37.263   9.056
  985POPC   C1A14943  44.079  37.729   8.931
  985POPC   D2A14944  43.921  37.863   8.517
  985POPC   C3A14945  44.112  37.723   8.132
  985POPC   C4A14946  44.055  37.853   7.724
  985POPC   C1B14947  43.942  37.352   8.624
  985POPC   C2B14948  43.811  37.337   8.233
  985POPC   C3B14949  43.840  37.381   7.816
  985POPC   C4B14950  44.193  37.366   7.603
  986POPC   NC314951  42.757   7.271   9.733
  986POPC   PO414952  42.135   7.374   9.505
  986POPC   GL114953  42.408   7.584   9.231
  986POPC   GL214954  42.748   7.469   9.215
  986POPC   C1A14955  42.399   7.653   8.796
  986POPC   D2A14956  42.400   7.428   8.393
  986POPC   C3A14957  42.490   7.585   7.965
  986POPC   C4A14958  42.326   7.613   7.495
  986POPC   C1B14959  42.737   7.284   8.821
  986POPC   C2B14960  42.652   6.990   8.472
  986POPC   C3B14961  42.702   7.096   8.075
  986POPC   C4B14962  42.574   7.186   7.664
  987POPC   NC314963  25.486  25.095   9.529
  987POPC   PO414964  25.110  25.609   9.411
  987POPC   GL114965  25.254  25.309   9.123
  987POPC   GL214966  25.645  25.305   9.085
  987POPC   C1A14967  25.174  25.209   8.702
  987POPC   D2A14968  25.521  25.255   8.421
  987POPC   C3A14969  25.503  25.072   8.025
  987POPC   C4A14970  25.265  25.089   7.635
  987POPC   C1B14971  25.906  25.453   8.713
  987POPC   C2B14972  25.867  25.649   8.298
  987POPC   C3B14973  25.747  25.538   7.866
  987POPC   C4B14974  25.690  25.686   7.428
  988POPC   NC314975  36.852   9.502   9.401
  988POPC   PO414976  37.239  10.002   9.633
  988POPC   GL114977  37.071   9.984   9.185
  988POPC   GL214978  36.698   9.914   9.148
  988POPC   C1A14979  36.975   9.905   8.717
  988POPC   D2A14980  36.834  10.008   8.294
  988POPC   C3A14981  37.118   9.889   7.892
  988POPC   C4A14982  37.113   9.940   7.414
  988POPC   C1B14983  36.573   9.575   8.814
  988POPC   C2B14984  36.749   9.466   8.387
  988POPC   C3B14985  36.675   9.623   7.968
  988POPC   C4B14986  36.709   9.616   7.505
  989POPC   NC314987  42.088  29.230   9.385
  989POPC   PO414988  42.672  29.601   9.505
  989POPC   GL114989  42.519  29.326   9.160
  989POPC   GL214990  42.479  28.918   9.185
  989POPC   C1A14991  42.343  29.171   8.769
  989POPC   D2A14992  42.531  29.034   8.416
  989POPC   C3A14993  42.277  29.120   8.052
  989POPC   C4A14994  42.480  29.075   7.661
  989POPC   C1B14995  42.210  28.706   8.833
  989POPC   C2B14996  42.107  28.752   8.420
  989POPC   C3B14997  42.147  28.607   8.030
  989POPC   C4B14998  42.050  28.778   7.696
  990POPC   NC314999  34.134  35.716   9.941
  990POPC   PO415000  33.582  35.360   9.678
  990POPC   GL115001  33.821  35.278   9.280
  990POPC   GL215002  34.169  35.216   9.293
  990POPC   C1A15003  33.804  35.445   8.853
  990POPC   D2A15004  33.515  35.360   8.533
  990POPC   C3A15005  33.741  35.374   8.159
  990POPC   C4A15006  33.611  35.574   7.790
  990POPC   C1B15007  34.163  35.059   8.858
  990POPC   C2B15008  34.157  35.223   8.450
  990POPC   C3B15009  34.131  35.026   8.067
  990POPC   C4B15010  33.855  35.114   7.737
  991POPC   NC315011   6.950  39.229   9.408
  991POPC   PO415012   6.417  39.611   9.640
  991POPC   GL115013   6.444  39.276   9.270
  991POPC   GL215014   6.696  39.409   9.017
  991POPC   C1A15015   6.456  39.038   8.836
  991POPC   D2A15016   6.314  39.090   8.421
  991POPC   C3A15017   6.562  39.234   8.091
  991POPC   C4A15018   6.324  39.234   7.728
  991POPC   C1B15019   6.967  39.087   8.773
  991POPC   C2B15020   7.159  39.052   8.363
  991POPC   C3B15021   7.027  38.893   7.973
  991POPC   C4B15022   6.766  39.001   7.645
  992POPC   NC315023  44.239  18.439   9.418
  992POPC   PO415024  43.556  18.185   9.490
  992POPC   GL115025  43.741  18.168   9.086
  992POPC   GL215026  43.993  17.946   9.014
  992POPC   C1A15027  43.673  18.431   8.720
  992POPC   D2A15028  43.858  18.615   8.345
  992POPC   C3A15029  43.637  18.485   7.981
  992POPC   C4A15030  43.725  18.382   7.567
  992POPC   C1B15031  43.924  17.974   8.586
  992POPC   C2B15032  43.985  18.137   8.168
  992POPC   C3B15033  44.155  18.347   7.836
  992POPC   C4B15034  44.197  18.225   7.415
  993POPC   NC315035  12.692  28.094   9.595
  993POPC   PO415036  13.328  28.195   9.496
  993POPC   GL115037  12.934  28.393   9.251
  993POPC   GL215038  12.589  28.267   9.134
  993POPC   C1A15039  12.903  28.517   8.804
  993POPC   D2A15040  13.113  28.510   8.388
  993POPC   C3A15041  12.918  28.459   8.011
  993POPC   C4A15042  12.866  28.025   7.861
  993POPC   C1B15043  12.559  28.110   8.731
  993POPC   C2B15044  12.633  28.140   8.303
  993POPC   C3B15045  12.426  28.356   7.958
  993POPC   C4B15046  12.451  28.450   7.518
  994POPC   NC315047  16.489  28.103   9.301
  994POPC   PO415048  15.801  28.214   9.444
  994POPC   GL115049  16.069  28.338   9.088
  994POPC   GL215050  15.881  28.278   8.790
  994POPC   C1A15051  16.297  28.549   8.717
  994POPC   D2A15052  16.143  28.449   8.310
  994POPC   C3A15053  16.273  28.543   7.912
  994POPC   C4A15054  15.906  28.405   7.710
  994POPC   C1B15055  16.276  28.053   8.613
  994POPC   C2B15056  16.407  27.971   8.191
  994POPC   C3B15057  16.354  28.062   7.760
  994POPC   C4B15058  16.186  28.093   7.305
  995POPC   NC315059  12.835   0.624   9.393
  995POPC   PO415060  13.351   0.050   9.428
  995POPC   GL115061  12.968   0.150   9.194
  995POPC   GL215062  13.147   0.376   9.048
  995POPC   C1A15063  12.712   0.278   8.798
  995POPC   D2A15064  12.584   0.296   8.351
  995POPC   C3A15065  12.815   0.384   7.960
  995POPC   C4A15066  12.727   0.577   7.534
  995POPC   C1B15067  13.041   0.673   8.745
  995POPC   C2B15068  12.896   0.703   8.361
  995POPC   C3B15069  13.065   0.851   7.988
  995POPC   C4B15070  13.200   0.602   7.679
  996POPC   NC315071  44.568  30.487   9.488
  996POPC   PO415072  44.779  31.175   9.517
  996POPC   GL115073  44.812  30.865   9.209
  996POPC   GL215074  44.472  30.934   9.143
  996POPC   C1A15075  44.682  30.631   8.812
  996POPC   D2A15076  44.896  30.515   8.462
  996POPC   C3A15077  44.671  30.575   8.140
  996POPC   C4A15078  44.753  30.710   7.759
  996POPC   C1B15079  44.185  30.867   8.807
  996POPC   C2B15080  44.253  30.741   8.390
  996POPC   C3B15081  44.313  30.922   7.980
  996POPC   C4B15082  44.324  30.792   7.514
  997POPC   NC315083  22.491  20.914   9.774
  997POPC   PO415084  21.969  20.980   9.293
  997POPC   GL115085  22.085  20.551   9.179
  997POPC   GL215086  22.433  20.458   9.029
  997POPC   C1A15087  22.015  20.299   8.808
  997POPC   D2A15088  22.311  20.254   8.472
  997POPC   C3A15089  22.164  20.492   8.139
  997POPC   C4A15090  22.175  20.407   7.701
  997POPC   C1B15091  22.277  20.735   8.648
  997POPC   C2B15092  22.422  20.930   8.256
  997POPC   C3B15093  22.377  20.892   7.816
  997POPC   C4B15094  22.341  20.757   7.388
  998POPC   NC315095  14.636  14.137   9.363
  998POPC   PO415096  14.020  14.485   9.509
  998POPC   GL115097  14.185  14.336   9.160
  998POPC   GL215098  14.154  13.976   9.180
  998POPC   C1A15099  14.388  14.323   8.768
  998POPC   D2A15100  14.535  14.444   8.358
  998POPC   C3A15101  14.471  14.270   7.949
  998POPC   C4A15102  14.618  14.438   7.538
  998POPC   C1B15103  13.938  14.066   8.791
  998POPC   C2B15104  14.058  14.199   8.355
  998POPC   C3B15105  14.004  14.096   7.914
  998POPC   C4B15106  14.242  14.072   7.511
  999POPC   NC315107  19.203  41.120   9.493
  999POPC   PO415108  18.847  41.714   9.511
  999POPC   GL115109  19.057  41.507   9.189
  999POPC   GL215110  18.769  41.281   9.204
  999POPC   C1A15111  19.295  41.459   8.793
  999POPC   D2A15112  19.245  41.163   8.443
  999POPC   C3A15113  19.017  41.299   8.052
  999POPC   C4A15114  19.203  41.385   7.651
  999POPC   C1B15115  18.724  41.501   8.807
  999POPC   C2B15116  18.969  41.624   8.450
  999POPC   C3B15117  18.903  41.810   8.072
  999POPC   C4B15118  18.726  41.643   7.710
 1000POPC   NC315119  44.356  35.283   9.472
 1000POPC   PO415120  44.929  35.029   9.640
 1000POPC   GL115121  44.834  35.280   9.189
 1000POPC   GL215122  44.499  35.302   8.995
 1000POPC   C1A15123  44.939  35.243   8.752
 1000POPC   D2A15124  44.714  35.313   8.400
 1000POPC   C3A15125  44.912  35.166   8.055
 1000POPC   C4A15126  44.867  35.393   7.695
 1000POPC   C1B15127  44.309  35.007   8.677
 1000POPC   C2B15128  44.213  35.147   8.263
 1000POPC   C3B15129  44.430  35.296   7.924
 1000POPC   C4B15130  44.447  35.102   7.483
 1001POPC   NC315131  29.531  13.853   9.329
 1001POPC   PO415132  28.912  13.839   9.551
 1001POPC   GL115133  29.044  13.685   9.160
 1001POPC   GL215134  28.687  13.630   9.127
 1001POPC   C1A15135  29.323  13.583   8.777
 1001POPC   D2A15136  29.505  13.492   8.377
 1001POPC   C3A15137  29.301  13.584   7.991
 1001POPC   C4A15138  29.189  13.274   7.710
 1001POPC   C1B15139  28.824  13.460   8.762
 1001POPC   C2B15140  28.964  13.633   8.394
 1001POPC   C3B15141  28.776  13.595   8.005
 1001POPC   C4B15142  28.705  13.458   7.600
 1002POPC   NC315143  43.073  12.661   9.531
 1002POPC   PO415144  43.425  13.236   9.483
 1002POPC   GL115145  43.234  13.149   9.090
 1002POPC   GL215146  43.076  12.854   9.071
 1002POPC   C1A15147  43.123  13.131   8.640
 1002POPC   D2A15148  43.270  13.176   8.215
 1002POPC   C3A15149  43.114  12.903   7.896
 1002POPC   C4A15150  43.290  12.610   7.616
 1002POPC   C1B15151  42.942  12.597   8.754
 1002POPC   C2B15152  42.972  12.682   8.326
 1002POPC   C3B15153  42.899  12.437   7.948
 1002POPC   C4B15154  42.621  12.250   7.714
 1003POPC   NC315155  30.490  15.113   9.664
 1003POPC   PO415156  29.812  15.234   9.569
 1003POPC   GL115157  29.854  15.095   9.173
 1003POPC   GL215158  29.594  14.866   9.135
 1003POPC   C1A15159  29.920  15.197   8.749
 1003POPC   D2A15160  30.254  15.138   8.448
 1003POPC   C3A15161  30.155  15.309   8.023
 1003POPC   C4A15162  29.737  15.412   7.827
 1003POPC   C1B15163  29.447  14.918   8.779
 1003POPC   C2B15164  29.668  14.827   8.472
 1003POPC   C3B15165  29.740  15.007   8.111
 1003POPC   C4B15166  29.538  14.921   7.717
 1004POPC   NC315167   8.027  15.676   9.482
 1004POPC   PO415168   8.278  16.197   9.894
 1004POPC   GL115169   8.320  16.157   9.352
 1004POPC   GL215170   8.244  15.853   9.083
 1004POPC   C1A15171   8.392  16.267   8.873
 1004POPC   D2A15172   8.239  15.922   8.553
 1004POPC   C3A15173   8.290  15.989   8.104
 1004POPC   C4A15174   8.410  16.260   7.742
 1004POPC   C1B15175   7.834  15.802   8.843
 1004POPC   C2B15176   7.730  15.941   8.439
 1004POPC   C3B15177   7.870  15.684   8.140
 1004POPC   C4B15178   7.906  15.861   7.772
 1005POPC   NC315179   4.654   2.146   9.375
 1005POPC   PO415180   3.994   2.195   9.391
 1005POPC   GL115181   4.259   1.930   9.139
 1005POPC   GL215182   4.061   1.874   8.895
 1005POPC   C1A15183   4.586   1.841   8.788
 1005POPC   D2A15184   4.886   1.804   8.427
 1005POPC   C3A15185   4.716   1.825   7.988
 1005POPC   C4A15186   4.498   1.861   7.589
 1005POPC   C1B15187   4.277   2.246   8.734
 1005POPC   C2B15188   4.482   2.125   8.350
 1005POPC   C3B15189   4.240   2.039   7.986
 1005POPC   C4B15190   3.960   1.962   7.643
 1006POPC   NC315191  40.555  20.556   9.363
 1006POPC   PO415192  40.980  20.030   9.299
 1006POPC   GL115193  40.951  20.435   9.047
 1006POPC   GL215194  40.952  20.815   9.113
 1006POPC   C1A15195  40.789  20.598   8.651
 1006POPC   D2A15196  40.571  20.426   8.264
 1006POPC   C3A15197  40.820  20.586   7.927
 1006POPC   C4A15198  41.069  20.975   7.910
 1006POPC   C1B15199  40.593  21.031   8.892
 1006POPC   C2B15200  40.355  20.876   8.542
 1006POPC   C3B15201  40.466  20.928   8.118
 1006POPC   C4B15202  40.382  20.787   7.703
 1007POPC   NC315203   6.890   3.099   9.261
 1007POPC   PO415204   6.319   2.742   9.627
 1007POPC   GL115205   6.580   2.684   9.193
 1007POPC   GL215206   6.565   2.931   8.920
 1007POPC   C1A15207   6.823   2.511   8.802
 1007POPC   D2A15208   6.664   2.620   8.379
 1007POPC   C3A15209   6.668   2.468   7.946
 1007POPC   C4A15210   6.825   2.798   7.674
 1007POPC   C1B15211   6.261   2.738   8.690
 1007POPC   C2B15212   6.241   2.994   8.320
 1007POPC   C3B15213   6.379   2.908   7.887
 1007POPC   C4B15214   6.387   2.981   7.419
 1008POPC   NC315215  37.284  44.359   9.555
 1008POPC   PO415216  37.866  44.773   9.675
 1008POPC   GL115217  37.676  44.637   9.290
 1008POPC   GL215218  37.996  44.518   9.189
 1008POPC   C1A15219  37.479  44.499   8.891
 1008POPC   D2A15220  37.676  44.403   8.498
 1008POPC   C3A15221  37.541  44.553   8.075
 1008POPC   C4A15222  37.722  44.587   7.682
 1008POPC   C1B15223  37.891  44.781   8.817
 1008POPC   C2B15224  37.971  44.800   8.364
 1008POPC   C3B15225  37.855  44.984   7.995
 1008POPC   C4B15226  38.100  44.929   7.637
 1009POPC   NC315227   0.948   9.271   9.364
 1009POPC   PO415228   0.316   8.984   9.510
 1009POPC   GL115229   0.307   9.083   9.123
 1009POPC   GL215230   0.151   8.780   9.036
 1009POPC   C1A15231   0.475   9.050   8.715
 1009POPC   D2A15232   0.784   8.962   8.404
 1009POPC   C3A15233   0.629   9.024   7.972
 1009POPC   C4A15234   0.332   8.808   7.679
 1009POPC   C1B15235   0.196   8.587   8.635
 1009POPC   C2B15236   0.163   8.699   8.193
 1009POPC   C3B15237  44.878   8.648   7.840
 1009POPC   C4B15238  44.870   8.675   7.396
 1010POPC   NC315239  15.629  32.716   9.540
 1010POPC   PO415240  15.187  33.213   9.796
 1010POPC   GL115241  15.248  33.158   9.330
 1010POPC   GL215242  15.092  32.831   9.285
 1010POPC   C1A15243  15.144  33.167   8.882
 1010POPC   D2A15244  15.241  32.857   8.565
 1010POPC   C3A15245  15.402  32.985   8.196
 1010POPC   C4A15246  15.245  33.135   7.818
 1010POPC   C1B15247  14.909  32.683   8.892
 1010POPC   C2B15248  14.752  32.696   8.452
 1010POPC   C3B15249  14.829  32.824   8.040
 1010POPC   C4B15250  14.938  32.757   7.641
 1011POPC   NC315251  31.964  16.254   9.528
 1011POPC   PO415252  32.083  15.533   9.504
 1011POPC   GL115253  32.284  15.868   9.262
 1011POPC   GL215254  32.041  15.956   9.050
 1011POPC   C1A15255  32.501  15.802   8.859
 1011POPC   D2A15256  32.556  15.858   8.417
 1011POPC   C3A15257  32.250  15.886   8.091
 1011POPC   C4A15258  32.397  16.006   7.685
 1011POPC   C1B15259  32.095  16.043   8.602
 1011POPC   C2B15260  32.059  16.354   8.266
 1011POPC   C3B15261  32.012  16.294   7.823
 1011POPC   C4B15262  32.042  16.226   7.373
 1012POPC   NC315263  39.512  12.129   9.378
 1012POPC   PO415264  38.880  12.190   9.438
 1012POPC   GL115265  39.098  12.203   9.087
 1012POPC   GL215266  39.139  11.822   9.155
 1012POPC   C1A15267  39.305  12.029   8.729
 1012POPC   D2A15268  39.258  11.878   8.338
 1012POPC   C3A15269  39.311  12.264   8.099
 1012POPC   C4A15270  39.176  12.507   7.750
 1012POPC   C1B15271  38.803  11.846   8.834
 1012POPC   C2B15272  38.740  11.715   8.416
 1012POPC   C3B15273  38.875  11.864   7.994
 1012POPC   C4B15274  39.270  11.844   7.809
 1013POPC   NC315275  30.843  11.692   9.250
 1013POPC   PO415276  30.503  12.176   9.489
 1013POPC   GL115277  30.472  12.004   9.087
 1013POPC   GL215278  30.791  12.185   9.059
 1013POPC   C1A15279  30.645  11.918   8.662
 1013POPC   D2A15280  30.837  11.988   8.269
 1013POPC   C3A15281  30.574  11.819   7.959
 1013POPC   C4A15282  30.397  12.188   7.769
 1013POPC   C1B15283  31.105  12.224   8.764
 1013POPC   C2B15284  31.204  12.435   8.391
 1013POPC   C3B15285  31.173  12.295   7.989
 1013POPC   C4B15286  30.915  12.098   7.719
 1014POPC   NC315287  27.530  34.298  10.182
 1014POPC   PO415288  27.420  34.505   9.585
 1014POPC   GL115289  27.405  34.432   9.110
 1014POPC   GL215290  27.081  34.297   9.147
 1014POPC   C1A15291  27.579  34.503   8.641
 1014POPC   D2A15292  27.684  34.479   8.170
 1014POPC   C3A15293  27.795  34.690   7.774
 1014POPC   C4A15294  28.040  34.562   7.378
 1014POPC   C1B15295  27.085  34.419   8.711
 1014POPC   C2B15296  27.186  34.643   8.294
 1014POPC   C3B15297  27.238  34.401   7.909
 1014POPC   C4B15298  27.651  34.193   7.722
 1015POPC   NC315299  26.860  28.660   9.543
 1015POPC   PO415300  26.394  28.261   9.470
 1015POPC   GL115301  26.554  28.493   9.165
 1015POPC   GL215302  26.875  28.323   9.136
 1015POPC   C1A15303  26.502  28.352   8.772
 1015POPC   D2A15304  26.694  28.369   8.400
 1015POPC   C3A15305  26.874  28.089   8.135
 1015POPC   C4A15306  26.675  28.410   7.863
 1015POPC   C1B15307  27.090  28.446   8.756
 1015POPC   C2B15308  27.312  28.455   8.388
 1015POPC   C3B15309  27.190  28.477   7.977
 1015POPC   C4B15310  27.088  28.205   7.644
 1016POPC   NC315311   4.089  25.379   9.597
 1016POPC   PO415312   4.613  25.685   9.479
 1016POPC   GL115313   4.398  25.439   9.107
 1016POPC   GL215314   4.107  25.212   9.106
 1016POPC   C1A15315   4.273  25.404   8.655
 1016POPC   D2A15316   4.072  25.509   8.283
 1016POPC   C3A15317   4.324  25.353   8.024
 1016POPC   C4A15318   4.337  25.251   7.678
 1016POPC   C1B15319   3.936  25.015   8.752
 1016POPC   C2B15320   4.064  25.010   8.336
 1016POPC   C3B15321   3.835  24.948   7.975
 1016POPC   C4B15322   3.947  24.846   7.534
 1017POPC   NC315323  24.744  38.572   9.359
 1017POPC   PO415324  24.185  38.268   9.539
 1017POPC   GL115325  24.233  38.163   9.082
 1017POPC   GL215326  24.474  38.402   8.973
 1017POPC   C1A15327  24.287  38.079   8.626
 1017POPC   D2A15328  24.518  38.377   8.430
 1017POPC   C3A15329  24.622  38.286   8.022
 1017POPC   C4A15330  24.311  38.236   7.675
 1017POPC   C1B15331  24.443  38.785   8.748
 1017POPC   C2B15332  24.267  38.850   8.380
 1017POPC   C3B15333  24.304  38.683   7.947
 1017POPC   C4B15334  24.411  38.722   7.524
 1018POPC   NC315335  18.583  30.631   9.518
 1018POPC   PO415336  17.868  30.818   9.533
 1018POPC   GL115337  17.947  30.901   9.087
 1018POPC   GL215338  18.073  30.574   9.062
 1018POPC   C1A15339  18.222  30.854   8.669
 1018POPC   D2A15340  18.607  30.756   8.427
 1018POPC   C3A15341  18.619  30.622   8.015
 1018POPC   C4A15342  18.357  30.705   7.687
 1018POPC   C1B15343  18.012  30.380   8.659
 1018POPC   C2B15344  18.191  30.367   8.241
 1018POPC   C3B15345  17.964  30.389   7.821
 1018POPC   C4B15346  17.964  30.567   7.373
 1019POPC   NC315347  44.283  22.646   9.296
 1019POPC   PO415348  44.687  22.091   9.566
 1019POPC   GL115349  44.529  21.957   9.162
 1019POPC   GL215350  44.520  22.278   9.015
 1019POPC   C1A15351  44.624  21.869   8.708
 1019POPC   D2A15352  44.497  21.962   8.265
 1019POPC   C3A15353  44.644  21.970   7.833
 1019POPC   C4A15354  44.759  21.945   7.407
 1019POPC   C1B15355  44.759  22.374   8.618
 1019POPC   C2B15356  44.832  22.343   8.152
 1019POPC   C3B15357  44.505  22.453   7.851
 1019POPC   C4B15358  44.516  22.552   7.410
 1020POPC   NC315359   9.759   8.418   9.454
 1020POPC   PO415360   9.149   8.081   9.435
 1020POPC   GL115361   9.462   8.214   9.118
 1020POPC   GL215362   9.643   7.940   9.092
 1020POPC   C1A15363   9.789   8.301   8.785
 1020POPC   D2A15364   9.910   8.049   8.435
 1020POPC   C3A15365   9.870   8.240   8.055
 1020POPC   C4A15366   9.604   8.437   7.814
 1020POPC   C1B15367   9.413   7.931   8.681
 1020POPC   C2B15368   9.469   7.785   8.236
 1020POPC   C3B15369   9.488   7.930   7.786
 1020POPC   C4B15370   9.548   7.928   7.294
 1021POPC   NC315371  12.657  15.651   9.739
 1021POPC   PO415372  13.210  15.905   9.508
 1021POPC   GL115373  13.001  16.005   9.131
 1021POPC   GL215374  12.710  15.794   9.217
 1021POPC   C1A15375  12.753  16.124   8.735
 1021POPC   D2A15376  12.447  16.102   8.359
 1021POPC   C3A15377  12.435  16.137   7.894
 1021POPC   C4A15378  12.590  16.135   7.482
 1021POPC   C1B15379  12.864  15.623   8.823
 1021POPC   C2B15380  12.742  15.701   8.434
 1021POPC   C3B15381  12.850  15.886   8.044
 1021POPC   C4B15382  12.766  15.692   7.646
 1022POPC   NC315383  20.746   5.758   9.507
 1022POPC   PO415384  20.132   5.954   9.428
 1022POPC   GL115385  20.425   5.849   9.101
 1022POPC   GL215386  20.791   5.931   9.019
 1022POPC   C1A15387  20.519   5.572   8.770
 1022POPC   D2A15388  20.746   5.695   8.435
 1022POPC   C3A15389  20.568   5.623   8.067
 1022POPC   C4A15390  20.576   5.876   7.734
 1022POPC   C1B15391  20.511   6.093   8.655
 1022POPC   C2B15392  20.532   6.144   8.178
 1022POPC   C3B15393  20.578   6.387   7.772
 1022POPC   C4B15394  20.842   6.607   7.448
 1023POPC   NC315395  38.178  29.295   9.616
 1023POPC   PO415396  38.661  28.892   9.451
 1023POPC   GL115397  38.458  29.137   9.113
 1023POPC   GL215398  38.087  29.198   9.119
 1023POPC   C1A15399  38.336  29.040   8.676
 1023POPC   D2A15400  38.550  29.087   8.288
 1023POPC   C3A15401  38.407  28.911   7.909
 1023POPC   C4A15402  38.439  29.085   7.470
 1023POPC   C1B15403  38.005  29.423   8.724
 1023POPC   C2B15404  38.053  29.296   8.288
 1023POPC   C3B15405  38.094  29.291   7.852
 1023POPC   C4B15406  38.046  29.462   7.459
 1024POPC   NC315407   9.512  25.957   9.477
 1024POPC   PO415408  10.005  26.293   9.737
 1024POPC   GL115409   9.939  26.126   9.282
 1024POPC   GL215410   9.947  26.421   9.094
 1024POPC   C1A15411   9.692  26.001   8.875
 1024POPC   D2A15412   9.786  25.868   8.470
 1024POPC   C3A15413   9.649  26.030   8.107
 1024POPC   C4A15414   9.408  25.971   7.740
 1024POPC   C1B15415  10.009  26.346   8.696
 1024POPC   C2B15416   9.856  26.460   8.326
 1024POPC   C3B15417  10.009  26.367   7.966
 1024POPC   C4B15418   9.903  26.142   7.677
 1025POPC   NC315419   9.765  10.145   9.566
 1025POPC   PO415420   9.661   9.487   9.660
 1025POPC   GL115421   9.670   9.744   9.248
 1025POPC   GL215422  10.008   9.715   9.306
 1025POPC   C1A15423   9.712   9.844   8.765
 1025POPC   D2A15424   9.636   9.668   8.312
 1025POPC   C3A15425   9.610  10.018   7.978
 1025POPC   C4A15426   9.940   9.922   7.691
 1025POPC   C1B15427  10.000   9.472   8.938
 1025POPC   C2B15428  10.083   9.528   8.506
 1025POPC   C3B15429  10.084   9.303   8.124
 1025POPC   C4B15430  10.101   9.449   7.725
 1026POPC   NC315431   9.945  41.223   9.489
 1026POPC   PO415432   9.476  40.758   9.703
 1026POPC   GL115433   9.523  40.965   9.243
 1026POPC   GL215434   9.843  40.834   9.111
 1026POPC   C1A15435   9.546  40.833   8.736
 1026POPC   D2A15436   9.905  40.959   8.516
 1026POPC   C3A15437   9.748  40.909   8.146
 1026POPC   C4A15438   9.496  40.690   7.897
 1026POPC   C1B15439  10.087  40.555   8.813
 1026POPC   C2B15440  10.185  40.541   8.369
 1026POPC   C3B15441  10.071  40.566   7.955
 1026POPC   C4B15442  10.083  40.438   7.564
 1027POPC   NC315443  29.419  19.783   9.396
 1027POPC   PO415444  28.931  20.266   9.424
 1027POPC   GL115445  29.016  19.919   9.093
 1027POPC   GL215446  28.787  19.656   9.064
 1027POPC   C1A15447  29.160  19.807   8.650
 1027POPC   D2A15448  29.438  19.760   8.253
 1027POPC   C3A15449  29.285  19.982   7.864
 1027POPC   C4A15450  29.219  19.794   7.463
 1027POPC   C1B15451  28.794  19.461   8.669
 1027POPC   C2B15452  29.076  19.375   8.327
 1027POPC   C3B15453  29.123  19.493   7.906
 1027POPC   C4B15454  28.885  19.380   7.552
 1028POPC   NC315455  33.473  20.642   9.462
 1028POPC   PO415456  34.036  20.326   9.728
 1028POPC   GL115457  34.044  20.450   9.232
 1028POPC   GL215458  34.271  20.720   9.105
 1028POPC   C1A15459  34.059  20.387   8.764
 1028POPC   D2A15460  34.180  20.523   8.335
 1028POPC   C3A15461  33.821  20.537   7.991
 1028POPC   C4A15462  33.860  20.449   7.506
 1028POPC   C1B15463  34.004  20.920   8.821
 1028POPC   C2B15464  33.881  20.943   8.396
 1028POPC   C3B15465  33.962  21.029   7.971
 1028POPC   C4B15466  33.701  20.934   7.659
 1029POPC   NC315467   7.886  20.797   9.505
 1029POPC   PO415468   8.536  20.487   9.537
 1029POPC   GL115469   8.287  20.613   9.172
 1029POPC   GL215470   7.939  20.545   9.087
 1029POPC   C1A15471   8.302  20.787   8.757
 1029POPC   D2A15472   8.167  20.665   8.324
 1029POPC   C3A15473   8.159  20.740   7.884
 1029POPC   C4A15474   8.437  20.468   7.622
 1029POPC   C1B15475   7.920  20.412   8.695
 1029POPC   C2B15476   7.673  20.596   8.353
 1029POPC   C3B15477   7.713  20.447   7.962
 1029POPC   C4B15478   8.005  20.192   7.774
 1030POPC   NC315479  27.958  39.397   9.524
 1030POPC   PO415480  28.659  39.139   9.408
 1030POPC   GL115481  28.264  39.129   9.217
 1030POPC   GL215482  28.089  38.810   9.183
 1030POPC   C1A15483  28.133  39.390   8.884
 1030POPC   D2A15484  28.049  39.551   8.476
 1030POPC   C3A15485  27.989  39.278   8.136
 1030POPC   C4A15486  28.313  39.384   7.823
 1030POPC   C1B15487  28.308  38.906   8.763
 1030POPC   C2B15488  28.436  39.084   8.342
 1030POPC   C3B15489  28.640  38.994   7.936
 1030POPC   C4B15490  28.664  39.179   7.504
 1031POPC   NC315491  16.077   1.610   9.652
 1031POPC   PO415492  16.130   2.263   9.472
 1031POPC   GL115493  15.964   1.957   9.210
 1031POPC   GL215494  15.659   2.124   9.135
 1031POPC   C1A15495  16.081   1.715   8.833
 1031POPC   D2A15496  16.207   1.941   8.468
 1031POPC   C3A15497  16.029   1.819   8.114
 1031POPC   C4A15498  16.040   1.849   7.688
 1031POPC   C1B15499  15.802   2.153   8.706
 1031POPC   C2B15500  15.575   2.243   8.316
 1031POPC   C3B15501  15.631   2.055   7.925
 1031POPC   C4B15502  15.634   1.586   7.809
 1032POPC   NC315503   3.094   4.717   9.274
 1032POPC   PO415504   2.441   4.923   9.484
 1032POPC   GL115505   2.593   5.158   9.141
 1032POPC   GL215506   2.877   5.074   8.977
 1032POPC   C1A15507   2.531   5.354   8.746
 1032POPC   D2A15508   2.827   5.404   8.397
 1032POPC   C3A15509   2.827   5.117   8.046
 1032POPC   C4A15510   2.747   5.031   7.616
 1032POPC   C1B15511   3.131   5.046   8.630
 1032POPC   C2B15512   3.252   4.857   8.240
 1032POPC   C3B15513   3.269   5.020   7.798
 1032POPC   C4B15514   3.165   4.969   7.347
 1033POPC   NC315515  38.731  21.834   9.504
 1033POPC   PO415516  38.213  22.270   9.393
 1033POPC   GL115517  38.556  22.150   9.164
 1033POPC   GL215518  38.642  22.425   8.976
 1033POPC   C1A15519  38.671  21.918   8.813
 1033POPC   D2A15520  38.529  21.972   8.378
 1033POPC   C3A15521  38.181  21.900   8.103
 1033POPC   C4A15522  38.358  21.957   7.707
 1033POPC   C1B15523  38.258  22.208   8.759
 1033POPC   C2B15524  38.091  22.306   8.395
 1033POPC   C3B15525  38.153  22.514   8.037
 1033POPC   C4B15526  38.238  22.445   7.647
 1034POPC   NC315527  36.060  20.129   9.812
 1034POPC   PO415528  36.119  20.761   9.633
 1034POPC   GL115529  36.066  20.525   9.228
 1034POPC   GL215530  36.287  20.272   9.099
 1034POPC   C1A15531  35.963  20.492   8.781
 1034POPC   D2A15532  36.214  20.330   8.439
 1034POPC   C3A15533  36.154  20.578   8.057
 1034POPC   C4A15534  35.946  20.607   7.658
 1034POPC   C1B15535  36.481  20.604   8.822
 1034POPC   C2B15536  36.508  20.774   8.380
 1034POPC   C3B15537  36.576  20.846   7.908
 1034POPC   C4B15538  36.438  20.681   7.487
 1035POPC   NC315539   9.155  36.729   9.502
 1035POPC   PO415540   9.213  37.387   9.561
 1035POPC   GL115541   9.036  37.123   9.162
 1035POPC   GL215542   8.766  36.887   9.124
 1035POPC   C1A15543   8.859  37.096   8.691
 1035POPC   D2A15544   8.906  36.827   8.326
 1035POPC   C3A15545   8.943  37.089   7.976
 1035POPC   C4A15546   8.695  37.386   7.744
 1035POPC   C1B15547   8.989  36.598   8.810
 1035POPC   C2B15548   9.152  36.357   8.433
 1035POPC   C3B15549   9.193  36.484   8.007
 1035POPC   C4B15550   8.869  36.629   7.775
 1036POPC   NC315551   9.027   8.532   9.920
 1036POPC   PO415552   8.550   8.155   9.531
 1036POPC   GL115553   8.739   8.075   9.113
 1036POPC   GL215554   8.999   8.302   8.976
 1036POPC   C1A15555   8.880   7.902   8.718
 1036POPC   D2A15556   9.033   8.101   8.336
 1036POPC   C3A15557   8.973   7.953   7.892
 1036POPC   C4A15558   9.095   7.796   7.467
 1036POPC   C1B15559   8.674   8.413   8.731
 1036POPC   C2B15560   8.789   8.590   8.379
 1036POPC   C3B15561   8.933   8.470   7.994
 1036POPC   C4B15562   8.745   8.380   7.626
 1037POPC   NC315563  40.715  36.783   9.792
 1037POPC   PO415564  40.664  36.108   9.492
 1037POPC   GL115565  40.785  36.113   9.109
 1037POPC   GL215566  41.007  35.911   9.141
 1037POPC   C1A15567  40.645  36.100   8.708
 1037POPC   D2A15568  40.480  35.907   8.356
 1037POPC   C3A15569  40.648  36.035   7.951
 1037POPC   C4A15570  40.570  36.215   7.528
 1037POPC   C1B15571  41.019  35.760   8.757
 1037POPC   C2B15572  40.988  35.974   8.354
 1037POPC   C3B15573  41.146  35.924   7.939
 1037POPC   C4B15574  40.880  35.586   7.801
 1038POPC   NC315575  11.113  30.401   9.464
 1038POPC   PO415576  11.275  31.019   9.473
 1038POPC   GL115577  11.185  30.787   9.113
 1038POPC   GL215578  11.489  30.615   9.170
 1038POPC   C1A15579  11.121  30.729   8.665
 1038POPC   D2A15580  11.364  30.881   8.306
 1038POPC   C3A15581  11.241  30.818   7.868
 1038POPC   C4A15582  11.126  30.435   7.690
 1038POPC   C1B15583  11.471  30.349   8.822
 1038POPC   C2B15584  11.687  30.360   8.439
 1038POPC   C3B15585  11.509  30.407   8.049
 1038POPC   C4B15586  11.729  30.281   7.709
 1039POPC   NC315587  10.473  11.501   9.533
 1039POPC   PO415588  11.076  11.642   9.517
 1039POPC   GL115589  10.816  11.448   9.130
 1039POPC   GL215590  10.988  11.154   8.997
 1039POPC   C1A15591  10.537  11.239   8.759
 1039POPC   D2A15592  10.573  10.972   8.339
 1039POPC   C3A15593  10.325  11.062   7.927
 1039POPC   C4A15594  10.406  11.160   7.463
 1039POPC   C1B15595  11.000  11.401   8.610
 1039POPC   C2B15596  10.705  11.474   8.298
 1039POPC   C3B15597  10.730  11.388   7.868
 1039POPC   C4B15598  10.891  11.049   7.647
 1040POPC   NC315599  27.893  14.417   9.687
 1040POPC   PO415600  28.584  14.400   9.621
 1040POPC   GL115601  28.576  14.467   9.198
 1040POPC   GL215602  28.240  14.416   9.148
 1040POPC   C1A15603  28.676  14.393   8.766
 1040POPC   D2A15604  28.503  14.554   8.383
 1040POPC   C3A15605  28.645  14.478   7.927
 1040POPC   C4A15606  28.461  14.289   7.510
 1040POPC   C1B15607  28.140  14.323   8.701
 1040POPC   C2B15608  28.138  14.259   8.226
 1040POPC   C3B15609  28.045  14.265   7.787
 1040POPC   C4B15610  27.932  14.154   7.379
 1041POPC   NC315611  36.063   4.933   9.442
 1041POPC   PO415612  36.542   5.480   9.457
 1041POPC   GL115613  36.237   5.281   9.101
 1041POPC   GL215614  36.262   4.914   8.980
 1041POPC   C1A15615  36.131   5.272   8.648
 1041POPC   D2A15616  36.401   5.103   8.333
 1041POPC   C3A15617  36.318   5.105   7.877
 1041POPC   C4A15618  36.253   5.220   7.432
 1041POPC   C1B15619  35.849   4.843   8.807
 1041POPC   C2B15620  35.668   5.018   8.453
 1041POPC   C3B15621  35.864   4.910   8.062
 1041POPC   C4B15622  35.809   5.061   7.652
 1042POPC   NC315623   5.747  10.810  10.052
 1042POPC   PO415624   5.689  10.380   9.523
 1042POPC   GL115625   5.900  10.618   9.197
 1042POPC   GL215626   5.624  10.583   9.003
 1042POPC   C1A15627   6.045  10.619   8.734
 1042POPC   D2A15628   5.649  10.556   8.472
 1042POPC   C3A15629   5.694  10.676   8.054
 1042POPC   C4A15630   6.132  10.545   7.959
 1042POPC   C1B15631   5.827  10.185   8.857
 1042POPC   C2B15632   6.107  10.117   8.495
 1042POPC   C3B15633   6.053  10.003   8.074
 1042POPC   C4B15634   5.765  10.215   7.859
 1043POPC   NC315635  28.361   2.494   9.323
 1043POPC   PO415636  28.335   1.775   9.439
 1043POPC   GL115637  28.401   1.880   9.025
 1043POPC   GL215638  28.140   2.123   9.038
 1043POPC   C1A15639  28.394   1.926   8.578
 1043POPC   D2A15640  28.493   2.278   8.296
 1043POPC   C3A15641  28.421   2.096   7.897
 1043POPC   C4A15642  28.177   1.762   7.952
 1043POPC   C1B15643  28.108   2.349   8.664
 1043POPC   C2B15644  28.019   2.154   8.282
 1043POPC   C3B15645  27.853   2.145   7.906
 1043POPC   C4B15646  27.818   2.051   7.480
 1044POPC   NC315647  32.347  40.255   9.339
 1044POPC   PO415648  32.789  39.831   9.561
 1044POPC   GL115649  32.544  39.726   9.171
 1044POPC   GL215650  32.164  39.819   9.167
 1044POPC   C1A15651  32.444  39.937   8.758
 1044POPC   D2A15652  32.331  40.305   8.509
 1044POPC   C3A15653  32.361  40.146   8.086
 1044POPC   C4A15654  32.567  39.921   7.766
 1044POPC   C1B15655  31.955  40.021   8.815
 1044POPC   C2B15656  32.020  39.885   8.377
 1044POPC   C3B15657  31.896  39.992   7.931
 1044POPC   C4B15658  32.003  40.282   7.574
 1045POPC   NC315659  30.871  29.693   9.747
 1045POPC   PO415660  30.301  30.081   9.585
 1045POPC   GL115661  30.664  30.021   9.268
 1045POPC   GL215662  30.855  29.716   9.179
 1045POPC   C1A15663  30.644  30.157   8.802
 1045POPC   D2A15664  30.500  30.275   8.362
 1045POPC   C3A15665  30.717  30.029   8.045
 1045POPC   C4A15666  31.037  30.124   7.732
 1045POPC   C1B15667  30.457  29.686   8.909
 1045POPC   C2B15668  30.300  29.734   8.460
 1045POPC   C3B15669  30.386  29.597   8.012
 1045POPC   C4B15670  30.686  29.676   7.652
 1046POPC   NC315671  34.149  15.882   9.488
 1046POPC   PO415672  34.658  16.256   9.371
 1046POPC   GL115673  34.376  16.059   9.062
 1046POPC   GL215674  34.295  15.709   8.982
 1046POPC   C1A15675  34.461  16.049   8.632
 1046POPC   D2A15676  34.399  15.813   8.284
 1046POPC   C3A15677  34.439  16.041   7.952
 1046POPC   C4A15678  34.780  16.182   7.736
 1046POPC   C1B15679  34.703  15.610   8.765
 1046POPC   C2B15680  34.799  15.424   8.381
 1046POPC   C3B15681  34.695  15.520   7.970
 1046POPC   C4B15682  35.007  15.618   7.709
 1047POPC   NC315683  35.677  28.236   9.445
 1047POPC   PO415684  35.100  28.511   9.431
 1047POPC   GL115685  35.373  28.541   9.071
 1047POPC   GL215686  35.630  28.305   8.958
 1047POPC   C1A15687  35.482  28.648   8.631
 1047POPC   D2A15688  35.535  28.468   8.221
 1047POPC   C3A15689  35.472  28.809   7.958
 1047POPC   C4A15690  35.135  28.714   7.725
 1047POPC   C1B15691  35.573  28.035   8.613
 1047POPC   C2B15692  35.694  27.965   8.177
 1047POPC   C3B15693  35.899  28.022   7.786
 1047POPC   C4B15694  35.662  28.415   7.704
 1048POPC   NC315695  36.638  29.494   9.438
 1048POPC   PO415696  36.880  28.803   9.477
 1048POPC   GL115697  37.047  28.965   9.083
 1048POPC   GL215698  37.043  29.338   9.055
 1048POPC   C1A15699  37.140  29.048   8.653
 1048POPC   D2A15700  37.248  28.767   8.321
 1048POPC   C3A15701  36.909  28.759   8.064
 1048POPC   C4A15702  37.171  28.984   7.831
 1048POPC   C1B15703  36.837  29.463   8.665
 1048POPC   C2B15704  36.882  29.249   8.245
 1048POPC   C3B15705  36.767  29.288   7.797
 1048POPC   C4B15706  36.729  29.471   7.361
 1049POPC   NC315707  35.308  35.432   9.615
 1049POPC   PO415708  35.071  34.814   9.708
 1049POPC   GL115709  35.076  35.205   9.240
 1049POPC   GL215710  35.251  35.524   9.118
 1049POPC   C1A15711  35.088  35.196   8.752
 1049POPC   D2A15712  35.128  35.034   8.306
 1049POPC   C3A15713  35.273  35.165   7.919
 1049POPC   C4A15714  35.296  35.569   7.749
 1049POPC   C1B15715  35.530  35.466   8.742
 1049POPC   C2B15716  35.536  35.462   8.282
 1049POPC   C3B15717  35.757  35.672   7.940
 1049POPC   C4B15718  35.749  35.651   7.479
 1050POPC   NC315719  29.930  38.832   9.631
 1050POPC   PO415720  29.327  38.419   9.592
 1050POPC   GL115721  29.218  38.257   9.185
 1050POPC   GL215722  29.099  38.588   9.154
 1050POPC   C1A15723  29.331  38.205   8.743
 1050POPC   D2A15724  29.078  38.258   8.375
 1050POPC   C3A15725  29.249  38.304   7.955
 1050POPC   C4A15726  29.211  38.403   7.512
 1050POPC   C1B15727  28.861  38.486   8.797
 1050POPC   C2B15728  28.800  38.709   8.425
 1050POPC   C3B15729  29.087  38.773   8.130
 1050POPC   C4B15730  29.192  38.869   7.735
 1051POPC   NC315731  28.875  13.324   9.512
 1051POPC   PO415732  29.164  12.708   9.607
 1051POPC   GL115733  29.217  12.792   9.161
 1051POPC   GL215734  29.223  13.137   9.037
 1051POPC   C1A15735  29.306  12.668   8.748
 1051POPC   D2A15736  29.084  12.600   8.362
 1051POPC   C3A15737  29.252  12.759   7.988
 1051POPC   C4A15738  29.359  12.825   7.576
 1051POPC   C1B15739  29.181  13.134   8.573
 1051POPC   C2B15740  28.989  13.156   8.180
 1051POPC   C3B15741  28.773  12.998   7.808
 1051POPC   C4B15742  28.890  13.035   7.350
 1052POPC   NC315743  12.448  31.074   9.653
 1052POPC   PO415744  12.073  31.617   9.546
 1052POPC   GL115745  12.059  31.341   9.209
 1052POPC   GL215746  12.198  31.565   9.052
 1052POPC   C1A15747  12.169  31.124   8.806
 1052POPC   D2A15748  12.344  31.187   8.400
 1052POPC   C3A15749  12.119  31.211   8.005
 1052POPC   C4A15750  11.931  31.318   7.583
 1052POPC   C1B15751  12.131  31.626   8.621
 1052POPC   C2B15752  12.135  31.864   8.255
 1052POPC   C3B15753  12.194  31.692   7.862
 1052POPC   C4B15754  12.079  31.780   7.442
 1053POPC   NC315755  26.813  39.620   9.556
 1053POPC   PO415756  27.073  40.217   9.478
 1053POPC   GL115757  26.875  39.948   9.173
 1053POPC   GL215758  27.069  39.641   9.134
 1053POPC   C1A15759  26.599  40.033   8.830
 1053POPC   D2A15760  26.689  40.306   8.503
 1053POPC   C3A15761  26.715  40.220   8.074
 1053POPC   C4A15762  26.598  40.491   7.727
 1053POPC   C1B15763  26.906  39.642   8.749
 1053POPC   C2B15764  26.923  39.847   8.395
 1053POPC   C3B15765  26.939  39.736   8.012
 1053POPC   C4B15766  26.738  39.668   7.659
 1054POPC   NC315767  25.506  19.466   9.592
 1054POPC   PO415768  25.136  19.967   9.893
 1054POPC   GL115769  25.127  19.815   9.413
 1054POPC   GL215770  25.446  19.823   9.208
 1054POPC   C1A15771  24.996  19.811   8.942
 1054POPC   D2A15772  24.848  19.998   8.526
 1054POPC   C3A15773  24.925  19.878   8.074
 1054POPC   C4A15774  25.257  20.000   7.776
 1054POPC   C1B15775  25.411  20.043   8.767
 1054POPC   C2B15776  25.408  19.979   8.334
 1054POPC   C3B15777  25.487  19.646   8.046
 1054POPC   C4B15778  25.705  19.654   7.671
 1055POPC   NC315779  30.224  39.309   9.491
 1055POPC   PO415780  29.626  38.965   9.285
 1055POPC   GL115781  29.903  39.229   9.083
 1055POPC   GL215782  29.968  39.577   9.130
 1055POPC   C1A15783  29.974  39.142   8.664
 1055POPC   D2A15784  29.846  39.271   8.267
 1055POPC   C3A15785  30.011  39.023   7.933
 1055POPC   C4A15786  30.063  39.139   7.488
 1055POPC   C1B15787  30.296  39.523   8.774
 1055POPC   C2B15788  30.353  39.323   8.309
 1055POPC   C3B15789  30.214  39.521   7.890
 1055POPC   C4B15790  30.375  39.522   7.404
 1056POPC   NC315791  10.966  14.088   9.475
 1056POPC   PO415792  11.035  13.314   9.385
 1056POPC   GL115793  10.796  13.480   9.047
 1056POPC   GL215794  10.716  13.782   9.159
 1056POPC   C1A15795  10.486  13.335   8.736
 1056POPC   D2A15796  10.288  13.241   8.351
 1056POPC   C3A15797  10.273  13.598   8.049
 1056POPC   C4A15798  10.470  13.900   7.764
 1056POPC   C1B15799  10.604  13.836   8.731
 1056POPC   C2B15800  10.587  13.955   8.329
 1056POPC   C3B15801  10.874  14.095   8.021
 1056POPC   C4B15802  10.960  13.883   7.626
 1057POPC   NC315803  24.895   2.033   9.398
 1057POPC   PO415804  25.488   1.990   9.574
 1057POPC   GL115805  25.364   2.138   9.182
 1057POPC   GL215806  25.262   1.799   9.131
 1057POPC   C1A15807  25.248   2.139   8.747
 1057POPC   D2A15808  25.489   2.212   8.387
 1057POPC   C3A15809  25.277   2.090   8.031
 1057POPC   C4A15810  25.095   2.250   7.683
 1057POPC   C1B15811  25.132   1.637   8.767
 1057POPC   C2B15812  25.311   1.715   8.396
 1057POPC   C3B15813  25.178   1.605   7.999
 1057POPC   C4B15814  25.414   1.714   7.653
 1058POPC   NC315815  39.023   0.861   9.307
 1058POPC   PO415816  39.433   0.430   9.164
 1058POPC   GL115817  39.247   0.322   8.791
 1058POPC   GL215818  39.023   0.592   8.863
 1058POPC   C1A15819  39.509   0.342   8.414
 1058POPC   D2A15820  39.767   0.705   8.334
 1058POPC   C3A15821  39.482   0.909   8.094
 1058POPC   C4A15822  39.321   0.534   7.838
 1058POPC   C1B15823  39.314   0.789   8.591
 1058POPC   C2B15824  39.076   0.647   8.280
 1058POPC   C3B15825  38.827   0.403   8.000
 1058POPC   C4B15826  38.867   0.423   7.569
 1059POPC   NC315827   3.228   0.464   9.507
 1059POPC   PO415828   3.814   0.266   9.811
 1059POPC   GL115829   3.741   0.448   9.307
 1059POPC   GL215830   3.461   0.264   9.116
 1059POPC   C1A15831   3.827   0.375   8.802
 1059POPC   D2A15832   3.600   0.275   8.395
 1059POPC   C3A15833   3.822   0.332   7.984
 1059POPC   C4A15834   3.797   0.673   7.712
 1059POPC   C1B15835   3.275   0.491   8.784
 1059POPC   C2B15836   3.224   0.636   8.353
 1059POPC   C3B15837   3.332   0.470   7.942
 1059POPC   C4B15838   3.160   0.200   7.574
 1060POPC   NC315839  17.689   6.821   9.365
 1060POPC   PO415840  17.001   6.653   9.417
 1060POPC   GL115841  17.316   6.522   9.146
 1060POPC   GL215842  17.396   6.820   8.939
 1060POPC   C1A15843  17.339   6.341   8.746
 1060POPC   D2A15844  17.398   6.588   8.400
 1060POPC   C3A15845  17.309   6.459   8.014
 1060POPC   C4A15846  17.313   6.863   7.803
 1060POPC   C1B15847  17.776   6.600   8.756
 1060POPC   C2B15848  17.921   6.520   8.328
 1060POPC   C3B15849  17.764   6.700   7.987
 1060POPC   C4B15850  17.686   6.624   7.558
 1061POPC   NC315851  22.970  32.987   9.480
 1061POPC   PO415852  23.306  33.567   9.667
 1061POPC   GL115853  23.119  33.461   9.183
 1061POPC   GL215854  22.857  33.224   9.072
 1061POPC   C1A15855  23.082  33.381   8.665
 1061POPC   D2A15856  23.243  33.087   8.314
 1061POPC   C3A15857  23.092  33.111   7.864
 1061POPC   C4A15858  23.118  33.498   7.589
 1061POPC   C1B15859  22.790  32.874   8.756
 1061POPC   C2B15860  22.908  32.704   8.335
 1061POPC   C3B15861  22.741  32.712   7.939
 1061POPC   C4B15862  22.919  32.707   7.584
 1062POPC   NC315863   4.559  23.506   9.388
 1062POPC   PO415864   4.166  24.010   9.464
 1062POPC   GL115865   4.417  23.957   9.120
 1062POPC   GL215866   4.402  23.631   8.934
 1062POPC   C1A15867   4.402  24.085   8.701
 1062POPC   D2A15868   4.339  23.749   8.407
 1062POPC   C3A15869   4.642  23.716   8.070
 1062POPC   C4A15870   4.496  23.838   7.668
 1062POPC   C1B15871   4.114  23.350   8.755
 1062POPC   C2B15872   4.139  23.268   8.358
 1062POPC   C3B15873   4.182  23.471   7.982
 1062POPC   C4B15874   4.310  23.315   7.625
 1063POPC   NC315875  31.636   7.317   9.333
 1063POPC   PO415876  31.467   6.706   9.513
 1063POPC   GL115877  31.583   6.830   9.102
 1063POPC   GL215878  31.316   7.069   8.997
 1063POPC   C1A15879  31.610   6.600   8.712
 1063POPC   D2A15880  31.520   6.724   8.309
 1063POPC   C3A15881  31.618   6.518   7.908
 1063POPC   C4A15882  31.199   6.465   7.776
 1063POPC   C1B15883  31.636   7.145   8.679
 1063POPC   C2B15884  31.574   7.244   8.264
 1063POPC   C3B15885  31.513   7.021   7.900
 1063POPC   C4B15886  31.464   6.883   7.526
 1064POPC   NC315887  44.509  41.125   9.695
 1064POPC   PO415888  44.867  40.673   9.391
 1064POPC   GL115889  44.677  40.652   9.049
 1064POPC   GL215890  44.383  40.655   9.176
 1064POPC   C1A15891  44.805  40.763   8.660
 1064POPC   D2A15892   0.154  40.641   8.440
 1064POPC   C3A15893  44.979  40.774   8.069
 1064POPC   C4A15894  44.958  40.567   7.706
 1064POPC   C1B15895  44.253  40.614   8.768
 1064POPC   C2B15896  44.375  40.709   8.356
 1064POPC   C3B15897  44.461  40.774   7.946
 1064POPC   C4B15898  44.464  40.471   7.606
 1065POPC   NC315899  20.390  22.790   9.376
 1065POPC   PO415900  20.846  23.295   9.549
 1065POPC   GL115901  20.808  23.066   9.173
 1065POPC   GL215902  20.502  23.239   9.152
 1065POPC   C1A15903  20.660  22.901   8.761
 1065POPC   D2A15904  20.401  22.917   8.403
 1065POPC   C3A15905  20.454  22.792   8.008
 1065POPC   C4A15906  20.656  23.102   7.848
 1065POPC   C1B15907  20.201  23.148   8.821
 1065POPC   C2B15908  20.167  23.376   8.446
 1065POPC   C3B15909  20.253  23.362   8.015
 1065POPC   C4B15910  20.152  23.262   7.586
 1066POPC   NC315911  14.804  25.235   9.767
 1066POPC   PO415912  15.349  25.553   9.561
 1066POPC   GL115913  15.244  25.358   9.112
 1066POPC   GL215914  15.094  25.054   9.055
 1066POPC   C1A15915  15.145  25.308   8.637
 1066POPC   D2A15916  15.209  24.984   8.295
 1066POPC   C3A15917  15.286  25.253   7.946
 1066POPC   C4A15918  14.985  25.595   7.843
 1066POPC   C1B15919  14.812  24.919   8.689
 1066POPC   C2B15920  14.696  25.069   8.278
 1066POPC   C3B15921  14.835  25.058   7.828
 1066POPC   C4B15922  15.169  25.032   7.486
 1067POPC   NC315923  27.872   4.488   9.489
 1067POPC   PO415924  27.298   4.226   9.517
 1067POPC   GL115925  27.549   4.295   9.149
 1067POPC   GL215926  27.799   4.036   9.212
 1067POPC   C1A15927  27.470   4.325   8.719
 1067POPC   D2A15928  27.488   4.218   8.312
 1067POPC   C3A15929  27.720   4.495   8.066
 1067POPC   C4A15930  27.619   4.397   7.684
 1067POPC   C1B15931  27.841   4.011   8.773
 1067POPC   C2B15932  27.828   3.805   8.401
 1067POPC   C3B15933  27.842   3.977   8.015
 1067POPC   C4B15934  27.671   3.885   7.661
 1068POPC   NC315935  30.092  10.793   9.861
 1068POPC   PO415936  29.767  10.636   9.344
 1068POPC   GL115937  30.076  10.481   9.110
 1068POPC   GL215938  29.820  10.266   8.924
 1068POPC   C1A15939  30.214  10.508   8.724
 1068POPC   D2A15940  29.971  10.739   8.463
 1068POPC   C3A15941  29.973  10.470   8.131
 1068POPC   C4A15942  30.083  10.569   7.737
 1068POPC   C1B15943  29.576  10.382   8.563
 1068POPC   C2B15944  29.507  10.650   8.238
 1068POPC   C3B15945  29.574  10.614   7.847
 1068POPC   C4B15946  29.674  10.356   7.524
 1069POPC   NC315947   0.661  23.835   9.437
 1069POPC   PO415948   0.324  23.268   9.421
 1069POPC   GL115949   0.397  23.566   9.096
 1069POPC   GL215950   0.207  23.885   9.026
 1069POPC   C1A15951   0.607  23.744   8.727
 1069POPC   D2A15952   0.600  24.016   8.372
 1069POPC   C3A15953   0.762  23.791   8.031
 1069POPC   C4A15954   0.661  23.784   7.576
 1069POPC   C1B15955   0.106  23.553   8.697
 1069POPC   C2B15956   0.323  23.523   8.323
 1069POPC   C3B15957   0.278  23.685   7.925
 1069POPC   C4B15958   0.052  23.706   7.571
 1070POPC   NC315959  13.187  43.700   9.539
 1070POPC   PO415960  12.604  43.867   9.187
 1070POPC   GL115961  12.847  43.849   8.868
 1070POPC   GL215962  13.112  43.920   9.072
 1070POPC   C1A15963  13.053  44.017   8.520
 1070POPC   D2A15964  13.021  44.366   8.232
 1070POPC   C3A15965  12.746  44.180   7.916
 1070POPC   C4A15966  12.670  43.807   7.643
 1070POPC   C1B15967  13.296  43.600   8.816
 1070POPC   C2B15968  13.268  43.472   8.394
 1070POPC   C3B15969  13.099  43.755   8.055
 1070POPC   C4B15970  13.275  44.130   7.855
 1071POPC   NC315971  35.802  14.333   9.595
 1071POPC   PO415972  35.201  14.432   9.414
 1071POPC   GL115973  35.569  14.357   9.132
 1071POPC   GL215974  35.766  14.630   8.962
 1071POPC   C1A15975  35.533  14.128   8.767
 1071POPC   D2A15976  35.293  14.192   8.415
 1071POPC   C3A15977  35.378  14.207   7.969
 1071POPC   C4A15978  34.991  14.209   7.694
 1071POPC   C1B15979  35.473  14.632   8.654
 1071POPC   C2B15980  35.550  14.628   8.250
 1071POPC   C3B15981  35.357  14.740   7.899
 1071POPC   C4B15982  35.409  14.515   7.556
 1072POPC   NC315983   4.024  22.579   9.381
 1072POPC   PO415984   4.218  23.213   9.384
 1072POPC   GL115985   4.360  22.891   9.115
 1072POPC   GL215986   4.612  22.637   9.224
 1072POPC   C1A15987   4.332  22.871   8.687
 1072POPC   D2A15988   4.208  22.753   8.307
 1072POPC   C3A15989   4.417  22.995   8.028
 1072POPC   C4A15990   4.659  22.919   7.732
 1072POPC   C1B15991   4.589  22.450   8.819
 1072POPC   C2B15992   4.684  22.584   8.395
 1072POPC   C3B15993   4.519  22.482   7.988
 1072POPC   C4B15994   4.169  22.491   7.687
 1073POPC   NC315995  10.633  21.948   9.797
 1073POPC   PO415996  10.554  21.293   9.637
 1073POPC   GL115997  10.547  21.250   9.191
 1073POPC   GL215998  10.220  21.335   9.086
 1073POPC   C1A15999  10.553  21.206   8.736
 1073POPC   D2A16000  10.277  21.461   8.475
 1073POPC   C3A16001  10.461  21.419   8.073
 1073POPC   C4A16002  10.385  21.278   7.686
 1073POPC   C1B16003  10.025  21.104   8.728
 1073POPC   C2B16004   9.947  21.047   8.243
 1073POPC   C3B16005   9.902  21.143   7.768
 1073POPC   C4B16006  10.019  21.245   7.307
 1074POPC   NC316007  12.555   5.978   9.362
 1074POPC   PO416008  13.014   5.518   9.534
 1074POPC   GL116009  13.038   5.799   9.151
 1074POPC   GL216010  13.006   6.168   9.184
 1074POPC   C1A16011  12.826   5.949   8.755
 1074POPC   D2A16012  12.535   5.758   8.492
 1074POPC   C3A16013  12.690   5.843   8.091
 1074POPC   C4A16014  12.601   5.617   7.718
 1074POPC   C1B16015  13.235   6.238   8.791
 1074POPC   C2B16016  13.132   6.149   8.367
 1074POPC   C3B16017  13.003   6.236   7.948
 1074POPC   C4B16018  12.928   5.984   7.601
 1075POPC   NC316019  35.601  44.459   9.361
 1075POPC   PO416020  35.419   0.162   9.326
 1075POPC   GL116021  35.317  44.825   9.050
 1075POPC   GL216022  35.019  44.625   9.094
 1075POPC   C1A16023  35.247  44.682   8.626
 1075POPC   D2A16024  35.466  44.525   8.283
 1075POPC   C3A16025  35.407  44.801   7.947
 1075POPC   C4A16026  35.702  44.935   7.679
 1075POPC   C1B16027  34.966  44.277   8.744
 1075POPC   C2B16028  35.089  44.187   8.313
 1075POPC   C3B16029  35.093  44.400   7.945
 1075POPC   C4B16030  34.973  44.314   7.537
 1076POPC   NC316031   0.839   0.263   9.916
 1076POPC   PO416032   0.285   0.457   9.608
 1076POPC   GL116033   0.451   0.348   9.217
 1076POPC   GL216034   0.818   0.369   9.219
 1076POPC   C1A16035   0.575   0.570   8.818
 1076POPC   D2A16036   0.798   0.569   8.438
 1076POPC   C3A16037   0.505   0.438   8.142
 1076POPC   C4A16038   0.471   0.582   7.723
 1076POPC   C1B16039   0.674   0.069   8.852
 1076POPC   C2B16040   0.784   0.046   8.410
 1076POPC   C3B16041   0.900   0.137   7.997
 1076POPC   C4B16042   0.562   0.082   7.764
 1077POPC   NC316043  33.552  41.040   9.668
 1077POPC   PO416044  34.014  40.704   9.392
 1077POPC   GL116045  33.997  40.522   9.052
 1077POPC   GL216046  34.325  40.449   9.025
 1077POPC   C1A16047  33.664  40.574   8.782
 1077POPC   D2A16048  33.746  40.709   8.386
 1077POPC   C3A16049  33.501  40.608   8.052
 1077POPC   C4A16050  33.708  40.523   7.702
 1077POPC   C1B16051  34.270  40.816   8.733
 1077POPC   C2B16052  34.243  40.769   8.297
 1077POPC   C3B16053  34.036  40.867   7.911
 1077POPC   C4B16054  33.899  41.278   7.708
 1078POPC   NC316055   8.540  20.048   9.403
 1078POPC   PO416056   8.041  19.619   9.494
 1078POPC   GL116057   8.221  19.753   9.125
 1078POPC   GL216058   8.009  20.048   9.149
 1078POPC   C1A16059   8.357  19.637   8.695
 1078POPC   D2A16060   8.200  19.389   8.335
 1078POPC   C3A16061   8.398  19.603   8.014
 1078POPC   C4A16062   8.249  19.768   7.658
 1078POPC   C1B16063   7.893  19.880   8.746
 1078POPC   C2B16064   8.098  19.890   8.332
 1078POPC   C3B16065   7.877  19.661   8.019
 1078POPC   C4B16066   7.672  19.756   7.663
 1079POPC   NC316067   2.764   4.647   9.663
 1079POPC   PO416068   3.162   4.239   9.375
 1079POPC   GL116069   2.836   4.321   9.095
 1079POPC   GL216070   2.639   4.633   9.089
 1079POPC   C1A16071   2.682   4.140   8.771
 1079POPC   D2A16072   2.569   4.241   8.395
 1079POPC   C3A16073   2.857   4.262   8.051
 1079POPC   C4A16074   2.770   4.098   7.640
 1079POPC   C1B16075   2.803   4.633   8.635
 1079POPC   C2B16076   2.580   4.694   8.191
 1079POPC   C3B16077   2.590   4.573   7.729
 1079POPC   C4B16078   2.524   4.625   7.234
 1080POPC   NC316079  36.545  34.366   9.464
 1080POPC   PO416080  37.112  34.844   9.492
 1080POPC   GL116081  36.994  34.587   9.149
 1080POPC   GL216082  36.680  34.639   9.075
 1080POPC   C1A16083  36.991  34.722   8.687
 1080POPC   D2A16084  37.135  34.719   8.251
 1080POPC   C3A16085  37.007  34.429   7.936
 1080POPC   C4A16086  36.966  34.768   7.629
 1080POPC   C1B16087  36.508  34.503   8.723
 1080POPC   C2B16088  36.726  34.382   8.372
 1080POPC   C3B16089  36.520  34.482   8.005
 1080POPC   C4B16090  36.615  34.357   7.602
 1081POPC   NC316091  39.775  38.666   9.512
 1081POPC   PO416092  40.147  38.085   9.511
 1081POPC   GL116093  39.919  38.257   9.154
 1081POPC   GL216094  40.144  38.527   9.108
 1081POPC   C1A16095  39.787  38.413   8.735
 1081POPC   D2A16096  39.825  38.576   8.306
 1081POPC   C3A16097  40.062  38.321   8.046
 1081POPC   C4A16098  39.988  38.154   7.650
 1081POPC   C1B16099  40.060  38.874   8.812
 1081POPC   C2B16100  40.071  39.011   8.375
 1081POPC   C3B16101  40.160  38.835   7.967
 1081POPC   C4B16102  40.236  38.610   7.610
 1082POPC   NC316103  16.564   5.270   9.441
 1082POPC   PO416104  17.052   4.888   9.548
 1082POPC   GL116105  16.848   4.909   9.159
 1082POPC   GL216106  17.002   5.229   9.118
 1082POPC   C1A16107  16.611   5.013   8.757
 1082POPC   D2A16108  16.512   5.294   8.369
 1082POPC   C3A16109  16.617   5.146   7.943
 1082POPC   C4A16110  16.671   4.874   7.597
 1082POPC   C1B16111  17.130   4.983   8.744
 1082POPC   C2B16112  17.029   5.068   8.337
 1082POPC   C3B16113  17.030   4.854   7.980
 1082POPC   C4B16114  17.174   4.864   7.584
 1083POPC   NC316115  15.198   8.301   9.564
 1083POPC   PO416116  14.705   8.014   9.415
 1083POPC   GL116117  15.031   8.093   9.121
 1083POPC   GL216118  15.086   8.430   9.072
 1083POPC   C1A16119  15.210   8.022   8.721
 1083POPC   D2A16120  15.088   8.283   8.343
 1083POPC   C3A16121  15.273   8.124   7.998
 1083POPC   C4A16122  15.225   7.911   7.656
 1083POPC   C1B16123  15.361   8.505   8.733
 1083POPC   C2B16124  15.575   8.427   8.316
 1083POPC   C3B16125  15.371   8.615   7.951
 1083POPC   C4B16126  15.326   8.400   7.518
 1084POPC   NC316127  38.729  27.557   9.485
 1084POPC   PO416128  38.122  27.323   9.682
 1084POPC   GL116129  38.289  27.581   9.197
 1084POPC   GL216130  38.621  27.456   9.010
 1084POPC   C1A16131  38.360  27.765   8.704
 1084POPC   D2A16132  38.344  27.618   8.261
 1084POPC   C3A16133  38.244  27.878   7.833
 1084POPC   C4A16134  38.333  27.839   7.360
 1084POPC   C1B16135  38.849  27.799   8.807
 1084POPC   C2B16136  38.781  27.905   8.351
 1084POPC   C3B16137  38.722  27.728   7.919
 1084POPC   C4B16138  38.823  27.690   7.442
 1085POPC   NC316139  26.676  37.500   9.469
 1085POPC   PO416140  26.804  38.186   9.395
 1085POPC   GL116141  26.892  37.853   9.137
 1085POPC   GL216142  26.523  37.805   9.081
 1085POPC   C1A16143  27.137  37.920   8.776
 1085POPC   D2A16144  27.061  38.133   8.411
 1085POPC   C3A16145  26.749  37.940   8.147
 1085POPC   C4A16146  26.845  37.731   7.777
 1085POPC   C1B16147  26.643  37.822   8.651
 1085POPC   C2B16148  26.590  37.480   8.362
 1085POPC   C3B16149  26.647  37.306   7.968
 1085POPC   C4B16150  26.446  37.465   7.584
 1086POPC   NC316151  31.099   4.062   9.591
 1086POPC   PO416152  31.604   4.449   9.576
 1086POPC   GL116153  31.382   4.369   9.189
 1086POPC   GL216154  31.290   4.014   9.129
 1086POPC   C1A16155  31.471   4.322   8.750
 1086POPC   D2A16156  31.480   4.534   8.363
 1086POPC   C3A16157  31.672   4.366   8.034
 1086POPC   C4A16158  31.577   4.541   7.664
 1086POPC   C1B16159  31.124   3.946   8.716
 1086POPC   C2B16160  31.189   4.124   8.325
 1086POPC   C3B16161  31.216   4.176   7.873
 1086POPC   C4B16162  30.993   3.957   7.556
 1087POPC   NC316163   0.870  14.125   9.270
 1087POPC   PO416164   0.647  14.658   9.588
 1087POPC   GL116165   0.483  14.524   9.193
 1087POPC   GL216166   0.339  14.169   9.188
 1087POPC   C1A16167   0.553  14.734   8.768
 1087POPC   D2A16168   0.611  14.720   8.334
 1087POPC   C3A16169   0.360  14.559   7.998
 1087POPC   C4A16170   0.595  14.793   7.713
 1087POPC   C1B16171   0.497  14.220   8.759
 1087POPC   C2B16172   0.273  14.335   8.445
 1087POPC   C3B16173  44.965  14.248   8.165
 1087POPC   C4B16174   0.039  14.222   7.721
 1088POPC   NC316175   1.342   4.742   9.462
 1088POPC   PO416176   0.927   5.314   9.425
 1088POPC   GL116177   1.148   5.059   9.127
 1088POPC   GL216178   0.973   4.736   9.064
 1088POPC   C1A16179   1.333   4.933   8.752
 1088POPC   D2A16180   1.507   5.002   8.336
 1088POPC   C3A16181   1.341   4.861   7.946
 1088POPC   C4A16182   1.326   5.250   7.753
 1088POPC   C1B16183   0.737   5.057   8.835
 1088POPC   C2B16184   0.930   5.266   8.502
 1088POPC   C3B16185   0.841   5.283   8.069
 1088POPC   C4B16186   0.873   4.989   7.737
 1089POPC   NC316187   1.020  13.393   9.428
 1089POPC   PO416188   0.585  13.930   9.572
 1089POPC   GL116189   0.577  13.676   9.203
 1089POPC   GL216190   0.240  13.588   9.125
 1089POPC   C1A16191   0.582  13.714   8.753
 1089POPC   D2A16192   0.718  13.731   8.318
 1089POPC   C3A16193   0.440  13.498   8.070
 1089POPC   C4A16194   0.557  13.294   7.726
 1089POPC   C1B16195   0.092  13.911   8.816
 1089POPC   C2B16196   0.202  13.841   8.400
 1089POPC   C3B16197   0.385  14.003   8.021
 1089POPC   C4B16198   0.262  13.742   7.662
 1090POPC   NC316199   5.435  24.120   9.475
 1090POPC   PO416200   4.999  23.592   9.456
 1090POPC   GL116201   5.257  23.676   9.144
 1090POPC   GL216202   5.347  23.988   8.997
 1090POPC   C1A16203   5.328  23.503   8.773
 1090POPC   D2A16204   5.281  23.813   8.470
 1090POPC   C3A16205   5.196  23.700   8.044
 1090POPC   C4A16206   5.405  23.911   7.712
 1090POPC   C1B16207   4.909  24.007   8.877
 1090POPC   C2B16208   4.834  24.086   8.441
 1090POPC   C3B16209   5.135  24.199   8.140
 1090POPC   C4B16210   4.930  24.079   7.784
 1091POPC   NC316211  26.172  33.801   9.563
 1091POPC   PO416212  25.733  34.238   9.321
 1091POPC   GL116213  25.817  34.077   8.985
 1091POPC   GL216214  25.856  33.746   9.092
 1091POPC   C1A16215  25.851  33.967   8.567
 1091POPC   D2A16216  25.854  33.866   8.150
 1091POPC   C3A16217  26.260  33.876   7.928
 1091POPC   C4A16218  26.355  34.074   7.542
 1091POPC   C1B16219  26.141  33.593   8.767
 1091POPC   C2B16220  26.161  33.458   8.318
 1091POPC   C3B16221  25.972  33.425   7.908
 1091POPC   C4B16222  25.840  33.720   7.663
 1092POPC   NC316223   9.343  40.129   9.500
 1092POPC   PO416224   8.733  40.281   9.425
 1092POPC   GL116225   8.844  40.160   8.986
 1092POPC   GL216226   9.182  40.080   9.036
 1092POPC   C1A16227   8.945  39.796   8.668
 1092POPC   D2A16228   8.981  39.673   8.227
 1092POPC   C3A16229   8.757  39.909   7.946
 1092POPC   C4A16230   8.794  40.227   7.634
 1092POPC   C1B16231   9.239  40.235   8.663
 1092POPC   C2B16232   9.009  40.185   8.318
 1092POPC   C3B16233   9.211  40.166   7.933
 1092POPC   C4B16234   9.285  40.423   7.543
 1093POPC   NC316235  27.723  43.921   9.536
 1093POPC   PO416236  27.217  43.452   9.445
 1093POPC   GL116237  27.399  43.691   9.037
 1093POPC   GL216238  27.704  43.919   9.046
 1093POPC   C1A16239  27.381  44.020   8.676
 1093POPC   D2A16240  27.722  44.216   8.415
 1093POPC   C3A16241  27.633  44.085   7.991
 1093POPC   C4A16242  27.530  43.901   7.577
 1093POPC   C1B16243  27.789  43.664   8.691
 1093POPC   C2B16244  27.853  43.694   8.268
 1093POPC   C3B16245  27.874  43.651   7.851
 1093POPC   C4B16246  27.921  43.623   7.399
 1094POPC   NC316247   6.039  44.844   9.434
 1094POPC   PO416248   5.753   0.440   9.606
 1094POPC   GL116249   5.983   0.558   9.248
 1094POPC   GL216250   6.060   0.254   9.124
 1094POPC   C1A16251   6.050   0.718   8.848
 1094POPC   D2A16252   6.067   0.538   8.436
 1094POPC   C3A16253   6.032   0.732   8.040
 1094POPC   C4A16254   5.777   0.628   7.667
 1094POPC   C1B16255   5.813   0.244   8.796
 1094POPC   C2B16256   5.797   0.111   8.370
 1094POPC   C3B16257   5.748   0.237   7.986
 1094POPC   C4B16258   5.820   0.071   7.602
 1095POPC   NC316259  22.867  26.432   9.836
 1095POPC   PO416260  22.547  26.851   9.415
 1095POPC   GL116261  22.726  27.029   9.081
 1095POPC   GL216262  23.045  26.930   9.089
 1095POPC   C1A16263  22.784  26.895   8.630
 1095POPC   D2A16264  22.689  26.639   8.242
 1095POPC   C3A16265  22.765  26.946   7.925
 1095POPC   C4A16266  23.085  27.276   7.892
 1095POPC   C1B16267  23.253  26.746   8.728
 1095POPC   C2B16268  23.181  26.866   8.291
 1095POPC   C3B16269  23.219  26.755   7.875
 1095POPC   C4B16270  22.990  26.534   7.586
 1096POPC   NC316271  31.358  31.232   9.460
 1096POPC   PO416272  31.687  31.780   9.691
 1096POPC   GL116273  31.692  31.615   9.279
 1096POPC   GL216274  31.355  31.647   9.199
 1096POPC   C1A16275  31.722  31.439   8.857
 1096POPC   D2A16276  31.562  31.259   8.483
 1096POPC   C3A16277  31.610  31.409   8.068
 1096POPC   C4A16278  31.341  31.217   7.738
 1096POPC   C1B16279  31.211  31.507   8.818
 1096POPC   C2B16280  31.041  31.394   8.436
 1096POPC   C3B16281  31.106  31.514   8.063
 1096POPC   C4B16282  31.026  31.724   7.700
 1097POPC   NC316283  11.810  12.128   9.422
 1097POPC   PO416284  12.507  11.873   9.409
 1097POPC   GL116285  12.218  12.053   9.136
 1097POPC   GL216286  12.005  11.739   9.145
 1097POPC   C1A16287  12.004  12.298   8.805
 1097POPC   D2A16288  12.007  12.228   8.377
 1097POPC   C3A16289  11.827  12.462   8.053
 1097POPC   C4A16290  11.948  12.293   7.652
 1097POPC   C1B16291  12.184  11.729   8.737
 1097POPC   C2B16292  11.976  11.723   8.344
 1097POPC   C3B16293  12.147  11.814   7.948
 1097POPC   C4B16294  12.346  11.496   7.710
 1098POPC   NC316295  34.674   8.748   9.426
 1098POPC   PO416296  34.133   9.043   9.725
 1098POPC   GL116297  34.218   8.941   9.287
 1098POPC   GL216298  34.408   9.204   9.139
 1098POPC   C1A16299  34.334   8.776   8.851
 1098POPC   D2A16300  34.571   8.753   8.467
 1098POPC   C3A16301  34.516   8.983   8.085
 1098POPC   C4A16302  34.500   8.738   7.708
 1098POPC   C1B16303  34.636   9.195   8.765
 1098POPC   C2B16304  34.643   9.414   8.393
 1098POPC   C3B16305  34.827   9.431   7.970
 1098POPC   C4B16306  34.647   9.477   7.562
 1099POPC   NC316307  29.564  12.911   9.508
 1099POPC   PO416308  30.189  13.107   9.578
 1099POPC   GL116309  30.019  12.921   9.166
 1099POPC   GL216310  29.733  12.767   9.066
 1099POPC   C1A16311  30.110  12.746   8.728
 1099POPC   D2A16312  30.282  12.846   8.317
 1099POPC   C3A16313  30.176  12.638   7.948
 1099POPC   C4A16314  29.749  12.638   7.837
 1099POPC   C1B16315  29.665  13.058   8.765
 1099POPC   C2B16316  29.588  12.911   8.358
 1099POPC   C3B16317  29.598  13.141   7.996
 1099POPC   C4B16318  29.758  13.143   7.615
 1100POPC   NC316319   8.911  37.644   9.822
 1100POPC   PO416320   9.286  37.954   9.382
 1100POPC   GL116321   9.171  37.618   9.047
 1100POPC   GL216322   8.772  37.513   8.993
 1100POPC   C1A16323   9.096  37.536   8.617
 1100POPC   D2A16324   8.814  37.494   8.289
 1100POPC   C3A16325   9.107  37.589   7.985
 1100POPC   C4A16326   9.131  37.735   7.611
 1100POPC   C1B16327   8.632  37.828   8.690
 1100POPC   C2B16328   8.481  37.927   8.288
 1100POPC   C3B16329   8.649  37.882   7.868
 1100POPC   C4B16330   8.645  37.798   7.419
 1101POPC   NC316331  25.304  20.287   9.588
 1101POPC   PO416332  24.967  20.919   9.637
 1101POPC   GL116333  25.042  20.666   9.245
 1101POPC   GL216334  25.332  20.432   9.100
 1101POPC   C1A16335  25.038  20.690   8.803
 1101POPC   D2A16336  25.151  20.406   8.449
 1101POPC   C3A16337  24.931  20.395   8.066
 1101POPC   C4A16338  24.844  20.480   7.621
 1101POPC   C1B16339  25.553  20.567   8.713
 1101POPC   C2B16340  25.661  20.463   8.311
 1101POPC   C3B16341  25.425  20.441   7.938
 1101POPC   C4B16342  25.338  20.416   7.469
 1102POPC   NC316343  25.278  30.509   9.475
 1102POPC   PO416344  25.217  31.134   9.572
 1102POPC   GL116345  25.335  30.902   9.167
 1102POPC   GL216346  25.551  31.099   9.015
 1102POPC   C1A16347  25.451  30.611   8.799
 1102POPC   D2A16348  25.661  30.682   8.395
 1102POPC   C3A16349  25.459  30.501   8.011
 1102POPC   C4A16350  25.558  30.432   7.560
 1102POPC   C1B16351  25.295  31.085   8.641
 1102POPC   C2B16352  25.102  30.732   8.406
 1102POPC   C3B16353  24.937  30.550   8.030
 1102POPC   C4B16354  25.084  30.643   7.621
 1103POPC   NC316355  44.187  34.554   9.342
 1103POPC   PO416356  43.473  34.284   9.534
 1103POPC   GL116357  43.740  34.331   9.134
 1103POPC   GL216358  43.747  34.674   9.090
 1103POPC   C1A16359  43.874  34.435   8.676
 1103POPC   D2A16360  43.598  34.467   8.313
 1103POPC   C3A16361  43.743  34.344   7.915
 1103POPC   C4A16362  44.163  34.399   7.797
 1103POPC   C1B16363  43.489  34.791   8.758
 1103POPC   C2B16364  43.793  34.947   8.488
 1103POPC   C3B16365  43.796  34.864   8.067
 1103POPC   C4B16366  43.376  34.810   7.863
 1104POPC   NC316367  41.639  37.005   9.482
 1104POPC   PO416368  41.097  36.578   9.551
 1104POPC   GL116369  41.260  36.775   9.129
 1104POPC   GL216370  41.639  36.748   9.044
 1104POPC   C1A16371  41.304  36.758   8.656
 1104POPC   D2A16372  41.591  36.663   8.293
 1104POPC   C3A16373  41.456  36.902   7.970
 1104POPC   C4A16374  41.354  36.812   7.557
 1104POPC   C1B16375  41.478  37.188   8.843
 1104POPC   C2B16376  41.290  37.258   8.402
 1104POPC   C3B16377  41.334  37.405   7.995
 1104POPC   C4B16378  41.665  37.304   7.714
 1105POPC   NC316379   4.077  43.820   9.439
 1105POPC   PO416380   4.598  44.269   9.627
 1105POPC   GL116381   4.580  43.958   9.208
 1105POPC   GL216382   4.433  43.628   9.085
 1105POPC   C1A16383   4.623  43.906   8.727
 1105POPC   D2A16384   4.469  44.035   8.327
 1105POPC   C3A16385   4.596  43.832   7.928
 1105POPC   C4A16386   4.465  44.005   7.514
 1105POPC   C1B16387   4.116  43.682   8.731
 1105POPC   C2B16388   3.991  43.800   8.282
 1105POPC   C3B16389   4.093  43.778   7.825
 1105POPC   C4B16390   4.225  43.543   7.449
 1106POPC   NC316391  42.926  10.318   9.533
 1106POPC   PO416392  43.468  10.618   9.413
 1106POPC   GL116393  43.249  10.365   9.150
 1106POPC   GL216394  42.938  10.602   9.122
 1106POPC   C1A16395  43.292  10.405   8.750
 1106POPC   D2A16396  43.418  10.702   8.521
 1106POPC   C3A16397  43.179  10.613   8.208
 1106POPC   C4A16398  43.074  10.814   7.851
 1106POPC   C1B16399  42.814  10.248   8.876
 1106POPC   C2B16400  42.906  10.186   8.440
 1106POPC   C3B16401  42.829  10.298   8.005
 1106POPC   C4B16402  43.201  10.347   7.755
 1107POPC   NC316403  39.663  37.932   9.469
 1107POPC   PO416404  39.033  37.735   9.669
 1107POPC   GL116405  39.126  37.613   9.225
 1107POPC   GL216406  39.491  37.627   9.112
 1107POPC   C1A16407  39.149  37.731   8.760
 1107POPC   D2A16408  39.437  37.596   8.423
 1107POPC   C3A16409  39.245  37.371   8.079
 1107POPC   C4A16410  39.144  37.575   7.700
 1107POPC   C1B16411  39.652  37.913   8.794
 1107POPC   C2B16412  39.560  38.100   8.373
 1107POPC   C3B16413  39.569  37.916   7.975
 1107POPC   C4B16414  39.491  37.974   7.536
 1108POPC   NC316415  22.328  41.970   9.408
 1108POPC   PO416416  22.074  41.271   9.420
 1108POPC   GL116417  21.997  41.598   9.132
 1108POPC   GL216418  22.324  41.667   8.983
 1108POPC   C1A16419  21.923  41.483   8.705
 1108POPC   D2A16420  22.234  41.587   8.400
 1108POPC   C3A16421  22.142  41.642   7.956
 1108POPC   C4A16422  21.848  41.736   7.646
 1108POPC   C1B16423  22.366  41.247   8.787
 1108POPC   C2B16424  22.346  41.087   8.371
 1108POPC   C3B16425  22.545  41.313   8.049
 1108POPC   C4B16426  22.611  41.571   7.699
 1109POPC   NC316427  38.448  42.801   9.513
 1109POPC   PO416428  38.708  42.183   9.474
 1109POPC   GL116429  38.501  42.388   9.158
 1109POPC   GL216430  38.704  42.647   9.082
 1109POPC   C1A16431  38.240  42.404   8.781
 1109POPC   D2A16432  38.221  42.126   8.422
 1109POPC   C3A16433  38.212  42.324   8.020
 1109POPC   C4A16434  38.315  42.190   7.608
 1109POPC   C1B16435  38.733  42.472   8.694
 1109POPC   C2B16436  38.601  42.522   8.292
 1109POPC   C3B16437  38.737  42.396   7.903
 1109POPC   C4B16438  38.750  42.540   7.507
 1110POPC   NC316439  37.170  11.076   9.419
 1110POPC   PO416440  36.772  11.565   9.447
 1110POPC   GL116441  36.803  11.286   9.131
 1110POPC   GL216442  36.706  10.947   9.220
 1110POPC   C1A16443  37.004  11.340   8.764
 1110POPC   D2A16444  36.860  11.626   8.479
 1110POPC   C3A16445  37.033  11.667   8.059
 1110POPC   C4A16446  37.288  11.426   7.799
 1110POPC   C1B16447  36.785  10.874   8.777
 1110POPC   C2B16448  36.756  11.109   8.364
 1110POPC   C3B16449  36.925  11.068   7.934
 1110POPC   C4B16450  36.964  10.885   7.503
 1111POPC   NC316451  26.088  24.693   9.313
 1111POPC   PO416452  25.921  24.063   9.463
 1111POPC   GL116453  26.120  24.213   9.070
 1111POPC   GL216454  26.440  24.406   9.043
 1111POPC   C1A16455  25.997  24.464   8.675
 1111POPC   D2A16456  25.694  24.597   8.335
 1111POPC   C3A16457  25.828  24.368   7.974
 1111POPC   C4A16458  26.032  24.662   7.675
 1111POPC   C1B16459  26.511  24.605   8.615
 1111POPC   C2B16460  26.285  24.573   8.187
 1111POPC   C3B16461  26.295  24.253   7.809
 1111POPC   C4B16462  26.307  24.363   7.350
 1112POPC   NC316463  26.291   1.840   9.489
 1112POPC   PO416464  26.677   1.136   9.649
 1112POPC   GL116465  26.707   1.075   9.200
 1112POPC   GL216466  26.731   1.382   9.003
 1112POPC   C1A16467  26.920   0.966   8.808
 1112POPC   D2A16468  26.868   0.774   8.419
 1112POPC   C3A16469  26.962   1.024   8.110
 1112POPC   C4A16470  26.965   1.031   7.702
 1112POPC   C1B16471  26.499   1.513   8.656
 1112POPC   C2B16472  26.752   1.643   8.309
 1112POPC   C3B16473  27.040   1.545   7.997
 1112POPC   C4B16474  26.944   1.534   7.572
 1113POPC   NC316475  29.095  40.525   9.357
 1113POPC   PO416476  29.111  39.814   9.399
 1113POPC   GL116477  29.164  40.115   9.047
 1113POPC   GL216478  28.903  40.313   8.932
 1113POPC   C1A16479  29.240  40.171   8.594
 1113POPC   D2A16480  29.054  39.942   8.249
 1113POPC   C3A16481  29.271  39.780   7.912
 1113POPC   C4A16482  29.162  39.869   7.479
 1113POPC   C1B16483  28.856  39.854   8.748
 1113POPC   C2B16484  28.616  39.668   8.399
 1113POPC   C3B16485  28.595  39.827   8.001
 1113POPC   C4B16486  28.707  39.682   7.619
 1114POPC   NC316487  19.539  26.247   9.559
 1114POPC   PO416488  20.069  25.823   9.416
 1114POPC   GL116489  19.802  26.073   9.128
 1114POPC   GL216490  19.445  26.095   9.064
 1114POPC   C1A16491  19.865  26.145   8.705
 1114POPC   D2A16492  20.200  26.167   8.416
 1114POPC   C3A16493  20.089  26.180   8.007
 1114POPC   C4A16494  20.197  25.820   7.792
 1114POPC   C1B16495  19.378  26.328   8.664
 1114POPC   C2B16496  19.633  26.313   8.273
 1114POPC   C3B16497  19.652  25.932   8.006
 1114POPC   C4B16498  19.348  25.794   7.722
 1115POPC   NC316499   0.902  18.237   9.326
 1115POPC   PO416500   1.529  18.510   9.429
 1115POPC   GL116501   1.196  18.599   9.138
 1115POPC   GL216502   1.324  18.871   8.955
 1115POPC   C1A16503   0.955  18.542   8.756
 1115POPC   D2A16504   1.055  18.331   8.400
 1115POPC   C3A16505   0.965  18.547   8.059
 1115POPC   C4A16506   1.041  18.386   7.674
 1115POPC   C1B16507   1.486  18.500   8.740
 1115POPC   C2B16508   1.560  18.460   8.338
 1115POPC   C3B16509   1.462  18.399   7.962
 1115POPC   C4B16510   1.687  18.655   7.721
 1116POPC   NC316511  14.650  42.841   9.451
 1116POPC   PO416512  14.188  43.256   9.164
 1116POPC   GL116513  14.484  42.900   8.957
 1116POPC   GL216514  14.877  42.808   8.987
 1116POPC   C1A16515  14.493  42.871   8.496
 1116POPC   D2A16516  14.292  43.259   8.300
 1116POPC   C3A16517  14.292  43.359   7.863
 1116POPC   C4A16518  14.524  43.323   7.458
 1116POPC   C1B16519  14.930  43.173   8.708
 1116POPC   C2B16520  14.802  43.266   8.274
 1116POPC   C3B16521  14.580  42.970   7.982
 1116POPC   C4B16522  14.718  42.785   7.611
 1117POPC   NC316523  34.808  28.111   9.407
 1117POPC   PO416524  34.438  28.661   9.571
 1117POPC   GL116525  34.451  28.408   9.176
 1117POPC   GL216526  34.797  28.474   9.040
 1117POPC   C1A16527  34.495  28.212   8.744
 1117POPC   D2A16528  34.575  28.483   8.390
 1117POPC   C3A16529  34.379  28.366   8.002
 1117POPC   C4A16530  34.576  28.004   7.803
 1117POPC   C1B16531  34.967  28.760   8.739
 1117POPC   C2B16532  35.073  28.630   8.311
 1117POPC   C3B16533  34.882  28.394   8.002
 1117POPC   C4B16534  34.655  28.765   7.894
 1118POPC   NC316535  28.918  41.112   9.438
 1118POPC   PO416536  29.522  40.658   9.448
 1118POPC   GL116537  29.429  40.907   9.116
 1118POPC   GL216538  29.347  40.624   8.930
 1118POPC   C1A16539  29.137  41.107   8.823
 1118POPC   D2A16540  28.902  41.133   8.452
 1118POPC   C3A16541  29.192  40.998   8.143
 1118POPC   C4A16542  29.331  40.742   7.817
 1118POPC   C1B16543  29.122  40.667   8.561
 1118POPC   C2B16544  29.114  40.466   8.181
 1118POPC   C3B16545  29.156  40.272   7.770
 1118POPC   C4B16546  29.091  40.343   7.285
 1119POPC   NC316547   9.224  41.787   9.486
 1119POPC   PO416548   8.642  41.274   9.507
 1119POPC   GL116549   8.839  41.494   9.197
 1119POPC   GL216550   9.129  41.332   9.244
 1119POPC   C1A16551   8.885  41.509   8.740
 1119POPC   D2A16552   8.651  41.445   8.340
 1119POPC   C3A16553   8.800  41.675   7.961
 1119POPC   C4A16554   9.179  41.856   7.758
 1119POPC   C1B16555   9.152  41.100   8.915
 1119POPC   C2B16556   9.234  41.161   8.504
 1119POPC   C3B16557   9.256  41.102   8.093
 1119POPC   C4B16558   9.124  41.325   7.762
 1120POPC   NC316559  34.550  31.122   9.440
 1120POPC   PO416560  34.436  31.742   9.447
 1120POPC   GL116561  34.631  31.556   9.122
 1120POPC   GL216562  34.969  31.413   9.164
 1120POPC   C1A16563  34.637  31.679   8.712
 1120POPC   D2A16564  34.852  31.551   8.342
 1120POPC   C3A16565  34.632  31.653   7.968
 1120POPC   C4A16566  34.642  31.698   7.512
 1120POPC   C1B16567  34.844  31.221   8.779
 1120POPC   C2B16568  34.576  31.145   8.424
 1120POPC   C3B16569  34.681  31.160   7.996
 1120POPC   C4B16570  34.478  31.195   7.606
 1121POPC   NC316571  39.850  20.549   9.450
 1121POPC   PO416572  40.409  20.972   9.534
 1121POPC   GL116573  40.179  20.839   9.137
 1121POPC   GL216574  40.176  20.502   8.976
 1121POPC   C1A16575  39.898  20.875   8.767
 1121POPC   D2A16576  39.912  20.562   8.439
 1121POPC   C3A16577  40.027  20.616   8.027
 1121POPC   C4A16578  39.823  20.876   7.712
 1121POPC   C1B16579  39.798  20.248   8.831
 1121POPC   C2B16580  39.551  20.210   8.437
 1121POPC   C3B16581  39.681  20.137   8.024
 1121POPC   C4B16582  39.785  20.363   7.659
 1122POPC   NC316583  28.864   3.169   9.355
 1122POPC   PO416584  29.291   2.939   9.861
 1122POPC   GL116585  29.306   2.925   9.315
 1122POPC   GL216586  29.177   2.657   9.098
 1122POPC   C1A16587  29.162   3.030   8.800
 1122POPC   D2A16588  29.287   2.726   8.425
 1122POPC   C3A16589  29.087   2.803   8.007
 1122POPC   C4A16590  29.124   2.948   7.578
 1122POPC   C1B16591  28.907   2.564   8.708
 1122POPC   C2B16592  28.973   2.371   8.258
 1122POPC   C3B16593  28.812   2.416   7.835
 1122POPC   C4B16594  28.662   2.806   7.669
 1123POPC   NC316595   9.678   6.085   9.440
 1123POPC   PO416596   9.741   5.441   9.430
 1123POPC   GL116597   9.872   5.746   9.098
 1123POPC   GL216598  10.058   6.087   9.098
 1123POPC   C1A16599   9.920   5.785   8.671
 1123POPC   D2A16600   9.622   5.741   8.372
 1123POPC   C3A16601   9.706   5.641   7.975
 1123POPC   C4A16602   9.474   5.953   7.798
 1123POPC   C1B16603   9.956   6.317   8.705
 1123POPC   C2B16604   9.724   6.252   8.334
 1123POPC   C3B16605   9.932   6.117   7.963
 1123POPC   C4B16606  10.089   6.338   7.637
 1124POPC   NC316607  30.354  15.920   9.533
 1124POPC   PO416608  30.847  16.332   9.587
 1124POPC   GL116609  30.513  16.220   9.170
 1124POPC   GL216610  30.582  15.834   9.084
 1124POPC   C1A16611  30.576  16.116   8.665
 1124POPC   D2A16612  30.854  15.956   8.313
 1124POPC   C3A16613  30.741  16.128   7.918
 1124POPC   C4A16614  30.899  16.279   7.524
 1124POPC   C1B16615  30.363  15.654   8.703
 1124POPC   C2B16616  30.363  15.855   8.275
 1124POPC   C3B16617  30.449  15.723   7.861
 1124POPC   C4B16618  30.662  15.826   7.514
 1125POPC   NC316619  36.438  21.852   9.365
 1125POPC   PO416620  35.946  22.305   9.643
 1125POPC   GL116621  36.113  22.336   9.221
 1125POPC   GL216622  36.067  22.023   9.076
 1125POPC   C1A16623  36.122  22.407   8.757
 1125POPC   D2A16624  36.147  22.152   8.374
 1125POPC   C3A16625  36.405  22.243   8.016
 1125POPC   C4A16626  36.377  22.063   7.635
 1125POPC   C1B16627  35.809  21.987   8.730
 1125POPC   C2B16628  35.650  21.913   8.348
 1125POPC   C3B16629  35.835  22.083   7.974
 1125POPC   C4B16630  35.883  21.840   7.636
 1126POPC   NC316631  21.322  11.760   9.614
 1126POPC   PO416632  21.510  12.434   9.440
 1126POPC   GL116633  21.566  12.133   9.144
 1126POPC   GL216634  21.234  11.987   9.165
 1126POPC   C1A16635  21.679  12.284   8.742
 1126POPC   D2A16636  21.888  12.371   8.361
 1126POPC   C3A16637  21.693  12.211   7.958
 1126POPC   C4A16638  21.428  12.096   7.617
 1126POPC   C1B16639  21.158  12.226   8.794
 1126POPC   C2B16640  20.975  12.175   8.396
 1126POPC   C3B16641  21.122  12.084   8.035
 1126POPC   C4B16642  20.905  12.215   7.731
 1127POPC   NC316643  30.391  26.089   9.354
 1127POPC   PO416644  31.051  25.972   9.306
 1127POPC   GL116645  30.873  26.233   8.990
 1127POPC   GL216646  30.522  26.337   8.924
 1127POPC   C1A16647  30.841  26.059   8.598
 1127POPC   D2A16648  30.714  25.741   8.323
 1127POPC   C3A16649  30.787  26.024   8.019
 1127POPC   C4A16650  30.815  26.014   7.602
 1127POPC   C1B16651  30.371  25.949   8.727
 1127POPC   C2B16652  30.342  26.093   8.325
 1127POPC   C3B16653  30.273  25.989   7.930
 1127POPC   C4B16654  30.457  26.329   7.731
 1128POPC   NC316655  29.607  18.168   9.480
 1128POPC   PO416656  30.153  18.569   9.550
 1128POPC   GL116657  30.014  18.405   9.177
 1128POPC   GL216658  29.705  18.539   9.159
 1128POPC   C1A16659  29.827  18.177   8.823
 1128POPC   D2A16660  29.751  18.121   8.408
 1128POPC   C3A16661  29.986  18.309   8.104
 1128POPC   C4A16662  30.062  18.178   7.720
 1128POPC   C1B16663  29.776  18.709   8.820
 1128POPC   C2B16664  29.796  18.623   8.450
 1128POPC   C3B16665  29.585  18.601   8.070
 1128POPC   C4B16666  29.844  18.631   7.727
 1129POPC   NC316667  18.791  16.944   9.534
 1129POPC   PO416668  18.061  16.742   9.416
 1129POPC   GL116669  18.261  16.620   9.040
 1129POPC   GL216670  18.576  16.755   9.104
 1129POPC   C1A16671  18.314  16.617   8.595
 1129POPC   D2A16672  18.092  16.840   8.285
 1129POPC   C3A16673  18.107  16.564   7.972
 1129POPC   C4A16674  18.133  16.452   7.569
 1129POPC   C1B16675  18.514  17.040   8.755
 1129POPC   C2B16676  18.587  16.994   8.312
 1129POPC   C3B16677  18.591  16.743   7.919
 1129POPC   C4B16678  18.511  16.787   7.461
 1130POPC   NC316679  43.886  13.219   9.366
 1130POPC   PO416680  44.155  12.553   9.499
 1130POPC   GL116681  43.952  12.725   9.171
 1130POPC   GL216682  43.569  12.714   9.243
 1130POPC   C1A16683  44.142  12.766   8.758
 1130POPC   D2A16684  44.403  12.649   8.407
 1130POPC   C3A16685  44.173  12.729   8.062
 1130POPC   C4A16686  43.989  12.809   7.663
 1130POPC   C1B16687  43.613  12.917   8.828
 1130POPC   C2B16688  43.743  13.022   8.420
 1130POPC   C3B16689  43.634  12.824   8.045
 1130POPC   C4B16690  43.556  13.045   7.717
 1131POPC   NC316691  28.720   6.939   9.518
 1131POPC   PO416692  28.765   6.216   9.463
 1131POPC   GL116693  28.482   6.386   9.131
 1131POPC   GL216694  28.514   6.745   9.101
 1131POPC   C1A16695  28.170   6.493   8.814
 1131POPC   D2A16696  28.086   6.713   8.434
 1131POPC   C3A16697  28.333   6.531   8.133
 1131POPC   C4A16698  28.202   6.469   7.747
 1131POPC   C1B16699  28.377   6.984   8.747
 1131POPC   C2B16700  28.469   7.070   8.290
 1131POPC   C3B16701  28.348   6.963   7.849
 1131POPC   C4B16702  28.405   6.804   7.405
 1132POPC   NC316703   6.691  36.614   9.495
 1132POPC   PO416704   6.416  37.198   9.475
 1132POPC   GL116705   6.676  37.111   9.085
 1132POPC   GL216706   6.825  36.760   9.042
 1132POPC   C1A16707   6.686  37.005   8.635
 1132POPC   D2A16708   6.453  36.724   8.371
 1132POPC   C3A16709   6.551  36.933   8.000
 1132POPC   C4A16710   6.931  37.175   7.882
 1132POPC   C1B16711   7.104  36.693   8.710
 1132POPC   C2B16712   6.963  36.707   8.306
 1132POPC   C3B16713   7.001  36.679   7.912
 1132POPC   C4B16714   6.719  36.662   7.580
 1133POPC   NC316715   5.323  19.989   9.521
 1133POPC   PO416716   4.797  19.498   9.643
 1133POPC   GL116717   4.952  19.604   9.208
 1133POPC   GL216718   4.984  19.958   9.149
 1133POPC   C1A16719   5.154  19.653   8.761
 1133POPC   D2A16720   4.989  19.861   8.371
 1133POPC   C3A16721   5.073  19.691   7.966
 1133POPC   C4A16722   4.776  19.539   7.651
 1133POPC   C1B16723   5.015  20.187   8.771
 1133POPC   C2B16724   5.032  20.383   8.358
 1133POPC   C3B16725   4.899  20.202   7.972
 1133POPC   C4B16726   4.952  20.010   7.598
 1134POPC   NC316727  17.030   9.782   9.637
 1134POPC   PO416728  16.619   9.310   9.437
 1134POPC   GL116729  16.767   9.551   9.087
 1134POPC   GL216730  16.889   9.879   9.164
 1134POPC   C1A16731  16.762   9.480   8.633
 1134POPC   D2A16732  16.470   9.266   8.342
 1134POPC   C3A16733  16.478   9.430   7.940
 1134POPC   C4A16734  16.889   9.396   7.777
 1134POPC   C1B16735  17.096   9.844   8.794
 1134POPC   C2B16736  17.155   9.985   8.384
 1134POPC   C3B16737  17.015   9.899   7.974
 1134POPC   C4B16738  16.636   9.897   7.793
 1135POPC   NC316739  26.080  31.806   9.598
 1135POPC   PO416740  25.863  32.440   9.573
 1135POPC   GL116741  26.041  32.317   9.175
 1135POPC   GL216742  26.205  31.985   9.131
 1135POPC   C1A16743  25.894  32.181   8.772
 1135POPC   D2A16744  25.617  32.162   8.451
 1135POPC   C3A16745  25.813  32.121   8.048
 1135POPC   C4A16746  25.790  31.935   7.659
 1135POPC   C1B16747  26.394  32.113   8.730
 1135POPC   C2B16748  26.248  32.198   8.317
 1135POPC   C3B16749  26.224  32.478   7.979
 1135POPC   C4B16750  26.308  32.445   7.498
 1136POPC   NC316751  18.374  27.802   9.409
 1136POPC   PO416752  17.793  27.536   9.543
 1136POPC   GL116753  18.104  27.357   9.222
 1136POPC   GL216754  18.501  27.373   9.139
 1136POPC   C1A16755  18.159  27.477   8.790
 1136POPC   D2A16756  18.146  27.751   8.465
 1136POPC   C3A16757  18.295  27.597   8.114
 1136POPC   C4A16758  18.205  27.649   7.713
 1136POPC   C1B16759  18.577  27.768   8.820
 1136POPC   C2B16760  18.581  28.011   8.419
 1136POPC   C3B16761  18.697  27.897   8.027
 1136POPC   C4B16762  18.606  27.972   7.611
 1137POPC   NC316763  28.723   5.267   9.796
 1137POPC   PO416764  28.243   4.770   9.659
 1137POPC   GL116765  28.338   5.114   9.300
 1137POPC   GL216766  28.105   5.291   9.268
 1137POPC   C1A16767  28.535   5.144   8.857
 1137POPC   D2A16768  28.378   5.103   8.411
 1137POPC   C3A16769  28.647   5.069   8.026
 1137POPC   C4A16770  28.712   4.836   7.657
 1137POPC   C1B16771  28.024   5.188   8.847
 1137POPC   C2B16772  27.849   5.139   8.432
 1137POPC   C3B16773  27.983   5.142   7.994
 1137POPC   C4B16774  28.291   5.324   7.717
 1138POPC   NC316775  37.914  21.918   9.516
 1138POPC   PO416776  37.608  21.362   9.357
 1138POPC   GL116777  37.838  21.505   9.007
 1138POPC   GL216778  38.054  21.821   9.035
 1138POPC   C1A16779  37.718  21.272   8.644
 1138POPC   D2A16780  37.438  21.103   8.320
 1138POPC   C3A16781  37.636  21.191   7.959
 1138POPC   C4A16782  37.796  21.572   7.811
 1138POPC   C1B16783  37.977  21.800   8.578
 1138POPC   C2B16784  38.009  21.453   8.282
 1138POPC   C3B16785  38.179  21.251   7.949
 1138POPC   C4B16786  38.242  21.466   7.636
 1139POPC   NC316787  10.232  24.065   9.437
 1139POPC   PO416788   9.522  23.742   9.499
 1139POPC   GL116789   9.620  23.839   9.096
 1139POPC   GL216790   9.995  23.840   8.985
 1139POPC   C1A16791   9.589  23.762   8.673
 1139POPC   D2A16792   9.802  23.756   8.302
 1139POPC   C3A16793   9.538  23.801   7.963
 1139POPC   C4A16794   9.690  23.851   7.538
 1139POPC   C1B16795   9.990  23.454   8.692
 1139POPC   C2B16796   9.955  23.272   8.240
 1139POPC   C3B16797  10.030  23.585   7.863
 1139POPC   C4B16798  10.127  24.032   7.799
 1140POPC   NC316799   3.612  26.258   9.601
 1140POPC   PO416800   3.036  26.016   9.424
 1140POPC   GL116801   3.280  25.988   9.073
 1140POPC   GL216802   3.643  26.004   9.163
 1140POPC   C1A16803   3.227  25.921   8.639
 1140POPC   D2A16804   3.248  26.162   8.254
 1140POPC   C3A16805   3.329  25.892   7.917
 1140POPC   C4A16806   3.546  25.967   7.513
 1140POPC   C1B16807   3.712  26.079   8.737
 1140POPC   C2B16808   3.670  25.839   8.350
 1140POPC   C3B16809   3.837  25.904   7.940
 1140POPC   C4B16810   3.890  26.324   7.776
 1141POPC   NC316811  15.383   6.473   9.554
 1141POPC   PO416812  14.780   6.265   9.251
 1141POPC   GL116813  15.053   6.535   9.031
 1141POPC   GL216814  15.249   6.795   9.181
 1141POPC   C1A16815  15.050   6.634   8.623
 1141POPC   D2A16816  14.824   6.546   8.275
 1141POPC   C3A16817  14.956   6.450   7.864
 1141POPC   C4A16818  14.878   6.755   7.525
 1141POPC   C1B16819  15.514   6.737   8.856
 1141POPC   C2B16820  15.525   6.652   8.457
 1141POPC   C3B16821  15.285   6.748   8.130
 1141POPC   C4B16822  15.412   6.802   7.733
 1142POPC   NC316823   3.745  18.722   9.390
 1142POPC   PO416824   3.455  19.298   9.589
 1142POPC   GL116825   3.703  19.211   9.238
 1142POPC   GL216826   3.398  19.016   9.137
 1142POPC   C1A16827   3.770  19.139   8.789
 1142POPC   D2A16828   3.537  19.278   8.413
 1142POPC   C3A16829   3.697  19.090   8.043
 1142POPC   C4A16830   3.557  18.974   7.649
 1142POPC   C1B16831   3.332  18.710   8.825
 1142POPC   C2B16832   3.411  18.744   8.383
 1142POPC   C3B16833   3.195  18.929   8.031
 1142POPC   C4B16834   3.094  18.755   7.632
 1143POPC   NC316835  13.025  44.676   9.396
 1143POPC   PO416836  12.463  44.596   9.218
 1143POPC   GL116837  12.666  44.321   8.956
 1143POPC   GL216838  13.023  44.412   8.907
 1143POPC   C1A16839  12.593  44.350   8.528
 1143POPC   D2A16840  12.633  44.781   8.376
 1143POPC   C3A16841  12.910  44.855   8.037
 1143POPC   C4A16842  13.068  44.574   7.716
 1143POPC   C1B16843  13.013  44.867   8.747
 1143POPC   C2B16844  13.107   0.199   8.431
 1143POPC   C3B16845  13.310   0.197   8.019
 1143POPC   C4B16846  13.125   0.105   7.637
 1144POPC   NC316847  26.486  13.833   9.435
 1144POPC   PO416848  25.826  13.482   9.577
 1144POPC   GL116849  26.078  13.600   9.211
 1144POPC   GL216850  26.301  13.350   9.106
 1144POPC   C1A16851  26.222  13.788   8.812
 1144POPC   D2A16852  26.088  13.970   8.415
 1144POPC   C3A16853  25.954  13.740   8.062
 1144POPC   C4A16854  25.750  13.429   7.803
 1144POPC   C1B16855  26.486  13.355   8.709
 1144POPC   C2B16856  26.372  13.536   8.323
 1144POPC   C3B16857  26.336  13.464   7.870
 1144POPC   C4B16858  26.442  13.723   7.500
 1145POPC   NC316859  10.891  41.722   9.461
 1145POPC   PO416860  10.341  41.401   9.667
 1145POPC   GL116861  10.512  41.520   9.207
 1145POPC   GL216862  10.423  41.817   9.044
 1145POPC   C1A16863  10.818  41.312   8.873
 1145POPC   D2A16864  10.949  41.156   8.447
 1145POPC   C3A16865  10.806  41.318   8.045
 1145POPC   C4A16866  10.453  41.338   7.781
 1145POPC   C1B16867  10.478  41.615   8.640
 1145POPC   C2B16868  10.415  41.646   8.193
 1145POPC   C3B16869  10.213  41.780   7.793
 1145POPC   C4B16870  10.424  41.838   7.382
 1146POPC   NC316871  41.119  36.107   9.603
 1146POPC   PO416872  41.795  35.884   9.511
 1146POPC   GL116873  41.683  36.177   9.105
 1146POPC   GL216874  41.357  36.276   9.158
 1146POPC   C1A16875  41.638  36.361   8.708
 1146POPC   D2A16876  41.438  36.182   8.331
 1146POPC   C3A16877  41.652  36.150   7.973
 1146POPC   C4A16878  41.701  36.493   7.775
 1146POPC   C1B16879  41.123  36.287   8.762
 1146POPC   C2B16880  41.033  36.483   8.339
 1146POPC   C3B16881  41.209  36.441   7.916
 1146POPC   C4B16882  41.034  36.431   7.482
 1147POPC   NC316883  42.191  12.737   9.307
 1147POPC   PO416884  41.686  12.870   9.823
 1147POPC   GL116885  41.746  12.949   9.364
 1147POPC   GL216886  41.745  13.269   9.220
 1147POPC   C1A16887  41.655  12.887   8.903
 1147POPC   D2A16888  41.302  12.853   8.630
 1147POPC   C3A16889  41.349  12.825   8.184
 1147POPC   C4A16890  41.306  12.752   7.745
 1147POPC   C1B16891  41.711  13.374   8.756
 1147POPC   C2B16892  41.680  13.275   8.287
 1147POPC   C3B16893  41.671  13.089   7.853
 1147POPC   C4B16894  41.857  12.753   7.567
 1148POPC   NC316895  35.718  25.837   9.436
 1148POPC   PO416896  35.143  26.245   9.462
 1148POPC   GL116897  35.074  26.082   9.076
 1148POPC   GL216898  35.425  25.915   9.020
 1148POPC   C1A16899  35.173  26.104   8.635
 1148POPC   D2A16900  35.428  25.771   8.450
 1148POPC   C3A16901  35.349  25.822   8.009
 1148POPC   C4A16902  35.054  26.078   7.765
 1148POPC   C1B16903  35.678  26.184   8.722
 1148POPC   C2B16904  35.538  26.274   8.287
 1148POPC   C3B16905  35.641  26.221   7.851
 1148POPC   C4B16906  35.469  26.067   7.454
 1149POPC   NC316907  32.536  15.486   9.521
 1149POPC   PO416908  32.265  14.949   9.358
 1149POPC   GL116909  32.344  15.059   9.008
 1149POPC   GL216910  32.315  15.392   9.062
 1149POPC   C1A16911  32.074  15.211   8.660
 1149POPC   D2A16912  31.924  15.032   8.305
 1149POPC   C3A16913  31.955  15.254   7.939
 1149POPC   C4A16914  32.296  15.070   7.722
 1149POPC   C1B16915  32.572  15.332   8.660
 1149POPC   C2B16916  32.435  15.354   8.248
 1149POPC   C3B16917  32.547  15.516   7.874
 1149POPC   C4B16918  32.229  15.550   7.588
 1150POPC   NC316919  27.100  38.998   9.340
 1150POPC   PO416920  27.752  38.942   9.568
 1150POPC   GL116921  27.721  39.182   9.130
 1150POPC   GL216922  27.387  39.241   9.021
 1150POPC   C1A16923  27.712  39.220   8.641
 1150POPC   D2A16924  27.497  38.966   8.353
 1150POPC   C3A16925  27.443  39.152   7.953
 1150POPC   C4A16926  27.758  39.278   7.669
 1150POPC   C1B16927  27.402  39.604   8.759
 1150POPC   C2B16928  27.429  39.777   8.385
 1150POPC   C3B16929  27.609  39.644   8.048
 1150POPC   C4B16930  27.371  39.623   7.715
 1151POPC   NC316931  22.009  44.371   9.530
 1151POPC   PO416932  22.245   0.046   9.525
 1151POPC   GL116933  22.125  44.857   9.127
 1151POPC   GL216934  22.240  44.496   9.091
 1151POPC   C1A16935  22.112  44.723   8.678
 1151POPC   D2A16936  22.092  44.447   8.307
 1151POPC   C3A16937  22.293  44.609   7.924
 1151POPC   C4A16938  22.068  44.886   7.661
 1151POPC   C1B16939  22.523  44.407   8.708
 1151POPC   C2B16940  22.573  44.287   8.268
 1151POPC   C3B16941  22.728  44.299   7.859
 1151POPC   C4B16942  22.459  44.263   7.506
 1152POPC   NC316943  40.271   3.717   9.585
 1152POPC   PO416944  40.302   3.160   9.281
 1152POPC   GL116945  40.139   3.475   8.999
 1152POPC   GL216946  39.900   3.611   9.231
 1152POPC   C1A16947  39.949   3.526   8.557
 1152POPC   D2A16948  39.730   3.317   8.194
 1152POPC   C3A16949  39.743   3.472   7.727
 1152POPC   C4A16950  40.130   3.632   7.502
 1152POPC   C1B16951  39.664   3.805   8.892
 1152POPC   C2B16952  39.572   3.875   8.436
 1152POPC   C3B16953  39.840   3.828   8.080
 1152POPC   C4B16954  39.851   4.006   7.666
 1153POPC   NC316955  41.248  33.947   9.644
 1153POPC   PO416956  40.629  33.724   9.537
 1153POPC   GL116957  40.754  33.635   9.153
 1153POPC   GL216958  40.927  33.332   9.202
 1153POPC   C1A16959  40.675  33.815   8.753
 1153POPC   D2A16960  40.463  33.843   8.359
 1153POPC   C3A16961  40.714  34.028   8.056
 1153POPC   C4A16962  40.676  33.984   7.635
 1153POPC   C1B16963  40.963  33.386   8.751
 1153POPC   C2B16964  40.682  33.389   8.374
 1153POPC   C3B16965  40.723  33.551   7.913
 1153POPC   C4B16966  40.649  33.525   7.416
 1154POPC   NC316967   9.865  37.381   9.770
 1154POPC   PO416968   9.974  36.727   9.621
 1154POPC   GL116969   9.870  37.005   9.265
 1154POPC   GL216970   9.544  37.132   9.188
 1154POPC   C1A16971   9.882  37.045   8.805
 1154POPC   D2A16972   9.920  37.139   8.364
 1154POPC   C3A16973   9.913  36.748   8.184
 1154POPC   C4A16974   9.869  36.592   7.788
 1154POPC   C1B16975   9.361  37.012   8.770
 1154POPC   C2B16976   9.432  36.816   8.358
 1154POPC   C3B16977   9.484  36.940   7.922
 1154POPC   C4B16978   9.302  37.244   7.638
 1155POPC   NC316979  35.954  18.178   9.625
 1155POPC   PO416980  36.104  18.753   9.492
 1155POPC   GL116981  36.356  18.356   9.275
 1155POPC   GL216982  36.120  18.064   9.167
 1155POPC   C1A16983  36.450  18.225   8.822
 1155POPC   D2A16984  36.137  18.388   8.511
 1155POPC   C3A16985  36.251  18.295   8.072
 1155POPC   C4A16986  36.325  18.300   7.658
 1155POPC   C1B16987  36.132  17.821   8.793
 1155POPC   C2B16988  36.209  17.902   8.399
 1155POPC   C3B16989  36.033  17.780   8.027
 1155POPC   C4B16990  36.140  17.824   7.589
 1156POPC   NC316991  16.599  10.683   9.578
 1156POPC   PO416992  17.013  10.223   9.546
 1156POPC   GL116993  16.750  10.365   9.215
 1156POPC   GL216994  16.884  10.699   9.120
 1156POPC   C1A16995  16.794  10.314   8.803
 1156POPC   D2A16996  16.769  10.573   8.494
 1156POPC   C3A16997  16.758  10.299   8.184
 1156POPC   C4A16998  16.706  10.402   7.769
 1156POPC   C1B16999  16.504  10.811   8.877
 1156POPC   C2B17000  16.323  10.848   8.457
 1156POPC   C3B17001  16.530  10.863   8.048
 1156POPC   C4B17002  16.351  10.752   7.640
 1157POPC   NC317003  39.954   9.561   9.577
 1157POPC   PO417004  40.009  10.237   9.534
 1157POPC   GL117005  39.932   9.908   9.169
 1157POPC   GL217006  39.799   9.577   9.075
 1157POPC   C1A17007  40.096   9.818   8.726
 1157POPC   D2A17008  39.970   9.835   8.278
 1157POPC   C3A17009  40.195   9.662   7.905
 1157POPC   C4A17010  40.228   9.784   7.451
 1157POPC   C1B17011  39.659   9.560   8.608
 1157POPC   C2B17012  39.663   9.438   8.141
 1157POPC   C3B17013  39.721   9.624   7.717
 1157POPC   C4B17014  39.754   9.653   7.249
 1158POPC   NC317015   5.848   2.828   9.569
 1158POPC   PO417016   6.421   3.158   9.346
 1158POPC   GL117017   6.092   2.968   9.130
 1158POPC   GL217018   6.084   2.596   9.161
 1158POPC   C1A17019   5.878   3.083   8.751
 1158POPC   D2A17020   5.705   2.994   8.338
 1158POPC   C3A17021   5.898   2.774   8.038
 1158POPC   C4A17022   5.934   2.965   7.649
 1158POPC   C1B17023   5.725   2.604   8.914
 1158POPC   C2B17024   5.569   2.494   8.500
 1158POPC   C3B17025   5.510   2.438   8.075
 1158POPC   C4B17026   5.677   2.521   7.671
 1159POPC   NC317027   8.294   9.210   9.874
 1159POPC   PO417028   8.422   8.752   9.355
 1159POPC   GL117029   8.253   8.658   9.013
 1159POPC   GL217030   7.971   8.884   8.978
 1159POPC   C1A17031   8.340   8.780   8.608
 1159POPC   D2A17032   8.303   8.534   8.246
 1159POPC   C3A17033   8.442   8.760   7.881
 1159POPC   C4A17034   8.559   9.234   7.741
 1159POPC   C1B17035   7.923   9.088   8.564
 1159POPC   C2B17036   7.743   9.384   8.268
 1159POPC   C3B17037   7.773   9.314   7.798
 1159POPC   C4B17038   8.080   9.064   7.645
 1160POPC   NC317039  20.257  34.528   9.551
 1160POPC   PO417040  20.718  34.960   9.609
 1160POPC   GL117041  20.677  34.600   9.269
 1160POPC   GL217042  20.902  34.727   9.079
 1160POPC   C1A17043  20.528  34.507   8.813
 1160POPC   D2A17044  20.564  34.807   8.469
 1160POPC   C3A17045  20.678  34.655   8.068
 1160POPC   C4A17046  20.681  34.256   7.822
 1160POPC   C1B17047  20.995  34.941   8.728
 1160POPC   C2B17048  20.969  35.134   8.311
 1160POPC   C3B17049  21.021  34.979   7.879
 1160POPC   C4B17050  20.656  34.989   7.627
 1161POPC   NC317051   7.127  31.210   9.397
 1161POPC   PO417052   7.722  31.641   9.538
 1161POPC   GL117053   7.575  31.416   9.167
 1161POPC   GL217054   7.268  31.581   9.003
 1161POPC   C1A17055   7.615  31.284   8.719
 1161POPC   D2A17056   7.623  31.527   8.334
 1161POPC   C3A17057   7.527  31.310   7.950
 1161POPC   C4A17058   7.670  31.333   7.482
 1161POPC   C1B17059   7.012  31.814   8.658
 1161POPC   C2B17060   7.046  32.050   8.288
 1161POPC   C3B17061   7.338  31.837   8.013
 1161POPC   C4B17062   7.291  31.636   7.646
 1162POPC   NC317063   7.779  34.366   9.453
 1162POPC   PO417064   7.186  34.726   9.447
 1162POPC   GL117065   7.350  34.543   9.101
 1162POPC   GL217066   7.659  34.691   9.052
 1162POPC   C1A17067   7.360  34.607   8.657
 1162POPC   D2A17068   7.486  34.521   8.256
 1162POPC   C3A17069   7.207  34.672   7.919
 1162POPC   C4A17070   7.226  34.495   7.472
 1162POPC   C1B17071   7.707  34.266   8.816
 1162POPC   C2B17072   7.791  34.008   8.437
 1162POPC   C3B17073   7.773  34.113   8.005
 1162POPC   C4B17074   7.669  34.508   7.786
 1163POPC   NC317075  16.040  41.834   9.523
 1163POPC   PO417076  15.603  41.326   9.483
 1163POPC   GL117077  15.854  41.425   9.079
 1163POPC   GL217078  16.046  41.726   9.024
 1163POPC   C1A17079  15.744  41.493   8.657
 1163POPC   D2A17080  15.932  41.562   8.285
 1163POPC   C3A17081  15.824  41.398   7.947
 1163POPC   C4A17082  16.008  41.393   7.545
 1163POPC   C1B17083  16.185  41.856   8.625
 1163POPC   C2B17084  16.023  42.043   8.229
 1163POPC   C3B17085  15.999  41.934   7.784
 1163POPC   C4B17086  16.328  41.922   7.478
 1164POPC   NC317087  11.720   2.901   9.494
 1164POPC   PO417088  12.372   3.020   9.397
 1164POPC   GL117089  12.146   2.783   9.109
 1164POPC   GL217090  11.790   2.662   9.054
 1164POPC   C1A17091  12.267   2.890   8.721
 1164POPC   D2A17092  12.231   2.770   8.323
 1164POPC   C3A17093  12.073   3.019   8.019
 1164POPC   C4A17094  12.088   2.914   7.657
 1164POPC   C1B17095  11.932   2.512   8.662
 1164POPC   C2B17096  11.950   2.363   8.220
 1164POPC   C3B17097  11.809   2.518   7.828
 1164POPC   C4B17098  11.533   2.564   7.462
 1165POPC   NC317099  39.084  40.391   9.559
 1165POPC   PO417100  39.285  39.785   9.458
 1165POPC   GL117101  39.314  40.159   9.176
 1165POPC   GL217102  38.942  40.191   9.124
 1165POPC   C1A17103  39.274  40.323   8.764
 1165POPC   D2A17104  39.305  40.085   8.427
 1165POPC   C3A17105  39.125  40.115   8.063
 1165POPC   C4A17106  39.334  39.831   7.841
 1165POPC   C1B17107  38.982  39.894   8.799
 1165POPC   C2B17108  38.788  39.801   8.431
 1165POPC   C3B17109  38.892  39.663   8.047
 1165POPC   C4B17110  38.850  39.834   7.673
 1166POPC   NC317111  39.466  31.165   9.752
 1166POPC   PO417112  38.947  31.546   9.634
 1166POPC   GL117113  39.061  31.624   9.194
 1166POPC   GL217114  39.348  31.441   9.197
 1166POPC   C1A17115  39.076  31.453   8.739
 1166POPC   D2A17116  39.239  31.487   8.302
 1166POPC   C3A17117  39.067  31.791   8.011
 1166POPC   C4A17118  38.856  31.655   7.676
 1166POPC   C1B17119  39.549  31.638   8.823
 1166POPC   C2B17120  39.762  31.744   8.423
 1166POPC   C3B17121  39.666  31.608   8.019
 1166POPC   C4B17122  39.371  31.519   7.717
 1167POPC   NC317123   0.505  41.797   9.505
 1167POPC   PO417124  44.891  41.502   9.434
 1167POPC   GL117125   0.253  41.469   9.133
 1167POPC   GL217126   0.561  41.239   9.160
 1167POPC   C1A17127   0.278  41.638   8.707
 1167POPC   D2A17128   0.129  41.502   8.295
 1167POPC   C3A17129   0.264  41.705   7.901
 1167POPC   C4A17130   0.237  41.512   7.479
 1167POPC   C1B17131   0.764  41.588   8.899
 1167POPC   C2B17132   0.915  41.742   8.498
 1167POPC   C3B17133   0.910  41.507   8.129
 1167POPC   C4B17134   0.711  41.503   7.734
 1168POPC   NC317135   6.443  43.317   9.875
 1168POPC   PO417136   6.847  43.191   9.319
 1168POPC   GL117137   6.478  43.045   9.085
 1168POPC   GL217138   6.588  42.884   8.783
 1168POPC   C1A17139   6.194  43.177   8.763
 1168POPC   D2A17140   6.214  43.336   8.340
 1168POPC   C3A17141   6.269  43.057   7.996
 1168POPC   C4A17142   6.615  42.851   7.818
 1168POPC   C1B17143   7.007  42.963   8.632
 1168POPC   C2B17144   7.186  43.148   8.224
 1168POPC   C3B17145   6.954  43.432   7.941
 1168POPC   C4B17146   6.508  43.490   7.818
 1169POPC   NC317147  17.871  15.319   9.560
 1169POPC   PO417148  17.219  15.151   9.528
 1169POPC   GL117149  17.392  15.369   9.204
 1169POPC   GL217150  17.682  15.168   9.120
 1169POPC   C1A17151  17.470  15.470   8.764
 1169POPC   D2A17152  17.513  15.253   8.365
 1169POPC   C3A17153  17.410  15.549   8.006
 1169POPC   C4A17154  17.468  15.491   7.534
 1169POPC   C1B17155  17.708  14.861   8.795
 1169POPC   C2B17156  17.694  14.723   8.374
 1169POPC   C3B17157  17.880  15.000   8.102
 1169POPC   C4B17158  17.625  15.123   7.820
 1170POPC   NC317159   1.540  28.969   9.560
 1170POPC   PO417160   1.037  29.420   9.520
 1170POPC   GL117161   1.282  29.307   9.219
 1170POPC   GL217162   1.133  29.040   9.168
 1170POPC   C1A17163   1.417  29.271   8.779
 1170POPC   D2A17164   1.286  29.110   8.392
 1170POPC   C3A17165   1.182  29.335   8.030
 1170POPC   C4A17166   0.998  29.343   7.602
 1170POPC   C1B17167   1.213  28.801   8.793
 1170POPC   C2B17168   1.089  28.633   8.429
 1170POPC   C3B17169   1.012  28.815   8.039
 1170POPC   C4B17170   1.075  28.578   7.683
 1171POPC   NC317171   7.822  17.216   9.935
 1171POPC   PO417172   7.388  17.386   9.473
 1171POPC   GL117173   7.160  17.652   9.207
 1171POPC   GL217174   7.450  17.659   9.022
 1171POPC   C1A17175   7.022  17.670   8.767
 1171POPC   D2A17176   7.294  17.564   8.437
 1171POPC   C3A17177   7.225  17.675   8.020
 1171POPC   C4A17178   7.278  17.497   7.620
 1171POPC   C1B17179   7.681  17.372   8.761
 1171POPC   C2B17180   7.650  17.189   8.383
 1171POPC   C3B17181   7.652  17.408   8.013
 1171POPC   C4B17182   7.730  17.220   7.640
 1172POPC   NC317183  16.552   7.801   9.259
 1172POPC   PO417184  16.325   8.366   9.591
 1172POPC   GL117185  16.567   8.363   9.196
 1172POPC   GL217186  16.898   8.431   9.270
 1172POPC   C1A17187  16.790   8.203   8.805
 1172POPC   D2A17188  16.594   8.204   8.411
 1172POPC   C3A17189  16.560   7.946   8.071
 1172POPC   C4A17190  16.689   8.133   7.693
 1172POPC   C1B17191  17.102   8.607   8.859
 1172POPC   C2B17192  17.155   8.498   8.456
 1172POPC   C3B17193  16.979   8.361   8.083
 1172POPC   C4B17194  17.183   8.240   7.733
 1173POPC   NC317195  11.618  29.629   9.411
 1173POPC   PO417196  12.133  30.026   9.541
 1173POPC   GL117197  12.006  29.875   9.179
 1173POPC   GL217198  12.118  29.530   9.258
 1173POPC   C1A17199  11.965  30.058   8.783
 1173POPC   D2A17200  12.240  30.178   8.474
 1173POPC   C3A17201  12.072  30.177   8.080
 1173POPC   C4A17202  12.187  30.031   7.676
 1173POPC   C1B17203  11.998  29.498   8.826
 1173POPC   C2B17204  12.146  29.690   8.448
 1173POPC   C3B17205  12.026  29.644   8.043
 1173POPC   C4B17206  12.048  29.540   7.629
 1174POPC   NC317207  22.571  40.236   9.590
 1174POPC   PO417208  21.937  40.290   9.414
 1174POPC   GL117209  22.089  39.971   9.163
 1174POPC   GL217210  22.433  40.061   9.127
 1174POPC   C1A17211  22.043  39.915   8.733
 1174POPC   D2A17212  22.008  40.128   8.339
 1174POPC   C3A17213  21.924  39.895   7.943
 1174POPC   C4A17214  22.266  39.679   7.689
 1174POPC   C1B17215  22.495  40.175   8.697
 1174POPC   C2B17216  22.581  39.991   8.326
 1174POPC   C3B17217  22.389  40.109   7.964
 1174POPC   C4B17218  22.023  40.401   7.915
 1175POPC   NC317219  44.198  21.047   9.989
 1175POPC   PO417220  43.868  20.671   9.488
 1175POPC   GL117221  43.776  20.571   9.072
 1175POPC   GL217222  43.763  20.189   9.054
 1175POPC   C1A17223  43.802  20.809   8.677
 1175POPC   D2A17224  43.910  21.046   8.284
 1175POPC   C3A17225  43.915  20.778   7.911
 1175POPC   C4A17226  44.033  20.536   7.528
 1175POPC   C1B17227  43.747  20.295   8.619
 1175POPC   C2B17228  43.905  20.149   8.231
 1175POPC   C3B17229  43.698  20.319   7.887
 1175POPC   C4B17230  43.276  20.368   7.824
 1176POPC   NC317231  17.836  26.269   9.726
 1176POPC   PO417232  18.165  26.872   9.563
 1176POPC   GL117233  18.024  26.850   9.145
 1176POPC   GL217234  18.332  26.709   9.039
 1176POPC   C1A17235  18.079  26.985   8.692
 1176POPC   D2A17236  18.377  27.187   8.415
 1176POPC   C3A17237  18.355  27.044   8.009
 1176POPC   C4A17238  18.029  26.902   7.743
 1176POPC   C1B17239  18.411  26.600   8.599
 1176POPC   C2B17240  18.608  26.641   8.209
 1176POPC   C3B17241  18.471  26.568   7.782
 1176POPC   C4B17242  18.549  26.246   7.429
 1177POPC   NC317243  11.523  20.609   9.464
 1177POPC   PO417244  10.933  20.933   9.334
 1177POPC   GL117245  11.277  20.875   9.039
 1177POPC   GL217246  11.504  20.552   8.963
 1177POPC   C1A17247  11.218  20.761   8.595
 1177POPC   D2A17248  11.457  20.514   8.297
 1177POPC   C3A17249  11.305  20.588   7.892
 1177POPC   C4A17250  11.168  20.717   7.511
 1177POPC   C1B17251  11.798  20.342   8.665
 1177POPC   C2B17252  11.712  20.045   8.307
 1177POPC   C3B17253  11.456  20.094   7.866
 1177POPC   C4B17254  11.487  20.299   7.404
 1178POPC   NC317255   4.799  42.195   9.373
 1178POPC   PO417256   4.176  42.012   9.505
 1178POPC   GL117257   4.136  42.210   9.073
 1178POPC   GL217258   4.449  42.394   9.057
 1178POPC   C1A17259   4.278  42.292   8.608
 1178POPC   D2A17260   4.425  42.390   8.189
 1178POPC   C3A17261   4.148  42.278   7.839
 1178POPC   C4A17262   4.031  42.224   7.381
 1178POPC   C1B17263   4.630  42.672   8.750
 1178POPC   C2B17264   4.838  42.712   8.360
 1178POPC   C3B17265   4.602  42.909   8.062
 1178POPC   C4B17266   4.507  42.644   7.746
 1179POPC   NC317267   9.593   1.017   9.532
 1179POPC   PO417268  10.204   1.347   9.612
 1179POPC   GL117269  10.027   1.088   9.267
 1179POPC   GL217270   9.828   1.360   9.148
 1179POPC   C1A17271   9.886   0.924   8.854
 1179POPC   D2A17272   9.848   1.190   8.491
 1179POPC   C3A17273   9.746   0.973   8.159
 1179POPC   C4A17274   9.779   0.961   7.751
 1179POPC   C1B17275   9.494   1.278   8.850
 1179POPC   C2B17276   9.333   1.177   8.442
 1179POPC   C3B17277   9.370   1.267   8.008
 1179POPC   C4B17278   9.326   1.105   7.596
 1180POPC   NC317279  25.028  37.604   9.451
 1180POPC   PO417280  25.458  38.181   9.476
 1180POPC   GL117281  25.437  37.837   9.130
 1180POPC   GL217282  25.108  37.750   8.994
 1180POPC   C1A17283  25.505  37.474   8.818
 1180POPC   D2A17284  25.398  37.226   8.428
 1180POPC   C3A17285  25.430  37.433   8.007
 1180POPC   C4A17286  25.513  37.657   7.559
 1180POPC   C1B17287  25.043  37.574   8.614
 1180POPC   C2B17288  25.264  37.807   8.326
 1180POPC   C3B17289  25.192  37.894   7.917
 1180POPC   C4B17290  25.043  37.523   7.689
 1181POPC   NC317291  15.273  18.090   9.543
 1181POPC   PO417292  15.163  18.755   9.584
 1181POPC   GL117293  15.121  18.490   9.223
 1181POPC   GL217294  15.457  18.314   9.132
 1181POPC   C1A17295  15.018  18.369   8.809
 1181POPC   D2A17296  14.995  18.140   8.412
 1181POPC   C3A17297  14.985  18.398   8.066
 1181POPC   C4A17298  15.070  18.370   7.661
 1181POPC   C1B17299  15.517  18.433   8.714
 1181POPC   C2B17300  15.454  18.383   8.291
 1181POPC   C3B17301  15.548  18.489   7.857
 1181POPC   C4B17302  15.539  18.325   7.446
 1182POPC   NC317303   3.856   9.101   9.432
 1182POPC   PO417304   3.258   8.848   9.585
 1182POPC   GL117305   3.322   8.908   9.160
 1182POPC   GL217306   3.306   9.237   9.113
 1182POPC   C1A17307   3.405   8.957   8.709
 1182POPC   D2A17308   3.758   9.096   8.484
 1182POPC   C3A17309   3.770   8.928   8.098
 1182POPC   C4A17310   3.604   8.918   7.692
 1182POPC   C1B17311   3.342   9.481   8.754
 1182POPC   C2B17312   3.324   9.353   8.338
 1182POPC   C3B17313   3.237   9.052   8.027
 1182POPC   C4B17314   3.240   9.299   7.654
 1183POPC   NC317315   1.064  26.578   9.585
 1183POPC   PO417316   1.641  26.924   9.331
 1183POPC   GL117317   1.261  26.840   9.092
 1183POPC   GL217318   0.987  27.109   9.003
 1183POPC   C1A17319   1.290  26.883   8.623
 1183POPC   D2A17320   1.515  27.012   8.244
 1183POPC   C3A17321   1.406  26.728   7.926
 1183POPC   C4A17322   1.226  26.730   7.519
 1183POPC   C1B17323   0.866  26.677   8.828
 1183POPC   C2B17324   0.988  26.481   8.440
 1183POPC   C3B17325   0.794  26.386   8.038
 1183POPC   C4B17326   0.870  26.362   7.597
 1184POPC   NC317327  37.812  17.031   9.515
 1184POPC   PO417328  37.479  17.597   9.474
 1184POPC   GL117329  37.530  17.340   9.093
 1184POPC   GL217330  37.722  17.630   8.989
 1184POPC   C1A17331  37.656  17.291   8.632
 1184POPC   D2A17332  37.576  17.464   8.245
 1184POPC   C3A17333  37.890  17.513   7.986
 1184POPC   C4A17334  37.664  17.282   7.648
 1184POPC   C1B17335  37.803  17.813   8.563
 1184POPC   C2B17336  37.685  17.983   8.155
 1184POPC   C3B17337  37.521  17.779   7.747
 1184POPC   C4B17338  37.578  17.905   7.298
 1185POPC   NC317339  42.458  18.054   9.508
 1185POPC   PO417340  42.160  18.540   9.364
 1185POPC   GL117341  42.456  18.404   9.125
 1185POPC   GL217342  42.277  18.097   9.038
 1185POPC   C1A17343  42.576  18.346   8.720
 1185POPC   D2A17344  42.233  18.279   8.455
 1185POPC   C3A17345  42.292  18.278   8.044
 1185POPC   C4A17346  42.029  18.439   7.728
 1185POPC   C1B17347  42.366  17.853   8.681
 1185POPC   C2B17348  42.213  17.532   8.434
 1185POPC   C3B17349  42.303  17.742   8.055
 1185POPC   C4B17350  42.146  17.602   7.690
 1186POPC   NC317351  25.192  15.490   9.995
 1186POPC   PO417352  25.483  15.932   9.652
 1186POPC   GL117353  25.364  15.879   9.148
 1186POPC   GL217354  25.241  15.569   9.022
 1186POPC   C1A17355  25.148  16.016   8.767
 1186POPC   D2A17356  25.042  15.887   8.356
 1186POPC   C3A17357  25.150  16.188   8.023
 1186POPC   C4A17358  25.303  16.081   7.632
 1186POPC   C1B17359  25.579  15.581   8.747
 1186POPC   C2B17360  25.423  15.525   8.346
 1186POPC   C3B17361  25.306  15.669   7.927
 1186POPC   C4B17362  25.595  15.701   7.542
 1187POPC   NC317363   8.270  41.532   9.400
 1187POPC   PO417364   7.623  41.641   9.646
 1187POPC   GL117365   7.789  41.577   9.195
 1187POPC   GL217366   8.092  41.640   8.959
 1187POPC   C1A17367   7.691  41.448   8.758
 1187POPC   D2A17368   8.047  41.383   8.468
 1187POPC   C3A17369   7.995  41.486   8.036
 1187POPC   C4A17370   8.379  41.443   7.794
 1187POPC   C1B17371   8.352  41.798   8.631
 1187POPC   C2B17372   8.342  41.809   8.192
 1187POPC   C3B17373   8.294  41.945   7.785
 1187POPC   C4B17374   8.480  41.915   7.377
 1188POPC   NC317375   6.143  14.770   9.604
 1188POPC   PO417376   6.591  15.306   9.618
 1188POPC   GL117377   6.730  15.169   9.205
 1188POPC   GL217378   6.801  14.799   9.187
 1188POPC   C1A17379   6.925  15.330   8.812
 1188POPC   D2A17380   6.956  15.196   8.360
 1188POPC   C3A17381   6.576  15.288   8.113
 1188POPC   C4A17382   6.444  15.426   7.704
 1188POPC   C1B17383   6.582  14.771   8.791
 1188POPC   C2B17384   6.533  14.684   8.357
 1188POPC   C3B17385   6.757  14.802   8.008
 1188POPC   C4B17386   6.809  15.069   7.672
 1189POPC   NC317387  18.017  17.565   9.441
 1189POPC   PO417388  18.660  17.403   9.525
 1189POPC   GL117389  18.413  17.376   9.139
 1189POPC   GL217390  18.162  17.132   9.114
 1189POPC   C1A17391  18.421  17.547   8.714
 1189POPC   D2A17392  18.689  17.554   8.311
 1189POPC   C3A17393  18.601  17.878   7.971
 1189POPC   C4A17394  18.284  17.773   7.660
 1189POPC   C1B17395  18.019  17.194   8.675
 1189POPC   C2B17396  18.220  17.352   8.294
 1189POPC   C3B17397  18.295  17.165   7.902
 1189POPC   C4B17398  18.011  16.938   7.636
 1190POPC   NC317399  39.785  34.550   9.506
 1190POPC   PO417400  40.359  34.540   9.261
 1190POPC   GL117401  40.113  34.298   9.025
 1190POPC   GL217402  39.780  34.299   9.076
 1190POPC   C1A17403  40.004  34.342   8.628
 1190POPC   D2A17404  39.803  34.466   8.299
 1190POPC   C3A17405  40.024  34.559   7.946
 1190POPC   C4A17406  40.200  34.739   7.578
 1190POPC   C1B17407  39.746  34.724   8.833
 1190POPC   C2B17408  39.609  34.928   8.429
 1190POPC   C3B17409  39.491  34.788   8.035
 1190POPC   C4B17410  39.674  34.791   7.631
 1191POPC   NC317411   0.011   2.721   9.422
 1191POPC   PO417412  44.407   2.565   9.194
 1191POPC   GL117413  44.691   2.921   9.045
 1191POPC   GL217414   0.048   3.057   9.060
 1191POPC   C1A17415  44.703   2.942   8.628
 1191POPC   D2A17416  44.551   2.606   8.358
 1191POPC   C3A17417  44.557   2.708   7.941
 1191POPC   C4A17418  44.295   2.701   7.619
 1191POPC   C1B17419   0.125   2.681   8.806
 1191POPC   C2B17420   0.059   2.549   8.438
 1191POPC   C3B17421   0.139   2.427   8.049
 1191POPC   C4B17422   0.002   2.571   7.721
 1192POPC   NC317423  36.161   4.035   9.459
 1192POPC   PO417424  35.720   4.593   9.456
 1192POPC   GL117425  36.064   4.414   9.118
 1192POPC   GL217426  36.031   4.012   8.988
 1192POPC   C1A17427  36.313   4.503   8.697
 1192POPC   D2A17428  36.567   4.623   8.289
 1192POPC   C3A17429  36.273   4.585   7.954
 1192POPC   C4A17430  36.276   4.710   7.533
 1192POPC   C1B17431  36.193   4.023   8.576
 1192POPC   C2B17432  36.460   4.119   8.246
 1192POPC   C3B17433  36.373   4.097   7.822
 1192POPC   C4B17434  35.969   4.041   7.731
 1193POPC   NC317435  19.498  44.781   9.341
 1193POPC   PO417436  20.010  44.528   9.649
 1193POPC   GL117437  20.011  44.569   9.192
 1193POPC   GL217438  19.937  44.912   9.104
 1193POPC   C1A17439  19.941  44.572   8.737
 1193POPC   D2A17440  19.938  44.865   8.407
 1193POPC   C3A17441  19.975  44.572   8.087
 1193POPC   C4A17442  20.215  44.611   7.743
 1193POPC   C1B17443  19.594   0.027   8.773
 1193POPC   C2B17444  19.390  44.958   8.405
 1193POPC   C3B17445  19.575   0.052   8.048
 1193POPC   C4B17446  19.715  44.819   7.740
 1194POPC   NC317447  25.221   7.791   9.516
 1194POPC   PO417448  24.817   8.311   9.640
 1194POPC   GL117449  25.022   8.247   9.204
 1194POPC   GL217450  25.338   8.040   9.092
 1194POPC   C1A17451  25.162   8.466   8.798
 1194POPC   D2A17452  25.434   8.508   8.421
 1194POPC   C3A17453  25.216   8.505   8.045
 1194POPC   C4A17454  25.130   8.203   7.762
 1194POPC   C1B17455  25.079   7.963   8.738
 1194POPC   C2B17456  25.153   8.084   8.315
 1194POPC   C3B17457  25.506   8.047   8.045
 1194POPC   C4B17458  25.618   7.706   7.773
 1195POPC   NC317459  24.503  44.318   9.387
 1195POPC   PO417460  24.436   0.028   9.443
 1195POPC   GL117461  24.335  44.721   9.144
 1195POPC   GL217462  24.664  44.683   9.076
 1195POPC   C1A17463  24.290  44.502   8.753
 1195POPC   D2A17464  24.242  44.732   8.376
 1195POPC   C3A17465  24.196  44.507   8.023
 1195POPC   C4A17466  24.085  44.695   7.632
 1195POPC   C1B17467  24.551  44.964   8.735
 1195POPC   C2B17468  24.622   0.090   8.322
 1195POPC   C3B17469  24.436  44.948   7.928
 1195POPC   C4B17470  24.597  44.542   7.713
 1196POPC   NC317471  22.312  22.674   9.695
 1196POPC   PO417472  22.179  21.977   9.540
 1196POPC   GL117473  22.103  22.111   9.095
 1196POPC   GL217474  21.917  22.428   9.023
 1196POPC   C1A17475  22.084  22.096   8.656
 1196POPC   D2A17476  22.220  21.878   8.311
 1196POPC   C3A17477  22.044  21.931   7.915
 1196POPC   C4A17478  22.143  22.175   7.521
 1196POPC   C1B17479  21.987  22.600   8.621
 1196POPC   C2B17480  21.816  22.381   8.283
 1196POPC   C3B17481  21.885  22.441   7.880
 1196POPC   C4B17482  22.223  22.676   7.706
 1197POPC   NC317483  17.595  44.054   9.498
 1197POPC   PO417484  16.940  43.893   9.507
 1197POPC   GL117485  17.256  43.886   9.137
 1197POPC   GL217486  17.664  43.954   9.013
 1197POPC   C1A17487  17.275  44.066   8.742
 1197POPC   D2A17488  17.548  43.971   8.443
 1197POPC   C3A17489  17.292  44.056   8.121
 1197POPC   C4A17490  17.327  44.099   7.710
 1197POPC   C1B17491  17.746  43.585   8.744
 1197POPC   C2B17492  17.768  43.508   8.299
 1197POPC   C3B17493  17.710  43.809   7.954
 1197POPC   C4B17494  17.745  43.875   7.509
 1198POPC   NC317495   4.567   8.448   9.465
 1198POPC   PO417496   4.395   7.772   9.380
 1198POPC   GL117497   4.564   8.064   9.113
 1198POPC   GL217498   4.562   7.779   8.888
 1198POPC   C1A17499   4.370   8.316   8.789
 1198POPC   D2A17500   4.496   8.111   8.409
 1198POPC   C3A17501   4.404   8.174   7.993
 1198POPC   C4A17502   4.628   7.945   7.686
 1198POPC   C1B17503   4.139   7.873   8.697
 1198POPC   C2B17504   3.959   8.162   8.356
 1198POPC   C3B17505   3.875   8.169   7.893
 1198POPC   C4B17506   3.783   7.978   7.455
 1199POPC   NC317507  37.539  42.060   9.362
 1199POPC   PO417508  38.094  42.503   9.440
 1199POPC   GL117509  37.783  42.473   9.146
 1199POPC   GL217510  37.461  42.597   9.302
 1199POPC   C1A17511  37.758  42.240   8.735
 1199POPC   D2A17512  37.800  42.423   8.315
 1199POPC   C3A17513  37.623  42.182   7.986
 1199POPC   C4A17514  37.799  42.084   7.601
 1199POPC   C1B17515  37.381  42.568   8.842
 1199POPC   C2B17516  37.436  42.771   8.423
 1199POPC   C3B17517  37.466  42.674   7.972
 1199POPC   C4B17518  37.437  42.445   7.564
 1200POPC   NC317519   7.853  17.222   9.358
 1200POPC   PO417520   8.367  17.605   9.519
 1200POPC   GL117521   8.278  17.443   9.155
 1200POPC   GL217522   7.975  17.656   9.116
 1200POPC   C1A17523   8.192  17.299   8.758
 1200POPC   D2A17524   8.065  17.501   8.409
 1200POPC   C3A17525   8.144  17.333   8.034
 1200POPC   C4A17526   8.089  17.602   7.703
 1200POPC   C1B17527   7.837  17.854   8.746
 1200POPC   C2B17528   8.033  18.006   8.423
 1200POPC   C3B17529   7.877  17.883   8.063
 1200POPC   C4B17530   7.608  17.879   7.711
 1201POPC   NC317531   3.533  25.008   9.552
 1201POPC   PO417532   3.437  24.400   9.459
 1201POPC   GL117533   3.373  24.712   9.154
 1201POPC   GL217534   3.740  24.673   9.088
 1201POPC   C1A17535   3.437  24.848   8.724
 1201POPC   D2A17536   3.678  24.671   8.420
 1201POPC   C3A17537   3.430  24.604   8.079
 1201POPC   C4A17538   3.616  24.498   7.724
 1201POPC   C1B17539   3.486  24.339   8.808
 1201POPC   C2B17540   3.351  24.165   8.406
 1201POPC   C3B17541   3.600  24.101   8.057
 1201POPC   C4B17542   3.923  24.110   7.770
 1202POPC   NC317543  17.772  40.945   9.341
 1202POPC   PO417544  17.139  40.941   9.504
 1202POPC   GL117545  17.345  40.823   9.110
 1202POPC   GL217546  17.487  41.147   8.972
 1202POPC   C1A17547  17.434  40.728   8.674
 1202POPC   D2A17548  17.453  40.980   8.282
 1202POPC   C3A17549  17.534  40.726   7.909
 1202POPC   C4A17550  17.590  40.726   7.445
 1202POPC   C1B17551  17.832  41.024   8.642
 1202POPC   C2B17552  17.929  41.168   8.219
 1202POPC   C3B17553  17.932  41.027   7.784
 1202POPC   C4B17554  17.774  41.192   7.389
 1203POPC   NC317555  22.942  44.017   9.472
 1203POPC   PO417556  22.547  43.424   9.476
 1203POPC   GL117557  22.735  43.706   9.136
 1203POPC   GL217558  23.094  43.731   9.076
 1203POPC   C1A17559  22.736  43.856   8.698
 1203POPC   D2A17560  22.954  43.972   8.297
 1203POPC   C3A17561  22.882  43.807   7.883
 1203POPC   C4A17562  23.223  43.503   7.797
 1203POPC   C1B17563  23.305  43.801   8.683
 1203POPC   C2B17564  23.452  44.072   8.338
 1203POPC   C3B17565  23.369  43.989   7.901
 1203POPC   C4B17566  23.155  44.183   7.582
 1204POPC   NC317567  25.661  31.207   9.501
 1204POPC   PO417568  26.302  31.396   9.571
 1204POPC   GL117569  26.235  31.474   9.159
 1204POPC   GL217570  25.892  31.530   9.142
 1204POPC   C1A17571  26.288  31.616   8.734
 1204POPC   D2A17572  25.974  31.778   8.434
 1204POPC   C3A17573  26.022  31.608   8.014
 1204POPC   C4A17574  26.179  31.578   7.535
 1204POPC   C1B17575  25.870  31.346   8.740
 1204POPC   C2B17576  25.645  31.378   8.391
 1204POPC   C3B17577  25.582  31.266   8.007
 1204POPC   C4B17578  25.726  31.421   7.663
 1205POPC   NC317579  36.951   2.054   9.449
 1205POPC   PO417580  36.342   1.912   9.395
 1205POPC   GL117581  36.668   1.805   9.034
 1205POPC   GL217582  36.983   1.939   8.965
 1205POPC   C1A17583  36.832   1.644   8.598
 1205POPC   D2A17584  36.952   1.915   8.265
 1205POPC   C3A17585  37.040   1.786   7.892
 1205POPC   C4A17586  36.679   1.860   7.701
 1205POPC   C1B17587  37.283   1.891   8.635
 1205POPC   C2B17588  37.401   2.156   8.279
 1205POPC   C3B17589  37.305   2.208   7.833
 1205POPC   C4B17590  37.068   2.088   7.438
 1206POPC   NC317591  29.443   1.518   9.452
 1206POPC   PO417592  30.088   1.402   9.384
 1206POPC   GL117593  29.794   1.256   9.110
 1206POPC   GL217594  29.634   1.570   8.976
 1206POPC   C1A17595  29.937   0.989   8.777
 1206POPC   D2A17596  30.205   0.945   8.416
 1206POPC   C3A17597  29.998   0.941   8.035
 1206POPC   C4A17598  30.085   1.192   7.718
 1206POPC   C1B17599  29.964   1.499   8.654
 1206POPC   C2B17600  30.072   1.432   8.202
 1206POPC   C3B17601  30.330   1.591   7.859
 1206POPC   C4B17602  30.295   1.522   7.380
 1207POPC   NC317603  38.544   2.258   9.539
 1207POPC   PO417604  38.171   1.769   9.670
 1207POPC   GL117605  38.259   1.937   9.240
 1207POPC   GL217606  38.630   1.885   9.155
 1207POPC   C1A17607  38.279   2.090   8.810
 1207POPC   D2A17608  38.415   1.917   8.407
 1207POPC   C3A17609  38.270   2.113   8.030
 1207POPC   C4A17610  38.318   2.132   7.583
 1207POPC   C1B17611  38.796   2.054   8.759
 1207POPC   C2B17612  38.799   2.295   8.401
 1207POPC   C3B17613  38.787   2.165   7.988
 1207POPC   C4B17614  38.719   1.807   7.740
 1208POPC   NC317615  43.800  10.880   9.568
 1208POPC   PO417616  44.177  10.293   9.596
 1208POPC   GL117617  44.005  10.455   9.231
 1208POPC   GL217618  44.033  10.088   9.134
 1208POPC   C1A17619  43.827  10.568   8.817
 1208POPC   D2A17620  43.900  10.780   8.398
 1208POPC   C3A17621  43.645  10.716   8.032
 1208POPC   C4A17622  43.674  10.528   7.644
 1208POPC   C1B17623  44.302  10.286   8.847
 1208POPC   C2B17624  44.116  10.305   8.444
 1208POPC   C3B17625  44.025  10.344   8.018
 1208POPC   C4B17626  44.043  10.182   7.592
 1209POPC   NC317627   0.578   0.816   9.455
 1209POPC   PO417628   0.207   1.381   9.507
 1209POPC   GL117629   0.413   1.373   9.131
 1209POPC   GL217630   0.314   1.016   9.074
 1209POPC   C1A17631   0.554   1.597   8.739
 1209POPC   D2A17632   0.662   1.413   8.337
 1209POPC   C3A17633   0.358   1.360   8.021
 1209POPC   C4A17634   0.424   1.588   7.673
 1209POPC   C1B17635   0.559   1.072   8.732
 1209POPC   C2B17636   0.421   0.930   8.365
 1209POPC   C3B17637   0.649   0.929   8.038
 1209POPC   C4B17638   0.640   1.114   7.637
 1210POPC   NC317639  33.006  41.949   9.613
 1210POPC   PO417640  33.269  41.381   9.505
 1210POPC   GL117641  32.968  41.569   9.260
 1210POPC   GL217642  33.207  41.804   9.165
 1210POPC   C1A17643  32.913  41.570   8.831
 1210POPC   D2A17644  33.176  41.508   8.442
 1210POPC   C3A17645  32.959  41.566   8.072
 1210POPC   C4A17646  32.991  41.255   7.748
 1210POPC   C1B17647  33.364  41.853   8.780
 1210POPC   C2B17648  33.322  42.004   8.371
 1210POPC   C3B17649  33.342  41.919   7.962
 1210POPC   C4B17650  33.091  41.764   7.620
 1211POPC   NC317651  40.101  36.100   9.598
 1211POPC   PO417652  39.825  36.569   9.202
 1211POPC   GL117653  40.099  36.245   9.109
 1211POPC   GL217654  40.338  36.396   9.015
 1211POPC   C1A17655  40.168  35.980   8.761
 1211POPC   D2A17656  39.929  35.934   8.356
 1211POPC   C3A17657  40.141  35.975   7.967
 1211POPC   C4A17658  40.049  36.062   7.500
 1211POPC   C1B17659  40.098  36.444   8.611
 1211POPC   C2B17660  40.008  36.432   8.186
 1211POPC   C3B17661  40.224  36.450   7.813
 1211POPC   C4B17662  40.201  36.514   7.344
 1212POPC   NC317663  20.870  25.466   9.437
 1212POPC   PO417664  20.252  25.075   9.533
 1212POPC   GL117665  20.434  25.320   9.194
 1212POPC   GL217666  20.655  25.051   9.133
 1212POPC   C1A17667  20.583  25.368   8.748
 1212POPC   D2A17668  20.362  25.279   8.374
 1212POPC   C3A17669  20.612  25.240   8.024
 1212POPC   C4A17670  20.911  24.903   7.937
 1212POPC   C1B17671  20.926  24.919   8.800
 1212POPC   C2B17672  20.910  25.111   8.414
 1212POPC   C3B17673  21.055  25.470   8.197
 1212POPC   C4B17674  21.067  25.361   7.786
 1213POPC   NC317675  21.184  38.313   9.696
 1213POPC   PO417676  21.648  38.709   9.500
 1213POPC   GL117677  21.543  38.454   9.171
 1213POPC   GL217678  21.189  38.346   9.181
 1213POPC   C1A17679  21.408  38.636   8.789
 1213POPC   D2A17680  21.164  38.555   8.438
 1213POPC   C3A17681  21.414  38.609   8.074
 1213POPC   C4A17682  21.260  38.528   7.677
 1213POPC   C1B17683  21.263  38.152   8.777
 1213POPC   C2B17684  21.583  38.227   8.410
 1213POPC   C3B17685  21.546  38.128   7.947
 1213POPC   C4B17686  21.157  38.029   7.710
 1214POPC   NC317687  10.171  19.834   9.569
 1214POPC   PO417688  10.716  19.503   9.540
 1214POPC   GL117689  10.576  19.821   9.217
 1214POPC   GL217690  10.278  19.710   9.108
 1214POPC   C1A17691  10.478  20.014   8.778
 1214POPC   D2A17692  10.586  19.802   8.416
 1214POPC   C3A17693  10.365  19.829   8.102
 1214POPC   C4A17694  10.248  20.174   7.879
 1214POPC   C1B17695  10.355  19.494   8.748
 1214POPC   C2B17696  10.246  19.351   8.352
 1214POPC   C3B17697  10.116  19.410   7.937
 1214POPC   C4B17698  10.266  19.664   7.616
 1215POPC   NC317699   9.469  11.019   9.365
 1215POPC   PO417700  10.040  11.340   9.547
 1215POPC   GL117701   9.986  11.338   9.117
 1215POPC   GL217702  10.244  11.561   9.093
 1215POPC   C1A17703   9.785  11.270   8.695
 1215POPC   D2A17704   9.712  10.987   8.343
 1215POPC   C3A17705   9.708  11.198   7.951
 1215POPC   C4A17706   9.560  11.201   7.517
 1215POPC   C1B17707  10.178  11.604   8.705
 1215POPC   C2B17708  10.193  11.371   8.347
 1215POPC   C3B17709  10.196  11.558   7.963
 1215POPC   C4B17710  10.001  11.440   7.586
 1216POPC   NC317711   4.231  12.627   9.576
 1216POPC   PO417712   3.996  13.252   9.408
 1216POPC   GL117713   4.316  12.945   9.146
 1216POPC   GL217714   4.169  12.657   9.073
 1216POPC   C1A17715   4.568  12.722   8.744
 1216POPC   D2A17716   4.704  12.799   8.276
 1216POPC   C3A17717   4.457  12.653   7.884
 1216POPC   C4A17718   4.549  12.635   7.399
 1216POPC   C1B17719   4.063  12.791   8.670
 1216POPC   C2B17720   3.768  12.776   8.361
 1216POPC   C3B17721   3.944  12.854   7.968
 1216POPC   C4B17722   4.093  12.823   7.530
 1217POPC   NC317723   6.467  25.482   9.436
 1217POPC   PO417724   6.983  25.028   9.549
 1217POPC   GL117725   6.880  25.226   9.147
 1217POPC   GL217726   6.715  25.536   8.989
 1217POPC   C1A17727   6.910  25.129   8.711
 1217POPC   D2A17728   6.818  25.373   8.353
 1217POPC   C3A17729   6.670  25.118   8.038
 1217POPC   C4A17730   6.768  25.211   7.635
 1217POPC   C1B17731   6.408  25.338   8.707
 1217POPC   C2B17732   6.279  25.358   8.269
 1217POPC   C3B17733   6.334  25.415   7.804
 1217POPC   C4B17734   6.323  25.244   7.337
 1218POPC   NC317735  42.938  11.708   9.643
 1218POPC   PO417736  43.288  12.254   9.611
 1218POPC   GL117737  43.214  12.296   9.194
 1218POPC   GL217738  43.014  11.981   9.179
 1218POPC   C1A17739  43.297  12.186   8.783
 1218POPC   D2A17740  43.062  12.177   8.421
 1218POPC   C3A17741  43.359  12.340   8.124
 1218POPC   C4A17742  43.368  12.132   7.739
 1218POPC   C1B17743  43.074  11.715   8.801
 1218POPC   C2B17744  43.059  11.581   8.379
 1218POPC   C3B17745  43.064  11.838   8.030
 1218POPC   C4B17746  42.980  11.829   7.613
 1219POPC   NC317747  11.078   7.296   9.554
 1219POPC   PO417748  11.598   7.682   9.439
 1219POPC   GL117749  11.387   7.338   9.157
 1219POPC   GL217750  10.994   7.280   9.069
 1219POPC   C1A17751  11.399   7.356   8.746
 1219POPC   D2A17752  11.299   7.680   8.476
 1219POPC   C3A17753  10.987   7.641   8.171
 1219POPC   C4A17754  11.249   7.535   7.852
 1219POPC   C1B17755  10.935   7.147   8.668
 1219POPC   C2B17756  11.186   7.183   8.290
 1219POPC   C3B17757  11.178   7.004   7.870
 1219POPC   C4B17758  11.020   7.251   7.505
 1220POPC   NC317759   0.553  25.549   9.611
 1220POPC   PO417760   0.747  26.211   9.554
 1220POPC   GL117761   0.581  25.999   9.214
 1220POPC   GL217762   0.811  25.759   9.142
 1220POPC   C1A17763   0.375  26.115   8.825
 1220POPC   D2A17764   0.527  26.217   8.454
 1220POPC   C3A17765   0.242  26.216   8.141
 1220POPC   C4A17766   0.370  26.276   7.728
 1220POPC   C1B17767   0.553  25.629   8.796
 1220POPC   C2B17768   0.380  25.708   8.396
 1220POPC   C3B17769   0.625  25.684   8.035
 1220POPC   C4B17770   0.541  25.466   7.653
 1221POPC   NC317771   9.215  19.430   9.352
 1221POPC   PO417772   9.714  19.866   9.632
 1221POPC   GL117773   9.780  19.793   9.205
 1221POPC   GL217774   9.470  19.869   9.137
 1221POPC   C1A17775   9.921  19.786   8.773
 1221POPC   D2A17776  10.057  20.041   8.448
 1221POPC   C3A17777   9.874  19.887   8.080
 1221POPC   C4A17778   9.827  19.915   7.671
 1221POPC   C1B17779   9.432  19.636   8.763
 1221POPC   C2B17780   9.493  19.844   8.396
 1221POPC   C3B17781   9.407  19.721   7.967
 1221POPC   C4B17782   9.243  19.480   7.625
 1222POPC   NC317783  37.085   8.037   9.590
 1222POPC   PO417784  36.843   7.535   9.505
 1222POPC   GL117785  36.706   7.472   9.111
 1222POPC   GL217786  37.034   7.577   9.006
 1222POPC   C1A17787  36.639   7.555   8.665
 1222POPC   D2A17788  36.976   7.432   8.390
 1222POPC   C3A17789  36.796   7.395   8.011
 1222POPC   C4A17790  36.807   7.184   7.634
 1222POPC   C1B17791  37.035   7.861   8.683
 1222POPC   C2B17792  36.886   7.926   8.316
 1222POPC   C3B17793  37.039   7.842   7.961
 1222POPC   C4B17794  36.812   7.795   7.629
 1223POPC   NC317795   9.436   3.567   9.608
 1223POPC   PO417796   8.811   3.348   9.576
 1223POPC   GL117797   8.799   3.556   9.210
 1223POPC   GL217798   9.140   3.601   9.177
 1223POPC   C1A17799   8.791   3.404   8.810
 1223POPC   D2A17800   8.845   3.586   8.435
 1223POPC   C3A17801   8.833   3.379   8.068
 1223POPC   C4A17802   8.558   3.344   7.727
 1223POPC   C1B17803   9.306   3.602   8.762
 1223POPC   C2B17804   9.314   3.812   8.339
 1223POPC   C3B17805   9.290   3.598   7.948
 1223POPC   C4B17806   9.092   3.667   7.538
 1224POPC   NC317807  12.584  21.916   9.489
 1224POPC   PO417808  12.624  22.648   9.531
 1224POPC   GL117809  12.790  22.299   9.196
 1224POPC   GL217810  12.616  21.972   9.003
 1224POPC   C1A17811  12.879  22.320   8.759
 1224POPC   D2A17812  12.778  22.068   8.434
 1224POPC   C3A17813  12.833  22.266   8.058
 1224POPC   C4A17814  12.797  22.271   7.627
 1224POPC   C1B17815  13.012  21.803   8.823
 1224POPC   C2B17816  13.180  21.751   8.397
 1224POPC   C3B17817  12.919  21.765   8.006
 1224POPC   C4B17818  12.483  21.896   7.853
 1225POPC   NC317819  24.516   7.937   9.639
 1225POPC   PO417820  24.367   8.594   9.541
 1225POPC   GL117821  24.501   8.302   9.232
 1225POPC   GL217822  24.390   8.012   9.150
 1225POPC   C1A17823  24.679   8.297   8.821
 1225POPC   D2A17824  24.662   8.089   8.446
 1225POPC   C3A17825  24.724   8.283   8.049
 1225POPC   C4A17826  24.638   8.180   7.649
 1225POPC   C1B17827  24.226   8.033   8.738
 1225POPC   C2B17828  24.249   7.799   8.375
 1225POPC   C3B17829  24.377   7.921   8.015
 1225POPC   C4B17830  24.230   7.878   7.644
 1226POPC   NC317831   8.694   2.900   9.543
 1226POPC   PO417832   9.278   2.481   9.541
 1226POPC   GL117833   9.108   2.728   9.244
 1226POPC   GL217834   9.193   3.089   9.331
 1226POPC   C1A17835   9.011   2.557   8.850
 1226POPC   D2A17836   8.907   2.700   8.448
 1226POPC   C3A17837   8.880   2.455   8.074
 1226POPC   C4A17838   9.040   2.669   7.714
 1226POPC   C1B17839   9.214   3.074   8.882
 1226POPC   C2B17840   9.378   2.896   8.501
 1226POPC   C3B17841   9.251   2.999   8.081
 1226POPC   C4B17842   9.489   2.929   7.695
 1227POPC   NC317843  18.617  40.516   9.786
 1227POPC   PO417844  18.131  40.912   9.623
 1227POPC   GL117845  18.329  41.022   9.245
 1227POPC   GL217846  18.120  40.808   9.002
 1227POPC   C1A17847  18.525  41.021   8.826
 1227POPC   D2A17848  18.385  40.673   8.537
 1227POPC   C3A17849  18.312  40.844   8.155
 1227POPC   C4A17850  18.395  40.816   7.727
 1227POPC   C1B17851  17.936  40.505   8.712
 1227POPC   C2B17852  17.845  40.599   8.328
 1227POPC   C3B17853  18.078  40.409   8.054
 1227POPC   C4B17854  17.968  40.511   7.705
 1228POPC   NC317855  38.088  40.408   9.473
 1228POPC   PO417856  38.720  40.609   9.407
 1228POPC   GL117857  38.351  40.741   9.198
 1228POPC   GL217858  38.391  41.113   9.201
 1228POPC   C1A17859  38.204  40.586   8.785
 1228POPC   D2A17860  38.489  40.580   8.407
 1228POPC   C3A17861  38.348  40.536   8.002
 1228POPC   C4A17862  38.497  40.722   7.632
 1228POPC   C1B17863  38.535  40.965   8.798
 1228POPC   C2B17864  38.442  41.089   8.417
 1228POPC   C3B17865  38.625  41.002   8.067
 1228POPC   C4B17866  38.508  41.202   7.736
 1229POPC   NC317867  35.733  37.487   9.480
 1229POPC   PO417868  35.079  37.199   9.559
 1229POPC   GL117869  35.283  37.382   9.241
 1229POPC   GL217870  35.338  37.705   9.200
 1229POPC   C1A17871  35.222  37.351   8.822
 1229POPC   D2A17872  35.487  37.221   8.504
 1229POPC   C3A17873  35.398  37.414   8.112
 1229POPC   C4A17874  35.168  37.651   7.828
 1229POPC   C1B17875  35.645  37.622   8.849
 1229POPC   C2B17876  35.495  37.764   8.481
 1229POPC   C3B17877  35.486  37.962   8.090
 1229POPC   C4B17878  35.689  37.725   7.799
 1230POPC   NC317879   5.792  30.217   9.570
 1230POPC   PO417880   5.906  29.615   9.479
 1230POPC   GL117881   5.882  29.795   9.064
 1230POPC   GL217882   5.947  30.134   9.087
 1230POPC   C1A17883   5.748  29.942   8.649
 1230POPC   D2A17884   5.926  29.861   8.249
 1230POPC   C3A17885   5.674  29.694   7.904
 1230POPC   C4A17886   5.827  29.708   7.487
 1230POPC   C1B17887   6.196  30.167   8.759
 1230POPC   C2B17888   6.186  30.301   8.374
 1230POPC   C3B17889   5.902  30.404   8.115
 1230POPC   C4B17890   5.935  30.130   7.814
 1231POPC   NC317891   1.352   5.491   9.332
 1231POPC   PO417892   1.231   6.147   9.371
 1231POPC   GL117893   1.354   5.904   9.027
 1231POPC   GL217894   1.105   6.087   8.874
 1231POPC   C1A17895   1.391   5.811   8.576
 1231POPC   D2A17896   1.306   6.179   8.321
 1231POPC   C3A17897   1.495   6.084   7.946
 1231POPC   C4A17898   1.567   5.687   7.751
 1231POPC   C1B17899   0.921   5.688   8.818
 1231POPC   C2B17900   0.876   5.751   8.386
 1231POPC   C3B17901   1.177   5.685   8.097
 1231POPC   C4B17902   0.992   5.632   7.726
 1232POPC   NC317903   8.608  42.444   9.416
 1232POPC   PO417904   8.100  41.972   9.387
 1232POPC   GL117905   8.224  42.308   9.095
 1232POPC   GL217906   8.159  42.645   9.215
 1232POPC   C1A17907   8.337  42.333   8.650
 1232POPC   D2A17908   8.152  42.262   8.236
 1232POPC   C3A17909   8.352  42.445   7.876
 1232POPC   C4A17910   8.535  42.472   7.426
 1232POPC   C1B17911   7.933  42.697   8.855
 1232POPC   C2B17912   7.774  42.464   8.519
 1232POPC   C3B17913   7.713  42.460   8.106
 1232POPC   C4B17914   7.905  42.609   7.723
 1233POPC   NC317915  26.330  36.176   9.749
 1233POPC   PO417916  26.973  36.242   9.825
 1233POPC   GL117917  27.041  36.071   9.374
 1233POPC   GL217918  26.705  36.153   9.233
 1233POPC   C1A17919  27.074  36.029   8.896
 1233POPC   D2A17920  26.823  35.966   8.501
 1233POPC   C3A17921  27.010  36.093   8.094
 1233POPC   C4A17922  27.133  36.049   7.614
 1233POPC   C1B17923  26.621  36.361   8.858
 1233POPC   C2B17924  26.593  36.448   8.428
 1233POPC   C3B17925  26.588  36.387   8.000
 1233POPC   C4B17926  26.264  36.405   7.714
 1234POPC   NC317927  34.235  30.210   9.427
 1234POPC   PO417928  33.769  29.925   9.834
 1234POPC   GL117929  33.844  29.957   9.296
 1234POPC   GL217930  33.573  29.985   9.046
 1234POPC   C1A17931  34.010  29.761   8.882
 1234POPC   D2A17932  33.753  29.645   8.498
 1234POPC   C3A17933  33.890  29.788   8.079
 1234POPC   C4A17934  33.800  29.659   7.681
 1234POPC   C1B17935  33.818  30.173   8.679
 1234POPC   C2B17936  33.657  30.280   8.304
 1234POPC   C3B17937  33.496  30.075   7.957
 1234POPC   C4B17938  33.711  30.168   7.615
 1235POPC   NC317939  35.577  14.805   9.393
 1235POPC   PO417940  35.218  15.432   9.452
 1235POPC   GL117941  35.422  15.304   9.117
 1235POPC   GL217942  35.320  14.969   8.996
 1235POPC   C1A17943  35.226  15.373   8.694
 1235POPC   D2A17944  35.287  15.081   8.352
 1235POPC   C3A17945  35.049  15.139   7.986
 1235POPC   C4A17946  35.247  15.183   7.592
 1235POPC   C1B17947  35.662  15.113   8.728
 1235POPC   C2B17948  35.830  15.050   8.363
 1235POPC   C3B17949  35.747  15.069   7.952
 1235POPC   C4B17950  35.688  14.970   7.532
 1236POPC   NC317951  19.396   6.519   9.477
 1236POPC   PO417952  18.764   6.750   9.480
 1236POPC   GL117953  19.020   6.614   9.117
 1236POPC   GL217954  19.247   6.873   8.997
 1236POPC   C1A17955  19.157   6.458   8.717
 1236POPC   D2A17956  19.251   6.794   8.395
 1236POPC   C3A17957  19.158   6.697   7.987
 1236POPC   C4A17958  18.976   6.552   7.610
 1236POPC   C1B17959  18.861   6.889   8.711
 1236POPC   C2B17960  18.604   6.858   8.320
 1236POPC   C3B17961  18.747   6.984   7.921
 1236POPC   C4B17962  19.052   7.053   7.600
 1237POPC   NC317963  43.672  25.752   9.421
 1237POPC   PO417964  44.066  26.323   9.560
 1237POPC   GL117965  44.117  26.171   9.179
 1237POPC   GL217966  44.019  25.892   9.076
 1237POPC   C1A17967  43.975  26.319   8.761
 1237POPC   D2A17968  43.909  26.166   8.345
 1237POPC   C3A17969  43.864  26.377   7.934
 1237POPC   C4A17970  43.856  26.046   7.609
 1237POPC   C1B17971  43.780  25.773   8.736
 1237POPC   C2B17972  43.977  25.646   8.377
 1237POPC   C3B17973  43.799  25.711   7.998
 1237POPC   C4B17974  43.495  25.641   7.676
 1238POPC   NC317975  34.048   8.012   9.450
 1238POPC   PO417976  33.412   8.436   9.501
 1238POPC   GL117977  33.752   8.407   9.216
 1238POPC   GL217978  33.675   8.080   9.113
 1238POPC   C1A17979  33.908   8.479   8.796
 1238POPC   D2A17980  33.843   8.284   8.378
 1238POPC   C3A17981  33.937   8.465   7.948
 1238POPC   C4A17982  33.764   8.277   7.535
 1238POPC   C1B17983  33.971   7.953   8.786
 1238POPC   C2B17984  33.941   7.759   8.380
 1238POPC   C3B17985  33.965   7.940   7.975
 1238POPC   C4B17986  33.997   7.823   7.554
 1239POPC   NC317987  10.017  27.650   9.519
 1239POPC   PO417988   9.480  27.989   9.263
 1239POPC   GL117989   9.718  27.649   9.090
 1239POPC   GL217990  10.073  27.714   9.029
 1239POPC   C1A17991   9.709  27.370   8.747
 1239POPC   D2A17992   9.675  27.579   8.345
 1239POPC   C3A17993   9.488  27.495   7.938
 1239POPC   C4A17994   9.684  27.631   7.548
 1239POPC   C1B17995  10.093  27.687   8.630
 1239POPC   C2B17996  10.100  27.301   8.397
 1239POPC   C3B17997   9.969  27.354   7.981
 1239POPC   C4B17998  10.161  27.556   7.644
 1240POPC   NC317999  24.510  20.773   9.602
 1240POPC   PO418000  24.407  20.174   9.282
 1240POPC   GL118001  24.505  20.579   9.105
 1240POPC   GL218002  24.215  20.831   9.191
 1240POPC   C1A18003  24.608  20.507   8.655
 1240POPC   D2A18004  24.416  20.239   8.392
 1240POPC   C3A18005  24.433  20.407   7.974
 1240POPC   C4A18006  24.317  20.605   7.589
 1240POPC   C1B18007  24.394  20.959   8.779
 1240POPC   C2B18008  24.604  20.957   8.344
 1240POPC   C3B18009  24.410  21.004   7.903
 1240POPC   C4B18010  24.332  21.125   7.427
 1241POPC   NC318011  37.348  31.467   9.426
 1241POPC   PO418012  37.917  31.345   9.676
 1241POPC   GL118013  37.803  31.471   9.208
 1241POPC   GL218014  37.693  31.744   9.136
 1241POPC   C1A18015  37.555  31.399   8.787
 1241POPC   D2A18016  37.763  31.290   8.447
 1241POPC   C3A18017  37.684  31.082   8.098
 1241POPC   C4A18018  37.541  31.371   7.786
 1241POPC   C1B18019  37.639  31.883   8.719
 1241POPC   C2B18020  37.692  31.779   8.291
 1241POPC   C3B18021  37.643  31.872   7.859
 1241POPC   C4B18022  37.829  31.697   7.506
 1242POPC   NC318023  36.366  44.324   9.248
 1242POPC   PO418024  36.881  44.698   9.520
 1242POPC   GL118025  36.935  44.620   9.100
 1242POPC   GL218026  36.668  44.489   8.886
 1242POPC   C1A18027  37.074  44.760   8.720
 1242POPC   D2A18028  37.180  44.488   8.422
 1242POPC   C3A18029  37.017  44.553   8.046
 1242POPC   C4A18030  37.153  44.738   7.693
 1242POPC   C1B18031  36.591  44.934   8.741
 1242POPC   C2B18032  36.731   0.150   8.358
 1242POPC   C3B18033  36.807   0.022   7.949
 1242POPC   C4B18034  36.646  44.698   7.712
 1243POPC   NC318035   5.568  14.609   9.475
 1243POPC   PO418036   6.158  14.349   9.798
 1243POPC   GL118037   5.974  14.430   9.266
 1243POPC   GL218038   5.932  14.163   9.078
 1243POPC   C1A18039   5.901  14.587   8.802
 1243POPC   D2A18040   5.659  14.637   8.383
 1243POPC   C3A18041   5.927  14.623   7.990
 1243POPC   C4A18042   6.071  14.552   7.550
 1243POPC   C1B18043   5.876  14.096   8.653
 1243POPC   C2B18044   6.054  14.214   8.265
 1243POPC   C3B18045   5.996  14.118   7.842
 1243POPC   C4B18046   5.581  14.057   7.864
 1244POPC   NC318047  30.024  13.578   9.572
 1244POPC   PO418048  29.404  13.412   9.421
 1244POPC   GL118049  29.784  13.442   9.130
 1244POPC   GL218050  29.958  13.799   9.084
 1244POPC   C1A18051  30.069  13.396   8.776
 1244POPC   D2A18052  29.958  13.255   8.365
 1244POPC   C3A18053  30.143  13.240   7.962
 1244POPC   C4A18054  30.146  13.478   7.551
 1244POPC   C1B18055  29.757  13.843   8.698
 1244POPC   C2B18056  29.907  13.805   8.301
 1244POPC   C3B18057  29.825  13.630   7.915
 1244POPC   C4B18058  29.890  13.958   7.604
 1245POPC   NC318059  23.385  40.786   9.780
 1245POPC   PO418060  23.856  41.282   9.572
 1245POPC   GL118061  23.655  41.104   9.195
 1245POPC   GL218062  23.554  40.745   9.230
 1245POPC   C1A18063  23.880  40.959   8.843
 1245POPC   D2A18064  23.801  40.776   8.450
 1245POPC   C3A18065  23.846  41.008   8.074
 1245POPC   C4A18066  24.044  40.702   7.842
 1245POPC   C1B18067  23.482  40.584   8.814
 1245POPC   C2B18068  23.385  40.441   8.385
 1245POPC   C3B18069  23.557  40.586   8.007
 1245POPC   C4B18070  23.678  40.417   7.629
 1246POPC   NC318071   5.030  17.094   9.482
 1246POPC   PO418072   5.157  17.668   9.833
 1246POPC   GL118073   5.291  17.510   9.346
 1246POPC   GL218074   4.949  17.540   9.240
 1246POPC   C1A18075   5.243  17.664   8.858
 1246POPC   D2A18076   5.011  17.591   8.456
 1246POPC   C3A18077   5.243  17.697   8.081
 1246POPC   C4A18078   5.317  17.485   7.699
 1246POPC   C1B18079   4.832  17.293   8.847
 1246POPC   C2B18080   4.989  17.048   8.479
 1246POPC   C3B18081   5.046  17.224   8.066
 1246POPC   C4B18082   4.731  17.363   7.743
 1247POPC   NC318083  43.441  14.113   9.299
 1247POPC   PO418084  43.068  14.624   9.408
 1247POPC   GL118085  43.105  14.399   9.059
 1247POPC   GL218086  42.971  14.093   8.967
 1247POPC   C1A18087  43.304  14.460   8.675
 1247POPC   D2A18088  43.192  14.660   8.303
 1247POPC   C3A18089  43.075  14.344   8.006
 1247POPC   C4A18090  43.300  14.296   7.625
 1247POPC   C1B18091  42.803  14.391   8.671
 1247POPC   C2B18092  42.700  14.627   8.346
 1247POPC   C3B18093  42.702  14.702   7.932
 1247POPC   C4B18094  42.553  14.470   7.602
 1248POPC   NC318095   5.159  34.928   9.470
 1248POPC   PO418096   4.817  35.495   9.616
 1248POPC   GL118097   5.077  35.456   9.228
 1248POPC   GL218098   4.980  35.162   9.079
 1248POPC   C1A18099   4.991  35.537   8.765
 1248POPC   D2A18100   4.817  35.548   8.364
 1248POPC   C3A18101   4.785  35.456   7.949
 1248POPC   C4A18102   4.960  35.425   7.547
 1248POPC   C1B18103   5.235  35.095   8.750
 1248POPC   C2B18104   5.115  35.151   8.359
 1248POPC   C3B18105   5.235  35.235   7.968
 1248POPC   C4B18106   5.266  34.996   7.620
 1249POPC   NC318107   1.530   0.779   9.411
 1249POPC   PO418108   1.246   0.201   9.709
 1249POPC   GL118109   1.385   0.246   9.227
 1249POPC   GL218110   1.280   0.549   9.038
 1249POPC   C1A18111   1.190   0.073   8.798
 1249POPC   D2A18112   1.228   0.268   8.384
 1249POPC   C3A18113   1.403   0.031   8.027
 1249POPC   C4A18114   1.437   0.101   7.581
 1249POPC   C1B18115   1.513   0.802   8.736
 1249POPC   C2B18116   1.436   0.759   8.321
 1249POPC   C3B18117   1.363   0.567   7.933
 1249POPC   C4B18118   1.003   0.744   7.714
 1250POPC   NC318119   0.749   6.079   9.489
 1250POPC   PO418120   0.250   5.620   9.524
 1250POPC   GL118121   0.141   5.848   9.128
 1250POPC   GL218122   0.487   5.898   9.074
 1250POPC   C1A18123   0.129   6.013   8.703
 1250POPC   D2A18124   0.393   5.929   8.298
 1250POPC   C3A18125   0.212   5.813   7.933
 1250POPC   C4A18126  44.931   6.007   7.755
 1250POPC   C1B18127   0.629   6.083   8.706
 1250POPC   C2B18128   0.797   6.265   8.313
 1250POPC   C3B18129   0.947   6.124   7.929
 1250POPC   C4B18130   0.622   5.979   7.713
 1251POPC   NC318131   4.067  13.750   9.452
 1251POPC   PO418132   4.778  13.794   9.289
 1251POPC   GL118133   4.422  13.690   9.064
 1251POPC   GL218134   4.299  13.435   9.057
 1251POPC   C1A18135   4.214  13.786   8.694
 1251POPC   D2A18136   4.192  13.591   8.303
 1251POPC   C3A18137   4.177  13.796   7.937
 1251POPC   C4A18138   4.394  13.781   7.566
 1251POPC   C1B18139   4.430  13.211   8.714
 1251POPC   C2B18140   4.277  13.083   8.317
 1251POPC   C3B18141   4.273  13.242   7.912
 1251POPC   C4B18142   4.424  13.225   7.505
 1252POPC   NC318143  20.336  38.813   9.519
 1252POPC   PO418144  20.752  38.242   9.564
 1252POPC   GL118145  20.732  38.566   9.259
 1252POPC   GL218146  20.427  38.453   9.153
 1252POPC   C1A18147  20.804  38.515   8.812
 1252POPC   D2A18148  20.611  38.495   8.411
 1252POPC   C3A18149  20.860  38.346   8.078
 1252POPC   C4A18150  20.745  38.434   7.692
 1252POPC   C1B18151  20.315  38.248   8.786
 1252POPC   C2B18152  20.129  38.225   8.388
 1252POPC   C3B18153  20.245  38.018   8.011
 1252POPC   C4B18154  20.285  38.224   7.645
 1253POPC   NC318155  19.769   1.617   9.513
 1253POPC   PO418156  19.698   2.170   9.328
 1253POPC   GL118157  19.904   1.857   9.068
 1253POPC   GL218158  20.104   1.540   9.043
 1253POPC   C1A18159  19.941   2.050   8.681
 1253POPC   D2A18160  19.618   2.250   8.443
 1253POPC   C3A18161  19.751   2.192   8.034
 1253POPC   C4A18162  19.676   2.072   7.638
 1253POPC   C1B18163  19.859   1.548   8.655
 1253POPC   C2B18164  19.828   1.746   8.273
 1253POPC   C3B18165  19.979   1.732   7.858
 1253POPC   C4B18166  19.989   1.788   7.369
 1254POPC   NC318167   3.368  13.117   9.787
 1254POPC   PO418168   3.685  12.631   9.400
 1254POPC   GL118169   3.668  12.695   8.992
 1254POPC   GL218170   3.794  13.028   9.001
 1254POPC   C1A18171   3.389  12.626   8.693
 1254POPC   D2A18172   3.194  12.721   8.343
 1254POPC   C3A18173   3.408  12.732   7.973
 1254POPC   C4A18174   3.590  12.902   7.605
 1254POPC   C1B18175   3.472  13.125   8.669
 1254POPC   C2B18176   3.228  13.244   8.315
 1254POPC   C3B18177   3.248  13.255   7.852
 1254POPC   C4B18178   3.454  13.356   7.460
 1255POPC   NC318179  27.663  26.485   9.878
 1255POPC   PO418180  27.870  25.906   9.461
 1255POPC   GL118181  27.585  26.141   9.150
 1255POPC   GL218182  27.586  25.848   8.924
 1255POPC   C1A18183  27.541  26.274   8.674
 1255POPC   D2A18184  27.524  25.948   8.381
 1255POPC   C3A18185  27.502  26.008   7.942
 1255POPC   C4A18186  27.686  26.042   7.515
 1255POPC   C1B18187  27.993  26.130   8.862
 1255POPC   C2B18188  28.083  26.355   8.509
 1255POPC   C3B18189  27.988  26.222   8.114
 1255POPC   C4B18190  28.068  26.287   7.707
 1256POPC   NC318191  19.600  33.081   9.481
 1256POPC   PO418192  19.903  32.516   9.453
 1256POPC   GL118193  19.793  32.854   9.080
 1256POPC   GL218194  19.953  33.178   9.068
 1256POPC   C1A18195  19.644  33.092   8.653
 1256POPC   D2A18196  19.498  33.173   8.215
 1256POPC   C3A18197  19.731  32.952   7.881
 1256POPC   C4A18198  20.180  32.851   7.796
 1256POPC   C1B18199  20.098  32.891   8.684
 1256POPC   C2B18200  20.110  33.008   8.269
 1256POPC   C3B18201  20.067  33.333   7.974
 1256POPC   C4B18202  19.686  33.443   7.806
 1257POPC   NC318203   2.909  29.356   9.484
 1257POPC   PO418204   2.268  29.264   9.272
 1257POPC   GL118205   2.644  29.201   9.055
 1257POPC   GL218206   2.933  28.974   9.134
 1257POPC   C1A18207   2.698  29.287   8.651
 1257POPC   D2A18208   2.822  29.047   8.302
 1257POPC   C3A18209   2.652  29.062   7.881
 1257POPC   C4A18210   2.353  28.754   7.772
 1257POPC   C1B18211   3.170  29.119   8.777
 1257POPC   C2B18212   3.275  29.286   8.355
 1257POPC   C3B18213   3.193  29.107   7.963
 1257POPC   C4B18214   3.026  29.165   7.562
 1258POPC   NC318215   4.710  25.223   9.440
 1258POPC   PO418216   5.337  25.428   9.602
 1258POPC   GL118217   5.270  25.263   9.199
 1258POPC   GL218218   4.959  25.458   9.063
 1258POPC   C1A18219   5.270  25.201   8.755
 1258POPC   D2A18220   4.982  25.432   8.479
 1258POPC   C3A18221   4.977  25.422   8.039
 1258POPC   C4A18222   5.276  25.160   7.822
 1258POPC   C1B18223   4.703  25.152   8.788
 1258POPC   C2B18224   4.604  25.065   8.346
 1258POPC   C3B18225   4.767  24.980   7.928
 1258POPC   C4B18226   4.831  25.237   7.571
 1259POPC   NC318227  11.569  40.987   9.462
 1259POPC   PO418228  12.165  40.863   9.833
 1259POPC   GL118229  11.966  40.733   9.341
 1259POPC   GL218230  12.121  40.487   9.143
 1259POPC   C1A18231  11.912  40.910   8.871
 1259POPC   D2A18232  12.100  41.152   8.516
 1259POPC   C3A18233  12.009  41.075   8.084
 1259POPC   C4A18234  12.216  41.123   7.681
 1259POPC   C1B18235  11.847  40.418   8.795
 1259POPC   C2B18236  11.832  40.693   8.401
 1259POPC   C3B18237  11.950  40.572   8.027
 1259POPC   C4B18238  11.900  40.747   7.667
 1260POPC   NC318239  26.036  20.907   9.419
 1260POPC   PO418240  25.724  20.313   9.394
 1260POPC   GL118241  25.882  20.564   9.082
 1260POPC   GL218242  25.637  20.862   9.122
 1260POPC   C1A18243  26.194  20.613   8.744
 1260POPC   D2A18244  26.107  20.780   8.311
 1260POPC   C3A18245  26.045  20.505   7.960
 1260POPC   C4A18246  26.159  20.567   7.537
 1260POPC   C1B18247  25.869  20.996   8.743
 1260POPC   C2B18248  25.731  21.140   8.359
 1260POPC   C3B18249  25.675  20.894   8.030
 1260POPC   C4B18250  25.697  20.735   7.642
 1261POPC   NC318251  36.806  10.168   9.625
 1261POPC   PO418252  37.192  10.670   9.625
 1261POPC   GL118253  37.056  10.560   9.182
 1261POPC   GL218254  36.779  10.408   9.155
 1261POPC   C1A18255  37.042  10.442   8.708
 1261POPC   D2A18256  36.815  10.567   8.311
 1261POPC   C3A18257  36.863  10.330   7.907
 1261POPC   C4A18258  36.809  10.398   7.461
 1261POPC   C1B18259  36.582  10.257   8.742
 1261POPC   C2B18260  36.343  10.326   8.376
 1261POPC   C3B18261  36.284  10.094   7.992
 1261POPC   C4B18262  36.489  10.048   7.633
 1262POPC   NC318263  12.450  23.098   9.381
 1262POPC   PO418264  11.853  22.930   9.751
 1262POPC   GL118265  11.979  22.792   9.293
 1262POPC   GL218266  11.799  22.922   9.048
 1262POPC   C1A18267  12.236  22.766   8.876
 1262POPC   D2A18268  12.156  22.649   8.463
 1262POPC   C3A18269  12.265  22.831   8.098
 1262POPC   C4A18270  12.032  22.743   7.736
 1262POPC   C1B18271  11.890  23.179   8.721
 1262POPC   C2B18272  12.084  23.256   8.355
 1262POPC   C3B18273  11.939  23.186   7.984
 1262POPC   C4B18274  12.159  23.215   7.622
 1263POPC   NC318275  40.887  42.502   9.590
 1263POPC   PO418276  41.107  41.991   9.230
 1263POPC   GL118277  40.809  42.326   9.099
 1263POPC   GL218278  41.015  42.618   9.125
 1263POPC   C1A18279  40.635  42.278   8.680
 1263POPC   D2A18280  40.652  42.051   8.285
 1263POPC   C3A18281  40.539  42.350   7.982
 1263POPC   C4A18282  40.359  42.539   7.647
 1263POPC   C1B18283  41.133  42.435   8.722
 1263POPC   C2B18284  41.321  42.279   8.354
 1263POPC   C3B18285  41.077  42.480   8.046
 1263POPC   C4B18286  40.893  42.518   7.635
 1264POPC   NC318287   3.542   2.240   9.485
 1264POPC   PO418288   3.297   1.590   9.513
 1264POPC   GL118289   3.284   1.821   9.132
 1264POPC   GL218290   3.598   1.945   9.088
 1264POPC   C1A18291   3.252   1.972   8.714
 1264POPC   D2A18292   3.494   1.840   8.354
 1264POPC   C3A18293   3.301   1.943   7.984
 1264POPC   C4A18294   3.469   2.014   7.596
 1264POPC   C1B18295   3.719   2.201   8.740
 1264POPC   C2B18296   3.922   2.129   8.379
 1264POPC   C3B18297   3.751   2.239   8.016
 1264POPC   C4B18298   3.825   2.511   7.695
 1265POPC   NC318299  41.226  12.408   9.303
 1265POPC   PO418300  41.590  11.911   9.554
 1265POPC   GL118301  41.688  12.091   9.165
 1265POPC   GL218302  41.730  12.456   9.171
 1265POPC   C1A18303  41.726  11.891   8.742
 1265POPC   D2A18304  42.030  11.860   8.382
 1265POPC   C3A18305  41.819  11.761   7.971
 1265POPC   C4A18306  41.406  11.884   7.735
 1265POPC   C1B18307  41.558  12.393   8.745
 1265POPC   C2B18308  41.185  12.371   8.474
 1265POPC   C3B18309  41.225  12.316   8.025
 1265POPC   C4B18310  41.651  12.331   7.797
 1266POPC   NC318311  44.422  44.285   9.168
 1266POPC   PO418312  44.899  44.535   9.614
 1266POPC   GL118313  44.779  44.673   9.184
 1266POPC   GL218314  44.415  44.777   9.122
 1266POPC   C1A18315  44.705  44.681   8.718
 1266POPC   D2A18316  44.973  44.668   8.368
 1266POPC   C3A18317  44.754  44.698   7.964
 1266POPC   C4A18318  44.810  44.395   7.621
 1266POPC   C1B18319  44.257  44.972   8.744
 1266POPC   C2B18320  44.401  44.926   8.322
 1266POPC   C3B18321  44.201  44.876   7.922
 1266POPC   C4B18322  44.449  44.852   7.577
 1267POPC   NC318323   1.701  39.989   9.464
 1267POPC   PO418324   1.900  39.314   9.598
 1267POPC   GL118325   2.093  39.749   9.231
 1267POPC   GL218326   1.968  40.139   9.075
 1267POPC   C1A18327   2.326  39.927   8.807
 1267POPC   D2A18328   2.404  40.298   8.512
 1267POPC   C3A18329   2.296  40.299   8.049
 1267POPC   C4A18330   2.286  39.898   7.795
 1267POPC   C1B18331   1.843  39.982   8.682
 1267POPC   C2B18332   2.009  39.942   8.269
 1267POPC   C3B18333   1.814  40.064   7.864
 1267POPC   C4B18334   1.549  40.091   7.480
 1268POPC   NC318335  10.479  17.332   9.485
 1268POPC   PO418336  10.701  17.866   9.439
 1268POPC   GL118337  10.445  17.633   9.066
 1268POPC   GL218338  10.277  17.242   9.053
 1268POPC   C1A18339  10.390  17.646   8.600
 1268POPC   D2A18340  10.082  17.650   8.247
 1268POPC   C3A18341  10.228  17.597   7.815
 1268POPC   C4A18342  10.642  17.711   7.700
 1268POPC   C1B18343  10.628  17.207   8.816
 1268POPC   C2B18344  10.577  17.127   8.412
 1268POPC   C3B18345  10.616  17.336   8.032
 1268POPC   C4B18346  10.784  17.209   7.613
 1269POPC   NC318347  39.811  19.904   9.415
 1269POPC   PO418348  40.256  19.362   9.470
 1269POPC   GL118349  40.227  19.691   9.187
 1269POPC   GL218350  39.934  19.589   9.048
 1269POPC   C1A18351  40.210  19.885   8.756
 1269POPC   D2A18352  39.992  19.951   8.382
 1269POPC   C3A18353  40.171  19.813   8.005
 1269POPC   C4A18354  40.151  19.442   7.785
 1269POPC   C1B18355  39.654  19.757   8.722
 1269POPC   C2B18356  39.462  19.730   8.304
 1269POPC   C3B18357  39.665  19.613   7.925
 1269POPC   C4B18358  39.816  19.860   7.625
 1270POPC   NC318359  36.718  19.579   9.516
 1270POPC   PO418360  37.254  19.960   9.441
 1270POPC   GL118361  36.832  19.967   9.219
 1270POPC   GL218362  36.802  20.292   9.140
 1270POPC   C1A18363  36.582  19.961   8.815
 1270POPC   D2A18364  36.712  19.999   8.387
 1270POPC   C3A18365  36.928  19.636   8.193
 1270POPC   C4A18366  36.845  19.672   7.759
 1270POPC   C1B18367  37.093  20.083   8.808
 1270POPC   C2B18368  37.195  20.156   8.403
 1270POPC   C3B18369  37.123  20.055   7.996
 1270POPC   C4B18370  37.359  19.715   7.828
 1271POPC   NC318371  42.229  10.183   9.665
 1271POPC   PO418372  42.607  10.679   9.577
 1271POPC   GL118373  42.456  10.436   9.248
 1271POPC   GL218374  42.116  10.526   9.234
 1271POPC   C1A18375  42.340  10.396   8.810
 1271POPC   D2A18376  42.408  10.208   8.438
 1271POPC   C3A18377  42.295  10.419   8.084
 1271POPC   C4A18378  42.248  10.371   7.665
 1271POPC   C1B18379  41.999  10.779   8.864
 1271POPC   C2B18380  42.239  10.786   8.486
 1271POPC   C3B18381  42.186  10.954   8.109
 1271POPC   C4B18382  42.080  10.862   7.683
 1272POPC   NC318383  34.958  15.841   9.379
 1272POPC   PO418384  35.620  16.114   9.484
 1272POPC   GL118385  35.436  16.175   9.093
 1272POPC   GL218386  35.397  15.816   9.105
 1272POPC   C1A18387  35.308  16.294   8.644
 1272POPC   D2A18388  35.472  16.274   8.195
 1272POPC   C3A18389  35.248  16.023   7.884
 1272POPC   C4A18390  35.100  15.994   7.387
 1272POPC   C1B18391  35.622  15.677   8.769
 1272POPC   C2B18392  35.493  15.726   8.351
 1272POPC   C3B18393  35.451  15.504   7.971
 1272POPC   C4B18394  35.487  15.688   7.583
 1273POPC   NC318395  36.737   0.191   9.472
 1273POPC   PO418396  37.277   0.542   9.425
 1273POPC   GL118397  37.028   0.443   9.125
 1273POPC   GL218398  36.715   0.564   9.102
 1273POPC   C1A18399  36.996   0.266   8.774
 1273POPC   D2A18400  37.219   0.350   8.432
 1273POPC   C3A18401  37.012   0.488   8.071
 1273POPC   C4A18402  37.075   0.356   7.665
 1273POPC   C1B18403  36.528   0.500   8.709
 1273POPC   C2B18404  36.558   0.637   8.287
 1273POPC   C3B18405  36.509   0.424   7.891
 1273POPC   C4B18406  36.664   0.635   7.535
 1274POPC   NC318407  25.454  33.462   9.223
 1274POPC   PO418408  25.527  33.926   9.732
 1274POPC   GL118409  25.347  33.934   9.256
 1274POPC   GL218410  25.038  34.070   9.227
 1274POPC   C1A18411  25.376  33.900   8.777
 1274POPC   D2A18412  25.383  34.025   8.347
 1274POPC   C3A18413  25.377  33.816   7.959
 1274POPC   C4A18414  25.021  33.586   7.833
 1274POPC   C1B18415  24.979  34.201   8.770
 1274POPC   C2B18416  24.878  34.008   8.354
 1274POPC   C3B18417  24.940  34.078   7.895
 1274POPC   C4B18418  25.081  34.337   7.518
 1275POPC   NC318419  37.310  16.306   9.334
 1275POPC   PO418420  36.668  16.653   9.407
 1275POPC   GL118421  36.800  16.702   9.020
 1275POPC   GL218422  37.132  16.664   9.032
 1275POPC   C1A18423  36.835  16.863   8.625
 1275POPC   D2A18424  36.648  17.001   8.288
 1275POPC   C3A18425  36.661  16.672   8.039
 1275POPC   C4A18426  36.466  16.650   7.676
 1275POPC   C1B18427  37.328  16.915   8.749
 1275POPC   C2B18428  37.250  17.088   8.373
 1275POPC   C3B18429  37.310  17.016   7.963
 1275POPC   C4B18430  37.015  16.796   7.698
 1276POPC   NC318431  19.012  11.569   9.318
 1276POPC   PO418432  19.402  11.013   9.412
 1276POPC   GL118433  19.205  11.186   9.025
 1276POPC   GL218434  18.825  11.221   9.000
 1276POPC   C1A18435  19.166  11.095   8.597
 1276POPC   D2A18436  19.279  11.184   8.207
 1276POPC   C3A18437  19.172  10.864   7.953
 1276POPC   C4A18438  19.283  11.114   7.637
 1276POPC   C1B18439  18.752  10.862   8.745
 1276POPC   C2B18440  18.759  10.832   8.304
 1276POPC   C3B18441  18.752  11.141   7.978
 1276POPC   C4B18442  18.789  10.977   7.557
 1277POPC   NC318443  43.758  29.685   9.443
 1277POPC   PO418444  44.246  30.136   9.502
 1277POPC   GL118445  43.966  30.018   9.110
 1277POPC   GL218446  43.647  30.100   9.128
 1277POPC   C1A18447  43.804  29.747   8.753
 1277POPC   D2A18448  43.926  29.810   8.345
 1277POPC   C3A18449  43.665  29.769   8.044
 1277POPC   C4A18450  43.821  29.604   7.735
 1277POPC   C1B18451  43.433  30.095   8.765
 1277POPC   C2B18452  43.524  30.142   8.362
 1277POPC   C3B18453  43.612  30.264   7.937
 1277POPC   C4B18454  43.766  30.085   7.587
 1278POPC   NC318455  12.182  42.636   9.536
 1278POPC   PO418456  11.706  42.152   9.488
 1278POPC   GL118457  11.913  42.321   9.170
 1278POPC   GL218458  12.222  42.218   9.241
 1278POPC   C1A18459  11.825  42.477   8.784
 1278POPC   D2A18460  11.728  42.641   8.382
 1278POPC   C3A18461  12.063  42.592   8.150
 1278POPC   C4A18462  11.809  42.426   7.872
 1278POPC   C1B18463  12.335  42.441   8.869
 1278POPC   C2B18464  12.403  42.272   8.479
 1278POPC   C3B18465  12.528  42.323   8.085
 1278POPC   C4B18466  12.343  42.466   7.719
 1279POPC   NC318467  11.167   4.018   9.600
 1279POPC   PO418468  11.538   3.380   9.545
 1279POPC   GL118469  11.587   3.535   9.081
 1279POPC   GL218470  11.276   3.558   9.007
 1279POPC   C1A18471  11.555   3.453   8.604
 1279POPC   D2A18472  11.344   3.272   8.257
 1279POPC   C3A18473  11.283   3.513   7.868
 1279POPC   C4A18474  11.383   3.583   7.429
 1279POPC   C1B18475  11.237   3.829   8.651
 1279POPC   C2B18476  11.331   3.969   8.256
 1279POPC   C3B18477  10.983   3.912   8.017
 1279POPC   C4B18478  10.872   3.826   7.603
 1280POPC   NC318479  36.390  39.444   9.419
 1280POPC   PO418480  36.289  38.783   9.445
 1280POPC   GL118481  36.310  39.046   9.073
 1280POPC   GL218482  36.012  39.249   9.107
 1280POPC   C1A18483  36.518  39.332   8.745
 1280POPC   D2A18484  36.399  39.604   8.372
 1280POPC   C3A18485  36.502  39.435   7.927
 1280POPC   C4A18486  36.354  39.413   7.458
 1280POPC   C1B18487  35.998  39.486   8.723
 1280POPC   C2B18488  35.862  39.716   8.348
 1280POPC   C3B18489  35.710  39.582   7.969
 1280POPC   C4B18490  35.802  39.520   7.518
 1281POPC   NC318491  44.813   5.765   9.507
 1281POPC   PO418492  44.322   6.247   9.453
 1281POPC   GL118493  44.599   6.019   9.108
 1281POPC   GL218494  44.653   5.646   9.049
 1281POPC   C1A18495  44.602   5.929   8.664
 1281POPC   D2A18496  44.393   5.780   8.330
 1281POPC   C3A18497  44.471   6.035   7.994
 1281POPC   C4A18498  44.464   5.807   7.653
 1281POPC   C1B18499  44.937   5.522   8.758
 1281POPC   C2B18500  44.935   5.703   8.354
 1281POPC   C3B18501  44.759   5.591   8.000
 1281POPC   C4B18502  44.913   5.510   7.564
 1282POPC   NC318503  25.804  41.918   9.854
 1282POPC   PO418504  25.937  41.403   9.413
 1282POPC   GL118505  25.950  41.605   9.067
 1282POPC   GL218506  26.115  41.917   9.129
 1282POPC   C1A18507  25.969  41.368   8.702
 1282POPC   D2A18508  26.078  41.412   8.288
 1282POPC   C3A18509  25.730  41.398   8.042
 1282POPC   C4A18510  25.936  41.319   7.656
 1282POPC   C1B18511  26.183  41.856   8.666
 1282POPC   C2B18512  26.035  41.945   8.266
 1282POPC   C3B18513  26.043  41.759   7.867
 1282POPC   C4B18514  26.008  41.815   7.398
 1283POPC   NC318515  38.274  34.036   9.624
 1283POPC   PO418516  38.379  33.424   9.346
 1283POPC   GL118517  38.526  33.821   9.218
 1283POPC   GL218518  38.236  34.038   9.105
 1283POPC   C1A18519  38.628  33.885   8.801
 1283POPC   D2A18520  38.459  33.983   8.414
 1283POPC   C3A18521  38.590  33.799   8.012
 1283POPC   C4A18522  38.660  33.593   7.615
 1283POPC   C1B18523  38.137  33.717   8.769
 1283POPC   C2B18524  38.080  33.659   8.303
 1283POPC   C3B18525  38.110  34.039   8.053
 1283POPC   C4B18526  38.320  34.061   7.654
 1284POPC   NC318527  44.888  38.599   9.626
 1284POPC   PO418528  44.457  38.143   9.601
 1284POPC   GL118529  44.710  38.297   9.247
 1284POPC   GL218530  44.394  38.453   9.138
 1284POPC   C1A18531  44.822  38.425   8.816
 1284POPC   D2A18532  44.653  38.529   8.394
 1284POPC   C3A18533  44.766  38.463   7.927
 1284POPC   C4A18534  44.801  38.459   7.439
 1284POPC   C1B18535  44.380  38.152   8.806
 1284POPC   C2B18536  44.312  38.157   8.375
 1284POPC   C3B18537  44.439  38.082   7.972
 1284POPC   C4B18538  44.375  38.220   7.564
 1285POPC   NC318539  15.003   2.549   9.496
 1285POPC   PO418540  15.498   3.017   9.446
 1285POPC   GL118541  15.384   2.681   9.169
 1285POPC   GL218542  15.042   2.738   9.032
 1285POPC   C1A18543  15.430   2.471   8.812
 1285POPC   D2A18544  15.251   2.676   8.494
 1285POPC   C3A18545  15.318   2.626   8.043
 1285POPC   C4A18546  15.664   2.734   7.757
 1285POPC   C1B18547  14.832   2.942   8.695
 1285POPC   C2B18548  14.902   2.909   8.223
 1285POPC   C3B18549  14.818   3.056   7.821
 1285POPC   C4B18550  14.841   2.663   7.643
 1286POPC   NC318551  15.199  21.568   9.524
 1286POPC   PO418552  14.943  20.879   9.454
 1286POPC   GL118553  15.045  21.214   9.180
 1286POPC   GL218554  15.421  21.252   9.157
 1286POPC   C1A18555  15.062  21.322   8.738
 1286POPC   D2A18556  14.901  21.327   8.308
 1286POPC   C3A18557  15.146  21.557   7.960
 1286POPC   C4A18558  15.233  21.336   7.574
 1286POPC   C1B18559  15.550  21.472   8.810
 1286POPC   C2B18560  15.435  21.413   8.370
 1286POPC   C3B18561  15.578  21.275   7.965
 1286POPC   C4B18562  15.681  21.572   7.609
 1287POPC   NC318563  11.843  25.962   9.526
 1287POPC   PO418564  12.227  26.501   9.572
 1287POPC   GL118565  12.151  26.238   9.196
 1287POPC   GL218566  12.104  25.863   9.088
 1287POPC   C1A18567  12.169  26.277   8.767
 1287POPC   D2A18568  11.994  26.382   8.397
 1287POPC   C3A18569  12.219  26.237   8.099
 1287POPC   C4A18570  12.111  26.107   7.707
 1287POPC   C1B18571  11.794  25.935   8.718
 1287POPC   C2B18572  11.817  25.914   8.249
 1287POPC   C3B18573  11.606  26.013   7.848
 1287POPC   C4B18574  11.693  26.015   7.365
 1288POPC   NC318575  10.760  35.617   9.488
 1288POPC   PO418576  10.472  36.303   9.624
 1288POPC   GL118577  10.530  36.322   9.198
 1288POPC   GL218578  10.708  36.009   9.151
 1288POPC   C1A18579  10.365  36.297   8.774
 1288POPC   D2A18580  10.387  36.082   8.350
 1288POPC   C3A18581  10.249  36.347   8.017
 1288POPC   C4A18582  10.387  36.352   7.584
 1288POPC   C1B18583  10.739  35.967   8.712
 1288POPC   C2B18584  10.884  36.252   8.411
 1288POPC   C3B18585  10.759  36.287   7.977
 1288POPC   C4B18586  10.839  36.098   7.605
 1289POPC   NC318587  25.762   5.617   9.399
 1289POPC   PO418588  26.291   5.913   9.585
 1289POPC   GL118589  26.140   5.858   9.166
 1289POPC   GL218590  26.203   5.518   9.169
 1289POPC   C1A18591  25.814   6.020   8.843
 1289POPC   D2A18592  25.651   6.099   8.401
 1289POPC   C3A18593  25.892   5.978   8.070
 1289POPC   C4A18594  25.828   5.908   7.677
 1289POPC   C1B18595  25.988   5.502   8.818
 1289POPC   C2B18596  26.005   5.706   8.480
 1289POPC   C3B18597  26.112   5.525   8.108
 1289POPC   C4B18598  26.403   5.652   7.842
 1290POPC   NC318599  23.886   3.138   9.654
 1290POPC   PO418600  23.987   3.767   9.532
 1290POPC   GL118601  23.760   3.672   9.170
 1290POPC   GL218602  23.793   3.309   9.177
 1290POPC   C1A18603  23.548   3.781   8.785
 1290POPC   D2A18604  23.452   3.556   8.403
 1290POPC   C3A18605  23.635   3.713   8.027
 1290POPC   C4A18606  23.419   4.000   7.772
 1290POPC   C1B18607  23.708   3.278   8.755
 1290POPC   C2B18608  23.943   3.264   8.341
 1290POPC   C3B18609  23.898   3.298   7.878
 1290POPC   C4B18610  23.451   3.313   7.748
 1291POPC   NC318611  35.693  40.167   9.511
 1291POPC   PO418612  35.184  39.644   9.430
 1291POPC   GL118613  35.449  39.874   9.159
 1291POPC   GL218614  35.343  40.196   9.118
 1291POPC   C1A18615  35.575  39.807   8.756
 1291POPC   D2A18616  35.318  39.729   8.400
 1291POPC   C3A18617  35.288  39.912   8.011
 1291POPC   C4A18618  35.579  39.984   7.681
 1291POPC   C1B18619  35.150  40.099   8.731
 1291POPC   C2B18620  35.058  40.293   8.366
 1291POPC   C3B18621  34.890  40.218   7.980
 1291POPC   C4B18622  35.122  40.254   7.609
 1292POPC   NC318623  37.800  15.507   9.682
 1292POPC   PO418624  37.323  15.940   9.654
 1292POPC   GL118625  37.699  15.839   9.321
 1292POPC   GL218626  37.854  16.090   9.238
 1292POPC   C1A18627  37.966  15.696   8.933
 1292POPC   D2A18628  38.116  15.727   8.458
 1292POPC   C3A18629  37.879  15.885   8.076
 1292POPC   C4A18630  37.461  15.979   7.865
 1292POPC   C1B18631  38.120  16.259   8.901
 1292POPC   C2B18632  38.048  16.441   8.475
 1292POPC   C3B18633  37.899  16.440   8.043
 1292POPC   C4B18634  37.841  16.222   7.635
 1293POPC   NC318635  35.613  39.432   9.375
 1293POPC   PO418636  35.687  38.805   9.223
 1293POPC   GL118637  35.324  39.078   9.117
 1293POPC   GL218638  34.947  39.074   9.049
 1293POPC   C1A18639  35.333  39.345   8.769
 1293POPC   D2A18640  35.459  39.234   8.356
 1293POPC   C3A18641  35.180  39.372   8.049
 1293POPC   C4A18642  35.306  39.529   7.665
 1293POPC   C1B18643  35.013  38.964   8.591
 1293POPC   C2B18644  35.257  38.723   8.276
 1293POPC   C3B18645  35.407  38.920   7.917
 1293POPC   C4B18646  35.108  39.051   7.635
 1294POPC   NC318647   7.801   7.666   9.422
 1294POPC   PO418648   7.541   8.301   9.493
 1294POPC   GL118649   7.424   8.222   9.081
 1294POPC   GL218650   7.429   7.894   9.073
 1294POPC   C1A18651   7.376   8.300   8.681
 1294POPC   D2A18652   7.360   8.133   8.314
 1294POPC   C3A18653   7.406   8.442   8.054
 1294POPC   C4A18654   7.455   8.592   7.696
 1294POPC   C1B18655   7.712   7.896   8.714
 1294POPC   C2B18656   7.679   7.721   8.323
 1294POPC   C3B18657   7.560   7.876   7.921
 1294POPC   C4B18658   7.774   8.187   7.737
 1295POPC   NC318659   3.941   4.526   9.334
 1295POPC   PO418660   4.542   4.711   9.509
 1295POPC   GL118661   4.384   4.592   9.071
 1295POPC   GL218662   4.255   4.271   9.010
 1295POPC   C1A18663   4.367   4.517   8.582
 1295POPC   D2A18664   4.701   4.293   8.315
 1295POPC   C3A18665   4.582   4.406   7.909
 1295POPC   C4A18666   4.168   4.573   7.906
 1295POPC   C1B18667   4.362   4.012   8.602
 1295POPC   C2B18668   4.275   4.055   8.127
 1295POPC   C3B18669   4.160   4.054   7.651
 1295POPC   C4B18670   4.196   4.007   7.156
 1296POPC   NC318671  40.405  34.097   9.391
 1296POPC   PO418672  39.702  34.099   9.540
 1296POPC   GL118673  39.943  33.824   9.203
 1296POPC   GL218674  40.239  33.637   9.222
 1296POPC   C1A18675  40.136  33.858   8.761
 1296POPC   D2A18676  39.953  33.950   8.324
 1296POPC   C3A18677  40.179  33.984   7.909
 1296POPC   C4A18678  40.207  33.738   7.506
 1296POPC   C1B18679  40.380  33.403   8.862
 1296POPC   C2B18680  40.115  33.395   8.498
 1296POPC   C3B18681  40.030  33.508   8.088
 1296POPC   C4B18682  40.282  33.357   7.817
 1297POPC   NC318683  32.717  32.228   9.400
 1297POPC   PO418684  33.266  32.186   9.729
 1297POPC   GL118685  33.217  32.191   9.243
 1297POPC   GL218686  32.960  31.892   9.119
 1297POPC   C1A18687  33.061  32.441   8.878
 1297POPC   D2A18688  32.763  32.413   8.547
 1297POPC   C3A18689  32.753  32.530   8.143
 1297POPC   C4A18690  32.958  32.329   7.805
 1297POPC   C1B18691  33.047  31.954   8.694
 1297POPC   C2B18692  33.077  32.091   8.275
 1297POPC   C3B18693  33.295  31.838   7.968
 1297POPC   C4B18694  33.346  31.838   7.553
 1298POPC   NC318695  41.774  33.199   9.482
 1298POPC   PO418696  41.550  32.579   9.542
 1298POPC   GL118697  41.576  32.842   9.161
 1298POPC   GL218698  41.423  33.204   9.121
 1298POPC   C1A18699  41.816  32.976   8.806
 1298POPC   D2A18700  41.838  33.130   8.378
 1298POPC   C3A18701  41.508  32.969   8.098
 1298POPC   C4A18702  41.668  32.928   7.661
 1298POPC   C1B18703  41.486  33.375   8.697
 1298POPC   C2B18704  41.503  33.517   8.261
 1298POPC   C3B18705  41.476  33.406   7.819
 1298POPC   C4B18706  41.121  33.454   7.563
 1299POPC   NC318707  11.949  32.741   9.123
 1299POPC   PO418708  11.817  33.326   9.463
 1299POPC   GL118709  12.104  33.244   9.097
 1299POPC   GL218710  11.921  33.474   8.930
 1299POPC   C1A18711  12.308  33.067   8.687
 1299POPC   D2A18712  12.428  32.875   8.263
 1299POPC   C3A18713  12.153  33.045   7.957
 1299POPC   C4A18714  12.021  33.437   7.805
 1299POPC   C1B18715  11.794  33.206   8.645
 1299POPC   C2B18716  11.735  33.113   8.254
 1299POPC   C3B18717  11.524  33.064   7.917
 1299POPC   C4B18718  11.762  33.050   7.577
 1300POPC   NC318719  19.850  15.624   9.562
 1300POPC   PO418720  19.895  14.951   9.497
 1300POPC   GL118721  19.854  15.245   9.160
 1300POPC   GL218722  19.607  15.447   9.143
 1300POPC   C1A18723  19.837  15.118   8.712
 1300POPC   D2A18724  19.706  15.129   8.266
 1300POPC   C3A18725  20.026  15.024   7.932
 1300POPC   C4A18726  19.905  14.936   7.489
 1300POPC   C1B18727  19.514  15.644   8.773
 1300POPC   C2B18728  19.335  15.630   8.373
 1300POPC   C3B18729  19.610  15.612   8.033
 1300POPC   C4B18730  19.689  15.319   7.737
 1301POPC   NC318731   9.898  17.052   9.694
 1301POPC   PO418732   9.594  16.501   9.497
 1301POPC   GL118733   9.905  16.731   9.266
 1301POPC   GL218734   9.638  16.747   9.019
 1301POPC   C1A18735  10.094  16.800   8.853
 1301POPC   D2A18736   9.834  16.791   8.499
 1301POPC   C3A18737   9.976  16.650   8.110
 1301POPC   C4A18738   9.811  16.701   7.723
 1301POPC   C1B18739   9.434  16.521   8.717
 1301POPC   C2B18740   9.628  16.309   8.402
 1301POPC   C3B18741   9.541  16.368   7.998
 1301POPC   C4B18742   9.417  16.382   7.577
 1302POPC   NC318743   7.376  22.605   9.482
 1302POPC   PO418744   7.619  21.946   9.592
 1302POPC   GL118745   7.447  21.955   9.180
 1302POPC   GL218746   7.628  22.297   9.160
 1302POPC   C1A18747   7.056  21.988   8.873
 1302POPC   D2A18748   7.009  22.290   8.511
 1302POPC   C3A18749   7.071  22.221   8.068
 1302POPC   C4A18750   7.322  22.321   7.709
 1302POPC   C1B18751   7.455  22.279   8.769
 1302POPC   C2B18752   7.477  22.096   8.370
 1302POPC   C3B18753   7.621  21.990   7.982
 1302POPC   C4B18754   7.888  21.967   7.626
 1303POPC   NC318755   0.848  20.385   9.727
 1303POPC   PO418756   1.397  20.645   9.461
 1303POPC   GL118757   1.262  20.667   9.076
 1303POPC   GL218758   1.605  20.682   8.968
 1303POPC   C1A18759   1.161  20.364   8.770
 1303POPC   D2A18760   1.115  20.262   8.366
 1303POPC   C3A18761   1.272  20.594   8.107
 1303POPC   C4A18762   1.123  20.742   7.708
 1303POPC   C1B18763   1.363  20.855   8.597
 1303POPC   C2B18764   1.210  21.089   8.208
 1303POPC   C3B18765   1.524  21.029   7.881
 1303POPC   C4B18766   1.517  21.010   7.429
 1304POPC   NC318767  41.563   1.509   9.489
 1304POPC   PO418768  41.363   2.142   9.450
 1304POPC   GL118769  41.584   1.935   9.149
 1304POPC   GL218770  41.845   2.173   9.151
 1304POPC   C1A18771  41.404   1.915   8.763
 1304POPC   D2A18772  41.310   2.247   8.486
 1304POPC   C3A18773  41.204   2.183   8.096
 1304POPC   C4A18774  41.318   1.934   7.761
 1304POPC   C1B18775  41.751   2.306   8.752
 1304POPC   C2B18776  41.856   2.258   8.356
 1304POPC   C3B18777  41.733   2.135   7.964
 1304POPC   C4B18778  41.673   2.215   7.517
 1305POPC   NC318779  19.823  41.778   9.510
 1305POPC   PO418780  19.660  41.142   9.622
 1305POPC   GL118781  19.614  41.396   9.205
 1305POPC   GL218782  19.498  41.763   9.130
 1305POPC   C1A18783  19.895  41.524   8.832
 1305POPC   D2A18784  20.085  41.440   8.395
 1305POPC   C3A18785  19.943  41.639   7.989
 1305POPC   C4A18786  20.036  41.556   7.540
 1305POPC   C1B18787  19.598  41.913   8.729
 1305POPC   C2B18788  19.575  41.622   8.387
 1305POPC   C3B18789  19.409  41.694   7.997
 1305POPC   C4B18790  19.580  41.777   7.586
 1306POPC   NC318791  24.170  17.942   9.523
 1306POPC   PO418792  24.618  18.529   9.420
 1306POPC   GL118793  24.377  18.336   9.127
 1306POPC   GL218794  24.168  18.597   9.034
 1306POPC   C1A18795  24.477  18.122   8.743
 1306POPC   D2A18796  24.622  18.029   8.315
 1306POPC   C3A18797  24.409  18.043   7.895
 1306POPC   C4A18798  24.656  17.946   7.484
 1306POPC   C1B18799  24.298  18.578   8.597
 1306POPC   C2B18800  24.425  18.500   8.154
 1306POPC   C3B18801  24.231  18.641   7.753
 1306POPC   C4B18802  24.137  18.765   7.329
 1307POPC   NC318803   2.433  42.965   9.434
 1307POPC   PO418804   1.811  43.184   9.549
 1307POPC   GL118805   2.006  43.129   9.182
 1307POPC   GL218806   1.690  43.024   9.054
 1307POPC   C1A18807   2.144  42.944   8.839
 1307POPC   D2A18808   2.045  43.011   8.461
 1307POPC   C3A18809   2.335  43.144   8.136
 1307POPC   C4A18810   2.220  43.050   7.733
 1307POPC   C1B18811   1.580  42.749   8.712
 1307POPC   C2B18812   1.677  42.644   8.288
 1307POPC   C3B18813   1.813  42.986   8.021
 1307POPC   C4B18814   1.582  43.204   7.701
 1308POPC   NC318815  17.470  10.194   9.529
 1308POPC   PO418816  17.758  10.743   9.444
 1308POPC   GL118817  17.589  10.492   9.106
 1308POPC   GL218818  17.252  10.288   9.083
 1308POPC   C1A18819  17.719  10.444   8.682
 1308POPC   D2A18820  17.859  10.692   8.349
 1308POPC   C3A18821  17.618  10.661   8.029
 1308POPC   C4A18822  17.309  10.867   7.837
 1308POPC   C1B18823  17.222  10.583   8.758
 1308POPC   C2B18824  17.271  10.500   8.348
 1308POPC   C3B18825  17.187  10.390   7.929
 1308POPC   C4B18826  17.128  10.382   7.482
 1309POPC   NC318827   4.548  26.257   9.465
 1309POPC   PO418828   3.920  26.478   9.346
 1309POPC   GL118829   4.210  26.302   9.086
 1309POPC   GL218830   4.370  25.954   9.080
 1309POPC   C1A18831   4.200  26.275   8.702
 1309POPC   D2A18832   4.185  25.944   8.476
 1309POPC   C3A18833   4.296  26.062   8.053
 1309POPC   C4A18834   4.406  26.230   7.655
 1309POPC   C1B18835   4.637  25.758   8.737
 1309POPC   C2B18836   4.612  25.708   8.271
 1309POPC   C3B18837   4.602  25.735   7.799
 1309POPC   C4B18838   4.191  25.770   7.587
 1310POPC   NC318839  14.381  28.152   9.413
 1310POPC   PO418840  14.091  28.728   9.499
 1310POPC   GL118841  14.158  28.509   9.111
 1310POPC   GL218842  14.191  28.190   8.911
 1310POPC   C1A18843  14.202  28.659   8.712
 1310POPC   D2A18844  14.219  28.432   8.360
 1310POPC   C3A18845  14.273  28.628   7.983
 1310POPC   C4A18846  14.186  28.337   7.665
 1310POPC   C1B18847  14.601  28.338   8.723
 1310POPC   C2B18848  14.771  28.357   8.314
 1310POPC   C3B18849  14.551  28.196   7.990
 1310POPC   C4B18850  14.544  27.943   7.659
 1311POPC   NC318851  25.819  14.553   9.625
 1311POPC   PO418852  26.404  14.277   9.396
 1311POPC   GL118853  26.161  14.294   9.028
 1311POPC   GL218854  25.823  14.361   9.080
 1311POPC   C1A18855  26.086  14.564   8.675
 1311POPC   D2A18856  26.043  14.447   8.270
 1311POPC   C3A18857  26.023  14.764   7.995
 1311POPC   C4A18858  25.961  14.642   7.582
 1311POPC   C1B18859  25.583  14.490   8.646
 1311POPC   C2B18860  25.559  14.537   8.177
 1311POPC   C3B18861  25.790  14.238   7.848
 1311POPC   C4B18862  25.741  14.247   7.351
 1312POPC   NC318863  23.957  24.754   9.537
 1312POPC   PO418864  23.449  25.261   9.518
 1312POPC   GL118865  23.607  25.316   9.125
 1312POPC   GL218866  23.960  25.193   9.123
 1312POPC   C1A18867  23.749  25.419   8.702
 1312POPC   D2A18868  23.822  25.164   8.313
 1312POPC   C3A18869  23.742  25.355   7.923
 1312POPC   C4A18870  23.832  25.589   7.529
 1312POPC   C1B18871  24.044  24.940   8.720
 1312POPC   C2B18872  24.247  24.876   8.284
 1312POPC   C3B18873  24.043  24.919   7.853
 1312POPC   C4B18874  24.124  24.878   7.359
 1313POPC   NC318875  25.861  37.052   9.488
 1313POPC   PO418876  26.324  36.521   9.451
 1313POPC   GL118877  26.086  36.756   9.131
 1313POPC   GL218878  25.823  36.557   9.051
 1313POPC   C1A18879  26.057  37.017   8.728
 1313POPC   D2A18880  26.100  37.268   8.336
 1313POPC   C3A18881  25.894  37.076   8.013
 1313POPC   C4A18882  25.991  36.912   7.599
 1313POPC   C1B18883  26.123  36.492   8.702
 1313POPC   C2B18884  26.057  36.671   8.300
 1313POPC   C3B18885  25.806  36.546   7.923
 1313POPC   C4B18886  25.807  36.409   7.487
 1314POPC   NC318887  30.071  35.841   9.599
 1314POPC   PO418888  29.465  35.950   9.386
 1314POPC   GL118889  29.732  36.253   9.207
 1314POPC   GL218890  30.054  36.077   9.137
 1314POPC   C1A18891  29.723  36.475   8.823
 1314POPC   D2A18892  29.923  36.334   8.450
 1314POPC   C3A18893  29.761  36.325   8.049
 1314POPC   C4A18894  29.916  36.287   7.599
 1314POPC   C1B18895  30.146  35.935   8.721
 1314POPC   C2B18896  29.896  35.807   8.364
 1314POPC   C3B18897  29.893  35.805   7.931
 1314POPC   C4B18898  30.150  35.565   7.656
 1315POPC   NC318899  36.507   1.020   9.444
 1315POPC   PO418900  37.103   1.321   9.526
 1315POPC   GL118901  36.890   1.327   9.146
 1315POPC   GL218902  36.998   0.982   9.137
 1315POPC   C1A18903  36.656   1.193   8.781
 1315POPC   D2A18904  36.795   1.112   8.365
 1315POPC   C3A18905  36.787   1.337   7.984
 1315POPC   C4A18906  36.624   1.120   7.678
 1315POPC   C1B18907  36.996   0.786   8.737
 1315POPC   C2B18908  37.242   0.853   8.396
 1315POPC   C3B18909  37.169   0.971   8.010
 1315POPC   C4B18910  37.134   0.868   7.606
 1316POPC   NC318911  20.741  41.431   9.454
 1316POPC   PO418912  20.268  41.934   9.480
 1316POPC   GL118913  20.403  41.716   9.153
 1316POPC   GL218914  20.725  41.798   9.087
 1316POPC   C1A18915  20.435  41.527   8.768
 1316POPC   D2A18916  20.678  41.621   8.415
 1316POPC   C3A18917  20.601  41.307   8.122
 1316POPC   C4A18918  20.447  41.567   7.828
 1316POPC   C1B18919  20.946  41.459   8.814
 1316POPC   C2B18920  21.195  41.513   8.446
 1316POPC   C3B18921  21.044  41.590   8.046
 1316POPC   C4B18922  20.899  41.368   7.689
 1317POPC   NC318923  23.709  12.806   9.666
 1317POPC   PO418924  24.394  12.832   9.570
 1317POPC   GL118925  24.343  12.949   9.123
 1317POPC   GL218926  24.097  13.240   9.105
 1317POPC   C1A18927  24.454  12.763   8.707
 1317POPC   D2A18928  24.365  12.886   8.282
 1317POPC   C3A18929  24.637  12.803   7.948
 1317POPC   C4A18930  24.557  12.574   7.603
 1317POPC   C1B18931  24.070  13.105   8.666
 1317POPC   C2B18932  24.141  13.338   8.256
 1317POPC   C3B18933  23.955  13.249   7.856
 1317POPC   C4B18934  24.245  12.989   7.650
 1318POPC   NC318935  19.364   5.599   9.443
 1318POPC   PO418936  19.116   6.182   9.349
 1318POPC   GL118937  18.995   6.053   9.013
 1318POPC   GL218938  18.866   5.743   9.114
 1318POPC   C1A18939  18.892   5.996   8.610
 1318POPC   D2A18940  19.169   5.862   8.310
 1318POPC   C3A18941  19.186   6.178   8.004
 1318POPC   C4A18942  19.098   6.048   7.660
 1318POPC   C1B18943  19.103   5.559   8.771
 1318POPC   C2B18944  19.012   5.342   8.397
 1318POPC   C3B18945  18.996   5.501   7.963
 1318POPC   C4B18946  19.338   5.601   7.714
 1319POPC   NC318947  28.156  24.973   9.534
 1319POPC   PO418948  28.552  25.482   9.535
 1319POPC   GL118949  28.563  25.134   9.261
 1319POPC   GL218950  28.257  25.315   9.118
 1319POPC   C1A18951  28.524  24.993   8.834
 1319POPC   D2A18952  28.289  25.240   8.489
 1319POPC   C3A18953  28.333  25.036   8.048
 1319POPC   C4A18954  28.724  24.953   7.791
 1319POPC   C1B18955  28.638  25.484   8.882
 1319POPC   C2B18956  28.680  25.586   8.452
 1319POPC   C3B18957  28.430  25.538   8.073
 1319POPC   C4B18958  28.503  25.498   7.642
 1320POPC   NC318959  24.599  34.986   9.764
 1320POPC   PO418960  24.762  34.471   9.388
 1320POPC   GL118961  24.654  34.530   9.033
 1320POPC   GL218962  24.375  34.737   9.117
 1320POPC   C1A18963  24.659  34.570   8.629
 1320POPC   D2A18964  24.614  34.427   8.264
 1320POPC   C3A18965  24.833  34.561   7.941
 1320POPC   C4A18966  24.689  34.661   7.557
 1320POPC   C1B18967  24.166  34.431   8.909
 1320POPC   C2B18968  24.162  34.523   8.512
 1320POPC   C3B18969  24.049  34.462   8.128
 1320POPC   C4B18970  24.033  34.520   7.732
 1321POPC   NC318971  23.851   6.740   9.525
 1321POPC   PO418972  23.419   6.368   9.496
 1321POPC   GL118973  23.696   6.445   9.133
 1321POPC   GL218974  24.057   6.378   9.246
 1321POPC   C1A18975  23.756   6.533   8.649
 1321POPC   D2A18976  23.847   6.709   8.231
 1321POPC   C3A18977  23.587   6.680   7.858
 1321POPC   C4A18978  23.590   6.600   7.380
 1321POPC   C1B18979  24.152   6.315   8.844
 1321POPC   C2B18980  24.176   6.325   8.369
 1321POPC   C3B18981  24.029   6.344   7.939
 1321POPC   C4B18982  24.038   6.663   7.615
 1322POPC   NC318983  22.637  15.597   9.431
 1322POPC   PO418984  22.980  16.000   9.863
 1322POPC   GL118985  23.037  15.914   9.395
 1322POPC   GL218986  22.764  15.977   9.124
 1322POPC   C1A18987  23.189  15.768   8.980
 1322POPC   D2A18988  23.265  15.849   8.533
 1322POPC   C3A18989  23.111  15.758   8.109
 1322POPC   C4A18990  23.349  15.961   7.806
 1322POPC   C1B18991  22.777  15.871   8.686
 1322POPC   C2B18992  22.875  16.143   8.356
 1322POPC   C3B18993  22.800  16.163   7.923
 1322POPC   C4B18994  22.649  15.797   7.729
 1323POPC   NC318995  27.446   2.883   9.432
 1323POPC   PO418996  27.912   2.436   9.391
 1323POPC   GL118997  27.689   2.607   9.076
 1323POPC   GL218998  27.672   3.014   9.008
 1323POPC   C1A18999  27.388   2.662   8.779
 1323POPC   D2A19000  27.387   3.004   8.483
 1323POPC   C3A19001  27.429   2.817   8.097
 1323POPC   C4A19002  27.412   2.673   7.673
 1323POPC   C1B19003  27.866   2.807   8.654
 1323POPC   C2B19004  28.001   2.779   8.265
 1323POPC   C3B19005  27.860   2.968   7.874
 1323POPC   C4B19006  27.731   2.992   7.413
 1324POPC   NC319007  14.959  11.698   9.505
 1324POPC   PO419008  15.494  12.098   9.455
 1324POPC   GL119009  15.179  12.086   9.181
 1324POPC   GL219010  15.330  12.370   8.996
 1324POPC   C1A19011  14.886  11.901   8.854
 1324POPC   D2A19012  14.889  12.110   8.427
 1324POPC   C3A19013  14.882  11.969   8.015
 1324POPC   C4A19014  15.011  11.970   7.560
 1324POPC   C1B19015  15.344  12.032   8.708
 1324POPC   C2B19016  15.451  12.081   8.297
 1324POPC   C3B19017  15.359  12.096   7.901
 1324POPC   C4B19018  15.500  11.820   7.614
 1325POPC   NC319019   7.981   4.402   9.488
 1325POPC   PO419020   8.474   3.949   9.431
 1325POPC   GL119021   8.153   4.096   9.109
 1325POPC   GL219022   8.168   4.482   9.020
 1325POPC   C1A19023   7.905   4.149   8.728
 1325POPC   D2A19024   7.965   4.446   8.414
 1325POPC   C3A19025   7.924   4.258   8.045
 1325POPC   C4A19026   8.147   4.443   7.729
 1325POPC   C1B19027   8.399   4.278   8.685
 1325POPC   C2B19028   8.314   4.037   8.349
 1325POPC   C3B19029   8.482   4.169   7.990
 1325POPC   C4B19030   8.606   4.340   7.575
 1326POPC   NC319031  22.645   2.198   9.306
 1326POPC   PO419032  22.048   2.424   9.501
 1326POPC   GL119033  22.157   2.195   9.109
 1326POPC   GL219034  22.127   1.835   9.007
 1326POPC   C1A19035  22.385   2.149   8.705
 1326POPC   D2A19036  22.465   2.014   8.313
 1326POPC   C3A19037  22.319   2.272   7.966
 1326POPC   C4A19038  22.184   2.317   7.553
 1326POPC   C1B19039  22.323   1.625   8.644
 1326POPC   C2B19040  22.222   1.565   8.195
 1326POPC   C3B19041  22.246   1.706   7.766
 1326POPC   C4B19042  22.457   1.651   7.352
 1327POPC   NC319043  21.892  15.822   9.632
 1327POPC   PO419044  22.496  16.037   9.543
 1327POPC   GL119045  22.260  15.819   9.188
 1327POPC   GL219046  21.909  15.745   9.123
 1327POPC   C1A19047  22.253  15.855   8.741
 1327POPC   D2A19048  22.395  15.972   8.325
 1327POPC   C3A19049  22.194  15.795   7.973
 1327POPC   C4A19050  22.179  15.836   7.517
 1327POPC   C1B19051  21.672  15.519   8.807
 1327POPC   C2B19052  21.811  15.626   8.397
 1327POPC   C3B19053  21.687  15.802   7.992
 1327POPC   C4B19054  21.635  15.994   7.564
 1328POPC   NC319055   1.848   3.951   9.499
 1328POPC   PO419056   2.510   4.274   9.488
 1328POPC   GL119057   2.281   4.292   9.077
 1328POPC   GL219058   1.941   4.226   9.077
 1328POPC   C1A19059   2.160   4.407   8.663
 1328POPC   D2A19060   2.071   4.154   8.318
 1328POPC   C3A19061   2.149   4.398   7.955
 1328POPC   C4A19062   1.750   4.554   7.787
 1328POPC   C1B19063   1.721   4.060   8.728
 1328POPC   C2B19064   1.591   3.968   8.278
 1328POPC   C3B19065   1.817   4.025   7.868
 1328POPC   C4B19066   1.949   3.879   7.440
 1329POPC   NC319067  17.087   0.204   9.524
 1329POPC   PO419068  17.687   0.247   9.637
 1329POPC   GL119069  17.558   0.445   9.236
 1329POPC   GL219070  17.221   0.657   9.238
 1329POPC   C1A19071  17.731   0.385   8.811
 1329POPC   D2A19072  17.932   0.445   8.398
 1329POPC   C3A19073  17.728   0.338   8.012
 1329POPC   C4A19074  17.586   0.340   7.568
 1329POPC   C1B19075  17.180   0.386   8.865
 1329POPC   C2B19076  17.356   0.393   8.449
 1329POPC   C3B19077  17.238   0.518   8.055
 1329POPC   C4B19078  17.106   0.448   7.678
 1330POPC   NC319079   2.847  11.495   9.571
 1330POPC   PO419080   3.317  11.008   9.521
 1330POPC   GL119081   2.928  11.015   9.222
 1330POPC   GL219082   2.818  11.362   9.089
 1330POPC   C1A19083   2.679  10.968   8.818
 1330POPC   D2A19084   2.757  11.256   8.480
 1330POPC   C3A19085   2.818  11.182   8.047
 1330POPC   C4A19086   2.785  11.486   7.700
 1330POPC   C1B19087   2.576  11.640   8.800
 1330POPC   C2B19088   2.516  11.687   8.340
 1330POPC   C3B19089   2.381  11.419   8.023
 1330POPC   C4B19090   2.412  11.093   7.739
 1331POPC   NC319091  27.097   3.811   9.556
 1331POPC   PO419092  26.593   3.374   9.729
 1331POPC   GL119093  26.738   3.498   9.300
 1331POPC   GL219094  27.058   3.353   9.229
 1331POPC   C1A19095  26.871   3.736   8.889
 1331POPC   D2A19096  26.650   3.710   8.496
 1331POPC   C3A19097  26.789   3.628   8.083
 1331POPC   C4A19098  26.635   3.716   7.692
 1331POPC   C1B19099  26.801   3.240   8.865
 1331POPC   C2B19100  26.919   3.276   8.446
 1331POPC   C3B19101  27.073   3.189   8.060
 1331POPC   C4B19102  27.388   3.175   7.750
 1332POPC   NC319103  36.696  23.985   9.424
 1332POPC   PO419104  37.229  23.606   9.468
 1332POPC   GL119105  37.071  23.774   9.123
 1332POPC   GL219106  36.814  23.538   9.034
 1332POPC   C1A19107  37.239  23.738   8.722
 1332POPC   D2A19108  37.262  24.020   8.372
 1332POPC   C3A19109  37.080  23.818   7.971
 1332POPC   C4A19110  36.671  23.817   7.737
 1332POPC   C1B19111  36.795  23.481   8.600
 1332POPC   C2B19112  36.671  23.552   8.178
 1332POPC   C3B19113  36.567  23.278   7.830
 1332POPC   C4B19114  36.518  23.243   7.308
 1333POPC   NC319115   8.922   4.067   9.443
 1333POPC   PO419116   9.018   4.772   9.598
 1333POPC   GL119117   8.885   4.578   9.192
 1333POPC   GL219118   8.636   4.328   9.127
 1333POPC   C1A19119   9.000   4.405   8.780
 1333POPC   D2A19120   9.208   4.420   8.389
 1333POPC   C3A19121   8.979   4.407   8.019
 1333POPC   C4A19122   9.050   4.550   7.637
 1333POPC   C1B19123   8.772   3.956   8.824
 1333POPC   C2B19124   8.827   4.083   8.394
 1333POPC   C3B19125   8.883   3.887   7.992
 1333POPC   C4B19126   8.626   3.844   7.615
 1334POPC   NC319127  29.819  10.189   9.426
 1334POPC   PO419128  30.168   9.607   9.711
 1334POPC   GL119129  30.080   9.737   9.235
 1334POPC   GL219130  30.197   9.978   9.089
 1334POPC   C1A19131  29.880   9.517   8.814
 1334POPC   D2A19132  29.690   9.512   8.387
 1334POPC   C3A19133  29.876   9.679   8.010
 1334POPC   C4A19134  30.049  10.058   7.800
 1334POPC   C1B19135  30.354   9.650   8.767
 1334POPC   C2B19136  30.382   9.769   8.316
 1334POPC   C3B19137  30.466   9.742   7.866
 1334POPC   C4B19138  30.144   9.587   7.584
 1335POPC   NC319139  11.682   9.367   9.401
 1335POPC   PO419140  12.227   8.968   9.490
 1335POPC   GL119141  12.112   8.998   9.070
 1335POPC   GL219142  11.789   8.957   9.106
 1335POPC   C1A19143  12.167   9.054   8.624
 1335POPC   D2A19144  12.454   8.890   8.306
 1335POPC   C3A19145  12.361   8.890   7.864
 1335POPC   C4A19146  12.593   8.736   7.495
 1335POPC   C1B19147  11.833   8.648   8.775
 1335POPC   C2B19148  11.979   8.615   8.344
 1335POPC   C3B19149  11.861   8.719   7.918
 1335POPC   C4B19150  11.939   8.972   7.575
 1336POPC   NC319151  39.412  39.341   9.552
 1336POPC   PO419152  39.367  38.673   9.752
 1336POPC   GL119153  39.351  38.859   9.309
 1336POPC   GL219154  39.206  39.131   9.120
 1336POPC   C1A19155  39.515  38.836   8.859
 1336POPC   D2A19156  39.306  39.065   8.507
 1336POPC   C3A19157  39.097  38.867   8.143
 1336POPC   C4A19158  39.286  38.892   7.742
 1336POPC   C1B19159  39.291  39.476   8.860
 1336POPC   C2B19160  39.270  39.577   8.426
 1336POPC   C3B19161  39.285  39.340   8.057
 1336POPC   C4B19162  39.149  39.392   7.669
 1337POPC   NC319163   0.791  33.101   9.430
 1337POPC   PO419164   1.369  32.737   9.464
 1337POPC   GL119165   1.182  32.934   9.132
 1337POPC   GL219166   1.486  33.101   9.063
 1337POPC   C1A19167   0.895  32.879   8.766
 1337POPC   D2A19168   0.795  33.227   8.466
 1337POPC   C3A19169   0.872  33.179   8.008
 1337POPC   C4A19170   1.198  32.981   7.753
 1337POPC   C1B19171   1.412  32.938   8.672
 1337POPC   C2B19172   1.286  33.082   8.296
 1337POPC   C3B19173   1.499  33.313   8.006
 1337POPC   C4B19174   1.674  33.210   7.643
 1338POPC   NC319175  16.340   0.016   9.404
 1338POPC   PO419176  16.730   0.478   9.437
 1338POPC   GL119177  16.667   0.291   9.110
 1338POPC   GL219178  16.815  44.989   9.119
 1338POPC   C1A19179  16.668   0.387   8.720
 1338POPC   D2A19180  16.848   0.463   8.379
 1338POPC   C3A19181  16.593   0.503   8.052
 1338POPC   C4A19182  16.650   0.682   7.663
 1338POPC   C1B19183  16.526  44.900   8.766
 1338POPC   C2B19184  16.516   0.044   8.347
 1338POPC   C3B19185  16.855   0.065   8.045
 1338POPC   C4B19186  16.692   0.175   7.664
 1339POPC   NC319187  41.730  14.244   9.486
 1339POPC   PO419188  41.090  14.496   9.394
 1339POPC   GL119189  41.385  14.191   9.120
 1339POPC   GL219190  41.763  14.022   9.053
 1339POPC   C1A19191  41.557  14.437   8.774
 1339POPC   D2A19192  41.507  14.730   8.416
 1339POPC   C3A19193  41.702  14.600   8.034
 1339POPC   C4A19194  41.568  14.578   7.624
 1339POPC   C1B19195  42.009  14.225   8.766
 1339POPC   C2B19196  41.887  14.260   8.357
 1339POPC   C3B19197  41.966  14.100   7.950
 1339POPC   C4B19198  41.743  14.090   7.534
 1340POPC   NC319199  41.170   3.865   9.627
 1340POPC   PO419200  40.642   3.456   9.681
 1340POPC   GL119201  40.618   3.569   9.229
 1340POPC   GL219202  40.940   3.706   9.184
 1340POPC   C1A19203  40.623   3.434   8.787
 1340POPC   D2A19204  40.748   3.617   8.410
 1340POPC   C3A19205  40.792   3.386   8.039
 1340POPC   C4A19206  40.587   3.486   7.696
 1340POPC   C1B19207  41.106   4.013   8.888
 1340POPC   C2B19208  41.072   4.009   8.476
 1340POPC   C3B19209  40.824   4.038   8.117
 1340POPC   C4B19210  40.973   3.822   7.759
 1341POPC   NC319211  28.196   9.113   9.610
 1341POPC   PO419212  28.341   8.437   9.495
 1341POPC   GL119213  28.426   8.783   9.180
 1341POPC   GL219214  28.668   9.016   9.108
 1341POPC   C1A19215  28.259   8.861   8.740
 1341POPC   D2A19216  28.371   8.747   8.290
 1341POPC   C3A19217  28.339   8.969   7.877
 1341POPC   C4A19218  28.060   9.298   7.755
 1341POPC   C1B19219  28.612   9.248   8.695
 1341POPC   C2B19220  28.386   9.276   8.283
 1341POPC   C3B19221  28.557   9.446   7.882
 1341POPC   C4B19222  28.475   9.358   7.438
 1342POPC   NC319223  33.034  22.035   9.770
 1342POPC   PO419224  33.615  21.906   9.577
 1342POPC   GL119225  33.342  22.169   9.263
 1342POPC   GL219226  33.533  22.367   9.042
 1342POPC   C1A19227  33.046  22.277   8.882
 1342POPC   D2A19228  32.977  22.032   8.459
 1342POPC   C3A19229  32.938  22.072   7.964
 1342POPC   C4A19230  32.746  22.285   7.602
 1342POPC   C1B19231  33.457  22.240   8.600
 1342POPC   C2B19232  33.302  22.352   8.195
 1342POPC   C3B19233  33.429  22.206   7.792
 1342POPC   C4B19234  33.211  22.117   7.409
 1343POPC   NC319235  34.962  29.564   9.249
 1343POPC   PO419236  34.689  30.093   9.557
 1343POPC   GL119237  34.599  29.930   9.143
 1343POPC   GL219238  34.823  30.068   8.922
 1343POPC   C1A19239  34.515  29.722   8.736
 1343POPC   D2A19240  34.248  29.797   8.425
 1343POPC   C3A19241  34.399  29.737   8.004
 1343POPC   C4A19242  34.503  30.033   7.694
 1343POPC   C1B19243  35.064  29.805   8.659
 1343POPC   C2B19244  34.862  29.615   8.345
 1343POPC   C3B19245  34.882  29.887   8.027
 1343POPC   C4B19246  34.948  29.657   7.723
 1344POPC   NC319247  30.666  37.510   9.364
 1344POPC   PO419248  30.857  38.038   9.699
 1344POPC   GL119249  30.633  38.122   9.240
 1344POPC   GL219250  30.373  37.912   9.229
 1344POPC   C1A19251  30.601  37.984   8.776
 1344POPC   D2A19252  30.693  37.525   8.626
 1344POPC   C3A19253  30.673  37.487   8.188
 1344POPC   C4A19254  30.684  37.737   7.810
 1344POPC   C1B19255  30.233  37.653   8.851
 1344POPC   C2B19256  30.224  37.806   8.441
 1344POPC   C3B19257  30.204  37.671   8.034
 1344POPC   C4B19258  30.271  37.464   7.644
 1345POPC   NC319259  38.318  31.579   9.640
 1345POPC   PO419260  38.546  31.036   9.322
 1345POPC   GL119261  38.570  31.426   9.155
 1345POPC   GL219262  38.278  31.628   9.147
 1345POPC   C1A19263  38.593  31.640   8.763
 1345POPC   D2A19264  38.776  31.797   8.419
 1345POPC   C3A19265  38.534  31.654   8.064
 1345POPC   C4A19266  38.341  31.722   7.666
 1345POPC   C1B19267  38.104  31.462   8.797
 1345POPC   C2B19268  38.270  31.355   8.417
 1345POPC   C3B19269  38.052  31.489   8.061
 1345POPC   C4B19270  38.044  31.283   7.727
 1346POPC   NC319271   7.856   0.461   9.731
 1346POPC   PO419272   8.473   0.566   9.491
 1346POPC   GL119273   8.236   0.401   9.151
 1346POPC   GL219274   7.903   0.413   9.221
 1346POPC   C1A19275   8.320   0.431   8.759
 1346POPC   D2A19276   8.121   0.533   8.400
 1346POPC   C3A19277   8.330   0.423   8.044
 1346POPC   C4A19278   8.095   0.552   7.714
 1346POPC   C1B19279   7.856   0.241   8.797
 1346POPC   C2B19280   7.787   0.079   8.390
 1346POPC   C3B19281   7.821   0.235   7.978
 1346POPC   C4B19282   7.786   0.131   7.517
 1347POPC   NC319283  28.428  42.139   9.517
 1347POPC   PO419284  28.189  42.661   9.242
 1347POPC   GL119285  28.433  42.311   9.026
 1347POPC   GL219286  28.723  42.054   9.111
 1347POPC   C1A19287  28.366  42.390   8.606
 1347POPC   D2A19288  28.110  42.638   8.347
 1347POPC   C3A19289  28.099  42.316   8.061
 1347POPC   C4A19290  28.224  41.974   7.776
 1347POPC   C1B19291  28.663  41.974   8.690
 1347POPC   C2B19292  28.720  42.161   8.292
 1347POPC   C3B19293  28.720  41.998   7.903
 1347POPC   C4B19294  28.700  42.048   7.477
 1348POPC   NC319295  25.165  14.707   9.514
 1348POPC   PO419296  25.528  14.214   9.752
 1348POPC   GL119297  25.358  14.291   9.290
 1348POPC   GL219298  25.400  14.636   9.087
 1348POPC   C1A19299  25.254  14.151   8.861
 1348POPC   D2A19300  24.999  14.187   8.499
 1348POPC   C3A19301  25.151  14.230   8.069
 1348POPC   C4A19302  25.350  14.430   7.720
 1348POPC   C1B19303  25.049  14.640   8.775
 1348POPC   C2B19304  24.823  14.638   8.356
 1348POPC   C3B19305  25.052  14.740   8.009
 1348POPC   C4B19306  25.089  14.885   7.593
 1349POPC   NC319307   2.930  23.496   9.639
 1349POPC   PO419308   2.762  24.068   9.490
 1349POPC   GL119309   2.682  23.882   9.100
 1349POPC   GL219310   2.702  23.517   9.125
 1349POPC   C1A19311   2.842  23.812   8.712
 1349POPC   D2A19312   2.848  23.972   8.306
 1349POPC   C3A19313   2.469  23.923   8.050
 1349POPC   C4A19314   2.623  23.926   7.619
 1349POPC   C1B19315   2.421  23.515   8.770
 1349POPC   C2B19316   2.605  23.507   8.345
 1349POPC   C3B19317   2.794  23.518   7.917
 1349POPC   C4B19318   2.686  23.444   7.474
 1350POPC   NC319319  23.289  39.560   9.517
 1350POPC   PO419320  22.749  39.158   9.336
 1350POPC   GL119321  23.160  39.208   9.126
 1350POPC   GL219322  23.406  38.944   9.249
 1350POPC   C1A19323  22.998  39.161   8.708
 1350POPC   D2A19324  22.620  39.368   8.524
 1350POPC   C3A19325  22.695  39.526   8.114
 1350POPC   C4A19326  22.951  39.247   7.880
 1350POPC   C1B19327  23.215  38.734   8.897
 1350POPC   C2B19328  23.233  38.785   8.449
 1350POPC   C3B19329  23.137  38.767   8.019
 1350POPC   C4B19330  23.303  38.962   7.642
 1351POPC   NC319331  14.276  40.240   9.392
 1351POPC   PO419332  14.526  39.660   9.534
 1351POPC   GL119333  14.730  39.814   9.184
 1351POPC   GL219334  14.537  40.045   8.994
 1351POPC   C1A19335  14.835  39.717   8.754
 1351POPC   D2A19336  14.528  39.812   8.451
 1351POPC   C3A19337  14.638  39.985   8.027
 1351POPC   C4A19338  14.478  39.878   7.642
 1351POPC   C1B19339  14.132  40.062   8.760
 1351POPC   C2B19340  14.034  40.200   8.354
 1351POPC   C3B19341  14.132  40.107   7.947
 1351POPC   C4B19342  14.101  40.348   7.630
 1352POPC   NC319343   4.542  11.724   9.280
 1352POPC   PO419344   4.177  12.155   9.646
 1352POPC   GL119345   4.216  12.167   9.158
 1352POPC   GL219346   4.229  11.883   8.935
 1352POPC   C1A19347   4.059  12.273   8.698
 1352POPC   D2A19348   4.082  11.956   8.317
 1352POPC   C3A19349   4.028  12.117   7.897
 1352POPC   C4A19350   3.781  12.444   7.711
 1352POPC   C1B19351   4.550  12.090   8.696
 1352POPC   C2B19352   4.456  12.321   8.321
 1352POPC   C3B19353   4.567  12.141   7.939
 1352POPC   C4B19354   4.428  11.898   7.614
 1353POPC   NC319355  31.374   9.490   9.445
 1353POPC   PO419356  31.650  10.016   9.670
 1353POPC   GL119357  31.705  10.114   9.237
 1353POPC   GL219358  31.370   9.989   9.130
 1353POPC   C1A19359  31.755   9.889   8.821
 1353POPC   D2A19360  31.768   9.597   8.462
 1353POPC   C3A19361  31.662   9.773   8.066
 1353POPC   C4A19362  31.642   9.591   7.671
 1353POPC   C1B19363  31.304   9.678   8.751
 1353POPC   C2B19364  31.215   9.557   8.312
 1353POPC   C3B19365  31.178   9.724   7.875
 1353POPC   C4B19366  31.258   9.779   7.412
 1354POPC   NC319367  38.008  12.885   9.764
 1354POPC   PO419368  38.534  13.128   9.430
 1354POPC   GL119369  38.487  12.996   9.056
 1354POPC   GL219370  38.348  12.700   9.073
 1354POPC   C1A19371  38.613  12.868   8.671
 1354POPC   D2A19372  38.667  13.081   8.340
 1354POPC   C3A19373  38.548  12.850   8.019
 1354POPC   C4A19374  38.359  12.973   7.684
 1354POPC   C1B19375  38.243  12.455   8.667
 1354POPC   C2B19376  38.269  12.443   8.190
 1354POPC   C3B19377  38.112  12.515   7.759
 1354POPC   C4B19378  38.063  12.348   7.274
 1355POPC   NC319379   5.928  34.857   9.344
 1355POPC   PO419380   5.497  34.305   9.550
 1355POPC   GL119381   5.669  34.466   9.168
 1355POPC   GL219382   5.498  34.812   9.090
 1355POPC   C1A19383   5.913  34.359   8.771
 1355POPC   D2A19384   5.807  34.450   8.330
 1355POPC   C3A19385   6.047  34.562   7.964
 1355POPC   C4A19386   6.115  34.340   7.559
 1355POPC   C1B19387   5.649  34.800   8.706
 1355POPC   C2B19388   5.403  34.742   8.372
 1355POPC   C3B19389   5.579  34.834   7.988
 1355POPC   C4B19390   5.663  34.623   7.622
 1356POPC   NC319391  22.546  41.194   9.420
 1356POPC   PO419392  23.157  40.982   9.444
 1356POPC   GL119393  23.055  40.894   9.043
 1356POPC   GL219394  22.765  41.016   9.005
 1356POPC   C1A19395  23.025  40.699   8.649
 1356POPC   D2A19396  22.836  40.438   8.325
 1356POPC   C3A19397  23.045  40.493   7.950
 1356POPC   C4A19398  23.187  40.628   7.560
 1356POPC   C1B19399  22.843  41.164   8.587
 1356POPC   C2B19400  22.852  40.931   8.207
 1356POPC   C3B19401  22.844  40.967   7.776
 1356POPC   C4B19402  22.517  41.032   7.600
 1357POPC   NC319403  13.799  22.560   9.213
 1357POPC   PO419404  13.817  21.979   9.591
 1357POPC   GL119405  13.668  22.054   9.179
 1357POPC   GL219406  13.290  22.081   9.165
 1357POPC   C1A19407  13.777  21.888   8.791
 1357POPC   D2A19408  13.856  22.078   8.390
 1357POPC   C3A19409  13.675  21.974   8.001
 1357POPC   C4A19410  13.801  22.244   7.673
 1357POPC   C1B19411  13.367  22.168   8.708
 1357POPC   C2B19412  13.307  22.237   8.256
 1357POPC   C3B19413  13.296  22.318   7.786
 1357POPC   C4B19414  13.260  22.294   7.299
 1358POPC   NC319415  38.732   4.631   9.836
 1358POPC   PO419416  38.320   4.134   9.712
 1358POPC   GL119417  38.330   4.213   9.230
 1358POPC   GL219418  38.359   4.567   9.139
 1358POPC   C1A19419  38.426   4.188   8.803
 1358POPC   D2A19420  38.331   3.965   8.489
 1358POPC   C3A19421  38.531   4.081   8.139
 1358POPC   C4A19422  38.539   4.238   7.749
 1358POPC   C1B19423  38.190   4.619   8.692
 1358POPC   C2B19424  38.406   4.582   8.262
 1358POPC   C3B19425  38.368   4.753   7.833
 1358POPC   C4B19426  38.402   5.017   7.472
 1359POPC   NC319427  44.524   4.402   9.793
 1359POPC   PO419428  44.928   3.939   9.573
 1359POPC   GL119429  44.752   4.262   9.272
 1359POPC   GL219430  44.413   4.343   9.279
 1359POPC   C1A19431  44.789   4.451   8.845
 1359POPC   D2A19432  44.984   4.245   8.485
 1359POPC   C3A19433  44.715   4.248   8.136
 1359POPC   C4A19434  44.818   4.126   7.748
 1359POPC   C1B19435  44.374   4.125   8.889
 1359POPC   C2B19436  44.302   4.251   8.471
 1359POPC   C3B19437  44.221   4.068   8.090
 1359POPC   C4B19438  44.320   4.229   7.705
 1360POPC   NC319439  29.289   7.531   9.413
 1360POPC   PO419440  28.689   7.837   9.535
 1360POPC   GL119441  28.864   7.687   9.142
 1360POPC   GL219442  28.866   7.320   9.181
 1360POPC   C1A19443  29.098   7.534   8.756
 1360POPC   D2A19444  29.254   7.651   8.339
 1360POPC   C3A19445  29.196   7.376   8.014
 1360POPC   C4A19446  28.986   7.538   7.688
 1360POPC   C1B19447  28.899   7.019   8.850
 1360POPC   C2B19448  29.024   7.107   8.457
 1360POPC   C3B19449  28.945   6.916   8.118
 1360POPC   C4B19450  28.846   7.056   7.765
 1361POPC   NC319451  34.004  21.765   9.802
 1361POPC   PO419452  33.884  21.171   9.444
 1361POPC   GL119453  33.645  21.310   9.038
 1361POPC   GL219454  33.493  21.686   9.058
 1361POPC   C1A19455  33.900  21.415   8.682
 1361POPC   D2A19456  34.168  21.361   8.318
 1361POPC   C3A19457  33.990  21.554   7.950
 1361POPC   C4A19458  33.886  21.420   7.541
 1361POPC   C1B19459  33.467  21.721   8.591
 1361POPC   C2B19460  33.329  21.802   8.165
 1361POPC   C3B19461  33.483  21.687   7.768
 1361POPC   C4B19462  33.566  21.743   7.298
 1362POPC   NC319463  32.124   5.428   9.478
 1362POPC   PO419464  32.474   4.809   9.631
 1362POPC   GL119465  32.344   4.837   9.225
 1362POPC   GL219466  32.391   5.159   9.167
 1362POPC   C1A19467  32.168   4.853   8.820
 1362POPC   D2A19468  32.008   5.180   8.560
 1362POPC   C3A19469  32.124   5.135   8.141
 1362POPC   C4A19470  32.007   5.178   7.725
 1362POPC   C1B19471  32.503   5.264   8.777
 1362POPC   C2B19472  32.457   5.455   8.401
 1362POPC   C3B19473  32.655   5.384   8.049
 1362POPC   C4B19474  32.507   5.158   7.733
 1363POPC   NC319475  26.819   7.037   9.491
 1363POPC   PO419476  26.616   7.702   9.290
 1363POPC   GL119477  26.856   7.554   8.973
 1363POPC   GL219478  26.865   7.192   9.017
 1363POPC   C1A19479  26.696   7.504   8.576
 1363POPC   D2A19480  26.419   7.716   8.329
 1363POPC   C3A19481  26.605   7.638   7.957
 1363POPC   C4A19482  26.679   7.251   7.727
 1363POPC   C1B19483  26.588   7.049   8.733
 1363POPC   C2B19484  26.709   6.983   8.343
 1363POPC   C3B19485  27.025   7.034   8.064
 1363POPC   C4B19486  27.000   6.842   7.654
 1364POPC   NC319487  39.919  43.733   9.607
 1364POPC   PO419488  40.354  44.191   9.743
 1364POPC   GL119489  40.199  44.006   9.286
 1364POPC   GL219490  40.196  43.625   9.191
 1364POPC   C1A19491  40.192  44.058   8.792
 1364POPC   D2A19492  40.295  44.092   8.315
 1364POPC   C3A19493  40.130  44.262   7.902
 1364POPC   C4A19494  39.742  44.273   7.711
 1364POPC   C1B19495  39.827  43.742   8.937
 1364POPC   C2B19496  39.805  43.816   8.480
 1364POPC   C3B19497  39.707  43.837   8.020
 1364POPC   C4B19498  39.978  43.786   7.643
 1365POPC   NC319499  18.968  10.871   9.352
 1365POPC   PO419500  19.241  10.259   9.573
 1365POPC   GL119501  18.993  10.373   9.245
 1365POPC   GL219502  18.633  10.457   9.343
 1365POPC   C1A19503  19.127  10.509   8.816
 1365POPC   D2A19504  19.314  10.262   8.498
 1365POPC   C3A19505  19.243  10.283   8.066
 1365POPC   C4A19506  19.399  10.471   7.700
 1365POPC   C1B19507  18.619  10.397   8.909
 1365POPC   C2B19508  18.756  10.302   8.495
 1365POPC   C3B19509  18.729  10.318   8.056
 1365POPC   C4B19510  18.906  10.506   7.718
 1366POPC   NC319511  26.259  39.368   9.466
 1366POPC   PO419512  25.640  39.158   9.424
 1366POPC   GL119513  25.908  39.160   9.116
 1366POPC   GL219514  26.011  39.505   9.049
 1366POPC   C1A19515  26.025  38.865   8.807
 1366POPC   D2A19516  26.277  39.055   8.526
 1366POPC   C3A19517  26.091  39.102   8.135
 1366POPC   C4A19518  25.940  39.000   7.743
 1366POPC   C1B19519  25.896  39.387   8.633
 1366POPC   C2B19520  25.981  39.592   8.237
 1366POPC   C3B19521  26.028  39.529   7.778
 1366POPC   C4B19522  25.899  39.786   7.418
 1367POPC   NC319523  15.416  12.568   9.461
 1367POPC   PO419524  14.754  12.667   9.549
 1367POPC   GL119525  15.018  12.752   9.196
 1367POPC   GL219526  15.155  13.058   9.211
 1367POPC   C1A19527  15.125  12.798   8.767
 1367POPC   D2A19528  15.219  12.499   8.489
 1367POPC   C3A19529  15.082  12.486   8.084
 1367POPC   C4A19530  15.230  12.566   7.641
 1367POPC   C1B19531  15.407  13.206   8.840
 1367POPC   C2B19532  15.481  12.997   8.433
 1367POPC   C3B19533  15.265  12.963   8.033
 1367POPC   C4B19534  15.260  13.127   7.614
 1368POPC   NC319535  12.733  26.384   9.701
 1368POPC   PO419536  12.620  25.818   9.379
 1368POPC   GL119537  12.877  26.066   9.100
 1368POPC   GL219538  12.680  26.288   8.881
 1368POPC   C1A19539  13.053  26.015   8.703
 1368POPC   D2A19540  12.884  26.261   8.364
 1368POPC   C3A19541  13.018  26.100   7.974
 1368POPC   C4A19542  12.891  25.932   7.563
 1368POPC   C1B19543  12.525  25.884   8.714
 1368POPC   C2B19544  12.348  25.775   8.310
 1368POPC   C3B19545  12.533  25.874   7.923
 1368POPC   C4B19546  12.593  26.295   7.750
 1369POPC   NC319547   1.680   9.224   9.375
 1369POPC   PO419548   2.174   8.871   9.489
 1369POPC   GL119549   1.952   8.855   9.104
 1369POPC   GL219550   1.628   8.652   9.117
 1369POPC   C1A19551   1.915   9.148   8.729
 1369POPC   D2A19552   1.905   9.195   8.273
 1369POPC   C3A19553   2.287   9.287   8.030
 1369POPC   C4A19554   2.083   9.162   7.653
 1369POPC   C1B19555   1.796   8.646   8.681
 1369POPC   C2B19556   2.143   8.756   8.423
 1369POPC   C3B19557   2.193   8.795   7.981
 1369POPC   C4B19558   1.802   8.717   7.724
 1370POPC   NC319559  24.213  18.822   9.479
 1370POPC   PO419560  24.737  19.311   9.413
 1370POPC   GL119561  24.487  19.064   9.123
 1370POPC   GL219562  24.629  18.807   8.992
 1370POPC   C1A19563  24.299  19.115   8.712
 1370POPC   D2A19564  24.287  18.979   8.287
 1370POPC   C3A19565  24.593  18.960   7.951
 1370POPC   C4A19566  24.340  19.136   7.671
 1370POPC   C1B19567  24.792  18.592   8.690
 1370POPC   C2B19568  24.880  18.740   8.321
 1370POPC   C3B19569  24.905  18.520   7.945
 1370POPC   C4B19570  24.667  18.446   7.608
 1371POPC   NC319571  39.909  30.417   9.747
 1371POPC   PO419572  39.558  30.893   9.387
 1371POPC   GL119573  39.898  30.670   9.140
 1371POPC   GL219574  39.943  30.324   9.252
 1371POPC   C1A19575  39.984  30.837   8.738
 1371POPC   D2A19576  40.008  30.847   8.286
 1371POPC   C3A19577  40.352  30.748   8.006
 1371POPC   C4A19578  40.303  30.939   7.602
 1371POPC   C1B19579  40.143  30.288   8.862
 1371POPC   C2B19580  40.068  30.351   8.454
 1371POPC   C3B19581  39.967  30.368   8.033
 1371POPC   C4B19582  39.869  30.749   7.792
 1372POPC   NC319583  35.366   5.259   9.382
 1372POPC   PO419584  34.847   5.074   9.540
 1372POPC   GL119585  35.053   4.928   9.141
 1372POPC   GL219586  35.448   4.849   9.128
 1372POPC   C1A19587  35.234   5.119   8.746
 1372POPC   D2A19588  35.202   5.212   8.324
 1372POPC   C3A19589  35.503   5.290   8.012
 1372POPC   C4A19590  35.378   5.359   7.584
 1372POPC   C1B19591  35.314   4.602   8.842
 1372POPC   C2B19592  35.179   4.681   8.461
 1372POPC   C3B19593  35.368   4.768   8.095
 1372POPC   C4B19594  35.343   4.632   7.689
 1373POPC   NC319595  16.352  42.622   9.558
 1373POPC   PO419596  15.699  42.727   9.692
 1373POPC   GL119597  15.876  42.552   9.294
 1373POPC   GL219598  15.913  42.202   9.210
 1373POPC   C1A19599  15.836  42.533   8.841
 1373POPC   D2A19600  15.791  42.456   8.412
 1373POPC   C3A19601  15.553  42.679   8.102
 1373POPC   C4A19602  15.693  42.587   7.653
 1373POPC   C1B19603  16.276  42.270   8.948
 1373POPC   C2B19604  16.352  42.340   8.497
 1373POPC   C3B19605  16.449  42.221   8.052
 1373POPC   C4B19606  16.237  42.429   7.770
 1374POPC   NC319607  25.476  44.444   9.461
 1374POPC   PO419608  25.207  43.804   9.528
 1374POPC   GL119609  25.322  43.929   9.143
 1374POPC   GL219610  25.619  44.053   9.153
 1374POPC   C1A19611  25.130  43.896   8.750
 1374POPC   D2A19612  24.933  43.843   8.374
 1374POPC   C3A19613  25.201  43.981   8.056
 1374POPC   C4A19614  25.077  43.833   7.654
 1374POPC   C1B19615  25.685  43.831   8.783
 1374POPC   C2B19616  25.668  43.977   8.358
 1374POPC   C3B19617  25.657  43.766   7.976
 1374POPC   C4B19618  25.562  43.964   7.629
 1375POPC   NC319619  35.029   3.349   9.523
 1375POPC   PO419620  35.618   3.826   9.511
 1375POPC   GL119621  35.354   3.703   9.160
 1375POPC   GL219622  35.189   3.403   9.028
 1375POPC   C1A19623  35.500   3.686   8.703
 1375POPC   D2A19624  35.214   3.498   8.373
 1375POPC   C3A19625  35.269   3.486   7.917
 1375POPC   C4A19626  35.280   3.332   7.465
 1375POPC   C1B19627  35.008   3.773   8.798
 1375POPC   C2B19628  34.851   3.904   8.374
 1375POPC   C3B19629  34.903   3.837   7.923
 1375POPC   C4B19630  35.147   3.826   7.499
 1376POPC   NC319631   7.630   6.979   9.257
 1376POPC   PO419632   7.189   6.565   9.588
 1376POPC   GL119633   7.197   6.678   9.183
 1376POPC   GL219634   7.102   7.027   9.187
 1376POPC   C1A19635   7.419   6.479   8.816
 1376POPC   D2A19636   7.679   6.590   8.453
 1376POPC   C3A19637   7.476   6.638   8.057
 1376POPC   C4A19638   7.663   6.893   7.715
 1376POPC   C1B19639   7.112   6.915   8.735
 1376POPC   C2B19640   7.086   6.930   8.283
 1376POPC   C3B19641   7.170   7.000   7.851
 1376POPC   C4B19642   6.879   6.937   7.525
 1377POPC   NC319643  17.295  33.558   9.518
 1377POPC   PO419644  17.801  33.977   9.421
 1377POPC   GL119645  17.549  33.809   9.087
 1377POPC   GL219646  17.166  33.765   9.082
 1377POPC   C1A19647  17.745  33.665   8.707
 1377POPC   D2A19648  17.795  33.849   8.316
 1377POPC   C3A19649  17.652  33.588   7.981
 1377POPC   C4A19650  17.755  33.824   7.650
 1377POPC   C1B19651  17.253  33.768   8.656
 1377POPC   C2B19652  17.298  33.831   8.244
 1377POPC   C3B19653  17.335  33.995   7.856
 1377POPC   C4B19654  17.185  33.727   7.513
 1378POPC   NC319655  37.058   8.634   9.210
 1378POPC   PO419656  36.608   8.191   9.517
 1378POPC   GL119657  36.760   8.011   9.129
 1378POPC   GL219658  37.117   8.136   9.079
 1378POPC   C1A19659  36.607   8.121   8.705
 1378POPC   D2A19660  36.788   8.415   8.388
 1378POPC   C3A19661  36.727   8.262   7.946
 1378POPC   C4A19662  36.824   8.287   7.509
 1378POPC   C1B19663  37.246   8.337   8.655
 1378POPC   C2B19664  37.250   8.293   8.198
 1378POPC   C3B19665  37.269   8.243   7.772
 1378POPC   C4B19666  37.288   7.920   7.488
 1379POPC   NC319667   9.817  24.974   9.467
 1379POPC   PO419668  10.065  25.581   9.519
 1379POPC   GL119669   9.868  25.593   9.125
 1379POPC   GL219670   9.506  25.533   9.189
 1379POPC   C1A19671   9.980  25.447   8.696
 1379POPC   D2A19672  10.029  25.375   8.242
 1379POPC   C3A19673   9.763  25.071   8.003
 1379POPC   C4A19674   9.704  25.094   7.564
 1379POPC   C1B19675   9.444  25.567   8.740
 1379POPC   C2B19676   9.517  25.452   8.312
 1379POPC   C3B19677   9.671  25.563   7.900
 1379POPC   C4B19678   9.470  25.533   7.505
 1380POPC   NC319679  11.029  12.836   9.424
 1380POPC   PO419680  11.546  12.453   9.232
 1380POPC   GL119681  11.354  12.742   9.061
 1380POPC   GL219682  11.442  13.048   9.148
 1380POPC   C1A19683  11.143  12.779   8.732
 1380POPC   D2A19684  11.366  12.767   8.391
 1380POPC   C3A19685  11.172  12.795   8.022
 1380POPC   C4A19686  11.359  12.477   7.775
 1380POPC   C1B19687  11.569  13.111   8.721
 1380POPC   C2B19688  11.391  13.327   8.355
 1380POPC   C3B19689  11.262  13.304   7.943
 1380POPC   C4B19690  11.417  13.177   7.577
 1381POPC   NC319691  31.756   7.771   9.770
 1381POPC   PO419692  31.198   7.505   9.396
 1381POPC   GL119693  31.339   7.596   9.018
 1381POPC   GL219694  31.665   7.757   9.094
 1381POPC   C1A19695  31.236   7.506   8.616
 1381POPC   D2A19696  31.286   7.711   8.254
 1381POPC   C3A19697  31.223   7.427   7.936
 1381POPC   C4A19698  31.356   7.471   7.521
 1381POPC   C1B19699  31.633   7.808   8.663
 1381POPC   C2B19700  31.796   7.963   8.326
 1381POPC   C3B19701  31.989   7.788   8.007
 1381POPC   C4B19702  31.773   7.449   7.841
 1382POPC   NC319703  36.792  33.398   9.515
 1382POPC   PO419704  37.041  34.062   9.472
 1382POPC   GL119705  36.916  34.059   9.075
 1382POPC   GL219706  36.748  33.743   9.156
 1382POPC   C1A19707  37.196  33.890   8.745
 1382POPC   D2A19708  37.181  33.600   8.402
 1382POPC   C3A19709  37.118  33.861   8.052
 1382POPC   C4A19710  37.277  33.941   7.663
 1382POPC   C1B19711  36.783  33.598   8.771
 1382POPC   C2B19712  36.738  33.863   8.408
 1382POPC   C3B19713  36.614  33.973   7.992
 1382POPC   C4B19714  36.798  33.758   7.639
 1383POPC   NC319715  10.668  14.827   9.496
 1383POPC   PO419716  10.501  14.136   9.585
 1383POPC   GL119717  10.472  14.227   9.168
 1383POPC   GL219718  10.751  14.437   9.144
 1383POPC   C1A19719  10.331  14.266   8.744
 1383POPC   D2A19720  10.232  14.509   8.399
 1383POPC   C3A19721  10.366  14.317   8.063
 1383POPC   C4A19722  10.309  14.406   7.708
 1383POPC   C1B19723  10.898  14.289   8.769
 1383POPC   C2B19724  10.749  14.452   8.391
 1383POPC   C3B19725  10.734  14.643   7.977
 1383POPC   C4B19726  10.842  14.387   7.614
 1384POPC   NC319727  14.648   3.391   9.488
 1384POPC   PO419728  14.168   3.874   9.489
 1384POPC   GL119729  14.110   3.586   9.159
 1384POPC   GL219730  14.461   3.618   9.058
 1384POPC   C1A19731  14.079   3.690   8.714
 1384POPC   D2A19732  14.330   3.547   8.380
 1384POPC   C3A19733  14.162   3.666   8.027
 1384POPC   C4A19734  14.299   3.789   7.635
 1384POPC   C1B19735  14.730   3.467   8.714
 1384POPC   C2B19736  14.842   3.388   8.312
 1384POPC   C3B19737  14.659   3.554   7.943
 1384POPC   C4B19738  14.646   3.466   7.494
 1385POPC   NC319739  27.430  42.155   9.467
 1385POPC   PO419740  27.726  42.691   9.692
 1385POPC   GL119741  27.719  42.483   9.216
 1385POPC   GL219742  27.404  42.361   9.009
 1385POPC   C1A19743  27.836  42.364   8.735
 1385POPC   D2A19744  27.787  41.962   8.473
 1385POPC   C3A19745  27.776  41.908   8.030
 1385POPC   C4A19746  27.746  42.234   7.713
 1385POPC   C1B19747  27.360  42.197   8.587
 1385POPC   C2B19748  27.527  42.321   8.164
 1385POPC   C3B19749  27.251  42.331   7.757
 1385POPC   C4B19750  27.211  42.477   7.337
 1386POPC   NC319751  10.093   3.535   9.395
 1386POPC   PO419752   9.424   3.984   9.413
 1386POPC   GL119753   9.669   3.721   9.161
 1386POPC   GL219754   9.622   3.369   9.175
 1386POPC   C1A19755   9.859   3.702   8.767
 1386POPC   D2A19756  10.074   3.722   8.384
 1386POPC   C3A19757   9.788   3.776   8.045
 1386POPC   C4A19758   9.794   4.003   7.666
 1386POPC   C1B19759   9.716   3.203   8.780
 1386POPC   C2B19760   9.601   3.372   8.386
 1386POPC   C3B19761   9.681   3.282   7.976
 1386POPC   C4B19762   9.543   3.423   7.546
 1387POPC   NC319763  12.148  18.122   9.509
 1387POPC   PO419764  11.773  18.653   9.608
 1387POPC   GL119765  11.950  18.461   9.168
 1387POPC   GL219766  12.237  18.280   9.035
 1387POPC   C1A19767  11.892  18.478   8.718
 1387POPC   D2A19768  12.165  18.277   8.426
 1387POPC   C3A19769  12.025  18.454   8.042
 1387POPC   C4A19770  12.071  18.415   7.622
 1387POPC   C1B19771  12.401  17.948   8.754
 1387POPC   C2B19772  12.466  17.808   8.356
 1387POPC   C3B19773  12.586  17.866   7.960
 1387POPC   C4B19774  12.334  17.950   7.657
 1388POPC   NC319775  11.270  38.165   9.644
 1388POPC   PO419776  11.022  37.487   9.611
 1388POPC   GL119777  11.210  37.717   9.255
 1388POPC   GL219778  11.562  37.756   9.298
 1388POPC   C1A19779  11.236  37.563   8.812
 1388POPC   D2A19780  11.466  37.459   8.417
 1388POPC   C3A19781  11.273  37.576   8.032
 1388POPC   C4A19782  11.064  37.466   7.610
 1388POPC   C1B19783  11.675  37.813   8.851
 1388POPC   C2B19784  11.879  37.795   8.439
 1388POPC   C3B19785  11.730  37.897   8.024
 1388POPC   C4B19786  11.501  37.801   7.633
 1389POPC   NC319787   1.878  17.291   9.484
 1389POPC   PO419788   2.319  17.816   9.466
 1389POPC   GL119789   2.199  17.541   9.139
 1389POPC   GL219790   1.895  17.690   9.124
 1389POPC   C1A19791   2.139  17.412   8.690
 1389POPC   D2A19792   2.172  17.203   8.249
 1389POPC   C3A19793   2.091  17.425   7.846
 1389POPC   C4A19794   2.302  17.649   7.517
 1389POPC   C1B19795   1.680  17.634   8.730
 1389POPC   C2B19796   1.789  17.532   8.314
 1389POPC   C3B19797   1.703  17.733   7.949
 1389POPC   C4B19798   1.864  17.894   7.578
 1390POPC   NC319799  31.613  37.809   9.580
 1390POPC   PO419800  31.014  37.788   9.228
 1390POPC   GL119801  31.456  37.750   9.088
 1390POPC   GL219802  31.757  38.008   9.136
 1390POPC   C1A19803  31.464  37.470   8.715
 1390POPC   D2A19804  31.179  37.411   8.374
 1390POPC   C3A19805  31.131  37.762   8.109
 1390POPC   C4A19806  31.183  37.699   7.695
 1390POPC   C1B19807  31.852  37.787   8.762
 1390POPC   C2B19808  31.860  37.575   8.387
 1390POPC   C3B19809  31.604  37.566   8.059
 1390POPC   C4B19810  31.658  37.849   7.759
 1391POPC   NC319811  18.785  32.681   9.502
 1391POPC   PO419812  19.155  33.151   9.441
 1391POPC   GL119813  19.291  33.066   9.067
 1391POPC   GL219814  19.470  33.362   9.039
 1391POPC   C1A19815  19.143  32.839   8.746
 1391POPC   D2A19816  19.044  32.955   8.343
 1391POPC   C3A19817  19.262  32.767   8.022
 1391POPC   C4A19818  19.062  32.593   7.709
 1391POPC   C1B19819  19.210  33.344   8.635
 1391POPC   C2B19820  18.922  33.461   8.352
 1391POPC   C3B19821  18.988  33.248   7.929
 1391POPC   C4B19822  19.313  33.107   7.634
 1392POPC   NC319823  12.618  34.343   9.460
 1392POPC   PO419824  12.691  34.966   9.687
 1392POPC   GL119825  12.918  34.681   9.224
 1392POPC   GL219826  12.711  34.457   8.981
 1392POPC   C1A19827  13.048  34.707   8.713
 1392POPC   D2A19828  13.214  34.769   8.283
 1392POPC   C3A19829  12.998  34.598   7.939
 1392POPC   C4A19830  13.083  34.295   7.636
 1392POPC   C1B19831  12.550  34.669   8.626
 1392POPC   C2B19832  12.720  34.887   8.308
 1392POPC   C3B19833  12.741  35.035   7.906
 1392POPC   C4B19834  12.524  34.913   7.506
 1393POPC   NC319835  36.313  43.634   9.596
 1393POPC   PO419836  35.994  44.164   9.480
 1393POPC   GL119837  36.117  43.897   9.105
 1393POPC   GL219838  36.496  43.825   9.102
 1393POPC   C1A19839  36.002  43.716   8.678
 1393POPC   D2A19840  35.854  43.543   8.265
 1393POPC   C3A19841  35.944  43.873   7.975
 1393POPC   C4A19842  36.269  43.931   7.702
 1393POPC   C1B19843  36.475  43.964   8.678
 1393POPC   C2B19844  36.449  43.813   8.236
 1393POPC   C3B19845  36.697  43.699   7.850
 1393POPC   C4B19846  36.604  43.737   7.389
 1394POPC   NC319847  39.572  27.843   9.831
 1394POPC   PO419848  40.104  27.323   9.773
 1394POPC   GL119849  40.098  27.413   9.296
 1394POPC   GL219850  40.089  27.781   9.207
 1394POPC   C1A19851  40.117  27.393   8.830
 1394POPC   D2A19852  40.250  27.568   8.426
 1394POPC   C3A19853  40.132  27.448   8.016
 1394POPC   C4A19854  40.306  27.108   7.799
 1394POPC   C1B19855  39.927  27.887   8.773
 1394POPC   C2B19856  39.805  27.861   8.370
 1394POPC   C3B19857  39.820  28.111   8.031
 1394POPC   C4B19858  40.077  28.054   7.692
 1395POPC   NC319859  14.821   6.667   9.476
 1395POPC   PO419860  14.164   6.710   9.484
 1395POPC   GL119861  14.360   6.630   9.115
 1395POPC   GL219862  14.091   6.816   8.982
 1395POPC   C1A19863  14.500   6.492   8.701
 1395POPC   D2A19864  14.369   6.322   8.314
 1395POPC   C3A19865  14.415   6.604   7.953
 1395POPC   C4A19866  14.394   6.883   7.603
 1395POPC   C1B19867  14.038   6.983   8.617
 1395POPC   C2B19868  13.989   6.683   8.265
 1395POPC   C3B19869  13.929   6.737   7.830
 1395POPC   C4B19870  13.928   7.124   7.609
 1396POPC   NC319871  20.732  42.189   9.440
 1396POPC   PO419872  20.378  42.692   9.174
 1396POPC   GL119873  20.414  42.260   9.052
 1396POPC   GL219874  20.742  42.359   8.958
 1396POPC   C1A19875  20.481  42.035   8.684
 1396POPC   D2A19876  20.645  42.266   8.337
 1396POPC   C3A19877  20.692  41.987   8.004
 1396POPC   C4A19878  20.928  41.884   7.648
 1396POPC   C1B19879  21.045  42.455   8.646
 1396POPC   C2B19880  21.209  42.605   8.270
 1396POPC   C3B19881  21.035  42.424   7.913
 1396POPC   C4B19882  20.686  42.382   7.685
 1397POPC   NC319883  25.745   1.955   9.945
 1397POPC   PO419884  26.131   2.299   9.499
 1397POPC   GL119885  25.881   2.036   9.199
 1397POPC   GL219886  26.134   1.853   8.999
 1397POPC   C1A19887  25.657   1.841   8.823
 1397POPC   D2A19888  25.869   1.710   8.453
 1397POPC   C3A19889  25.726   1.824   8.042
 1397POPC   C4A19890  25.672   2.169   7.705
 1397POPC   C1B19891  26.353   1.987   8.622
 1397POPC   C2B19892  26.305   1.851   8.192
 1397POPC   C3B19893  26.148   2.008   7.809
 1397POPC   C4B19894  26.217   2.185   7.416
 1398POPC   NC319895   4.741   1.302   9.619
 1398POPC   PO419896   5.221   0.880   9.575
 1398POPC   GL119897   5.141   0.928   9.155
 1398POPC   GL219898   4.911   1.220   9.130
 1398POPC   C1A19899   5.085   0.983   8.707
 1398POPC   D2A19900   5.313   1.050   8.367
 1398POPC   C3A19901   5.187   1.043   7.931
 1398POPC   C4A19902   5.416   1.242   7.605
 1398POPC   C1B19903   4.754   1.362   8.710
 1398POPC   C2B19904   4.833   1.285   8.277
 1398POPC   C3B19905   4.784   1.346   7.838
 1398POPC   C4B19906   4.931   1.203   7.457
 1399POPC   NC319907  31.409  14.160   9.567
 1399POPC   PO419908  31.641  14.695   9.361
 1399POPC   GL119909  31.504  14.285   9.084
 1399POPC   GL219910  31.120  14.208   9.118
 1399POPC   C1A19911  31.578  14.081   8.656
 1399POPC   D2A19912  31.340  14.112   8.247
 1399POPC   C3A19913  31.569  14.328   7.955
 1399POPC   C4A19914  31.740  14.343   7.578
 1399POPC   C1B19915  31.164  14.370   8.677
 1399POPC   C2B19916  31.129  14.569   8.270
 1399POPC   C3B19917  31.089  14.436   7.856
 1399POPC   C4B19918  31.253  14.704   7.546
 1400POPC   NC319919  12.555  27.348   9.504
 1400POPC   PO419920  13.179  27.480   9.525
 1400POPC   GL119921  12.950  27.489   9.154
 1400POPC   GL219922  12.694  27.754   9.178
 1400POPC   C1A19923  13.045  27.514   8.698
 1400POPC   D2A19924  13.035  27.734   8.299
 1400POPC   C3A19925  13.043  27.484   7.929
 1400POPC   C4A19926  12.883  27.624   7.546
 1400POPC   C1B19927  12.552  27.607   8.781
 1400POPC   C2B19928  12.607  27.424   8.385
 1400POPC   C3B19929  12.553  27.599   7.969
 1400POPC   C4B19930  12.366  27.915   7.735
 1401POPC   NC319931  39.170  16.228   9.426
 1401POPC   PO419932  38.994  15.667   9.598
 1401POPC   GL119933  39.209  15.766   9.206
 1401POPC   GL219934  39.561  15.777   9.249
 1401POPC   C1A19935  39.177  15.930   8.769
 1401POPC   D2A19936  39.332  16.045   8.357
 1401POPC   C3A19937  39.032  16.003   8.006
 1401POPC   C4A19938  39.069  15.879   7.544
 1401POPC   C1B19939  39.552  15.595   8.823
 1401POPC   C2B19940  39.328  15.554   8.421
 1401POPC   C3B19941  39.449  15.697   7.995
 1401POPC   C4B19942  39.486  16.089   7.764
 1402POPC   NC319943   6.913  20.589   9.405
 1402POPC   PO419944   7.605  20.330   9.473
 1402POPC   GL119945   7.424  20.637   9.186
 1402POPC   GL219946   7.597  20.955   9.126
 1402POPC   C1A19947   7.347  20.682   8.743
 1402POPC   D2A19948   7.178  20.491   8.331
 1402POPC   C3A19949   7.132  20.654   7.875
 1402POPC   C4A19950   7.103  20.565   7.358
 1402POPC   C1B19951   7.818  20.916   8.734
 1402POPC   C2B19952   7.847  21.090   8.309
 1402POPC   C3B19953   7.659  20.953   7.934
 1402POPC   C4B19954   7.547  20.720   7.575
 1403POPC   NC319955  44.013  20.198   9.494
 1403POPC   PO419956  44.324  19.531   9.495
 1403POPC   GL119957  44.101  19.778   9.160
 1403POPC   GL219958  43.776  19.639   9.040
 1403POPC   C1A19959  44.060  19.865   8.706
 1403POPC   D2A19960  43.920  19.606   8.373
 1403POPC   C3A19961  43.988  19.727   7.921
 1403POPC   C4A19962  44.041  20.042   7.643
 1403POPC   C1B19963  43.557  19.829   8.750
 1403POPC   C2B19964  43.436  19.888   8.406
 1403POPC   C3B19965  43.514  19.666   8.085
 1403POPC   C4B19966  43.515  19.870   7.728
 1404POPC   NC319967  40.459  30.193   9.610
 1404POPC   PO419968  39.800  29.957   9.642
 1404POPC   GL119969  39.904  29.815   9.243
 1404POPC   GL219970  39.583  29.834   9.132
 1404POPC   C1A19971  40.188  29.758   8.892
 1404POPC   D2A19972  40.401  29.920   8.528
 1404POPC   C3A19973  40.273  29.731   8.148
 1404POPC   C4A19974  40.176  29.887   7.751
 1404POPC   C1B19975  39.732  30.008   8.764
 1404POPC   C2B19976  39.843  29.892   8.354
 1404POPC   C3B19977  39.640  29.974   7.957
 1404POPC   C4B19978  39.768  30.121   7.551
 1405POPC   NC319979  35.882  33.617   9.479
 1405POPC   PO419980  36.063  34.272   9.492
 1405POPC   GL119981  36.300  33.957   9.264
 1405POPC   GL219982  36.180  33.702   9.086
 1405POPC   C1A19983  36.456  34.002   8.817
 1405POPC   D2A19984  36.294  34.118   8.413
 1405POPC   C3A19985  36.051  33.880   8.145
 1405POPC   C4A19986  36.189  33.791   7.743
 1405POPC   C1B19987  36.285  33.466   8.754
 1405POPC   C2B19988  36.064  33.407   8.405
 1405POPC   C3B19989  36.253  33.372   8.022
 1405POPC   C4B19990  35.969  33.298   7.714
 1406POPC   NC319991   4.315  20.374   9.424
 1406POPC   PO419992   4.537  21.002   9.498
 1406POPC   GL119993   4.539  20.749   9.123
 1406POPC   GL219994   4.704  20.409   9.117
 1406POPC   C1A19995   4.278  20.740   8.746
 1406POPC   D2A19996   4.142  20.592   8.318
 1406POPC   C3A19997   4.263  20.802   7.923
 1406POPC   C4A19998   4.260  20.695   7.468
 1406POPC   C1B19999   4.501  20.276   8.755
 1406POPC   C2B20000   4.537  20.277   8.331
 1406POPC   C3B20001   4.389  20.296   7.920
 1406POPC   C4B20002   4.625  20.377   7.540
 1407POPC   NC320003  32.631  44.770   9.532
 1407POPC   PO420004  33.277  44.721   9.599
 1407POPC   GL120005  33.116  44.832   9.158
 1407POPC   GL220006  32.763  44.825   9.041
 1407POPC   C1A20007  33.094  44.760   8.686
 1407POPC   D2A20008  33.257  44.460   8.430
 1407POPC   C3A20009  33.371  44.669   8.084
 1407POPC   C4A20010  33.338  44.564   7.675
 1407POPC   C1B20011  32.590  44.605   8.696
 1407POPC   C2B20012  32.551  44.316   8.382
 1407POPC   C3B20013  32.778  44.423   8.051
 1407POPC   C4B20014  32.847  44.753   7.772
 1408POPC   NC320015  39.192  24.010   9.451
 1408POPC   PO420016  38.717  24.532   9.622
 1408POPC   GL120017  39.009  24.533   9.234
 1408POPC   GL220018  39.351  24.378   9.138
 1408POPC   C1A20019  39.145  24.743   8.843
 1408POPC   D2A20020  39.316  24.635   8.424
 1408POPC   C3A20021  39.074  24.547   8.061
 1408POPC   C4A20022  39.268  24.621   7.690
 1408POPC   C1B20023  39.321  24.231   8.723
 1408POPC   C2B20024  39.579  24.195   8.348
 1408POPC   C3B20025  39.466  24.213   7.927
 1408POPC   C4B20026  39.132  24.034   7.730
 1409POPC   NC320027   1.361  15.847   9.410
 1409POPC   PO420028   0.824  16.290   9.514
 1409POPC   GL120029   0.972  16.068   9.155
 1409POPC   GL220030   0.940  15.708   9.158
 1409POPC   C1A20031   1.187  16.131   8.764
 1409POPC   D2A20032   1.497  16.261   8.488
 1409POPC   C3A20033   1.367  16.152   8.079
 1409POPC   C4A20034   1.497  16.149   7.691
 1409POPC   C1B20035   1.163  15.599   8.785
 1409POPC   C2B20036   1.288  15.748   8.386
 1409POPC   C3B20037   1.224  15.590   7.987
 1409POPC   C4B20038   1.347  15.693   7.578
 1410POPC   NC320039  13.783  14.078   9.539
 1410POPC   PO420040  13.170  14.328   9.536
 1410POPC   GL120041  13.475  14.312   9.192
 1410POPC   GL220042  13.692  14.615   9.138
 1410POPC   C1A20043  13.488  14.321   8.744
 1410POPC   D2A20044  13.545  14.134   8.339
 1410POPC   C3A20045  13.581  14.395   8.031
 1410POPC   C4A20046  13.598  14.446   7.630
 1410POPC   C1B20047  13.926  14.562   8.760
 1410POPC   C2B20048  13.881  14.684   8.345
 1410POPC   C3B20049  14.066  14.599   7.960
 1410POPC   C4B20050  14.118  14.591   7.523
 1411POPC   NC320051  22.244   1.116   9.644
 1411POPC   PO420052  22.419   1.787   9.416
 1411POPC   GL120053  22.288   1.386   9.207
 1411POPC   GL220054  22.419   1.013   9.186
 1411POPC   C1A20055  22.090   1.210   8.853
 1411POPC   D2A20056  21.932   0.969   8.556
 1411POPC   C3A20057  21.914   1.155   8.206
 1411POPC   C4A20058  21.987   1.237   7.777
 1411POPC   C1B20059  22.588   1.186   8.813
 1411POPC   C2B20060  22.424   1.118   8.409
 1411POPC   C3B20061  22.551   1.201   8.009
 1411POPC   C4B20062  22.438   1.207   7.583
 1412POPC   NC320063  12.333  14.913   9.291
 1412POPC   PO420064  12.176  14.322   9.613
 1412POPC   GL120065  12.097  14.456   9.146
 1412POPC   GL220066  12.300  14.635   8.883
 1412POPC   C1A20067  11.962  14.254   8.755
 1412POPC   D2A20068  12.193  14.209   8.374
 1412POPC   C3A20069  12.076  14.226   7.927
 1412POPC   C4A20070  12.056  14.421   7.517
 1412POPC   C1B20071  11.937  14.873   8.704
 1412POPC   C2B20072  11.816  14.840   8.251
 1412POPC   C3B20073  12.116  14.733   7.943
 1412POPC   C4B20074  12.361  14.812   7.596
 1413POPC   NC320075  35.053  25.051   9.577
 1413POPC   PO420076  35.659  25.422   9.607
 1413POPC   GL120077  35.328  25.472   9.262
 1413POPC   GL220078  35.048  25.249   9.110
 1413POPC   C1A20079  35.441  25.411   8.823
 1413POPC   D2A20080  35.433  25.121   8.485
 1413POPC   C3A20081  35.255  25.322   8.149
 1413POPC   C4A20082  35.190  25.266   7.727
 1413POPC   C1B20083  35.156  24.855   8.851
 1413POPC   C2B20084  35.068  24.737   8.401
 1413POPC   C3B20085  35.217  24.832   7.972
 1413POPC   C4B20086  35.148  24.833   7.475
 1414POPC   NC320087  42.268  43.264   9.581
 1414POPC   PO420088  41.980  42.787   9.183
 1414POPC   GL120089  42.266  43.077   9.119
 1414POPC   GL220090  42.560  42.932   9.260
 1414POPC   C1A20091  42.239  43.317   8.780
 1414POPC   D2A20092  42.070  43.124   8.402
 1414POPC   C3A20093  42.275  43.107   8.002
 1414POPC   C4A20094  42.211  43.236   7.573
 1414POPC   C1B20095  42.638  42.980   8.792
 1414POPC   C2B20096  42.602  43.257   8.418
 1414POPC   C3B20097  42.608  43.489   8.031
 1414POPC   C4B20098  42.703  43.271   7.670
 1415POPC   NC320099  34.119  24.967   9.448
 1415POPC   PO420100  34.695  25.394   9.614
 1415POPC   GL120101  34.535  25.200   9.247
 1415POPC   GL220102  34.287  25.436   9.158
 1415POPC   C1A20103  34.651  25.001   8.867
 1415POPC   D2A20104  34.925  25.210   8.573
 1415POPC   C3A20105  34.743  25.227   8.199
 1415POPC   C4A20106  34.753  25.016   7.848
 1415POPC   C1B20107  34.509  25.500   8.737
 1415POPC   C2B20108  34.442  25.644   8.290
 1415POPC   C3B20109  34.395  25.472   7.857
 1415POPC   C4B20110  34.274  25.112   7.622
 1416POPC   NC320111  31.600  18.345   9.520
 1416POPC   PO420112  31.592  17.646   9.404
 1416POPC   GL120113  31.444  17.982   9.156
 1416POPC   GL220114  31.828  18.050   9.154
 1416POPC   C1A20115  31.178  18.081   8.748
 1416POPC   D2A20116  31.003  18.190   8.316
 1416POPC   C3A20117  31.267  18.233   7.946
 1416POPC   C4A20118  31.469  18.539   7.671
 1416POPC   C1B20119  31.690  18.242   8.780
 1416POPC   C2B20120  31.535  18.379   8.379
 1416POPC   C3B20121  31.784  18.309   8.014
 1416POPC   C4B20122  31.844  18.181   7.594
 1417POPC   NC320123  37.052  27.227   9.415
 1417POPC   PO420124  36.676  26.656   9.415
 1417POPC   GL120125  36.950  26.786   9.077
 1417POPC   GL220126  36.823  27.108   8.992
 1417POPC   C1A20127  36.926  26.763   8.623
 1417POPC   D2A20128  36.687  26.984   8.356
 1417POPC   C3A20129  36.576  26.810   7.947
 1417POPC   C4A20130  36.892  26.711   7.619
 1417POPC   C1B20131  37.072  27.252   8.705
 1417POPC   C2B20132  37.020  27.347   8.274
 1417POPC   C3B20133  37.019  27.092   7.952
 1417POPC   C4B20134  37.254  27.090   7.604
 1418POPC   NC320135   1.578  37.694  10.005
 1418POPC   PO420136   1.093  37.852   9.719
 1418POPC   GL120137   0.938  37.808   9.221
 1418POPC   GL220138   0.688  38.085   9.116
 1418POPC   C1A20139   0.996  37.697   8.738
 1418POPC   D2A20140   1.288  37.807   8.356
 1418POPC   C3A20141   1.292  37.660   7.920
 1418POPC   C4A20142   1.514  37.396   7.609
 1418POPC   C1B20143   0.837  38.178   8.699
 1418POPC   C2B20144   0.959  38.184   8.253
 1418POPC   C3B20145   0.998  38.070   7.835
 1418POPC   C4B20146   1.110  37.958   7.424
 1419POPC   NC320147  20.239  44.915   9.539
 1419POPC   PO420148  20.805  44.980   9.244
 1419POPC   GL120149  20.529  44.650   9.140
 1419POPC   GL220150  20.370  44.820   8.865
 1419POPC   C1A20151  20.416  44.335   8.806
 1419POPC   D2A20152  20.376  44.551   8.401
 1419POPC   C3A20153  20.472  44.302   8.049
 1419POPC   C4A20154  20.616  44.281   7.612
 1419POPC   C1B20155  20.772  44.780   8.646
 1419POPC   C2B20156  20.920  44.830   8.248
 1419POPC   C3B20157  20.704  44.716   7.878
 1419POPC   C4B20158  20.852  44.719   7.450
 1420POPC   NC320159  17.699  20.048   9.408
 1420POPC   PO420160  17.184  19.640   9.533
 1420POPC   GL120161  17.413  19.728   9.123
 1420POPC   GL220162  17.722  19.588   9.118
 1420POPC   C1A20163  17.567  19.961   8.731
 1420POPC   D2A20164  17.360  20.140   8.392
 1420POPC   C3A20165  17.437  19.964   8.012
 1420POPC   C4A20166  17.254  19.937   7.621
 1420POPC   C1B20167  17.940  19.641   8.769
 1420POPC   C2B20168  17.740  19.617   8.397
 1420POPC   C3B20169  17.874  19.674   8.022
 1420POPC   C4B20170  17.632  19.608   7.683
 1421POPC   NC320171  38.508   9.015   9.860
 1421POPC   PO420172  38.688   9.360   9.320
 1421POPC   GL120173  38.526   8.940   9.127
 1421POPC   GL220174  38.441   9.147   8.849
 1421POPC   C1A20175  38.251   8.674   8.831
 1421POPC   D2A20176  38.021   8.871   8.497
 1421POPC   C3A20177  38.250   8.947   8.093
 1421POPC   C4A20178  38.408   9.199   7.718
 1421POPC   C1B20179  38.590   8.900   8.498
 1421POPC   C2B20180  38.764   9.064   8.108
 1421POPC   C3B20181  38.911   9.034   7.674
 1421POPC   C4B20182  39.101   8.669   7.448
 1422POPC   NC320183   6.195  29.258   9.604
 1422POPC   PO420184   5.727  28.838   9.431
 1422POPC   GL120185   6.063  28.985   9.158
 1422POPC   GL220186   6.166  29.342   9.092
 1422POPC   C1A20187   5.951  29.000   8.729
 1422POPC   D2A20188   5.657  28.780   8.446
 1422POPC   C3A20189   5.568  28.960   8.035
 1422POPC   C4A20190   5.502  28.696   7.683
 1422POPC   C1B20191   6.095  29.484   8.641
 1422POPC   C2B20192   6.007  29.229   8.244
 1422POPC   C3B20193   6.014  29.343   7.804
 1422POPC   C4B20194   6.108  29.294   7.354
 1423POPC   NC320195   1.044  40.306   9.509
 1423POPC   PO420196   1.318  39.717   9.344
 1423POPC   GL120197   1.025  39.983   9.114
 1423POPC   GL220198   1.316  40.218   9.082
 1423POPC   C1A20199   0.850  40.165   8.714
 1423POPC   D2A20200   0.915  39.992   8.263
 1423POPC   C3A20201   0.828  40.028   7.788
 1423POPC   C4A20202   1.023  39.850   7.387
 1423POPC   C1B20203   1.337  40.029   8.690
 1423POPC   C2B20204   1.508  40.082   8.288
 1423POPC   C3B20205   1.298  40.165   7.915
 1423POPC   C4B20206   1.143  40.373   7.528
 1424POPC   NC320207  43.517  39.910   9.711
 1424POPC   PO420208  44.188  39.866   9.621
 1424POPC   GL120209  44.110  39.809   9.199
 1424POPC   GL220210  43.737  39.858   9.218
 1424POPC   C1A20211  43.945  39.643   8.813
 1424POPC   D2A20212  43.665  39.834   8.547
 1424POPC   C3A20213  43.831  40.033   8.229
 1424POPC   C4A20214  43.833  39.921   7.795
 1424POPC   C1B20215  43.539  40.172   8.950
 1424POPC   C2B20216  43.399  40.330   8.563
 1424POPC   C3B20217  43.238  40.314   8.157
 1424POPC   C4B20218  43.190  40.482   7.782
 1425POPC   NC320219  12.908  38.183   9.694
 1425POPC   PO420220  13.205  38.759   9.651
 1425POPC   GL120221  13.010  38.596   9.228
 1425POPC   GL220222  13.064  38.275   9.106
 1425POPC   C1A20223  12.685  38.630   8.865
 1425POPC   D2A20224  12.705  38.753   8.427
 1425POPC   C3A20225  12.629  38.555   8.035
 1425POPC   C4A20226  12.411  38.780   7.744
 1425POPC   C1B20227  13.114  38.451   8.674
 1425POPC   C2B20228  12.988  38.317   8.314
 1425POPC   C3B20229  13.151  38.323   7.936
 1425POPC   C4B20230  13.207  38.160   7.545
 1426POPC   NC320231  23.404  12.536   9.246
 1426POPC   PO420232  23.467  13.203   9.520
 1426POPC   GL120233  23.582  13.022   9.132
 1426POPC   GL220234  23.853  12.792   9.161
 1426POPC   C1A20235  23.592  12.854   8.707
 1426POPC   D2A20236  23.454  12.614   8.360
 1426POPC   C3A20237  23.676  12.814   7.996
 1426POPC   C4A20238  23.493  12.920   7.619
 1426POPC   C1B20239  23.996  12.570   8.811
 1426POPC   C2B20240  23.953  12.608   8.378
 1426POPC   C3B20241  24.139  12.563   7.938
 1426POPC   C4B20242  23.910  12.626   7.532
 1427POPC   NC320243  42.181  35.738   9.722
 1427POPC   PO420244  42.145  35.172   9.403
 1427POPC   GL120245  42.341  35.544   9.240
 1427POPC   GL220246  42.155  35.836   9.181
 1427POPC   C1A20247  42.478  35.521   8.812
 1427POPC   D2A20248  42.301  35.245   8.488
 1427POPC   C3A20249  42.468  35.218   8.072
 1427POPC   C4A20250  42.232  35.098   7.743
 1427POPC   C1B20251  41.980  35.674   8.803
 1427POPC   C2B20252  42.209  35.771   8.427
 1427POPC   C3B20253  42.106  35.855   8.017
 1427POPC   C4B20254  42.299  35.604   7.745
 1428POPC   NC320255   7.110  32.049   9.227
 1428POPC   PO420256   6.470  32.214   9.334
 1428POPC   GL120257   6.700  32.263   8.989
 1428POPC   GL220258   6.945  32.532   9.140
 1428POPC   C1A20259   6.525  32.044   8.621
 1428POPC   D2A20260   6.272  32.130   8.241
 1428POPC   C3A20261   6.596  32.242   7.941
 1428POPC   C4A20262   6.916  32.004   7.762
 1428POPC   C1B20263   6.875  32.676   8.758
 1428POPC   C2B20264   6.678  32.502   8.427
 1428POPC   C3B20265   6.801  32.701   8.076
 1428POPC   C4B20266   6.962  32.721   7.687
 1429POPC   NC320267  39.407  15.481   9.651
 1429POPC   PO420268  39.051  14.950   9.444
 1429POPC   GL120269  39.154  15.264   9.203
 1429POPC   GL220270  39.467  15.268   9.201
 1429POPC   C1A20271  39.034  15.429   8.825
 1429POPC   D2A20272  38.874  15.279   8.432
 1429POPC   C3A20273  38.955  15.495   8.055
 1429POPC   C4A20274  39.147  15.398   7.690
 1429POPC   C1B20275  39.472  15.089   8.806
 1429POPC   C2B20276  39.673  15.197   8.447
 1429POPC   C3B20277  39.434  15.197   8.068
 1429POPC   C4B20278  39.411  14.948   7.722
 1430POPC   NC320279  33.096  16.316   9.502
 1430POPC   PO420280  32.942  15.676   9.541
 1430POPC   GL120281  33.028  15.820   9.146
 1430POPC   GL220282  33.319  16.020   9.157
 1430POPC   C1A20283  32.961  15.992   8.739
 1430POPC   D2A20284  33.115  16.038   8.344
 1430POPC   C3A20285  32.861  15.969   8.005
 1430POPC   C4A20286  32.843  16.223   7.658
 1430POPC   C1B20287  33.450  16.146   8.755
 1430POPC   C2B20288  33.637  16.166   8.353
 1430POPC   C3B20289  33.474  16.327   7.968
 1430POPC   C4B20290  33.317  16.107   7.577
 1431POPC   NC320291   2.103   2.293   9.847
 1431POPC   PO420292   1.707   1.873   9.473
 1431POPC   GL120293   1.775   1.810   9.041
 1431POPC   GL220294   1.940   2.147   9.106
 1431POPC   C1A20295   2.101   1.920   8.696
 1431POPC   D2A20296   2.056   2.166   8.308
 1431POPC   C3A20297   2.325   2.148   7.931
 1431POPC   C4A20298   2.207   2.047   7.482
 1431POPC   C1B20299   1.637   2.190   8.748
 1431POPC   C2B20300   1.432   2.140   8.362
 1431POPC   C3B20301   1.627   2.194   8.003
 1431POPC   C4B20302   1.896   1.879   7.840
 1432POPC   NC320303  38.001  33.226   9.563
 1432POPC   PO420304  37.251  33.248   9.456
 1432POPC   GL120305  37.608  33.099   9.175
 1432POPC   GL220306  37.950  33.262   9.059
 1432POPC   C1A20307  37.665  32.956   8.749
 1432POPC   D2A20308  37.661  32.776   8.332
 1432POPC   C3A20309  37.417  32.965   7.980
 1432POPC   C4A20310  37.353  32.982   7.499
 1432POPC   C1B20311  38.050  33.244   8.605
 1432POPC   C2B20312  38.110  33.009   8.248
 1432POPC   C3B20313  37.897  32.874   7.875
 1432POPC   C4B20314  37.857  33.091   7.445
 1433POPC   NC320315  24.712   2.917   9.392
 1433POPC   PO420316  25.397   2.970   9.400
 1433POPC   GL120317  25.202   2.701   9.130
 1433POPC   GL220318  24.998   2.960   8.946
 1433POPC   C1A20319  25.398   2.613   8.746
 1433POPC   D2A20320  25.459   2.810   8.372
 1433POPC   C3A20321  25.334   2.591   8.009
 1433POPC   C4A20322  25.456   2.622   7.580
 1433POPC   C1B20323  24.878   2.553   8.736
 1433POPC   C2B20324  24.954   2.339   8.356
 1433POPC   C3B20325  24.796   2.536   8.005
 1433POPC   C4B20326  24.949   2.800   7.684
 1434POPC   NC320327  23.136   6.012   9.566
 1434POPC   PO420328  22.597   5.726   9.342
 1434POPC   GL120329  22.849   5.928   9.019
 1434POPC   GL220330  23.177   6.047   9.064
 1434POPC   C1A20331  23.000   5.889   8.585
 1434POPC   D2A20332  22.944   5.544   8.276
 1434POPC   C3A20333  22.871   5.738   7.890
 1434POPC   C4A20334  23.041   6.156   7.867
 1434POPC   C1B20335  23.353   5.676   8.903
 1434POPC   C2B20336  23.440   5.617   8.509
 1434POPC   C3B20337  23.334   5.839   8.161
 1434POPC   C4B20338  23.355   5.752   7.735
 1435POPC   NC320339  22.518  25.614   9.367
 1435POPC   PO420340  22.540  26.244   9.565
 1435POPC   GL120341  22.236  26.081   9.209
 1435POPC   GL220342  22.044  25.736   9.180
 1435POPC   C1A20343  22.353  25.951   8.780
 1435POPC   D2A20344  22.640  26.049   8.425
 1435POPC   C3A20345  22.456  25.857   8.074
 1435POPC   C4A20346  22.314  26.132   7.751
 1435POPC   C1B20347  21.888  25.689   8.765
 1435POPC   C2B20348  21.940  25.943   8.415
 1435POPC   C3B20349  21.886  25.965   7.996
 1435POPC   C4B20350  21.821  25.988   7.563
 1436POPC   NC320351  23.942  15.476   9.542
 1436POPC   PO420352  23.240  15.369   9.536
 1436POPC   GL120353  23.579  15.169   9.226
 1436POPC   GL220354  23.933  15.273   9.066
 1436POPC   C1A20355  23.543  15.083   8.787
 1436POPC   D2A20356  23.759  15.229   8.433
 1436POPC   C3A20357  23.670  15.185   8.054
 1436POPC   C4A20358  23.582  15.088   7.688
 1436POPC   C1B20359  24.080  15.005   8.721
 1436POPC   C2B20360  24.079  14.869   8.292
 1436POPC   C3B20361  24.054  14.911   7.851
 1436POPC   C4B20362  23.839  14.729   7.464
 1437POPC   NC320363  24.131   7.376   9.443
 1437POPC   PO420364  24.811   7.574   9.529
 1437POPC   GL120365  24.574   7.539   9.190
 1437POPC   GL220366  24.634   7.201   9.151
 1437POPC   C1A20367  24.572   7.630   8.752
 1437POPC   D2A20368  24.502   7.333   8.399
 1437POPC   C3A20369  24.509   7.444   7.985
 1437POPC   C4A20370  24.679   7.463   7.565
 1437POPC   C1B20371  24.349   7.164   8.837
 1437POPC   C2B20372  24.128   6.994   8.531
 1437POPC   C3B20373  24.142   7.095   8.107
 1437POPC   C4B20374  24.273   7.099   7.701
 1438POPC   NC320375  11.208  27.886   9.685
 1438POPC   PO420376  11.505  28.393   9.565
 1438POPC   GL120377  11.423  28.116   9.221
 1438POPC   GL220378  11.249  28.415   9.032
 1438POPC   C1A20379  11.334  27.959   8.790
 1438POPC   D2A20380  11.318  28.335   8.505
 1438POPC   C3A20381  11.491  28.333   8.081
 1438POPC   C4A20382  11.205  28.252   7.764
 1438POPC   C1B20383  11.000  28.732   8.734
 1438POPC   C2B20384  10.972  28.949   8.308
 1438POPC   C3B20385  11.077  28.765   7.873
 1438POPC   C4B20386  11.091  28.644   7.413
 1439POPC   NC320387  21.899  40.781   9.422
 1439POPC   PO420388  22.622  40.691   9.502
 1439POPC   GL120389  22.367  40.682   9.131
 1439POPC   GL220390  22.685  40.507   9.017
 1439POPC   C1A20391  22.047  40.826   8.749
 1439POPC   D2A20392  21.862  40.763   8.293
 1439POPC   C3A20393  22.131  40.915   7.932
 1439POPC   C4A20394  22.154  40.690   7.529
 1439POPC   C1B20395  22.529  40.709   8.654
 1439POPC   C2B20396  22.339  40.562   8.296
 1439POPC   C3B20397  22.527  40.592   7.904
 1439POPC   C4B20398  22.635  40.543   7.474
 1440POPC   NC320399  11.235   4.518   9.361
 1440POPC   PO420400  11.532   3.957   9.334
 1440POPC   GL120401  11.371   4.123   9.042
 1440POPC   GL220402  11.073   4.004   9.093
 1440POPC   C1A20403  11.368   4.328   8.665
 1440POPC   D2A20404  11.589   4.534   8.339
 1440POPC   C3A20405  11.426   4.425   7.929
 1440POPC   C4A20406  11.382   4.008   7.725
 1440POPC   C1B20407  10.845   4.141   8.758
 1440POPC   C2B20408  10.935   4.291   8.363
 1440POPC   C3B20409  10.921   4.569   8.036
 1440POPC   C4B20410  10.967   4.323   7.704
 1441POPC   NC320411  23.168   2.673   9.446
 1441POPC   PO420412  23.806   2.798   9.360
 1441POPC   GL120413  23.629   2.808   8.998
 1441POPC   GL220414  23.457   2.507   9.066
 1441POPC   C1A20415  23.840   2.810   8.613
 1441POPC   D2A20416  23.987   2.646   8.253
 1441POPC   C3A20417  23.694   2.824   7.934
 1441POPC   C4A20418  23.738   2.947   7.480
 1441POPC   C1B20419  23.660   2.352   8.731
 1441POPC   C2B20420  23.528   2.450   8.344
 1441POPC   C3B20421  23.500   2.316   7.932
 1441POPC   C4B20422  23.565   2.474   7.577
 1442POPC   NC320423   3.600  11.476   9.507
 1442POPC   PO420424   4.211  11.125   9.537
 1442POPC   GL120425   3.757  11.132   9.192
 1442POPC   GL220426   3.359  11.284   9.120
 1442POPC   C1A20427   3.671  11.336   8.748
 1442POPC   D2A20428   3.898  11.431   8.356
 1442POPC   C3A20429   3.685  11.226   8.046
 1442POPC   C4A20430   3.788  11.193   7.630
 1442POPC   C1B20431   3.192  11.106   8.778
 1442POPC   C2B20432   3.285  11.185   8.380
 1442POPC   C3B20433   3.235  11.459   8.070
 1442POPC   C4B20434   3.304  11.335   7.707
 1443POPC   NC320435  27.992  44.660   9.487
 1443POPC   PO420436  27.421  44.291   9.442
 1443POPC   GL120437  27.514  44.640   9.156
 1443POPC   GL220438  27.806  44.849   9.056
 1443POPC   C1A20439  27.488  44.585   8.724
 1443POPC   D2A20440  27.381  44.763   8.341
 1443POPC   C3A20441  27.635  44.605   8.014
 1443POPC   C4A20442  27.661  44.410   7.586
 1443POPC   C1B20443  27.990  44.530   8.773
 1443POPC   C2B20444  28.003  44.715   8.383
 1443POPC   C3B20445  27.989  44.988   8.040
 1443POPC   C4B20446  27.961  44.794   7.659
 1444POPC   NC320447  40.360  10.146   9.250
 1444POPC   PO420448  40.109  10.779   9.522
 1444POPC   GL120449  39.895  10.764   9.160
 1444POPC   GL220450  39.945  10.410   9.039
 1444POPC   C1A20451  39.739  10.740   8.731
 1444POPC   D2A20452  39.808  10.591   8.343
 1444POPC   C3A20453  39.938  10.862   8.021
 1444POPC   C4A20454  39.960  10.556   7.738
 1444POPC   C1B20455  40.186  10.326   8.615
 1444POPC   C2B20456  40.407  10.097   8.232
 1444POPC   C3B20457  40.293  10.169   7.777
 1444POPC   C4B20458  40.222  10.393   7.330
 1445POPC   NC320459  35.767   7.297   9.454
 1445POPC   PO420460  35.104   7.604   9.454
 1445POPC   GL120461  35.309   7.429   9.111
 1445POPC   GL220462  35.343   7.092   9.234
 1445POPC   C1A20463  35.476   7.545   8.676
 1445POPC   D2A20464  35.665   7.772   8.315
 1445POPC   C3A20465  35.418   7.712   7.969
 1445POPC   C4A20466  35.058   7.484   7.745
 1445POPC   C1B20467  35.550   7.046   8.831
 1445POPC   C2B20468  35.439   7.024   8.410
 1445POPC   C3B20469  35.527   7.223   8.040
 1445POPC   C4B20470  35.569   7.397   7.629
 1446POPC   NC320471  41.594  38.169   9.570
 1446POPC   PO420472  41.663  37.484   9.526
 1446POPC   GL120473  41.665  37.782   9.210
 1446POPC   GL220474  41.324  37.806   9.105
 1446POPC   C1A20475  41.698  37.833   8.754
 1446POPC   D2A20476  41.614  37.667   8.356
 1446POPC   C3A20477  41.840  37.809   8.011
 1446POPC   C4A20478  41.835  37.754   7.563
 1446POPC   C1B20479  41.195  37.726   8.673
 1446POPC   C2B20480  41.130  37.815   8.235
 1446POPC   C3B20481  41.348  37.893   7.807
 1446POPC   C4B20482  41.530  38.141   7.427
 1447POPC   NC320483  12.669   9.259   9.525
 1447POPC   PO420484  13.101   8.805   9.490
 1447POPC   GL120485  12.989   9.116   9.141
 1447POPC   GL220486  12.612   9.162   9.034
 1447POPC   C1A20487  13.184   9.234   8.755
 1447POPC   D2A20488  13.092   9.050   8.358
 1447POPC   C3A20489  13.216   9.220   7.967
 1447POPC   C4A20490  12.895   9.109   7.679
 1447POPC   C1B20491  12.673   9.325   8.611
 1447POPC   C2B20492  12.667   9.328   8.146
 1447POPC   C3B20493  12.472   9.377   7.733
 1447POPC   C4B20494  12.769   9.439   7.310
 1448POPC   NC320495  39.074  18.890   9.553
 1448POPC   PO420496  39.587  18.741   9.291
 1448POPC   GL120497  39.358  19.108   9.134
 1448POPC   GL220498  39.051  19.317   9.227
 1448POPC   C1A20499  39.326  19.069   8.733
 1448POPC   D2A20500  39.566  18.930   8.405
 1448POPC   C3A20501  39.297  18.965   8.065
 1448POPC   C4A20502  39.308  19.075   7.649
 1448POPC   C1B20503  38.848  19.211   8.824
 1448POPC   C2B20504  38.904  18.898   8.474
 1448POPC   C3B20505  38.827  18.767   8.043
 1448POPC   C4B20506  38.807  19.096   7.758
 1449POPC   NC320507  38.020  28.394   9.415
 1449POPC   PO420508  38.630  28.132   9.385
 1449POPC   GL120509  38.435  28.329   9.091
 1449POPC   GL220510  38.175  28.087   9.043
 1449POPC   C1A20511  38.563  28.589   8.777
 1449POPC   D2A20512  38.446  28.605   8.356
 1449POPC   C3A20513  38.651  28.465   7.994
 1449POPC   C4A20514  38.599  28.611   7.544
 1449POPC   C1B20515  38.110  28.292   8.652
 1449POPC   C2B20516  38.150  28.214   8.215
 1449POPC   C3B20517  38.151  28.433   7.832
 1449POPC   C4B20518  38.215  28.318   7.416
 1450POPC   NC320519  40.170  17.415   9.331
 1450POPC   PO420520  39.772  17.888   9.642
 1450POPC   GL120521  39.705  17.631   9.213
 1450POPC   GL220522  39.674  17.234   9.254
 1450POPC   C1A20523  39.907  17.561   8.763
 1450POPC   D2A20524  40.142  17.469   8.394
 1450POPC   C3A20525  40.018  17.699   8.045
 1450POPC   C4A20526  40.139  17.538   7.641
 1450POPC   C1B20527  39.569  17.208   8.806
 1450POPC   C2B20528  39.631  17.389   8.361
 1450POPC   C3B20529  39.843  17.231   7.965
 1450POPC   C4B20530  39.674  17.058   7.567
 1451POPC   NC320531  16.742   0.930   9.343
 1451POPC   PO420532  16.498   1.392   9.796
 1451POPC   GL120533  16.599   1.417   9.269
 1451POPC   GL220534  16.914   1.435   9.036
 1451POPC   C1A20535  16.511   1.270   8.800
 1451POPC   D2A20536  16.808   1.388   8.455
 1451POPC   C3A20537  16.663   1.388   8.048
 1451POPC   C4A20538  16.597   1.165   7.692
 1451POPC   C1B20539  17.009   1.052   8.783
 1451POPC   C2B20540  17.087   0.907   8.415
 1451POPC   C3B20541  16.901   0.924   8.052
 1451POPC   C4B20542  17.118   0.946   7.705
 1452POPC   NC320543   5.631  31.656   9.789
 1452POPC   PO420544   6.139  31.295   9.552
 1452POPC   GL120545   5.873  31.447   9.250
 1452POPC   GL220546   5.897  31.108   9.136
 1452POPC   C1A20547   5.691  31.543   8.836
 1452POPC   D2A20548   5.834  31.770   8.480
 1452POPC   C3A20549   5.791  31.619   8.072
 1452POPC   C4A20550   6.008  31.798   7.720
 1452POPC   C1B20551   5.745  31.049   8.768
 1452POPC   C2B20552   5.950  31.252   8.420
 1452POPC   C3B20553   6.151  31.239   8.013
 1452POPC   C4B20554   5.871  31.293   7.678
 1453POPC   NC320555  25.387  32.466   9.587
 1453POPC   PO420556  24.816  32.044   9.562
 1453POPC   GL120557  25.158  32.174   9.258
 1453POPC   GL220558  24.980  32.402   9.076
 1453POPC   C1A20559  25.453  32.416   8.920
 1453POPC   D2A20560  25.249  32.521   8.485
 1453POPC   C3A20561  25.318  32.298   8.067
 1453POPC   C4A20562  25.491  32.392   7.705
 1453POPC   C1B20563  25.160  32.056   8.765
 1453POPC   C2B20564  25.004  32.058   8.376
 1453POPC   C3B20565  24.824  32.184   8.035
 1453POPC   C4B20566  24.986  32.085   7.642
 1454POPC   NC320567  44.954  28.859   9.563
 1454POPC   PO420568  44.327  29.194   9.843
 1454POPC   GL120569  44.402  29.129   9.338
 1454POPC   GL220570  44.727  29.157   9.221
 1454POPC   C1A20571  44.436  29.236   8.832
 1454POPC   D2A20572  44.525  29.035   8.473
 1454POPC   C3A20573  44.588  29.293   8.098
 1454POPC   C4A20574  44.548  29.119   7.684
 1454POPC   C1B20575  44.894  28.980   8.848
 1454POPC   C2B20576   0.003  28.908   8.394
 1454POPC   C3B20577  44.775  28.838   8.056
 1454POPC   C4B20578  44.968  28.791   7.700
 1455POPC   NC320579  31.260   4.773   9.523
 1455POPC   PO420580  31.657   5.317   9.404
 1455POPC   GL120581  31.614   4.893   9.174
 1455POPC   GL220582  31.242   4.850   9.016
 1455POPC   C1A20583  31.673   4.798   8.755
 1455POPC   D2A20584  31.515   5.040   8.436
 1455POPC   C3A20585  31.634   4.910   8.039
 1455POPC   C4A20586  31.511   5.058   7.652
 1455POPC   C1B20587  31.149   5.245   8.788
 1455POPC   C2B20588  30.969   5.310   8.399
 1455POPC   C3B20589  31.168   5.147   8.045
 1455POPC   C4B20590  31.147   4.718   7.875
 1456POPC   NC320591  44.440  44.475   9.653
 1456POPC   PO420592  44.858  44.147   9.177
 1456POPC   GL120593  44.601  43.870   8.931
 1456POPC   GL220594  44.491  43.542   8.998
 1456POPC   C1A20595  44.405  44.026   8.571
 1456POPC   D2A20596  44.150  44.002   8.244
 1456POPC   C3A20597  44.488  43.950   7.932
 1456POPC   C4A20598  44.512  43.994   7.498
 1456POPC   C1B20599  44.874  43.411   8.769
 1456POPC   C2B20600   0.017  43.404   8.354
 1456POPC   C3B20601  44.757  43.528   8.036
 1456POPC   C4B20602  44.800  43.604   7.609
 1457POPC   NC320603  23.735  14.362   9.646
 1457POPC   PO420604  23.998  15.012   9.517
 1457POPC   GL120605  23.886  14.735   9.139
 1457POPC   GL220606  23.532  14.615   9.168
 1457POPC   C1A20607  23.753  14.618   8.696
 1457POPC   D2A20608  23.499  14.776   8.361
 1457POPC   C3A20609  23.665  14.635   7.992
 1457POPC   C4A20610  23.950  14.299   7.814
 1457POPC   C1B20611  23.444  14.246   8.871
 1457POPC   C2B20612  23.575  14.001   8.484
 1457POPC   C3B20613  23.541  14.123   8.040
 1457POPC   C4B20614  23.433  14.365   7.641
 1458POPC   NC320615  16.777  43.501   9.338
 1458POPC   PO420616  16.660  42.943   9.742
 1458POPC   GL120617  16.755  42.987   9.278
 1458POPC   GL220618  17.047  42.877   9.178
 1458POPC   C1A20619  16.711  43.130   8.806
 1458POPC   D2A20620  16.603  43.324   8.381
 1458POPC   C3A20621  16.461  43.158   8.003
 1458POPC   C4A20622  16.675  43.323   7.659
 1458POPC   C1B20623  17.172  42.858   8.763
 1458POPC   C2B20624  16.941  42.929   8.404
 1458POPC   C3B20625  16.971  43.104   8.024
 1458POPC   C4B20626  17.128  42.802   7.772
 1459POPC   NC320627  38.736  37.043   9.596
 1459POPC   PO420628  38.116  36.846   9.444
 1459POPC   GL120629  38.280  36.889   9.048
 1459POPC   GL220630  38.311  37.249   9.097
 1459POPC   C1A20631  38.374  36.644   8.647
 1459POPC   D2A20632  38.498  36.479   8.225
 1459POPC   C3A20633  38.539  36.823   7.917
 1459POPC   C4A20634  38.772  37.217   7.808
 1459POPC   C1B20635  38.350  37.196   8.645
 1459POPC   C2B20636  38.496  37.228   8.252
 1459POPC   C3B20637  38.265  37.271   7.889
 1459POPC   C4B20638  37.912  37.172   7.609
 1460POPC   NC320639  30.297   1.000   9.395
 1460POPC   PO420640  30.700   1.614   9.529
 1460POPC   GL120641  30.555   1.446   9.176
 1460POPC   GL220642  30.762   1.190   9.222
 1460POPC   C1A20643  30.391   1.260   8.794
 1460POPC   D2A20644  30.551   1.379   8.404
 1460POPC   C3A20645  30.498   1.148   8.048
 1460POPC   C4A20646  30.647   1.230   7.659
 1460POPC   C1B20647  30.893   1.221   8.799
 1460POPC   C2B20648  31.078   1.301   8.396
 1460POPC   C3B20649  31.159   1.217   7.981
 1460POPC   C4B20650  31.117   1.421   7.622
 1461POPC   NC320651   4.987   6.425   9.528
 1461POPC   PO420652   4.912   7.112   9.551
 1461POPC   GL120653   5.145   6.918   9.164
 1461POPC   GL220654   5.171   6.574   9.091
 1461POPC   C1A20655   4.940   6.827   8.727
 1461POPC   D2A20656   4.879   6.544   8.375
 1461POPC   C3A20657   4.893   6.726   7.997
 1461POPC   C4A20658   5.238   6.711   7.728
 1461POPC   C1B20659   5.330   6.498   8.694
 1461POPC   C2B20660   5.338   6.835   8.379
 1461POPC   C3B20661   5.611   6.906   8.036
 1461POPC   C4B20662   5.738   6.516   7.769
 1462POPC   NC320663  13.589  38.849   9.389
 1462POPC   PO420664  13.803  39.442   9.575
 1462POPC   GL120665  13.554  39.366   9.180
 1462POPC   GL220666  13.249  39.125   9.103
 1462POPC   C1A20667  13.697  39.245   8.778
 1462POPC   D2A20668  13.555  39.110   8.391
 1462POPC   C3A20669  13.702  39.291   8.019
 1462POPC   C4A20670  13.728  39.140   7.572
 1462POPC   C1B20671  13.119  38.961   8.679
 1462POPC   C2B20672  13.164  38.819   8.219
 1462POPC   C3B20673  13.279  39.057   7.840
 1462POPC   C4B20674  13.253  39.053   7.370
 1463POPC   NC320675  13.478  23.362   9.327
 1463POPC   PO420676  13.563  24.049   9.456
 1463POPC   GL120677  13.627  23.776   9.067
 1463POPC   GL220678  13.269  23.783   8.917
 1463POPC   C1A20679  13.620  23.650   8.594
 1463POPC   D2A20680  13.512  23.993   8.325
 1463POPC   C3A20681  13.428  23.850   7.922
 1463POPC   C4A20682  13.621  23.912   7.541
 1463POPC   C1B20683  13.222  23.329   8.695
 1463POPC   C2B20684  13.421  23.147   8.351
 1463POPC   C3B20685  13.554  23.348   7.974
 1463POPC   C4B20686  13.378  23.464   7.574
 1464POPC   NC320687  35.806  29.728   9.416
 1464POPC   PO420688  36.457  29.981   9.465
 1464POPC   GL120689  36.311  29.719   9.073
 1464POPC   GL220690  35.957  29.563   8.971
 1464POPC   C1A20691  36.184  29.924   8.665
 1464POPC   D2A20692  36.005  30.168   8.309
 1464POPC   C3A20693  36.277  30.098   7.969
 1464POPC   C4A20694  36.543  29.758   7.781
 1464POPC   C1B20695  36.207  29.405   8.639
 1464POPC   C2B20696  36.192  29.606   8.228
 1464POPC   C3B20697  35.937  29.712   7.877
 1464POPC   C4B20698  35.722  30.090   7.855
 1465POPC   NC320699  38.854  24.963   9.520
 1465POPC   PO420700  38.367  25.503   9.513
 1465POPC   GL120701  38.479  25.399   9.115
 1465POPC   GL220702  38.819  25.328   9.158
 1465POPC   C1A20703  38.537  25.255   8.677
 1465POPC   D2A20704  38.322  25.015   8.419
 1465POPC   C3A20705  38.233  25.155   8.037
 1465POPC   C4A20706  38.484  25.204   7.663
 1465POPC   C1B20707  38.848  25.624   8.824
 1465POPC   C2B20708  38.940  25.511   8.452
 1465POPC   C3B20709  38.684  25.405   8.121
 1465POPC   C4B20710  38.759  25.676   7.764
 1466POPC   NC320711  15.508  19.101   9.523
 1466POPC   PO420712  14.790  19.298   9.432
 1466POPC   GL120713  15.108  19.113   9.228
 1466POPC   GL220714  15.261  19.360   9.113
 1466POPC   C1A20715  15.285  18.868   8.889
 1466POPC   D2A20716  15.135  18.744   8.485
 1466POPC   C3A20717  15.247  18.830   8.082
 1466POPC   C4A20718  14.985  18.863   7.761
 1466POPC   C1B20719  15.007  19.278   8.721
 1466POPC   C2B20720  15.097  19.275   8.271
 1466POPC   C3B20721  15.036  19.462   7.851
 1466POPC   C4B20722  14.903  19.540   7.408
 1467POPC   NC320723  15.350   0.094   9.522
 1467POPC   PO420724  16.009  44.819   9.657
 1467POPC   GL120725  15.970  44.642   9.262
 1467POPC   GL220726  15.683  44.826   9.197
 1467POPC   C1A20727  15.988  44.627   8.807
 1467POPC   D2A20728  15.887  44.503   8.369
 1467POPC   C3A20729  16.127  44.747   8.092
 1467POPC   C4A20730  16.252  44.882   7.690
 1467POPC   C1B20731  15.684   0.093   8.836
 1467POPC   C2B20732  15.843   0.026   8.430
 1467POPC   C3B20733  15.683   0.012   8.016
 1467POPC   C4B20734  15.636  44.660   7.706
 1468POPC   NC320735  28.762   8.300   9.344
 1468POPC   PO420736  28.216   8.018   9.773
 1468POPC   GL120737  28.323   8.000   9.235
 1468POPC   GL220738  28.344   8.310   9.006
 1468POPC   C1A20739  28.427   7.882   8.782
 1468POPC   D2A20740  28.536   8.105   8.371
 1468POPC   C3A20741  28.433   8.022   7.916
 1468POPC   C4A20742  28.613   7.832   7.535
 1468POPC   C1B20743  28.665   8.515   8.725
 1468POPC   C2B20744  28.825   8.532   8.304
 1468POPC   C3B20745  28.628   8.544   7.890
 1468POPC   C4B20746  28.195   8.467   7.741
 1469POPC   NC320747  21.812  22.306   9.489
 1469POPC   PO420748  21.097  22.426   9.441
 1469POPC   GL120749  21.420  22.258   9.146
 1469POPC   GL220750  21.608  21.965   9.191
 1469POPC   C1A20751  21.545  22.229   8.725
 1469POPC   D2A20752  21.264  22.122   8.409
 1469POPC   C3A20753  21.313  22.437   8.128
 1469POPC   C4A20754  21.209  22.345   7.732
 1469POPC   C1B20755  21.730  21.777   8.820
 1469POPC   C2B20756  21.711  21.877   8.368
 1469POPC   C3B20757  21.538  21.996   7.975
 1469POPC   C4B20758  21.640  21.843   7.585
 1470POPC   NC320759  31.120   6.628   9.211
 1470POPC   PO420760  30.583   6.999   9.518
 1470POPC   GL120761  30.598   6.803   9.112
 1470POPC   GL220762  30.626   6.461   9.188
 1470POPC   C1A20763  30.754   6.702   8.689
 1470POPC   D2A20764  30.880   6.639   8.280
 1470POPC   C3A20765  30.544   6.764   7.983
 1470POPC   C4A20766  30.582   6.839   7.572
 1470POPC   C1B20767  30.555   6.249   8.818
 1470POPC   C2B20768  30.826   6.167   8.480
 1470POPC   C3B20769  30.824   6.208   8.044
 1470POPC   C4B20770  30.725   6.352   7.638
 1471POPC   NC320771  22.953   3.491   9.580
 1471POPC   PO420772  22.518   3.908   9.348
 1471POPC   GL120773  22.771   3.554   9.127
 1471POPC   GL220774  22.722   3.170   9.216
 1471POPC   C1A20775  23.077   3.512   8.811
 1471POPC   D2A20776  22.937   3.436   8.395
 1471POPC   C3A20777  23.095   3.620   8.015
 1471POPC   C4A20778  22.906   3.973   7.846
 1471POPC   C1B20779  22.728   3.129   8.768
 1471POPC   C2B20780  22.613   3.043   8.345
 1471POPC   C3B20781  22.881   3.127   7.987
 1471POPC   C4B20782  22.811   3.349   7.615
 1472POPC   NC320783  20.029  14.117   9.321
 1472POPC   PO420784  20.139  13.478   9.406
 1472POPC   GL120785  20.009  13.456   9.008
 1472POPC   GL220786  19.917  13.780   8.973
 1472POPC   C1A20787  19.743  13.441   8.652
 1472POPC   D2A20788  19.986  13.398   8.298
 1472POPC   C3A20789  19.634  13.406   8.080
 1472POPC   C4A20790  19.462  13.764   7.939
 1472POPC   C1B20791  20.099  13.999   8.655
 1472POPC   C2B20792  19.936  14.175   8.290
 1472POPC   C3B20793  19.972  13.948   7.956
 1472POPC   C4B20794  20.032  13.554   7.807
 1473POPC   NC320795  27.284  18.912   9.561
 1473POPC   PO420796  27.651  19.500   9.386
 1473POPC   GL120797  27.464  19.176   9.113
 1473POPC   GL220798  27.411  18.794   9.095
 1473POPC   C1A20799  27.458  19.093   8.674
 1473POPC   D2A20800  27.196  19.228   8.354
 1473POPC   C3A20801  27.448  19.225   8.008
 1473POPC   C4A20802  27.515  18.911   7.749
 1473POPC   C1B20803  27.820  18.821   8.894
 1473POPC   C2B20804  27.859  18.800   8.416
 1473POPC   C3B20805  27.938  18.643   7.951
 1473POPC   C4B20806  28.096  18.765   7.509
 1474POPC   NC320807  24.087  10.936   9.522
 1474POPC   PO420808  23.615  11.415   9.407
 1474POPC   GL120809  23.594  11.294   9.010
 1474POPC   GL220810  23.763  11.002   9.077
 1474POPC   C1A20811  23.771  11.352   8.624
 1474POPC   D2A20812  23.611  11.567   8.300
 1474POPC   C3A20813  23.431  11.361   7.975
 1474POPC   C4A20814  23.782  11.410   7.732
 1474POPC   C1B20815  23.676  10.848   8.705
 1474POPC   C2B20816  23.789  10.730   8.303
 1474POPC   C3B20817  23.766  10.946   7.946
 1474POPC   C4B20818  23.907  10.945   7.530
 1475POPC   NC320819  24.194  37.067   9.576
 1475POPC   PO420820  24.544  36.428   9.579
 1475POPC   GL120821  24.572  36.660   9.201
 1475POPC   GL220822  24.697  36.975   9.338
 1475POPC   C1A20823  24.651  36.704   8.751
 1475POPC   D2A20824  24.401  36.771   8.372
 1475POPC   C3A20825  24.647  36.747   7.975
 1475POPC   C4A20826  24.608  36.738   7.528
 1475POPC   C1B20827  24.636  37.183   8.952
 1475POPC   C2B20828  24.678  37.208   8.499
 1475POPC   C3B20829  24.462  37.212   8.110
 1475POPC   C4B20830  24.573  37.351   7.720
 1476POPC   NC320831   7.459  36.572   9.548
 1476POPC   PO420832   7.004  36.952   9.469
 1476POPC   GL120833   7.323  36.903   9.138
 1476POPC   GL220834   7.663  36.786   9.113
 1476POPC   C1A20835   7.461  37.060   8.739
 1476POPC   D2A20836   7.171  37.163   8.416
 1476POPC   C3A20837   7.420  37.195   8.065
 1476POPC   C4A20838   7.402  37.067   7.665
 1476POPC   C1B20839   7.605  36.559   8.722
 1476POPC   C2B20840   7.522  36.758   8.323
 1476POPC   C3B20841   7.503  36.615   7.906
 1476POPC   C4B20842   7.710  36.654   7.508
 1477POPC   NC320843  12.278   1.734   9.403
 1477POPC   PO420844  11.964   2.451   9.489
 1477POPC   GL120845  12.120   2.250   9.118
 1477POPC   GL220846  12.468   2.167   9.157
 1477POPC   C1A20847  12.110   2.041   8.698
 1477POPC   D2A20848  11.965   1.835   8.313
 1477POPC   C3A20849  11.717   1.984   7.950
 1477POPC   C4A20850  11.729   2.096   7.488
 1477POPC   C1B20851  12.459   2.424   8.777
 1477POPC   C2B20852  12.445   2.292   8.351
 1477POPC   C3B20853  12.389   2.487   7.926
 1477POPC   C4B20854  12.162   2.158   7.733
 1478POPC   NC320855   7.142  33.597   9.418
 1478POPC   PO420856   7.747  33.914   9.607
 1478POPC   GL120857   7.493  33.996   9.210
 1478POPC   GL220858   7.134  34.071   9.171
 1478POPC   C1A20859   7.413  33.835   8.780
 1478POPC   D2A20860   7.586  33.477   8.536
 1478POPC   C3A20861   7.625  33.533   8.071
 1478POPC   C4A20862   7.499  33.724   7.679
 1478POPC   C1B20863   7.048  34.201   8.726
 1478POPC   C2B20864   7.257  34.064   8.324
 1478POPC   C3B20865   7.278  34.152   7.871
 1478POPC   C4B20866   7.101  34.010   7.452
 1479POPC   NC320867  22.528  10.572   9.494
 1479POPC   PO420868  23.045  10.130   9.421
 1479POPC   GL120869  23.076  10.584   9.189
 1479POPC   GL220870  22.759  10.712   9.033
 1479POPC   C1A20871  23.178  10.839   8.768
 1479POPC   D2A20872  23.327  10.947   8.316
 1479POPC   C3A20873  23.171  10.712   7.942
 1479POPC   C4A20874  22.751  10.627   7.769
 1479POPC   C1B20875  22.965  10.378   8.710
 1479POPC   C2B20876  23.007  10.268   8.233
 1479POPC   C3B20877  22.776  10.111   7.869
 1479POPC   C4B20878  22.855  10.088   7.410
 1480POPC   NC320879   2.675  26.275   9.531
 1480POPC   PO420880   2.538  25.610   9.537
 1480POPC   GL120881   2.661  25.827   9.117
 1480POPC   GL220882   2.772  26.200   9.043
 1480POPC   C1A20883   2.714  25.883   8.671
 1480POPC   D2A20884   2.753  26.148   8.359
 1480POPC   C3A20885   2.804  25.942   7.949
 1480POPC   C4A20886   3.021  25.998   7.520
 1480POPC   C1B20887   2.484  26.336   8.764
 1480POPC   C2B20888   2.199  26.334   8.428
 1480POPC   C3B20889   2.371  26.335   8.038
 1480POPC   C4B20890   2.573  26.272   7.641
 1481POPC   NC320891  24.174   4.784   9.403
 1481POPC   PO420892  24.830   5.020   9.504
 1481POPC   GL120893  24.505   5.118   9.138
 1481POPC   GL220894  24.360   5.489   9.107
 1481POPC   C1A20895  24.598   5.037   8.675
 1481POPC   D2A20896  24.881   5.107   8.301
 1481POPC   C3A20897  24.654   5.034   7.919
 1481POPC   C4A20898  24.303   4.755   7.907
 1481POPC   C1B20899  24.409   5.485   8.680
 1481POPC   C2B20900  24.369   5.296   8.261
 1481POPC   C3B20901  24.181   5.327   7.834
 1481POPC   C4B20902  24.044   5.370   7.350
 1482POPC   NC320903  32.801  11.348   9.389
 1482POPC   PO420904  33.309  10.883   9.492
 1482POPC   GL120905  33.241  11.059   9.045
 1482POPC   GL220906  32.884  11.162   8.935
 1482POPC   C1A20907  33.291  11.373   8.689
 1482POPC   D2A20908  33.436  11.681   8.353
 1482POPC   C3A20909  33.313  11.439   8.010
 1482POPC   C4A20910  33.060  11.475   7.648
 1482POPC   C1B20911  32.644  10.907   8.662
 1482POPC   C2B20912  32.917  10.986   8.312
 1482POPC   C3B20913  32.942  11.067   7.898
 1482POPC   C4B20914  32.742  11.136   7.469
 1483POPC   NC320915  32.499  13.963   9.694
 1483POPC   PO420916  31.814  13.923   9.554
 1483POPC   GL120917  32.171  13.741   9.268
 1483POPC   GL220918  32.148  13.404   9.127
 1483POPC   C1A20919  32.224  13.748   8.778
 1483POPC   D2A20920  32.318  13.556   8.353
 1483POPC   C3A20921  32.285  13.770   7.947
 1483POPC   C4A20922  32.118  13.987   7.564
 1483POPC   C1B20923  32.465  13.249   8.768
 1483POPC   C2B20924  32.669  13.194   8.329
 1483POPC   C3B20925  32.611  13.242   7.889
 1483POPC   C4B20926  32.211  13.300   7.744
 1484POPC   NC320927  39.458   4.256   9.594
 1484POPC   PO420928  40.114   4.154   9.554
 1484POPC   GL120929  39.898   4.150   9.195
 1484POPC   GL220930  40.145   4.000   8.999
 1484POPC   C1A20931  39.794   4.286   8.769
 1484POPC   D2A20932  39.941   4.251   8.363
 1484POPC   C3A20933  39.833   4.613   8.100
 1484POPC   C4A20934  39.742   4.533   7.662
 1484POPC   C1B20935  40.320   4.347   8.736
 1484POPC   C2B20936  40.445   4.340   8.278
 1484POPC   C3B20937  40.174   4.312   7.903
 1484POPC   C4B20938  40.206   4.506   7.472
 1485POPC   NC320939   2.245  14.217   9.662
 1485POPC   PO420940   2.881  14.191   9.509
 1485POPC   GL120941   2.628  14.365   9.197
 1485POPC   GL220942   2.417  14.105   9.181
 1485POPC   C1A20943   2.802  14.387   8.764
 1485POPC   D2A20944   3.011  14.397   8.342
 1485POPC   C3A20945   2.788  14.488   7.951
 1485POPC   C4A20946   2.959  14.550   7.510
 1485POPC   C1B20947   2.413  13.971   8.772
 1485POPC   C2B20948   2.573  14.103   8.407
 1485POPC   C3B20949   2.561  14.003   8.009
 1485POPC   C4B20950   2.710  14.127   7.582
 1486POPC   NC320951  41.976  27.488   9.425
 1486POPC   PO420952  42.096  28.074   9.685
 1486POPC   GL120953  42.282  27.893   9.262
 1486POPC   GL220954  42.440  27.542   9.224
 1486POPC   C1A20955  42.215  27.699   8.809
 1486POPC   D2A20956  41.933  27.759   8.452
 1486POPC   C3A20957  42.139  27.633   8.082
 1486POPC   C4A20958  42.077  27.775   7.685
 1486POPC   C1B20959  42.481  27.237   8.883
 1486POPC   C2B20960  42.716  27.318   8.502
 1486POPC   C3B20961  42.632  27.241   8.071
 1486POPC   C4B20962  42.523  27.516   7.725
 1487POPC   NC320963  24.601   5.411   9.550
 1487POPC   PO420964  24.357   6.022   9.488
 1487POPC   GL120965  24.553   5.988   9.094
 1487POPC   GL220966  24.817   5.751   9.192
 1487POPC   C1A20967  24.453   5.974   8.657
 1487POPC   D2A20968  24.227   5.800   8.333
 1487POPC   C3A20969  24.363   5.958   7.994
 1487POPC   C4A20970  24.383   6.159   7.632
 1487POPC   C1B20971  24.909   5.732   8.745
 1487POPC   C2B20972  24.729   5.687   8.313
 1487POPC   C3B20973  24.640   5.554   7.889
 1487POPC   C4B20974  24.477   5.675   7.479
 1488POPC   NC320975  43.567   7.786   9.471
 1488POPC   PO420976  43.873   7.132   9.569
 1488POPC   GL120977  43.799   7.400   9.245
 1488POPC   GL220978  44.114   7.533   9.114
 1488POPC   C1A20979  43.705   7.419   8.832
 1488POPC   D2A20980  43.993   7.674   8.614
 1488POPC   C3A20981  44.045   7.601   8.189
 1488POPC   C4A20982  43.857   7.395   7.853
 1488POPC   C1B20983  44.146   7.161   8.888
 1488POPC   C2B20984  43.983   7.130   8.482
 1488POPC   C3B20985  44.190   7.093   8.110
 1488POPC   C4B20986  44.071   6.969   7.708
 1489POPC   NC320987  32.205  43.362   9.734
 1489POPC   PO420988  32.761  43.005   9.515
 1489POPC   GL120989  32.428  43.115   9.193
 1489POPC   GL220990  32.104  43.279   9.213
 1489POPC   C1A20991  32.376  43.024   8.751
 1489POPC   D2A20992  32.533  43.104   8.351
 1489POPC   C3A20993  32.345  42.963   7.930
 1489POPC   C4A20994  32.635  43.065   7.552
 1489POPC   C1B20995  31.911  43.218   8.795
 1489POPC   C2B20996  31.971  43.038   8.354
 1489POPC   C3B20997  31.886  43.207   7.929
 1489POPC   C4B20998  32.128  43.235   7.529
 1490POPC   NC320999  21.518  32.493   9.517
 1490POPC   PO421000  21.865  31.938   9.351
 1490POPC   GL121001  21.569  32.157   9.078
 1490POPC   GL221002  21.214  32.193   9.157
 1490POPC   C1A21003  21.386  32.249   8.663
 1490POPC   D2A21004  21.528  32.335   8.245
 1490POPC   C3A21005  21.219  32.491   7.987
 1490POPC   C4A21006  21.070  32.468   7.585
 1490POPC   C1B21007  20.956  31.992   8.797
 1490POPC   C2B21008  20.980  32.054   8.323
 1490POPC   C3B21009  21.279  31.961   7.973
 1490POPC   C4B21010  21.682  31.775   7.760
 1491POPC   NC321011   8.695  17.260   9.450
 1491POPC   PO421012   9.368  17.448   9.579
 1491POPC   GL121013   9.097  17.540   9.216
 1491POPC   GL221014   8.751  17.705   9.165
 1491POPC   C1A21015   9.173  17.616   8.791
 1491POPC   D2A21016   9.068  17.420   8.406
 1491POPC   C3A21017   9.193  17.559   8.007
 1491POPC   C4A21018   9.105  17.451   7.597
 1491POPC   C1B21019   8.690  17.430   8.779
 1491POPC   C2B21020   8.559  17.285   8.338
 1491POPC   C3B21021   8.629  17.405   7.864
 1491POPC   C4B21022   8.704  17.217   7.426
 1492POPC   NC321023  30.561  18.302   9.576
 1492POPC   PO421024  31.150  18.413   9.460
 1492POPC   GL121025  30.841  18.146   9.143
 1492POPC   GL221026  30.449  18.104   9.135
 1492POPC   C1A21027  30.645  18.249   8.701
 1492POPC   D2A21028  30.316  18.510   8.459
 1492POPC   C3A21029  30.462  18.436   8.035
 1492POPC   C4A21030  30.779  18.178   7.837
 1492POPC   C1B21031  30.270  17.896   8.796
 1492POPC   C2B21032  30.293  18.011   8.364
 1492POPC   C3B21033  30.411  17.868   7.945
 1492POPC   C4B21034  30.406  17.930   7.452
 1493POPC   NC321035  11.694  39.333   9.484
 1493POPC   PO421036  12.258  39.036   9.488
 1493POPC   GL121037  12.121  39.131   9.078
 1493POPC   GL221038  11.855  38.959   9.153
 1493POPC   C1A21039  12.015  39.204   8.590
 1493POPC   D2A21040  12.260  39.030   8.222
 1493POPC   C3A21041  12.338  39.285   7.840
 1493POPC   C4A21042  12.349  39.246   7.369
 1493POPC   C1B21043  11.942  38.747   8.771
 1493POPC   C2B21044  11.796  38.782   8.355
 1493POPC   C3B21045  11.941  38.775   7.927
 1493POPC   C4B21046  11.955  39.047   7.595
 1494POPC   NC321047  11.729  14.441   9.493
 1494POPC   PO421048  11.085  14.590   9.496
 1494POPC   GL121049  11.291  14.451   9.142
 1494POPC   GL221050  11.564  14.682   9.064
 1494POPC   C1A21051  11.432  14.213   8.771
 1494POPC   D2A21052  11.261  14.252   8.337
 1494POPC   C3A21053  11.551  14.256   7.955
 1494POPC   C4A21054  11.339  14.208   7.553
 1494POPC   C1B21055  11.281  14.699   8.697
 1494POPC   C2B21056  11.099  14.812   8.301
 1494POPC   C3B21057  11.241  14.653   7.901
 1494POPC   C4B21058  11.648  14.748   7.703
 1495POPC   NC321059  35.781  16.535   9.588
 1495POPC   PO421060  35.245  16.928   9.495
 1495POPC   GL121061  35.418  16.717   9.183
 1495POPC   GL221062  35.664  16.956   9.164
 1495POPC   C1A21063  35.334  16.809   8.758
 1495POPC   D2A21064  35.388  17.015   8.365
 1495POPC   C3A21065  35.181  16.705   8.118
 1495POPC   C4A21066  35.204  16.514   7.724
 1495POPC   C1B21067  35.830  16.835   8.759
 1495POPC   C2B21068  35.833  16.607   8.371
 1495POPC   C3B21069  35.679  16.723   7.959
 1495POPC   C4B21070  35.420  17.049   7.780
 1496POPC   NC321071  28.735  16.755   9.518
 1496POPC   PO421072  28.220  17.146   9.640
 1496POPC   GL121073  28.305  16.889   9.238
 1496POPC   GL221074  28.075  16.919   8.969
 1496POPC   C1A21075  28.506  16.715   8.829
 1496POPC   D2A21076  28.291  16.650   8.427
 1496POPC   C3A21077  28.518  16.449   8.106
 1496POPC   C4A21078  28.600  16.712   7.740
 1496POPC   C1B21079  28.261  17.149   8.598
 1496POPC   C2B21080  27.986  17.033   8.286
 1496POPC   C3B21081  28.080  16.845   7.898
 1496POPC   C4B21082  27.933  16.960   7.487
 1497POPC   NC321083  12.600  12.364   9.510
 1497POPC   PO421084  13.155  12.015   9.487
 1497POPC   GL121085  13.039  12.208   9.088
 1497POPC   GL221086  12.704  12.208   9.038
 1497POPC   C1A21087  13.024  12.044   8.644
 1497POPC   D2A21088  12.707  11.847   8.380
 1497POPC   C3A21089  12.863  11.855   7.976
 1497POPC   C4A21090  12.657  11.913   7.617
 1497POPC   C1B21091  12.477  12.200   8.673
 1497POPC   C2B21092  12.447  12.450   8.302
 1497POPC   C3B21093  12.433  12.253   7.915
 1497POPC   C4B21094  12.470  12.375   7.461
 1498POPC   NC321095  39.293  37.366   9.734
 1498POPC   PO421096  39.093  36.737   9.627
 1498POPC   GL121097  39.321  36.811   9.249
 1498POPC   GL221098  39.365  37.154   9.252
 1498POPC   C1A21099  39.206  36.726   8.814
 1498POPC   D2A21100  38.862  36.815   8.498
 1498POPC   C3A21101  39.013  36.847   8.087
 1498POPC   C4A21102  39.164  36.596   7.760
 1498POPC   C1B21103  39.386  37.222   8.796
 1498POPC   C2B21104  39.425  36.970   8.408
 1498POPC   C3B21105  39.506  36.913   7.983
 1498POPC   C4B21106  39.252  37.091   7.624
 1499POPC   NC321107  35.117  33.557   9.469
 1499POPC   PO421108  35.418  34.198   9.465
 1499POPC   GL121109  35.381  33.890   9.136
 1499POPC   GL221110  35.744  33.988   9.120
 1499POPC   C1A21111  35.182  33.657   8.753
 1499POPC   D2A21112  35.084  33.794   8.307
 1499POPC   C3A21113  35.263  33.678   7.886
 1499POPC   C4A21114  35.321  33.755   7.408
 1499POPC   C1B21115  35.736  33.647   8.818
 1499POPC   C2B21116  35.593  33.678   8.417
 1499POPC   C3B21117  35.543  33.999   8.145
 1499POPC   C4B21118  35.694  33.943   7.724
 1500POPC   NC321119  32.916  13.117   9.360
 1500POPC   PO421120  32.692  13.536   9.835
 1500POPC   GL121121  32.918  13.608   9.387
 1500POPC   GL221122  32.662  13.566   9.123
 1500POPC   C1A21123  33.157  13.644   8.937
 1500POPC   D2A21124  33.445  13.496   8.599
 1500POPC   C3A21125  33.345  13.664   8.177
 1500POPC   C4A21126  33.307  13.736   7.728
 1500POPC   C1B21127  32.724  13.756   8.702
 1500POPC   C2B21128  32.845  13.714   8.290
 1500POPC   C3B21129  32.806  13.723   7.868
 1500POPC   C4B21130  32.894  13.958   7.495
 1501POPC   NC321131   9.581  24.598   9.976
 1501POPC   PO421132  10.063  24.582   9.540
 1501POPC   GL121133  10.122  24.484   9.115
 1501POPC   GL221134   9.790  24.619   9.072
 1501POPC   C1A21135  10.111  24.575   8.665
 1501POPC   D2A21136  10.117  24.285   8.308
 1501POPC   C3A21137  10.094  24.569   7.971
 1501POPC   C4A21138   9.910  24.618   7.552
 1501POPC   C1B21139   9.727  24.253   8.805
 1501POPC   C2B21140   9.614  24.215   8.366
 1501POPC   C3B21141   9.670  24.296   7.915
 1501POPC   C4B21142   9.452  24.671   7.764
 1502POPC   NC321143  37.774   1.842   9.443
 1502POPC   PO421144  37.351   2.284   9.420
 1502POPC   GL121145  37.471   2.016   9.079
 1502POPC   GL221146  37.390   1.623   9.095
 1502POPC   C1A21147  37.770   1.997   8.735
 1502POPC   D2A21148  37.899   2.241   8.385
 1502POPC   C3A21149  37.790   2.334   7.957
 1502POPC   C4A21150  37.811   2.250   7.507
 1502POPC   C1B21151  37.628   1.504   8.699
 1502POPC   C2B21152  37.649   1.692   8.329
 1502POPC   C3B21153  37.595   1.809   7.961
 1502POPC   C4B21154  37.933   1.823   7.735
 1503POPC   NC321155  24.773   8.730   9.347
 1503POPC   PO421156  24.336   9.185   9.708
 1503POPC   GL121157  24.300   9.038   9.278
 1503POPC   GL221158  24.321   8.737   9.064
 1503POPC   C1A21159  24.254   9.148   8.824
 1503POPC   D2A21160  24.101   9.146   8.423
 1503POPC   C3A21161  24.348   8.881   8.146
 1503POPC   C4A21162  24.488   9.126   7.792
 1503POPC   C1B21163  24.300   8.575   8.644
 1503POPC   C2B21164  24.266   8.349   8.274
 1503POPC   C3B21165  24.213   8.415   7.848
 1503POPC   C4B21166  24.440   8.673   7.578
 1504POPC   NC321167  35.439   7.901   9.324
 1504POPC   PO421168  35.065   8.460   9.443
 1504POPC   GL121169  35.004   8.251   9.041
 1504POPC   GL221170  35.022   7.885   9.038
 1504POPC   C1A21171  35.250   8.362   8.664
 1504POPC   D2A21172  35.635   8.304   8.410
 1504POPC   C3A21173  35.531   8.217   7.978
 1504POPC   C4A21174  35.266   8.451   7.692
 1504POPC   C1B21175  34.986   7.810   8.654
 1504POPC   C2B21176  35.174   7.972   8.326
 1504POPC   C3B21177  34.986   7.973   7.949
 1504POPC   C4B21178  35.198   7.964   7.583
 1505POPC   NC321179   8.480  19.344   9.562
 1505POPC   PO421180   8.113  18.855   9.402
 1505POPC   GL121181   8.186  19.220   9.169
 1505POPC   GL221182   8.512  19.330   9.059
 1505POPC   C1A21183   8.020  19.286   8.807
 1505POPC   D2A21184   7.900  18.966   8.486
 1505POPC   C3A21185   8.184  18.913   8.123
 1505POPC   C4A21186   8.151  19.225   7.782
 1505POPC   C1B21187   8.482  19.123   8.682
 1505POPC   C2B21188   8.693  19.268   8.294
 1505POPC   C3B21189   8.664  19.198   7.835
 1505POPC   C4B21190   8.606  18.884   7.501
 1506POPC   NC321191  13.486  19.781   9.814
 1506POPC   PO421192  12.869  19.877   9.463
 1506POPC   GL121193  12.775  19.691   9.109
 1506POPC   GL221194  13.101  19.493   9.044
 1506POPC   C1A21195  12.517  19.814   8.764
 1506POPC   D2A21196  12.609  19.754   8.358
 1506POPC   C3A21197  12.805  20.083   8.214
 1506POPC   C4A21198  12.906  19.976   7.803
 1506POPC   C1B21199  12.991  19.621   8.663
 1506POPC   C2B21200  12.960  19.379   8.347
 1506POPC   C3B21201  12.954  19.476   7.943
 1506POPC   C4B21202  13.027  19.502   7.523
 1507POPC   NC321203   2.978  24.474   9.436
 1507POPC   PO421204   2.321  24.361   9.399
 1507POPC   GL121205   2.584  24.461   9.106
 1507POPC   GL221206   2.628  24.787   9.227
 1507POPC   C1A21207   2.719  24.315   8.721
 1507POPC   D2A21208   2.547  24.391   8.314
 1507POPC   C3A21209   2.772  24.318   7.932
 1507POPC   C4A21210   3.180  24.216   7.818
 1507POPC   C1B21211   2.943  24.752   8.839
 1507POPC   C2B21212   3.036  24.600   8.418
 1507POPC   C3B21213   2.907  24.789   8.025
 1507POPC   C4B21214   3.006  24.677   7.621
 1508POPC   NC321215  37.913  25.910   9.528
 1508POPC   PO421216  37.278  26.135   9.460
 1508POPC   GL121217  37.548  25.900   9.168
 1508POPC   GL221218  37.820  26.151   9.092
 1508POPC   C1A21219  37.778  25.746   8.782
 1508POPC   D2A21220  37.564  25.703   8.383
 1508POPC   C3A21221  37.701  25.858   7.984
 1508POPC   C4A21222  37.608  26.277   7.754
 1508POPC   C1B21223  38.087  26.171   8.711
 1508POPC   C2B21224  38.114  26.075   8.259
 1508POPC   C3B21225  38.106  26.138   7.807
 1508POPC   C4B21226  38.206  26.160   7.376
 1509POPC   NC321227   3.708  24.031   9.425
 1509POPC   PO421228   3.375  23.411   9.588
 1509POPC   GL121229   3.577  23.557   9.178
 1509POPC   GL221230   3.946  23.623   9.177
 1509POPC   C1A21231   3.431  23.788   8.796
 1509POPC   D2A21232   3.226  23.640   8.435
 1509POPC   C3A21233   3.253  23.724   8.024
 1509POPC   C4A21234   3.309  23.356   7.752
 1509POPC   C1B21235   3.939  23.832   8.758
 1509POPC   C2B21236   3.770  23.681   8.325
 1509POPC   C3B21237   3.731  23.652   7.844
 1509POPC   C4B21238   4.038  23.722   7.482
 1510POPC   NC321239  27.084  41.457   9.443
 1510POPC   PO421240  27.715  41.711   9.492
 1510POPC   GL121241  27.568  41.422   9.193
 1510POPC   GL221242  27.888  41.472   9.035
 1510POPC   C1A21243  27.310  41.373   8.803
 1510POPC   D2A21244  27.325  41.679   8.449
 1510POPC   C3A21245  27.372  41.565   8.012
 1510POPC   C4A21246  27.382  41.840   7.672
 1510POPC   C1B21247  27.776  41.477   8.649
 1510POPC   C2B21248  27.990  41.502   8.313
 1510POPC   C3B21249  27.953  41.454   7.891
 1510POPC   C4B21250  27.622  41.301   7.607
 1511POPC   NC321251  15.419  20.837   9.470
 1511POPC   PO421252  15.225  20.198   9.439
 1511POPC   GL121253  15.114  20.491   9.062
 1511POPC   GL221254  15.258  20.786   9.004
 1511POPC   C1A21255  15.050  20.556   8.595
 1511POPC   D2A21256  15.200  20.293   8.254
 1511POPC   C3A21257  15.074  20.424   7.847
 1511POPC   C4A21258  14.854  20.694   7.555
 1511POPC   C1B21259  15.437  20.974   8.646
 1511POPC   C2B21260  15.239  20.947   8.227
 1511POPC   C3B21261  15.293  20.879   7.783
 1511POPC   C4B21262  15.578  20.987   7.433
 1512POPC   NC321263  17.660  43.007   9.569
 1512POPC   PO421264  17.124  43.295   9.564
 1512POPC   GL121265  17.397  43.242   9.184
 1512POPC   GL221266  17.551  42.869   9.107
 1512POPC   C1A21267  17.258  43.395   8.799
 1512POPC   D2A21268  17.316  43.279   8.382
 1512POPC   C3A21269  17.292  43.522   8.010
 1512POPC   C4A21270  17.201  43.320   7.610
 1512POPC   C1B21271  17.666  43.057   8.713
 1512POPC   C2B21272  17.741  42.987   8.268
 1512POPC   C3B21273  17.675  43.229   7.877
 1512POPC   C4B21274  17.950  43.456   7.686
 1513POPC   NC321275   0.810  34.667   9.537
 1513POPC   PO421276   1.344  34.157   9.355
 1513POPC   GL121277   0.978  34.312   9.159
 1513POPC   GL221278   1.110  34.647   9.132
 1513POPC   C1A21279   0.964  34.413   8.722
 1513POPC   D2A21280   1.379  34.439   8.530
 1513POPC   C3A21281   1.415  34.445   8.072
 1513POPC   C4A21282   0.992  34.498   7.884
 1513POPC   C1B21283   1.206  34.860   8.755
 1513POPC   C2B21284   1.072  34.790   8.330
 1513POPC   C3B21285   1.237  34.921   7.975
 1513POPC   C4B21286   1.532  34.882   7.700
 1514POPC   NC321287   7.803  11.803   9.430
 1514POPC   PO421288   7.264  12.268   9.505
 1514POPC   GL121289   7.249  12.003   9.169
 1514POPC   GL221290   7.034  11.712   9.237
 1514POPC   C1A21291   7.360  12.084   8.756
 1514POPC   D2A21292   7.483  11.795   8.440
 1514POPC   C3A21293   7.650  11.990   8.058
 1514POPC   C4A21294   7.711  11.822   7.656
 1514POPC   C1B21295   7.006  11.717   8.785
 1514POPC   C2B21296   6.955  11.998   8.428
 1514POPC   C3B21297   7.152  11.909   8.055
 1514POPC   C4B21298   7.242  12.080   7.672
 1515POPC   NC321299  33.245   7.945   9.500
 1515POPC   PO421300  32.872   7.385   9.449
 1515POPC   GL121301  32.968   7.442   9.053
 1515POPC   GL221302  32.876   7.075   8.968
 1515POPC   C1A21303  33.074   7.464   8.649
 1515POPC   D2A21304  33.254   7.185   8.397
 1515POPC   C3A21305  33.356   7.405   8.074
 1515POPC   C4A21306  33.291   7.371   7.673
 1515POPC   C1B21307  32.622   7.220   8.609
 1515POPC   C2B21308  32.786   7.402   8.211
 1515POPC   C3B21309  32.749   7.296   7.781
 1515POPC   C4B21310  32.724   7.200   7.332
 1516POPC   NC321311  20.163   2.186   9.371
 1516POPC   PO421312  20.009   2.831   9.556
 1516POPC   GL121313  19.955   2.690   9.155
 1516POPC   GL221314  20.282   2.627   9.117
 1516POPC   C1A21315  19.712   2.754   8.782
 1516POPC   D2A21316  19.559   2.943   8.410
 1516POPC   C3A21317  19.578   2.675   8.080
 1516POPC   C4A21318  19.851   2.597   7.737
 1516POPC   C1B21319  20.279   2.861   8.750
 1516POPC   C2B21320  20.057   2.782   8.354
 1516POPC   C3B21321  19.934   3.044   8.025
 1516POPC   C4B21322  20.142   3.044   7.627
 1517POPC   NC321323  41.837  26.513   9.252
 1517POPC   PO421324  41.712  27.116   9.554
 1517POPC   GL121325  41.480  26.878   9.248
 1517POPC   GL221326  41.178  27.028   9.104
 1517POPC   C1A21327  41.559  26.854   8.800
 1517POPC   D2A21328  41.357  26.604   8.496
 1517POPC   C3A21329  41.545  26.612   8.090
 1517POPC   C4A21330  41.430  26.609   7.652
 1517POPC   C1B21331  41.190  27.169   8.675
 1517POPC   C2B21332  41.553  27.100   8.346
 1517POPC   C3B21333  41.535  27.089   7.883
 1517POPC   C4B21334  41.600  27.039   7.437
 1518POPC   NC321335  18.856   2.914   9.402
 1518POPC   PO421336  18.182   2.795   9.625
 1518POPC   GL121337  18.333   2.817   9.202
 1518POPC   GL221338  18.242   2.494   9.096
 1518POPC   C1A21339  18.176   2.965   8.787
 1518POPC   D2A21340  18.375   3.029   8.380
 1518POPC   C3A21341  18.170   2.886   8.017
 1518POPC   C4A21342  18.235   2.878   7.574
 1518POPC   C1B21343  18.370   2.514   8.674
 1518POPC   C2B21344  18.285   2.400   8.269
 1518POPC   C3B21345  18.079   2.269   7.926
 1518POPC   C4B21346  18.086   2.402   7.553
 1519POPC   NC321347  36.261  42.976   9.387
 1519POPC   PO421348  35.676  43.190   9.545
 1519POPC   GL121349  35.875  43.382   9.139
 1519POPC   GL221350  36.235  43.395   9.130
 1519POPC   C1A21351  35.971  43.169   8.728
 1519POPC   D2A21352  36.046  42.820   8.411
 1519POPC   C3A21353  36.052  42.991   8.005
 1519POPC   C4A21354  35.967  43.154   7.595
 1519POPC   C1B21355  36.428  43.442   8.747
 1519POPC   C2B21356  36.305  43.323   8.345
 1519POPC   C3B21357  36.242  43.453   7.918
 1519POPC   C4B21358  36.491  43.291   7.616
 1520POPC   NC321359  16.390  19.194   9.429
 1520POPC   PO421360  16.971  18.856   9.534
 1520POPC   GL121361  16.911  19.135   9.151
 1520POPC   GL221362  16.588  19.208   8.970
 1520POPC   C1A21363  16.995  19.188   8.695
 1520POPC   D2A21364  16.604  19.070   8.442
 1520POPC   C3A21365  16.543  18.873   8.029
 1520POPC   C4A21366  16.870  18.802   7.776
 1520POPC   C1B21367  16.618  19.543   8.650
 1520POPC   C2B21368  16.434  19.527   8.251
 1520POPC   C3B21369  16.646  19.359   7.895
 1520POPC   C4B21370  16.589  19.120   7.539
 1521POPC   NC321371  17.706   1.428   9.493
 1521POPC   PO421372  17.120   1.178   9.403
 1521POPC   GL121373  17.420   1.251   9.066
 1521POPC   GL221374  17.660   0.976   9.157
 1521POPC   C1A21375  17.436   1.309   8.588
 1521POPC   D2A21376  17.736   1.333   8.211
 1521POPC   C3A21377  17.503   1.320   7.824
 1521POPC   C4A21378  17.071   1.440   7.766
 1521POPC   C1B21379  17.473   0.818   8.763
 1521POPC   C2B21380  17.585   0.836   8.305
 1521POPC   C3B21381  17.602   0.809   7.841
 1521POPC   C4B21382  17.728   0.990   7.449
 1522POPC   NC321383  25.782  18.579   9.398
 1522POPC   PO421384  26.241  18.295   9.825
 1522POPC   GL121385  26.284  18.192   9.337
 1522POPC   GL221386  25.980  18.239   9.077
 1522POPC   C1A21387  26.361  17.962   8.917
 1522POPC   D2A21388  26.310  18.218   8.524
 1522POPC   C3A21389  26.286  18.132   8.065
 1522POPC   C4A21390  26.289  18.422   7.693
 1522POPC   C1B21391  25.799  18.463   8.693
 1522POPC   C2B21392  25.831  18.388   8.226
 1522POPC   C3B21393  25.841  18.616   7.843
 1522POPC   C4B21394  25.877  18.502   7.385
 1523POPC   NC321395  37.929  39.737   9.585
 1523POPC   PO421396  37.541  40.151   9.410
 1523POPC   GL121397  37.663  39.812   9.148
 1523POPC   GL221398  38.031  39.749   9.097
 1523POPC   C1A21399  37.658  39.663   8.754
 1523POPC   D2A21400  37.889  39.766   8.410
 1523POPC   C3A21401  37.593  39.833   8.086
 1523POPC   C4A21402  37.595  40.095   7.747
 1523POPC   C1B21403  38.024  40.092   8.835
 1523POPC   C2B21404  37.845  40.328   8.512
 1523POPC   C3B21405  37.890  40.317   8.110
 1523POPC   C4B21406  38.136  40.089   7.845
 1524POPC   NC321407  40.253   2.103   9.669
 1524POPC   PO421408  39.710   1.840   9.715
 1524POPC   GL121409  39.868   1.991   9.275
 1524POPC   GL221410  39.985   2.359   9.236
 1524POPC   C1A21411  40.017   1.870   8.839
 1524POPC   D2A21412  40.311   1.944   8.480
 1524POPC   C3A21413  40.174   2.005   8.057
 1524POPC   C4A21414  40.361   1.933   7.651
 1524POPC   C1B21415  40.110   2.346   8.779
 1524POPC   C2B21416  39.845   2.188   8.419
 1524POPC   C3B21417  39.813   2.372   7.984
 1524POPC   C4B21418  39.833   2.436   7.531
 1525POPC   NC321419  24.161  36.332   9.342
 1525POPC   PO421420  23.710  36.855   9.518
 1525POPC   GL121421  23.498  36.803   9.135
 1525POPC   GL221422  23.768  36.562   9.098
 1525POPC   C1A21423  23.478  36.707   8.678
 1525POPC   D2A21424  23.361  36.790   8.241
 1525POPC   C3A21425  23.697  37.018   8.027
 1525POPC   C4A21426  23.778  37.001   7.595
 1525POPC   C1B21427  23.989  36.550   8.711
 1525POPC   C2B21428  23.908  36.605   8.277
 1525POPC   C3B21429  24.140  36.759   7.895
 1525POPC   C4B21430  24.102  36.637   7.462
 1526POPC   NC321431   0.011  34.561   9.712
 1526POPC   PO421432  44.624  34.836   9.227
 1526POPC   GL121433  44.624  34.431   9.100
 1526POPC   GL221434  44.971  34.371   9.237
 1526POPC   C1A21435  44.413  34.420   8.675
 1526POPC   D2A21436  44.186  34.606   8.296
 1526POPC   C3A21437  44.455  34.786   7.950
 1526POPC   C4A21438  44.646  34.591   7.576
 1526POPC   C1B21439  44.995  34.313   8.796
 1526POPC   C2B21440  44.877  34.525   8.405
 1526POPC   C3B21441  44.970  34.646   7.966
 1526POPC   C4B21442   0.170  34.569   7.560
 1527POPC   NC321443  42.874  16.589   9.631
 1527POPC   PO421444  43.503  16.464   9.463
 1527POPC   GL121445  43.381  16.672   9.110
 1527POPC   GL221446  43.013  16.777   9.142
 1527POPC   C1A21447  43.222  16.476   8.745
 1527POPC   D2A21448  43.059  16.583   8.346
 1527POPC   C3A21449  43.245  16.492   7.992
 1527POPC   C4A21450  43.156  16.737   7.612
 1527POPC   C1B21451  42.949  16.969   8.723
 1527POPC   C2B21452  43.037  17.152   8.319
 1527POPC   C3B21453  42.957  17.083   7.910
 1527POPC   C4B21454  42.616  16.905   7.751
 1528POPC   NC321455  33.135  40.176   9.556
 1528POPC   PO421456  33.475  39.691   9.235
 1528POPC   GL121457  33.091  39.847   9.135
 1528POPC   GL221458  33.197  40.200   9.051
 1528POPC   C1A21459  32.896  39.708   8.780
 1528POPC   D2A21460  33.140  39.716   8.417
 1528POPC   C3A21461  32.923  39.698   8.064
 1528POPC   C4A21462  33.066  39.760   7.673
 1528POPC   C1B21463  32.847  40.247   8.791
 1528POPC   C2B21464  32.787  40.100   8.381
 1528POPC   C3B21465  32.926  40.229   7.984
 1528POPC   C4B21466  32.915  40.211   7.538
 1529POPC   NC321467  13.432   2.717   9.435
 1529POPC   PO421468  13.850   3.176   9.462
 1529POPC   GL121469  13.792   2.935   9.088
 1529POPC   GL221470  13.825   2.577   9.037
 1529POPC   C1A21471  13.461   2.899   8.798
 1529POPC   D2A21472  13.422   2.958   8.384
 1529POPC   C3A21473  13.573   2.771   8.017
 1529POPC   C4A21474  13.825   2.818   7.659
 1529POPC   C1B21475  13.461   2.397   8.827
 1529POPC   C2B21476  13.353   2.450   8.420
 1529POPC   C3B21477  13.498   2.266   8.058
 1529POPC   C4B21478  13.558   2.371   7.648
 1530POPC   NC321479  16.970  20.051   9.434
 1530POPC   PO421480  16.574  19.596   9.304
 1530POPC   GL121481  16.916  19.656   9.067
 1530POPC   GL221482  16.832  20.007   8.945
 1530POPC   C1A21483  17.123  19.701   8.676
 1530POPC   D2A21484  16.873  19.911   8.374
 1530POPC   C3A21485  16.930  19.779   7.965
 1530POPC   C4A21486  16.837  19.661   7.512
 1530POPC   C1B21487  16.499  20.151   8.646
 1530POPC   C2B21488  16.303  20.019   8.260
 1530POPC   C3B21489  16.441  19.840   7.837
 1530POPC   C4B21490  16.487  20.004   7.376
 1531POPC   NC321491  24.562  38.127   9.760
 1531POPC   PO421492  24.399  37.499   9.526
 1531POPC   GL121493  24.568  37.709   9.174
 1531POPC   GL221494  24.680  38.009   9.268
 1531POPC   C1A21495  24.527  37.637   8.745
 1531POPC   D2A21496  24.259  37.606   8.385
 1531POPC   C3A21497  24.291  37.852   8.015
 1531POPC   C4A21498  24.245  37.741   7.549
 1531POPC   C1B21499  24.784  38.066   8.802
 1531POPC   C2B21500  24.746  37.927   8.393
 1531POPC   C3B21501  24.763  37.649   8.104
 1531POPC   C4B21502  24.705  37.892   7.720
 1532POPC   NC321503  40.300  13.564   9.558
 1532POPC   PO421504  39.600  13.464   9.454
 1532POPC   GL121505  39.951  13.614   9.186
 1532POPC   GL221506  40.243  13.382   9.100
 1532POPC   C1A21507  39.968  13.693   8.757
 1532POPC   D2A21508  39.628  13.726   8.444
 1532POPC   C3A21509  39.800  13.869   8.045
 1532POPC   C4A21510  39.823  13.683   7.648
 1532POPC   C1B21511  40.074  13.177   8.776
 1532POPC   C2B21512  40.221  13.214   8.367
 1532POPC   C3B21513  40.137  13.443   7.977
 1532POPC   C4B21514  40.214  13.391   7.515
 1533POPC   NC321515  26.153  28.680   9.465
 1533POPC   PO421516  25.639  28.195   9.433
 1533POPC   GL121517  25.993  28.256   9.143
 1533POPC   GL221518  26.083  28.575   8.971
 1533POPC   C1A21519  26.049  28.122   8.716
 1533POPC   D2A21520  26.132  28.395   8.373
 1533POPC   C3A21521  25.920  28.234   8.011
 1533POPC   C4A21522  26.203  28.334   7.672
 1533POPC   C1B21523  25.729  28.524   8.693
 1533POPC   C2B21524  25.683  28.675   8.269
 1533POPC   C3B21525  25.945  28.730   7.913
 1533POPC   C4B21526  25.884  28.741   7.501
 1534POPC   NC321527  17.265  35.780   9.721
 1534POPC   PO421528  17.847  35.818   9.502
 1534POPC   GL121529  17.690  36.114   9.194
 1534POPC   GL221530  17.388  35.959   9.113
 1534POPC   C1A21531  17.574  36.343   8.806
 1534POPC   D2A21532  17.422  36.265   8.379
 1534POPC   C3A21533  17.729  36.046   8.104
 1534POPC   C4A21534  18.000  36.260   7.811
 1534POPC   C1B21535  17.487  35.843   8.665
 1534POPC   C2B21536  17.292  35.782   8.230
 1534POPC   C3B21537  17.271  35.913   7.804
 1534POPC   C4B21538  17.298  35.789   7.360
 1535POPC   NC321539  14.158  43.698   9.298
 1535POPC   PO421540  14.670  44.046   9.543
 1535POPC   GL121541  14.448  44.136   9.176
 1535POPC   GL221542  14.103  44.187   9.240
 1535POPC   C1A21543  14.648  43.976   8.816
 1535POPC   D2A21544  14.514  43.684   8.524
 1535POPC   C3A21545  14.597  43.878   8.170
 1535POPC   C4A21546  14.715  43.688   7.811
 1535POPC   C1B21547  13.978  44.160   8.805
 1535POPC   C2B21548  14.084  44.009   8.391
 1535POPC   C3B21549  14.121  43.840   7.969
 1535POPC   C4B21550  14.126  44.093   7.615
 1536POPC   NC321551   7.079  24.722   9.218
 1536POPC   PO421552   6.656  24.376   9.633
 1536POPC   GL121553   6.514  24.436   9.177
 1536POPC   GL221554   6.687  24.660   8.934
 1536POPC   C1A21555   6.195  24.638   8.886
 1536POPC   D2A21556   6.221  24.513   8.454
 1536POPC   C3A21557   6.420  24.588   8.043
 1536POPC   C4A21558   6.431  24.255   7.729
 1536POPC   C1B21559   6.694  24.376   8.603
 1536POPC   C2B21560   6.890  24.501   8.250
 1536POPC   C3B21561   6.895  24.248   7.918
 1536POPC   C4B21562   7.055  24.324   7.526
 1537POPC   NC321563   6.626  21.128   9.342
 1537POPC   PO421564   6.275  21.650   9.440
 1537POPC   GL121565   6.401  21.477   9.043
 1537POPC   GL221566   6.781  21.523   9.063
 1537POPC   C1A21567   6.575  21.253   8.667
 1537POPC   D2A21568   6.561  21.473   8.273
 1537POPC   C3A21569   6.712  21.330   7.905
 1537POPC   C4A21570   6.543  21.142   7.557
 1537POPC   C1B21571   7.005  21.514   8.677
 1537POPC   C2B21572   7.037  21.783   8.355
 1537POPC   C3B21573   7.176  21.705   7.956
 1537POPC   C4B21574   7.044  21.510   7.575
 1538POPC   NC321575   5.497   9.165   9.341
 1538POPC   PO421576   4.901   8.832   9.495
 1538POPC   GL121577   5.104   8.927   9.127
 1538POPC   GL221578   5.024   9.270   9.122
 1538POPC   C1A21579   5.131   8.741   8.723
 1538POPC   D2A21580   5.345   8.836   8.356
 1538POPC   C3A21581   5.134   8.794   8.000
 1538POPC   C4A21582   5.070   8.819   7.601
 1538POPC   C1B21583   5.292   9.233   8.713
 1538POPC   C2B21584   5.415   9.361   8.283
 1538POPC   C3B21585   5.317   9.278   7.828
 1538POPC   C4B21586   5.512   9.352   7.419
 1539POPC   NC321587  16.536   8.821   9.466
 1539POPC   PO421588  17.181   8.748   9.748
 1539POPC   GL121589  17.042   8.931   9.288
 1539POPC   GL221590  16.722   8.858   9.022
 1539POPC   C1A21591  17.070   9.166   8.897
 1539POPC   D2A21592  16.901   8.992   8.517
 1539POPC   C3A21593  17.089   9.022   8.123
 1539POPC   C4A21594  17.088   8.784   7.749
 1539POPC   C1B21595  16.548   8.643   8.662
 1539POPC   C2B21596  16.593   8.687   8.215
 1539POPC   C3B21597  16.605   8.940   7.862
 1539POPC   C4B21598  16.455   9.101   7.479
 1540POPC   NC321599  26.136  32.803   9.527
 1540POPC   PO421600  25.847  33.401   9.489
 1540POPC   GL121601  25.758  33.043   9.219
 1540POPC   GL221602  26.056  33.162   9.064
 1540POPC   C1A21603  25.859  32.723   8.890
 1540POPC   D2A21604  25.964  32.601   8.464
 1540POPC   C3A21605  25.734  32.627   8.095
 1540POPC   C4A21606  25.905  32.695   7.673
 1540POPC   C1B21607  25.783  33.227   8.700
 1540POPC   C2B21608  25.799  33.092   8.292
 1540POPC   C3B21609  26.148  32.975   8.031
 1540POPC   C4B21610  26.310  33.016   7.601
 1541POPC   NC321611  17.958  32.289   9.502
 1541POPC   PO421612  17.302  32.267   9.610
 1541POPC   GL121613  17.481  32.214   9.194
 1541POPC   GL221614  17.770  32.020   9.128
 1541POPC   C1A21615  17.285  32.115   8.778
 1541POPC   D2A21616  17.369  32.317   8.368
 1541POPC   C3A21617  17.386  32.095   7.965
 1541POPC   C4A21618  17.340  32.286   7.539
 1541POPC   C1B21619  17.773  32.273   8.731
 1541POPC   C2B21620  17.863  32.262   8.290
 1541POPC   C3B21621  17.870  31.943   8.007
 1541POPC   C4B21622  17.764  32.047   7.584
 1542POPC   NC321623  13.607  17.946   9.406
 1542POPC   PO421624  13.439  18.568   9.561
 1542POPC   GL121625  13.376  18.623   9.156
 1542POPC   GL221626  13.335  18.258   9.097
 1542POPC   C1A21627  13.639  18.542   8.794
 1542POPC   D2A21628  13.770  18.295   8.440
 1542POPC   C3A21629  13.617  18.424   8.034
 1542POPC   C4A21630  13.685  18.727   7.667
 1542POPC   C1B21631  13.317  18.045   8.672
 1542POPC   C2B21632  13.172  17.939   8.226
 1542POPC   C3B21633  13.436  17.958   7.853
 1542POPC   C4B21634  13.443  18.294   7.578
 1543POPC   NC321635  33.335  42.675   9.322
 1543POPC   PO421636  32.713  42.314   9.531
 1543POPC   GL121637  32.761  42.073   9.152
 1543POPC   GL221638  33.069  42.282   9.114
 1543POPC   C1A21639  32.874  42.062   8.689
 1543POPC   D2A21640  32.905  42.318   8.303
 1543POPC   C3A21641  32.866  42.132   7.896
 1543POPC   C4A21642  32.919  42.225   7.438
 1543POPC   C1B21643  33.352  42.370   8.746
 1543POPC   C2B21644  33.407  42.502   8.333
 1543POPC   C3B21645  33.293  42.430   7.926
 1543POPC   C4B21646  33.407  42.209   7.542
 1544POPC   NC321647  43.291  37.751   9.701
 1544POPC   PO421648  42.771  37.425   9.453
 1544POPC   GL121649  43.098  37.667   9.224
 1544POPC   GL221650  43.410  37.543   9.248
 1544POPC   C1A21651  43.098  37.806   8.786
 1544POPC   D2A21652  43.028  37.854   8.328
 1544POPC   C3A21653  43.160  37.496   8.053
 1544POPC   C4A21654  43.125  37.573   7.650
 1544POPC   C1B21655  43.581  37.663   8.868
 1544POPC   C2B21656  43.466  37.618   8.453
 1544POPC   C3B21657  43.580  37.778   8.030
 1544POPC   C4B21658  43.594  37.750   7.552
 1545POPC   NC321659   6.813  22.974   9.543
 1545POPC   PO421660   6.121  22.823   9.600
 1545POPC   GL121661   6.467  22.852   9.182
 1545POPC   GL221662   6.714  23.095   9.073
 1545POPC   C1A21663   6.652  22.783   8.698
 1545POPC   D2A21664   6.887  22.730   8.279
 1545POPC   C3A21665   6.604  22.882   7.945
 1545POPC   C4A21666   6.244  23.038   7.744
 1545POPC   C1B21667   6.961  23.206   8.761
 1545POPC   C2B21668   6.755  23.215   8.390
 1545POPC   C3B21669   6.986  23.201   8.039
 1545POPC   C4B21670   6.879  23.341   7.688
 1546POPC   NC321671  44.346  39.429   9.494
 1546POPC   PO421672  44.915  39.056   9.664
 1546POPC   GL121673  44.758  39.181   9.283
 1546POPC   GL221674  44.515  38.936   9.285
 1546POPC   C1A21675  44.828  39.330   8.855
 1546POPC   D2A21676  44.714  39.562   8.482
 1546POPC   C3A21677  44.799  39.434   8.087
 1546POPC   C4A21678  44.580  39.408   7.719
 1546POPC   C1B21679  44.544  38.876   8.844
 1546POPC   C2B21680  44.696  39.038   8.456
 1546POPC   C3B21681  44.624  38.954   8.059
 1546POPC   C4B21682  44.652  38.906   7.630
 1547POPC   NC321683  37.718  12.346   9.510
 1547POPC   PO421684  38.069  11.731   9.375
 1547POPC   GL121685  37.737  11.897   9.080
 1547POPC   GL221686  37.614  12.243   9.044
 1547POPC   C1A21687  37.747  11.986   8.643
 1547POPC   D2A21688  37.553  12.109   8.308
 1547POPC   C3A21689  37.900  12.080   8.059
 1547POPC   C4A21690  37.925  12.049   7.655
 1547POPC   C1B21691  37.636  12.534   8.720
 1547POPC   C2B21692  37.787  12.572   8.317
 1547POPC   C3B21693  37.598  12.472   7.937
 1547POPC   C4B21694  37.630  12.445   7.541
 1548POPC   NC321695   1.986  40.638   9.561
 1548POPC   PO421696   1.636  41.285   9.517
 1548POPC   GL121697   1.829  40.999   9.179
 1548POPC   GL221698   1.752  40.627   9.121
 1548POPC   C1A21699   2.035  40.846   8.782
 1548POPC   D2A21700   2.231  40.825   8.392
 1548POPC   C3A21701   2.087  40.823   7.977
 1548POPC   C4A21702   2.207  41.183   7.727
 1548POPC   C1B21703   1.638  40.461   8.745
 1548POPC   C2B21704   1.869  40.446   8.385
 1548POPC   C3B21705   1.662  40.527   8.023
 1548POPC   C4B21706   1.837  40.514   7.608
 1549POPC   NC321707  31.219   3.080   9.459
 1549POPC   PO421708  31.937   2.887   9.479
 1549POPC   GL121709  31.687   2.822   9.129
 1549POPC   GL221710  31.314   2.743   9.094
 1549POPC   C1A21711  31.671   2.691   8.727
 1549POPC   D2A21712  31.426   2.828   8.380
 1549POPC   C3A21713  31.604   2.799   7.984
 1549POPC   C4A21714  31.626   2.551   7.642
 1549POPC   C1B21715  31.126   2.536   8.727
 1549POPC   C2B21716  31.046   2.422   8.271
 1549POPC   C3B21717  31.131   2.646   7.874
 1549POPC   C4B21718  31.165   3.120   7.828
 1550POPC   NC321719  20.698   3.941   9.694
 1550POPC   PO421720  20.212   4.379   9.543
 1550POPC   GL121721  20.400   4.263   9.179
 1550POPC   GL221722  20.110   4.101   9.089
 1550POPC   C1A21723  20.665   4.358   8.776
 1550POPC   D2A21724  20.884   4.264   8.368
 1550POPC   C3A21725  20.698   4.368   7.959
 1550POPC   C4A21726  20.451   4.658   7.716
 1550POPC   C1B21727  20.293   4.006   8.747
 1550POPC   C2B21728  20.547   3.869   8.461
 1550POPC   C3B21729  20.446   3.896   8.049
 1550POPC   C4B21730  20.718   3.917   7.727
 1551POPC   NC321731  29.767  34.993   9.956
 1551POPC   PO421732  30.051  34.781   9.387
 1551POPC   GL121733  30.072  34.552   9.050
 1551POPC   GL221734  29.731  34.500   9.043
 1551POPC   C1A21735  30.150  34.572   8.634
 1551POPC   D2A21736  29.988  34.770   8.280
 1551POPC   C3A21737  30.155  34.532   7.959
 1551POPC   C4A21738  30.023  34.185   7.675
 1551POPC   C1B21739  29.631  34.739   8.668
 1551POPC   C2B21740  29.451  34.901   8.290
 1551POPC   C3B21741  29.598  34.860   7.895
 1551POPC   C4B21742  29.618  34.523   7.571
 1552POPC   NC321743  15.027  16.905   9.383
 1552POPC   PO421744  15.590  17.250   9.528
 1552POPC   GL121745  15.488  17.484   9.168
 1552POPC   GL221746  15.633  17.792   9.083
 1552POPC   C1A21747  15.242  17.446   8.769
 1552POPC   D2A21748  14.917  17.303   8.471
 1552POPC   C3A21749  14.962  17.521   8.088
 1552POPC   C4A21750  15.042  17.464   7.680
 1552POPC   C1B21751  15.354  17.942   8.761
 1552POPC   C2B21752  15.343  17.768   8.333
 1552POPC   C3B21753  15.338  18.011   7.964
 1552POPC   C4B21754  15.281  17.905   7.556
 1553POPC   NC321755  44.980  39.508   9.687
 1553POPC   PO421756   0.528  39.195   9.665
 1553POPC   GL121757   0.279  39.202   9.294
 1553POPC   GL221758   0.521  38.980   9.183
 1553POPC   C1A21759   0.343  39.315   8.838
 1553POPC   D2A21760   0.145  39.266   8.443
 1553POPC   C3A21761   0.330  39.301   8.048
 1553POPC   C4A21762   0.083  39.306   7.687
 1553POPC   C1B21763   0.574  38.780   8.818
 1553POPC   C2B21764   0.565  38.971   8.416
 1553POPC   C3B21765   0.577  38.816   7.995
 1553POPC   C4B21766   0.545  39.053   7.628
 1554POPC   NC321767   6.519  15.732   9.820
 1554POPC   PO421768   6.911  16.218   9.489
 1554POPC   GL121769   6.828  16.035   9.169
 1554POPC   GL221770   6.655  15.735   9.274
 1554POPC   C1A21771   6.907  16.094   8.766
 1554POPC   D2A21772   6.869  15.803   8.458
 1554POPC   C3A21773   6.816  16.030   8.108
 1554POPC   C4A21774   6.763  15.843   7.717
 1554POPC   C1B21775   6.409  15.939   8.897
 1554POPC   C2B21776   6.394  16.061   8.465
 1554POPC   C3B21777   6.353  15.805   8.072
 1554POPC   C4B21778   6.242  15.890   7.648
 1555POPC   NC321779  36.391  40.269   9.311
 1555POPC   PO421780  35.985  39.736   9.433
 1555POPC   GL121781  35.977  39.881   9.061
 1555POPC   GL221782  35.872  40.200   9.041
 1555POPC   C1A21783  36.160  39.977   8.677
 1555POPC   D2A21784  36.262  40.192   8.313
 1555POPC   C3A21785  36.058  40.037   7.991
 1555POPC   C4A21786  36.171  39.819   7.687
 1555POPC   C1B21787  35.652  40.296   8.690
 1555POPC   C2B21788  35.627  40.206   8.265
 1555POPC   C3B21789  35.779  40.437   7.903
 1555POPC   C4B21790  35.910  40.296   7.470
 1556POPC   NC321791  16.840  38.360   9.600
 1556POPC   PO421792  16.702  39.002   9.799
 1556POPC   GL121793  16.603  38.804   9.374
 1556POPC   GL221794  16.860  38.617   9.165
 1556POPC   C1A21795  16.452  38.784   8.919
 1556POPC   D2A21796  16.655  38.614   8.516
 1556POPC   C3A21797  16.564  38.668   8.082
 1556POPC   C4A21798  16.536  38.325   7.793
 1556POPC   C1B21799  17.096  38.592   8.780
 1556POPC   C2B21800  17.200  38.401   8.355
 1556POPC   C3B21801  17.113  38.403   7.892
 1556POPC   C4B21802  16.944  38.172   7.519
 1557POPC   NC321803  25.568  38.647   9.424
 1557POPC   PO421804  24.980  38.252   9.629
 1557POPC   GL121805  25.099  38.243   9.153
 1557POPC   GL221806  25.179  38.508   9.090
 1557POPC   C1A21807  25.289  38.167   8.724
 1557POPC   D2A21808  25.103  38.294   8.330
 1557POPC   C3A21809  25.244  38.606   8.079
 1557POPC   C4A21810  25.149  38.410   7.663
 1557POPC   C1B21811  24.908  38.554   8.717
 1557POPC   C2B21812  24.795  38.771   8.308
 1557POPC   C3B21813  24.810  38.726   7.846
 1557POPC   C4B21814  24.871  38.828   7.359
 1558POPC   NC321815  32.425  25.316   9.400
 1558POPC   PO421816  31.746  25.452   9.407
 1558POPC   GL121817  31.951  25.298   9.060
 1558POPC   GL221818  32.165  25.553   9.028
 1558POPC   C1A21819  32.112  25.217   8.633
 1558POPC   D2A21820  31.918  25.177   8.230
 1558POPC   C3A21821  32.161  25.120   7.863
 1558POPC   C4A21822  32.405  25.486   7.815
 1558POPC   C1B21823  32.529  25.574   8.739
 1558POPC   C2B21824  32.615  25.433   8.322
 1558POPC   C3B21825  32.876  25.403   7.968
 1558POPC   C4B21826  32.791  25.128   7.622
 1559POPC   NC321827   5.949  19.317   9.495
 1559POPC   PO421828   6.525  19.330   9.233
 1559POPC   GL121829   6.115  19.307   9.009
 1559POPC   GL221830   5.881  19.008   8.996
 1559POPC   C1A21831   5.809  19.354   8.666
 1559POPC   D2A21832   5.704  19.284   8.262
 1559POPC   C3A21833   6.030  19.135   8.017
 1559POPC   C4A21834   5.928  18.949   7.628
 1559POPC   C1B21835   5.727  18.865   8.554
 1559POPC   C2B21836   5.675  18.778   8.122
 1559POPC   C3B21837   6.060  18.603   7.994
 1559POPC   C4B21838   6.375  18.727   7.723
 1560POPC   NC321839  42.214   0.753   9.545
 1560POPC   PO421840  42.317   0.077   9.534
 1560POPC   GL121841  42.411   0.353   9.193
 1560POPC   GL221842  42.384   0.039   9.027
 1560POPC   C1A21843  42.372   0.616   8.829
 1560POPC   D2A21844  42.206   0.647   8.429
 1560POPC   C3A21845  42.425   0.728   8.049
 1560POPC   C4A21846  42.723   0.632   7.711
 1560POPC   C1B21847  42.126   0.174   8.727
 1560POPC   C2B21848  41.899   0.243   8.385
 1560POPC   C3B21849  42.108   0.302   8.020
 1560POPC   C4B21850  42.251   0.447   7.627
 1561POPC   NC321851  36.567  27.779   9.416
 1561POPC   PO421852  37.217  27.678   9.446
 1561POPC   GL121853  37.029  27.632   9.067
 1561POPC   GL221854  36.711  27.607   8.981
 1561POPC   C1A21855  37.109  27.763   8.664
 1561POPC   D2A21856  36.909  27.833   8.306
 1561POPC   C3A21857  37.175  27.764   7.996
 1561POPC   C4A21858  37.017  27.530   7.655
 1561POPC   C1B21859  36.644  27.477   8.582
 1561POPC   C2B21860  36.477  27.412   8.189
 1561POPC   C3B21861  36.582  27.288   7.762
 1561POPC   C4B21862  36.784  27.141   7.380
 1562POPC   NC321863   4.375  19.497   9.438
 1562POPC   PO421864   4.176  18.911   9.391
 1562POPC   GL121865   4.388  19.110   9.100
 1562POPC   GL221866   4.694  19.140   9.245
 1562POPC   C1A21867   4.313  19.250   8.708
 1562POPC   D2A21868   4.363  19.041   8.328
 1562POPC   C3A21869   4.191  19.275   8.019
 1562POPC   C4A21870   4.057  19.059   7.660
 1562POPC   C1B21871   4.825  19.255   8.846
 1562POPC   C2B21872   4.731  19.413   8.464
 1562POPC   C3B21873   4.725  19.296   8.077
 1562POPC   C4B21874   4.555  19.088   7.723
 1563POPC   NC321875  18.107   9.429   9.614
 1563POPC   PO421876  18.361  10.049   9.545
 1563POPC   GL121877  18.369   9.967   9.095
 1563POPC   GL221878  18.003   9.833   9.141
 1563POPC   C1A21879  18.572   9.708   8.716
 1563POPC   D2A21880  18.436   9.331   8.448
 1563POPC   C3A21881  18.399   9.392   8.000
 1563POPC   C4A21882  18.213   9.456   7.598
 1563POPC   C1B21883  18.069   9.804   8.692
 1563POPC   C2B21884  18.298   9.802   8.294
 1563POPC   C3B21885  18.322   9.909   7.863
 1563POPC   C4B21886  18.510  10.211   7.599
 1564POPC   NC321887  34.039  29.377   9.410
 1564POPC   PO421888  33.660  28.757   9.413
 1564POPC   GL121889  33.730  29.058   9.141
 1564POPC   GL221890  34.084  28.985   9.069
 1564POPC   C1A21891  33.622  28.994   8.747
 1564POPC   D2A21892  33.738  29.014   8.344
 1564POPC   C3A21893  33.638  29.326   8.067
 1564POPC   C4A21894  33.723  29.052   7.754
 1564POPC   C1B21895  34.058  29.268   8.695
 1564POPC   C2B21896  34.144  29.327   8.224
 1564POPC   C3B21897  34.176  29.312   7.734
 1564POPC   C4B21898  34.075  29.465   7.273
 1565POPC   NC321899  44.642  17.260   9.480
 1565POPC   PO421900  44.259  17.917   9.443
 1565POPC   GL121901  44.527  17.619   9.126
 1565POPC   GL221902  44.483  17.220   9.021
 1565POPC   C1A21903  44.650  17.521   8.662
 1565POPC   D2A21904  44.856  17.802   8.357
 1565POPC   C3A21905  44.914  17.702   7.931
 1565POPC   C4A21906   0.015  17.842   7.497
 1565POPC   C1B21907  44.315  17.052   8.656
 1565POPC   C2B21908  44.400  17.153   8.257
 1565POPC   C3B21909  44.316  17.451   7.957
 1565POPC   C4B21910  44.633  17.364   7.696
 1566POPC   NC321911   8.855   0.436   9.703
 1566POPC   PO421912   8.192   0.135   9.583
 1566POPC   GL121913   8.662   0.161   9.248
 1566POPC   GL221914   9.042   0.268   9.273
 1566POPC   C1A21915   8.812   0.420   8.845
 1566POPC   D2A21916   8.652   0.615   8.424
 1566POPC   C3A21917   8.845   0.485   8.032
 1566POPC   C4A21918   8.948   0.675   7.650
 1566POPC   C1B21919   9.284   0.243   8.872
 1566POPC   C2B21920   9.160   0.208   8.451
 1566POPC   C3B21921   9.308   0.233   8.027
 1566POPC   C4B21922   9.062   0.123   7.704
 1567POPC   NC321923  42.727  26.070   9.490
 1567POPC   PO421924  42.168  26.385   9.543
 1567POPC   GL121925  42.292  26.219   9.132
 1567POPC   GL221926  42.097  25.933   8.995
 1567POPC   C1A21927  42.337  26.310   8.671
 1567POPC   D2A21928  42.245  26.066   8.303
 1567POPC   C3A21929  42.480  26.152   7.931
 1567POPC   C4A21930  42.135  26.013   7.690
 1567POPC   C1B21931  42.455  25.811   8.728
 1567POPC   C2B21932  42.593  25.549   8.369
 1567POPC   C3B21933  42.525  25.613   7.918
 1567POPC   C4B21934  42.646  25.632   7.467
 1568POPC   NC321935  27.287  27.757   9.493
 1568POPC   PO421936  27.827  27.832   9.419
 1568POPC   GL121937  27.561  27.631   9.071
 1568POPC   GL221938  27.301  27.372   9.150
 1568POPC   C1A21939  27.277  27.660   8.691
 1568POPC   D2A21940  27.324  27.810   8.237
 1568POPC   C3A21941  27.586  27.499   7.983
 1568POPC   C4A21942  28.045  27.435   7.864
 1568POPC   C1B21943  27.508  27.191   8.778
 1568POPC   C2B21944  27.403  27.074   8.348
 1568POPC   C3B21945  27.634  26.986   7.964
 1568POPC   C4B21946  27.711  27.171   7.554
 1569POPC   NC321947  11.690  44.295   9.546
 1569POPC   PO421948  11.124  43.917   9.599
 1569POPC   GL121949  11.342  43.854   9.239
 1569POPC   GL221950  11.455  44.124   9.116
 1569POPC   C1A21951  11.219  43.784   8.813
 1569POPC   D2A21952  10.914  43.936   8.487
 1569POPC   C3A21953  11.124  43.889   8.114
 1569POPC   C4A21954  11.435  43.902   7.802
 1569POPC   C1B21955  11.655  44.065   8.669
 1569POPC   C2B21956  11.612  44.101   8.225
 1569POPC   C3B21957  11.583  44.411   7.850
 1569POPC   C4B21958  11.628  44.224   7.440
 1570POPC   NC321959  23.575   7.651   9.832
 1570POPC   PO421960  23.532   7.063   9.618
 1570POPC   GL121961  23.772   7.135   9.171
 1570POPC   GL221962  23.947   6.866   8.998
 1570POPC   C1A21963  23.914   7.441   8.786
 1570POPC   D2A21964  23.770   7.650   8.370
 1570POPC   C3A21965  23.968   7.566   7.956
 1570POPC   C4A21966  23.746   7.598   7.527
 1570POPC   C1B21967  23.634   7.021   8.667
 1570POPC   C2B21968  23.625   7.167   8.226
 1570POPC   C3B21969  23.749   7.145   7.789
 1570POPC   C4B21970  23.860   7.090   7.371
 1571POPC   NC321971   4.309  30.804   9.517
 1571POPC   PO421972   3.953  30.197   9.379
 1571POPC   GL121973   4.063  30.579   9.133
 1571POPC   GL221974   4.446  30.661   9.068
 1571POPC   C1A21975   4.106  30.816   8.733
 1571POPC   D2A21976   4.139  30.978   8.318
 1571POPC   C3A21977   4.301  30.716   7.989
 1571POPC   C4A21978   4.096  30.638   7.596
 1571POPC   C1B21979   4.596  30.970   8.759
 1571POPC   C2B21980   4.670  30.984   8.314
 1571POPC   C3B21981   4.528  31.218   7.941
 1571POPC   C4B21982   4.550  31.283   7.488
 1572POPC   NC321983  20.469  26.609   9.690
 1572POPC   PO421984  20.980  26.936   9.607
 1572POPC   GL121985  20.669  26.923   9.231
 1572POPC   GL221986  20.527  26.608   9.132
 1572POPC   C1A21987  20.583  26.947   8.750
 1572POPC   D2A21988  20.561  26.966   8.283
 1572POPC   C3A21989  20.804  26.730   7.991
 1572POPC   C4A21990  20.639  26.988   7.683
 1572POPC   C1B21991  20.258  26.562   8.736
 1572POPC   C2B21992  20.156  26.670   8.325
 1572POPC   C3B21993  20.320  26.617   7.897
 1572POPC   C4B21994  20.212  26.758   7.506
 1573POPC   NC321995  18.932  33.533   9.518
 1573POPC   PO421996  18.933  34.126   9.455
 1573POPC   GL121997  19.195  33.812   9.176
 1573POPC   GL221998  18.975  33.514   9.030
 1573POPC   C1A21999  19.379  33.788   8.770
 1573POPC   D2A22000  19.228  33.894   8.414
 1573POPC   C3A22001  19.297  33.639   8.067
 1573POPC   C4A22002  19.225  33.610   7.646
 1573POPC   C1B22003  18.819  33.832   8.768
 1573POPC   C2B22004  18.726  33.960   8.338
 1573POPC   C3B22005  18.838  33.818   7.917
 1573POPC   C4B22006  18.855  33.871   7.431
 1574POPC   NC322007  28.971  38.096   9.609
 1574POPC   PO422008  29.462  37.599   9.578
 1574POPC   GL122009  29.188  37.509   9.223
 1574POPC   GL222010  28.973  37.802   9.172
 1574POPC   C1A22011  29.208  37.572   8.756
 1574POPC   D2A22012  29.335  37.801   8.385
 1574POPC   C3A22013  29.367  37.608   7.980
 1574POPC   C4A22014  29.386  37.898   7.661
 1574POPC   C1B22015  28.844  37.963   8.766
 1574POPC   C2B22016  28.790  37.748   8.395
 1574POPC   C3B22017  28.952  37.885   8.030
 1574POPC   C4B22018  28.876  38.016   7.636
 1575POPC   NC322019   6.821  28.565   9.762
 1575POPC   PO422020   6.481  28.181   9.406
 1575POPC   GL122021   6.676  28.293   9.073
 1575POPC   GL222022   6.835  28.568   9.219
 1575POPC   C1A22023   6.516  28.366   8.688
 1575POPC   D2A22024   6.715  28.291   8.319
 1575POPC   C3A22025   6.404  28.366   8.042
 1575POPC   C4A22026   6.352  28.554   7.663
 1575POPC   C1B22027   6.884  28.699   8.788
 1575POPC   C2B22028   7.072  28.661   8.337
 1575POPC   C3B22029   6.820  28.654   7.927
 1575POPC   C4B22030   6.777  28.324   7.615
 1576POPC   NC322031   9.210  35.203   9.509
 1576POPC   PO422032   8.674  35.629   9.562
 1576POPC   GL122033   8.948  35.546   9.228
 1576POPC   GL222034   8.882  35.177   9.112
 1576POPC   C1A22035   9.156  35.535   8.850
 1576POPC   D2A22036   8.974  35.300   8.528
 1576POPC   C3A22037   8.918  35.457   8.112
 1576POPC   C4A22038   8.948  35.238   7.771
 1576POPC   C1B22039   8.595  35.080   8.787
 1576POPC   C2B22040   8.417  34.883   8.437
 1576POPC   C3B22041   8.431  35.087   8.067
 1576POPC   C4B22042   8.456  35.096   7.644
 1577POPC   NC322043  13.910   7.073   9.395
 1577POPC   PO422044  14.220   7.613   9.629
 1577POPC   GL122045  14.433   7.527   9.237
 1577POPC   GL222046  14.413   7.163   9.223
 1577POPC   C1A22047  14.319   7.491   8.806
 1577POPC   D2A22048  14.519   7.404   8.425
 1577POPC   C3A22049  14.463   7.661   8.075
 1577POPC   C4A22050  14.377   7.897   7.691
 1577POPC   C1B22051  14.581   7.008   8.814
 1577POPC   C2B22052  14.466   6.898   8.373
 1577POPC   C3B22053  14.218   7.140   8.053
 1577POPC   C4B22054  14.369   7.376   7.673
 1578POPC   NC322055   6.443  26.296   9.514
 1578POPC   PO422056   6.862  25.768   9.430
 1578POPC   GL122057   6.743  26.043   9.102
 1578POPC   GL222058   6.376  25.956   9.160
 1578POPC   C1A22059   7.080  26.061   8.756
 1578POPC   D2A22060   7.255  26.033   8.334
 1578POPC   C3A22061   6.901  26.033   8.060
 1578POPC   C4A22062   6.737  25.680   7.891
 1578POPC   C1B22063   6.301  25.833   8.773
 1578POPC   C2B22064   6.516  25.802   8.409
 1578POPC   C3B22065   6.301  25.855   8.057
 1578POPC   C4B22066   6.369  25.992   7.678
 1579POPC   NC322067  42.789  11.099   9.504
 1579POPC   PO422068  43.289  11.410   9.601
 1579POPC   GL122069  43.152  11.342   9.205
 1579POPC   GL222070  42.836  11.483   9.178
 1579POPC   C1A22071  43.131  11.009   8.895
 1579POPC   D2A22072  43.077  11.060   8.468
 1579POPC   C3A22073  43.346  11.142   8.138
 1579POPC   C4A22074  43.155  11.338   7.786
 1579POPC   C1B22075  42.713  11.318   8.761
 1579POPC   C2B22076  42.658  11.250   8.294
 1579POPC   C3B22077  42.706  11.479   7.923
 1579POPC   C4B22078  42.662  11.481   7.478
 1580POPC   NC322079  40.759  31.147   9.577
 1580POPC   PO422080  40.409  30.591   9.369
 1580POPC   GL122081  40.695  30.830   9.094
 1580POPC   GL222082  40.600  30.538   8.890
 1580POPC   C1A22083  40.940  30.859   8.702
 1580POPC   D2A22084  40.831  30.642   8.305
 1580POPC   C3A22085  40.995  30.620   7.898
 1580POPC   C4A22086  40.696  30.609   7.562
 1580POPC   C1B22087  40.451  30.865   8.594
 1580POPC   C2B22088  40.604  31.111   8.282
 1580POPC   C3B22089  40.944  31.155   8.036
 1580POPC   C4B22090  40.812  31.227   7.654
 1581POPC   NC322091  26.287  19.402   9.313
 1581POPC   PO422092  26.220  18.701   9.218
 1581POPC   GL122093  25.860  18.980   9.092
 1581POPC   GL222094  25.755  19.332   9.111
 1581POPC   C1A22095  25.631  19.010   8.723
 1581POPC   D2A22096  25.724  18.875   8.303
 1581POPC   C3A22097  25.676  19.155   7.940
 1581POPC   C4A22098  25.734  19.014   7.520
 1581POPC   C1B22099  26.090  19.266   8.735
 1581POPC   C2B22100  26.197  19.113   8.322
 1581POPC   C3B22101  26.167  19.039   7.878
 1581POPC   C4B22102  26.133  19.390   7.609
 1582POPC   NC322103  22.883  20.044   9.474
 1582POPC   PO422104  22.950  19.412   9.573
 1582POPC   GL122105  23.065  19.501   9.087
 1582POPC   GL222106  23.046  19.856   9.023
 1582POPC   C1A22107  22.960  19.629   8.593
 1582POPC   D2A22108  22.593  19.805   8.373
 1582POPC   C3A22109  22.564  19.579   8.004
 1582POPC   C4A22110  22.969  19.426   7.956
 1582POPC   C1B22111  23.217  20.124   8.672
 1582POPC   C2B22112  23.267  20.077   8.234
 1582POPC   C3B22113  22.896  19.976   7.969
 1582POPC   C4B22114  22.509  20.014   7.731
 1583POPC   NC322115  44.160  21.815   9.480
 1583POPC   PO422116  43.757  21.259   9.515
 1583POPC   GL122117  43.760  21.121   9.112
 1583POPC   GL222118  43.628  21.453   9.044
 1583POPC   C1A22119  44.023  21.256   8.754
 1583POPC   D2A22120  44.255  21.574   8.513
 1583POPC   C3A22121  44.229  21.549   8.060
 1583POPC   C4A22122  44.231  21.172   7.841
 1583POPC   C1B22123  43.476  21.221   8.679
 1583POPC   C2B22124  43.429  21.223   8.234
 1583POPC   C3B22125  43.689  21.298   7.858
 1583POPC   C4B22126  43.861  21.076   7.507
 1584POPC   NC322127  30.541  35.427   9.495
 1584POPC   PO422128  31.181  35.441   9.278
 1584POPC   GL122129  30.770  35.400   9.025
 1584POPC   GL222130  30.446  35.647   9.055
 1584POPC   C1A22131  30.818  35.318   8.581
 1584POPC   D2A22132  30.982  35.531   8.224
 1584POPC   C3A22133  30.912  35.288   7.854
 1584POPC   C4A22134  30.783  35.040   7.524
 1584POPC   C1B22135  30.338  35.447   8.703
 1584POPC   C2B22136  30.406  35.582   8.295
 1584POPC   C3B22137  30.604  35.693   7.924
 1584POPC   C4B22138  31.008  35.778   7.738
 1585POPC   NC322139  15.654  22.431   9.740
 1585POPC   PO422140  16.220  22.107   9.677
 1585POPC   GL122141  15.928  22.232   9.341
 1585POPC   GL222142  15.725  21.969   9.207
 1585POPC   C1A22143  15.875  22.392   8.923
 1585POPC   D2A22144  15.678  22.432   8.517
 1585POPC   C3A22145  15.849  22.415   8.139
 1585POPC   C4A22146  16.033  22.509   7.762
 1585POPC   C1B22147  15.660  21.969   8.743
 1585POPC   C2B22148  16.014  22.029   8.453
 1585POPC   C3B22149  16.194  22.057   8.031
 1585POPC   C4B22150  15.906  22.030   7.652
 1586POPC   NC322151  42.208  17.323   9.499
 1586POPC   PO422152  42.745  17.691   9.512
 1586POPC   GL122153  42.513  17.644   9.143
 1586POPC   GL222154  42.224  17.550   9.038
 1586POPC   C1A22155  42.621  17.416   8.751
 1586POPC   D2A22156  42.716  17.548   8.372
 1586POPC   C3A22157  42.548  17.305   8.076
 1586POPC   C4A22158  42.625  17.406   7.653
 1586POPC   C1B22159  42.092  17.183   8.834
 1586POPC   C2B22160  41.942  17.037   8.428
 1586POPC   C3B22161  42.053  17.195   8.037
 1586POPC   C4B22162  42.191  17.121   7.619
 1587POPC   NC322163  16.323  11.155   9.431
 1587POPC   PO422164  15.624  11.269   9.587
 1587POPC   GL122165  15.833  11.159   9.234
 1587POPC   GL222166  16.012  11.428   9.118
 1587POPC   C1A22167  16.008  11.022   8.838
 1587POPC   D2A22168  15.808  11.026   8.478
 1587POPC   C3A22169  15.965  11.219   8.148
 1587POPC   C4A22170  15.872  10.990   7.767
 1587POPC   C1B22171  15.990  11.525   8.692
 1587POPC   C2B22172  15.648  11.625   8.447
 1587POPC   C3B22173  15.548  11.586   8.052
 1587POPC   C4B22174  15.894  11.543   7.757
 1588POPC   NC322175  43.778  16.959   9.489
 1588POPC   PO422176  44.158  16.511   9.686
 1588POPC   GL122177  43.984  16.564   9.237
 1588POPC   GL222178  44.044  16.906   9.063
 1588POPC   C1A22179  43.777  16.540   8.798
 1588POPC   D2A22180  43.646  16.450   8.360
 1588POPC   C3A22181  43.989  16.311   8.088
 1588POPC   C4A22182  44.114  16.479   7.701
 1588POPC   C1B22183  43.791  17.049   8.735
 1588POPC   C2B22184  43.437  16.887   8.509
 1588POPC   C3B22185  43.425  16.952   8.032
 1588POPC   C4B22186  43.653  16.675   7.722
 1589POPC   NC322187  16.199   0.152   9.981
 1589POPC   PO422188  15.724   0.538   9.604
 1589POPC   GL122189  15.664   0.460   9.224
 1589POPC   GL222190  15.949   0.265   9.215
 1589POPC   C1A22191  15.746   0.648   8.842
 1589POPC   D2A22192  15.631   0.483   8.483
 1589POPC   C3A22193  15.734   0.660   8.117
 1589POPC   C4A22194  15.791   0.592   7.711
 1589POPC   C1B22195  16.158   0.298   8.810
 1589POPC   C2B22196  16.168   0.453   8.392
 1589POPC   C3B22197  16.118   0.283   8.005
 1589POPC   C4B22198  16.248   0.397   7.623
 1590POPC   NC322199  12.035   7.526   9.480
 1590POPC   PO422200  11.544   6.978   9.494
 1590POPC   GL122201  11.903   7.126   9.172
 1590POPC   GL222202  11.857   7.489   9.015
 1590POPC   C1A22203  12.242   7.233   8.816
 1590POPC   D2A22204  12.335   7.573   8.477
 1590POPC   C3A22205  12.278   7.632   8.006
 1590POPC   C4A22206  12.279   7.494   7.536
 1590POPC   C1B22207  11.832   7.619   8.598
 1590POPC   C2B22208  11.678   7.328   8.325
 1590POPC   C3B22209  11.634   7.224   7.952
 1590POPC   C4B22210  11.824   7.525   7.740
 1591POPC   NC322211  14.854  24.260   9.550
 1591POPC   PO422212  15.073  24.880   9.585
 1591POPC   GL122213  15.191  24.596   9.232
 1591POPC   GL222214  14.890  24.536   9.112
 1591POPC   C1A22215  15.243  24.650   8.747
 1591POPC   D2A22216  15.565  24.624   8.409
 1591POPC   C3A22217  15.457  24.454   8.029
 1591POPC   C4A22218  15.174  24.658   7.819
 1591POPC   C1B22219  14.770  24.406   8.723
 1591POPC   C2B22220  14.918  24.556   8.344
 1591POPC   C3B22221  14.703  24.610   8.005
 1591POPC   C4B22222  14.750  24.392   7.688
 1592POPC   NC322223  25.924  36.185   9.360
 1592POPC   PO422224  26.459  35.807   9.505
 1592POPC   GL122225  26.273  35.931   9.066
 1592POPC   GL222226  25.908  36.017   8.903
 1592POPC   C1A22227  26.325  36.000   8.624
 1592POPC   D2A22228  26.169  36.174   8.267
 1592POPC   C3A22229  26.276  35.942   7.929
 1592POPC   C4A22230  25.932  35.948   7.683
 1592POPC   C1B22231  25.653  36.280   8.654
 1592POPC   C2B22232  25.572  36.044   8.341
 1592POPC   C3B22233  25.810  35.780   8.155
 1592POPC   C4B22234  25.567  35.630   7.837
 1593POPC   NC322235  27.464  25.682   9.396
 1593POPC   PO422236  27.669  25.016   9.493
 1593POPC   GL122237  27.605  25.154   9.107
 1593POPC   GL222238  27.431  24.805   9.023
 1593POPC   C1A22239  27.775  25.413   8.716
 1593POPC   D2A22240  27.541  25.442   8.309
 1593POPC   C3A22241  27.607  25.467   7.865
 1593POPC   C4A22242  28.013  25.322   7.689
 1593POPC   C1B22243  27.403  25.057   8.665
 1593POPC   C2B22244  27.111  25.212   8.420
 1593POPC   C3B22245  27.218  25.142   8.025
 1593POPC   C4B22246  27.145  25.291   7.641
 1594POPC   NC322247  28.577  20.551   9.394
 1594POPC   PO422248  28.236  21.069   9.588
 1594POPC   GL122249  28.093  20.769   9.211
 1594POPC   GL222250  28.052  20.385   9.126
 1594POPC   C1A22251  28.243  20.677   8.766
 1594POPC   D2A22252  28.061  20.733   8.345
 1594POPC   C3A22253  28.306  20.830   7.930
 1594POPC   C4A22254  28.497  20.931   7.514
 1594POPC   C1B22255  28.159  20.179   8.700
 1594POPC   C2B22256  28.323  20.223   8.263
 1594POPC   C3B22257  28.396  20.340   7.813
 1594POPC   C4B22258  28.422  20.454   7.363
 1595POPC   NC322259  35.745  36.641   9.403
 1595POPC   PO422260  35.159  36.288   9.435
 1595POPC   GL122261  35.267  36.048   9.080
 1595POPC   GL222262  35.607  36.172   9.132
 1595POPC   C1A22263  35.168  35.835   8.653
 1595POPC   D2A22264  35.012  35.739   8.200
 1595POPC   C3A22265  35.110  36.032   7.849
 1595POPC   C4A22266  35.545  36.077   7.723
 1595POPC   C1B22267  35.487  36.247   8.670
 1595POPC   C2B22268  35.410  36.234   8.215
 1595POPC   C3B22269  35.385  36.532   7.847
 1595POPC   C4B22270  35.745  36.561   7.538
 1596POPC   NC322271  28.565  43.712   9.621
 1596POPC   PO422272  28.158  44.215   9.638
 1596POPC   GL122273  28.220  43.926   9.291
 1596POPC   GL222274  28.594  43.960   9.174
 1596POPC   C1A22275  28.180  43.975   8.845
 1596POPC   D2A22276  28.313  43.738   8.499
 1596POPC   C3A22277  28.336  43.882   8.072
 1596POPC   C4A22278  28.366  43.666   7.685
 1596POPC   C1B22279  28.804  43.931   8.759
 1596POPC   C2B22280  28.836  44.131   8.356
 1596POPC   C3B22281  28.839  43.986   7.931
 1596POPC   C4B22282  28.546  44.125   7.625
 1597POPC   NC322283  21.069  12.627   9.385
 1597POPC   PO422284  20.432  12.720   9.477
 1597POPC   GL122285  20.604  12.605   9.105
 1597POPC   GL222286  20.778  12.930   9.065
 1597POPC   C1A22287  20.354  12.629   8.736
 1597POPC   D2A22288  20.294  12.877   8.330
 1597POPC   C3A22289  20.362  12.734   7.924
 1597POPC   C4A22290  20.477  12.902   7.489
 1597POPC   C1B22291  20.752  12.934   8.625
 1597POPC   C2B22292  20.911  12.741   8.254
 1597POPC   C3B22293  20.858  12.830   7.822
 1597POPC   C4B22294  20.869  12.602   7.428
 1598POPC   NC322295  29.606   3.838   9.300
 1598POPC   PO422296  30.074   3.426   9.660
 1598POPC   GL122297  30.049   3.359   9.186
 1598POPC   GL222298  30.161   3.683   9.079
 1598POPC   C1A22299  29.867   3.382   8.730
 1598POPC   D2A22300  29.869   3.489   8.281
 1598POPC   C3A22301  29.715   3.377   7.885
 1598POPC   C4A22302  29.797   3.490   7.454
 1598POPC   C1B22303  30.148   3.804   8.628
 1598POPC   C2B22304  30.234   3.799   8.188
 1598POPC   C3B22305  30.205   3.497   7.845
 1598POPC   C4B22306  30.312   3.540   7.431
 1599POPC   NC322307  11.403  28.845   9.477
 1599POPC   PO422308  11.232  29.550   9.658
 1599POPC   GL122309  11.198  29.410   9.203
 1599POPC   GL222310  11.127  29.055   9.107
 1599POPC   C1A22311  11.447  29.338   8.820
 1599POPC   D2A22312  11.441  29.138   8.431
 1599POPC   C3A22313  11.538  29.357   8.051
 1599POPC   C4A22314  11.338  29.172   7.719
 1599POPC   C1B22315  11.499  28.828   8.845
 1599POPC   C2B22316  11.692  28.684   8.469
 1599POPC   C3B22317  11.617  28.832   8.042
 1599POPC   C4B22318  11.547  28.648   7.640
 1600POPC   NC322319  23.345  20.533   9.419
 1600POPC   PO422320  22.699  20.482   9.510
 1600POPC   GL122321  22.888  20.677   9.151
 1600POPC   GL222322  23.014  20.375   9.063
 1600POPC   C1A22323  22.769  20.627   8.676
 1600POPC   D2A22324  22.807  20.318   8.348
 1600POPC   C3A22325  22.633  20.445   7.957
 1600POPC   C4A22326  22.787  20.582   7.552
 1600POPC   C1B22327  23.247  20.665   8.779
 1600POPC   C2B22328  23.234  20.600   8.320
 1600POPC   C3B22329  23.138  20.441   7.897
 1600POPC   C4B22330  23.300  20.511   7.485
 1601POPC   NC322331  22.987  34.775   9.445
 1601POPC   PO422332  23.266  34.214   9.642
 1601POPC   GL122333  23.263  34.481   9.175
 1601POPC   GL222334  22.845  34.487   9.071
 1601POPC   C1A22335  23.178  34.640   8.724
 1601POPC   D2A22336  23.200  34.933   8.384
 1601POPC   C3A22337  23.080  34.757   7.967
 1601POPC   C4A22338  23.182  34.454   7.669
 1601POPC   C1B22339  22.663  34.592   8.669
 1601POPC   C2B22340  22.830  34.433   8.279
 1601POPC   C3B22341  22.721  34.365   7.843
 1601POPC   C4B22342  22.640  34.297   7.355
 1602POPC   NC322343   3.012   5.598   9.548
 1602POPC   PO422344   2.954   6.180   9.778
 1602POPC   GL122345   2.973   6.103   9.299
 1602POPC   GL222346   2.877   5.789   9.097
 1602POPC   C1A22347   3.030   6.185   8.823
 1602POPC   D2A22348   2.787   6.102   8.425
 1602POPC   C3A22349   2.920   5.818   8.100
 1602POPC   C4A22350   2.838   5.886   7.672
 1602POPC   C1B22351   2.522   5.859   8.775
 1602POPC   C2B22352   2.389   5.662   8.365
 1602POPC   C3B22353   2.525   5.525   7.942
 1602POPC   C4B22354   2.577   5.500   7.488
 1603POPC   NC322355  23.331  16.251   9.706
 1603POPC   PO422356  23.956  16.010   9.573
 1603POPC   GL122357  23.829  15.962   9.195
 1603POPC   GL222358  23.619  15.684   9.207
 1603POPC   C1A22359  23.583  16.119   8.888
 1603POPC   D2A22360  23.782  16.100   8.518
 1603POPC   C3A22361  23.746  16.311   8.140
 1603POPC   C4A22362  23.829  16.158   7.735
 1603POPC   C1B22363  23.642  15.607   8.749
 1603POPC   C2B22364  23.661  15.689   8.250
 1603POPC   C3B22365  23.807  15.641   7.828
 1603POPC   C4B22366  23.557  15.630   7.490
 1604POPC   NC322367  39.398   0.060   9.439
 1604POPC   PO422368  38.878  44.542   9.562
 1604POPC   GL122369  39.084  44.622   9.182
 1604POPC   GL222370  39.030  44.973   9.108
 1604POPC   C1A22371  39.185  44.323   8.837
 1604POPC   D2A22372  39.126  44.484   8.425
 1604POPC   C3A22373  39.313  44.438   8.050
 1604POPC   C4A22374  38.926  44.409   7.815
 1604POPC   C1B22375  39.344  44.816   8.790
 1604POPC   C2B22376  39.466  44.839   8.362
 1604POPC   C3B22377  39.417   0.024   7.940
 1604POPC   C4B22378  39.224   0.082   7.512
 1605POPC   NC322379  23.513   1.745   9.514
 1605POPC   PO422380  24.095   1.999   9.323
 1605POPC   GL122381  23.856   1.748   9.072
 1605POPC   GL222382  23.580   1.971   9.051
 1605POPC   C1A22383  23.805   1.775   8.616
 1605POPC   D2A22384  23.928   2.122   8.350
 1605POPC   C3A22385  23.898   2.000   7.944
 1605POPC   C4A22386  23.620   1.770   7.714
 1605POPC   C1B22387  23.338   1.956   8.651
 1605POPC   C2B22388  23.419   1.907   8.201
 1605POPC   C3B22389  23.166   1.918   7.775
 1605POPC   C4B22390  23.385   2.040   7.335
 1606POPC   NC322391  33.726  22.372   9.542
 1606POPC   PO422392  34.011  23.007   9.451
 1606POPC   GL122393  33.980  22.989   9.050
 1606POPC   GL222394  33.667  22.866   8.996
 1606POPC   C1A22395  34.081  22.996   8.631
 1606POPC   D2A22396  34.178  22.785   8.288
 1606POPC   C3A22397  33.872  22.920   8.003
 1606POPC   C4A22398  34.188  22.921   7.680
 1606POPC   C1B22399  33.632  23.246   8.719
 1606POPC   C2B22400  33.648  23.349   8.281
 1606POPC   C3B22401  33.348  23.336   7.920
 1606POPC   C4B22402  33.341  23.078   7.523
 1607POPC   NC322403  43.160   0.813   9.421
 1607POPC   PO422404  42.763   1.449   9.463
 1607POPC   GL122405  42.993   1.230   9.189
 1607POPC   GL222406  43.318   1.365   9.146
 1607POPC   C1A22407  42.971   0.981   8.818
 1607POPC   D2A22408  42.723   0.796   8.498
 1607POPC   C3A22409  42.878   0.952   8.096
 1607POPC   C4A22410  43.003   1.046   7.675
 1607POPC   C1B22411  43.040   1.532   8.789
 1607POPC   C2B22412  42.820   1.396   8.395
 1607POPC   C3B22413  42.901   1.477   7.952
 1607POPC   C4B22414  43.325   1.446   7.729
 1608POPC   NC322415   8.255  38.353   9.563
 1608POPC   PO422416   8.411  39.031   9.513
 1608POPC   GL122417   8.244  38.726   9.230
 1608POPC   GL222418   8.487  38.518   9.135
 1608POPC   C1A22419   8.001  38.469   8.888
 1608POPC   D2A22420   7.839  38.404   8.452
 1608POPC   C3A22421   7.918  38.687   8.093
 1608POPC   C4A22422   8.173  38.664   7.722
 1608POPC   C1B22423   8.455  38.372   8.684
 1608POPC   C2B22424   8.380  38.441   8.231
 1608POPC   C3B22425   8.595  38.401   7.827
 1608POPC   C4B22426   8.529  38.452   7.365
 1609POPC   NC322427  20.408  12.260   9.475
 1609POPC   PO422428  20.880  11.827   9.516
 1609POPC   GL122429  20.713  12.026   9.152
 1609POPC   GL222430  20.368  11.879   9.092
 1609POPC   C1A22431  20.636  12.183   8.757
 1609POPC   D2A22432  20.555  11.864   8.398
 1609POPC   C3A22433  20.713  11.788   7.973
 1609POPC   C4A22434  20.548  11.896   7.552
 1609POPC   C1B22435  20.162  12.046   8.703
 1609POPC   C2B22436  20.317  12.299   8.352
 1609POPC   C3B22437  20.349  12.193   7.943
 1609POPC   C4B22438  20.440  12.390   7.576
 1610POPC   NC322439  17.483   3.893   9.571
 1610POPC   PO422440  17.559   4.504   9.477
 1610POPC   GL122441  17.511   4.275   9.144
 1610POPC   GL222442  17.797   4.059   9.161
 1610POPC   C1A22443  17.330   4.431   8.770
 1610POPC   D2A22444  17.308   4.624   8.377
 1610POPC   C3A22445  17.242   4.395   8.014
 1610POPC   C4A22446  17.449   4.430   7.618
 1610POPC   C1B22447  17.586   3.970   8.744
 1610POPC   C2B22448  17.533   4.154   8.375
 1610POPC   C3B22449  17.600   4.039   7.975
 1610POPC   C4B22450  17.760   3.992   7.554
 1611POPC   NC322451  23.597  31.677   9.436
 1611POPC   PO422452  23.953  31.146   9.491
 1611POPC   GL122453  24.147  31.286   9.141
 1611POPC   GL222454  24.061  31.647   9.164
 1611POPC   C1A22455  23.920  31.246   8.762
 1611POPC   D2A22456  23.784  31.147   8.359
 1611POPC   C3A22457  23.638  31.431   8.070
 1611POPC   C4A22458  23.814  31.305   7.705
 1611POPC   C1B22459  23.844  31.755   8.770
 1611POPC   C2B22460  23.980  31.706   8.331
 1611POPC   C3B22461  23.929  31.813   7.860
 1611POPC   C4B22462  23.749  31.751   7.450
 1612POPC   NC322463  39.281   1.813   9.585
 1612POPC   PO422464  38.946   2.303   9.332
 1612POPC   GL122465  39.322   2.103   9.167
 1612POPC   GL222466  39.148   1.774   9.089
 1612POPC   C1A22467  39.516   1.963   8.789
 1612POPC   D2A22468  39.247   2.056   8.471
 1612POPC   C3A22469  39.306   2.235   8.084
 1612POPC   C4A22470  39.471   2.092   7.667
 1612POPC   C1B22471  39.012   1.604   8.684
 1612POPC   C2B22472  38.901   1.744   8.272
 1612POPC   C3B22473  39.176   1.749   7.936
 1612POPC   C4B22474  39.134   1.393   7.695
 1613POPC   NC322475  18.867  15.806   9.547
 1613POPC   PO422476  18.947  16.456   9.380
 1613POPC   GL122477  19.229  16.164   9.087
 1613POPC   GL222478  19.238  15.806   9.187
 1613POPC   C1A22479  19.228  16.077   8.647
 1613POPC   D2A22480  18.844  15.933   8.437
 1613POPC   C3A22481  18.763  16.076   8.030
 1613POPC   C4A22482  18.954  15.969   7.616
 1613POPC   C1B22483  19.013  15.613   8.826
 1613POPC   C2B22484  18.850  15.412   8.442
 1613POPC   C3B22485  18.935  15.587   8.025
 1613POPC   C4B22486  18.839  15.394   7.649
 1614POPC   NC322487  39.713  18.256   9.322
 1614POPC   PO422488  39.117  18.114   9.563
 1614POPC   GL122489  39.216  18.321   9.157
 1614POPC   GL222490  39.126  18.666   9.030
 1614POPC   C1A22491  38.968  18.240   8.789
 1614POPC   D2A22492  39.073  18.191   8.354
 1614POPC   C3A22493  38.835  18.225   7.989
 1614POPC   C4A22494  39.071  18.437   7.707
 1614POPC   C1B22495  39.401  18.497   8.661
 1614POPC   C2B22496  39.471  18.475   8.182
 1614POPC   C3B22497  39.555  18.639   7.756
 1614POPC   C4B22498  39.310  18.653   7.332
 1615POPC   NC322499   4.604   9.283   9.466
 1615POPC   PO422500   4.195   8.768   9.407
 1615POPC   GL122501   4.295   9.096   9.095
 1615POPC   GL222502   4.602   8.911   9.061
 1615POPC   C1A22503   4.263   9.115   8.623
 1615POPC   D2A22504   4.217   9.354   8.213
 1615POPC   C3A22505   4.169   9.089   7.840
 1615POPC   C4A22506   4.126   8.622   7.846
 1615POPC   C1B22507   4.775   9.147   8.710
 1615POPC   C2B22508   4.949   9.182   8.295
 1615POPC   C3B22509   4.797   9.201   7.871
 1615POPC   C4B22510   4.600   8.815   7.782
 1616POPC   NC322511  22.745  31.175   9.580
 1616POPC   PO422512  23.132  31.707   9.379
 1616POPC   GL122513  23.183  31.394   9.087
 1616POPC   GL222514  22.896  31.178   9.084
 1616POPC   C1A22515  23.384  31.403   8.687
 1616POPC   D2A22516  23.199  31.563   8.327
 1616POPC   C3A22517  23.149  31.335   7.941
 1616POPC   C4A22518  23.343  31.454   7.569
 1616POPC   C1B22519  22.847  31.377   8.671
 1616POPC   C2B22520  22.665  31.408   8.259
 1616POPC   C3B22521  22.666  31.227   7.858
 1616POPC   C4B22522  22.886  31.168   7.476
 1617POPC   NC322523  13.703   3.678   9.514
 1617POPC   PO422524  13.004   3.703   9.549
 1617POPC   GL122525  13.358   3.775   9.168
 1617POPC   GL222526  13.496   3.407   9.105
 1617POPC   C1A22527  13.514   3.725   8.709
 1617POPC   D2A22528  13.503   3.457   8.323
 1617POPC   C3A22529  13.392   3.638   7.935
 1617POPC   C4A22530  13.476   4.027   7.802
 1617POPC   C1B22531  13.774   3.287   8.739
 1617POPC   C2B22532  13.925   3.137   8.342
 1617POPC   C3B22533  13.814   3.288   7.931
 1617POPC   C4B22534  13.816   3.681   7.650
 1618POPC   NC322535  16.670  14.957   9.544
 1618POPC   PO422536  16.781  15.634   9.524
 1618POPC   GL122537  16.613  15.349   9.219
 1618POPC   GL222538  16.895  15.166   9.117
 1618POPC   C1A22539  16.357  15.238   8.851
 1618POPC   D2A22540  16.518  15.353   8.485
 1618POPC   C3A22541  16.677  15.078   8.196
 1618POPC   C4A22542  16.644  15.079   7.775
 1618POPC   C1B22543  17.192  15.037   8.796
 1618POPC   C2B22544  17.164  14.883   8.377
 1618POPC   C3B22545  17.158  15.080   7.997
 1618POPC   C4B22546  17.148  15.076   7.579
 1619POPC   NC322547  30.603  16.706   9.424
 1619POPC   PO422548  30.992  16.256   9.099
 1619POPC   GL122549  30.885  16.718   8.997
 1619POPC   GL222550  30.486  16.857   8.960
 1619POPC   C1A22551  30.803  16.795   8.570
 1619POPC   D2A22552  30.671  16.493   8.269
 1619POPC   C3A22553  30.949  16.611   7.929
 1619POPC   C4A22554  30.786  16.989   7.720
 1619POPC   C1B22555  30.268  16.491   8.816
 1619POPC   C2B22556  30.172  16.298   8.434
 1619POPC   C3B22557  30.246  16.304   8.014
 1619POPC   C4B22558  30.505  16.542   7.708
 1620POPC   NC322559  25.976  29.454   9.549
 1620POPC   PO422560  25.788  28.873   9.266
 1620POPC   GL122561  25.977  29.105   8.999
 1620POPC   GL222562  26.272  29.238   9.166
 1620POPC   C1A22563  26.098  28.952   8.612
 1620POPC   D2A22564  26.295  28.954   8.233
 1620POPC   C3A22565  25.994  29.209   8.043
 1620POPC   C4A22566  25.932  29.208   7.627
 1620POPC   C1B22567  26.255  29.472   8.754
 1620POPC   C2B22568  26.254  29.560   8.315
 1620POPC   C3B22569  26.483  29.392   7.957
 1620POPC   C4B22570  26.397  29.353   7.544
 1621POPC   NC322571  17.216  29.803   9.514
 1621POPC   PO422572  16.496  29.975   9.651
 1621POPC   GL122573  16.544  29.863   9.210
 1621POPC   GL222574  16.901  29.791   9.106
 1621POPC   C1A22575  16.515  29.811   8.762
 1621POPC   D2A22576  16.749  29.740   8.411
 1621POPC   C3A22577  16.514  29.720   8.022
 1621POPC   C4A22578  16.625  29.873   7.617
 1621POPC   C1B22579  17.053  30.061   8.751
 1621POPC   C2B22580  17.172  30.030   8.319
 1621POPC   C3B22581  17.032  29.777   7.967
 1621POPC   C4B22582  17.096  30.024   7.634
 1622POPC   NC322583  38.398  44.517   9.538
 1622POPC   PO422584  38.175   0.130   9.313
 1622POPC   GL122585  38.423  44.805   9.090
 1622POPC   GL222586  38.598  44.464   9.086
 1622POPC   C1A22587  38.351  44.659   8.682
 1622POPC   D2A22588  38.504  44.830   8.324
 1622POPC   C3A22589  38.318  44.635   7.986
 1622POPC   C4A22590  38.469  44.522   7.584
 1622POPC   C1B22591  38.827  44.701   8.757
 1622POPC   C2B22592  38.982   0.000   8.461
 1622POPC   C3B22593  38.948  44.871   8.044
 1622POPC   C4B22594  38.654  44.970   7.736
 1623POPC   NC322595  23.442  11.837   9.442
 1623POPC   PO422596  23.809  12.395   9.464
 1623POPC   GL122597  23.788  12.178   9.094
 1623POPC   GL222598  23.807  11.799   9.058
 1623POPC   C1A22599  23.627  12.234   8.686
 1623POPC   D2A22600  23.765  12.060   8.334
 1623POPC   C3A22601  23.709  12.312   8.014
 1623POPC   C4A22602  23.466  12.431   7.715
 1623POPC   C1B22603  23.450  11.759   8.762
 1623POPC   C2B22604  23.243  11.920   8.373
 1623POPC   C3B22605  23.441  11.887   7.940
 1623POPC   C4B22606  23.926  11.875   7.882
 1624POPC   NC322607  22.552  44.701   9.424
 1624POPC   PO422608  23.209  44.455   9.452
 1624POPC   GL122609  22.978  44.641   9.114
 1624POPC   GL222610  22.769  44.340   9.125
 1624POPC   C1A22611  22.810  44.831   8.706
 1624POPC   D2A22612  22.546  44.786   8.361
 1624POPC   C3A22613  22.778  44.788   8.003
 1624POPC   C4A22614  22.743  44.997   7.597
 1624POPC   C1B22615  23.051  44.259   8.787
 1624POPC   C2B22616  23.039  44.473   8.414
 1624POPC   C3B22617  23.217  44.461   8.040
 1624POPC   C4B22618  23.191  44.700   7.709
 1625POPC   NC322619  10.181  43.296   9.559
 1625POPC   PO422620  10.828  43.110   9.466
 1625POPC   GL122621  10.491  43.093   9.152
 1625POPC   GL222622  10.391  43.415   9.127
 1625POPC   C1A22623  10.555  43.098   8.698
 1625POPC   D2A22624  10.784  43.043   8.304
 1625POPC   C3A22625  10.511  43.137   7.898
 1625POPC   C4A22626  10.749  43.307   7.531
 1625POPC   C1B22627  10.229  43.510   8.751
 1625POPC   C2B22628  10.058  43.425   8.354
 1625POPC   C3B22629  10.164  43.536   7.935
 1625POPC   C4B22630  10.358  43.657   7.551
 1626POPC   NC322631  11.627  22.197   9.406
 1626POPC   PO422632  11.025  21.908   9.535
 1626POPC   GL122633  10.963  21.960   9.104
 1626POPC   GL222634  11.304  22.069   9.041
 1626POPC   C1A22635  11.066  21.828   8.677
 1626POPC   D2A22636  11.451  21.898   8.441
 1626POPC   C3A22637  11.412  21.915   7.998
 1626POPC   C4A22638  11.127  21.994   7.660
 1626POPC   C1B22639  11.246  22.335   8.684
 1626POPC   C2B22640  10.998  22.549   8.385
 1626POPC   C3B22641  11.173  22.382   8.014
 1626POPC   C4B22642  11.453  22.389   7.663
 1627POPC   NC322643  13.757  37.871   9.512
 1627POPC   PO422644  13.274  37.477   9.495
 1627POPC   GL122645  13.391  37.519   9.073
 1627POPC   GL222646  13.472  37.868   9.048
 1627POPC   C1A22647  13.259  37.470   8.636
 1627POPC   D2A22648  13.415  37.265   8.254
 1627POPC   C3A22649  13.633  37.369   7.839
 1627POPC   C4A22650  13.960  37.615   7.569
 1627POPC   C1B22651  13.211  37.965   8.693
 1627POPC   C2B22652  13.372  37.979   8.283
 1627POPC   C3B22653  13.324  37.803   7.888
 1627POPC   C4B22654  13.474  37.717   7.452
 1628POPC   NC322655   9.443  16.982   9.414
 1628POPC   PO422656   9.938  17.437   9.420
 1628POPC   GL122657   9.927  17.579   8.971
 1628POPC   GL222658   9.755  17.246   8.940
 1628POPC   C1A22659   9.689  17.642   8.605
 1628POPC   D2A22660   9.636  17.382   8.244
 1628POPC   C3A22661   9.704  17.645   7.887
 1628POPC   C4A22662   9.501  17.779   7.533
 1628POPC   C1B22663  10.066  17.248   8.591
 1628POPC   C2B22664  10.120  17.145   8.168
 1628POPC   C3B22665   9.882  17.192   7.789
 1628POPC   C4B22666   9.974  17.036   7.377
 1629POPC   NC322667  34.005  19.875   9.626
 1629POPC   PO422668  33.596  20.235   9.277
 1629POPC   GL122669  33.883  19.959   9.085
 1629POPC   GL222670  33.809  19.625   9.214
 1629POPC   C1A22671  33.777  19.959   8.641
 1629POPC   D2A22672  33.918  20.098   8.256
 1629POPC   C3A22673  33.695  20.042   7.864
 1629POPC   C4A22674  33.367  20.004   7.569
 1629POPC   C1B22675  33.900  19.492   8.769
 1629POPC   C2B22676  33.603  19.390   8.392
 1629POPC   C3B22677  33.506  19.524   7.946
 1629POPC   C4B22678  33.891  19.560   7.743
 1630POPC   NC322679  39.006  31.103   9.412
 1630POPC   PO422680  39.344  30.636   9.774
 1630POPC   GL122681  39.164  30.583   9.322
 1630POPC   GL222682  39.450  30.435   9.153
 1630POPC   C1A22683  39.140  30.710   8.850
 1630POPC   D2A22684  39.295  30.759   8.407
 1630POPC   C3A22685  38.982  30.844   8.091
 1630POPC   C4A22686  39.014  31.163   7.770
 1630POPC   C1B22687  39.614  30.500   8.745
 1630POPC   C2B22688  39.541  30.307   8.355
 1630POPC   C3B22689  39.475  30.512   7.975
 1630POPC   C4B22690  39.201  30.685   7.666
 1631POPC   NC322691  41.203  25.282   9.544
 1631POPC   PO422692  41.830  25.445   9.578
 1631POPC   GL122693  41.778  25.201   9.208
 1631POPC   GL222694  41.431  25.267   9.082
 1631POPC   C1A22695  41.777  25.034   8.789
 1631POPC   D2A22696  41.651  25.264   8.421
 1631POPC   C3A22697  41.733  25.083   8.036
 1631POPC   C4A22698  41.689  25.300   7.656
 1631POPC   C1B22699  41.229  25.646   8.874
 1631POPC   C2B22700  41.165  25.607   8.412
 1631POPC   C3B22701  41.328  25.438   7.997
 1631POPC   C4B22702  41.258  25.567   7.528
 1632POPC   NC322703   8.408   6.977   9.819
 1632POPC   PO422704   7.969   6.673   9.366
 1632POPC   GL122705   8.340   6.614   9.126
 1632POPC   GL222706   8.368   6.249   9.140
 1632POPC   C1A22707   8.392   6.762   8.688
 1632POPC   D2A22708   8.140   6.909   8.338
 1632POPC   C3A22709   8.318   6.760   7.969
 1632POPC   C4A22710   8.128   6.754   7.546
 1632POPC   C1B22711   8.061   6.354   8.767
 1632POPC   C2B22712   8.155   6.413   8.320
 1632POPC   C3B22713   7.915   6.444   7.913
 1632POPC   C4B22714   7.765   6.419   7.443
 1633POPC   NC322715  32.603   3.052   9.317
 1633POPC   PO422716  32.250   3.572   9.704
 1633POPC   GL122717  32.276   3.441   9.274
 1633POPC   GL222718  32.580   3.521   9.121
 1633POPC   C1A22719  32.099   3.495   8.825
 1633POPC   D2A22720  31.942   3.710   8.428
 1633POPC   C3A22721  32.163   3.669   8.017
 1633POPC   C4A22722  32.131   3.420   7.638
 1633POPC   C1B22723  32.580   3.322   8.727
 1633POPC   C2B22724  32.383   3.403   8.371
 1633POPC   C3B22725  32.522   3.295   7.947
 1633POPC   C4B22726  32.618   3.493   7.537
 1634POPC   NC322727  36.182  27.247   9.655
 1634POPC   PO422728  36.040  27.930   9.555
 1634POPC   GL122729  36.098  27.680   9.215
 1634POPC   GL222730  35.793  27.788   9.028
 1634POPC   C1A22731  36.235  27.628   8.824
 1634POPC   D2A22732  36.011  27.708   8.465
 1634POPC   C3A22733  36.033  27.598   8.043
 1634POPC   C4A22734  36.219  27.616   7.653
 1634POPC   C1B22735  35.808  27.373   8.799
 1634POPC   C2B22736  35.851  27.241   8.368
 1634POPC   C3B22737  35.647  27.241   7.993
 1634POPC   C4B22738  35.757  27.440   7.619
 1635POPC   NC322739  33.772  18.569   9.715
 1635POPC   PO422740  33.737  19.320   9.656
 1635POPC   GL122741  33.714  19.118   9.214
 1635POPC   GL222742  33.919  18.826   9.151
 1635POPC   C1A22743  33.744  19.024   8.738
 1635POPC   D2A22744  34.013  19.054   8.364
 1635POPC   C3A22745  33.788  19.101   7.979
 1635POPC   C4A22746  33.694  19.139   7.537
 1635POPC   C1B22747  34.141  18.718   8.768
 1635POPC   C2B22748  34.053  18.536   8.396
 1635POPC   C3B22749  34.109  18.680   8.008
 1635POPC   C4B22750  33.849  18.680   7.667
 1636POPC   NC322751   5.272   3.645   9.561
 1636POPC   PO422752   4.647   3.331   9.503
 1636POPC   GL122753   4.992   3.415   9.208
 1636POPC   GL222754   5.126   3.758   9.100
 1636POPC   C1A22755   5.062   3.296   8.839
 1636POPC   D2A22756   5.030   3.488   8.470
 1636POPC   C3A22757   5.299   3.371   8.142
 1636POPC   C4A22758   5.083   3.547   7.797
 1636POPC   C1B22759   5.382   3.977   8.798
 1636POPC   C2B22760   5.606   3.905   8.421
 1636POPC   C3B22761   5.505   3.848   7.997
 1636POPC   C4B22762   5.428   4.195   7.699
 1637POPC   NC322763   7.426  35.836   9.393
 1637POPC   PO422764   7.011  36.275   9.563
 1637POPC   GL122765   7.185  36.383   9.154
 1637POPC   GL222766   7.549  36.276   9.148
 1637POPC   C1A22767   7.228  36.178   8.757
 1637POPC   D2A22768   7.285  36.322   8.362
 1637POPC   C3A22769   7.175  36.025   8.094
 1637POPC   C4A22770   7.025  36.201   7.747
 1637POPC   C1B22771   7.720  36.023   8.803
 1637POPC   C2B22772   7.641  35.988   8.392
 1637POPC   C3B22773   7.658  36.121   7.964
 1637POPC   C4B22774   7.806  35.827   7.665
 1638POPC   NC322775   8.535  26.907   9.459
 1638POPC   PO422776   9.047  26.578   9.709
 1638POPC   GL122777   8.971  26.627   9.240
 1638POPC   GL222778   8.617  26.593   9.068
 1638POPC   C1A22779   9.013  26.543   8.772
 1638POPC   D2A22780   8.884  26.472   8.363
 1638POPC   C3A22781   9.078  26.750   8.072
 1638POPC   C4A22782   8.861  26.606   7.759
 1638POPC   C1B22783   8.600  26.977   8.795
 1638POPC   C2B22784   8.683  26.996   8.323
 1638POPC   C3B22785   8.600  27.052   7.881
 1638POPC   C4B22786   8.522  26.941   7.466
 1639POPC   NC322787  44.065   4.517  10.164
 1639POPC   PO422788  43.980   4.255   9.548
 1639POPC   GL122789  43.944   4.171   9.155
 1639POPC   GL222790  43.632   4.126   9.043
 1639POPC   C1A22791  43.970   4.461   8.830
 1639POPC   D2A22792  43.796   4.405   8.425
 1639POPC   C3A22793  44.029   4.540   8.092
 1639POPC   C4A22794  43.900   4.529   7.653
 1639POPC   C1B22795  43.908   3.974   8.686
 1639POPC   C2B22796  43.773   3.896   8.272
 1639POPC   C3B22797  43.620   4.198   7.963
 1639POPC   C4B22798  43.587   4.169   7.488
 1640POPC   NC322799  28.279   6.237   9.571
 1640POPC   PO422800  28.442   5.569   9.583
 1640POPC   GL122801  28.407   5.870   9.203
 1640POPC   GL222802  28.348   5.616   8.960
 1640POPC   C1A22803  28.612   6.015   8.771
 1640POPC   D2A22804  28.395   5.699   8.452
 1640POPC   C3A22805  28.446   5.726   8.016
 1640POPC   C4A22806  28.575   6.098   7.824
 1640POPC   C1B22807  28.121   5.978   8.781
 1640POPC   C2B22808  28.052   6.154   8.378
 1640POPC   C3B22809  28.031   6.037   7.941
 1640POPC   C4B22810  28.030   6.047   7.480
 1641POPC   NC322811   5.163  20.881   9.581
 1641POPC   PO422812   4.871  20.221   9.573
 1641POPC   GL122813   5.203  20.438   9.228
 1641POPC   GL222814   5.070  20.768   9.104
 1641POPC   C1A22815   5.345  20.562   8.759
 1641POPC   D2A22816   5.243  20.849   8.414
 1641POPC   C3A22817   5.252  20.688   7.993
 1641POPC   C4A22818   5.203  20.444   7.618
 1641POPC   C1B22819   4.834  20.703   8.720
 1641POPC   C2B22820   4.614  20.806   8.368
 1641POPC   C3B22821   4.743  20.683   7.998
 1641POPC   C4B22822   4.869  20.828   7.628
 1642POPC   NC322823  38.121  18.709   9.415
 1642POPC   PO422824  38.656  19.108   9.570
 1642POPC   GL122825  38.540  19.017   9.186
 1642POPC   GL222826  38.230  19.156   9.085
 1642POPC   C1A22827  38.499  18.830   8.796
 1642POPC   D2A22828  38.263  18.896   8.444
 1642POPC   C3A22829  38.457  19.128   8.135
 1642POPC   C4A22830  38.319  18.873   7.790
 1642POPC   C1B22831  38.362  19.342   8.710
 1642POPC   C2B22832  38.080  19.386   8.399
 1642POPC   C3B22833  37.946  19.149   8.059
 1642POPC   C4B22834  38.149  19.342   7.747
 1643POPC   NC322835  13.226   6.741   9.496
 1643POPC   PO422836  12.610   6.436   9.437
 1643POPC   GL122837  12.753   6.620   9.075
 1643POPC   GL222838  13.124   6.653   9.024
 1643POPC   C1A22839  12.796   6.477   8.652
 1643POPC   D2A22840  13.035   6.649   8.303
 1643POPC   C3A22841  12.749   6.690   7.953
 1643POPC   C4A22842  12.705   6.491   7.535
 1643POPC   C1B22843  12.996   6.949   8.742
 1643POPC   C2B22844  13.190   7.152   8.430
 1643POPC   C3B22845  13.157   7.063   8.019
 1643POPC   C4B22846  12.936   7.063   7.652
 1644POPC   NC322847   3.387  44.240   9.577
 1644POPC   PO422848   3.602  43.643   9.331
 1644POPC   GL122849   3.756  44.008   9.085
 1644POPC   GL222850   3.469  44.153   9.091
 1644POPC   C1A22851   3.666  44.025   8.630
 1644POPC   D2A22852   3.468  43.664   8.394
 1644POPC   C3A22853   3.383  43.690   7.945
 1644POPC   C4A22854   3.630  43.909   7.660
 1644POPC   C1B22855   3.204  44.391   8.837
 1644POPC   C2B22856   3.242  44.319   8.426
 1644POPC   C3B22857   3.517  44.139   8.141
 1644POPC   C4B22858   3.328  44.296   7.783
 1645POPC   NC322859  18.472   0.991   9.222
 1645POPC   PO422860  18.981   1.475   9.371
 1645POPC   GL122861  19.030   1.492   8.990
 1645POPC   GL222862  18.857   1.184   8.941
 1645POPC   C1A22863  18.893   1.606   8.609
 1645POPC   D2A22864  18.963   1.320   8.281
 1645POPC   C3A22865  19.007   1.473   7.876
 1645POPC   C4A22866  19.129   1.319   7.470
 1645POPC   C1B22867  19.061   0.908   8.666
 1645POPC   C2B22868  19.246   0.895   8.280
 1645POPC   C3B22869  19.056   0.939   7.887
 1645POPC   C4B22870  19.284   0.776   7.590
 1646POPC   NC322871  24.310  21.415   9.479
 1646POPC   PO422872  24.998  21.639   9.508
 1646POPC   GL122873  24.753  21.441   9.175
 1646POPC   GL222874  24.688  21.075   9.200
 1646POPC   C1A22875  24.421  21.466   8.829
 1646POPC   D2A22876  24.228  21.321   8.461
 1646POPC   C3A22877  24.389  21.477   8.100
 1646POPC   C4A22878  24.541  21.487   7.684
 1646POPC   C1B22879  24.856  21.170   8.767
 1646POPC   C2B22880  24.779  21.445   8.427
 1646POPC   C3B22881  24.857  21.268   8.014
 1646POPC   C4B22882  24.828  21.068   7.599
 1647POPC   NC322883  42.160  25.121   9.580
 1647POPC   PO422884  42.489  25.689   9.369
 1647POPC   GL122885  42.464  25.280   9.180
 1647POPC   GL222886  42.635  25.326   8.867
 1647POPC   C1A22887  42.327  24.922   8.901
 1647POPC   D2A22888  42.161  24.861   8.485
 1647POPC   C3A22889  42.277  25.139   8.156
 1647POPC   C4A22890  42.151  25.058   7.737
 1647POPC   C1B22891  42.173  25.392   8.775
 1647POPC   C2B22892  42.081  25.571   8.395
 1647POPC   C3B22893  42.009  25.545   7.974
 1647POPC   C4B22894  42.158  25.525   7.555
 1648POPC   NC322895  12.306  16.567   9.547
 1648POPC   PO422896  11.759  16.890   9.229
 1648POPC   GL122897  12.256  16.877   9.129
 1648POPC   GL222898  12.469  16.543   9.056
 1648POPC   C1A22899  12.427  16.926   8.715
 1648POPC   D2A22900  12.069  16.963   8.411
 1648POPC   C3A22901  12.222  16.957   7.987
 1648POPC   C4A22902  11.957  16.934   7.657
 1648POPC   C1B22903  12.188  16.463   8.691
 1648POPC   C2B22904  12.195  16.507   8.226
 1648POPC   C3B22905  12.081  16.484   7.807
 1648POPC   C4B22906  12.245  16.502   7.371
 1649POPC   NC322907   9.033  15.510   9.493
 1649POPC   PO422908   8.771  16.134   9.729
 1649POPC   GL122909   8.771  15.926   9.279
 1649POPC   GL222910   9.090  15.878   9.132
 1649POPC   C1A22911   8.693  15.842   8.805
 1649POPC   D2A22912   8.684  16.151   8.441
 1649POPC   C3A22913   8.795  16.040   8.019
 1649POPC   C4A22914   8.763  15.770   7.652
 1649POPC   C1B22915   9.153  16.073   8.712
 1649POPC   C2B22916   9.253  15.965   8.278
 1649POPC   C3B22917   9.253  15.958   7.823
 1649POPC   C4B22918   9.165  15.909   7.391
 1650POPC   NC322919   0.365  21.163   9.598
 1650POPC   PO422920   0.325  21.793   9.536
 1650POPC   GL122921   0.409  21.578   9.139
 1650POPC   GL222922   0.565  21.272   9.140
 1650POPC   C1A22923   0.619  21.618   8.719
 1650POPC   D2A22924   0.551  21.757   8.278
 1650POPC   C3A22925   0.264  21.496   8.058
 1650POPC   C4A22926   0.389  21.287   7.715
 1650POPC   C1B22927   0.521  21.102   8.736
 1650POPC   C2B22928   0.633  21.208   8.310
 1650POPC   C3B22929   0.751  20.985   7.949
 1650POPC   C4B22930   0.627  20.851   7.528
 1651POPC   NC322931  12.948  37.229   9.679
 1651POPC   PO422932  12.781  36.595   9.537
 1651POPC   GL122933  12.838  36.855   9.173
 1651POPC   GL222934  13.169  37.034   9.144
 1651POPC   C1A22935  12.789  37.127   8.803
 1651POPC   D2A22936  12.889  37.243   8.353
 1651POPC   C3A22937  12.771  36.922   8.028
 1651POPC   C4A22938  12.443  36.742   7.724
 1651POPC   C1B22939  13.238  36.951   8.652
 1651POPC   C2B22940  13.226  36.795   8.197
 1651POPC   C3B22941  13.343  36.926   7.753
 1651POPC   C4B22942  13.384  36.759   7.324
 1652POPC   NC322943  19.808   0.690   9.620
 1652POPC   PO422944  19.382   0.225   9.413
 1652POPC   GL122945  19.772   0.376   9.182
 1652POPC   GL222946  19.864   0.698   9.125
 1652POPC   C1A22947  19.998   0.320   8.777
 1652POPC   D2A22948  20.006   0.391   8.323
 1652POPC   C3A22949  20.101   0.124   7.961
 1652POPC   C4A22950  19.829   0.307   7.667
 1652POPC   C1B22951  19.598   0.791   8.790
 1652POPC   C2B22952  19.773   0.880   8.394
 1652POPC   C3B22953  19.691   0.762   7.969
 1652POPC   C4B22954  19.948   0.781   7.603
 1653POPC   NC322955  25.402  22.387   9.782
 1653POPC   PO422956  25.338  23.023   9.566
 1653POPC   GL122957  25.197  23.063   9.185
 1653POPC   GL222958  25.123  22.721   9.133
 1653POPC   C1A22959  25.397  23.138   8.816
 1653POPC   D2A22960  25.229  23.211   8.454
 1653POPC   C3A22961  25.504  23.357   8.171
 1653POPC   C4A22962  25.460  23.116   7.840
 1653POPC   C1B22963  25.471  22.640   8.850
 1653POPC   C2B22964  25.553  22.775   8.436
 1653POPC   C3B22965  25.449  22.620   8.055
 1653POPC   C4B22966  25.524  22.675   7.647
 1654POPC   NC322967  44.306   3.006   9.372
 1654POPC   PO422968  43.798   2.617   9.531
 1654POPC   GL122969  43.894   2.781   9.127
 1654POPC   GL222970  43.890   3.148   9.102
 1654POPC   C1A22971  43.663   2.846   8.741
 1654POPC   D2A22972  43.790   2.969   8.329
 1654POPC   C3A22973  44.035   2.633   8.100
 1654POPC   C4A22974  43.845   2.492   7.715
 1654POPC   C1B22975  44.176   3.006   8.736
 1654POPC   C2B22976  44.287   3.065   8.309
 1654POPC   C3B22977  44.077   3.077   7.887
 1654POPC   C4B22978  43.910   2.996   7.448
 1655POPC   NC322979  37.211  28.108   9.252
 1655POPC   PO422980  37.627  28.677   9.517
 1655POPC   GL122981  37.428  28.551   9.187
 1655POPC   GL222982  37.714  28.353   8.994
 1655POPC   C1A22983  37.352  28.614   8.799
 1655POPC   D2A22984  37.333  28.287   8.502
 1655POPC   C3A22985  37.652  28.378   8.198
 1655POPC   C4A22986  37.635  28.440   7.754
 1655POPC   C1B22987  37.677  27.990   8.731
 1655POPC   C2B22988  37.835  27.822   8.346
 1655POPC   C3B22989  37.701  27.924   7.946
 1655POPC   C4B22990  37.833  28.022   7.548
 1656POPC   NC322991  15.877  28.693   9.446
 1656POPC   PO422992  16.155  29.262   9.651
 1656POPC   GL122993  15.887  29.220   9.295
 1656POPC   GL222994  16.099  29.447   9.158
 1656POPC   C1A22995  15.832  29.065   8.854
 1656POPC   D2A22996  16.024  28.937   8.457
 1656POPC   C3A22997  15.883  28.932   8.017
 1656POPC   C4A22998  15.736  29.230   7.712
 1656POPC   C1B22999  16.150  29.460   8.732
 1656POPC   C2B23000  16.326  29.364   8.360
 1656POPC   C3B23001  16.122  29.404   7.965
 1656POPC   C4B23002  16.180  29.641   7.597
 1657POPC   NC323003  16.269  26.198   9.611
 1657POPC   PO423004  15.662  26.377   9.534
 1657POPC   GL123005  15.739  26.229   9.121
 1657POPC   GL223006  16.035  26.442   9.123
 1657POPC   C1A23007  15.640  25.929   8.734
 1657POPC   D2A23008  15.473  25.812   8.286
 1657POPC   C3A23009  15.812  25.716   7.959
 1657POPC   C4A23010  15.898  26.022   7.625
 1657POPC   C1B23011  15.956  26.361   8.668
 1657POPC   C2B23012  15.953  26.076   8.312
 1657POPC   C3B23013  16.256  25.989   7.992
 1657POPC   C4B23014  16.566  26.301   7.911
 1658POPC   NC323015  11.654  12.795   9.520
 1658POPC   PO423016  12.202  12.569   9.597
 1658POPC   GL123017  12.246  12.678   9.185
 1658POPC   GL223018  11.967  12.928   9.097
 1658POPC   C1A23019  12.312  12.704   8.760
 1658POPC   D2A23020  11.974  12.777   8.473
 1658POPC   C3A23021  12.181  12.931   8.123
 1658POPC   C4A23022  12.231  12.694   7.795
 1658POPC   C1B23023  12.122  13.212   8.732
 1658POPC   C2B23024  11.887  13.292   8.342
 1658POPC   C3B23025  11.674  12.989   8.060
 1658POPC   C4B23026  11.752  12.814   7.668
 1659POPC   NC323027   4.349  27.237   9.463
 1659POPC   PO423028   4.441  26.647   9.689
 1659POPC   GL123029   4.387  26.745   9.271
 1659POPC   GL223030   4.653  26.924   9.239
 1659POPC   C1A23031   4.233  26.793   8.830
 1659POPC   D2A23032   4.386  26.651   8.418
 1659POPC   C3A23033   4.276  26.617   7.984
 1659POPC   C4A23034   4.220  26.676   7.533
 1659POPC   C1B23035   4.725  26.949   8.815
 1659POPC   C2B23036   4.521  27.128   8.454
 1659POPC   C3B23037   4.283  27.157   8.084
 1659POPC   C4B23038   4.471  27.101   7.702
 1660POPC   NC323039  11.968  43.438   9.543
 1660POPC   PO423040  12.339  42.985   9.288
 1660POPC   GL123041  11.996  42.876   9.086
 1660POPC   GL223042  11.941  43.238   9.034
 1660POPC   C1A23043  12.058  42.904   8.657
 1660POPC   D2A23044  11.847  43.148   8.362
 1660POPC   C3A23045  12.012  43.094   7.994
 1660POPC   C4A23046  12.007  42.826   7.657
 1660POPC   C1B23047  12.203  43.390   8.671
 1660POPC   C2B23048  12.402  43.342   8.249
 1660POPC   C3B23049  12.367  43.395   7.783
 1660POPC   C4B23050  12.200  43.720   7.457
 1661POPC   NC323051  27.139  16.948   9.802
 1661POPC   PO423052  26.539  16.821   9.534
 1661POPC   GL123053  26.665  16.766   9.146
 1661POPC   GL223054  27.012  16.714   9.236
 1661POPC   C1A23055  26.528  16.939   8.784
 1661POPC   D2A23056  26.618  16.656   8.478
 1661POPC   C3A23057  26.486  16.673   8.068
 1661POPC   C4A23058  26.683  16.413   7.800
 1661POPC   C1B23059  27.069  16.620   8.766
 1661POPC   C2B23060  27.076  16.594   8.274
 1661POPC   C3B23061  27.090  16.736   7.844
 1661POPC   C4B23062  27.144  16.790   7.393
 1662POPC   NC323063  31.127  38.229   9.380
 1662POPC   PO423064  31.791  38.346   9.519
 1662POPC   GL123065  31.602  38.534   9.152
 1662POPC   GL223066  31.351  38.331   8.961
 1662POPC   C1A23067  31.502  38.762   8.779
 1662POPC   D2A23068  31.358  38.572   8.423
 1662POPC   C3A23069  31.498  38.761   8.050
 1662POPC   C4A23070  31.268  38.634   7.701
 1662POPC   C1B23071  31.649  38.235   8.695
 1662POPC   C2B23072  31.570  38.021   8.322
 1662POPC   C3B23073  31.478  38.257   7.983
 1662POPC   C4B23074  31.735  38.444   7.665
 1663POPC   NC323075  19.067   3.558   9.259
 1663POPC   PO423076  19.653   3.638   9.542
 1663POPC   GL123077  19.508   3.524   9.053
 1663POPC   GL223078  19.509   3.310   8.819
 1663POPC   C1A23079  19.074   3.434   8.647
 1663POPC   D2A23080  18.897   3.799   8.398
 1663POPC   C3A23081  18.848   3.675   7.962
 1663POPC   C4A23082  19.028   3.379   7.661
 1663POPC   C1B23083  19.401   3.796   8.661
 1663POPC   C2B23084  19.494   3.926   8.302
 1663POPC   C3B23085  19.383   3.722   7.943
 1663POPC   C4B23086  19.477   3.946   7.633
 1664POPC   NC323087   9.725   2.636   9.632
 1664POPC   PO423088   9.806   3.293   9.661
 1664POPC   GL123089   9.983   3.006   9.331
 1664POPC   GL223090   9.670   2.859   9.178
 1664POPC   C1A23091  10.112   2.873   8.888
 1664POPC   D2A23092   9.875   2.707   8.509
 1664POPC   C3A23093   9.865   2.781   8.041
 1664POPC   C4A23094   9.922   2.693   7.576
 1664POPC   C1B23095   9.519   2.556   8.899
 1664POPC   C2B23096   9.495   2.351   8.497
 1664POPC   C3B23097   9.396   2.505   8.107
 1664POPC   C4B23098   9.488   2.427   7.701
 1665POPC   NC323099  27.752   5.388   9.602
 1665POPC   PO423100  27.268   4.895   9.499
 1665POPC   GL123101  27.653   4.925   9.272
 1665POPC   GL223102  27.598   5.243   9.136
 1665POPC   C1A23103  27.695   4.791   8.849
 1665POPC   D2A23104  27.496   4.755   8.456
 1665POPC   C3A23105  27.458   4.996   8.134
 1665POPC   C4A23106  27.584   4.921   7.772
 1665POPC   C1B23107  27.431   5.239   8.733
 1665POPC   C2B23108  27.398   5.470   8.333
 1665POPC   C3B23109  27.322   5.435   7.900
 1665POPC   C4B23110  27.398   5.378   7.481
 1666POPC   NC323111  23.183   6.761   9.599
 1666POPC   PO423112  22.771   6.332   9.691
 1666POPC   GL123113  22.853   6.410   9.238
 1666POPC   GL223114  23.167   6.557   9.101
 1666POPC   C1A23115  22.773   6.488   8.752
 1666POPC   D2A23116  22.899   6.420   8.282
 1666POPC   C3A23117  22.696   6.542   7.836
 1666POPC   C4A23118  22.699   6.551   7.370
 1666POPC   C1B23119  23.271   6.390   8.679
 1666POPC   C2B23120  23.349   6.685   8.342
 1666POPC   C3B23121  23.111   6.825   7.993
 1666POPC   C4B23122  23.144   6.580   7.614
 1667POPC   NC323123  25.729   2.620   9.362
 1667POPC   PO423124  26.271   3.087   9.236
 1667POPC   GL123125  26.115   2.700   9.050
 1667POPC   GL223126  26.267   2.363   9.001
 1667POPC   C1A23127  25.895   2.756   8.685
 1667POPC   D2A23128  26.048   2.750   8.280
 1667POPC   C3A23129  25.767   2.902   7.975
 1667POPC   C4A23130  25.980   3.058   7.674
 1667POPC   C1B23131  25.932   2.256   8.694
 1667POPC   C2B23132  25.976   2.248   8.230
 1667POPC   C3B23133  26.049   2.502   7.830
 1667POPC   C4B23134  25.943   2.622   7.413
 1668POPC   NC323135   3.440  33.987   9.545
 1668POPC   PO423136   3.892  33.507   9.769
 1668POPC   GL123137   3.472  33.562   9.303
 1668POPC   GL223138   3.527  33.926   9.072
 1668POPC   C1A23139   3.512  33.513   8.824
 1668POPC   D2A23140   3.421  33.723   8.455
 1668POPC   C3A23141   3.318  33.415   8.166
 1668POPC   C4A23142   3.492  33.567   7.785
 1668POPC   C1B23143   3.804  33.956   8.714
 1668POPC   C2B23144   3.901  33.911   8.277
 1668POPC   C3B23145   3.575  33.998   8.005
 1668POPC   C4B23146   3.595  34.154   7.594
 1669POPC   NC323147  32.639  12.177   9.559
 1669POPC   PO423148  32.317  11.521   9.445
 1669POPC   GL123149  32.241  11.964   9.197
 1669POPC   GL223150  32.186  12.363   9.213
 1669POPC   C1A23151  32.210  12.152   8.751
 1669POPC   D2A23152  32.421  12.256   8.357
 1669POPC   C3A23153  32.343  11.930   8.029
 1669POPC   C4A23154  31.977  11.900   7.732
 1669POPC   C1B23155  31.947  12.579   8.839
 1669POPC   C2B23156  31.965  12.482   8.368
 1669POPC   C3B23157  32.052  12.353   7.948
 1669POPC   C4B23158  32.389  12.246   7.634
 1670POPC   NC323159  44.289  31.251   9.524
 1670POPC   PO423160  44.527  31.821   9.618
 1670POPC   GL123161  44.605  31.732   9.127
 1670POPC   GL223162  44.685  31.424   9.103
 1670POPC   C1A23163  44.895  31.732   8.760
 1670POPC   D2A23164   0.015  31.541   8.354
 1670POPC   C3A23165  44.810  31.617   7.944
 1670POPC   C4A23166  44.881  31.592   7.454
 1670POPC   C1B23167  44.831  31.166   8.799
 1670POPC   C2B23168  44.698  31.007   8.435
 1670POPC   C3B23169  44.828  31.112   8.051
 1670POPC   C4B23170  44.621  31.205   7.661
 1671POPC   NC323171  32.402  42.681   9.448
 1671POPC   PO423172  31.925  42.262   9.524
 1671POPC   GL123173  32.126  42.370   9.147
 1671POPC   GL223174  32.075  42.733   9.052
 1671POPC   C1A23175  32.342  42.350   8.764
 1671POPC   D2A23176  32.288  42.627   8.405
 1671POPC   C3A23177  32.451  42.445   8.042
 1671POPC   C4A23178  32.624  42.559   7.670
 1671POPC   C1B23179  31.839  42.497   8.739
 1671POPC   C2B23180  31.840  42.331   8.355
 1671POPC   C3B23181  31.931  42.532   7.993
 1671POPC   C4B23182  32.122  42.349   7.645
 1672POPC   NC323183  13.363   9.199   9.499
 1672POPC   PO423184  13.798   8.683   9.484
 1672POPC   GL123185  13.761   8.916   9.145
 1672POPC   GL223186  13.433   8.853   9.117
 1672POPC   C1A23187  13.690   9.027   8.719
 1672POPC   D2A23188  13.580   9.175   8.346
 1672POPC   C3A23189  13.681   8.936   8.056
 1672POPC   C4A23190  13.731   9.090   7.679
 1672POPC   C1B23191  13.258   8.677   8.792
 1672POPC   C2B23192  13.440   8.646   8.422
 1672POPC   C3B23193  13.306   8.579   8.039
 1672POPC   C4B23194  13.317   8.789   7.689
 1673POPC   NC323195  43.280  18.620   9.447
 1673POPC   PO423196  43.200  19.261   9.450
 1673POPC   GL123197  43.164  18.966   9.078
 1673POPC   GL223198  42.856  18.785   9.098
 1673POPC   C1A23199  43.091  19.025   8.632
 1673POPC   D2A23200  43.170  19.385   8.328
 1673POPC   C3A23201  43.257  19.125   7.962
 1673POPC   C4A23202  43.021  18.752   7.917
 1673POPC   C1B23203  42.746  19.236   8.981
 1673POPC   C2B23204  42.709  19.364   8.570
 1673POPC   C3B23205  42.750  19.103   8.229
 1673POPC   C4B23206  42.735  19.171   7.826
 1674POPC   NC323207  23.077   9.709   9.267
 1674POPC   PO423208  23.735   9.691   9.554
 1674POPC   GL123209  23.845   9.686   9.166
 1674POPC   GL223210  23.548   9.709   9.048
 1674POPC   C1A23211  23.929   9.523   8.752
 1674POPC   D2A23212  23.698   9.505   8.401
 1674POPC   C3A23213  23.919   9.463   8.055
 1674POPC   C4A23214  24.190   9.520   7.739
 1674POPC   C1B23215  23.615   9.953   8.672
 1674POPC   C2B23216  23.380   9.899   8.274
 1674POPC   C3B23217  23.566   9.844   7.895
 1674POPC   C4B23218  23.964   9.961   7.819
 1675POPC   NC323219  18.732   7.186   9.322
 1675POPC   PO423220  19.226   7.632   9.566
 1675POPC   GL123221  19.017   7.589   9.174
 1675POPC   GL223222  19.311   7.382   9.114
 1675POPC   C1A23223  18.972   7.384   8.744
 1675POPC   D2A23224  18.924   7.238   8.344
 1675POPC   C3A23225  19.156   7.325   8.015
 1675POPC   C4A23226  18.997   7.561   7.646
 1675POPC   C1B23227  19.330   7.734   8.798
 1675POPC   C2B23228  19.439   7.654   8.375
 1675POPC   C3B23229  19.367   7.776   7.968
 1675POPC   C4B23230  19.490   7.604   7.575
 1676POPC   NC323231  12.651  17.653   9.413
 1676POPC   PO423232  13.295  17.598   9.399
 1676POPC   GL123233  13.011  17.473   9.066
 1676POPC   GL223234  12.726  17.205   9.150
 1676POPC   C1A23235  12.986  17.646   8.622
 1676POPC   D2A23236  12.868  17.507   8.201
 1676POPC   C3A23237  12.987  17.629   7.742
 1676POPC   C4A23238  13.248  17.830   7.385
 1676POPC   C1B23239  12.566  17.421   8.770
 1676POPC   C2B23240  12.432  17.302   8.341
 1676POPC   C3B23241  12.484  17.383   7.882
 1676POPC   C4B23242  12.542  17.509   7.437
 1677POPC   NC323243  19.155  21.733   9.522
 1677POPC   PO423244  19.495  21.133   9.600
 1677POPC   GL123245  19.316  21.296   9.177
 1677POPC   GL223246  18.953  21.390   9.180
 1677POPC   C1A23247  19.196  21.293   8.732
 1677POPC   D2A23248  19.247  21.400   8.299
 1677POPC   C3A23249  19.252  21.079   7.988
 1677POPC   C4A23250  18.925  21.149   7.700
 1677POPC   C1B23251  18.775  21.573   8.809
 1677POPC   C2B23252  18.726  21.423   8.392
 1677POPC   C3B23253  18.761  21.557   7.964
 1677POPC   C4B23254  18.664  21.577   7.491
 1678POPC   NC323255   8.243  28.331   9.868
 1678POPC   PO423256   8.046  28.565   9.262
 1678POPC   GL123257   8.227  28.378   8.972
 1678POPC   GL223258   8.335  28.111   9.179
 1678POPC   C1A23259   8.489  28.343   8.603
 1678POPC   D2A23260   8.619  28.612   8.298
 1678POPC   C3A23261   8.430  28.479   7.925
 1678POPC   C4A23262   8.013  28.596   7.823
 1678POPC   C1B23263   8.072  27.916   8.839
 1678POPC   C2B23264   7.998  28.217   8.535
 1678POPC   C3B23265   7.929  28.214   8.143
 1678POPC   C4B23266   8.168  28.059   7.801
 1679POPC   NC323267   8.657   4.960   9.807
 1679POPC   PO423268   8.836   5.446   9.480
 1679POPC   GL123269   8.932   5.105   9.226
 1679POPC   GL223270   9.180   5.298   9.067
 1679POPC   C1A23271   9.042   4.900   8.811
 1679POPC   D2A23272   9.156   4.934   8.421
 1679POPC   C3A23273   8.924   4.988   8.065
 1679POPC   C4A23274   9.106   5.052   7.685
 1679POPC   C1B23275   8.772   5.319   8.819
 1679POPC   C2B23276   8.669   5.206   8.458
 1679POPC   C3B23277   8.686   5.492   8.157
 1679POPC   C4B23278   8.716   5.377   7.757
 1680POPC   NC323279   2.545   2.571   9.447
 1680POPC   PO423280   3.225   2.583   9.420
 1680POPC   GL123281   2.897   2.735   9.093
 1680POPC   GL223282   2.575   2.954   9.133
 1680POPC   C1A23283   2.974   2.929   8.693
 1680POPC   D2A23284   2.999   2.688   8.348
 1680POPC   C3A23285   2.967   2.865   7.965
 1680POPC   C4A23286   2.917   2.708   7.563
 1680POPC   C1B23287   2.514   2.745   8.747
 1680POPC   C2B23288   2.547   2.924   8.350
 1680POPC   C3B23289   2.468   2.764   7.952
 1680POPC   C4B23290   2.376   2.934   7.566
 1681POPC   NC323291  43.338  28.506   9.259
 1681POPC   PO423292  43.844  28.222   9.657
 1681POPC   GL123293  43.976  28.117   9.228
 1681POPC   GL223294  43.836  28.442   9.168
 1681POPC   C1A23295  44.115  28.298   8.781
 1681POPC   D2A23296  44.001  28.524   8.391
 1681POPC   C3A23297  44.103  28.371   7.953
 1681POPC   C4A23298  44.022  28.032   7.638
 1681POPC   C1B23299  43.745  28.729   8.822
 1681POPC   C2B23300  43.592  28.851   8.430
 1681POPC   C3B23301  43.665  28.681   8.041
 1681POPC   C4B23302  43.552  28.679   7.637
 1682POPC   NC323303  30.806  41.986   9.485
 1682POPC   PO423304  30.447  42.521   9.419
 1682POPC   GL123305  30.746  42.334   9.119
 1682POPC   GL223306  30.535  42.057   9.053
 1682POPC   C1A23307  30.872  42.163   8.696
 1682POPC   D2A23308  30.653  42.115   8.280
 1682POPC   C3A23309  30.886  42.306   7.918
 1682POPC   C4A23310  31.074  42.650   7.823
 1682POPC   C1B23311  30.455  42.427   8.707
 1682POPC   C2B23312  30.662  42.641   8.340
 1682POPC   C3B23313  30.442  42.539   7.971
 1682POPC   C4B23314  30.422  42.122   7.790
 1683POPC   NC323315  41.697  24.708   9.401
 1683POPC   PO423316  41.499  24.081   9.493
 1683POPC   GL123317  41.384  24.375   9.144
 1683POPC   GL223318  41.082  24.560   9.048
 1683POPC   C1A23319  41.536  24.528   8.771
 1683POPC   D2A23320  41.569  24.344   8.382
 1683POPC   C3A23321  41.557  24.585   8.031
 1683POPC   C4A23322  41.435  24.382   7.677
 1683POPC   C1B23323  41.107  24.774   8.637
 1683POPC   C2B23324  41.240  24.985   8.236
 1683POPC   C3B23325  41.273  24.945   7.753
 1683POPC   C4B23326  41.303  24.699   7.331
 1684POPC   NC323327  37.954  37.298   9.466
 1684POPC   PO423328  37.574  37.817   9.574
 1684POPC   GL123329  37.729  37.760   9.163
 1684POPC   GL223330  37.607  37.446   9.111
 1684POPC   C1A23331  37.650  37.760   8.698
 1684POPC   D2A23332  37.423  37.622   8.351
 1684POPC   C3A23333  37.578  37.904   8.050
 1684POPC   C4A23334  37.513  37.948   7.627
 1684POPC   C1B23335  37.897  37.338   8.813
 1684POPC   C2B23336  37.834  37.246   8.399
 1684POPC   C3B23337  37.826  37.459   8.044
 1684POPC   C4B23338  37.512  37.465   7.766
 1685POPC   NC323339  13.184  30.427   9.481
 1685POPC   PO423340  12.913  31.076   9.585
 1685POPC   GL123341  12.872  30.788   9.244
 1685POPC   GL223342  12.709  30.438   9.275
 1685POPC   C1A23343  12.733  30.748   8.841
 1685POPC   D2A23344  12.775  30.903   8.454
 1685POPC   C3A23345  12.946  30.701   8.103
 1685POPC   C4A23346  12.823  30.856   7.703
 1685POPC   C1B23347  12.847  30.236   8.893
 1685POPC   C2B23348  12.755  30.366   8.488
 1685POPC   C3B23349  12.576  30.318   8.110
 1685POPC   C4B23350  12.504  30.438   7.716
 1686POPC   NC323351  14.247  39.326   9.651
 1686POPC   PO423352  14.741  38.933   9.465
 1686POPC   GL123353  14.443  39.202   9.176
 1686POPC   GL223354  14.071  39.258   9.183
 1686POPC   C1A23355  14.214  39.053   8.760
 1686POPC   D2A23356  14.355  39.199   8.368
 1686POPC   C3A23357  14.186  39.140   7.980
 1686POPC   C4A23358  14.526  39.367   7.771
 1686POPC   C1B23359  14.226  39.561   8.869
 1686POPC   C2B23360  14.051  39.605   8.458
 1686POPC   C3B23361  14.226  39.635   8.076
 1686POPC   C4B23362  14.059  39.561   7.680
 1687POPC   NC323363  44.952  35.508   9.613
 1687POPC   PO423364   0.540  35.036   9.442
 1687POPC   GL123365   0.446  35.261   9.097
 1687POPC   GL223366   0.282  35.512   9.217
 1687POPC   C1A23367   0.448  35.341   8.682
 1687POPC   D2A23368   0.246  35.501   8.356
 1687POPC   C3A23369   0.399  35.396   7.964
 1687POPC   C4A23370   0.282  35.044   7.717
 1687POPC   C1B23371   0.112  35.700   8.857
 1687POPC   C2B23372   0.025  35.934   8.484
 1687POPC   C3B23373  44.946  35.783   8.045
 1687POPC   C4B23374   0.244  35.789   7.659
 1688POPC   NC323375   7.109   4.704   9.376
 1688POPC   PO423376   7.551   4.209   9.499
 1688POPC   GL123377   7.571   4.278   9.080
 1688POPC   GL223378   7.682   4.593   9.122
 1688POPC   C1A23379   7.471   4.467   8.649
 1688POPC   D2A23380   7.366   4.576   8.213
 1688POPC   C3A23381   7.373   4.301   7.850
 1688POPC   C4A23382   7.345   4.399   7.383
 1688POPC   C1B23383   7.854   4.799   8.769
 1688POPC   C2B23384   7.746   4.919   8.357
 1688POPC   C3B23385   7.766   4.725   7.933
 1688POPC   C4B23386   7.797   4.644   7.450
 1689POPC   NC323387  32.808  36.532   9.527
 1689POPC   PO423388  32.807  37.204   9.618
 1689POPC   GL123389  32.860  37.071   9.193
 1689POPC   GL223390  32.817  36.733   9.062
 1689POPC   C1A23391  33.057  37.215   8.821
 1689POPC   D2A23392  32.985  37.055   8.430
 1689POPC   C3A23393  32.967  37.315   8.088
 1689POPC   C4A23394  33.015  37.028   7.748
 1689POPC   C1B23395  32.940  36.593   8.661
 1689POPC   C2B23396  33.226  36.588   8.338
 1689POPC   C3B23397  32.970  36.559   7.995
 1689POPC   C4B23398  32.728  36.599   7.626
 1690POPC   NC323399  40.352  18.938   9.676
 1690POPC   PO423400  40.951  19.270   9.614
 1690POPC   GL123401  40.962  19.280   9.161
 1690POPC   GL223402  40.598  19.250   9.119
 1690POPC   C1A23403  40.883  18.992   8.801
 1690POPC   D2A23404  40.627  19.058   8.439
 1690POPC   C3A23405  40.825  19.000   8.047
 1690POPC   C4A23406  41.098  19.131   7.741
 1690POPC   C1B23407  40.327  19.366   8.783
 1690POPC   C2B23408  40.379  19.538   8.395
 1690POPC   C3B23409  40.590  19.464   8.035
 1690POPC   C4B23410  40.598  19.240   7.649
 1691POPC   NC323411  28.518  26.872   9.466
 1691POPC   PO423412  29.247  26.947   9.576
 1691POPC   GL123413  28.991  27.004   9.207
 1691POPC   GL223414  28.843  26.695   9.090
 1691POPC   C1A23415  29.269  26.971   8.845
 1691POPC   D2A23416  29.607  27.026   8.543
 1691POPC   C3A23417  29.449  27.161   8.162
 1691POPC   C4A23418  29.475  27.016   7.750
 1691POPC   C1B23419  29.074  26.501   8.753
 1691POPC   C2B23420  29.177  26.729   8.406
 1691POPC   C3B23421  29.096  26.786   8.026
 1691POPC   C4B23422  28.938  26.814   7.671
 1692POPC   NC323423  41.967   7.826   9.471
 1692POPC   PO423424  42.501   8.304   9.455
 1692POPC   GL123425  42.326   8.086   9.145
 1692POPC   GL223426  42.042   8.269   9.169
 1692POPC   C1A23427  42.444   8.144   8.713
 1692POPC   D2A23428  42.590   7.901   8.382
 1692POPC   C3A23429  42.540   8.105   8.071
 1692POPC   C4A23430  42.264   8.012   7.819
 1692POPC   C1B23431  42.014   8.424   8.739
 1692POPC   C2B23432  42.170   8.354   8.328
 1692POPC   C3B23433  42.002   8.424   7.931
 1692POPC   C4B23434  42.155   8.631   7.576
 1693POPC   NC323435  37.076  22.445   9.375
 1693POPC   PO423436  37.705  22.318   9.636
 1693POPC   GL123437  37.736  22.268   9.179
 1693POPC   GL223438  37.552  21.951   9.128
 1693POPC   C1A23439  37.714  22.255   8.733
 1693POPC   D2A23440  37.646  22.095   8.313
 1693POPC   C3A23441  37.442  22.352   8.031
 1693POPC   C4A23442  37.718  22.583   7.774
 1693POPC   C1B23443  37.490  21.776   8.711
 1693POPC   C2B23444  37.506  21.613   8.278
 1693POPC   C3B23445  37.426  21.875   7.897
 1693POPC   C4B23446  37.827  22.086   7.779
 1694POPC   NC323447  15.196   9.874   9.495
 1694POPC   PO423448  14.753   9.375   9.401
 1694POPC   GL123449  15.054   9.521   9.117
 1694POPC   GL223450  15.366   9.392   9.261
 1694POPC   C1A23451  15.078   9.911   8.824
 1694POPC   D2A23452  15.180   9.958   8.367
 1694POPC   C3A23453  14.890   9.980   7.990
 1694POPC   C4A23454  14.977  10.104   7.526
 1694POPC   C1B23455  15.483   9.577   8.853
 1694POPC   C2B23456  15.274   9.416   8.502
 1694POPC   C3B23457  15.282   9.533   8.088
 1694POPC   C4B23458  15.333   9.819   7.766
 1695POPC   NC323459  23.626  24.019   9.397
 1695POPC   PO423460  23.748  23.396   9.466
 1695POPC   GL123461  23.787  23.604   9.112
 1695POPC   GL223462  24.041  23.874   9.132
 1695POPC   C1A23463  23.858  23.480   8.688
 1695POPC   D2A23464  23.650  23.645   8.330
 1695POPC   C3A23465  23.727  23.451   7.955
 1695POPC   C4A23466  23.577  23.618   7.602
 1695POPC   C1B23467  23.723  23.962   8.756
 1695POPC   C2B23468  23.769  24.134   8.346
 1695POPC   C3B23469  23.844  23.955   7.930
 1695POPC   C4B23470  23.812  24.062   7.474
 1696POPC   NC323471  22.530  11.431   9.501
 1696POPC   PO423472  22.133  10.788   9.629
 1696POPC   GL123473  22.261  11.013   9.233
 1696POPC   GL223474  22.150  11.366   9.156
 1696POPC   C1A23475  22.260  11.110   8.751
 1696POPC   D2A23476  22.078  11.432   8.462
 1696POPC   C3A23477  22.133  11.339   8.001
 1696POPC   C4A23478  22.404  11.053   7.706
 1696POPC   C1B23479  22.414  11.619   8.844
 1696POPC   C2B23480  22.592  11.597   8.424
 1696POPC   C3B23481  22.439  11.748   8.022
 1696POPC   C4B23482  22.499  11.562   7.680
 1697POPC   NC323483   6.459  43.463   9.356
 1697POPC   PO423484   6.934  43.977   9.415
 1697POPC   GL123485   6.739  43.791   9.049
 1697POPC   GL223486   6.395  43.908   9.085
 1697POPC   C1A23487   6.511  43.657   8.648
 1697POPC   D2A23488   6.276  43.823   8.263
 1697POPC   C3A23489   6.512  43.973   7.958
 1697POPC   C4A23490   6.967  43.949   7.840
 1697POPC   C1B23491   6.176  44.048   8.707
 1697POPC   C2B23492   6.110  44.300   8.391
 1697POPC   C3B23493   6.049  44.275   7.946
 1697POPC   C4B23494   6.362  44.325   7.613
 1698POPC   NC323495   6.361   0.727   9.556
 1698POPC   PO423496   6.511   0.157   9.327
 1698POPC   GL123497   6.500   0.546   9.098
 1698POPC   GL223498   6.825   0.635   9.066
 1698POPC   C1A23499   6.517   0.579   8.658
 1698POPC   D2A23500   6.479   0.199   8.427
 1698POPC   C3A23501   6.242   0.233   8.072
 1698POPC   C4A23502   6.341   0.220   7.677
 1698POPC   C1B23503   6.906   0.278   8.736
 1698POPC   C2B23504   6.961   0.008   8.384
 1698POPC   C3B23505   6.838   0.307   8.064
 1698POPC   C4B23506   6.546   0.617   7.941
 1699POPC   NC323507  40.747  28.620   9.523
 1699POPC   PO423508  40.318  28.134   9.525
 1699POPC   GL123509  40.691  28.135   9.193
 1699POPC   GL223510  40.894  28.455   9.077
 1699POPC   C1A23511  40.804  28.138   8.735
 1699POPC   D2A23512  40.763  28.369   8.393
 1699POPC   C3A23513  40.827  28.190   8.033
 1699POPC   C4A23514  40.605  28.339   7.730
 1699POPC   C1B23515  41.198  28.512   8.670
 1699POPC   C2B23516  41.218  28.477   8.193
 1699POPC   C3B23517  41.152  28.467   7.724
 1699POPC   C4B23518  41.295  28.439   7.264
 1700POPC   NC323519  13.085  23.929   9.438
 1700POPC   PO423520  12.725  23.352   9.642
 1700POPC   GL123521  12.585  23.524   9.122
 1700POPC   GL223522  12.698  23.895   9.076
 1700POPC   C1A23523  12.797  23.611   8.678
 1700POPC   D2A23524  13.100  23.674   8.331
 1700POPC   C3A23525  12.948  23.638   7.909
 1700POPC   C4A23526  12.979  23.773   7.472
 1700POPC   C1B23527  12.535  24.036   8.642
 1700POPC   C2B23528  12.614  23.949   8.189
 1700POPC   C3B23529  12.567  23.968   7.728
 1700POPC   C4B23530  12.531  23.853   7.245
 1701POPC   NC323531  24.828  27.218   9.674
 1701POPC   PO423532  24.198  26.937   9.513
 1701POPC   GL123533  24.557  26.884   9.301
 1701POPC   GL223534  24.316  26.792   9.032
 1701POPC   C1A23535  24.804  26.863   8.903
 1701POPC   D2A23536  24.578  26.729   8.511
 1701POPC   C3A23537  24.757  26.701   8.084
 1701POPC   C4A23538  24.598  26.859   7.684
 1701POPC   C1B23539  24.220  26.436   8.781
 1701POPC   C2B23540  24.133  26.490   8.382
 1701POPC   C3B23541  24.228  26.717   8.040
 1701POPC   C4B23542  24.177  26.567   7.637
 1702POPC   NC323543  17.553  21.920   9.711
 1702POPC   PO423544  17.541  21.228   9.589
 1702POPC   GL123545  17.550  21.402   9.207
 1702POPC   GL223546  17.752  21.697   9.269
 1702POPC   C1A23547  17.364  21.392   8.782
 1702POPC   D2A23548  17.218  21.168   8.421
 1702POPC   C3A23549  17.431  21.271   8.034
 1702POPC   C4A23550  17.444  21.198   7.602
 1702POPC   C1B23551  17.863  21.566   8.839
 1702POPC   C2B23552  17.775  21.458   8.403
 1702POPC   C3B23553  17.890  21.503   7.951
 1702POPC   C4B23554  17.704  21.644   7.553
 1703POPC   NC323555   8.744  44.140   9.432
 1703POPC   PO423556   9.297  44.320   9.297
 1703POPC   GL123557   9.054  43.995   9.064
 1703POPC   GL223558   8.979  43.638   9.138
 1703POPC   C1A23559   8.839  43.967   8.677
 1703POPC   D2A23560   8.755  44.233   8.316
 1703POPC   C3A23561   8.963  44.028   7.981
 1703POPC   C4A23562   9.058  44.157   7.597
 1703POPC   C1B23563   9.169  43.561   8.742
 1703POPC   C2B23564   8.990  43.494   8.349
 1703POPC   C3B23565   9.085  43.512   7.926
 1703POPC   C4B23566   8.820  43.680   7.624
 1704POPC   NC323567  29.809  37.948   9.725
 1704POPC   PO423568  30.112  37.404   9.426
 1704POPC   GL123569  29.885  37.821   9.228
 1704POPC   GL223570  29.549  37.849   9.075
 1704POPC   C1A23571  29.970  38.093   8.865
 1704POPC   D2A23572  29.902  38.217   8.428
 1704POPC   C3A23573  29.757  37.948   8.078
 1704POPC   C4A23574  29.910  37.841   7.650
 1704POPC   C1B23575  29.746  37.676   8.667
 1704POPC   C2B23576  29.753  37.428   8.285
 1704POPC   C3B23577  29.801  37.376   7.846
 1704POPC   C4B23578  29.532  37.445   7.467
 1705POPC   NC323579   7.190  41.355   9.589
 1705POPC   PO423580   7.685  41.066   9.308
 1705POPC   GL123581   7.341  41.327   9.121
 1705POPC   GL223582   7.297  41.705   9.215
 1705POPC   C1A23583   7.156  41.466   8.757
 1705POPC   D2A23584   7.381  41.611   8.390
 1705POPC   C3A23585   7.316  41.404   8.036
 1705POPC   C4A23586   7.573  41.297   7.707
 1705POPC   C1B23587   7.442  41.905   8.832
 1705POPC   C2B23588   7.395  42.120   8.434
 1705POPC   C3B23589   7.223  41.984   8.063
 1705POPC   C4B23590   7.414  41.779   7.702
 1706POPC   NC323591   4.568  24.359   9.489
 1706POPC   PO423592   4.315  24.998   9.513
 1706POPC   GL123593   4.429  24.790   9.142
 1706POPC   GL223594   4.247  24.461   9.101
 1706POPC   C1A23595   4.371  24.765   8.698
 1706POPC   D2A23596   4.293  24.564   8.318
 1706POPC   C3A23597   4.312  24.776   7.901
 1706POPC   C4A23598   4.465  24.848   7.440
 1706POPC   C1B23599   3.992  24.389   8.735
 1706POPC   C2B23600   4.006  24.150   8.353
 1706POPC   C3B23601   4.339  24.139   8.041
 1706POPC   C4B23602   4.333  24.351   7.605
 1707POPC   NC323603  17.667  41.921   9.442
 1707POPC   PO423604  17.462  42.589   9.579
 1707POPC   GL123605  17.269  42.407   9.222
 1707POPC   GL223606  17.554  42.246   9.078
 1707POPC   C1A23607  17.138  42.316   8.800
 1707POPC   D2A23608  17.275  42.097   8.420
 1707POPC   C3A23609  17.310  42.387   8.069
 1707POPC   C4A23610  17.396  42.342   7.629
 1707POPC   C1B23611  17.601  42.520   8.738
 1707POPC   C2B23612  17.745  42.461   8.349
 1707POPC   C3B23613  17.843  42.410   7.936
 1707POPC   C4B23614  17.662  42.745   7.805
 1708POPC   NC323615  44.231  33.034   9.643
 1708POPC   PO423616  44.752  33.375   9.495
 1708POPC   GL123617  44.548  33.096   9.201
 1708POPC   GL223618  44.719  32.762   9.222
 1708POPC   C1A23619  44.598  33.153   8.755
 1708POPC   D2A23620  44.377  32.987   8.396
 1708POPC   C3A23621  44.503  33.109   8.041
 1708POPC   C4A23622  44.354  33.128   7.622
 1708POPC   C1B23623  44.862  32.726   8.792
 1708POPC   C2B23624  44.905  32.924   8.399
 1708POPC   C3B23625  44.862  32.749   8.006
 1708POPC   C4B23626  44.992  32.699   7.528
 1709POPC   NC323627  28.306  22.466   9.566
 1709POPC   PO423628  28.177  23.132   9.475
 1709POPC   GL123629  28.361  23.075   9.081
 1709POPC   GL223630  28.492  22.788   9.121
 1709POPC   C1A23631  28.294  22.938   8.665
 1709POPC   D2A23632  28.266  22.756   8.277
 1709POPC   C3A23633  28.292  23.026   7.931
 1709POPC   C4A23634  28.055  22.893   7.640
 1709POPC   C1B23635  28.762  22.722   8.759
 1709POPC   C2B23636  28.769  22.731   8.320
 1709POPC   C3B23637  28.615  22.634   7.915
 1709POPC   C4B23638  28.542  22.775   7.528
 1710POPC   NC323639  39.343  17.730   9.655
 1710POPC   PO423640  39.151  17.117   9.494
 1710POPC   GL123641  39.205  17.435   9.152
 1710POPC   GL223642  39.212  17.802   9.135
 1710POPC   C1A23643  39.125  17.447   8.711
 1710POPC   D2A23644  38.795  17.335   8.456
 1710POPC   C3A23645  38.980  17.279   8.044
 1710POPC   C4A23646  39.379  17.404   7.845
 1710POPC   C1B23647  39.351  17.895   8.690
 1710POPC   C2B23648  39.286  17.753   8.242
 1710POPC   C3B23649  39.342  18.042   7.885
 1710POPC   C4B23650  39.256  18.043   7.411
 1711POPC   NC323651  14.554  33.828   9.495
 1711POPC   PO423652  13.991  33.906   9.516
 1711POPC   GL123653  14.125  33.556   9.196
 1711POPC   GL223654  14.504  33.458   9.144
 1711POPC   C1A23655  14.226  33.634   8.751
 1711POPC   D2A23656  14.368  33.975   8.496
 1711POPC   C3A23657  14.319  33.878   8.084
 1711POPC   C4A23658  14.116  33.521   7.929
 1711POPC   C1B23659  14.738  33.601   8.757
 1711POPC   C2B23660  14.755  33.688   8.329
 1711POPC   C3B23661  14.776  33.806   7.905
 1711POPC   C4B23662  14.510  33.649   7.649
 1712POPC   NC323663  24.912  16.600   9.414
 1712POPC   PO423664  24.255  16.774   9.452
 1712POPC   GL123665  24.484  16.909   9.118
 1712POPC   GL223666  24.809  17.068   9.226
 1712POPC   C1A23667  24.564  16.703   8.733
 1712POPC   D2A23668  24.622  16.832   8.311
 1712POPC   C3A23669  24.747  16.567   7.968
 1712POPC   C4A23670  24.676  16.340   7.599
 1712POPC   C1B23671  24.852  17.162   8.782
 1712POPC   C2B23672  25.068  17.083   8.379
 1712POPC   C3B23673  24.873  17.108   7.944
 1712POPC   C4B23674  24.869  16.918   7.584
 1713POPC   NC323675   3.152   8.398   9.534
 1713POPC   PO423676   2.644   8.070   9.916
 1713POPC   GL123677   2.579   8.036   9.353
 1713POPC   GL223678   2.682   8.277   9.040
 1713POPC   C1A23679   2.449   7.892   8.861
 1713POPC   D2A23680   2.684   7.876   8.436
 1713POPC   C3A23681   2.690   8.127   8.041
 1713POPC   C4A23682   2.519   8.043   7.596
 1713POPC   C1B23683   3.041   8.377   8.799
 1713POPC   C2B23684   3.132   8.367   8.354
 1713POPC   C3B23685   2.994   8.528   7.951
 1713POPC   C4B23686   2.578   8.538   7.746
 1714POPC   NC323687  39.765   1.447   9.485
 1714POPC   PO423688  40.200   1.026   9.401
 1714POPC   GL123689  40.041   1.214   9.075
 1714POPC   GL223690  40.175   1.529   9.163
 1714POPC   C1A23691  40.021   1.013   8.675
 1714POPC   D2A23692  40.271   1.054   8.308
 1714POPC   C3A23693  40.005   1.117   7.953
 1714POPC   C4A23694  39.916   1.174   7.486
 1714POPC   C1B23695  40.276   1.458   8.680
 1714POPC   C2B23696  40.033   1.536   8.264
 1714POPC   C3B23697  40.017   1.594   7.783
 1714POPC   C4B23698  40.218   1.553   7.338
 1715POPC   NC323699  10.510  20.823   9.467
 1715POPC   PO423700  10.218  20.233   9.358
 1715POPC   GL123701  10.487  20.477   9.081
 1715POPC   GL223702  10.360  20.802   8.990
 1715POPC   C1A23703  10.722  20.461   8.689
 1715POPC   D2A23704  10.516  20.297   8.302
 1715POPC   C3A23705  10.687  20.456   7.907
 1715POPC   C4A23706  10.725  20.887   7.715
 1715POPC   C1B23707  10.279  20.676   8.592
 1715POPC   C2B23708  10.401  20.805   8.189
 1715POPC   C3B23709  10.242  20.714   7.801
 1715POPC   C4B23710  10.280  20.799   7.390
 1716POPC   NC323711  21.426  27.050   9.569
 1716POPC   PO423712  21.695  26.420   9.411
 1716POPC   GL123713  21.419  26.563   9.091
 1716POPC   GL223714  21.190  26.828   9.150
 1716POPC   C1A23715  21.528  26.790   8.697
 1716POPC   D2A23716  21.907  26.812   8.421
 1716POPC   C3A23717  21.782  26.902   8.004
 1716POPC   C4A23718  21.602  27.137   7.660
 1716POPC   C1B23719  21.023  26.647   8.758
 1716POPC   C2B23720  21.166  26.489   8.338
 1716POPC   C3B23721  21.316  26.732   7.986
 1716POPC   C4B23722  21.134  26.930   7.599
 1717POPC   NC323723  34.303   3.953   9.559
 1717POPC   PO423724  34.749   3.518   9.899
 1717POPC   GL123725  34.684   3.688   9.334
 1717POPC   GL223726  34.338   3.590   9.222
 1717POPC   C1A23727  34.546   3.617   8.782
 1717POPC   D2A23728  34.469   3.285   8.469
 1717POPC   C3A23729  34.703   3.391   8.094
 1717POPC   C4A23730  34.818   3.403   7.660
 1717POPC   C1B23731  34.247   3.984   8.926
 1717POPC   C2B23732  34.363   4.049   8.497
 1717POPC   C3B23733  34.233   3.865   8.124
 1717POPC   C4B23734  34.422   3.748   7.733
 1718POPC   NC323735  25.993   4.679   9.491
 1718POPC   PO423736  25.882   4.038   9.501
 1718POPC   GL123737  25.942   4.260   9.153
 1718POPC   GL223738  26.282   4.389   9.182
 1718POPC   C1A23739  25.892   4.133   8.739
 1718POPC   D2A23740  25.839   4.332   8.389
 1718POPC   C3A23741  25.789   4.111   8.046
 1718POPC   C4A23742  25.905   4.255   7.645
 1718POPC   C1B23743  26.165   4.558   8.780
 1718POPC   C2B23744  26.103   4.766   8.398
 1718POPC   C3B23745  26.128   4.553   8.014
 1718POPC   C4B23746  26.208   4.699   7.620
 1719POPC   NC323747  29.433  42.605   9.461
 1719POPC   PO423748  28.831  42.367   9.570
 1719POPC   GL123749  29.070  42.420   9.178
 1719POPC   GL223750  28.813  42.650   9.123
 1719POPC   C1A23751  29.346  42.354   8.792
 1719POPC   D2A23752  29.201  41.992   8.541
 1719POPC   C3A23753  29.194  42.001   8.105
 1719POPC   C4A23754  29.189  42.173   7.709
 1719POPC   C1B23755  28.868  42.442   8.709
 1719POPC   C2B23756  29.103  42.489   8.301
 1719POPC   C3B23757  28.866  42.502   7.904
 1719POPC   C4B23758  28.452  42.433   7.702
 1720POPC   NC323759  39.100  35.162   9.491
 1720POPC   PO423760  39.473  35.637   9.290
 1720POPC   GL123761  39.392  35.246   9.100
 1720POPC   GL223762  39.544  35.229   8.821
 1720POPC   C1A23763  39.044  35.215   8.784
 1720POPC   D2A23764  39.221  35.291   8.368
 1720POPC   C3A23765  39.040  35.222   8.004
 1720POPC   C4A23766  39.207  35.020   7.669
 1720POPC   C1B23767  39.367  35.667   8.667
 1720POPC   C2B23768  39.397  35.847   8.263
 1720POPC   C3B23769  39.319  35.633   7.835
 1720POPC   C4B23770  39.228  35.506   7.369
 1721POPC   NC323771  38.366   3.701   9.868
 1721POPC   PO423772  38.767   3.271   9.507
 1721POPC   GL123773  38.589   3.381   9.096
 1721POPC   GL223774  38.516   3.727   9.035
 1721POPC   C1A23775  38.737   3.399   8.665
 1721POPC   D2A23776  38.557   3.566   8.292
 1721POPC   C3A23777  38.787   3.667   7.944
 1721POPC   C4A23778  38.772   3.366   7.627
 1721POPC   C1B23779  38.165   3.559   8.754
 1721POPC   C2B23780  37.866   3.792   8.453
 1721POPC   C3B23781  38.049   3.876   8.029
 1721POPC   C4B23782  38.291   3.545   7.821
 1722POPC   NC323783  30.470  14.120   9.544
 1722POPC   PO423784  30.656  14.699   9.540
 1722POPC   GL123785  30.595  14.453   9.146
 1722POPC   GL223786  30.340  14.181   9.082
 1722POPC   C1A23787  30.661  14.315   8.719
 1722POPC   D2A23788  30.791  14.175   8.300
 1722POPC   C3A23789  30.574  14.406   7.970
 1722POPC   C4A23790  30.693  14.687   7.661
 1722POPC   C1B23791  30.139  14.173   8.758
 1722POPC   C2B23792  30.266  14.214   8.377
 1722POPC   C3B23793  30.084  14.214   7.998
 1722POPC   C4B23794  30.365  13.998   7.741
 1723POPC   NC323795  11.197  11.203   9.455
 1723POPC   PO423796  11.756  11.674   9.609
 1723POPC   GL123797  11.647  11.373   9.259
 1723POPC   GL223798  11.550  11.018   9.132
 1723POPC   C1A23799  11.428  11.462   8.868
 1723POPC   D2A23800  11.495  11.553   8.426
 1723POPC   C3A23801  11.204  11.535   8.076
 1723POPC   C4A23802  11.302  11.338   7.675
 1723POPC   C1B23803  11.384  10.978   8.722
 1723POPC   C2B23804  11.318  11.078   8.308
 1723POPC   C3B23805  11.573  11.012   7.966
 1723POPC   C4B23806  11.433  10.777   7.641
 1724POPC   NC323807  30.047  30.367   9.850
 1724POPC   PO423808  30.309  30.882   9.564
 1724POPC   GL123809  30.027  30.872   9.205
 1724POPC   GL223810  29.986  30.554   9.122
 1724POPC   C1A23811  29.890  30.886   8.744
 1724POPC   D2A23812  29.716  30.722   8.356
 1724POPC   C3A23813  29.812  30.879   7.910
 1724POPC   C4A23814  30.016  30.935   7.492
 1724POPC   C1B23815  29.679  30.412   8.794
 1724POPC   C2B23816  29.460  30.296   8.400
 1724POPC   C3B23817  29.532  30.444   7.963
 1724POPC   C4B23818  29.805  30.477   7.586
 1725POPC   NC323819  22.611   5.270   9.377
 1725POPC   PO423820  23.081   4.730   9.427
 1725POPC   GL123821  22.966   5.003   9.081
 1725POPC   GL223822  23.067   5.356   9.158
 1725POPC   C1A23823  22.613   5.053   8.738
 1725POPC   D2A23824  22.476   5.242   8.354
 1725POPC   C3A23825  22.683   5.266   7.954
 1725POPC   C4A23826  22.732   5.000   7.623
 1725POPC   C1B23827  23.051   5.319   8.705
 1725POPC   C2B23828  22.959   5.020   8.366
 1725POPC   C3B23829  23.100   4.955   7.978
 1725POPC   C4B23830  23.133   5.312   7.689
 1726POPC   NC323831  27.303  14.409   9.469
 1726POPC   PO423832  27.961  14.038   9.437
 1726POPC   GL123833  27.740  14.340   9.163
 1726POPC   GL223834  27.753  14.658   9.221
 1726POPC   C1A23835  27.606  14.419   8.737
 1726POPC   D2A23836  27.386  14.431   8.352
 1726POPC   C3A23837  27.504  14.181   8.041
 1726POPC   C4A23838  27.539  14.271   7.655
 1726POPC   C1B23839  27.896  14.842   8.832
 1726POPC   C2B23840  27.945  14.707   8.412
 1726POPC   C3B23841  27.775  14.612   8.032
 1726POPC   C4B23842  27.786  14.717   7.624
 1727POPC   NC323843   2.985  25.528   9.432
 1727POPC   PO423844   3.645  25.455   9.615
 1727POPC   GL123845   3.675  25.490   9.193
 1727POPC   GL223846   3.586  25.183   9.086
 1727POPC   C1A23847   3.782  25.527   8.754
 1727POPC   D2A23848   3.623  25.262   8.415
 1727POPC   C3A23849   3.641  25.445   8.023
 1727POPC   C4A23850   3.859  25.371   7.681
 1727POPC   C1B23851   3.295  25.340   8.799
 1727POPC   C2B23852   3.107  25.113   8.430
 1727POPC   C3B23853   3.293  25.099   8.042
 1727POPC   C4B23854   3.427  24.960   7.670
 1728POPC   NC323855   3.317  17.442   9.324
 1728POPC   PO423856   3.913  17.265   9.511
 1728POPC   GL123857   3.776  17.390   9.058
 1728POPC   GL223858   3.443  17.412   8.861
 1728POPC   C1A23859   3.859  17.379   8.593
 1728POPC   D2A23860   3.791  17.115   8.259
 1728POPC   C3A23861   3.573  17.365   7.989
 1728POPC   C4A23862   3.589  17.468   7.586
 1728POPC   C1B23863   3.093  17.578   8.630
 1728POPC   C2B23864   3.158  17.683   8.213
 1728POPC   C3B23865   3.051  17.424   7.906
 1728POPC   C4B23866   3.213  17.132   7.671
 1729POPC   NC323867   7.947  16.443   9.667
 1729POPC   PO423868   8.283  16.978   9.509
 1729POPC   GL123869   8.167  16.654   9.215
 1729POPC   GL223870   7.833  16.536   9.164
 1729POPC   C1A23871   8.188  16.740   8.770
 1729POPC   D2A23872   8.113  16.951   8.381
 1729POPC   C3A23873   8.250  16.773   7.985
 1729POPC   C4A23874   8.092  16.679   7.561
 1729POPC   C1B23875   7.898  16.321   8.760
 1729POPC   C2B23876   8.135  16.396   8.357
 1729POPC   C3B23877   7.926  16.352   7.919
 1729POPC   C4B23878   7.909  16.249   7.421
 1730POPC   NC323879  40.761   3.105   9.388
 1730POPC   PO423880  40.431   2.496   9.494
 1730POPC   GL123881  40.553   2.638   9.124
 1730POPC   GL223882  40.915   2.650   9.188
 1730POPC   C1A23883  40.487   2.665   8.684
 1730POPC   D2A23884  40.346   2.486   8.296
 1730POPC   C3A23885  40.482   2.833   8.024
 1730POPC   C4A23886  40.708   3.001   7.688
 1730POPC   C1B23887  40.976   2.527   8.765
 1730POPC   C2B23888  40.874   2.614   8.334
 1730POPC   C3B23889  40.923   2.591   7.911
 1730POPC   C4B23890  41.255   2.460   7.679
 1731POPC   NC323891  33.149  14.060   9.455
 1731POPC   PO423892  32.588  14.497   9.615
 1731POPC   GL123893  32.808  14.522   9.161
 1731POPC   GL223894  33.189  14.539   9.172
 1731POPC   C1A23895  32.869  14.703   8.746
 1731POPC   D2A23896  33.172  14.640   8.419
 1731POPC   C3A23897  33.090  14.662   7.986
 1731POPC   C4A23898  32.824  14.445   7.717
 1731POPC   C1B23899  33.128  14.246   8.815
 1731POPC   C2B23900  33.232  14.104   8.418
 1731POPC   C3B23901  33.103  14.129   7.996
 1731POPC   C4B23902  33.307  14.325   7.628
 1732POPC   NC323903   6.277  29.886   9.387
 1732POPC   PO423904   6.893  29.767   9.424
 1732POPC   GL123905   6.731  29.886   9.045
 1732POPC   GL223906   6.414  29.758   8.941
 1732POPC   C1A23907   6.670  30.044   8.617
 1732POPC   D2A23908   6.448  29.847   8.275
 1732POPC   C3A23909   6.769  29.849   7.963
 1732POPC   C4A23910   7.000  30.212   7.801
 1732POPC   C1B23911   6.612  29.523   8.683
 1732POPC   C2B23912   6.505  29.324   8.340
 1732POPC   C3B23913   6.492  29.427   7.926
 1732POPC   C4B23914   6.282  29.777   7.731
 1733POPC   NC323915   8.355  18.090   9.487
 1733POPC   PO423916   7.707  18.333   9.515
 1733POPC   GL123917   7.976  18.448   9.151
 1733POPC   GL223918   8.123  18.159   9.027
 1733POPC   C1A23919   8.210  18.598   8.744
 1733POPC   D2A23920   8.404  18.352   8.379
 1733POPC   C3A23921   8.233  18.402   7.950
 1733POPC   C4A23922   8.060  18.116   7.637
 1733POPC   C1B23923   8.364  17.837   8.816
 1733POPC   C2B23924   8.534  17.800   8.418
 1733POPC   C3B23925   8.388  17.903   8.019
 1733POPC   C4B23926   8.528  17.873   7.609
 1734POPC   NC323927  17.672  12.030   9.404
 1734POPC   PO423928  17.035  12.117   9.431
 1734POPC   GL123929  17.264  12.089   9.088
 1734POPC   GL223930  17.457  12.398   9.108
 1734POPC   C1A23931  17.519  11.924   8.770
 1734POPC   D2A23932  17.368  11.909   8.379
 1734POPC   C3A23933  17.565  11.977   8.015
 1734POPC   C4A23934  17.372  11.939   7.605
 1734POPC   C1B23935  17.395  12.407   8.660
 1734POPC   C2B23936  17.687  12.434   8.300
 1734POPC   C3B23937  17.530  12.476   7.902
 1734POPC   C4B23938  17.124  12.306   7.861
 1735POPC   NC323939  17.328   2.433   9.456
 1735POPC   PO423940  17.422   1.753   9.655
 1735POPC   GL123941  17.492   1.790   9.199
 1735POPC   GL223942  17.471   2.136   9.100
 1735POPC   C1A23943  17.531   1.797   8.748
 1735POPC   D2A23944  17.182   1.814   8.480
 1735POPC   C3A23945  17.356   1.747   8.100
 1735POPC   C4A23946  17.391   1.832   7.677
 1735POPC   C1B23947  17.329   2.289   8.727
 1735POPC   C2B23948  17.422   2.250   8.335
 1735POPC   C3B23949  17.568   2.222   7.948
 1735POPC   C4B23950  17.589   2.313   7.534
 1736POPC   NC323951  13.266  16.372   9.408
 1736POPC   PO423952  12.726  16.778   9.460
 1736POPC   GL123953  13.010  16.724   9.132
 1736POPC   GL223954  13.269  16.968   9.151
 1736POPC   C1A23955  13.037  16.559   8.724
 1736POPC   D2A23956  12.690  16.557   8.443
 1736POPC   C3A23957  12.815  16.444   8.040
 1736POPC   C4A23958  12.573  16.638   7.729
 1736POPC   C1B23959  13.023  17.077   8.758
 1736POPC   C2B23960  13.044  16.942   8.362
 1736POPC   C3B23961  12.755  16.978   8.070
 1736POPC   C4B23962  12.858  17.115   7.677
 1737POPC   NC323963  11.033  27.279   9.631
 1737POPC   PO423964  11.599  27.707   9.515
 1737POPC   GL123965  11.622  27.608   9.089
 1737POPC   GL223966  11.389  27.331   9.013
 1737POPC   C1A23967  11.688  27.573   8.661
 1737POPC   D2A23968  11.385  27.605   8.367
 1737POPC   C3A23969  11.519  27.563   7.978
 1737POPC   C4A23970  11.570  27.896   7.732
 1737POPC   C1B23971  11.088  27.273   8.621
 1737POPC   C2B23972  10.936  27.421   8.196
 1737POPC   C3B23973  10.976  27.760   7.918
 1737POPC   C4B23974  11.116  27.463   7.680
 1738POPC   NC323975  29.650  38.515   9.282
 1738POPC   PO423976  30.090  38.369   9.688
 1738POPC   GL123977  30.176  38.422   9.226
 1738POPC   GL223978  30.071  38.753   9.109
 1738POPC   C1A23979  30.246  38.500   8.729
 1738POPC   D2A23980  30.069  38.700   8.336
 1738POPC   C3A23981  30.084  38.453   7.975
 1738POPC   C4A23982  30.217  38.661   7.610
 1738POPC   C1B23983  29.752  38.675   8.708
 1738POPC   C2B23984  29.524  38.553   8.343
 1738POPC   C3B23985  29.616  38.668   7.932
 1738POPC   C4B23986  29.691  38.310   7.661
 1739POPC   NC323987   0.730  29.040   9.538
 1739POPC   PO423988   0.110  29.353   9.475
 1739POPC   GL123989   0.324  29.086   9.139
 1739POPC   GL223990   0.634  28.867   9.070
 1739POPC   C1A23991   0.359  29.124   8.673
 1739POPC   D2A23992   0.250  29.408   8.301
 1739POPC   C3A23993   0.074  29.254   7.885
 1739POPC   C4A23994   0.195  29.155   7.390
 1739POPC   C1B23995   0.860  29.148   8.773
 1739POPC   C2B23996   0.766  29.164   8.354
 1739POPC   C3B23997   0.504  29.004   8.021
 1739POPC   C4B23998   0.632  28.913   7.601
 1740POPC   NC323999   0.815  30.424   9.338
 1740POPC   PO424000   1.071  31.024   9.409
 1740POPC   GL124001   1.141  30.719   9.058
 1740POPC   GL224002   1.449  30.521   9.063
 1740POPC   C1A24003   1.182  30.667   8.601
 1740POPC   D2A24004   1.198  30.616   8.147
 1740POPC   C3A24005   1.329  30.912   7.835
 1740POPC   C4A24006   1.090  30.692   7.565
 1740POPC   C1B24007   1.671  30.774   8.745
 1740POPC   C2B24008   1.669  30.794   8.285
 1740POPC   C3B24009   1.664  30.540   7.897
 1740POPC   C4B24010   1.579  30.563   7.434
 1741POPC   NC324011  17.197  15.581   9.714
 1741POPC   PO424012  16.801  16.186   9.591
 1741POPC   GL124013  16.775  15.991   9.143
 1741POPC   GL224014  16.999  15.684   9.082
 1741POPC   C1A24015  16.988  16.044   8.730
 1741POPC   D2A24016  17.040  15.886   8.322
 1741POPC   C3A24017  16.776  16.015   7.964
 1741POPC   C4A24018  16.367  16.046   7.781
 1741POPC   C1B24019  16.928  15.511   8.740
 1741POPC   C2B24020  17.029  15.390   8.375
 1741POPC   C3B24021  16.877  15.509   7.970
 1741POPC   C4B24022  16.986  15.580   7.547
 1742POPC   NC324023  32.743  22.931   9.434
 1742POPC   PO424024  33.391  22.686   9.464
 1742POPC   GL124025  33.168  22.765   9.103
 1742POPC   GL224026  33.202  23.114   8.978
 1742POPC   C1A24027  33.246  22.721   8.658
 1742POPC   D2A24028  33.147  23.021   8.330
 1742POPC   C3A24029  33.315  22.821   7.968
 1742POPC   C4A24030  33.159  22.591   7.616
 1742POPC   C1B24031  32.810  22.990   8.774
 1742POPC   C2B24032  32.734  22.673   8.450
 1742POPC   C3B24033  32.818  22.627   8.017
 1742POPC   C4B24034  32.844  22.990   7.740
 1743POPC   NC324035   4.884  32.683   9.501
 1743POPC   PO424036   5.370  33.097   9.559
 1743POPC   GL124037   5.285  32.860   9.183
 1743POPC   GL224038   4.907  32.851   9.030
 1743POPC   C1A24039   5.318  32.806   8.740
 1743POPC   D2A24040   5.103  32.977   8.359
 1743POPC   C3A24041   5.343  32.929   7.966
 1743POPC   C4A24042   5.270  32.842   7.500
 1743POPC   C1B24043   5.015  33.250   8.811
 1743POPC   C2B24044   4.897  33.491   8.417
 1743POPC   C3B24045   5.117  33.418   8.082
 1743POPC   C4B24046   5.147  33.308   7.674
 1744POPC   NC324047  34.090  37.761   9.301
 1744POPC   PO424048  33.524  37.899   9.684
 1744POPC   GL124049  33.593  37.698   9.254
 1744POPC   GL224050  33.706  37.982   9.012
 1744POPC   C1A24051  33.758  37.470   8.814
 1744POPC   D2A24052  33.931  37.508   8.359
 1744POPC   C3A24053  33.848  37.663   7.901
 1744POPC   C4A24054  33.577  37.871   7.546
 1744POPC   C1B24055  34.021  37.973   8.643
 1744POPC   C2B24056  34.212  37.942   8.202
 1744POPC   C3B24057  34.287  37.903   7.744
 1744POPC   C4B24058  34.064  38.016   7.371
 1745POPC   NC324059  23.006  42.023   9.245
 1745POPC   PO424060  22.526  42.425   9.431
 1745POPC   GL124061  22.823  42.505   9.100
 1745POPC   GL224062  23.198  42.473   9.133
 1745POPC   C1A24063  22.905  42.321   8.689
 1745POPC   D2A24064  22.676  42.220   8.338
 1745POPC   C3A24065  22.790  42.382   7.962
 1745POPC   C4A24066  22.922  41.997   7.757
 1745POPC   C1B24067  23.384  42.505   8.727
 1745POPC   C2B24068  23.259  42.455   8.280
 1745POPC   C3B24069  23.251  42.514   7.797
 1745POPC   C4B24070  23.172  42.268   7.430
 1746POPC   NC324071  35.770   5.801   9.467
 1746POPC   PO424072  35.158   6.024   9.543
 1746POPC   GL124073  35.197   5.865   9.184
 1746POPC   GL224074  35.469   6.101   9.145
 1746POPC   C1A24075  35.358   5.670   8.833
 1746POPC   D2A24076  35.555   5.580   8.462
 1746POPC   C3A24077  35.220   5.692   8.178
 1746POPC   C4A24078  35.220   5.820   7.786
 1746POPC   C1B24079  35.202   6.228   8.826
 1746POPC   C2B24080  35.138   6.120   8.456
 1746POPC   C3B24081  35.368   6.179   8.109
 1746POPC   C4B24082  35.572   6.214   7.748
 1747POPC   NC324083  40.121  31.887   9.528
 1747POPC   PO424084  39.575  32.326   9.528
 1747POPC   GL124085  39.857  32.272   9.194
 1747POPC   GL224086  39.893  31.947   9.058
 1747POPC   C1A24087  40.011  32.357   8.776
 1747POPC   D2A24088  39.857  32.249   8.368
 1747POPC   C3A24089  40.038  32.420   8.008
 1747POPC   C4A24090  39.729  32.484   7.701
 1747POPC   C1B24091  40.199  31.869   8.706
 1747POPC   C2B24092  40.269  31.955   8.262
 1747POPC   C3B24093  40.057  31.894   7.874
 1747POPC   C4B24094  40.056  31.903   7.420
 1748POPC   NC324095  31.059  15.870   9.343
 1748POPC   PO424096  31.538  16.228   9.691
 1748POPC   GL124097  31.551  16.088   9.246
 1748POPC   GL224098  31.622  15.730   9.283
 1748POPC   C1A24099  31.576  16.059   8.780
 1748POPC   D2A24100  31.577  16.391   8.440
 1748POPC   C3A24101  31.514  16.214   8.005
 1748POPC   C4A24102  31.202  15.928   7.774
 1748POPC   C1B24103  31.761  15.568   8.880
 1748POPC   C2B24104  31.776  15.623   8.446
 1748POPC   C3B24105  31.592  15.689   8.057
 1748POPC   C4B24106  31.837  15.830   7.735
 1749POPC   NC324107  24.171  40.177   9.882
 1749POPC   PO424108  24.270  39.915   9.289
 1749POPC   GL124109  24.543  39.760   9.045
 1749POPC   GL224110  24.715  40.068   8.946
 1749POPC   C1A24111  24.488  39.699   8.658
 1749POPC   D2A24112  24.722  39.837   8.346
 1749POPC   C3A24113  24.580  39.624   8.008
 1749POPC   C4A24114  24.306  39.864   7.790
 1749POPC   C1B24115  24.399  40.237   8.693
 1749POPC   C2B24116  24.221  40.464   8.339
 1749POPC   C3B24117  24.400  40.346   7.928
 1749POPC   C4B24118  24.154  40.284   7.548
 1750POPC   NC324119  41.324   6.393   9.355
 1750POPC   PO424120  42.065   6.398   9.301
 1750POPC   GL124121  41.745   6.694   9.196
 1750POPC   GL224122  41.572   6.511   8.933
 1750POPC   C1A24123  41.812   6.931   8.814
 1750POPC   D2A24124  41.803   6.610   8.467
 1750POPC   C3A24125  41.866   6.703   8.048
 1750POPC   C4A24126  41.726   6.974   7.739
 1750POPC   C1B24127  41.354   6.812   8.656
 1750POPC   C2B24128  41.469   6.999   8.240
 1750POPC   C3B24129  41.240   6.882   7.838
 1750POPC   C4B24130  40.970   6.610   7.571
 1751POPC   NC324131  12.012  15.540   9.591
 1751POPC   PO424132  11.887  14.893   9.421
 1751POPC   GL124133  12.041  15.277   9.136
 1751POPC   GL224134  12.259  15.570   9.160
 1751POPC   C1A24135  11.900  15.509   8.811
 1751POPC   D2A24136  11.802  15.317   8.434
 1751POPC   C3A24137  11.966  15.370   8.046
 1751POPC   C4A24138  11.994  15.157   7.687
 1751POPC   C1B24139  12.391  15.448   8.734
 1751POPC   C2B24140  12.326  15.220   8.368
 1751POPC   C3B24141  12.467  15.138   7.959
 1751POPC   C4B24142  12.490  15.285   7.527
 1752POPC   NC324143  34.411  32.527  10.007
 1752POPC   PO424144  34.848  32.929   9.589
 1752POPC   GL124145  34.772  33.045   9.194
 1752POPC   GL224146  34.880  32.745   9.046
 1752POPC   C1A24147  34.460  33.021   8.852
 1752POPC   D2A24148  34.286  33.239   8.476
 1752POPC   C3A24149  34.483  33.119   8.079
 1752POPC   C4A24150  34.315  32.902   7.771
 1752POPC   C1B24151  34.943  33.079   8.720
 1752POPC   C2B24152  34.914  32.912   8.307
 1752POPC   C3B24153  34.992  33.084   7.911
 1752POPC   C4B24154  35.020  32.976   7.467
 1753POPC   NC324155  10.102  35.353   9.541
 1753POPC   PO424156   9.430  35.610   9.513
 1753POPC   GL124157   9.634  35.386   9.162
 1753POPC   GL224158   9.956  35.540   9.040
 1753POPC   C1A24159   9.608  35.336   8.700
 1753POPC   D2A24160   9.373  35.562   8.374
 1753POPC   C3A24161   9.412  35.444   7.955
 1753POPC   C4A24162   9.647  35.683   7.702
 1753POPC   C1B24163  10.281  35.697   8.707
 1753POPC   C2B24164  10.340  35.572   8.269
 1753POPC   C3B24165  10.073  35.443   7.919
 1753POPC   C4B24166   9.790  35.191   7.673
 1754POPC   NC324167  11.156  18.020   9.435
 1754POPC   PO424168  11.261  17.302   9.498
 1754POPC   GL124169  11.255  17.575   9.171
 1754POPC   GL224170  11.576  17.721   9.197
 1754POPC   C1A24171  11.135  17.369   8.800
 1754POPC   D2A24172  10.980  17.429   8.409
 1754POPC   C3A24173  11.118  17.157   8.084
 1754POPC   C4A24174  11.102  17.515   7.847
 1754POPC   C1B24175  11.626  17.517   8.818
 1754POPC   C2B24176  11.511  17.424   8.415
 1754POPC   C3B24177  11.533  17.661   8.069
 1754POPC   C4B24178  11.588  17.383   7.727
 1755POPC   NC324179  41.953  40.198   9.685
 1755POPC   PO424180  42.515  39.842   9.334
 1755POPC   GL124181  42.371  40.132   9.009
 1755POPC   GL224182  42.089  40.330   9.161
 1755POPC   C1A24183  42.271  39.875   8.608
 1755POPC   D2A24184  42.326  39.605   8.212
 1755POPC   C3A24185  42.415  39.859   7.850
 1755POPC   C4A24186  42.452  40.197   7.533
 1755POPC   C1B24187  41.973  40.416   8.745
 1755POPC   C2B24188  42.141  40.324   8.331
 1755POPC   C3B24189  42.088  40.268   7.883
 1755POPC   C4B24190  41.941  40.371   7.450
 1756POPC   NC324191  29.720   9.713   9.625
 1756POPC   PO424192  29.234   9.480   9.376
 1756POPC   GL124193  29.256   9.722   9.068
 1756POPC   GL224194  29.594   9.795   9.132
 1756POPC   C1A24195  29.104   9.625   8.662
 1756POPC   D2A24196  28.842   9.551   8.313
 1756POPC   C3A24197  29.016   9.719   7.928
 1756POPC   C4A24198  28.984   9.490   7.540
 1756POPC   C1B24199  29.550   9.892   8.702
 1756POPC   C2B24200  29.330   9.941   8.311
 1756POPC   C3B24201  29.479  10.012   7.876
 1756POPC   C4B24202  29.671   9.860   7.495
 1757POPC   NC324203  35.103  12.331   9.450
 1757POPC   PO424204  35.189  11.708   9.152
 1757POPC   GL124205  35.439  11.950   8.899
 1757POPC   GL224206  35.342  12.227   9.004
 1757POPC   C1A24207  35.320  12.078   8.485
 1757POPC   D2A24208  35.051  11.823   8.238
 1757POPC   C3A24209  35.294  11.797   7.881
 1757POPC   C4A24210  35.445  12.165   7.653
 1757POPC   C1B24211  35.646  12.404   8.696
 1757POPC   C2B24212  35.734  12.330   8.236
 1757POPC   C3B24213  35.727  12.574   7.847
 1757POPC   C4B24214  35.738  12.627   7.382
 1758POPC   NC324215  40.556  38.348   9.392
 1758POPC   PO424216  41.153  38.099   9.645
 1758POPC   GL124217  41.135  38.262   9.162
 1758POPC   GL224218  40.923  38.517   9.085
 1758POPC   C1A24219  40.894  38.172   8.731
 1758POPC   D2A24220  40.913  38.446   8.404
 1758POPC   C3A24221  40.966  38.242   8.017
 1758POPC   C4A24222  41.147  38.360   7.670
 1758POPC   C1B24223  40.563  38.606   8.785
 1758POPC   C2B24224  40.366  38.578   8.392
 1758POPC   C3B24225  40.602  38.614   8.030
 1758POPC   C4B24226  40.754  38.683   7.645
 1759POPC   NC324227   5.645   5.371   9.462
 1759POPC   PO424228   5.464   4.753   9.536
 1759POPC   GL124229   5.662   4.955   9.144
 1759POPC   GL224230   5.488   5.289   8.986
 1759POPC   C1A24231   5.993   4.710   8.871
 1759POPC   D2A24232   6.213   4.812   8.480
 1759POPC   C3A24233   6.041   4.762   8.043
 1759POPC   C4A24234   5.896   5.030   7.703
 1759POPC   C1B24235   5.727   5.074   8.659
 1759POPC   C2B24236   5.902   5.194   8.274
 1759POPC   C3B24237   5.564   5.275   7.995
 1759POPC   C4B24238   5.393   5.155   7.626
 1760POPC   NC324239  10.455  28.457   9.456
 1760POPC   PO424240  10.447  27.762   9.379
 1760POPC   GL124241  10.441  28.102   9.080
 1760POPC   GL224242  10.694  28.390   9.013
 1760POPC   C1A24243  10.306  28.212   8.692
 1760POPC   D2A24244  10.078  28.113   8.341
 1760POPC   C3A24245  10.239  28.253   7.972
 1760POPC   C4A24246  10.191  28.599   7.730
 1760POPC   C1B24247  10.449  28.732   8.795
 1760POPC   C2B24248  10.325  28.846   8.383
 1760POPC   C3B24249  10.571  28.770   8.019
 1760POPC   C4B24250  10.712  28.387   7.790
 1761POPC   NC324251   5.904  37.489   9.716
 1761POPC   PO424252   5.804  38.115   9.343
 1761POPC   GL124253   6.093  37.800   9.224
 1761POPC   GL224254   6.003  37.472   9.147
 1761POPC   C1A24255   6.260  37.773   8.804
 1761POPC   D2A24256   6.332  37.723   8.370
 1761POPC   C3A24257   6.021  37.869   8.084
 1761POPC   C4A24258   6.089  37.861   7.668
 1761POPC   C1B24259   5.885  37.466   8.658
 1761POPC   C2B24260   5.799  37.421   8.177
 1761POPC   C3B24261   5.630  37.569   7.751
 1761POPC   C4B24262   5.326  37.685   7.369
 1762POPC   NC324263  19.233  40.391   9.424
 1762POPC   PO424264  18.798  40.906   9.572
 1762POPC   GL124265  18.970  40.778   9.170
 1762POPC   GL224266  19.140  41.022   8.971
 1762POPC   C1A24267  18.852  40.649   8.761
 1762POPC   D2A24268  18.824  40.871   8.368
 1762POPC   C3A24269  18.753  40.597   8.038
 1762POPC   C4A24270  18.889  40.656   7.653
 1762POPC   C1B24271  19.353  40.666   8.760
 1762POPC   C2B24272  19.282  40.608   8.345
 1762POPC   C3B24273  19.237  40.843   7.989
 1762POPC   C4B24274  19.431  40.912   7.606
 1763POPC   NC324275  41.329  11.540   9.377
 1763POPC   PO424276  41.727  11.088   9.430
 1763POPC   GL124277  41.495  11.072   9.079
 1763POPC   GL224278  41.112  11.103   9.182
 1763POPC   C1A24279  41.721  11.214   8.720
 1763POPC   D2A24280  41.790  11.328   8.298
 1763POPC   C3A24281  41.694  11.071   7.973
 1763POPC   C4A24282  41.778  11.315   7.636
 1763POPC   C1B24283  41.146  11.318   8.792
 1763POPC   C2B24284  41.387  11.550   8.504
 1763POPC   C3B24285  41.361  11.487   8.044
 1763POPC   C4B24286  41.278  11.210   7.683
 1764POPC   NC324287  38.290  35.652   9.481
 1764POPC   PO424288  38.658  35.073   9.424
 1764POPC   GL124289  38.389  35.090   9.073
 1764POPC   GL224290  38.432  35.431   9.049
 1764POPC   C1A24291  38.490  35.025   8.674
 1764POPC   D2A24292  38.679  35.334   8.431
 1764POPC   C3A24293  38.528  35.253   8.053
 1764POPC   C4A24294  38.676  35.012   7.720
 1764POPC   C1B24295  38.245  35.590   8.702
 1764POPC   C2B24296  38.043  35.615   8.302
 1764POPC   C3B24297  38.232  35.644   7.890
 1764POPC   C4B24298  38.291  35.325   7.609
 1765POPC   NC324299   5.014  18.982   9.608
 1765POPC   PO424300   5.628  18.988   9.424
 1765POPC   GL124301   5.390  19.145   9.100
 1765POPC   GL224302   5.149  18.931   9.123
 1765POPC   C1A24303   5.305  19.124   8.662
 1765POPC   D2A24304   5.205  19.361   8.324
 1765POPC   C3A24305   5.199  19.173   7.918
 1765POPC   C4A24306   5.238  19.288   7.468
 1765POPC   C1B24307   4.968  18.756   8.795
 1765POPC   C2B24308   4.863  18.918   8.420
 1765POPC   C3B24309   4.791  18.770   8.029
 1765POPC   C4B24310   4.819  18.679   7.580
 1766POPC   NC324311  38.069  31.071   9.340
 1766POPC   PO424312  38.348  30.574   9.692
 1766POPC   GL124313  38.291  30.622   9.163
 1766POPC   GL224314  38.277  30.974   8.900
 1766POPC   C1A24315  38.387  30.544   8.697
 1766POPC   D2A24316  38.432  30.822   8.332
 1766POPC   C3A24317  38.524  30.560   7.984
 1766POPC   C4A24318  38.225  30.274   7.799
 1766POPC   C1B24319  38.665  31.126   8.690
 1766POPC   C2B24320  38.760  31.260   8.275
 1766POPC   C3B24321  38.525  31.096   7.890
 1766POPC   C4B24322  38.705  30.784   7.558
 1767POPC   NC324323  30.158  24.005   9.398
 1767POPC   PO424324  29.958  23.404   9.565
 1767POPC   GL124325  29.754  23.728   9.204
 1767POPC   GL224326  30.008  23.901   8.948
 1767POPC   C1A24327  29.558  23.859   8.788
 1767POPC   D2A24328  29.774  23.725   8.425
 1767POPC   C3A24329  29.785  23.973   8.090
 1767POPC   C4A24330  29.758  23.786   7.710
 1767POPC   C1B24331  30.055  23.503   8.795
 1767POPC   C2B24332  30.278  23.498   8.405
 1767POPC   C3B24333  30.111  23.570   8.023
 1767POPC   C4B24334  30.257  23.775   7.693
 1768POPC   NC324335  37.446  20.372   9.527
 1768POPC   PO424336  37.941  19.809   9.579
 1768POPC   GL124337  37.735  19.915   9.215
 1768POPC   GL224338  37.820  20.237   9.198
 1768POPC   C1A24339  37.543  19.799   8.813
 1768POPC   D2A24340  37.424  19.700   8.378
 1768POPC   C3A24341  37.779  19.688   8.118
 1768POPC   C4A24342  37.900  19.793   7.724
 1768POPC   C1B24343  37.590  20.315   8.796
 1768POPC   C2B24344  37.696  20.169   8.362
 1768POPC   C3B24345  37.606  20.168   7.902
 1768POPC   C4B24346  37.571  20.256   7.440
 1769POPC   NC324347   0.142  22.227   9.564
 1769POPC   PO424348   0.649  22.388   9.234
 1769POPC   GL124349   0.363  22.096   9.058
 1769POPC   GL224350   0.032  21.944   9.144
 1769POPC   C1A24351   0.441  22.127   8.623
 1769POPC   D2A24352   0.825  22.207   8.397
 1769POPC   C3A24353   0.736  22.266   7.999
 1769POPC   C4A24354   0.685  21.923   7.772
 1769POPC   C1B24355   0.115  21.755   8.739
 1769POPC   C2B24356   0.035  21.889   8.304
 1769POPC   C3B24357   0.157  21.997   7.866
 1769POPC   C4B24358  44.955  22.340   7.633
 1770POPC   NC324359   9.920   1.713   9.527
 1770POPC   PO424360  10.064   2.331   9.720
 1770POPC   GL124361   9.871   2.289   9.263
 1770POPC   GL224362   9.658   1.988   9.176
 1770POPC   C1A24363   9.908   2.239   8.786
 1770POPC   D2A24364   9.916   2.003   8.381
 1770POPC   C3A24365   9.834   2.207   7.984
 1770POPC   C4A24366   9.989   2.196   7.540
 1770POPC   C1B24367   9.720   1.737   8.801
 1770POPC   C2B24368   9.550   1.643   8.398
 1770POPC   C3B24369   9.560   1.748   7.967
 1770POPC   C4B24370   9.674   1.476   7.616
 1771POPC   NC324371  39.043   2.767   9.477
 1771POPC   PO424372  39.579   2.835   9.894
 1771POPC   GL124373  39.516   2.543   9.380
 1771POPC   GL224374  39.224   2.640   9.045
 1771POPC   C1A24375  39.635   2.470   8.875
 1771POPC   D2A24376  39.337   2.600   8.521
 1771POPC   C3A24377  39.479   2.745   8.116
 1771POPC   C4A24378  39.364   2.590   7.732
 1771POPC   C1B24379  38.877   2.912   8.850
 1771POPC   C2B24380  38.715   2.823   8.437
 1771POPC   C3B24381  38.941   2.665   8.078
 1771POPC   C4B24382  38.974   2.905   7.719
 1772POPC   NC324383  30.429   7.377   9.300
 1772POPC   PO424384  29.748   7.549   9.531
 1772POPC   GL124385  29.935   7.702   9.161
 1772POPC   GL224386  29.680   7.941   9.030
 1772POPC   C1A24387  30.052   7.459   8.795
 1772POPC   D2A24388  29.998   7.485   8.384
 1772POPC   C3A24389  30.186   7.153   8.158
 1772POPC   C4A24390  30.142   7.088   7.722
 1772POPC   C1B24391  29.594   7.637   8.711
 1772POPC   C2B24392  29.548   7.243   8.414
 1772POPC   C3B24393  29.709   7.259   7.975
 1772POPC   C4B24394  29.628   7.534   7.635
 1773POPC   NC324395  40.579  17.987   9.408
 1773POPC   PO424396  40.615  17.357   9.396
 1773POPC   GL124397  40.567  17.612   9.057
 1773POPC   GL224398  40.894  17.711   9.045
 1773POPC   C1A24399  40.607  17.494   8.657
 1773POPC   D2A24400  40.630  17.612   8.262
 1773POPC   C3A24401  40.462  17.349   7.989
 1773POPC   C4A24402  40.668  17.339   7.626
 1773POPC   C1B24403  41.079  17.335   8.878
 1773POPC   C2B24404  41.154  17.117   8.497
 1773POPC   C3B24405  40.982  17.205   8.086
 1773POPC   C4B24406  41.201  17.330   7.731
 1774POPC   NC324407  34.970  40.189   9.497
 1774POPC   PO424408  34.425  39.840   9.474
 1774POPC   GL124409  34.598  40.042   9.163
 1774POPC   GL224410  34.889  39.882   9.102
 1774POPC   C1A24411  34.572  40.073   8.738
 1774POPC   D2A24412  34.265  39.878   8.442
 1774POPC   C3A24413  34.337  39.922   8.071
 1774POPC   C4A24414  34.467  40.078   7.733
 1774POPC   C1B24415  34.920  39.650   8.736
 1774POPC   C2B24416  34.808  39.831   8.347
 1774POPC   C3B24417  34.748  39.639   7.984
 1774POPC   C4B24418  34.881  39.810   7.655
 1775POPC   NC324419  28.929   9.810   9.473
 1775POPC   PO424420  28.378   9.540   9.569
 1775POPC   GL124421  28.397   9.462   9.123
 1775POPC   GL224422  28.765   9.523   9.083
 1775POPC   C1A24423  28.211   9.543   8.686
 1775POPC   D2A24424  28.374   9.773   8.300
 1775POPC   C3A24425  28.188   9.805   7.876
 1775POPC   C4A24426  28.101   9.731   7.450
 1775POPC   C1B24427  28.647   9.821   8.755
 1775POPC   C2B24428  28.787  10.050   8.377
 1775POPC   C3B24429  28.629  10.052   7.945
 1775POPC   C4B24430  28.634   9.858   7.534
 1776POPC   NC324431  30.449  30.485   9.373
 1776POPC   PO424432  31.107  30.810   9.465
 1776POPC   GL124433  30.849  30.707   9.122
 1776POPC   GL224434  30.540  30.904   9.116
 1776POPC   C1A24435  30.901  30.603   8.708
 1776POPC   D2A24436  31.004  30.302   8.430
 1776POPC   C3A24437  30.954  30.505   8.087
 1776POPC   C4A24438  31.113  30.726   7.757
 1776POPC   C1B24439  30.380  30.673   8.738
 1776POPC   C2B24440  30.222  30.727   8.308
 1776POPC   C3B24441  30.401  30.787   7.888
 1776POPC   C4B24442  30.641  30.455   7.703
 1777POPC   NC324443   7.141   1.199   9.472
 1777POPC   PO424444   7.768   1.052   9.517
 1777POPC   GL124445   7.589   1.281   9.151
 1777POPC   GL224446   7.651   1.629   9.191
 1777POPC   C1A24447   7.300   1.435   8.789
 1777POPC   D2A24448   7.013   1.292   8.423
 1777POPC   C3A24449   7.212   1.190   8.019
 1777POPC   C4A24450   7.124   1.218   7.596
 1777POPC   C1B24451   7.845   1.567   8.782
 1777POPC   C2B24452   8.003   1.463   8.356
 1777POPC   C3B24453   7.715   1.462   7.997
 1777POPC   C4B24454   7.613   1.347   7.573
 1778POPC   NC324455  10.373  38.119   9.529
 1778POPC   PO424456  10.666  38.716   9.547
 1778POPC   GL124457  10.523  38.488   9.159
 1778POPC   GL224458  10.356  38.200   9.041
 1778POPC   C1A24459  10.730  38.399   8.743
 1778POPC   D2A24460  10.915  38.181   8.407
 1778POPC   C3A24461  10.733  38.256   8.023
 1778POPC   C4A24462  10.550  38.638   7.861
 1778POPC   C1B24463  10.200  38.365   8.651
 1778POPC   C2B24464   9.929  38.251   8.297
 1778POPC   C3B24465  10.086  38.329   7.901
 1778POPC   C4B24466  10.380  38.067   7.728
 1779POPC   NC324467  39.114  19.888   9.592
 1779POPC   PO424468  39.533  19.528   9.367
 1779POPC   GL124469  39.368  19.861   9.148
 1779POPC   GL224470  38.993  19.834   9.105
 1779POPC   C1A24471  39.278  20.147   8.846
 1779POPC   D2A24472  39.024  20.062   8.510
 1779POPC   C3A24473  39.158  20.137   8.101
 1779POPC   C4A24474  39.308  19.899   7.746
 1779POPC   C1B24475  39.162  19.603   8.748
 1779POPC   C2B24476  39.125  19.355   8.364
 1779POPC   C3B24477  39.138  19.460   7.928
 1779POPC   C4B24478  39.044  19.505   7.455
 1780POPC   NC324479  24.140  17.232   9.486
 1780POPC   PO424480  24.727  17.655   9.498
 1780POPC   GL124481  24.819  17.585   9.095
 1780POPC   GL224482  24.475  17.440   9.078
 1780POPC   C1A24483  24.725  17.652   8.659
 1780POPC   D2A24484  24.661  17.375   8.313
 1780POPC   C3A24485  24.619  17.568   7.921
 1780POPC   C4A24486  24.884  17.501   7.582
 1780POPC   C1B24487  24.348  17.257   8.695
 1780POPC   C2B24488  24.189  17.084   8.285
 1780POPC   C3B24489  24.361  16.997   7.864
 1780POPC   C4B24490  24.477  17.214   7.469
 1781POPC   NC324491  22.710  16.388   9.739
 1781POPC   PO424492  22.824  16.972   9.684
 1781POPC   GL124493  23.009  16.796   9.285
 1781POPC   GL224494  23.071  16.428   9.287
 1781POPC   C1A24495  23.150  16.780   8.832
 1781POPC   D2A24496  22.918  16.644   8.438
 1781POPC   C3A24497  22.931  16.762   7.976
 1781POPC   C4A24498  22.720  16.663   7.579
 1781POPC   C1B24499  23.092  16.268   8.853
 1781POPC   C2B24500  23.329  16.347   8.486
 1781POPC   C3B24501  23.242  16.374   8.085
 1781POPC   C4B24502  23.439  16.483   7.736
 1782POPC   NC324503  16.202  18.455   9.502
 1782POPC   PO424504  15.730  17.990   9.551
 1782POPC   GL124505  16.035  18.076   9.207
 1782POPC   GL224506  15.967  18.413   9.048
 1782POPC   C1A24507  16.070  17.951   8.788
 1782POPC   D2A24508  15.770  17.998   8.462
 1782POPC   C3A24509  15.869  18.141   8.060
 1782POPC   C4A24510  15.789  17.937   7.678
 1782POPC   C1B24511  16.005  18.421   8.595
 1782POPC   C2B24512  15.889  18.644   8.237
 1782POPC   C3B24513  16.051  18.750   7.845
 1782POPC   C4B24514  16.004  18.407   7.600
 1783POPC   NC324515  19.379  39.100   9.558
 1783POPC   PO424516  18.719  39.337   9.526
 1783POPC   GL124517  18.997  39.241   9.157
 1783POPC   GL224518  19.347  39.318   9.112
 1783POPC   C1A24519  19.040  39.097   8.736
 1783POPC   D2A24520  18.842  38.892   8.396
 1783POPC   C3A24521  18.782  39.236   8.136
 1783POPC   C4A24522  18.852  39.280   7.724
 1783POPC   C1B24523  19.443  39.457   8.721
 1783POPC   C2B24524  19.275  39.361   8.328
 1783POPC   C3B24525  19.376  39.279   7.930
 1783POPC   C4B24526  19.282  39.278   7.479
 1784POPC   NC324527  29.099  27.442   9.494
 1784POPC   PO424528  28.773  28.048   9.433
 1784POPC   GL124529  29.046  27.870   9.125
 1784POPC   GL224530  29.280  27.583   9.049
 1784POPC   C1A24531  29.033  27.866   8.705
 1784POPC   D2A24532  29.183  27.672   8.355
 1784POPC   C3A24533  28.901  27.748   8.009
 1784POPC   C4A24534  28.995  27.711   7.563
 1784POPC   C1B24535  28.957  27.362   8.778
 1784POPC   C2B24536  28.971  27.214   8.332
 1784POPC   C3B24537  29.025  27.278   7.854
 1784POPC   C4B24538  29.230  27.283   7.405
 1785POPC   NC324539  35.280  42.783   9.403
 1785POPC   PO424540  35.569  42.195   9.554
 1785POPC   GL124541  35.443  42.024   9.160
 1785POPC   GL224542  35.119  42.191   9.168
 1785POPC   C1A24543  35.508  42.222   8.747
 1785POPC   D2A24544  35.606  42.424   8.342
 1785POPC   C3A24545  35.460  42.267   7.973
 1785POPC   C4A24546  35.689  42.384   7.684
 1785POPC   C1B24547  35.106  42.516   8.839
 1785POPC   C2B24548  34.916  42.546   8.454
 1785POPC   C3B24549  35.160  42.619   8.150
 1785POPC   C4B24550  35.142  42.597   7.717
 1786POPC   NC324551  32.227  38.152   9.501
 1786POPC   PO424552  32.279  38.849   9.580
 1786POPC   GL124553  32.142  38.609   9.218
 1786POPC   GL224554  32.442  38.449   9.097
 1786POPC   C1A24555  31.995  38.609   8.798
 1786POPC   D2A24556  31.864  38.547   8.356
 1786POPC   C3A24557  32.049  38.728   7.995
 1786POPC   C4A24558  32.267  38.487   7.694
 1786POPC   C1B24559  32.221  38.157   8.802
 1786POPC   C2B24560  32.070  38.069   8.395
 1786POPC   C3B24561  32.002  38.143   7.971
 1786POPC   C4B24562  32.031  38.078   7.469
 1787POPC   NC324563  13.894  24.123   9.796
 1787POPC   PO424564  13.585  24.695   9.658
 1787POPC   GL124565  13.578  24.607   9.197
 1787POPC   GL224566  13.555  24.279   8.971
 1787POPC   C1A24567  13.689  24.740   8.774
 1787POPC   D2A24568  13.773  24.500   8.391
 1787POPC   C3A24569  13.753  24.709   8.006
 1787POPC   C4A24570  13.420  24.640   7.702
 1787POPC   C1B24571  13.871  24.077   8.698
 1787POPC   C2B24572  14.063  24.090   8.345
 1787POPC   C3B24573  13.864  24.123   7.970
 1787POPC   C4B24574  13.869  24.349   7.647
 1788POPC   NC324575  27.105  21.979   9.371
 1788POPC   PO424576  26.801  22.470   9.745
 1788POPC   GL124577  26.710  22.444   9.222
 1788POPC   GL224578  26.788  22.185   9.054
 1788POPC   C1A24579  26.536  22.544   8.811
 1788POPC   D2A24580  26.783  22.340   8.497
 1788POPC   C3A24581  26.740  22.508   8.097
 1788POPC   C4A24582  26.839  22.327   7.695
 1788POPC   C1B24583  26.942  21.911   8.752
 1788POPC   C2B24584  26.767  21.801   8.394
 1788POPC   C3B24585  26.911  21.998   8.079
 1788POPC   C4B24586  26.764  21.821   7.735
 1789POPC   NC324587  14.400  41.118   9.514
 1789POPC   PO424588  14.685  40.473   9.410
 1789POPC   GL124589  14.538  40.791   9.175
 1789POPC   GL224590  14.213  40.712   9.155
 1789POPC   C1A24591  14.465  41.000   8.788
 1789POPC   D2A24592  14.305  40.821   8.412
 1789POPC   C3A24593  14.461  41.013   8.047
 1789POPC   C4A24594  14.194  41.127   7.734
 1789POPC   C1B24595  14.420  40.489   8.790
 1789POPC   C2B24596  14.560  40.325   8.418
 1789POPC   C3B24597  14.440  40.488   8.034
 1789POPC   C4B24598  14.469  40.704   7.631
 1790POPC   NC324599  29.659  35.001   9.283
 1790POPC   PO424600  30.118  35.360   9.664
 1790POPC   GL124601  30.121  35.258   9.187
 1790POPC   GL224602  29.940  35.564   9.186
 1790POPC   C1A24603  30.016  35.067   8.730
 1790POPC   D2A24604  29.999  35.285   8.305
 1790POPC   C3A24605  30.127  35.082   7.891
 1790POPC   C4A24606  29.919  34.921   7.505
 1790POPC   C1B24607  29.838  35.534   8.791
 1790POPC   C2B24608  29.558  35.323   8.557
 1790POPC   C3B24609  29.545  35.378   8.122
 1790POPC   C4B24610  29.694  35.341   7.729
 1791POPC   NC324611  15.855  11.790   9.442
 1791POPC   PO424612  16.218  12.307   9.347
 1791POPC   GL124613  15.871  12.166   9.094
 1791POPC   GL224614  16.114  11.918   9.024
 1791POPC   C1A24615  15.830  12.072   8.654
 1791POPC   D2A24616  15.994  12.218   8.298
 1791POPC   C3A24617  15.855  12.062   7.916
 1791POPC   C4A24618  15.953  12.045   7.462
 1791POPC   C1B24619  16.308  11.929   8.612
 1791POPC   C2B24620  16.154  11.740   8.216
 1791POPC   C3B24621  16.295  11.851   7.786
 1791POPC   C4B24622  16.253  11.612   7.408
 1792POPC   NC324623  11.780  26.660   9.572
 1792POPC   PO424624  12.294  27.012   9.329
 1792POPC   GL124625  12.030  26.757   9.110
 1792POPC   GL224626  11.742  26.947   9.098
 1792POPC   C1A24627  12.118  26.786   8.682
 1792POPC   D2A24628  12.347  26.729   8.294
 1792POPC   C3A24629  12.087  26.696   7.919
 1792POPC   C4A24630  12.234  26.630   7.483
 1792POPC   C1B24631  11.684  27.052   8.681
 1792POPC   C2B24632  11.742  26.862   8.296
 1792POPC   C3B24633  11.807  27.125   7.929
 1792POPC   C4B24634  11.795  26.958   7.545
 1793POPC   NC324635   4.601  10.857   9.413
 1793POPC   PO424636   4.150  10.313   9.438
 1793POPC   GL124637   4.080  10.531   9.066
 1793POPC   GL224638   4.186  10.855   9.103
 1793POPC   C1A24639   4.022  10.439   8.658
 1793POPC   D2A24640   4.354  10.382   8.406
 1793POPC   C3A24641   4.261  10.543   8.044
 1793POPC   C4A24642   4.048  10.404   7.651
 1793POPC   C1B24643   4.455  10.754   8.753
 1793POPC   C2B24644   4.760  10.714   8.404
 1793POPC   C3B24645   4.803  10.514   8.029
 1793POPC   C4B24646   4.586  10.501   7.665
 1794POPC   NC324647   1.403  32.269   9.506
 1794POPC   PO424648   0.738  31.957   9.431
 1794POPC   GL124649   1.029  32.062   9.147
 1794POPC   GL224650   1.086  32.423   9.093
 1794POPC   C1A24651   0.946  32.010   8.737
 1794POPC   D2A24652   0.984  32.283   8.412
 1794POPC   C3A24653   1.009  32.021   8.073
 1794POPC   C4A24654   1.038  32.286   7.737
 1794POPC   C1B24655   1.413  32.212   8.822
 1794POPC   C2B24656   1.445  32.049   8.383
 1794POPC   C3B24657   1.450  32.337   8.028
 1794POPC   C4B24658   1.526  32.287   7.582
 1795POPC   NC324659  33.563  41.743   9.510
 1795POPC   PO424660  33.953  41.320   9.680
 1795POPC   GL124661  33.777  41.223   9.252
 1795POPC   GL224662  33.626  41.494   9.079
 1795POPC   C1A24663  33.817  41.076   8.818
 1795POPC   D2A24664  33.968  41.180   8.398
 1795POPC   C3A24665  33.658  41.145   8.124
 1795POPC   C4A24666  33.427  41.422   7.904
 1795POPC   C1B24667  33.809  41.598   8.694
 1795POPC   C2B24668  33.677  41.633   8.305
 1795POPC   C3B24669  33.832  41.738   7.932
 1795POPC   C4B24670  33.617  41.749   7.552
 1796POPC   NC324671  32.583   6.085   9.523
 1796POPC   PO424672  31.936   5.836   9.585
 1796POPC   GL124673  32.239   5.855   9.212
 1796POPC   GL224674  32.300   6.204   9.116
 1796POPC   C1A24675  32.211   5.722   8.773
 1796POPC   D2A24676  31.969   5.661   8.366
 1796POPC   C3A24677  32.217   5.597   7.963
 1796POPC   C4A24678  32.285   5.543   7.492
 1796POPC   C1B24679  32.492   6.168   8.699
 1796POPC   C2B24680  32.372   5.978   8.308
 1796POPC   C3B24681  32.280   6.079   7.864
 1796POPC   C4B24682  32.612   6.270   7.673
 1797POPC   NC324683  38.890  41.050   9.410
 1797POPC   PO424684  39.471  40.635   9.450
 1797POPC   GL124685  39.371  40.855   9.088
 1797POPC   GL224686  39.049  40.700   9.030
 1797POPC   C1A24687  39.383  40.798   8.619
 1797POPC   D2A24688  39.112  40.586   8.307
 1797POPC   C3A24689  39.233  40.588   7.859
 1797POPC   C4A24690  39.550  40.501   7.573
 1797POPC   C1B24691  39.010  41.084   8.791
 1797POPC   C2B24692  38.991  41.198   8.404
 1797POPC   C3B24693  39.172  41.062   8.067
 1797POPC   C4B24694  39.001  41.029   7.697
 1798POPC   NC324695  16.950  26.461   9.798
 1798POPC   PO424696  16.415  26.630   9.489
 1798POPC   GL124697  16.684  26.888   9.182
 1798POPC   GL224698  16.569  27.192   9.008
 1798POPC   C1A24699  16.964  26.866   8.798
 1798POPC   D2A24700  16.841  26.662   8.361
 1798POPC   C3A24701  17.015  26.734   7.918
 1798POPC   C4A24702  16.960  26.967   7.512
 1798POPC   C1B24703  16.589  27.078   8.546
 1798POPC   C2B24704  16.663  27.068   8.110
 1798POPC   C3B24705  16.490  26.798   7.845
 1798POPC   C4B24706  16.112  26.988   7.787
 1799POPC   NC324707  20.830  11.360   9.585
 1799POPC   PO424708  20.298  11.048   9.526
 1799POPC   GL124709  20.428  11.340   9.165
 1799POPC   GL224710  20.786  11.486   9.106
 1799POPC   C1A24711  20.473  11.484   8.729
 1799POPC   D2A24712  20.646  11.366   8.349
 1799POPC   C3A24713  20.396  11.219   8.042
 1799POPC   C4A24714  20.507  11.406   7.669
 1799POPC   C1B24715  20.924  11.756   8.767
 1799POPC   C2B24716  21.061  11.672   8.348
 1799POPC   C3B24717  21.067  11.389   7.980
 1799POPC   C4B24718  20.965  11.239   7.538
 1800POPC   NC324719  44.511  26.418   9.458
 1800POPC   PO424720   0.102  26.051   9.395
 1800POPC   GL124721  44.852  26.014   9.051
 1800POPC   GL224722  44.542  25.851   9.142
 1800POPC   C1A24723  44.785  25.813   8.656
 1800POPC   D2A24724  44.878  25.750   8.230
 1800POPC   C3A24725  44.761  26.088   7.931
 1800POPC   C4A24726  44.890  26.521   7.854
 1800POPC   C1B24727  44.450  26.174   8.804
 1800POPC   C2B24728  44.444  26.179   8.348
 1800POPC   C3B24729  44.245  26.039   7.961
 1800POPC   C4B24730  44.363  25.926   7.553
 1801POPC   NC324731   2.112  10.261   9.649
 1801POPC   PO424732   1.692  10.739   9.446
 1801POPC   GL124733   1.942  10.623   9.090
 1801POPC   GL224734   2.275  10.460   9.129
 1801POPC   C1A24735   2.081  10.622   8.664
 1801POPC   D2A24736   1.837  10.514   8.354
 1801POPC   C3A24737   1.855  10.613   7.980
 1801POPC   C4A24738   2.183  10.646   7.738
 1801POPC   C1B24739   2.243  10.146   8.767
 1801POPC   C2B24740   2.060  10.073   8.436
 1801POPC   C3B24741   2.181  10.228   8.078
 1801POPC   C4B24742   2.250  10.138   7.684
 1802POPC   NC324743   4.534  27.852   9.628
 1802POPC   PO424744   3.979  27.467   9.350
 1802POPC   GL124745   4.208  27.765   9.169
 1802POPC   GL224746   4.530  27.638   9.172
 1802POPC   C1A24747   4.084  27.885   8.780
 1802POPC   D2A24748   4.054  27.566   8.421
 1802POPC   C3A24749   4.199  27.679   8.016
 1802POPC   C4A24750   4.093  27.938   7.689
 1802POPC   C1B24751   4.447  27.534   8.743
 1802POPC   C2B24752   4.647  27.600   8.296
 1802POPC   C3B24753   4.676  27.554   7.857
 1802POPC   C4B24754   4.504  27.724   7.472
 1803POPC   NC324755  17.408  30.856   9.647
 1803POPC   PO424756  17.332  30.260   9.411
 1803POPC   GL124757  17.508  30.632   9.180
 1803POPC   GL224758  17.391  30.941   9.127
 1803POPC   C1A24759  17.609  30.687   8.746
 1803POPC   D2A24760  17.393  30.502   8.410
 1803POPC   C3A24761  17.279  30.704   8.028
 1803POPC   C4A24762  17.578  30.725   7.697
 1803POPC   C1B24763  17.475  31.198   8.775
 1803POPC   C2B24764  17.467  31.063   8.354
 1803POPC   C3B24765  17.808  30.958   8.085
 1803POPC   C4B24766  17.950  31.058   7.665
 1804POPC   NC324767  34.714  36.111   9.484
 1804POPC   PO424768  34.135  35.726   9.453
 1804POPC   GL124769  34.399  36.000   9.090
 1804POPC   GL224770  34.754  36.157   9.001
 1804POPC   C1A24771  34.344  36.334   8.740
 1804POPC   D2A24772  34.246  36.540   8.328
 1804POPC   C3A24773  34.278  36.214   8.028
 1804POPC   C4A24774  34.577  35.900   7.889
 1804POPC   C1B24775  34.987  36.333   8.692
 1804POPC   C2B24776  34.873  36.284   8.254
 1804POPC   C3B24777  34.719  36.401   7.850
 1804POPC   C4B24778  34.848  36.228   7.440
 1805POPC   NC324779  40.967  26.186   9.355
 1805POPC   PO424780  40.845  25.534   9.424
 1805POPC   GL124781  40.663  25.827   9.103
 1805POPC   GL224782  40.439  26.109   9.232
 1805POPC   C1A24783  40.764  25.895   8.664
 1805POPC   D2A24784  40.659  25.724   8.265
 1805POPC   C3A24785  40.957  25.776   7.951
 1805POPC   C4A24786  40.909  26.021   7.607
 1805POPC   C1B24787  40.453  26.289   8.818
 1805POPC   C2B24788  40.632  26.381   8.423
 1805POPC   C3B24789  40.667  26.194   8.036
 1805POPC   C4B24790  40.412  26.170   7.693
 1806POPC   NC324791   4.303  34.168   9.647
 1806POPC   PO424792   3.944  33.682   9.292
 1806POPC   GL124793   4.165  33.614   9.002
 1806POPC   GL224794   4.468  33.806   9.085
 1806POPC   C1A24795   4.063  33.537   8.588
 1806POPC   D2A24796   4.373  33.687   8.320
 1806POPC   C3A24797   4.340  33.557   7.935
 1806POPC   C4A24798   4.730  33.588   7.818
 1806POPC   C1B24799   4.321  34.007   8.716
 1806POPC   C2B24800   4.336  34.235   8.337
 1806POPC   C3B24801   4.354  34.074   7.933
 1806POPC   C4B24802   4.019  33.896   7.689
 1807POPC   NC324803  32.968  42.639   9.751
 1807POPC   PO424804  33.396  43.108   9.515
 1807POPC   GL124805  33.193  43.231   9.161
 1807POPC   GL224806  33.448  43.456   9.066
 1807POPC   C1A24807  32.922  43.084   8.784
 1807POPC   D2A24808  32.999  42.807   8.416
 1807POPC   C3A24809  32.840  42.893   7.999
 1807POPC   C4A24810  32.683  43.374   7.943
 1807POPC   C1B24811  33.288  43.432   8.690
 1807POPC   C2B24812  32.940  43.491   8.436
 1807POPC   C3B24813  33.144  43.250   8.152
 1807POPC   C4B24814  33.142  43.205   7.703
 1808POPC   NC324815  31.930   3.782   9.435
 1808POPC   PO424816  31.268   3.629   9.526
 1808POPC   GL124817  31.494   3.526   9.186
 1808POPC   GL224818  31.773   3.322   9.210
 1808POPC   C1A24819  31.594   3.727   8.818
 1808POPC   D2A24820  31.428   3.622   8.426
 1808POPC   C3A24821  31.568   3.853   8.090
 1808POPC   C4A24822  31.771   3.777   7.743
 1808POPC   C1B24823  31.640   3.218   8.759
 1808POPC   C2B24824  31.772   3.240   8.289
 1808POPC   C3B24825  31.669   3.283   7.829
 1808POPC   C4B24826  31.654   3.429   7.368
 1809POPC   NC324827   7.921  26.514   9.475
 1809POPC   PO424828   8.110  27.163   9.546
 1809POPC   GL124829   8.101  26.907   9.147
 1809POPC   GL224830   7.805  26.682   9.017
 1809POPC   C1A24831   8.084  26.931   8.697
 1809POPC   D2A24832   7.975  26.694   8.358
 1809POPC   C3A24833   8.134  26.975   8.093
 1809POPC   C4A24834   8.097  27.105   7.694
 1809POPC   C1B24835   8.173  26.466   8.850
 1809POPC   C2B24836   8.439  26.582   8.533
 1809POPC   C3B24837   8.445  26.575   8.074
 1809POPC   C4B24838   8.176  26.582   7.693
 1810POPC   NC324839  24.054  37.831   9.424
 1810POPC   PO424840  23.407  37.626   9.505
 1810POPC   GL124841  23.644  37.651   9.109
 1810POPC   GL224842  23.616  38.010   9.203
 1810POPC   C1A24843  23.688  37.513   8.601
 1810POPC   D2A24844  23.400  37.403   8.203
 1810POPC   C3A24845  23.510  37.459   7.755
 1810POPC   C4A24846  23.722  37.850   7.603
 1810POPC   C1B24847  23.818  38.039   8.823
 1810POPC   C2B24848  23.785  37.981   8.400
 1810POPC   C3B24849  23.830  37.665   8.095
 1810POPC   C4B24850  24.049  37.366   7.847
 1811POPC   NC324851  27.581  36.237   9.609
 1811POPC   PO424852  27.446  35.602   9.344
 1811POPC   GL124853  27.636  35.968   9.180
 1811POPC   GL224854  27.924  35.800   9.058
 1811POPC   C1A24855  27.525  36.293   8.859
 1811POPC   D2A24856  27.289  36.356   8.466
 1811POPC   C3A24857  27.587  36.434   8.112
 1811POPC   C4A24858  27.652  36.264   7.713
 1811POPC   C1B24859  27.576  35.817   8.698
 1811POPC   C2B24860  27.578  35.947   8.264
 1811POPC   C3B24861  27.701  35.772   7.876
 1811POPC   C4B24862  28.004  35.757   7.511
 1812POPC   NC324863  33.253  10.457   9.331
 1812POPC   PO424864  32.672  10.825   9.492
 1812POPC   GL124865  32.879  10.700   9.118
 1812POPC   GL224866  32.868  10.363   9.034
 1812POPC   C1A24867  33.064  10.652   8.693
 1812POPC   D2A24868  32.803  10.493   8.350
 1812POPC   C3A24869  33.050  10.549   8.004
 1812POPC   C4A24870  33.271  10.765   7.683
 1812POPC   C1B24871  33.127  10.151   8.726
 1812POPC   C2B24872  33.011  10.028   8.277
 1812POPC   C3B24873  33.117  10.042   7.839
 1812POPC   C4B24874  33.054  10.345   7.523
 1813POPC   NC324875   0.314   4.215   9.454
 1813POPC   PO424876   0.982   4.435   9.468
 1813POPC   GL124877   0.678   4.310   9.120
 1813POPC   GL224878   0.444   4.604   9.119
 1813POPC   C1A24879   0.408   4.068   8.801
 1813POPC   D2A24880   0.511   4.037   8.366
 1813POPC   C3A24881   0.249   4.177   8.029
 1813POPC   C4A24882   0.280   3.977   7.628
 1813POPC   C1B24883   0.329   4.572   8.681
 1813POPC   C2B24884   0.065   4.723   8.326
 1813POPC   C3B24885  44.963   4.616   7.900
 1813POPC   C4B24886   0.172   4.481   7.549
 1814POPC   NC324887  19.854  43.314   9.657
 1814POPC   PO424888  20.206  42.811   9.719
 1814POPC   GL124889  20.018  43.010   9.299
 1814POPC   GL224890  19.650  43.013   9.219
 1814POPC   C1A24891  20.044  43.171   8.867
 1814POPC   D2A24892  20.122  43.058   8.438
 1814POPC   C3A24893  19.852  42.814   8.168
 1814POPC   C4A24894  19.892  42.777   7.728
 1814POPC   C1B24895  19.548  43.111   8.774
 1814POPC   C2B24896  19.656  43.273   8.359
 1814POPC   C3B24897  19.583  43.194   7.914
 1814POPC   C4B24898  19.637  43.159   7.448
 1815POPC   NC324899  25.067  36.605   9.417
 1815POPC   PO424900  25.373  37.281   9.467
 1815POPC   GL124901  25.350  36.969   9.166
 1815POPC   GL224902  25.651  37.049   9.033
 1815POPC   C1A24903  25.094  36.968   8.790
 1815POPC   D2A24904  25.013  36.841   8.360
 1815POPC   C3A24905  24.974  37.160   8.066
 1815POPC   C4A24906  25.018  37.015   7.658
 1815POPC   C1B24907  25.568  36.797   8.704
 1815POPC   C2B24908  25.537  36.706   8.328
 1815POPC   C3B24909  25.418  36.925   8.001
 1815POPC   C4B24910  25.521  37.122   7.622
 1816POPC   NC324911  20.167  27.694   9.730
 1816POPC   PO424912  19.572  27.538   9.518
 1816POPC   GL124913  19.751  27.675   9.128
 1816POPC   GL224914  19.837  27.351   9.062
 1816POPC   C1A24915  19.900  27.616   8.664
 1816POPC   D2A24916  19.766  27.655   8.281
 1816POPC   C3A24917  20.104  27.744   8.004
 1816POPC   C4A24918  20.008  27.945   7.587
 1816POPC   C1B24919  19.549  27.219   8.712
 1816POPC   C2B24920  19.357  27.243   8.321
 1816POPC   C3B24921  19.683  27.220   8.041
 1816POPC   C4B24922  19.805  27.454   7.721
 1817POPC   NC324923  18.907   0.203   9.409
 1817POPC   PO424924  18.852   0.895   9.448
 1817POPC   GL124925  18.916   0.650   9.099
 1817POPC   GL224926  18.577   0.489   9.129
 1817POPC   C1A24927  19.232   0.419   8.804
 1817POPC   D2A24928  19.486   0.452   8.411
 1817POPC   C3A24929  19.269   0.453   8.004
 1817POPC   C4A24930  19.323   0.243   7.618
 1817POPC   C1B24931  18.725   0.339   8.746
 1817POPC   C2B24932  18.937   0.485   8.394
 1817POPC   C3B24933  18.755   0.408   8.036
 1817POPC   C4B24934  18.873   0.465   7.635
 1818POPC   NC324935  13.376  12.568   9.447
 1818POPC   PO424936  13.530  13.246   9.559
 1818POPC   GL124937  13.705  12.947   9.243
 1818POPC   GL224938  13.394  12.921   9.075
 1818POPC   C1A24939  13.817  12.841   8.804
 1818POPC   D2A24940  13.752  12.617   8.431
 1818POPC   C3A24941  13.669  12.935   8.133
 1818POPC   C4A24942  13.778  12.920   7.716
 1818POPC   C1B24943  13.170  12.960   8.697
 1818POPC   C2B24944  13.236  12.723   8.349
 1818POPC   C3B24945  13.380  12.519   8.014
 1818POPC   C4B24946  13.301  12.791   7.705
 1819POPC   NC324947  42.841   4.480   9.511
 1819POPC   PO424948  42.111   4.486   9.527
 1819POPC   GL124949  42.269   4.299   9.167
 1819POPC   GL224950  42.613   4.342   9.097
 1819POPC   C1A24951  42.222   4.397   8.759
 1819POPC   D2A24952  42.122   4.606   8.382
 1819POPC   C3A24953  42.007   4.320   8.089
 1819POPC   C4A24954  42.195   4.200   7.719
 1819POPC   C1B24955  42.798   4.324   8.700
 1819POPC   C2B24956  42.606   4.439   8.329
 1819POPC   C3B24957  42.649   4.229   7.954
 1819POPC   C4B24958  42.698   4.125   7.535
 1820POPC   NC324959  37.180  14.747   9.483
 1820POPC   PO424960  36.908  14.117   9.412
 1820POPC   GL124961  36.856  14.494   9.142
 1820POPC   GL224962  37.157  14.443   9.075
 1820POPC   C1A24963  36.951  14.717   8.712
 1820POPC   D2A24964  36.770  14.678   8.309
 1820POPC   C3A24965  36.910  14.472   7.935
 1820POPC   C4A24966  37.040  14.700   7.595
 1820POPC   C1B24967  37.264  14.318   8.706
 1820POPC   C2B24968  37.248  14.470   8.312
 1820POPC   C3B24969  37.416  14.415   7.904
 1820POPC   C4B24970  37.247  14.235   7.515
 1821POPC   NC324971  37.842  17.903   9.550
 1821POPC   PO424972  38.469  17.479   9.546
 1821POPC   GL124973  38.407  17.282   9.147
 1821POPC   GL224974  38.750  17.175   9.016
 1821POPC   C1A24975  38.152  17.378   8.786
 1821POPC   D2A24976  38.304  17.542   8.393
 1821POPC   C3A24977  38.450  17.298   8.056
 1821POPC   C4A24978  38.194  17.222   7.715
 1821POPC   C1B24979  38.699  17.630   8.915
 1821POPC   C2B24980  38.724  17.858   8.544
 1821POPC   C3B24981  38.756  17.740   8.122
 1821POPC   C4B24982  38.985  17.711   7.735
 1822POPC   NC324983   1.992  25.574   9.328
 1822POPC   PO424984   1.878  25.046   9.742
 1822POPC   GL124985   1.688  25.051   9.147
 1822POPC   GL224986   1.741  25.381   8.932
 1822POPC   C1A24987   1.953  25.003   8.686
 1822POPC   D2A24988   1.951  25.324   8.314
 1822POPC   C3A24989   1.901  25.194   7.897
 1822POPC   C4A24990   1.568  24.937   7.767
 1822POPC   C1B24991   2.226  25.425   8.727
 1822POPC   C2B24992   2.458  25.370   8.344
 1822POPC   C3B24993   2.352  25.459   7.901
 1822POPC   C4B24994   2.267  25.323   7.477
 1823POPC   NC324995  33.682   3.107   9.468
 1823POPC   PO424996  33.863   3.734   9.494
 1823POPC   GL124997  33.855   3.472   9.142
 1823POPC   GL224998  33.569   3.315   9.014
 1823POPC   C1A24999  34.009   3.559   8.741
 1823POPC   D2A25000  33.766   3.498   8.390
 1823POPC   C3A25001  33.966   3.443   8.007
 1823POPC   C4A25002  33.903   3.762   7.709
 1823POPC   C1B25003  33.488   3.703   8.831
 1823POPC   C2B25004  33.311   3.740   8.419
 1823POPC   C3B25005  33.459   3.734   7.998
 1823POPC   C4B25006  33.539   3.360   7.742
 1824POPC   NC325007  23.123  14.956   9.362
 1824POPC   PO425008  23.277  14.319   9.528
 1824POPC   GL125009  23.016  14.451   9.162
 1824POPC   GL225010  22.706  14.655   9.240
 1824POPC   C1A25011  22.936  14.230   8.763
 1824POPC   D2A25012  23.201  14.314   8.407
 1824POPC   C3A25013  23.049  14.287   8.006
 1824POPC   C4A25014  23.019  14.638   7.713
 1824POPC   C1B25015  22.701  14.676   8.783
 1824POPC   C2B25016  22.829  14.649   8.312
 1824POPC   C3B25017  22.577  14.500   7.928
 1824POPC   C4B25018  22.649  14.416   7.463
 1825POPC   NC325019  27.719  20.126   9.683
 1825POPC   PO425020  27.462  20.769   9.577
 1825POPC   GL125021  27.560  20.588   9.178
 1825POPC   GL225022  27.276  20.778   9.080
 1825POPC   C1A25023  27.724  20.539   8.723
 1825POPC   D2A25024  27.808  20.261   8.319
 1825POPC   C3A25025  27.898  20.489   7.944
 1825POPC   C4A25026  27.802  20.946   7.927
 1825POPC   C1B25027  27.185  20.465   8.817
 1825POPC   C2B25028  27.181  20.628   8.444
 1825POPC   C3B25029  27.408  20.616   8.065
 1825POPC   C4B25030  27.522  20.610   7.622
 1826POPC   NC325031  37.692   9.902   9.627
 1826POPC   PO425032  37.761   9.246   9.406
 1826POPC   GL125033  37.789   9.563   9.077
 1826POPC   GL225034  37.710   9.908   9.115
 1826POPC   C1A25035  37.587   9.682   8.670
 1826POPC   D2A25036  37.786   9.801   8.296
 1826POPC   C3A25037  37.626   9.611   7.917
 1826POPC   C4A25038  37.850   9.530   7.553
 1826POPC   C1B25039  37.423  10.135   8.825
 1826POPC   C2B25040  37.350  10.195   8.361
 1826POPC   C3B25041  37.579  10.139   7.966
 1826POPC   C4B25042  37.587   9.966   7.552
 1827POPC   NC325043  37.807  13.798   9.848
 1827POPC   PO425044  37.548  13.299   9.442
 1827POPC   GL125045  37.677  13.617   9.147
 1827POPC   GL225046  37.956  13.843   9.160
 1827POPC   C1A25047  37.705  13.527   8.717
 1827POPC   D2A25048  37.401  13.476   8.397
 1827POPC   C3A25049  37.611  13.410   8.035
 1827POPC   C4A25050  37.439  13.424   7.650
 1827POPC   C1B25051  38.133  13.824   8.740
 1827POPC   C2B25052  37.892  13.858   8.347
 1827POPC   C3B25053  37.972  13.766   7.933
 1827POPC   C4B25054  37.632  13.954   7.715
 1828POPC   NC325055  43.068   6.293   9.454
 1828POPC   PO425056  42.938   6.843   9.774
 1828POPC   GL125057  43.094   6.762   9.278
 1828POPC   GL225058  43.269   7.003   9.123
 1828POPC   C1A25059  43.262   6.506   8.884
 1828POPC   D2A25060  43.059   6.319   8.529
 1828POPC   C3A25061  42.937   6.600   8.197
 1828POPC   C4A25062  43.148   6.528   7.807
 1828POPC   C1B25063  43.077   6.933   8.733
 1828POPC   C2B25064  43.200   7.061   8.351
 1828POPC   C3B25065  43.425   6.978   7.972
 1828POPC   C4B25066  43.075   7.035   7.741
 1829POPC   NC325067  31.481   5.748   9.521
 1829POPC   PO425068  31.049   6.185   9.284
 1829POPC   GL125069  31.376   5.923   9.023
 1829POPC   GL225070  31.741   5.783   9.082
 1829POPC   C1A25071  31.565   6.018   8.601
 1829POPC   D2A25072  31.327   6.205   8.231
 1829POPC   C3A25073  31.375   5.972   7.828
 1829POPC   C4A25074  31.275   5.538   7.720
 1829POPC   C1B25075  31.600   5.507   8.743
 1829POPC   C2B25076  31.456   5.523   8.323
 1829POPC   C3B25077  31.675   5.419   8.010
 1829POPC   C4B25078  31.810   5.665   7.685
 1830POPC   NC325079  42.761  22.365   9.568
 1830POPC   PO425080  43.401  22.092   9.630
 1830POPC   GL125081  43.213  22.113   9.234
 1830POPC   GL225082  43.116  22.425   9.178
 1830POPC   C1A25083  43.309  22.159   8.784
 1830POPC   D2A25084  43.424  22.032   8.380
 1830POPC   C3A25085  43.223  22.280   8.061
 1830POPC   C4A25086  43.155  22.147   7.652
 1830POPC   C1B25087  42.922  22.493   8.738
 1830POPC   C2B25088  42.603  22.519   8.400
 1830POPC   C3B25089  42.647  22.651   7.977
 1830POPC   C4B25090  43.019  22.644   7.743
 1831POPC   NC325091  23.262  19.121   9.404
 1831POPC   PO425092  23.934  19.257   9.485
 1831POPC   GL125093  23.813  18.983   9.147
 1831POPC   GL225094  23.495  19.075   8.958
 1831POPC   C1A25095  23.866  18.848   8.716
 1831POPC   D2A25096  23.746  19.090   8.377
 1831POPC   C3A25097  23.881  18.928   7.983
 1831POPC   C4A25098  23.859  19.125   7.599
 1831POPC   C1B25099  23.415  19.457   8.710
 1831POPC   C2B25100  23.444  19.602   8.305
 1831POPC   C3B25101  23.570  19.353   7.960
 1831POPC   C4B25102  23.411  18.978   7.788
 1832POPC   NC325103  25.846  30.249   9.312
 1832POPC   PO425104  26.273  29.843   9.470
 1832POPC   GL125105  26.041  29.782   9.103
 1832POPC   GL225106  25.787  29.576   9.074
 1832POPC   C1A25107  25.932  29.900   8.672
 1832POPC   D2A25108  25.703  30.153   8.388
 1832POPC   C3A25109  25.926  30.128   8.045
 1832POPC   C4A25110  25.959  30.153   7.628
 1832POPC   C1B25111  25.753  29.429   8.613
 1832POPC   C2B25112  25.747  29.648   8.197
 1832POPC   C3B25113  26.012  29.668   7.812
 1832POPC   C4B25114  25.868  29.639   7.365
 1833POPC   NC325115  21.075  44.590   9.248
 1833POPC   PO425116  21.726  44.756   9.440
 1833POPC   GL125117  21.603  44.755   9.006
 1833POPC   GL225118  21.282  44.965   8.944
 1833POPC   C1A25119  21.673  44.970   8.598
 1833POPC   D2A25120  21.435   0.001   8.247
 1833POPC   C3A25121  21.575  44.630   8.048
 1833POPC   C4A25122  21.613  44.629   7.628
 1833POPC   C1B25123  21.278  44.630   8.599
 1833POPC   C2B25124  21.158  44.362   8.240
 1833POPC   C3B25125  21.136  44.459   7.814
 1833POPC   C4B25126  21.180  44.880   7.807
 1834POPC   NC325127  38.032  21.167   9.371
 1834POPC   PO425128  37.851  20.581   9.610
 1834POPC   GL125129  37.608  20.808   9.277
 1834POPC   GL225130  37.915  20.728   9.110
 1834POPC   C1A25131  37.504  20.833   8.810
 1834POPC   D2A25132  37.725  20.687   8.420
 1834POPC   C3A25133  37.556  20.676   7.987
 1834POPC   C4A25134  37.229  20.481   7.725
 1834POPC   C1B25135  38.064  20.887   8.764
 1834POPC   C2B25136  38.154  20.962   8.368
 1834POPC   C3B25137  38.084  20.758   7.992
 1834POPC   C4B25138  37.893  20.908   7.607
 1835POPC   NC325139  10.154   5.206   9.463
 1835POPC   PO425140  10.707   4.759   9.379
 1835POPC   GL125141  10.589   5.125   9.174
 1835POPC   GL225142  10.285   4.920   9.073
 1835POPC   C1A25143  10.582   5.192   8.738
 1835POPC   D2A25144  10.602   4.866   8.468
 1835POPC   C3A25145  10.554   5.079   8.116
 1835POPC   C4A25146  10.722   4.958   7.762
 1835POPC   C1B25147  10.077   5.260   8.808
 1835POPC   C2B25148  10.200   5.419   8.406
 1835POPC   C3B25149  10.120   5.321   7.967
 1835POPC   C4B25150  10.461   5.392   7.677
 1836POPC   NC325151   8.075  22.049   9.645
 1836POPC   PO425152   8.222  22.636   9.823
 1836POPC   GL125153   8.243  22.416   9.319
 1836POPC   GL225154   8.084  22.079   9.142
 1836POPC   C1A25155   8.449  22.281   8.886
 1836POPC   D2A25156   8.406  22.025   8.522
 1836POPC   C3A25157   8.470  22.231   8.147
 1836POPC   C4A25158   8.288  22.268   7.767
 1836POPC   C1B25159   7.959  22.248   8.698
 1836POPC   C2B25160   7.913  22.370   8.224
 1836POPC   C3B25161   7.819  22.445   7.754
 1836POPC   C4B25162   8.047  22.350   7.322
 1837POPC   NC325163  23.100  27.235   9.519
 1837POPC   PO425164  22.687  27.730   9.554
 1837POPC   GL125165  23.071  27.709   9.252
 1837POPC   GL225166  23.111  27.429   9.061
 1837POPC   C1A25167  23.165  27.836   8.775
 1837POPC   D2A25168  23.004  27.976   8.349
 1837POPC   C3A25169  22.928  27.779   7.966
 1837POPC   C4A25170  22.907  27.879   7.535
 1837POPC   C1B25171  22.818  27.422   8.747
 1837POPC   C2B25172  22.806  27.389   8.309
 1837POPC   C3B25173  22.559  27.416   7.935
 1837POPC   C4B25174  22.438  27.207   7.563
 1838POPC   NC325175  27.547  27.102   9.529
 1838POPC   PO425176  27.240  26.479   9.607
 1838POPC   GL125177  27.590  26.619   9.349
 1838POPC   GL225178  27.408  26.836   9.135
 1838POPC   C1A25179  27.812  26.611   8.942
 1838POPC   D2A25180  27.778  26.782   8.539
 1838POPC   C3A25181  27.612  26.531   8.228
 1838POPC   C4A25182  27.615  26.490   7.805
 1838POPC   C1B25183  27.289  26.707   8.763
 1838POPC   C2B25184  27.153  26.617   8.388
 1838POPC   C3B25185  27.159  26.757   7.985
 1838POPC   C4B25186  27.151  27.213   7.899
 1839POPC   NC325187  12.396  28.954   9.522
 1839POPC   PO425188  11.739  29.179   9.412
 1839POPC   GL125189  12.041  29.000   9.115
 1839POPC   GL225190  12.378  29.136   9.047
 1839POPC   C1A25191  12.079  28.968   8.671
 1839POPC   D2A25192  11.938  29.228   8.368
 1839POPC   C3A25193  12.018  29.144   7.967
 1839POPC   C4A25194  11.820  29.087   7.594
 1839POPC   C1B25195  12.486  29.372   8.668
 1839POPC   C2B25196  12.451  29.345   8.213
 1839POPC   C3B25197  12.466  29.254   7.762
 1839POPC   C4B25198  12.557  29.319   7.287
 1840POPC   NC325199   4.817  22.387   9.641
 1840POPC   PO425200   5.293  22.023   9.361
 1840POPC   GL125201   5.034  22.312   9.179
 1840POPC   GL225202   4.780  22.066   9.080
 1840POPC   C1A25203   5.084  22.448   8.778
 1840POPC   D2A25204   4.956  22.164   8.495
 1840POPC   C3A25205   5.014  22.252   8.092
 1840POPC   C4A25206   4.989  22.532   7.777
 1840POPC   C1B25207   4.893  21.722   8.732
 1840POPC   C2B25208   5.033  21.716   8.252
 1840POPC   C3B25209   4.947  21.679   7.784
 1840POPC   C4B25210   4.817  21.802   7.308
 1841POPC   NC325211   6.802  34.377   9.429
 1841POPC   PO425212   6.344  34.835   9.566
 1841POPC   GL125213   6.530  34.796   9.170
 1841POPC   GL225214   6.859  34.741   9.040
 1841POPC   C1A25215   6.399  34.785   8.760
 1841POPC   D2A25216   6.415  34.654   8.333
 1841POPC   C3A25217   6.683  34.829   8.022
 1841POPC   C4A25218   6.427  34.788   7.661
 1841POPC   C1B25219   6.877  34.735   8.575
 1841POPC   C2B25220   6.887  34.416   8.241
 1841POPC   C3B25221   6.825  34.372   7.784
 1841POPC   C4B25222   6.680  34.420   7.390
 1842POPC   NC325223  18.912   8.972   9.573
 1842POPC   PO425224  19.252   9.596   9.506
 1842POPC   GL125225  19.230   9.166   9.237
 1842POPC   GL225226  18.867   9.073   9.084
 1842POPC   C1A25227  19.267   8.853   8.879
 1842POPC   D2A25228  19.337   8.853   8.425
 1842POPC   C3A25229  18.980   8.857   8.175
 1842POPC   C4A25230  18.936   8.879   7.729
 1842POPC   C1B25231  18.893   9.151   8.612
 1842POPC   C2B25232  18.883   9.345   8.173
 1842POPC   C3B25233  18.812   9.380   7.706
 1842POPC   C4B25234  18.753   9.291   7.253
 1843POPC   NC325235  11.076  40.118   9.449
 1843POPC   PO425236  11.557  39.711   9.719
 1843POPC   GL125237  11.467  39.830   9.299
 1843POPC   GL225238  11.525  40.188   9.178
 1843POPC   C1A25239  11.380  39.795   8.859
 1843POPC   D2A25240  11.178  39.913   8.440
 1843POPC   C3A25241  11.445  39.875   8.057
 1843POPC   C4A25242  11.623  39.831   7.630
 1843POPC   C1B25243  11.304  40.284   8.794
 1843POPC   C2B25244  11.522  40.302   8.386
 1843POPC   C3B25245  11.437  40.376   7.959
 1843POPC   C4B25246  11.063  40.151   7.785
 1844POPC   NC325247  23.425  33.880   9.351
 1844POPC   PO425248  24.120  33.723   9.506
 1844POPC   GL125249  23.884  33.657   9.163
 1844POPC   GL225250  23.621  33.423   9.225
 1844POPC   C1A25251  23.873  33.980   8.858
 1844POPC   D2A25252  23.836  34.130   8.461
 1844POPC   C3A25253  23.804  33.873   8.115
 1844POPC   C4A25254  23.979  34.011   7.731
 1844POPC   C1B25255  23.520  33.580   8.808
 1844POPC   C2B25256  23.544  33.498   8.408
 1844POPC   C3B25257  23.415  33.502   8.008
 1844POPC   C4B25258  23.687  33.593   7.701
 1845POPC   NC325259  11.027  26.484   9.493
 1845POPC   PO425260  11.467  27.047   9.563
 1845POPC   GL125261  11.240  26.879   9.240
 1845POPC   GL225262  11.427  26.560   9.169
 1845POPC   C1A25263  11.251  26.832   8.802
 1845POPC   D2A25264  11.209  26.786   8.361
 1845POPC   C3A25265  11.316  27.088   8.061
 1845POPC   C4A25266  11.276  26.981   7.622
 1845POPC   C1B25267  11.664  26.507   8.779
 1845POPC   C2B25268  11.504  26.365   8.354
 1845POPC   C3B25269  11.505  26.566   7.937
 1845POPC   C4B25270  11.771  26.453   7.597
 1846POPC   NC325271  31.551  42.641   9.609
 1846POPC   PO425272  31.251  42.080   9.544
 1846POPC   GL125273  31.308  42.182   9.106
 1846POPC   GL225274  31.667  42.137   9.095
 1846POPC   C1A25275  31.395  42.188   8.655
 1846POPC   D2A25276  31.152  42.402   8.340
 1846POPC   C3A25277  31.409  42.329   8.025
 1846POPC   C4A25278  31.558  42.428   7.625
 1846POPC   C1B25279  31.846  41.940   8.731
 1846POPC   C2B25280  31.645  41.864   8.314
 1846POPC   C3B25281  31.770  42.008   7.900
 1846POPC   C4B25282  31.734  41.999   7.454
 1847POPC   NC325283  39.769  11.271   9.541
 1847POPC   PO425284  40.431  11.387   9.648
 1847POPC   GL125285  40.171  11.244   9.249
 1847POPC   GL225286  40.139  11.553   9.100
 1847POPC   C1A25287  39.835  11.212   8.890
 1847POPC   D2A25288  39.914  11.137   8.441
 1847POPC   C3A25289  39.987  11.423   8.067
 1847POPC   C4A25290  39.946  11.652   7.664
 1847POPC   C1B25291  40.277  11.399   8.730
 1847POPC   C2B25292  40.419  11.280   8.340
 1847POPC   C3B25293  40.402  11.113   7.963
 1847POPC   C4B25294  40.434  11.517   7.735
 1848POPC   NC325295  28.969  29.312   9.345
 1848POPC   PO425296  29.634  29.428   9.391
 1848POPC   GL125297  29.403  29.037   9.142
 1848POPC   GL225298  29.067  28.845   9.134
 1848POPC   C1A25299  29.255  29.047   8.694
 1848POPC   D2A25300  29.290  29.358   8.364
 1848POPC   C3A25301  29.081  29.329   7.981
 1848POPC   C4A25302  29.315  29.025   7.779
 1848POPC   C1B25303  28.737  29.013   8.827
 1848POPC   C2B25304  28.822  29.116   8.394
 1848POPC   C3B25305  28.721  28.904   8.024
 1848POPC   C4B25306  28.814  29.028   7.631
 1849POPC   NC325307  34.853  37.964   9.469
 1849POPC   PO425308  34.374  37.569   9.669
 1849POPC   GL125309  34.470  37.423   9.193
 1849POPC   GL225310  34.824  37.554   9.115
 1849POPC   C1A25311  34.301  37.467   8.757
 1849POPC   D2A25312  34.518  37.540   8.386
 1849POPC   C3A25313  34.311  37.429   8.018
 1849POPC   C4A25314  34.193  37.434   7.613
 1849POPC   C1B25315  35.045  37.819   8.781
 1849POPC   C2B25316  35.010  37.752   8.328
 1849POPC   C3B25317  34.723  37.855   8.013
 1849POPC   C4B25318  34.861  38.029   7.636
 1850POPC   NC325319  32.073  40.998   9.453
 1850POPC   PO425320  32.623  40.637   9.335
 1850POPC   GL125321  32.268  40.708   9.090
 1850POPC   GL225322  32.408  41.050   9.016
 1850POPC   C1A25323  32.092  40.803   8.701
 1850POPC   D2A25324  32.322  41.110   8.466
 1850POPC   C3A25325  32.209  41.097   8.022
 1850POPC   C4A25326  32.042  40.720   7.831
 1850POPC   C1B25327  32.609  40.718   8.715
 1850POPC   C2B25328  32.826  40.639   8.356
 1850POPC   C3B25329  32.529  40.646   8.075
 1850POPC   C4B25330  32.505  40.467   7.724
 1851POPC   NC325331  30.204  17.454   9.564
 1851POPC   PO425332  29.533  17.710   9.592
 1851POPC   GL125333  29.754  17.606   9.225
 1851POPC   GL225334  29.867  17.255   9.191
 1851POPC   C1A25335  29.711  17.548   8.789
 1851POPC   D2A25336  29.976  17.632   8.466
 1851POPC   C3A25337  29.918  17.810   8.060
 1851POPC   C4A25338  30.029  17.662   7.686
 1851POPC   C1B25339  30.226  17.374   8.904
 1851POPC   C2B25340  30.418  17.367   8.503
 1851POPC   C3B25341  30.187  17.365   8.087
 1851POPC   C4B25342  29.950  17.174   7.722
 1852POPC   NC325343  28.408  15.675   9.457
 1852POPC   PO425344  28.726  16.317   9.403
 1852POPC   GL125345  28.398  16.306   9.104
 1852POPC   GL225346  28.229  15.981   9.092
 1852POPC   C1A25347  28.374  16.219   8.670
 1852POPC   D2A25348  28.356  15.875   8.429
 1852POPC   C3A25349  28.510  15.928   8.002
 1852POPC   C4A25350  28.506  16.200   7.643
 1852POPC   C1B25351  27.929  15.929   8.783
 1852POPC   C2B25352  27.860  15.728   8.443
 1852POPC   C3B25353  28.000  15.833   8.063
 1852POPC   C4B25354  28.123  15.844   7.666
 1853POPC   NC325355  24.772  24.572   9.458
 1853POPC   PO425356  24.151  24.235   9.504
 1853POPC   GL125357  24.365  24.440   9.191
 1853POPC   GL225358  24.114  24.600   9.075
 1853POPC   C1A25359  24.602  24.410   8.789
 1853POPC   D2A25360  24.784  24.514   8.397
 1853POPC   C3A25361  24.668  24.369   7.992
 1853POPC   C4A25362  24.472  24.661   7.712
 1853POPC   C1B25363  24.133  24.249   8.774
 1853POPC   C2B25364  24.251  24.365   8.383
 1853POPC   C3B25365  24.131  24.393   7.983
 1853POPC   C4B25366  24.291  24.083   7.724
 1854POPC   NC325367  10.821  23.552   9.495
 1854POPC   PO425368  10.235  23.612   9.369
 1854POPC   GL125369  10.517  23.688   9.082
 1854POPC   GL225370  10.638  23.354   9.074
 1854POPC   C1A25371  10.423  23.755   8.661
 1854POPC   D2A25372  10.318  23.799   8.240
 1854POPC   C3A25373  10.633  23.754   7.936
 1854POPC   C4A25374  10.650  23.995   7.582
 1854POPC   C1B25375  10.479  23.260   8.720
 1854POPC   C2B25376  10.636  23.395   8.352
 1854POPC   C3B25377  10.423  23.290   8.010
 1854POPC   C4B25378  10.460  23.412   7.580
 1855POPC   NC325379  34.716  26.399   9.345
 1855POPC   PO425380  34.474  26.981   9.566
 1855POPC   GL125381  34.571  26.852   9.141
 1855POPC   GL225382  34.361  26.540   9.006
 1855POPC   C1A25383  34.491  26.948   8.720
 1855POPC   D2A25384  34.380  26.782   8.352
 1855POPC   C3A25385  34.590  27.125   8.151
 1855POPC   C4A25386  34.568  27.131   7.743
 1855POPC   C1B25387  34.747  26.511   8.704
 1855POPC   C2B25388  34.885  26.734   8.334
 1855POPC   C3B25389  34.688  26.640   7.921
 1855POPC   C4B25390  34.657  26.363   7.553
 1856POPC   NC325391  20.747   3.896   9.199
 1856POPC   PO425392  20.815   3.418   9.636
 1856POPC   GL125393  20.805   3.363   9.224
 1856POPC   GL225394  20.457   3.289   9.183
 1856POPC   C1A25395  20.852   3.409   8.791
 1856POPC   D2A25396  20.665   3.347   8.380
 1856POPC   C3A25397  20.827   3.459   7.979
 1856POPC   C4A25398  20.678   3.131   7.693
 1856POPC   C1B25399  20.344   3.478   8.768
 1856POPC   C2B25400  20.187   3.529   8.328
 1856POPC   C3B25401  20.307   3.401   7.960
 1856POPC   C4B25402  20.307   3.588   7.591
 1857POPC   NC325403  23.929   8.465   9.498
 1857POPC   PO425404  23.959   7.798   9.618
 1857POPC   GL125405  23.890   8.011   9.191
 1857POPC   GL225406  23.951   8.364   9.007
 1857POPC   C1A25407  23.718   7.957   8.784
 1857POPC   D2A25408  23.812   8.188   8.421
 1857POPC   C3A25409  23.881   8.064   8.013
 1857POPC   C4A25410  23.808   8.137   7.566
 1857POPC   C1B25411  23.544   8.466   8.751
 1857POPC   C2B25412  23.419   8.559   8.282
 1857POPC   C3B25413  23.631   8.519   7.854
 1857POPC   C4B25414  23.457   8.478   7.402
 1858POPC   NC325415  33.947  27.603   9.426
 1858POPC   PO425416  33.264  27.662   9.260
 1858POPC   GL125417  33.610  27.604   9.041
 1858POPC   GL225418  33.667  27.284   9.106
 1858POPC   C1A25419  33.918  27.716   8.753
 1858POPC   D2A25420  33.749  27.819   8.364
 1858POPC   C3A25421  33.808  27.505   8.073
 1858POPC   C4A25422  33.477  27.574   7.812
 1858POPC   C1B25423  33.653  27.248   8.666
 1858POPC   C2B25424  33.637  27.008   8.303
 1858POPC   C3B25425  33.577  27.073   7.890
 1858POPC   C4B25426  33.575  27.223   7.473
 1859POPC   NC325427  21.628  41.410   9.465
 1859POPC   PO425428  21.035  41.818   9.488
 1859POPC   GL125429  21.234  41.595   9.197
 1859POPC   GL225430  21.150  41.235   9.216
 1859POPC   C1A25431  21.476  41.718   8.830
 1859POPC   D2A25432  21.707  41.840   8.428
 1859POPC   C3A25433  21.556  41.655   8.062
 1859POPC   C4A25434  21.369  41.575   7.649
 1859POPC   C1B25435  21.412  41.205   8.854
 1859POPC   C2B25436  21.575  41.162   8.462
 1859POPC   C3B25437  21.871  41.274   8.191
 1859POPC   C4B25438  21.753  41.246   7.769
 1860POPC   NC325439  24.416  35.898   9.544
 1860POPC   PO425440  24.872  36.235   9.203
 1860POPC   GL125441  24.492  36.107   9.025
 1860POPC   GL225442  24.166  35.916   9.034
 1860POPC   C1A25443  24.413  36.259   8.631
 1860POPC   D2A25444  24.720  36.386   8.344
 1860POPC   C3A25445  24.734  36.198   7.965
 1860POPC   C4A25446  24.402  36.318   7.715
 1860POPC   C1B25447  24.326  35.747   8.668
 1860POPC   C2B25448  24.444  35.892   8.265
 1860POPC   C3B25449  24.384  35.829   7.834
 1860POPC   C4B25450  24.232  35.735   7.440
 1861POPC   NC325451  27.797  38.462   9.609
 1861POPC   PO425452  27.679  37.984   9.235
 1861POPC   GL125453  27.590  38.376   9.088
 1861POPC   GL225454  27.550  38.702   9.173
 1861POPC   C1A25455  27.441  38.353   8.693
 1861POPC   D2A25456  27.460  38.453   8.270
 1861POPC   C3A25457  27.693  38.261   7.947
 1861POPC   C4A25458  27.937  38.078   7.620
 1861POPC   C1B25459  27.774  38.751   8.787
 1861POPC   C2B25460  27.980  38.734   8.382
 1861POPC   C3B25461  27.813  38.779   7.967
 1861POPC   C4B25462  27.402  38.661   7.807
 1862POPC   NC325463  41.604  28.859   9.642
 1862POPC   PO425464  41.691  29.487   9.419
 1862POPC   GL125465  41.445  29.259   9.138
 1862POPC   GL225466  41.637  28.969   9.145
 1862POPC   C1A25467  41.298  29.085   8.709
 1862POPC   D2A25468  41.302  29.178   8.250
 1862POPC   C3A25469  41.686  29.077   7.956
 1862POPC   C4A25470  41.972  29.281   7.654
 1862POPC   C1B25471  41.797  29.010   8.740
 1862POPC   C2B25472  41.598  28.775   8.387
 1862POPC   C3B25473  41.647  28.577   7.976
 1862POPC   C4B25474  41.567  28.740   7.566
 1863POPC   NC325475   8.971   1.397   9.510
 1863POPC   PO425476   9.194   0.772   9.649
 1863POPC   GL125477   8.923   0.813   9.271
 1863POPC   GL225478   9.143   1.086   9.152
 1863POPC   C1A25479   8.797   0.917   8.822
 1863POPC   D2A25480   8.810   1.135   8.428
 1863POPC   C3A25481   8.908   1.024   8.036
 1863POPC   C4A25482   8.846   1.207   7.648
 1863POPC   C1B25483   8.993   1.385   8.817
 1863POPC   C2B25484   9.049   1.599   8.428
 1863POPC   C3B25485   8.955   1.560   8.027
 1863POPC   C4B25486   9.173   1.596   7.656
 1864POPC   NC325487  18.308  43.492   9.307
 1864POPC   PO425488  18.097  42.903   9.469
 1864POPC   GL125489  18.287  43.010   9.083
 1864POPC   GL225490  18.631  43.175   9.099
 1864POPC   C1A25491  18.165  43.247   8.708
 1864POPC   D2A25492  18.279  43.434   8.337
 1864POPC   C3A25493  18.201  43.188   8.014
 1864POPC   C4A25494  18.383  43.202   7.589
 1864POPC   C1B25495  18.673  43.399   8.731
 1864POPC   C2B25496  18.782  43.312   8.328
 1864POPC   C3B25497  18.646  43.470   7.951
 1864POPC   C4B25498  18.615  43.662   7.579
 1865POPC   NC325499  36.279  35.274   9.438
 1865POPC   PO425500  35.757  35.542   9.726
 1865POPC   GL125501  35.815  35.463   9.232
 1865POPC   GL225502  36.151  35.530   9.044
 1865POPC   C1A25503  35.904  35.144   8.873
 1865POPC   D2A25504  36.148  35.128   8.480
 1865POPC   C3A25505  36.077  35.321   8.111
 1865POPC   C4A25506  35.969  35.246   7.701
 1865POPC   C1B25507  36.407  35.524   8.710
 1865POPC   C2B25508  36.580  35.395   8.339
 1865POPC   C3B25509  36.523  35.479   7.934
 1865POPC   C4B25510  36.334  35.589   7.592
 1866POPC   NC325511  36.339   5.772   9.173
 1866POPC   PO425512  35.804   5.352   9.336
 1866POPC   GL125513  35.865   5.616   8.948
 1866POPC   GL225514  35.913   5.937   8.997
 1866POPC   C1A25515  36.107   5.769   8.548
 1866POPC   D2A25516  36.192   5.558   8.142
 1866POPC   C3A25517  36.433   5.728   7.782
 1866POPC   C4A25518  36.380   6.127   7.510
 1866POPC   C1B25519  35.673   6.050   8.673
 1866POPC   C2B25520  35.823   6.106   8.290
 1866POPC   C3B25521  35.709   5.790   8.018
 1866POPC   C4B25522  35.972   5.894   7.773
 1867POPC   NC325523  33.839  36.590   9.555
 1867POPC   PO425524  33.870  37.233   9.548
 1867POPC   GL125525  33.643  36.972   9.230
 1867POPC   GL225526  33.361  36.689   9.265
 1867POPC   C1A25527  33.867  36.912   8.857
 1867POPC   D2A25528  34.118  37.044   8.526
 1867POPC   C3A25529  33.997  36.957   8.118
 1867POPC   C4A25530  33.797  37.128   7.795
 1867POPC   C1B25531  33.361  36.794   8.837
 1867POPC   C2B25532  33.503  37.076   8.532
 1867POPC   C3B25533  33.412  37.047   8.113
 1867POPC   C4B25534  33.424  36.702   7.830
 1868POPC   NC325535  19.909  40.070   9.713
 1868POPC   PO425536  19.258  40.081   9.764
 1868POPC   GL125537  19.535  39.964   9.335
 1868POPC   GL225538  19.908  40.051   9.187
 1868POPC   C1A25539  19.529  39.959   8.863
 1868POPC   D2A25540  19.623  40.269   8.525
 1868POPC   C3A25541  19.675  40.196   8.069
 1868POPC   C4A25542  19.474  40.129   7.681
 1868POPC   C1B25543  20.077  40.163   8.762
 1868POPC   C2B25544  20.122  40.019   8.310
 1868POPC   C3B25545  20.194  39.823   7.880
 1868POPC   C4B25546  20.301  39.634   7.437
 1869POPC   NC325547   0.234  44.315   9.399
 1869POPC   PO425548   0.646  43.820   9.565
 1869POPC   GL125549   0.534  43.693   9.123
 1869POPC   GL225550   0.316  43.958   9.037
 1869POPC   C1A25551   0.399  43.602   8.688
 1869POPC   D2A25552   0.229  43.888   8.382
 1869POPC   C3A25553   0.124  43.875   7.929
 1869POPC   C4A25554   0.289  44.175   7.655
 1869POPC   C1B25555   0.648  44.083   8.769
 1869POPC   C2B25556   0.813  44.226   8.395
 1869POPC   C3B25557   0.603  44.094   8.051
 1869POPC   C4B25558   0.721  43.904   7.680
 1870POPC   NC325559  41.039  44.122   9.282
 1870POPC   PO425560  40.610  43.754   9.501
 1870POPC   GL125561  40.624  43.893   9.034
 1870POPC   GL225562  40.672  44.226   8.905
 1870POPC   C1A25563  40.617  43.753   8.587
 1870POPC   D2A25564  40.784  43.919   8.181
 1870POPC   C3A25565  40.491  43.883   7.829
 1870POPC   C4A25566  40.559  43.683   7.423
 1870POPC   C1B25567  41.006  44.065   8.645
 1870POPC   C2B25568  41.213  44.186   8.297
 1870POPC   C3B25569  41.115  44.295   7.900
 1870POPC   C4B25570  41.169  44.275   7.484
 1871POPC   NC325571   0.866   3.025   9.468
 1871POPC   PO425572   1.282   3.503   9.448
 1871POPC   GL125573   1.411   3.758   9.098
 1871POPC   GL225574   1.741   3.678   9.082
 1871POPC   C1A25575   1.353   3.683   8.650
 1871POPC   D2A25576   1.043   3.456   8.416
 1871POPC   C3A25577   1.002   3.423   8.008
 1871POPC   C4A25578   1.161   3.754   7.743
 1871POPC   C1B25579   1.618   3.273   8.874
 1871POPC   C2B25580   1.507   3.208   8.456
 1871POPC   C3B25581   1.491   3.474   8.122
 1871POPC   C4B25582   1.398   3.264   7.719
 1872POPC   NC325583  24.059  41.733   9.608
 1872POPC   PO425584  23.405  41.950   9.462
 1872POPC   GL125585  23.719  41.724   9.212
 1872POPC   GL225586  24.060  41.839   9.120
 1872POPC   C1A25587  23.647  41.541   8.836
 1872POPC   D2A25588  23.778  41.316   8.496
 1872POPC   C3A25589  23.532  41.437   8.148
 1872POPC   C4A25590  23.622  41.390   7.716
 1872POPC   C1B25591  24.145  41.460   8.894
 1872POPC   C2B25592  24.291  41.511   8.470
 1872POPC   C3B25593  24.044  41.491   8.110
 1872POPC   C4B25594  23.853  41.790   7.896
 1873POPC   NC325595  26.131  21.897   9.582
 1873POPC   PO425596  25.907  21.256   9.670
 1873POPC   GL125597  25.987  21.301   9.110
 1873POPC   GL225598  26.212  21.620   9.068
 1873POPC   C1A25599  25.702  21.493   8.729
 1873POPC   D2A25600  25.736  21.688   8.283
 1873POPC   C3A25601  25.857  21.397   7.922
 1873POPC   C4A25602  26.132  21.044   7.825
 1873POPC   C1B25603  26.191  21.528   8.634
 1873POPC   C2B25604  26.276  21.684   8.241
 1873POPC   C3B25605  26.299  21.636   7.820
 1873POPC   C4B25606  26.149  21.460   7.452
 1874POPC   NC325607  43.486  34.788   9.499
 1874POPC   PO425608  42.750  34.725   9.463
 1874POPC   GL125609  42.959  34.477   9.162
 1874POPC   GL225610  43.265  34.490   9.127
 1874POPC   C1A25611  42.955  34.551   8.717
 1874POPC   D2A25612  43.150  34.720   8.355
 1874POPC   C3A25613  42.884  34.673   8.014
 1874POPC   C4A25614  42.872  34.528   7.630
 1874POPC   C1B25615  43.386  34.277   8.748
 1874POPC   C2B25616  43.172  34.182   8.369
 1874POPC   C3B25617  43.231  34.319   7.946
 1874POPC   C4B25618  43.382  34.422   7.525
 1875POPC   NC325619  19.075  42.112   9.489
 1875POPC   PO425620  18.746  42.708   9.480
 1875POPC   GL125621  18.862  42.399   9.115
 1875POPC   GL225622  19.240  42.347   9.069
 1875POPC   C1A25623  18.926  42.392   8.640
 1875POPC   D2A25624  18.711  42.265   8.266
 1875POPC   C3A25625  18.841  42.476   7.911
 1875POPC   C4A25626  19.109  42.467   7.536
 1875POPC   C1B25627  19.107  41.962   8.832
 1875POPC   C2B25628  19.242  42.049   8.393
 1875POPC   C3B25629  19.243  42.188   7.985
 1875POPC   C4B25630  19.114  41.972   7.622
 1876POPC   NC325631  42.815  40.476   9.459
 1876POPC   PO425632  43.157  41.033   9.444
 1876POPC   GL125633  43.315  40.875   9.096
 1876POPC   GL225634  43.223  40.539   9.113
 1876POPC   C1A25635  43.320  40.856   8.669
 1876POPC   D2A25636  43.053  40.732   8.359
 1876POPC   C3A25637  43.140  40.942   7.988
 1876POPC   C4A25638  43.150  40.928   7.503
 1876POPC   C1B25639  42.868  40.503   8.814
 1876POPC   C2B25640  42.610  40.494   8.446
 1876POPC   C3B25641  42.712  40.469   8.009
 1876POPC   C4B25642  42.748  40.610   7.593
 1877POPC   NC325643  13.629  28.584   9.464
 1877POPC   PO425644  13.954  27.995   9.313
 1877POPC   GL125645  13.693  28.237   9.078
 1877POPC   GL225646  13.392  28.419   9.040
 1877POPC   C1A25647  13.764  28.394   8.691
 1877POPC   D2A25648  13.629  28.551   8.351
 1877POPC   C3A25649  13.809  28.395   8.025
 1877POPC   C4A25650  13.681  28.545   7.636
 1877POPC   C1B25651  13.296  28.142   8.706
 1877POPC   C2B25652  13.416  28.103   8.275
 1877POPC   C3B25653  13.342  28.226   7.858
 1877POPC   C4B25654  13.242  27.986   7.482
 1878POPC   NC325655  25.754  23.165   9.387
 1878POPC   PO425656  26.376  23.022   9.435
 1878POPC   GL125657  26.186  22.842   9.103
 1878POPC   GL225658  25.949  22.607   9.258
 1878POPC   C1A25659  25.896  22.967   8.765
 1878POPC   D2A25660  25.942  23.139   8.323
 1878POPC   C3A25661  25.945  22.962   7.875
 1878POPC   C4A25662  26.257  23.036   7.513
 1878POPC   C1B25663  25.993  22.466   8.821
 1878POPC   C2B25664  26.063  22.634   8.415
 1878POPC   C3B25665  26.240  22.592   8.043
 1878POPC   C4B25666  26.411  22.571   7.656
 1879POPC   NC325667  23.370  41.440   9.451
 1879POPC   PO425668  22.715  41.673   9.338
 1879POPC   GL125669  22.821  41.528   8.963
 1879POPC   GL225670  23.150  41.400   8.994
 1879POPC   C1A25671  22.726  41.675   8.547
 1879POPC   D2A25672  23.023  41.800   8.223
 1879POPC   C3A25673  23.109  41.526   7.855
 1879POPC   C4A25674  23.259  41.706   7.452
 1879POPC   C1B25675  23.380  41.103   8.740
 1879POPC   C2B25676  23.350  40.965   8.337
 1879POPC   C3B25677  23.309  41.029   7.922
 1879POPC   C4B25678  23.223  41.179   7.484
 1880POPC   NC325679  12.693  36.133   9.493
 1880POPC   PO425680  12.254  35.600   9.504
 1880POPC   GL125681  12.450  35.810   9.122
 1880POPC   GL225682  12.593  36.170   9.014
 1880POPC   C1A25683  12.621  35.723   8.705
 1880POPC   D2A25684  12.724  35.561   8.300
 1880POPC   C3A25685  12.843  35.826   7.934
 1880POPC   C4A25686  13.019  35.782   7.520
 1880POPC   C1B25687  12.970  36.102   8.758
 1880POPC   C2B25688  13.074  36.064   8.321
 1880POPC   C3B25689  13.020  36.357   7.946
 1880POPC   C4B25690  12.938  36.663   7.587
 1881POPC   NC325691  21.663   5.544   9.538
 1881POPC   PO425692  21.152   5.960   9.538
 1881POPC   GL125693  21.294   5.698   9.174
 1881POPC   GL225694  21.628   5.811   9.045
 1881POPC   C1A25695  21.150   5.586   8.754
 1881POPC   D2A25696  21.215   5.555   8.289
 1881POPC   C3A25697  21.010   5.912   8.041
 1881POPC   C4A25698  21.060   6.221   7.719
 1881POPC   C1B25699  21.564   5.889   8.585
 1881POPC   C2B25700  21.691   5.688   8.198
 1881POPC   C3B25701  21.469   5.838   7.834
 1881POPC   C4B25702  21.550   6.165   7.545
 1882POPC   NC325703  28.480   7.689   9.943
 1882POPC   PO425704  28.310   7.024   9.719
 1882POPC   GL125705  28.228   7.167   9.251
 1882POPC   GL225706  28.396   7.490   9.208
 1882POPC   C1A25707  28.076   7.409   8.842
 1882POPC   D2A25708  28.224   7.521   8.430
 1882POPC   C3A25709  28.042   7.346   8.062
 1882POPC   C4A25710  28.084   7.664   7.744
 1882POPC   C1B25711  28.607   7.425   8.759
 1882POPC   C2B25712  28.734   7.530   8.313
 1882POPC   C3B25713  28.533   7.451   7.886
 1882POPC   C4B25714  28.620   7.310   7.406
 1883POPC   NC325715  33.097  37.700   9.699
 1883POPC   PO425716  32.594  37.936   9.317
 1883POPC   GL125717  32.837  37.755   9.025
 1883POPC   GL225718  33.076  37.563   9.209
 1883POPC   C1A25719  32.862  37.659   8.603
 1883POPC   D2A25720  33.041  37.956   8.334
 1883POPC   C3A25721  32.909  37.815   7.933
 1883POPC   C4A25722  33.016  37.936   7.558
 1883POPC   C1B25723  33.304  37.690   8.842
 1883POPC   C2B25724  33.374  37.557   8.440
 1883POPC   C3B25725  33.382  37.699   8.047
 1883POPC   C4B25726  33.290  37.473   7.708
 1884POPC   NC325727   3.417   6.854   9.441
 1884POPC   PO425728   3.886   6.314   9.645
 1884POPC   GL125729   3.723   6.351   9.241
 1884POPC   GL225730   3.351   6.428   9.154
 1884POPC   C1A25731   3.676   6.227   8.826
 1884POPC   D2A25732   3.418   6.406   8.558
 1884POPC   C3A25733   3.515   6.383   8.138
 1884POPC   C4A25734   3.747   6.718   7.966
 1884POPC   C1B25735   3.171   6.758   8.838
 1884POPC   C2B25736   2.963   7.005   8.528
 1884POPC   C3B25737   3.015   6.993   8.066
 1884POPC   C4B25738   3.227   6.672   7.812
 1885POPC   NC325739  11.917   4.949   9.559
 1885POPC   PO425740  12.296   5.504   9.621
 1885POPC   GL125741  11.976   5.361   9.259
 1885POPC   GL225742  12.124   5.024   9.117
 1885POPC   C1A25743  11.943   5.306   8.771
 1885POPC   D2A25744  12.275   5.287   8.474
 1885POPC   C3A25745  12.026   5.368   8.126
 1885POPC   C4A25746  12.164   5.388   7.736
 1885POPC   C1B25747  12.169   4.820   8.734
 1885POPC   C2B25748  12.043   4.856   8.300
 1885POPC   C3B25749  12.172   4.893   7.866
 1885POPC   C4B25750  11.969   4.768   7.494
 1886POPC   NC325751  33.163  35.172   9.745
 1886POPC   PO425752  32.599  35.382   9.493
 1886POPC   GL125753  32.960  35.247   9.225
 1886POPC   GL225754  33.325  35.121   9.252
 1886POPC   C1A25755  33.134  35.463   8.866
 1886POPC   D2A25756  32.987  35.555   8.448
 1886POPC   C3A25757  32.856  35.629   8.029
 1886POPC   C4A25758  33.137  35.738   7.714
 1886POPC   C1B25759  33.157  34.937   8.846
 1886POPC   C2B25760  33.106  35.041   8.415
 1886POPC   C3B25761  33.235  35.299   8.075
 1886POPC   C4B25762  33.308  35.156   7.692
 1887POPC   NC325763   6.453  16.355   9.415
 1887POPC   PO425764   6.707  16.899   9.610
 1887POPC   GL125765   6.749  16.720   9.168
 1887POPC   GL225766   6.594  16.441   8.951
 1887POPC   C1A25767   6.985  16.681   8.779
 1887POPC   D2A25768   6.809  16.457   8.421
 1887POPC   C3A25769   6.765  16.733   8.112
 1887POPC   C4A25770   6.879  16.839   7.738
 1887POPC   C1B25771   6.484  16.786   8.690
 1887POPC   C2B25772   6.300  16.713   8.299
 1887POPC   C3B25773   6.375  16.342   8.032
 1887POPC   C4B25774   6.695  16.350   7.731
 1888POPC   NC325775   7.273  43.655   9.429
 1888POPC   PO425776   7.687  44.185   9.578
 1888POPC   GL125777   7.426  44.068   9.192
 1888POPC   GL225778   7.523  43.761   8.996
 1888POPC   C1A25779   7.146  44.029   8.804
 1888POPC   D2A25780   7.016  43.753   8.461
 1888POPC   C3A25781   7.319  43.769   8.149
 1888POPC   C4A25782   7.488  43.845   7.756
 1888POPC   C1B25783   7.669  44.139   8.752
 1888POPC   C2B25784   7.837  44.338   8.344
 1888POPC   C3B25785   7.750  44.282   7.919
 1888POPC   C4B25786   7.871  44.102   7.509
 1889POPC   NC325787   0.640  27.413   9.358
 1889POPC   PO425788   0.062  27.648   9.421
 1889POPC   GL125789   0.309  27.687   9.063
 1889POPC   GL225790   0.566  27.893   9.022
 1889POPC   C1A25791   0.382  27.683   8.610
 1889POPC   D2A25792   0.615  27.534   8.304
 1889POPC   C3A25793   0.461  27.204   8.100
 1889POPC   C4A25794   0.549  27.447   7.741
 1889POPC   C1B25795   0.119  28.064   8.812
 1889POPC   C2B25796  44.949  27.903   8.414
 1889POPC   C3B25797   0.248  27.883   8.066
 1889POPC   C4B25798   0.237  27.818   7.611
 1890POPC   NC325799  26.126  34.455   9.415
 1890POPC   PO425800  25.903  35.025   9.550
 1890POPC   GL125801  25.647  34.800   9.232
 1890POPC   GL225802  25.868  34.629   9.015
 1890POPC   C1A25803  25.584  34.934   8.751
 1890POPC   D2A25804  25.875  34.817   8.428
 1890POPC   C3A25805  25.827  34.776   7.974
 1890POPC   C4A25806  25.964  34.917   7.573
 1890POPC   C1B25807  26.087  34.424   8.677
 1890POPC   C2B25808  26.288  34.536   8.266
 1890POPC   C3B25809  26.227  34.494   7.840
 1890POPC   C4B25810  25.904  34.220   7.752
 1891POPC   NC325811  31.220   8.044   9.264
 1891POPC   PO425812  31.636   8.263   9.753
 1891POPC   GL125813  31.599   8.405   9.279
 1891POPC   GL225814  31.850   8.230   9.166
 1891POPC   C1A25815  31.566   8.307   8.771
 1891POPC   D2A25816  31.280   8.178   8.484
 1891POPC   C3A25817  31.396   8.214   8.077
 1891POPC   C4A25818  31.303   7.903   7.772
 1891POPC   C1B25819  32.031   8.130   8.764
 1891POPC   C2B25820  31.898   8.455   8.431
 1891POPC   C3B25821  31.922   8.362   8.040
 1891POPC   C4B25822  31.731   8.160   7.704
 1892POPC   NC325823   3.416   6.176   9.704
 1892POPC   PO425824   2.978   6.651   9.435
 1892POPC   GL125825   2.739   6.528   9.084
 1892POPC   GL225826   2.382   6.614   9.057
 1892POPC   C1A25827   2.726   6.571   8.658
 1892POPC   D2A25828   3.010   6.542   8.296
 1892POPC   C3A25829   2.894   6.307   7.949
 1892POPC   C4A25830   2.598   6.340   7.600
 1892POPC   C1B25831   2.213   6.611   8.602
 1892POPC   C2B25832   2.477   6.512   8.234
 1892POPC   C3B25833   2.612   6.721   7.918
 1892POPC   C4B25834   2.212   6.643   7.762
 1893POPC   NC325835   8.160  43.389   9.386
 1893POPC   PO425836   8.528  42.890   9.470
 1893POPC   GL125837   8.459  43.076   9.099
 1893POPC   GL225838   8.440  43.442   8.977
 1893POPC   C1A25839   8.442  42.835   8.754
 1893POPC   D2A25840   8.176  42.756   8.420
 1893POPC   C3A25841   8.180  42.909   8.066
 1893POPC   C4A25842   8.355  42.900   7.673
 1893POPC   C1B25843   8.084  43.207   8.754
 1893POPC   C2B25844   8.034  43.343   8.357
 1893POPC   C3B25845   8.241  43.405   7.980
 1893POPC   C4B25846   8.407  43.385   7.580
 1894POPC   NC325847  32.554  27.288   9.501
 1894POPC   PO425848  31.833  27.413   9.542
 1894POPC   GL125849  32.135  27.660   9.282
 1894POPC   GL225850  32.192  27.364   9.111
 1894POPC   C1A25851  32.319  27.791   8.857
 1894POPC   D2A25852  32.360  27.596   8.433
 1894POPC   C3A25853  32.113  27.327   8.173
 1894POPC   C4A25854  32.169  27.512   7.778
 1894POPC   C1B25855  32.475  27.249   8.784
 1894POPC   C2B25856  32.551  27.103   8.354
 1894POPC   C3B25857  32.625  27.345   7.979
 1894POPC   C4B25858  32.607  27.369   7.493
 1895POPC   NC325859  34.617   5.484   9.632
 1895POPC   PO425860  34.135   5.067   9.502
 1895POPC   GL125861  34.416   5.255   9.198
 1895POPC   GL225862  34.460   4.947   9.046
 1895POPC   C1A25863  34.579   5.347   8.750
 1895POPC   D2A25864  34.471   5.371   8.287
 1895POPC   C3A25865  34.810   5.414   7.983
 1895POPC   C4A25866  35.060   5.056   7.841
 1895POPC   C1B25867  34.761   4.854   8.717
 1895POPC   C2B25868  34.778   4.966   8.305
 1895POPC   C3B25869  34.560   4.957   7.955
 1895POPC   C4B25870  34.493   4.666   7.661
 1896POPC   NC325871   5.592  44.080   9.444
 1896POPC   PO425872   6.112  43.702   9.764
 1896POPC   GL125873   5.973  43.636   9.257
 1896POPC   GL225874   5.887  43.961   9.082
 1896POPC   C1A25875   5.933  43.607   8.741
 1896POPC   D2A25876   5.775  43.860   8.374
 1896POPC   C3A25877   5.855  43.784   7.939
 1896POPC   C4A25878   6.142  43.871   7.605
 1896POPC   C1B25879   5.588  44.135   8.768
 1896POPC   C2B25880   5.392  44.195   8.376
 1896POPC   C3B25881   5.509  44.178   7.927
 1896POPC   C4B25882   5.584  44.007   7.496
 1897POPC   NC325883   8.883  25.185   9.565
 1897POPC   PO425884   9.085  25.777   9.464
 1897POPC   GL125885   9.026  25.663   9.032
 1897POPC   GL225886   8.845  25.369   9.095
 1897POPC   C1A25887   8.932  25.546   8.592
 1897POPC   D2A25888   9.007  25.207   8.287
 1897POPC   C3A25889   9.240  25.273   7.901
 1897POPC   C4A25890   9.195  25.042   7.534
 1897POPC   C1B25891   8.773  25.060   8.792
 1897POPC   C2B25892   8.526  25.203   8.483
 1897POPC   C3B25893   8.581  25.452   8.128
 1897POPC   C4B25894   8.743  25.267   7.772
 1898POPC   NC325895  13.847  44.891   9.418
 1898POPC   PO425896  13.378  44.446   9.591
 1898POPC   GL125897  13.467  44.609   9.164
 1898POPC   GL225898  13.779  44.529   9.098
 1898POPC   C1A25899  13.465  44.648   8.716
 1898POPC   D2A25900  13.582  44.920   8.412
 1898POPC   C3A25901  13.426  44.682   8.079
 1898POPC   C4A25902  13.524  44.786   7.677
 1898POPC   C1B25903  13.961  44.673   8.765
 1898POPC   C2B25904  13.954  44.530   8.389
 1898POPC   C3B25905  13.929  44.706   8.016
 1898POPC   C4B25906  14.055  44.585   7.683
 1899POPC   NC325907  29.581  39.738   9.515
 1899POPC   PO425908  30.160  40.088   9.545
 1899POPC   GL125909  29.925  40.085   9.180
 1899POPC   GL225910  29.617  40.191   9.234
 1899POPC   C1A25911  30.070  39.989   8.776
 1899POPC   D2A25912  30.109  39.778   8.382
 1899POPC   C3A25913  30.053  40.003   8.029
 1899POPC   C4A25914  30.191  39.961   7.646
 1899POPC   C1B25915  29.580  39.871   8.869
 1899POPC   C2B25916  29.610  39.893   8.406
 1899POPC   C3B25917  29.572  40.189   8.051
 1899POPC   C4B25918  29.663  39.997   7.641
 1900POPC   NC325919  10.153   0.227   9.283
 1900POPC   PO425920  10.684   0.243   9.674
 1900POPC   GL125921  10.602   0.447   9.231
 1900POPC   GL225922  10.344   0.684   9.115
 1900POPC   C1A25923  10.506   0.307   8.770
 1900POPC   D2A25924  10.517   0.390   8.347
 1900POPC   C3A25925  10.279   0.207   8.057
 1900POPC   C4A25926  10.271   0.351   7.661
 1900POPC   C1B25927  10.399   0.821   8.714
 1900POPC   C2B25928  10.143   0.744   8.369
 1900POPC   C3B25929  10.221   0.766   7.932
 1900POPC   C4B25930  10.150   0.813   7.442
 1901POPC   NC325931  25.750  37.850   9.535
 1901POPC   PO425932  26.175  37.414   9.494
 1901POPC   GL125933  25.952  37.540   9.126
 1901POPC   GL225934  26.004  37.912   9.101
 1901POPC   C1A25935  26.172  37.591   8.727
 1901POPC   D2A25936  26.206  37.898   8.378
 1901POPC   C3A25937  26.255  37.673   7.992
 1901POPC   C4A25938  25.962  37.434   7.667
 1901POPC   C1B25939  25.765  37.904   8.739
 1901POPC   C2B25940  25.746  37.645   8.386
 1901POPC   C3B25941  25.769  37.795   7.986
 1901POPC   C4B25942  25.940  37.942   7.596
 1902POPC   NC325943  25.440   6.270   9.530
 1902POPC   PO425944  25.328   5.651   9.519
 1902POPC   GL125945  25.314   5.933   9.158
 1902POPC   GL225946  25.053   6.224   9.156
 1902POPC   C1A25947  25.305   6.082   8.750
 1902POPC   D2A25948  25.141   5.991   8.344
 1902POPC   C3A25949  25.387   5.934   7.956
 1902POPC   C4A25950  25.443   5.593   7.678
 1902POPC   C1B25951  24.842   6.280   8.735
 1902POPC   C2B25952  24.695   6.235   8.270
 1902POPC   C3B25953  24.882   6.015   7.879
 1902POPC   C4B25954  25.210   6.229   7.558
 1903POPC   NC325955   9.883  22.229   9.662
 1903POPC   PO425956   9.234  22.179   9.559
 1903POPC   GL125957   9.555  22.034   9.208
 1903POPC   GL225958   9.965  22.011   9.171
 1903POPC   C1A25959   9.628  22.121   8.771
 1903POPC   D2A25960   9.382  22.376   8.487
 1903POPC   C3A25961   9.557  22.439   8.097
 1903POPC   C4A25962   9.480  22.067   7.923
 1903POPC   C1B25963  10.133  21.995   8.703
 1903POPC   C2B25964   9.964  22.207   8.307
 1903POPC   C3B25965   9.984  22.178   7.834
 1903POPC   C4B25966  10.152  22.110   7.381
 1904POPC   NC325967   9.577  29.770   9.414
 1904POPC   PO425968   9.757  30.474   9.467
 1904POPC   GL125969   9.677  30.205   9.142
 1904POPC   GL225970   9.966  29.933   9.140
 1904POPC   C1A25971   9.746  30.122   8.721
 1904POPC   D2A25972   9.965  30.238   8.363
 1904POPC   C3A25973   9.989  29.975   8.028
 1904POPC   C4A25974   9.803  30.147   7.676
 1904POPC   C1B25975   9.961  29.641   8.773
 1904POPC   C2B25976   9.721  29.682   8.376
 1904POPC   C3B25977   9.508  29.813   7.989
 1904POPC   C4B25978   9.822  29.630   7.671
 1905POPC   NC325979  29.324  23.914   9.567
 1905POPC   PO425980  29.165  23.281   9.445
 1905POPC   GL125981  29.239  23.597   9.120
 1905POPC   GL225982  28.942  23.781   9.216
 1905POPC   C1A25983  29.111  23.627   8.657
 1905POPC   D2A25984  29.279  23.857   8.278
 1905POPC   C3A25985  29.252  23.722   7.845
 1905POPC   C4A25986  29.401  23.598   7.442
 1905POPC   C1B25987  28.677  23.791   8.866
 1905POPC   C2B25988  28.603  23.785   8.445
 1905POPC   C3B25989  28.833  23.636   8.116
 1905POPC   C4B25990  28.732  23.588   7.689
 1906POPC   NC325991  26.348  27.820   9.364
 1906POPC   PO425992  26.950  27.435   9.558
 1906POPC   GL125993  26.742  27.493   9.189
 1906POPC   GL225994  26.958  27.774   9.094
 1906POPC   C1A25995  26.639  27.501   8.754
 1906POPC   D2A25996  26.854  27.591   8.383
 1906POPC   C3A25997  26.689  27.516   8.005
 1906POPC   C4A25998  27.035  27.710   7.809
 1906POPC   C1B25999  26.850  27.979   8.720
 1906POPC   C2B26000  26.465  27.920   8.486
 1906POPC   C3B26001  26.375  28.010   8.076
 1906POPC   C4B26002  26.576  27.918   7.688
 1907POPC   NC326003  23.938   0.764   9.382
 1907POPC   PO426004  23.611   1.294   9.587
 1907POPC   GL126005  23.724   1.189   9.184
 1907POPC   GL226006  23.510   0.903   9.148
 1907POPC   C1A26007  23.962   1.311   8.822
 1907POPC   D2A26008  23.939   1.199   8.401
 1907POPC   C3A26009  23.888   1.478   8.063
 1907POPC   C4A26010  23.752   1.290   7.675
 1907POPC   C1B26011  23.324   0.724   8.818
 1907POPC   C2B26012  23.385   0.944   8.453
 1907POPC   C3B26013  23.567   1.037   8.073
 1907POPC   C4B26014  23.405   0.935   7.660
 1908POPC   NC326015  27.178  25.004   9.418
 1908POPC   PO426016  26.505  24.885   9.388
 1908POPC   GL126017  26.741  25.179   9.110
 1908POPC   GL226018  27.094  25.260   8.999
 1908POPC   C1A26019  26.717  25.087   8.708
 1908POPC   D2A26020  26.501  25.151   8.365
 1908POPC   C3A26021  26.728  25.267   8.054
 1908POPC   C4A26022  26.710  25.046   7.700
 1908POPC   C1B26023  27.122  25.622   8.749
 1908POPC   C2B26024  26.887  25.676   8.399
 1908POPC   C3B26025  27.028  25.684   7.995
 1908POPC   C4B26026  26.747  25.615   7.654
 1909POPC   NC326027  16.396  39.982   9.490
 1909POPC   PO426028  16.993  40.229   9.782
 1909POPC   GL126029  16.904  40.129   9.333
 1909POPC   GL226030  17.137  40.388   9.284
 1909POPC   C1A26031  16.726  40.026   8.873
 1909POPC   D2A26032  16.523  40.031   8.419
 1909POPC   C3A26033  16.656  39.800   8.034
 1909POPC   C4A26034  16.670  39.893   7.592
 1909POPC   C1B26035  17.045  40.441   8.852
 1909POPC   C2B26036  16.996  40.243   8.446
 1909POPC   C3B26037  16.852  40.302   8.013
 1909POPC   C4B26038  17.115  40.197   7.661
 1910POPC   NC326039  16.109  29.712   9.627
 1910POPC   PO426040  16.174  30.213   9.240
 1910POPC   GL126041  16.029  29.934   9.034
 1910POPC   GL226042  15.750  29.846   9.223
 1910POPC   C1A26043  16.038  29.964   8.624
 1910POPC   D2A26044  16.037  29.781   8.278
 1910POPC   C3A26045  15.996  30.060   7.967
 1910POPC   C4A26046  16.257  30.209   7.660
 1910POPC   C1B26047  15.667  29.571   8.862
 1910POPC   C2B26048  15.720  29.384   8.431
 1910POPC   C3B26049  15.529  29.528   8.049
 1910POPC   C4B26050  15.692  29.728   7.708
 1911POPC   NC326051  42.127  12.779   9.832
 1911POPC   PO426052  42.666  12.863   9.390
 1911POPC   GL126053  42.533  13.075   9.039
 1911POPC   GL226054  42.205  13.161   9.033
 1911POPC   C1A26055  42.622  12.998   8.639
 1911POPC   D2A26056  42.461  12.769   8.328
 1911POPC   C3A26057  42.614  12.879   7.954
 1911POPC   C4A26058  42.345  12.688   7.698
 1911POPC   C1B26059  42.102  13.042   8.671
 1911POPC   C2B26060  42.235  13.246   8.356
 1911POPC   C3B26061  42.147  13.062   8.013
 1911POPC   C4B26062  42.157  13.175   7.630
 1912POPC   NC326063  26.730   0.676   9.516
 1912POPC   PO426064  26.683  44.932   9.466
 1912POPC   GL126065  26.618   0.282   9.186
 1912POPC   GL226066  26.942   0.370   9.137
 1912POPC   C1A26067  26.621   0.550   8.803
 1912POPC   D2A26068  26.590   0.334   8.389
 1912POPC   C3A26069  26.758   0.510   7.998
 1912POPC   C4A26070  26.546   0.746   7.712
 1912POPC   C1B26071  27.145   0.506   8.741
 1912POPC   C2B26072  27.339   0.607   8.372
 1912POPC   C3B26073  27.243   0.608   7.931
 1912POPC   C4B26074  27.178   0.379   7.546
 1913POPC   NC326075  34.811   0.893   9.377
 1913POPC   PO426076  34.534   0.395   9.724
 1913POPC   GL126077  34.515   0.343   9.229
 1913POPC   GL226078  34.691   0.069   9.048
 1913POPC   C1A26079  34.555   0.449   8.753
 1913POPC   D2A26080  34.574   0.511   8.298
 1913POPC   C3A26081  34.483   0.180   7.994
 1913POPC   C4A26082  34.514   0.498   7.664
 1913POPC   C1B26083  35.029   0.154   8.749
 1913POPC   C2B26084  35.052   0.375   8.341
 1913POPC   C3B26085  34.959   0.312   7.895
 1913POPC   C4B26086  34.900   0.252   7.422
 1914POPC   NC326087  24.636   6.401   9.414
 1914POPC   PO426088  24.249   6.925   9.407
 1914POPC   GL126089  24.452   6.709   9.058
 1914POPC   GL226090  24.841   6.715   9.055
 1914POPC   C1A26091  24.497   6.634   8.633
 1914POPC   D2A26092  24.556   6.843   8.271
 1914POPC   C3A26093  24.464   6.644   7.913
 1914POPC   C4A26094  24.789   6.472   7.711
 1914POPC   C1B26095  24.842   7.008   8.712
 1914POPC   C2B26096  24.986   7.139   8.301
 1914POPC   C3B26097  24.854   7.067   7.898
 1914POPC   C4B26098  24.713   6.943   7.520
 1915POPC   NC326099   3.216  42.549   9.401
 1915POPC   PO426100   3.821  42.735   9.430
 1915POPC   GL126101   3.680  42.476   9.099
 1915POPC   GL226102   3.584  42.120   9.084
 1915POPC   C1A26103   3.772  42.347   8.673
 1915POPC   D2A26104   3.901  42.421   8.279
 1915POPC   C3A26105   3.689  42.141   8.036
 1915POPC   C4A26106   3.651  42.316   7.685
 1915POPC   C1B26107   3.274  42.352   8.784
 1915POPC   C2B26108   3.351  42.490   8.360
 1915POPC   C3B26109   3.213  42.431   7.934
 1915POPC   C4B26110   3.244  42.008   7.750
 1916POPC   NC326111  37.481  19.575   9.538
 1916POPC   PO426112  37.855  19.087   9.421
 1916POPC   GL126113  37.749  19.397   9.109
 1916POPC   GL226114  37.382  19.346   9.104
 1916POPC   C1A26115  37.644  19.313   8.655
 1916POPC   D2A26116  37.681  18.909   8.442
 1916POPC   C3A26117  37.524  18.760   8.042
 1916POPC   C4A26118  37.750  18.792   7.643
 1916POPC   C1B26119  37.130  19.457   8.758
 1916POPC   C2B26120  37.187  19.225   8.395
 1916POPC   C3B26121  37.456  19.273   8.062
 1916POPC   C4B26122  37.656  19.337   7.646
 1917POPC   NC326123  41.042  18.443   9.394
 1917POPC   PO426124  40.466  18.396   9.621
 1917POPC   GL126125  40.549  18.433   9.151
 1917POPC   GL226126  40.820  18.210   9.005
 1917POPC   C1A26127  40.462  18.389   8.689
 1917POPC   D2A26128  40.359  18.570   8.307
 1917POPC   C3A26129  40.677  18.516   8.037
 1917POPC   C4A26130  40.750  18.254   7.696
 1917POPC   C1B26131  40.778  17.984   8.606
 1917POPC   C2B26132  40.877  18.050   8.158
 1917POPC   C3B26133  40.951  17.763   7.817
 1917POPC   C4B26134  41.028  17.621   7.378
 1918POPC   NC326135   0.684  36.213   9.483
 1918POPC   PO426136   0.142  35.923   9.494
 1918POPC   GL126137   0.374  36.031   9.134
 1918POPC   GL226138   0.676  35.815   9.122
 1918POPC   C1A26139   0.287  36.282   8.796
 1918POPC   D2A26140   0.228  36.399   8.372
 1918POPC   C3A26141   0.350  36.105   8.066
 1918POPC   C4A26142   0.321  36.322   7.686
 1918POPC   C1B26143   0.565  35.836   8.683
 1918POPC   C2B26144   0.746  35.708   8.314
 1918POPC   C3B26145   1.004  35.896   8.002
 1918POPC   C4B26146   0.728  36.013   7.680
 1919POPC   NC326147   5.501  26.545   9.319
 1919POPC   PO426148   5.994  26.096   9.533
 1919POPC   GL126149   5.863  26.201   9.139
 1919POPC   GL226150   6.010  26.549   9.160
 1919POPC   C1A26151   5.805  25.976   8.738
 1919POPC   D2A26152   5.909  25.709   8.373
 1919POPC   C3A26153   5.810  25.911   7.964
 1919POPC   C4A26154   5.877  26.124   7.575
 1919POPC   C1B26155   6.197  26.346   8.785
 1919POPC   C2B26156   6.106  26.191   8.384
 1919POPC   C3B26157   6.115  26.355   7.974
 1919POPC   C4B26158   6.305  26.476   7.588
 1920POPC   NC326159   3.752  16.119   9.499
 1920POPC   PO426160   3.065  16.046   9.465
 1920POPC   GL126161   3.400  15.852   9.158
 1920POPC   GL226162   3.744  15.694   9.232
 1920POPC   C1A26163   3.513  16.057   8.752
 1920POPC   D2A26164   3.195  16.197   8.431
 1920POPC   C3A26165   3.291  16.298   8.008
 1920POPC   C4A26166   3.454  16.161   7.561
 1920POPC   C1B26167   3.723  15.583   8.770
 1920POPC   C2B26168   3.845  15.857   8.399
 1920POPC   C3B26169   3.650  15.928   7.980
 1920POPC   C4B26170   3.621  15.665   7.570
 1921POPC   NC326171   8.856  11.510   9.559
 1921POPC   PO426172   9.473  11.462   9.241
 1921POPC   GL126173   9.066  11.268   9.086
 1921POPC   GL226174   8.691  11.151   9.219
 1921POPC   C1A26175   9.179  11.275   8.647
 1921POPC   D2A26176   9.444  11.496   8.345
 1921POPC   C3A26177   9.200  11.473   7.986
 1921POPC   C4A26178   9.170  11.070   7.780
 1921POPC   C1B26179   8.664  11.090   8.773
 1921POPC   C2B26180   8.745  11.322   8.380
 1921POPC   C3B26181   8.729  11.210   7.983
 1921POPC   C4B26182   8.715  11.219   7.549
 1922POPC   NC326183   3.205  32.821   9.311
 1922POPC   PO426184   2.927  32.256   9.504
 1922POPC   GL126185   2.766  32.102   9.137
 1922POPC   GL226186   2.793  32.420   9.044
 1922POPC   C1A26187   2.884  32.020   8.719
 1922POPC   D2A26188   2.633  32.074   8.371
 1922POPC   C3A26189   2.846  31.971   8.050
 1922POPC   C4A26190   2.866  32.028   7.634
 1922POPC   C1B26191   2.653  32.497   8.671
 1922POPC   C2B26192   2.736  32.628   8.296
 1922POPC   C3B26193   2.836  32.468   7.963
 1922POPC   C4B26194   2.853  32.543   7.578
 1923POPC   NC326195   4.603  10.032   9.439
 1923POPC   PO426196   4.148   9.490   9.456
 1923POPC   GL126197   4.252   9.758   9.164
 1923POPC   GL226198   4.580   9.641   9.091
 1923POPC   C1A26199   4.157   9.975   8.802
 1923POPC   D2A26200   4.244   9.876   8.382
 1923POPC   C3A26201   4.156   9.983   7.974
 1923POPC   C4A26202   4.147   9.584   7.723
 1923POPC   C1B26203   4.466   9.563   8.726
 1923POPC   C2B26204   4.658   9.578   8.368
 1923POPC   C3B26205   4.560   9.661   7.964
 1923POPC   C4B26206   4.685   9.638   7.535
 1924POPC   NC326207   8.076  43.975   9.680
 1924POPC   PO426208   8.573  43.645   9.440
 1924POPC   GL126209   8.319  43.922   9.217
 1924POPC   GL226210   7.967  43.874   9.202
 1924POPC   C1A26211   8.362  44.109   8.828
 1924POPC   D2A26212   8.263  44.009   8.403
 1924POPC   C3A26213   8.484  43.862   8.025
 1924POPC   C4A26214   8.340  43.891   7.590
 1924POPC   C1B26215   7.987  43.721   8.775
 1924POPC   C2B26216   7.797  43.825   8.365
 1924POPC   C3B26217   7.968  43.838   7.976
 1924POPC   C4B26218   7.928  43.604   7.612
 1925POPC   NC326219  36.528  36.116   9.486
 1925POPC   PO426220  37.058  35.600   9.437
 1925POPC   GL126221  36.861  35.889   9.107
 1925POPC   GL226222  36.508  35.890   9.052
 1925POPC   C1A26223  36.848  36.225   8.802
 1925POPC   D2A26224  37.070  36.236   8.411
 1925POPC   C3A26225  36.917  36.351   8.034
 1925POPC   C4A26226  37.206  36.378   7.727
 1925POPC   C1B26227  36.330  36.037   8.700
 1925POPC   C2B26228  36.539  36.175   8.374
 1925POPC   C3B26229  36.761  35.872   8.178
 1925POPC   C4B26230  36.634  35.985   7.805
 1926POPC   NC326231   4.192  34.751   9.287
 1926POPC   PO426232   4.611  34.521   9.741
 1926POPC   GL126233   4.558  34.339   9.250
 1926POPC   GL226234   4.194  34.242   9.150
 1926POPC   C1A26235   4.513  34.479   8.776
 1926POPC   D2A26236   4.270  34.746   8.489
 1926POPC   C3A26237   4.349  34.672   8.063
 1926POPC   C4A26238   4.636  34.488   7.806
 1926POPC   C1B26239   3.999  34.411   8.776
 1926POPC   C2B26240   3.824  34.399   8.388
 1926POPC   C3B26241   3.928  34.354   7.973
 1926POPC   C4B26242   4.032  34.625   7.677
 1927POPC   NC326243  29.735  14.774   9.593
 1927POPC   PO426244  29.887  14.061   9.557
 1927POPC   GL126245  29.849  14.323   9.218
 1927POPC   GL226246  30.055  14.600   9.172
 1927POPC   C1A26247  29.688  14.426   8.846
 1927POPC   D2A26248  29.752  14.310   8.420
 1927POPC   C3A26249  29.569  14.527   8.076
 1927POPC   C4A26250  29.744  14.451   7.682
 1927POPC   C1B26251  30.102  14.684   8.702
 1927POPC   C2B26252  30.113  14.678   8.231
 1927POPC   C3B26253  30.098  14.825   7.794
 1927POPC   C4B26254  29.935  14.797   7.365
 1928POPC   NC326255  43.176   1.390   9.661
 1928POPC   PO426256  43.301   2.036   9.434
 1928POPC   GL126257  43.153   2.133   9.053
 1928POPC   GL226258  42.929   2.400   9.167
 1928POPC   C1A26259  43.004   2.108   8.681
 1928POPC   D2A26260  43.190   2.181   8.339
 1928POPC   C3A26261  43.226   1.862   8.079
 1928POPC   C4A26262  43.272   1.961   7.684
 1928POPC   C1B26263  42.728   2.537   8.780
 1928POPC   C2B26264  42.749   2.439   8.330
 1928POPC   C3B26265  42.888   2.261   7.932
 1928POPC   C4B26266  42.797   2.084   7.512
 1929POPC   NC326267   7.845  37.767   9.414
 1929POPC   PO426268   7.206  37.767   9.538
 1929POPC   GL126269   7.311  37.442   9.223
 1929POPC   GL226270   7.647  37.328   9.181
 1929POPC   C1A26271   7.283  37.515   8.801
 1929POPC   D2A26272   7.412  37.613   8.393
 1929POPC   C3A26273   7.119  37.649   8.072
 1929POPC   C4A26274   7.337  37.602   7.735
 1929POPC   C1B26275   7.827  37.471   8.792
 1929POPC   C2B26276   7.870  37.380   8.365
 1929POPC   C3B26277   7.789  37.537   7.954
 1929POPC   C4B26278   7.787  37.390   7.511
 1930POPC   NC326279   9.684  43.538   9.567
 1930POPC   PO426280  10.129  42.848   9.611
 1930POPC   GL126281   9.964  42.972   9.203
 1930POPC   GL226282   9.875  43.333   9.144
 1930POPC   C1A26283  10.042  43.040   8.761
 1930POPC   D2A26284   9.785  42.989   8.394
 1930POPC   C3A26285  10.007  43.035   8.000
 1930POPC   C4A26286   9.809  43.042   7.580
 1930POPC   C1B26287   9.691  43.424   8.739
 1930POPC   C2B26288   9.497  43.414   8.345
 1930POPC   C3B26289   9.626  43.388   7.926
 1930POPC   C4B26290   9.401  43.359   7.526
 1931POPC   NC326291   5.584  38.429   9.597
 1931POPC   PO426292   4.983  38.579   9.676
 1931POPC   GL126293   5.272  38.691   9.252
 1931POPC   GL226294   5.416  38.400   9.112
 1931POPC   C1A26295   5.220  38.797   8.775
 1931POPC   D2A26296   5.167  38.644   8.352
 1931POPC   C3A26297   5.262  38.799   7.990
 1931POPC   C4A26298   5.124  38.691   7.578
 1931POPC   C1B26299   5.432  38.326   8.659
 1931POPC   C2B26300   5.264  38.151   8.265
 1931POPC   C3B26301   5.040  38.317   7.914
 1931POPC   C4B26302   5.149  38.195   7.476
 1932POPC   NC326303  44.782  19.803   9.445
 1932POPC   PO426304  44.480  20.437   9.548
 1932POPC   GL126305  44.488  20.145   9.132
 1932POPC   GL226306  44.679  19.818   8.955
 1932POPC   C1A26307  44.431  20.193   8.655
 1932POPC   D2A26308  44.371  19.897   8.280
 1932POPC   C3A26309  44.440  20.152   7.915
 1932POPC   C4A26310  44.502  20.111   7.448
 1932POPC   C1B26311  44.993  19.505   8.739
 1932POPC   C2B26312   0.185  19.556   8.311
 1932POPC   C3B26313  44.926  19.476   7.943
 1932POPC   C4B26314  44.529  19.635   7.732
 1933POPC   NC326315  44.798  36.228   9.493
 1933POPC   PO426316  44.537  35.706   9.712
 1933POPC   GL126317  44.708  35.779   9.218
 1933POPC   GL226318  44.854  36.095   9.024
 1933POPC   C1A26319  44.612  35.733   8.732
 1933POPC   D2A26320  44.372  35.679   8.315
 1933POPC   C3A26321  44.433  35.950   7.924
 1933POPC   C4A26322  44.738  35.875   7.577
 1933POPC   C1B26323  44.801  36.390   8.681
 1933POPC   C2B26324  44.683  36.259   8.285
 1933POPC   C3B26325  44.857  36.271   7.879
 1933POPC   C4B26326  44.919  36.316   7.402
 1934POPC   NC326327  26.790  26.227   9.463
 1934POPC   PO426328  27.019  25.521   9.428
 1934POPC   GL126329  26.813  25.739   9.156
 1934POPC   GL226330  27.087  25.982   9.120
 1934POPC   C1A26331  26.655  25.916   8.806
 1934POPC   D2A26332  26.572  26.186   8.499
 1934POPC   C3A26333  26.575  26.007   8.086
 1934POPC   C4A26334  26.510  26.076   7.655
 1934POPC   C1B26335  27.039  26.237   8.742
 1934POPC   C2B26336  27.049  26.140   8.286
 1934POPC   C3B26337  26.996  26.199   7.845
 1934POPC   C4B26338  27.247  26.306   7.508
 1935POPC   NC326339  40.943   9.363   9.466
 1935POPC   PO426340  40.359   9.711   9.404
 1935POPC   GL126341  40.764   9.736   9.162
 1935POPC   GL226342  40.997  10.044   9.193
 1935POPC   C1A26343  40.791   9.455   8.806
 1935POPC   D2A26344  40.506   9.562   8.475
 1935POPC   C3A26345  40.652   9.521   8.075
 1935POPC   C4A26346  40.692   9.804   7.772
 1935POPC   C1B26347  41.162  10.221   8.778
 1935POPC   C2B26348  41.344  10.085   8.341
 1935POPC   C3B26349  41.168   9.987   7.904
 1935POPC   C4B26350  41.096   9.871   7.467
 1936POPC   NC326351  41.160  21.747   9.881
 1936POPC   PO426352  41.428  22.270   9.538
 1936POPC   GL126353  41.450  22.256   9.126
 1936POPC   GL226354  41.124  22.421   9.073
 1936POPC   C1A26355  41.418  22.057   8.755
 1936POPC   D2A26356  41.619  21.946   8.396
 1936POPC   C3A26357  41.488  22.111   7.997
 1936POPC   C4A26358  41.753  22.161   7.646
 1936POPC   C1B26359  41.370  22.580   8.735
 1936POPC   C2B26360  41.549  22.454   8.367
 1936POPC   C3B26361  41.681  22.586   7.971
 1936POPC   C4B26362  41.498  22.609   7.581
 1937POPC   NC326363   3.286  13.972   9.560
 1937POPC   PO426364   3.874  14.210   9.388
 1937POPC   GL126365   3.549  14.380   9.152
 1937POPC   GL226366   3.799  14.664   9.138
 1937POPC   C1A26367   3.350  14.229   8.724
 1937POPC   D2A26368   3.489  14.170   8.261
 1937POPC   C3A26369   3.357  14.484   7.918
 1937POPC   C4A26370   3.404  14.789   7.550
 1937POPC   C1B26371   3.776  14.531   8.728
 1937POPC   C2B26372   3.593  14.675   8.374
 1937POPC   C3B26373   3.835  14.759   8.023
 1937POPC   C4B26374   3.841  14.572   7.663
 1938POPC   NC326375  42.742  33.347   9.281
 1938POPC   PO426376  43.140  32.794   9.411
 1938POPC   GL126377  43.043  32.995   9.039
 1938POPC   GL226378  43.181  33.314   8.933
 1938POPC   C1A26379  42.805  33.074   8.685
 1938POPC   D2A26380  42.961  33.207   8.326
 1938POPC   C3A26381  42.908  33.195   7.894
 1938POPC   C4A26382  43.221  33.503   7.737
 1938POPC   C1B26383  43.372  33.032   8.635
 1938POPC   C2B26384  43.402  32.971   8.206
 1938POPC   C3B26385  43.239  32.751   7.909
 1938POPC   C4B26386  43.490  32.452   7.620
 1939POPC   NC326387  36.264  32.763   9.407
 1939POPC   PO426388  36.318  33.415   9.488
 1939POPC   GL126389  36.072  33.194   9.154
 1939POPC   GL226390  35.816  32.931   9.219
 1939POPC   C1A26391  36.227  32.951   8.790
 1939POPC   D2A26392  36.343  32.976   8.384
 1939POPC   C3A26393  36.220  32.857   8.001
 1939POPC   C4A26394  36.452  33.037   7.653
 1939POPC   C1B26395  35.755  32.816   8.774
 1939POPC   C2B26396  35.940  32.637   8.400
 1939POPC   C3B26397  35.810  32.525   7.979
 1939POPC   C4B26398  35.911  32.766   7.607
 1940POPC   NC326399  13.070  13.242   9.595
 1940POPC   PO426400  13.539  13.742   9.348
 1940POPC   GL126401  13.561  13.418   9.060
 1940POPC   GL226402  13.868  13.581   8.936
 1940POPC   C1A26403  13.579  13.272   8.638
 1940POPC   D2A26404  13.352  13.480   8.323
 1940POPC   C3A26405  13.338  13.288   7.926
 1940POPC   C4A26406  13.581  13.415   7.568
 1940POPC   C1B26407  13.531  13.783   8.708
 1940POPC   C2B26408  13.830  13.712   8.400
 1940POPC   C3B26409  13.698  13.682   8.009
 1940POPC   C4B26410  13.605  13.930   7.665
 1941POPC   NC326411  14.357  14.789   9.435
 1941POPC   PO426412  14.263  15.446   9.371
 1941POPC   GL126413  14.366  15.207   9.017
 1941POPC   GL226414  14.101  14.944   9.031
 1941POPC   C1A26415  14.649  15.228   8.624
 1941POPC   D2A26416  14.834  15.300   8.194
 1941POPC   C3A26417  14.592  15.275   7.827
 1941POPC   C4A26418  14.169  15.161   7.768
 1941POPC   C1B26419  14.346  14.826   8.672
 1941POPC   C2B26420  14.350  14.928   8.252
 1941POPC   C3B26421  14.548  14.778   7.914
 1941POPC   C4B26422  14.919  14.908   7.724
 1942POPC   NC326423   9.322   7.656   9.363
 1942POPC   PO426424   9.784   7.225   9.565
 1942POPC   GL126425   9.721   7.407   9.149
 1942POPC   GL226426  10.006   7.603   9.074
 1942POPC   C1A26427   9.697   7.501   8.691
 1942POPC   D2A26428   9.659   7.247   8.324
 1942POPC   C3A26429   9.932   7.210   7.961
 1942POPC   C4A26430   9.553   7.172   7.723
 1942POPC   C1B26431  10.204   7.739   8.714
 1942POPC   C2B26432  10.088   7.567   8.346
 1942POPC   C3B26433   9.935   7.732   7.980
 1942POPC   C4B26434   9.790   7.583   7.579
 1943POPC   NC326435  17.164   8.295   9.876
 1943POPC   PO426436  17.729   8.042   9.499
 1943POPC   GL126437  17.396   8.168   9.187
 1943POPC   GL226438  17.397   8.459   9.218
 1943POPC   C1A26439  17.381   8.097   8.754
 1943POPC   D2A26440  17.733   8.080   8.455
 1943POPC   C3A26441  17.536   8.045   8.046
 1943POPC   C4A26442  17.494   7.654   7.806
 1943POPC   C1B26443  17.614   8.536   8.811
 1943POPC   C2B26444  17.688   8.579   8.383
 1943POPC   C3B26445  17.463   8.601   8.045
 1943POPC   C4B26446  17.574   8.563   7.652
 1944POPC   NC326447   6.103  39.186   9.701
 1944POPC   PO426448   5.476  39.284   9.553
 1944POPC   GL126449   5.743  39.175   9.199
 1944POPC   GL226450   5.747  39.532   9.105
 1944POPC   C1A26451   5.955  39.166   8.767
 1944POPC   D2A26452   5.869  39.287   8.288
 1944POPC   C3A26453   5.844  38.948   7.934
 1944POPC   C4A26454   5.548  38.956   7.568
 1944POPC   C1B26455   5.806  39.653   8.677
 1944POPC   C2B26456   5.797  39.819   8.247
 1944POPC   C3B26457   5.666  39.707   7.878
 1944POPC   C4B26458   5.857  39.384   7.622
 1945POPC   NC326459  20.600  13.303   9.430
 1945POPC   PO426460  21.016  13.887   9.519
 1945POPC   GL126461  20.723  13.762   9.221
 1945POPC   GL226462  20.902  13.902   8.983
 1945POPC   C1A26463  20.476  13.666   8.835
 1945POPC   D2A26464  20.467  13.607   8.384
 1945POPC   C3A26465  20.778  13.456   8.091
 1945POPC   C4A26466  20.457  13.249   7.845
 1945POPC   C1B26467  20.904  13.861   8.589
 1945POPC   C2B26468  21.129  13.834   8.249
 1945POPC   C3B26469  20.879  13.985   7.933
 1945POPC   C4B26470  20.475  13.814   7.842
 1946POPC   NC326471  27.911   8.165   9.473
 1946POPC   PO426472  27.277   8.318   9.603
 1946POPC   GL126473  27.433   8.047   9.258
 1946POPC   GL226474  27.530   8.332   9.140
 1946POPC   C1A26475  27.663   7.953   8.826
 1946POPC   D2A26476  28.015   8.010   8.512
 1946POPC   C3A26477  27.934   8.067   8.071
 1946POPC   C4A26478  27.694   8.115   7.702
 1946POPC   C1B26479  27.345   8.504   8.791
 1946POPC   C2B26480  27.417   8.599   8.366
 1946POPC   C3B26481  27.381   8.339   8.045
 1946POPC   C4B26482  27.105   8.515   7.805
 1947POPC   NC326483  30.914  44.960   9.279
 1947POPC   PO426484  30.496  44.325   9.417
 1947POPC   GL126485  30.710  44.530   9.094
 1947POPC   GL226486  30.907  44.318   8.943
 1947POPC   C1A26487  30.821  44.739   8.670
 1947POPC   D2A26488  30.825  44.904   8.264
 1947POPC   C3A26489  30.896  44.597   7.949
 1947POPC   C4A26490  30.679  44.771   7.643
 1947POPC   C1B26491  30.518  44.316   8.686
 1947POPC   C2B26492  30.602  44.305   8.285
 1947POPC   C3B26493  30.435  44.400   7.915
 1947POPC   C4B26494  30.549  44.326   7.463
 1948POPC   NC326495  36.891   5.230   9.700
 1948POPC   PO426496  36.645   4.592   9.621
 1948POPC   GL126497  36.873   4.848   9.281
 1948POPC   GL226498  36.673   5.057   9.225
 1948POPC   C1A26499  37.035   5.017   8.885
 1948POPC   D2A26500  36.926   5.139   8.434
 1948POPC   C3A26501  36.988   5.025   7.984
 1948POPC   C4A26502  36.738   4.741   7.728
 1948POPC   C1B26503  36.648   5.326   8.828
 1948POPC   C2B26504  36.620   5.576   8.477
 1948POPC   C3B26505  36.699   5.422   8.062
 1948POPC   C4B26506  36.722   5.298   7.613
 1949POPC   NC326507  31.917  23.275   9.471
 1949POPC   PO426508  32.193  23.941   9.587
 1949POPC   GL126509  32.377  23.846   9.203
 1949POPC   GL226510  32.150  23.586   9.118
 1949POPC   C1A26511  32.576  23.946   8.815
 1949POPC   D2A26512  32.388  23.969   8.439
 1949POPC   C3A26513  32.369  23.662   8.120
 1949POPC   C4A26514  32.440  23.784   7.720
 1949POPC   C1B26515  31.962  23.419   8.729
 1949POPC   C2B26516  32.044  23.315   8.277
 1949POPC   C3B26517  31.875  23.255   7.834
 1949POPC   C4B26518  31.936  23.432   7.359
 1950POPC   NC326519  26.306  43.896   9.519
 1950POPC   PO426520  25.924  44.406   9.347
 1950POPC   GL126521  26.140  44.064   9.055
 1950POPC   GL226522  26.146  43.671   9.041
 1950POPC   C1A26523  26.170  43.909   8.611
 1950POPC   D2A26524  26.027  43.612   8.323
 1950POPC   C3A26525  26.129  43.921   7.973
 1950POPC   C4A26526  26.047  44.062   7.523
 1950POPC   C1B26527  26.466  43.479   8.754
 1950POPC   C2B26528  26.556  43.560   8.322
 1950POPC   C3B26529  26.323  43.453   7.941
 1950POPC   C4B26530  26.343  43.674   7.589
 1951POPC   NC326531   7.764   5.316   9.528
 1951POPC   PO426532   7.061   5.168   9.430
 1951POPC   GL126533   7.347   5.360   9.152
 1951POPC   GL226534   7.559   5.079   9.129
 1951POPC   C1A26535   7.229   5.417   8.713
 1951POPC   D2A26536   7.133   5.053   8.428
 1951POPC   C3A26537   7.364   5.069   8.049
 1951POPC   C4A26538   7.295   4.781   7.707
 1951POPC   C1B26539   7.732   5.307   8.793
 1951POPC   C2B26540   7.650   5.442   8.370
 1951POPC   C3B26541   7.843   5.276   7.991
 1951POPC   C4B26542   7.664   5.113   7.636
 1952POPC   NC326543   2.505  32.517   9.480
 1952POPC   PO426544   1.929  32.210   9.468
 1952POPC   GL126545   1.954  32.192   9.052
 1952POPC   GL226546   2.285  32.324   9.026
 1952POPC   C1A26547   1.843  31.949   8.693
 1952POPC   D2A26548   1.965  31.959   8.259
 1952POPC   C3A26549   1.916  32.157   7.884
 1952POPC   C4A26550   2.057  32.044   7.479
 1952POPC   C1B26551   2.201  32.296   8.590
 1952POPC   C2B26552   2.300  32.385   8.162
 1952POPC   C3B26553   2.400  32.296   7.753
 1952POPC   C4B26554   2.134  32.534   7.453
 1953POPC   NC326555   8.145   0.851   9.370
 1953POPC   PO426556   8.516   1.480   9.452
 1953POPC   GL126557   8.475   1.168   9.148
 1953POPC   GL226558   8.127   1.285   9.090
 1953POPC   C1A26559   8.288   0.929   8.753
 1953POPC   D2A26560   8.325   1.044   8.335
 1953POPC   C3A26561   8.113   1.011   7.976
 1953POPC   C4A26562   8.484   0.862   7.780
 1953POPC   C1B26563   8.426   1.406   8.713
 1953POPC   C2B26564   8.515   1.534   8.305
 1953POPC   C3B26565   8.444   1.403   7.899
 1953POPC   C4B26566   8.096   1.445   7.640
 1954POPC   NC326567  12.798  32.666   9.232
 1954POPC   PO426568  12.410  32.189   9.581
 1954POPC   GL126569  12.682  32.125   9.182
 1954POPC   GL226570  13.043  32.205   9.100
 1954POPC   C1A26571  12.717  32.048   8.729
 1954POPC   D2A26572  12.581  32.136   8.321
 1954POPC   C3A26573  12.873  32.233   7.999
 1954POPC   C4A26574  13.108  31.986   7.732
 1954POPC   C1B26575  13.107  32.415   8.696
 1954POPC   C2B26576  12.863  32.588   8.391
 1954POPC   C3B26577  12.889  32.751   7.991
 1954POPC   C4B26578  12.545  32.701   7.728
 1955POPC   NC326579  15.437  42.428   9.910
 1955POPC   PO426580  14.911  42.434   9.481
 1955POPC   GL126581  15.087  42.177   9.161
 1955POPC   GL226582  15.443  42.260   9.009
 1955POPC   C1A26583  15.028  42.286   8.743
 1955POPC   D2A26584  15.299  42.305   8.411
 1955POPC   C3A26585  15.102  42.375   8.043
 1955POPC   C4A26586  14.814  42.302   7.723
 1955POPC   C1B26587  15.706  42.027   8.724
 1955POPC   C2B26588  15.551  41.885   8.317
 1955POPC   C3B26589  15.570  42.171   7.968
 1955POPC   C4B26590  15.312  42.229   7.593
 1956POPC   NC326591  32.074   4.522   9.621
 1956POPC   PO426592  32.353   3.934   9.335
 1956POPC   GL126593  32.334   4.336   9.142
 1956POPC   GL226594  31.957   4.466   9.120
 1956POPC   C1A26595  32.545   4.277   8.751
 1956POPC   D2A26596  32.377   3.959   8.473
 1956POPC   C3A26597  32.144   4.161   8.154
 1956POPC   C4A26598  32.434   4.381   7.906
 1956POPC   C1B26599  32.006   4.377   8.668
 1956POPC   C2B26600  32.013   4.660   8.311
 1956POPC   C3B26601  32.054   4.698   7.845
 1956POPC   C4B26602  31.907   4.788   7.404
 1957POPC   NC326603  35.795  41.073   9.303
 1957POPC   PO426604  36.012  40.504   9.422
 1957POPC   GL126605  36.125  40.663   9.083
 1957POPC   GL226606  35.782  40.716   8.944
 1957POPC   C1A26607  36.147  40.487   8.697
 1957POPC   D2A26608  35.943  40.633   8.361
 1957POPC   C3A26609  36.184  40.841   8.068
 1957POPC   C4A26610  36.225  40.588   7.712
 1957POPC   C1B26611  36.087  41.001   8.715
 1957POPC   C2B26612  35.890  41.175   8.394
 1957POPC   C3B26613  35.669  40.975   8.060
 1957POPC   C4B26614  35.843  40.918   7.684
 1958POPC   NC326615  44.385  32.236   9.742
 1958POPC   PO426616  44.900  32.107   9.362
 1958POPC   GL126617  44.583  32.248   9.110
 1958POPC   GL226618  44.327  32.434   9.227
 1958POPC   C1A26619  44.523  32.106   8.712
 1958POPC   D2A26620  44.805  32.057   8.351
 1958POPC   C3A26621  44.574  32.139   7.972
 1958POPC   C4A26622  44.446  31.855   7.659
 1958POPC   C1B26623  44.356  32.639   8.822
 1958POPC   C2B26624  44.533  32.514   8.411
 1958POPC   C3B26625  44.325  32.603   8.041
 1958POPC   C4B26626  44.502  32.617   7.696
 1959POPC   NC326627  42.832  30.039   9.578
 1959POPC   PO426628  43.379  29.675   9.691
 1959POPC   GL126629  43.254  29.751   9.260
 1959POPC   GL226630  43.132  30.080   9.174
 1959POPC   C1A26631  43.082  29.704   8.836
 1959POPC   D2A26632  43.257  29.718   8.422
 1959POPC   C3A26633  43.268  29.467   8.031
 1959POPC   C4A26634  43.343  29.645   7.611
 1959POPC   C1B26635  42.932  30.183   8.743
 1959POPC   C2B26636  42.998  30.157   8.326
 1959POPC   C3B26637  43.158  29.982   7.972
 1959POPC   C4B26638  43.215  30.168   7.591
 1960POPC   NC326639   0.941  35.451   9.476
 1960POPC   PO426640   1.452  34.997   9.495
 1960POPC   GL126641   1.272  35.189   9.150
 1960POPC   GL226642   0.933  35.109   9.119
 1960POPC   C1A26643   1.453  35.295   8.752
 1960POPC   D2A26644   1.535  35.041   8.370
 1960POPC   C3A26645   1.563  35.305   7.998
 1960POPC   C4A26646   1.350  35.559   7.693
 1960POPC   C1B26647   0.931  35.408   8.814
 1960POPC   C2B26648   0.984  35.267   8.435
 1960POPC   C3B26649   1.029  35.374   8.036
 1960POPC   C4B26650   0.827  35.513   7.689
 1961POPC   NC326651  36.328  13.322   9.474
 1961POPC   PO426652  35.995  13.931   9.479
 1961POPC   GL126653  36.138  13.735   9.099
 1961POPC   GL226654  36.481  13.661   9.120
 1961POPC   C1A26655  35.947  13.578   8.686
 1961POPC   D2A26656  35.893  13.359   8.280
 1961POPC   C3A26657  35.875  13.645   7.918
 1961POPC   C4A26658  35.914  13.812   7.470
 1961POPC   C1B26659  36.445  13.793   8.683
 1961POPC   C2B26660  36.220  13.799   8.280
 1961POPC   C3B26661  36.328  13.836   7.838
 1961POPC   C4B26662  36.430  13.789   7.374
 1962POPC   NC326663  15.728  15.269   9.667
 1962POPC   PO426664  16.201  14.820   9.520
 1962POPC   GL126665  16.016  15.108   9.226
 1962POPC   GL226666  15.668  15.004   9.220
 1962POPC   C1A26667  15.862  15.390   8.866
 1962POPC   D2A26668  16.040  15.546   8.455
 1962POPC   C3A26669  16.203  15.253   8.103
 1962POPC   C4A26670  16.142  15.105   7.720
 1962POPC   C1B26671  15.790  14.894   8.816
 1962POPC   C2B26672  16.012  15.014   8.495
 1962POPC   C3B26673  15.815  14.931   8.094
 1962POPC   C4B26674  15.907  14.666   7.779
 1963POPC   NC326675   2.338   0.915   9.566
 1963POPC   PO426676   2.612   1.451   9.406
 1963POPC   GL126677   2.706   1.058   9.130
 1963POPC   GL226678   3.065   0.863   9.138
 1963POPC   C1A26679   2.756   1.248   8.740
 1963POPC   D2A26680   2.521   1.460   8.447
 1963POPC   C3A26681   2.649   1.343   8.054
 1963POPC   C4A26682   2.758   1.058   7.773
 1963POPC   C1B26683   3.184   1.004   8.713
 1963POPC   C2B26684   3.022   1.112   8.316
 1963POPC   C3B26685   3.207   0.954   7.956
 1963POPC   C4B26686   3.546   1.114   7.779
 1964POPC   NC326687  38.439  16.292   9.564
 1964POPC   PO426688  38.026  15.901   9.693
 1964POPC   GL126689  38.323  15.886   9.277
 1964POPC   GL226690  38.713  15.972   9.261
 1964POPC   C1A26691  38.462  15.842   8.821
 1964POPC   D2A26692  38.742  15.834   8.422
 1964POPC   C3A26693  38.525  15.807   7.978
 1964POPC   C4A26694  38.257  15.918   7.575
 1964POPC   C1B26695  38.786  16.224   8.874
 1964POPC   C2B26696  38.555  16.348   8.510
 1964POPC   C3B26697  38.643  16.355   8.070
 1964POPC   C4B26698  38.684  16.188   7.651
 1965POPC   NC326699  19.853  21.445   9.664
 1965POPC   PO426700  20.201  20.904   9.803
 1965POPC   GL126701  20.184  21.163   9.369
 1965POPC   GL226702  19.829  21.242   9.221
 1965POPC   C1A26703  20.176  21.496   8.993
 1965POPC   D2A26704  20.146  21.350   8.568
 1965POPC   C3A26705  20.183  21.448   8.112
 1965POPC   C4A26706  20.101  21.251   7.734
 1965POPC   C1B26707  19.695  21.395   8.818
 1965POPC   C2B26708  19.733  21.506   8.353
 1965POPC   C3B26709  19.678  21.448   7.949
 1965POPC   C4B26710  19.479  21.380   7.595
 1966POPC   NC326711  31.657  13.481   9.556
 1966POPC   PO426712  31.099  13.802   9.549
 1966POPC   GL126713  31.407  13.778   9.229
 1966POPC   GL226714  31.248  13.493   9.129
 1966POPC   C1A26715  31.717  13.665   8.922
 1966POPC   D2A26716  31.827  13.548   8.513
 1966POPC   C3A26717  31.798  13.844   8.173
 1966POPC   C4A26718  31.789  13.670   7.755
 1966POPC   C1B26719  31.154  13.799   8.802
 1966POPC   C2B26720  31.338  13.660   8.460
 1966POPC   C3B26721  31.345  13.638   8.033
 1966POPC   C4B26722  31.365  13.937   7.699
 1967POPC   NC326723   4.852   7.684   9.313
 1967POPC   PO426724   4.258   7.323   9.633
 1967POPC   GL126725   4.417   7.286   9.176
 1967POPC   GL226726   4.743   7.245   9.099
 1967POPC   C1A26727   4.278   7.364   8.728
 1967POPC   D2A26728   4.492   7.600   8.404
 1967POPC   C3A26729   4.426   7.581   7.991
 1967POPC   C4A26730   4.146   7.768   7.748
 1967POPC   C1B26731   4.784   7.313   8.705
 1967POPC   C2B26732   4.718   7.123   8.303
 1967POPC   C3B26733   4.695   7.184   7.849
 1967POPC   C4B26734   4.356   7.228   7.564
 1968POPC   NC326735   8.042  33.544   9.389
 1968POPC   PO426736   8.023  32.853   9.513
 1968POPC   GL126737   8.176  33.088   9.196
 1968POPC   GL226738   8.466  32.989   9.062
 1968POPC   C1A26739   8.056  33.241   8.800
 1968POPC   D2A26740   7.963  33.002   8.487
 1968POPC   C3A26741   7.930  33.107   8.054
 1968POPC   C4A26742   7.972  32.919   7.654
 1968POPC   C1B26743   8.551  33.189   8.674
 1968POPC   C2B26744   8.396  33.166   8.264
 1968POPC   C3B26745   8.527  32.919   7.903
 1968POPC   C4B26746   8.402  33.241   7.664
 1969POPC   NC326747  39.584  27.748   9.290
 1969POPC   PO426748  39.147  27.288   9.530
 1969POPC   GL126749  39.136  27.511   9.144
 1969POPC   GL226750  39.341  27.714   8.865
 1969POPC   C1A26751  39.061  27.311   8.798
 1969POPC   D2A26752  38.785  27.387   8.495
 1969POPC   C3A26753  39.084  27.491   8.178
 1969POPC   C4A26754  39.254  27.336   7.789
 1969POPC   C1B26755  39.603  27.430   8.631
 1969POPC   C2B26756  39.625  27.404   8.181
 1969POPC   C3B26757  39.693  27.620   7.792
 1969POPC   C4B26758  39.715  27.321   7.463
 1970POPC   NC326759  39.508  26.180   9.560
 1970POPC   PO426760  39.178  25.626   9.398
 1970POPC   GL126761  39.212  25.948   9.122
 1970POPC   GL226762  39.424  26.262   9.083
 1970POPC   C1A26763  39.151  26.017   8.713
 1970POPC   D2A26764  38.986  26.222   8.414
 1970POPC   C3A26765  39.069  25.995   8.087
 1970POPC   C4A26766  39.016  26.158   7.706
 1970POPC   C1B26767  39.645  25.980   8.832
 1970POPC   C2B26768  39.607  26.206   8.454
 1970POPC   C3B26769  39.659  26.075   8.064
 1970POPC   C4B26770  39.457  25.898   7.757
 1971POPC   NC326771  35.563  17.259   9.578
 1971POPC   PO426772  35.101  17.627   9.860
 1971POPC   GL126773  35.144  17.418   9.331
 1971POPC   GL226774  35.167  17.689   9.044
 1971POPC   C1A26775  35.446  17.320   8.902
 1971POPC   D2A26776  35.399  17.628   8.530
 1971POPC   C3A26777  35.451  17.620   8.046
 1971POPC   C4A26778  35.645  17.946   7.752
 1971POPC   C1B26779  34.912  17.722   8.693
 1971POPC   C2B26780  34.958  17.548   8.278
 1971POPC   C3B26781  34.918  17.608   7.850
 1971POPC   C4B26782  35.030  17.311   7.474
 1972POPC   NC326783   1.731  14.986   9.488
 1972POPC   PO426784   2.378  15.321   9.527
 1972POPC   GL126785   2.069  15.307   9.210
 1972POPC   GL226786   2.094  14.965   9.124
 1972POPC   C1A26787   1.966  15.358   8.770
 1972POPC   D2A26788   1.711  15.383   8.393
 1972POPC   C3A26789   1.954  15.338   8.032
 1972POPC   C4A26790   1.680  15.339   7.695
 1972POPC   C1B26791   2.281  14.970   8.747
 1972POPC   C2B26792   2.054  14.985   8.402
 1972POPC   C3B26793   2.029  14.840   8.012
 1972POPC   C4B26794   2.377  14.748   7.745
 1973POPC   NC326795  42.118  26.829   9.719
 1973POPC   PO426796  42.660  27.255   9.572
 1973POPC   GL126797  42.424  26.947   9.308
 1973POPC   GL226798  42.070  27.019   9.199
 1973POPC   C1A26799  42.528  26.697   8.939
 1973POPC   D2A26800  42.490  26.856   8.484
 1973POPC   C3A26801  42.517  26.714   8.059
 1973POPC   C4A26802  42.439  26.965   7.671
 1973POPC   C1B26803  42.081  26.866   8.777
 1973POPC   C2B26804  41.999  26.628   8.411
 1973POPC   C3B26805  42.053  26.470   7.999
 1973POPC   C4B26806  41.911  26.764   7.731
 1974POPC   NC326807  39.785  36.940   9.460
 1974POPC   PO426808  40.337  36.555   9.654
 1974POPC   GL126809  40.267  36.843   9.286
 1974POPC   GL226810  40.196  37.204   9.287
 1974POPC   C1A26811  40.218  36.887   8.833
 1974POPC   D2A26812  40.301  36.871   8.397
 1974POPC   C3A26813  40.026  36.944   8.074
 1974POPC   C4A26814  40.150  36.918   7.665
 1974POPC   C1B26815  39.891  37.268   8.918
 1974POPC   C2B26816  39.844  37.264   8.482
 1974POPC   C3B26817  39.770  37.395   8.060
 1974POPC   C4B26818  39.741  37.196   7.654
 1975POPC   NC326819  39.264  44.307   9.518
 1975POPC   PO426820  39.460  43.711   9.532
 1975POPC   GL126821  39.238  43.884   9.181
 1975POPC   GL226822  38.902  44.063   9.223
 1975POPC   C1A26823  39.344  43.807   8.761
 1975POPC   D2A26824  39.355  44.038   8.409
 1975POPC   C3A26825  39.183  43.936   8.038
 1975POPC   C4A26826  39.282  44.080   7.636
 1975POPC   C1B26827  38.842  43.783   8.844
 1975POPC   C2B26828  38.828  43.809   8.397
 1975POPC   C3B26829  38.848  43.532   8.037
 1975POPC   C4B26830  39.170  43.555   7.686
 1976POPC   NC326831  24.870   0.705   9.359
 1976POPC   PO426832  25.393   0.249   9.430
 1976POPC   GL126833  25.259   0.377   9.082
 1976POPC   GL226834  25.372   0.716   9.146
 1976POPC   C1A26835  25.309   0.225   8.675
 1976POPC   D2A26836  25.082   0.292   8.298
 1976POPC   C3A26837  25.275   0.205   7.894
 1976POPC   C4A26838  25.521   0.025   7.568
 1976POPC   C1B26839  25.251   0.742   8.726
 1976POPC   C2B26840  25.391   0.866   8.343
 1976POPC   C3B26841  25.572   0.799   7.951
 1976POPC   C4B26842  25.341   0.644   7.620
 1977POPC   NC326843   1.029  33.729   9.280
 1977POPC   PO426844   1.602  33.463   9.436
 1977POPC   GL126845   1.517  33.608   9.033
 1977POPC   GL226846   1.533  33.928   8.943
 1977POPC   C1A26847   1.443  33.477   8.618
 1977POPC   D2A26848   1.167  33.600   8.281
 1977POPC   C3A26849   1.418  33.825   7.987
 1977POPC   C4A26850   1.425  33.627   7.587
 1977POPC   C1B26851   1.186  33.958   8.653
 1977POPC   C2B26852   1.050  34.113   8.233
 1977POPC   C3B26853   0.993  34.004   7.760
 1977POPC   C4B26854   0.768  33.936   7.325
 1978POPC   NC326855   3.981   3.527   9.340
 1978POPC   PO426856   3.259   3.564   9.500
 1978POPC   GL126857   3.393   3.685   9.121
 1978POPC   GL226858   3.569   3.395   9.046
 1978POPC   C1A26859   3.510   3.788   8.690
 1978POPC   D2A26860   3.409   3.601   8.282
 1978POPC   C3A26861   3.684   3.367   7.987
 1978POPC   C4A26862   3.720   3.747   7.746
 1978POPC   C1B26863   3.304   3.319   8.689
 1978POPC   C2B26864   3.331   3.094   8.292
 1978POPC   C3B26865   3.182   3.310   7.916
 1978POPC   C4B26866   3.130   3.159   7.485
 1979POPC   NC326867  42.094  10.869   9.600
 1979POPC   PO426868  42.506  11.511   9.582
 1979POPC   GL126869  42.321  11.476   9.204
 1979POPC   GL226870  42.176  11.152   9.158
 1979POPC   C1A26871  42.136  11.576   8.834
 1979POPC   D2A26872  42.226  11.299   8.543
 1979POPC   C3A26873  42.240  11.480   8.133
 1979POPC   C4A26874  42.253  11.325   7.763
 1979POPC   C1B26875  42.495  10.884   8.950
 1979POPC   C2B26876  42.750  10.697   8.629
 1979POPC   C3B26877  42.682  10.745   8.198
 1979POPC   C4B26878  42.610  10.983   7.826
 1980POPC   NC326879   7.245  15.798   9.363
 1980POPC   PO426880   7.826  16.094   9.404
 1980POPC   GL126881   7.513  16.114   9.081
 1980POPC   GL226882   7.259  16.395   9.132
 1980POPC   C1A26883   7.330  15.829   8.721
 1980POPC   D2A26884   7.336  15.602   8.302
 1980POPC   C3A26885   7.278  15.868   7.933
 1980POPC   C4A26886   7.482  16.158   7.667
 1980POPC   C1B26887   7.374  16.371   8.690
 1980POPC   C2B26888   7.266  16.212   8.316
 1980POPC   C3B26889   7.165  16.448   7.940
 1980POPC   C4B26890   7.147  16.505   7.467
 1981POPC   NC326891  34.315  22.655   9.545
 1981POPC   PO426892  34.721  23.196   9.696
 1981POPC   GL126893  34.571  23.084   9.231
 1981POPC   GL226894  34.467  22.785   9.091
 1981POPC   C1A26895  34.528  23.176   8.788
 1981POPC   D2A26896  34.702  22.975   8.443
 1981POPC   C3A26897  34.557  23.019   8.045
 1981POPC   C4A26898  34.744  23.022   7.690
 1981POPC   C1B26899  34.457  22.606   8.693
 1981POPC   C2B26900  34.693  22.484   8.301
 1981POPC   C3B26901  34.514  22.542   7.872
 1981POPC   C4B26902  34.628  22.604   7.401
 1982POPC   NC326903  25.672  41.024   9.364
 1982POPC   PO426904  26.167  40.563   9.422
 1982POPC   GL126905  26.036  40.777   9.074
 1982POPC   GL226906  25.776  40.518   9.041
 1982POPC   C1A26907  25.896  40.844   8.648
 1982POPC   D2A26908  25.605  40.998   8.339
 1982POPC   C3A26909  25.848  40.905   7.944
 1982POPC   C4A26910  26.259  40.929   7.744
 1982POPC   C1B26911  26.110  40.378   8.751
 1982POPC   C2B26912  26.142  40.271   8.313
 1982POPC   C3B26913  26.104  40.447   7.908
 1982POPC   C4B26914  26.160  40.509   7.460
 1983POPC   NC326915  32.362  11.116   9.667
 1983POPC   PO426916  31.765  11.301   9.720
 1983POPC   GL126917  31.989  11.169   9.266
 1983POPC   GL226918  32.369  11.094   9.155
 1983POPC   C1A26919  31.923  11.297   8.819
 1983POPC   D2A26920  31.802  11.467   8.377
 1983POPC   C3A26921  32.078  11.455   7.994
 1983POPC   C4A26922  32.280  11.262   7.621
 1983POPC   C1B26923  32.415  11.339   8.778
 1983POPC   C2B26924  32.226  11.120   8.414
 1983POPC   C3B26925  32.450  11.069   8.049
 1983POPC   C4B26926  32.630  11.495   7.906
 1984POPC   NC326927  10.988  21.380   9.470
 1984POPC   PO426928  11.647  21.125   9.553
 1984POPC   GL126929  11.508  21.344   9.163
 1984POPC   GL226930  11.250  21.543   9.082
 1984POPC   C1A26931  11.648  21.539   8.760
 1984POPC   D2A26932  11.710  21.369   8.333
 1984POPC   C3A26933  11.441  21.125   8.049
 1984POPC   C4A26934  11.264  21.452   7.782
 1984POPC   C1B26935  11.197  21.297   8.707
 1984POPC   C2B26936  11.161  21.489   8.297
 1984POPC   C3B26937  10.884  21.726   8.020
 1984POPC   C4B26938  10.817  21.586   7.567
 1985POPC   NC326939  30.672  40.202   9.533
 1985POPC   PO426940  30.674  39.525   9.474
 1985POPC   GL126941  30.435  39.867   9.181
 1985POPC   GL226942  30.376  40.298   9.136
 1985POPC   C1A26943  30.579  39.983   8.786
 1985POPC   D2A26944  30.631  39.730   8.442
 1985POPC   C3A26945  30.802  39.897   8.095
 1985POPC   C4A26946  30.673  39.809   7.691
 1985POPC   C1B26947  30.304  40.452   8.723
 1985POPC   C2B26948  30.417  40.216   8.340
 1985POPC   C3B26949  30.504  40.271   7.900
 1985POPC   C4B26950  30.855  40.355   7.609
 1986POPC   NC326951  30.397  34.460   9.439
 1986POPC   PO426952  31.011  34.760   9.569
 1986POPC   GL126953  30.877  34.484   9.234
 1986POPC   GL226954  30.837  34.796   9.053
 1986POPC   C1A26955  30.675  34.377   8.810
 1986POPC   D2A26956  30.625  34.552   8.405
 1986POPC   C3A26957  30.727  34.352   8.020
 1986POPC   C4A26958  30.521  34.264   7.670
 1986POPC   C1B26959  30.504  34.935   8.798
 1986POPC   C2B26960  30.434  35.033   8.360
 1986POPC   C3B26961  30.642  34.869   7.995
 1986POPC   C4B26962  31.068  34.722   7.869
 1987POPC   NC326963   9.744  20.278   9.384
 1987POPC   PO426964  10.045  20.856   9.397
 1987POPC   GL126965   9.870  20.645   9.019
 1987POPC   GL226966  10.029  20.317   8.901
 1987POPC   C1A26967   9.777  20.682   8.578
 1987POPC   D2A26968   9.968  20.494   8.204
 1987POPC   C3A26969   9.742  20.648   7.855
 1987POPC   C4A26970   9.778  20.787   7.418
 1987POPC   C1B26971   9.640  20.211   8.730
 1987POPC   C2B26972   9.491  20.342   8.326
 1987POPC   C3B26973   9.472  20.226   7.903
 1987POPC   C4B26974   9.493  20.329   7.463
 1988POPC   NC326975  12.315   6.795   9.437
 1988POPC   PO426976  11.916   6.343   9.521
 1988POPC   GL126977  12.012   6.531   9.130
 1988POPC   GL226978  11.709   6.648   9.020
 1988POPC   C1A26979  12.233   6.676   8.750
 1988POPC   D2A26980  11.998   6.600   8.353
 1988POPC   C3A26981  12.198   6.604   7.939
 1988POPC   C4A26982  12.116   6.576   7.497
 1988POPC   C1B26983  11.824   6.980   8.691
 1988POPC   C2B26984  12.129   7.091   8.350
 1988POPC   C3B26985  12.137   7.146   7.940
 1988POPC   C4B26986  11.941   7.050   7.571
 1989POPC   NC326987  14.766   8.963   9.628
 1989POPC   PO426988  15.400   8.744   9.618
 1989POPC   GL126989  15.128   8.930   9.259
 1989POPC   GL226990  14.781   8.824   9.160
 1989POPC   C1A26991  15.121   8.986   8.804
 1989POPC   D2A26992  15.358   8.901   8.414
 1989POPC   C3A26993  15.126   9.058   8.057
 1989POPC   C4A26994  14.920   9.342   7.786
 1989POPC   C1B26995  14.670   8.704   8.763
 1989POPC   C2B26996  14.860   8.774   8.391
 1989POPC   C3B26997  14.846   8.628   7.973
 1989POPC   C4B26998  14.598   8.724   7.586
 1990POPC   NC326999  14.933  39.454   9.532
 1990POPC   PO427000  15.497  39.888   9.465
 1990POPC   GL127001  15.232  40.056   9.136
 1990POPC   GL227002  15.209  39.698   9.086
 1990POPC   C1A27003  15.088  40.170   8.703
 1990POPC   D2A27004  15.037  39.929   8.333
 1990POPC   C3A27005  15.198  40.109   7.966
 1990POPC   C4A27006  15.357  40.346   7.655
 1990POPC   C1B27007  15.409  39.766   8.702
 1990POPC   C2B27008  15.405  39.567   8.295
 1990POPC   C3B27009  15.222  39.625   7.907
 1990POPC   C4B27010  15.358  39.818   7.545
 1991POPC   NC327011  10.933   4.930   9.739
 1991POPC   PO427012  11.499   5.242   9.516
 1991POPC   GL127013  11.255   5.040   9.234
 1991POPC   GL227014  11.584   4.886   9.116
 1991POPC   C1A27015  11.016   4.943   8.848
 1991POPC   D2A27016  11.120   4.748   8.479
 1991POPC   C3A27017  11.332   4.939   8.148
 1991POPC   C4A27018  11.206   5.058   7.762
 1991POPC   C1B27019  11.456   5.170   8.772
 1991POPC   C2B27020  11.541   5.432   8.448
 1991POPC   C3B27021  11.505   5.410   8.023
 1991POPC   C4B27022  11.712   5.110   7.768
 1992POPC   NC327023   4.274   3.282   9.763
 1992POPC   PO427024   4.101   3.968   9.448
 1992POPC   GL127025   4.296   3.782   9.065
 1992POPC   GL227026   4.610   3.753   9.180
 1992POPC   C1A27027   4.061   3.614   8.693
 1992POPC   D2A27028   3.980   3.663   8.249
 1992POPC   C3A27029   4.214   3.586   7.843
 1992POPC   C4A27030   4.058   3.584   7.398
 1992POPC   C1B27031   4.557   3.411   8.851
 1992POPC   C2B27032   4.471   3.466   8.420
 1992POPC   C3B27033   4.665   3.394   8.043
 1992POPC   C4B27034   4.555   3.165   7.680
 1993POPC   NC327035  15.851  40.200   9.456
 1993POPC   PO427036  16.094  39.655   9.680
 1993POPC   GL127037  16.016  39.762   9.208
 1993POPC   GL227038  15.740  39.950   9.036
 1993POPC   C1A27039  16.167  39.963   8.785
 1993POPC   D2A27040  16.028  40.226   8.396
 1993POPC   C3A27041  16.199  40.129   7.993
 1993POPC   C4A27042  16.198  39.786   7.730
 1993POPC   C1B27043  15.612  40.235   8.715
 1993POPC   C2B27044  15.549  40.045   8.317
 1993POPC   C3B27045  15.699  39.918   7.942
 1993POPC   C4B27046  15.808  40.072   7.539
 1994POPC   NC327047  10.127  41.768   9.475
 1994POPC   PO427048   9.533  41.429   9.518
 1994POPC   GL127049   9.642  41.577   9.143
 1994POPC   GL227050   9.989  41.527   9.059
 1994POPC   C1A27051   9.635  41.333   8.770
 1994POPC   D2A27052   9.660  41.415   8.320
 1994POPC   C3A27053   9.969  41.337   7.999
 1994POPC   C4A27054   9.637  41.173   7.707
 1994POPC   C1B27055   9.979  41.706   8.644
 1994POPC   C2B27056   9.937  41.844   8.228
 1994POPC   C3B27057   9.705  41.732   7.828
 1994POPC   C4B27058   9.910  41.698   7.391
 1995POPC   NC327059  43.335  23.945   9.471
 1995POPC   PO427060  43.099  23.330   9.463
 1995POPC   GL127061  43.087  23.620   9.144
 1995POPC   GL227062  42.936  23.945   9.138
 1995POPC   C1A27063  43.121  23.633   8.720
 1995POPC   D2A27064  43.299  23.412   8.384
 1995POPC   C3A27065  43.049  23.552   8.056
 1995POPC   C4A27066  43.254  23.640   7.701
 1995POPC   C1B27067  42.698  23.933   8.783
 1995POPC   C2B27068  42.929  24.017   8.428
 1995POPC   C3B27069  42.747  24.040   8.058
 1995POPC   C4B27070  42.876  23.956   7.672
 1996POPC   NC327071  37.473   8.929   9.550
 1996POPC   PO427072  38.184   8.818   9.555
 1996POPC   GL127073  37.893   8.821   9.168
 1996POPC   GL227074  37.961   9.084   8.965
 1996POPC   C1A27075  37.563   8.840   8.807
 1996POPC   D2A27076  37.558   8.658   8.391
 1996POPC   C3A27077  37.465   8.848   8.038
 1996POPC   C4A27078  37.504   8.697   7.641
 1996POPC   C1B27079  37.977   9.366   8.626
 1996POPC   C2B27080  37.775   9.238   8.235
 1996POPC   C3B27081  37.863   9.088   7.801
 1996POPC   C4B27082  38.059   9.070   7.363
 1997POPC   NC327083   1.150  41.084   9.525
 1997POPC   PO427084   1.517  40.431   9.523
 1997POPC   GL127085   1.263  40.714   9.177
 1997POPC   GL227086   1.003  40.979   9.069
 1997POPC   C1A27087   1.128  40.616   8.750
 1997POPC   D2A27088   1.155  40.430   8.366
 1997POPC   C3A27089   1.129  40.656   7.983
 1997POPC   C4A27090   1.413  40.791   7.664
 1997POPC   C1B27091   1.012  41.172   8.707
 1997POPC   C2B27092   0.934  41.005   8.332
 1997POPC   C3B27093   0.801  41.049   7.939
 1997POPC   C4B27094   1.016  41.108   7.585
 1998POPC   NC327095  22.154  35.155   9.351
 1998POPC   PO427096  22.575  35.721   9.558
 1998POPC   GL127097  22.313  35.612   9.160
 1998POPC   GL227098  21.935  35.629   9.131
 1998POPC   C1A27099  22.260  35.429   8.722
 1998POPC   D2A27100  22.530  35.490   8.341
 1998POPC   C3A27101  22.334  35.559   7.938
 1998POPC   C4A27102  22.363  35.514   7.487
 1998POPC   C1B27103  21.740  35.623   8.708
 1998POPC   C2B27104  21.776  35.504   8.264
 1998POPC   C3B27105  21.827  35.340   7.863
 1998POPC   C4B27106  22.159  35.123   7.740
 1999POPC   NC327107   5.517  22.482   9.298
 1999POPC   PO427108   5.975  22.117   9.707
 1999POPC   GL127109   5.995  22.019   9.238
 1999POPC   GL227110   5.700  22.013   9.071
 1999POPC   C1A27111   6.118  22.070   8.793
 1999POPC   D2A27112   5.958  22.223   8.385
 1999POPC   C3A27113   6.162  22.153   7.991
 1999POPC   C4A27114   6.196  21.791   7.776
 1999POPC   C1B27115   5.461  22.033   8.691
 1999POPC   C2B27116   5.440  22.361   8.398
 1999POPC   C3B27117   5.494  22.462   7.983
 1999POPC   C4B27118   5.724  22.213   7.718
 2000POPC   NC327119  25.417  21.864   9.436
 2000POPC   PO427120  24.970  22.383   9.621
 2000POPC   GL127121  25.078  22.219   9.252
 2000POPC   GL227122  25.440  22.342   9.257
 2000POPC   C1A27123  24.965  22.324   8.835
 2000POPC   D2A27124  25.173  22.420   8.455
 2000POPC   C3A27125  24.983  22.351   8.021
 2000POPC   C4A27126  25.070  22.011   7.704
 2000POPC   C1B27127  25.446  22.126   8.858
 2000POPC   C2B27128  25.329  21.925   8.503
 2000POPC   C3B27129  25.397  22.095   8.120
 2000POPC   C4B27130  25.517  22.202   7.736
 2001POPC   NC327131  41.219  39.295   9.442
 2001POPC   PO427132  40.653  38.867   9.390
 2001POPC   GL127133  40.967  39.014   9.083
 2001POPC   GL227134  40.972  39.348   9.002
 2001POPC   C1A27135  40.925  38.965   8.628
 2001POPC   D2A27136  40.580  39.060   8.319
 2001POPC   C3A27137  40.734  39.133   7.896
 2001POPC   C4A27138  41.151  38.996   7.723
 2001POPC   C1B27139  40.764  39.472   8.653
 2001POPC   C2B27140  40.937  39.446   8.278
 2001POPC   C3B27141  40.671  39.634   7.998
 2001POPC   C4B27142  40.686  39.589   7.577
 2002POPC   NC327143  17.544  31.865   9.656
 2002POPC   PO427144  17.513  31.276   9.480
 2002POPC   GL127145  17.604  31.543   9.191
 2002POPC   GL227146  17.299  31.741   9.201
 2002POPC   C1A27147  17.701  31.684   8.776
 2002POPC   D2A27148  17.518  31.817   8.390
 2002POPC   C3A27149  17.533  31.527   8.025
 2002POPC   C4A27150  17.770  31.563   7.649
 2002POPC   C1B27151  17.160  31.611   8.793
 2002POPC   C2B27152  17.132  31.463   8.389
 2002POPC   C3B27153  17.041  31.663   7.982
 2002POPC   C4B27154  17.255  31.715   7.591
 2003POPC   NC327155  42.507   2.847   9.443
 2003POPC   PO427156  41.865   2.927   9.535
 2003POPC   GL127157  42.103   2.981   9.162
 2003POPC   GL227158  42.077   2.639   9.156
 2003POPC   C1A27159  42.388   2.983   8.801
 2003POPC   D2A27160  42.685   2.939   8.452
 2003POPC   C3A27161  42.506   2.826   8.044
 2003POPC   C4A27162  42.221   2.875   7.713
 2003POPC   C1B27163  42.234   2.414   8.824
 2003POPC   C2B27164  42.350   2.190   8.482
 2003POPC   C3B27165  42.317   2.339   8.074
 2003POPC   C4B27166  42.112   2.382   7.719
 2004POPC   NC327167  18.869   7.975   9.514
 2004POPC   PO427168  19.179   8.603   9.597
 2004POPC   GL127169  19.007   8.426   9.166
 2004POPC   GL227170  18.732   8.179   9.065
 2004POPC   C1A27171  19.110   8.212   8.730
 2004POPC   D2A27172  19.327   8.161   8.313
 2004POPC   C3A27173  19.158   8.429   7.998
 2004POPC   C4A27174  18.706   8.429   7.821
 2004POPC   C1B27175  18.732   7.827   8.797
 2004POPC   C2B27176  18.939   7.769   8.396
 2004POPC   C3B27177  18.856   7.926   7.996
 2004POPC   C4B27178  19.075   8.082   7.658
 2005POPC   NC327179  37.324  28.375   9.684
 2005POPC   PO427180  36.730  28.240   9.455
 2005POPC   GL127181  36.858  28.461   9.083
 2005POPC   GL227182  36.880  28.158   8.880
 2005POPC   C1A27183  36.880  28.602   8.648
 2005POPC   D2A27184  36.850  28.317   8.344
 2005POPC   C3A27185  37.154  28.304   8.010
 2005POPC   C4A27186  37.066  28.490   7.614
 2005POPC   C1B27187  36.557  27.985   8.649
 2005POPC   C2B27188  36.369  28.020   8.262
 2005POPC   C3B27189  36.580  27.839   7.917
 2005POPC   C4B27190  36.885  28.017   7.663
 2006POPC   NC327191   4.493   4.223   9.505
 2006POPC   PO427192   5.147   4.153   9.564
 2006POPC   GL127193   5.118   4.293   9.134
 2006POPC   GL227194   4.776   4.238   9.082
 2006POPC   C1A27195   5.028   4.446   8.696
 2006POPC   D2A27196   5.225   4.442   8.287
 2006POPC   C3A27197   5.051   4.600   7.929
 2006POPC   C4A27198   4.985   4.408   7.549
 2006POPC   C1B27199   4.854   3.950   8.729
 2006POPC   C2B27200   5.107   3.964   8.354
 2006POPC   C3B27201   5.008   4.061   7.953
 2006POPC   C4B27202   4.637   3.908   7.794
 2007POPC   NC327203  10.335  34.848   9.965
 2007POPC   PO427204  10.427  34.494   9.404
 2007POPC   GL127205  10.579  34.588   9.023
 2007POPC   GL227206  10.817  34.313   9.071
 2007POPC   C1A27207  10.384  34.661   8.642
 2007POPC   D2A27208  10.377  34.425   8.272
 2007POPC   C3A27209  10.649  34.648   8.079
 2007POPC   C4A27210  10.500  34.885   7.792
 2007POPC   C1B27211  10.698  34.256   8.655
 2007POPC   C2B27212  10.912  34.249   8.287
 2007POPC   C3B27213  10.843  34.256   7.836
 2007POPC   C4B27214  10.401  34.295   7.733
 2008POPC   NC327215  14.695  18.789   9.467
 2008POPC   PO427216  14.798  18.045   9.476
 2008POPC   GL127217  14.402  18.132   9.216
 2008POPC   GL227218  14.601  18.406   9.110
 2008POPC   C1A27219  14.182  18.311   8.787
 2008POPC   D2A27220  14.170  18.617   8.398
 2008POPC   C3A27221  14.081  18.591   7.962
 2008POPC   C4A27222  13.953  18.206   7.710
 2008POPC   C1B27223  14.623  18.050   8.775
 2008POPC   C2B27224  14.461  18.067   8.363
 2008POPC   C3B27225  14.492  18.299   7.984
 2008POPC   C4B27226  14.451  18.206   7.534
 2009POPC   NC327227   7.347  31.837   9.753
 2009POPC   PO427228   7.352  32.390   9.426
 2009POPC   GL127229   7.518  32.312   9.059
 2009POPC   GL227230   7.630  31.958   9.139
 2009POPC   C1A27231   7.293  32.325   8.671
 2009POPC   D2A27232   7.239  32.562   8.313
 2009POPC   C3A27233   7.256  32.360   7.925
 2009POPC   C4A27234   7.425  32.129   7.595
 2009POPC   C1B27235   7.774  32.014   8.721
 2009POPC   C2B27236   7.625  32.117   8.329
 2009POPC   C3B27237   7.780  32.197   7.945
 2009POPC   C4B27238   7.814  32.441   7.600
 2010POPC   NC327239  14.135  41.456   9.153
 2010POPC   PO427240  14.659  41.654   9.513
 2010POPC   GL127241  14.676  41.847   9.070
 2010POPC   GL227242  14.335  41.951   9.071
 2010POPC   C1A27243  14.504  41.783   8.629
 2010POPC   D2A27244  14.454  41.408   8.394
 2010POPC   C3A27245  14.731  41.480   8.051
 2010POPC   C4A27246  14.640  41.359   7.650
 2010POPC   C1B27247  14.047  42.069   8.729
 2010POPC   C2B27248  13.963  41.931   8.294
 2010POPC   C3B27249  14.182  41.630   8.009
 2010POPC   C4B27250  14.155  41.613   7.573
 2011POPC   NC327251  35.621  38.440   9.505
 2011POPC   PO427252  34.959  38.379   9.631
 2011POPC   GL127253  35.182  38.554   9.241
 2011POPC   GL227254  35.275  38.214   9.156
 2011POPC   C1A27255  35.294  38.556   8.776
 2011POPC   D2A27256  35.227  38.214   8.475
 2011POPC   C3A27257  35.066  38.257   8.064
 2011POPC   C4A27258  35.297  38.452   7.750
 2011POPC   C1B27259  35.595  38.130   8.833
 2011POPC   C2B27260  35.780  38.250   8.457
 2011POPC   C3B27261  35.695  38.450   8.073
 2011POPC   C4B27262  35.765  38.223   7.706
 2012POPC   NC327263   4.268  42.648   9.456
 2012POPC   PO427264   4.212  43.363   9.454
 2012POPC   GL127265   4.409  43.104   9.153
 2012POPC   GL227266   4.115  42.969   9.088
 2012POPC   C1A27267   4.407  43.207   8.707
 2012POPC   D2A27268   4.462  43.533   8.359
 2012POPC   C3A27269   4.349  43.356   7.952
 2012POPC   C4A27270   4.324  43.079   7.590
 2012POPC   C1B27271   4.076  42.742   8.770
 2012POPC   C2B27272   4.238  42.813   8.403
 2012POPC   C3B27273   4.088  42.903   8.012
 2012POPC   C4B27274   3.973  42.714   7.647
 2013POPC   NC327275  33.958  42.528   9.846
 2013POPC   PO427276  33.386  42.227   9.567
 2013POPC   GL127277  33.590  42.215   9.199
 2013POPC   GL227278  33.816  42.470   9.347
 2013POPC   C1A27279  33.809  42.110   8.809
 2013POPC   D2A27280  33.974  42.039   8.403
 2013POPC   C3A27281  33.775  42.225   8.045
 2013POPC   C4A27282  33.937  42.141   7.622
 2013POPC   C1B27283  33.851  42.603   8.919
 2013POPC   C2B27284  33.898  42.559   8.477
 2013POPC   C3B27285  33.783  42.735   8.082
 2013POPC   C4B27286  33.731  42.595   7.666
 2014POPC   NC327287   3.744  26.913   9.371
 2014POPC   PO427288   3.273  26.557   9.714
 2014POPC   GL127289   3.154  26.491   9.250
 2014POPC   GL227290   3.475  26.490   9.098
 2014POPC   C1A27291   3.118  26.434   8.741
 2014POPC   D2A27292   3.102  26.795   8.407
 2014POPC   C3A27293   3.286  26.843   7.977
 2014POPC   C4A27294   3.448  27.169   7.706
 2014POPC   C1B27295   3.706  26.689   8.735
 2014POPC   C2B27296   3.922  26.929   8.399
 2014POPC   C3B27297   3.829  26.871   7.958
 2014POPC   C4B27298   3.950  27.099   7.620
 2015POPC   NC327299   4.684   7.489   9.727
 2015POPC   PO427300   5.328   7.651   9.408
 2015POPC   GL127301   5.259   7.408   9.111
 2015POPC   GL227302   5.124   7.643   8.897
 2015POPC   C1A27303   5.300   7.190   8.754
 2015POPC   D2A27304   5.158   7.404   8.384
 2015POPC   C3A27305   5.161   7.164   8.038
 2015POPC   C4A27306   5.367   7.204   7.693
 2015POPC   C1B27307   4.930   7.832   8.566
 2015POPC   C2B27308   4.878   7.853   8.145
 2015POPC   C3B27309   4.994   7.599   7.813
 2015POPC   C4B27310   4.722   7.530   7.431
 2016POPC   NC327311  29.251  36.383   9.412
 2016POPC   PO427312  28.707  35.879   9.481
 2016POPC   GL127313  28.847  36.151   9.166
 2016POPC   GL227314  29.117  35.978   9.035
 2016POPC   C1A27315  29.025  36.387   8.770
 2016POPC   D2A27316  29.372  36.310   8.463
 2016POPC   C3A27317  29.229  36.321   8.035
 2016POPC   C4A27318  29.435  36.161   7.702
 2016POPC   C1B27319  28.878  35.906   8.713
 2016POPC   C2B27320  28.959  35.990   8.318
 2016POPC   C3B27321  28.850  35.861   7.910
 2016POPC   C4B27322  28.881  35.692   7.474
 2017POPC   NC327323   3.523  30.414   9.483
 2017POPC   PO427324   3.881  30.982   9.494
 2017POPC   GL127325   3.575  30.823   9.183
 2017POPC   GL227326   3.295  31.043   9.084
 2017POPC   C1A27327   3.657  30.592   8.798
 2017POPC   D2A27328   3.904  30.502   8.394
 2017POPC   C3A27329   3.789  30.648   8.014
 2017POPC   C4A27330   3.610  30.483   7.663
 2017POPC   C1B27331   3.204  30.822   8.723
 2017POPC   C2B27332   3.391  30.721   8.344
 2017POPC   C3B27333   3.281  30.759   7.925
 2017POPC   C4B27334   3.158  31.123   7.722
 2018POPC   NC327335   5.533  43.154   9.575
 2018POPC   PO427336   6.190  43.132   9.531
 2018POPC   GL127337   5.888  43.110   9.196
 2018POPC   GL227338   5.802  42.769   9.226
 2018POPC   C1A27339   5.684  43.162   8.796
 2018POPC   D2A27340   5.838  43.006   8.409
 2018POPC   C3A27341   5.791  43.276   8.038
 2018POPC   C4A27342   6.031  43.373   7.658
 2018POPC   C1B27343   5.582  42.679   8.843
 2018POPC   C2B27344   5.445  42.702   8.387
 2018POPC   C3B27345   5.665  42.721   8.016
 2018POPC   C4B27346   5.886  42.877   7.712
 2019POPC   NC327347  16.664   3.220   9.365
 2019POPC   PO427348  17.024   3.803   9.539
 2019POPC   GL127349  16.895   3.620   9.180
 2019POPC   GL227350  17.092   3.325   9.152
 2019POPC   C1A27351  16.638   3.668   8.824
 2019POPC   D2A27352  16.526   3.460   8.438
 2019POPC   C3A27353  16.736   3.572   8.040
 2019POPC   C4A27354  16.740   3.854   7.657
 2019POPC   C1B27355  16.884   3.213   8.764
 2019POPC   C2B27356  17.056   3.231   8.378
 2019POPC   C3B27357  16.982   3.103   7.995
 2019POPC   C4B27358  16.645   3.160   7.733
 2020POPC   NC327359  17.075   4.442   9.415
 2020POPC   PO427360  16.458   4.417   9.154
 2020POPC   GL127361  16.848   4.413   8.967
 2020POPC   GL227362  17.032   4.094   9.043
 2020POPC   C1A27363  16.859   4.579   8.584
 2020POPC   D2A27364  16.613   4.769   8.308
 2020POPC   C3A27365  16.626   4.522   7.968
 2020POPC   C4A27366  16.901   4.385   7.632
 2020POPC   C1B27367  16.983   4.068   8.597
 2020POPC   C2B27368  16.856   4.061   8.174
 2020POPC   C3B27369  16.431   4.039   8.015
 2020POPC   C4B27370  16.388   4.232   7.631
 2021POPC   NC327371  21.800   0.232   9.497
 2021POPC   PO427372  21.246   0.662   9.357
 2021POPC   GL127373  21.485   0.499   9.010
 2021POPC   GL227374  21.733   0.247   9.001
 2021POPC   C1A27375  21.332   0.368   8.615
 2021POPC   D2A27376  20.926   0.362   8.414
 2021POPC   C3A27377  20.950   0.618   8.050
 2021POPC   C4A27378  21.114   0.365   7.716
 2021POPC   C1B27379  21.851   0.465   8.615
 2021POPC   C2B27380  21.769   0.655   8.193
 2021POPC   C3B27381  21.578   0.582   7.804
 2021POPC   C4B27382  21.618   0.134   7.749
 2022POPC   NC327383  24.405  16.012   9.666
 2022POPC   PO427384  25.042  16.157   9.430
 2022POPC   GL127385  24.723  16.149   9.136
 2022POPC   GL227386  24.435  16.348   9.245
 2022POPC   C1A27387  24.630  15.848   8.807
 2022POPC   D2A27388  24.563  15.697   8.380
 2022POPC   C3A27389  24.635  16.047   8.104
 2022POPC   C4A27390  24.832  15.883   7.763
 2022POPC   C1B27391  24.199  16.306   8.859
 2022POPC   C2B27392  24.282  16.102   8.492
 2022POPC   C3B27393  24.121  15.927   8.126
 2022POPC   C4B27394  24.299  16.001   7.736
 2023POPC   NC327395  20.583  23.721   9.665
 2023POPC   PO427396  21.007  24.108   9.313
 2023POPC   GL127397  20.702  23.784   9.156
 2023POPC   GL227398  20.343  23.846   9.237
 2023POPC   C1A27399  20.591  23.528   8.760
 2023POPC   D2A27400  20.679  23.359   8.341
 2023POPC   C3A27401  20.732  23.632   7.997
 2023POPC   C4A27402  20.611  23.526   7.587
 2023POPC   C1B27403  20.400  23.998   8.802
 2023POPC   C2B27404  20.426  23.835   8.352
 2023POPC   C3B27405  20.313  23.918   7.897
 2023POPC   C4B27406  20.322  23.898   7.423
 2024POPC   NC327407  31.545  39.720   9.606
 2024POPC   PO427408  31.145  40.240   9.462
 2024POPC   GL127409  31.477  40.054   9.170
 2024POPC   GL227410  31.502  39.679   9.099
 2024POPC   C1A27411  31.463  40.013   8.711
 2024POPC   D2A27412  31.611  40.203   8.341
 2024POPC   C3A27413  31.310  40.047   8.088
 2024POPC   C4A27414  31.160  39.946   7.719
 2024POPC   C1B27415  31.723  39.568   8.716
 2024POPC   C2B27416  31.579  39.653   8.297
 2024POPC   C3B27417  31.540  39.637   7.850
 2024POPC   C4B27418  31.323  39.547   7.446
 2025POPC   NC327419   2.585  44.541   9.546
 2025POPC   PO427420   3.166  44.986   9.455
 2025POPC   GL127421   2.932  44.706   9.207
 2025POPC   GL227422   2.665  44.944   9.212
 2025POPC   C1A27423   2.726  44.592   8.830
 2025POPC   D2A27424   2.776  44.758   8.421
 2025POPC   C3A27425   2.544  44.674   8.039
 2025POPC   C4A27426   2.671  44.394   7.726
 2025POPC   C1B27427   2.881   0.125   8.866
 2025POPC   C2B27428   2.914   0.262   8.459
 2025POPC   C3B27429   2.938   0.121   8.042
 2025POPC   C4B27430   3.029  44.741   7.810
 2026POPC   NC327431  21.756  21.327   9.527
 2026POPC   PO427432  21.280  21.694   9.494
 2026POPC   GL127433  21.434  21.497   9.132
 2026POPC   GL227434  21.391  21.137   9.157
 2026POPC   C1A27435  21.246  21.714   8.747
 2026POPC   D2A27436  20.954  21.669   8.393
 2026POPC   C3A27437  21.136  21.639   7.975
 2026POPC   C4A27438  21.229  21.501   7.542
 2026POPC   C1B27439  21.579  21.230   8.740
 2026POPC   C2B27440  21.472  21.431   8.364
 2026POPC   C3B27441  21.588  21.400   7.937
 2026POPC   C4B27442  21.494  21.052   7.666
 2027POPC   NC327443  38.176  20.236   9.585
 2027POPC   PO427444  38.643  20.779   9.475
 2027POPC   GL127445  38.453  20.643   9.079
 2027POPC   GL227446  38.375  20.315   9.128
 2027POPC   C1A27447  38.613  20.438   8.669
 2027POPC   D2A27448  38.565  20.148   8.301
 2027POPC   C3A27449  38.564  20.381   7.931
 2027POPC   C4A27450  38.857  20.651   7.777
 2027POPC   C1B27451  38.109  20.339   8.792
 2027POPC   C2B27452  38.163  20.438   8.391
 2027POPC   C3B27453  38.090  20.225   8.024
 2027POPC   C4B27454  38.061  20.414   7.621
 2028POPC   NC327455  28.120  40.375   9.483
 2028POPC   PO427456  28.677  40.722   9.391
 2028POPC   GL127457  28.290  40.726   9.152
 2028POPC   GL227458  28.212  41.076   9.081
 2028POPC   C1A27459  27.978  40.573   8.846
 2028POPC   D2A27460  27.905  40.569   8.393
 2028POPC   C3A27461  28.236  40.612   8.082
 2028POPC   C4A27462  28.370  40.604   7.661
 2028POPC   C1B27463  28.525  40.949   8.759
 2028POPC   C2B27464  28.634  40.704   8.398
 2028POPC   C3B27465  28.746  40.825   7.988
 2028POPC   C4B27466  28.875  40.666   7.611
 2029POPC   NC327467  32.182  14.493   9.379
 2029POPC   PO427468  32.714  14.052   9.299
 2029POPC   GL127469  32.392  14.169   9.019
 2029POPC   GL227470  32.003  14.150   9.034
 2029POPC   C1A27471  32.447  14.190   8.571
 2029POPC   D2A27472  32.750  14.402   8.294
 2029POPC   C3A27473  32.520  14.688   8.030
 2029POPC   C4A27474  32.362  14.280   7.901
 2029POPC   C1B27475  31.860  14.507   8.779
 2029POPC   C2B27476  31.693  14.567   8.387
 2029POPC   C3B27477  31.986  14.621   8.000
 2029POPC   C4B27478  32.172  14.604   7.567
 2030POPC   NC327479  28.556  44.460   9.662
 2030POPC   PO427480  28.344  44.973   9.433
 2030POPC   GL127481  28.309  44.747   9.079
 2030POPC   GL227482  28.332  44.421   9.184
 2030POPC   C1A27483  28.511  44.841   8.671
 2030POPC   D2A27484  28.767  44.659   8.375
 2030POPC   C3A27485  28.464  44.692   8.106
 2030POPC   C4A27486  28.402  44.588   7.740
 2030POPC   C1B27487  28.517  44.354   8.789
 2030POPC   C2B27488  28.316  44.286   8.407
 2030POPC   C3B27489  28.077  44.334   8.027
 2030POPC   C4B27490  28.037  44.077   7.664
 2031POPC   NC327491  10.396  34.971   9.347
 2031POPC   PO427492  10.326  35.732   9.383
 2031POPC   GL127493  10.448  35.430   9.101
 2031POPC   GL227494  10.772  35.527   8.970
 2031POPC   C1A27495  10.467  35.181   8.712
 2031POPC   D2A27496  10.806  34.973   8.456
 2031POPC   C3A27497  10.860  35.180   8.033
 2031POPC   C4A27498  10.557  35.404   7.743
 2031POPC   C1B27499  10.826  35.501   8.529
 2031POPC   C2B27500  10.810  35.770   8.191
 2031POPC   C3B27501  11.016  35.653   7.837
 2031POPC   C4B27502  10.920  35.609   7.431
 2032POPC   NC327503  34.147  19.202   9.461
 2032POPC   PO427504  34.472  19.752   9.564
 2032POPC   GL127505  34.531  19.800   9.167
 2032POPC   GL227506  34.294  19.561   9.081
 2032POPC   C1A27507  34.722  19.611   8.800
 2032POPC   D2A27508  34.986  19.781   8.491
 2032POPC   C3A27509  34.933  19.648   8.085
 2032POPC   C4A27510  34.707  19.897   7.816
 2032POPC   C1B27511  34.283  19.899   8.734
 2032POPC   C2B27512  34.416  19.979   8.293
 2032POPC   C3B27513  34.216  19.928   7.883
 2032POPC   C4B27514  34.350  19.645   7.547
 2033POPC   NC327515  10.315   6.678   9.466
 2033POPC   PO427516  10.611   7.281   9.476
 2033POPC   GL127517  10.536   7.012   9.107
 2033POPC   GL227518  10.714   6.772   9.156
 2033POPC   C1A27519  10.334   6.672   8.800
 2033POPC   D2A27520  10.329   6.464   8.347
 2033POPC   C3A27521  10.368   6.725   7.949
 2033POPC   C4A27522  10.342   6.744   7.486
 2033POPC   C1B27523  10.868   6.625   8.772
 2033POPC   C2B27524  11.008   6.712   8.369
 2033POPC   C3B27525  10.864   6.587   8.023
 2033POPC   C4B27526  10.738   6.483   7.648
 2034POPC   NC327527   0.125   3.386   9.509
 2034POPC   PO427528   0.610   3.858   9.420
 2034POPC   GL127529   0.733   3.480   9.278
 2034POPC   GL227530   0.425   3.399   9.095
 2034POPC   C1A27531   0.893   3.438   8.888
 2034POPC   D2A27532   0.577   3.576   8.601
 2034POPC   C3A27533   0.530   3.359   8.215
 2034POPC   C4A27534   0.560   3.593   7.831
 2034POPC   C1B27535   0.087   3.476   8.762
 2034POPC   C2B27536   0.121   3.693   8.356
 2034POPC   C3B27537   0.069   3.516   7.948
 2034POPC   C4B27538  44.884   3.648   7.561
 2035POPC   NC327539  15.757  27.696   9.558
 2035POPC   PO427540  16.417  27.650   9.404
 2035POPC   GL127541  16.071  27.794   9.166
 2035POPC   GL227542  15.935  27.444   9.147
 2035POPC   C1A27543  15.886  27.779   8.772
 2035POPC   D2A27544  15.966  27.688   8.356
 2035POPC   C3A27545  15.913  27.991   8.058
 2035POPC   C4A27546  15.842  27.904   7.634
 2035POPC   C1B27547  15.782  27.217   8.775
 2035POPC   C2B27548  15.623  27.292   8.387
 2035POPC   C3B27549  15.758  27.318   7.974
 2035POPC   C4B27550  15.837  27.363   7.539
 2036POPC   NC327551  31.287  28.587   9.808
 2036POPC   PO427552  31.564  28.947   9.280
 2036POPC   GL127553  31.776  29.082   8.933
 2036POPC   GL227554  31.998  28.827   8.855
 2036POPC   C1A27555  31.577  29.258   8.579
 2036POPC   D2A27556  31.466  29.407   8.174
 2036POPC   C3A27557  31.224  29.163   7.879
 2036POPC   C4A27558  31.403  29.310   7.477
 2036POPC   C1B27559  31.928  28.751   8.464
 2036POPC   C2B27560  31.860  29.049   8.189
 2036POPC   C3B27561  31.691  28.992   7.803
 2036POPC   C4B27562  31.624  28.834   7.398
 2037POPC   NC327563  30.618  42.968   9.459
 2037POPC   PO427564  31.301  43.075   9.578
 2037POPC   GL127565  31.036  43.276   9.203
 2037POPC   GL227566  30.665  43.387   9.151
 2037POPC   C1A27567  30.973  43.353   8.733
 2037POPC   D2A27568  31.053  42.992   8.443
 2037POPC   C3A27569  31.005  43.099   8.025
 2037POPC   C4A27570  30.866  43.451   7.800
 2037POPC   C1B27571  30.485  43.151   8.773
 2037POPC   C2B27572  30.570  43.177   8.315
 2037POPC   C3B27573  30.505  43.035   7.887
 2037POPC   C4B27574  30.330  42.890   7.503
 2038POPC   NC327575  11.472   6.489   9.503
 2038POPC   PO427576  10.719   6.414   9.535
 2038POPC   GL127577  11.063   6.406   9.222
 2038POPC   GL227578  11.217   6.775   9.147
 2038POPC   C1A27579  11.313   6.346   8.858
 2038POPC   D2A27580  11.564   6.316   8.498
 2038POPC   C3A27581  11.341   6.382   8.127
 2038POPC   C4A27582  11.248   6.416   7.707
 2038POPC   C1B27583  11.347   6.843   8.710
 2038POPC   C2B27584  11.546   6.820   8.275
 2038POPC   C3B27585  11.629   6.726   7.812
 2038POPC   C4B27586  11.334   6.836   7.409
 2039POPC   NC327587  42.998  36.152   9.542
 2039POPC   PO427588  43.595  35.982   9.518
 2039POPC   GL127589  43.372  36.260   9.164
 2039POPC   GL227590  42.986  36.345   9.085
 2039POPC   C1A27591  43.254  36.122   8.735
 2039POPC   D2A27592  43.453  36.131   8.355
 2039POPC   C3A27593  43.248  36.074   7.963
 2039POPC   C4A27594  43.425  35.946   7.570
 2039POPC   C1B27595  42.853  36.459   8.712
 2039POPC   C2B27596  42.970  36.324   8.335
 2039POPC   C3B27597  42.900  36.454   7.930
 2039POPC   C4B27598  42.962  36.215   7.550
 2040POPC   NC327599  25.442  24.078   9.487
 2040POPC   PO427600  25.244  24.706   9.447
 2040POPC   GL127601  25.316  24.405   9.111
 2040POPC   GL227602  24.997  24.313   9.084
 2040POPC   C1A27603  25.243  24.266   8.656
 2040POPC   D2A27604  25.100  24.130   8.284
 2040POPC   C3A27605  25.310  24.341   7.974
 2040POPC   C4A27606  25.492  24.653   7.733
 2040POPC   C1B27607  25.046  24.706   8.803
 2040POPC   C2B27608  25.212  24.794   8.380
 2040POPC   C3B27609  25.015  24.769   7.976
 2040POPC   C4B27610  24.983  24.659   7.555
 2041POPC   NC327611  44.033  37.215   9.898
 2041POPC   PO427612  44.200  36.634   9.558
 2041POPC   GL127613  43.991  36.814   9.214
 2041POPC   GL227614  43.632  36.750   9.030
 2041POPC   C1A27615  44.057  36.885   8.789
 2041POPC   D2A27616  43.781  36.869   8.443
 2041POPC   C3A27617  43.994  36.895   8.045
 2041POPC   C4A27618  43.864  36.890   7.660
 2041POPC   C1B27619  43.346  36.643   8.642
 2041POPC   C2B27620  43.368  36.593   8.166
 2041POPC   C3B27621  43.523  36.513   7.721
 2041POPC   C4B27622  43.560  36.773   7.278
 2042POPC   NC327623  15.159  14.113   9.691
 2042POPC   PO427624  14.787  14.594   9.394
 2042POPC   GL127625  14.992  14.400   9.085
 2042POPC   GL227626  15.111  14.101   9.172
 2042POPC   C1A27627  14.880  14.225   8.693
 2042POPC   D2A27628  15.112  14.355   8.371
 2042POPC   C3A27629  14.944  14.432   8.009
 2042POPC   C4A27630  15.142  14.471   7.688
 2042POPC   C1B27631  15.367  14.185   8.807
 2042POPC   C2B27632  15.489  14.005   8.376
 2042POPC   C3B27633  15.297  14.017   7.947
 2042POPC   C4B27634  15.322  14.056   7.454
 2043POPC   NC327635  37.384  39.041   9.346
 2043POPC   PO427636  36.860  39.476   9.438
 2043POPC   GL127637  36.990  39.256   9.094
 2043POPC   GL227638  37.283  39.449   9.056
 2043POPC   C1A27639  37.013  39.119   8.675
 2043POPC   D2A27640  36.876  39.372   8.335
 2043POPC   C3A27641  36.955  39.153   7.961
 2043POPC   C4A27642  36.808  39.195   7.536
 2043POPC   C1B27643  37.103  39.624   8.730
 2043POPC   C2B27644  37.158  39.834   8.364
 2043POPC   C3B27645  37.104  39.652   7.971
 2043POPC   C4B27646  37.238  39.434   7.643
 2044POPC   NC327647   7.254   9.041   9.645
 2044POPC   PO427648   7.921   9.145   9.617
 2044POPC   GL127649   7.601   9.079   9.274
 2044POPC   GL227650   7.486   8.731   9.177
 2044POPC   C1A27651   7.478   9.119   8.822
 2044POPC   D2A27652   7.504   8.774   8.495
 2044POPC   C3A27653   7.522   8.951   8.089
 2044POPC   C4A27654   7.290   9.299   7.919
 2044POPC   C1B27655   7.126   8.746   8.861
 2044POPC   C2B27656   7.032   8.960   8.452
 2044POPC   C3B27657   7.033   8.855   7.997
 2044POPC   C4B27658   7.121   8.952   7.544
 2045POPC   NC327659   8.660  14.002   9.298
 2045POPC   PO427660   9.233  13.631   9.465
 2045POPC   GL127661   9.011  13.642   9.115
 2045POPC   GL227662   8.707  13.483   9.072
 2045POPC   C1A27663   9.137  13.439   8.745
 2045POPC   D2A27664   9.070  13.252   8.341
 2045POPC   C3A27665   9.190  13.489   7.992
 2045POPC   C4A27666   9.215  13.828   7.731
 2045POPC   C1B27667   8.746  13.772   8.690
 2045POPC   C2B27668   8.836  13.753   8.263
 2045POPC   C3B27669   8.725  13.877   7.856
 2045POPC   C4B27670   8.389  13.794   7.575
 2046POPC   NC327671  28.042   1.428   9.560
 2046POPC   PO427672  28.159   0.791   9.481
 2046POPC   GL127673  28.432   0.993   9.153
 2046POPC   GL227674  28.401   1.362   9.142
 2046POPC   C1A27675  28.680   0.969   8.771
 2046POPC   D2A27676  28.763   1.097   8.336
 2046POPC   C3A27677  28.502   1.396   8.159
 2046POPC   C4A27678  28.277   1.311   7.772
 2046POPC   C1B27679  28.408   1.397   8.696
 2046POPC   C2B27680  28.273   1.021   8.452
 2046POPC   C3B27681  28.041   0.983   8.067
 2046POPC   C4B27682  27.813   1.010   7.689
 2047POPC   NC327683  15.452  15.893   9.505
 2047POPC   PO427684  14.809  16.176   9.401
 2047POPC   GL127685  15.139  16.119   9.166
 2047POPC   GL227686  15.085  15.756   9.157
 2047POPC   C1A27687  15.182  16.072   8.744
 2047POPC   D2A27688  14.898  16.262   8.474
 2047POPC   C3A27689  15.084  16.191   8.095
 2047POPC   C4A27690  15.323  15.854   7.923
 2047POPC   C1B27691  14.894  15.654   8.768
 2047POPC   C2B27692  15.054  15.726   8.346
 2047POPC   C3B27693  14.818  15.748   7.941
 2047POPC   C4B27694  14.659  15.683   7.534
 2048POPC   NC327695  33.442  17.693   9.558
 2048POPC   PO427696  33.812  17.134   9.689
 2048POPC   GL127697  33.766  17.357   9.257
 2048POPC   GL227698  33.886  17.706   9.318
 2048POPC   C1A27699  33.554  17.359   8.797
 2048POPC   D2A27700  33.633  17.210   8.335
 2048POPC   C3A27701  33.664  17.346   7.926
 2048POPC   C4A27702  34.051  17.302   7.731
 2048POPC   C1B27703  33.822  17.766   8.874
 2048POPC   C2B27704  33.958  17.627   8.451
 2048POPC   C3B27705  33.938  17.767   8.021
 2048POPC   C4B27706  33.550  17.842   7.819
 2049POPC   NC327707  29.402   0.778   9.407
 2049POPC   PO427708  28.931   0.222   9.466
 2049POPC   GL127709  29.036   0.484   9.140
 2049POPC   GL227710  29.357   0.318   9.140
 2049POPC   C1A27711  29.127   0.698   8.739
 2049POPC   D2A27712  29.228   0.568   8.319
 2049POPC   C3A27713  28.976   0.714   8.037
 2049POPC   C4A27714  28.749   0.452   7.770
 2049POPC   C1B27715  29.445   0.289   8.703
 2049POPC   C2B27716  29.479   0.132   8.289
 2049POPC   C3B27717  29.295   0.223   7.917
 2049POPC   C4B27718  29.304   0.581   7.682
 2050POPC   NC327719  29.719  16.580   9.545
 2050POPC   PO427720  30.221  16.994   9.476
 2050POPC   GL127721  29.984  16.748   9.143
 2050POPC   GL227722  29.600  16.659   9.065
 2050POPC   C1A27723  29.989  16.926   8.733
 2050POPC   D2A27724  30.319  16.855   8.442
 2050POPC   C3A27725  30.277  16.868   8.014
 2050POPC   C4A27726  30.012  16.667   7.735
 2050POPC   C1B27727  29.754  16.471   8.682
 2050POPC   C2B27728  29.860  16.654   8.278
 2050POPC   C3B27729  29.630  16.886   8.009
 2050POPC   C4B27730  29.470  16.638   7.693
 2051POPC   NC327731  39.026   0.886   9.859
 2051POPC   PO427732  39.296   1.375   9.462
 2051POPC   GL127733  39.196   1.263   9.050
 2051POPC   GL227734  38.827   1.286   9.061
 2051POPC   C1A27735  39.413   1.286   8.662
 2051POPC   D2A27736  39.455   1.589   8.349
 2051POPC   C3A27737  39.571   1.404   7.957
 2051POPC   C4A27738  39.571   1.579   7.543
 2051POPC   C1B27739  38.908   1.085   8.659
 2051POPC   C2B27740  39.064   1.200   8.239
 2051POPC   C3B27741  39.007   0.934   7.861
 2051POPC   C4B27742  38.945   0.978   7.408
 2052POPC   NC327743  23.214  25.053   9.894
 2052POPC   PO427744  22.626  25.203   9.561
 2052POPC   GL127745  22.803  25.192   9.172
 2052POPC   GL227746  23.075  25.435   9.205
 2052POPC   C1A27747  22.792  24.919   8.812
 2052POPC   D2A27748  22.917  25.100   8.435
 2052POPC   C3A27749  22.867  24.937   8.052
 2052POPC   C4A27750  22.477  25.035   7.812
 2052POPC   C1B27751  23.201  25.361   8.786
 2052POPC   C2B27752  23.358  25.352   8.359
 2052POPC   C3B27753  23.172  25.346   7.981
 2052POPC   C4B27754  22.762  25.450   7.891
 2053POPC   NC327755  10.639   6.031   9.753
 2053POPC   PO427756  10.698   5.398   9.656
 2053POPC   GL127757  10.654   5.655   9.261
 2053POPC   GL227758  10.578   6.021   9.232
 2053POPC   C1A27759  10.470   5.678   8.847
 2053POPC   D2A27760  10.701   5.665   8.454
 2053POPC   C3A27761  10.481   5.722   8.071
 2053POPC   C4A27762  10.482   6.056   7.784
 2053POPC   C1B27763  10.842   6.081   8.861
 2053POPC   C2B27764  10.954   6.196   8.423
 2053POPC   C3B27765  10.951   6.070   7.970
 2053POPC   C4B27766  10.949   6.041   7.521
 2054POPC   NC327767  37.736   0.171   9.472
 2054POPC   PO427768  37.947   0.795   9.625
 2054POPC   GL127769  37.740   0.647   9.205
 2054POPC   GL227770  37.841   0.345   9.002
 2054POPC   C1A27771  37.495   0.634   8.790
 2054POPC   D2A27772  37.687   0.573   8.372
 2054POPC   C3A27773  37.524   0.537   7.942
 2054POPC   C4A27774  37.862   0.417   7.648
 2054POPC   C1B27775  37.486   0.100   8.844
 2054POPC   C2B27776  37.477  44.909   8.444
 2054POPC   C3B27777  37.341   0.051   8.033
 2054POPC   C4B27778  37.511   0.077   7.600
 2055POPC   NC327779  28.795  43.058   9.507
 2055POPC   PO427780  29.442  43.065   9.480
 2055POPC   GL127781  29.245  42.933   9.096
 2055POPC   GL227782  28.976  43.136   9.014
 2055POPC   C1A27783  29.147  42.878   8.631
 2055POPC   D2A27784  28.968  43.140   8.296
 2055POPC   C3A27785  29.023  42.988   7.858
 2055POPC   C4A27786  28.796  42.778   7.471
 2055POPC   C1B27787  28.731  43.413   8.725
 2055POPC   C2B27788  28.762  43.615   8.309
 2055POPC   C3B27789  28.833  43.481   7.890
 2055POPC   C4B27790  28.598  43.204   7.663
 2056POPC   NC327791  37.352  35.245   9.360
 2056POPC   PO427792  38.015  35.268   9.435
 2056POPC   GL127793  37.922  35.335   9.017
 2056POPC   GL227794  37.631  35.130   8.955
 2056POPC   C1A27795  37.973  35.151   8.602
 2056POPC   D2A27796  37.572  35.017   8.423
 2056POPC   C3A27797  37.541  35.337   8.122
 2056POPC   C4A27798  37.796  35.322   7.718
 2056POPC   C1B27799  37.413  35.423   8.692
 2056POPC   C2B27800  37.215  35.739   8.423
 2056POPC   C3B27801  37.247  35.907   7.994
 2056POPC   C4B27802  37.357  35.568   7.712
 2057POPC   NC327803   9.600  37.609   9.335
 2057POPC   PO427804  10.092  37.816   9.771
 2057POPC   GL127805  10.042  37.836   9.248
 2057POPC   GL227806   9.954  37.500   9.010
 2057POPC   C1A27807  10.077  37.888   8.750
 2057POPC   D2A27808   9.945  37.662   8.374
 2057POPC   C3A27809   9.992  37.833   7.976
 2057POPC   C4A27810  10.100  37.625   7.617
 2057POPC   C1B27811   9.598  37.470   8.710
 2057POPC   C2B27812   9.453  37.352   8.296
 2057POPC   C3B27813   9.642  37.478   7.913
 2057POPC   C4B27814   9.616  37.619   7.470
 2058POPC   NC327815  39.151  36.160   9.512
 2058POPC   PO427816  39.726  35.837   9.750
 2058POPC   GL127817  39.654  36.094   9.299
 2058POPC   GL227818  39.393  36.320   9.113
 2058POPC   C1A27819  39.677  36.087   8.792
 2058POPC   D2A27820  39.577  36.470   8.532
 2058POPC   C3A27821  39.507  36.410   8.105
 2058POPC   C4A27822  39.661  36.070   7.881
 2058POPC   C1B27823  39.169  36.205   8.725
 2058POPC   C2B27824  39.031  36.340   8.306
 2058POPC   C3B27825  39.122  36.122   7.931
 2058POPC   C4B27826  39.008  35.953   7.575
 2059POPC   NC327827  41.271  10.302   9.563
 2059POPC   PO427828  41.867  10.455   9.699
 2059POPC   GL127829  41.618  10.590   9.295
 2059POPC   GL227830  41.265  10.618   9.179
 2059POPC   C1A27831  41.613  10.451   8.858
 2059POPC   D2A27832  41.901  10.390   8.513
 2059POPC   C3A27833  41.797  10.560   8.106
 2059POPC   C4A27834  41.778  10.233   7.812
 2059POPC   C1B27835  41.160  10.759   8.779
 2059POPC   C2B27836  41.336  10.592   8.418
 2059POPC   C3B27837  41.275  10.476   8.006
 2059POPC   C4B27838  41.416  10.707   7.700
 2060POPC   NC327839   6.566   5.964   9.988
 2060POPC   PO427840   6.625   5.980   9.341
 2060POPC   GL127841   6.492   6.103   8.972
 2060POPC   GL227842   6.330   5.793   8.875
 2060POPC   C1A27843   6.520   6.203   8.577
 2060POPC   D2A27844   6.634   5.924   8.334
 2060POPC   C3A27845   6.808   6.070   8.048
 2060POPC   C4A27846   6.566   5.968   7.757
 2060POPC   C1B27847   6.693   5.581   8.696
 2060POPC   C2B27848   6.923   5.501   8.289
 2060POPC   C3B27849   6.925   5.603   7.847
 2060POPC   C4B27850   6.636   5.528   7.486
 2061POPC   NC327851   0.662  15.851   9.569
 2061POPC   PO427852   0.023  16.090   9.499
 2061POPC   GL127853   0.172  16.050   9.110
 2061POPC   GL227854   0.454  15.854   9.097
 2061POPC   C1A27855   0.261  16.252   8.723
 2061POPC   D2A27856   0.178  16.211   8.323
 2061POPC   C3A27857   0.303  15.813   8.205
 2061POPC   C4A27858   0.334  15.967   7.834
 2061POPC   C1B27859   0.696  15.965   8.738
 2061POPC   C2B27860   0.727  16.101   8.304
 2061POPC   C3B27861   0.895  15.995   7.901
 2061POPC   C4B27862   0.694  15.790   7.561
 2062POPC   NC327863  24.560  19.759   9.450
 2062POPC   PO427864  24.046  20.043   9.707
 2062POPC   GL127865  24.055  19.813   9.223
 2062POPC   GL227866  24.304  19.533   9.093
 2062POPC   C1A27867  24.189  19.882   8.747
 2062POPC   D2A27868  24.430  19.703   8.401
 2062POPC   C3A27869  24.339  19.900   8.039
 2062POPC   C4A27870  24.572  20.006   7.681
 2062POPC   C1B27871  24.677  19.445   8.776
 2062POPC   C2B27872  24.715  19.271   8.346
 2062POPC   C3B27873  24.606  19.485   7.927
 2062POPC   C4B27874  24.572  19.533   7.446
 2063POPC   NC327875  28.853  22.154   9.443
 2063POPC   PO427876  29.336  21.846   9.221
 2063POPC   GL127877  29.028  22.104   8.969
 2063POPC   GL227878  28.722  21.902   8.910
 2063POPC   C1A27879  28.988  22.295   8.564
 2063POPC   D2A27880  28.773  22.244   8.190
 2063POPC   C3A27881  28.980  22.274   7.809
 2063POPC   C4A27882  29.109  22.214   7.366
 2063POPC   C1B27883  29.039  21.777   8.573
 2063POPC   C2B27884  29.096  21.859   8.118
 2063POPC   C3B27885  29.335  21.899   7.719
 2063POPC   C4B27886  29.238  21.707   7.310
 2064POPC   NC327887  29.101  35.669   9.432
 2064POPC   PO427888  29.198  35.008   9.490
 2064POPC   GL127889  29.188  35.266   9.084
 2064POPC   GL227890  29.405  35.550   9.033
 2064POPC   C1A27891  29.060  35.423   8.651
 2064POPC   D2A27892  29.055  35.492   8.193
 2064POPC   C3A27893  29.151  35.191   7.855
 2064POPC   C4A27894  29.050  34.780   7.711
 2064POPC   C1B27895  29.406  35.814   8.626
 2064POPC   C2B27896  29.428  35.871   8.159
 2064POPC   C3B27897  29.312  35.677   7.754
 2064POPC   C4B27898  29.364  35.478   7.333
 2065POPC   NC327899  35.538  26.512   9.441
 2065POPC   PO427900  35.815  27.071   9.434
 2065POPC   GL127901  35.469  27.146   9.099
 2065POPC   GL227902  35.173  27.294   9.248
 2065POPC   C1A27903  35.424  27.066   8.618
 2065POPC   D2A27904  35.686  26.784   8.302
 2065POPC   C3A27905  35.516  26.733   7.913
 2065POPC   C4A27906  35.176  26.496   7.998
 2065POPC   C1B27907  34.928  27.219   8.874
 2065POPC   C2B27908  34.990  27.343   8.457
 2065POPC   C3B27909  35.171  27.131   8.136
 2065POPC   C4B27910  35.043  26.955   7.779
 2066POPC   NC327911  15.772  38.467   9.535
 2066POPC   PO427912  16.396  38.289   9.545
 2066POPC   GL127913  16.132  38.299   9.161
 2066POPC   GL227914  15.794  38.114   9.173
 2066POPC   C1A27915  16.236  38.355   8.705
 2066POPC   D2A27916  16.099  38.614   8.356
 2066POPC   C3A27917  16.072  38.462   7.938
 2066POPC   C4A27918  15.930  38.532   7.500
 2066POPC   C1B27919  15.743  38.258   8.727
 2066POPC   C2B27920  15.751  38.204   8.252
 2066POPC   C3B27921  15.749  38.115   7.766
 2066POPC   C4B27922  15.488  37.870   7.431
 2067POPC   NC327923  15.887  19.961   9.581
 2067POPC   PO427924  16.144  19.393   9.777
 2067POPC   GL127925  16.075  19.553   9.256
 2067POPC   GL227926  15.870  19.804   9.116
 2067POPC   C1A27927  16.168  19.730   8.755
 2067POPC   D2A27928  15.851  19.606   8.432
 2067POPC   C3A27929  15.963  19.718   8.030
 2067POPC   C4A27930  15.955  19.950   7.659
 2067POPC   C1B27931  15.734  20.014   8.750
 2067POPC   C2B27932  15.690  20.093   8.313
 2067POPC   C3B27933  15.947  20.305   8.024
 2067POPC   C4B27934  16.299  20.303   7.765
 2068POPC   NC327935  31.526  10.440   9.719
 2068POPC   PO427936  31.078  10.815   9.485
 2068POPC   GL127937  31.393  10.531   9.219
 2068POPC   GL227938  31.733  10.664   9.115
 2068POPC   C1A27939  31.539  10.345   8.799
 2068POPC   D2A27940  31.419  10.081   8.450
 2068POPC   C3A27941  31.539  10.311   8.108
 2068POPC   C4A27942  31.764  10.520   7.797
 2068POPC   C1B27943  31.835  10.792   8.700
 2068POPC   C2B27944  31.865  10.793   8.242
 2068POPC   C3B27945  31.894  10.997   7.820
 2068POPC   C4B27946  31.772  10.960   7.363
 2069POPC   NC327947   5.268  42.265   9.624
 2069POPC   PO427948   4.760  42.664   9.398
 2069POPC   GL127949   5.127  42.497   9.146
 2069POPC   GL227950   5.155  42.121   9.041
 2069POPC   C1A27951   5.133  42.494   8.719
 2069POPC   D2A27952   5.186  42.259   8.347
 2069POPC   C3A27953   5.200  42.498   7.961
 2069POPC   C4A27954   5.309  42.240   7.613
 2069POPC   C1B27955   4.801  42.119   8.721
 2069POPC   C2B27956   4.745  41.995   8.278
 2069POPC   C3B27957   4.791  42.208   7.866
 2069POPC   C4B27958   4.520  42.212   7.484
 2070POPC   NC327959  19.658  44.280   9.825
 2070POPC   PO427960  20.039  43.738   9.622
 2070POPC   GL127961  19.934  43.834   9.221
 2070POPC   GL227962  19.828  43.511   9.161
 2070POPC   C1A27963  19.963  44.034   8.797
 2070POPC   D2A27964  20.152  44.074   8.377
 2070POPC   C3A27965  20.003  44.056   7.928
 2070POPC   C4A27966  20.143  44.102   7.480
 2070POPC   C1B27967  19.665  43.617   8.765
 2070POPC   C2B27968  19.683  43.790   8.339
 2070POPC   C3B27969  19.568  43.763   7.900
 2070POPC   C4B27970  19.586  44.105   7.599
 2071POPC   NC327971   2.280   8.431   9.553
 2071POPC   PO427972   1.687   8.104   9.628
 2071POPC   GL127973   1.892   8.221   9.226
 2071POPC   GL227974   1.851   7.892   9.116
 2071POPC   C1A27975   2.195   8.382   8.871
 2071POPC   D2A27976   2.326   8.278   8.407
 2071POPC   C3A27977   2.027   8.332   8.003
 2071POPC   C4A27978   2.137   8.400   7.541
 2071POPC   C1B27979   1.831   8.068   8.711
 2071POPC   C2B27980   1.971   7.925   8.336
 2071POPC   C3B27981   2.242   7.894   8.006
 2071POPC   C4B27982   1.980   7.935   7.614
 2072POPC   NC327983  12.536   5.248   9.310
 2072POPC   PO427984  12.932   4.679   9.391
 2072POPC   GL127985  12.870   4.935   9.085
 2072POPC   GL227986  13.062   5.229   9.128
 2072POPC   C1A27987  12.713   5.037   8.714
 2072POPC   D2A27988  12.909   4.866   8.393
 2072POPC   C3A27989  12.622   4.855   8.107
 2072POPC   C4A27990  12.650   5.120   7.757
 2072POPC   C1B27991  12.986   5.457   8.728
 2072POPC   C2B27992  12.828   5.371   8.299
 2072POPC   C3B27993  13.049   5.510   7.940
 2072POPC   C4B27994  13.042   5.434   7.508
 2073POPC   NC327995  22.539  36.905   9.483
 2073POPC   PO427996  21.774  36.980   9.461
 2073POPC   GL127997  22.095  37.019   9.193
 2073POPC   GL227998  22.178  36.704   9.080
 2073POPC   C1A27999  22.021  37.100   8.768
 2073POPC   D2A28000  22.145  36.917   8.397
 2073POPC   C3A28001  21.993  37.170   8.041
 2073POPC   C4A28002  21.983  36.932   7.677
 2073POPC   C1B28003  22.289  36.465   8.740
 2073POPC   C2B28004  22.438  36.497   8.328
 2073POPC   C3B28005  22.233  36.532   7.941
 2073POPC   C4B28006  22.332  36.597   7.525
 2074POPC   NC328007   2.446  43.831   9.615
 2074POPC   PO428008   2.929  44.211   9.597
 2074POPC   GL128009   2.987  43.995   9.201
 2074POPC   GL228010   2.723  43.746   9.109
 2074POPC   C1A28011   3.163  43.887   8.787
 2074POPC   D2A28012   2.951  43.860   8.425
 2074POPC   C3A28013   2.954  43.987   8.024
 2074POPC   C4A28014   2.890  43.601   7.797
 2074POPC   C1B28015   2.629  44.082   8.795
 2074POPC   C2B28016   2.505  44.098   8.329
 2074POPC   C3B28017   2.455  43.707   8.071
 2074POPC   C4B28018   2.397  43.525   7.663
 2075POPC   NC328019  33.744  11.029   9.584
 2075POPC   PO428020  34.256  11.486   9.435
 2075POPC   GL128021  33.896  11.524   9.149
 2075POPC   GL228022  33.744  11.227   9.124
 2075POPC   C1A28023  33.759  11.559   8.721
 2075POPC   D2A28024  33.755  11.296   8.323
 2075POPC   C3A28025  33.838  11.542   7.957
 2075POPC   C4A28026  34.118  11.260   7.752
 2075POPC   C1B28027  33.826  11.036   8.762
 2075POPC   C2B28028  33.474  10.904   8.557
 2075POPC   C3B28029  33.421  10.901   8.140
 2075POPC   C4B28030  33.630  11.111   7.792
 2076POPC   NC328031  14.708   1.297   9.353
 2076POPC   PO428032  14.248   0.820   9.415
 2076POPC   GL128033  14.406   1.017   9.050
 2076POPC   GL228034  14.319   1.393   9.025
 2076POPC   C1A28035  14.391   1.004   8.625
 2076POPC   D2A28036  14.173   0.811   8.300
 2076POPC   C3A28037  14.429   0.908   7.953
 2076POPC   C4A28038  14.440   1.301   7.780
 2076POPC   C1B28039  14.654   1.450   8.709
 2076POPC   C2B28040  14.697   1.579   8.270
 2076POPC   C3B28041  14.776   1.683   7.837
 2076POPC   C4B28042  14.716   1.490   7.403
 2077POPC   NC328043  34.274  12.593   9.515
 2077POPC   PO428044  34.945  12.803   9.488
 2077POPC   GL128045  34.603  12.806   9.191
 2077POPC   GL228046  34.798  12.603   9.020
 2077POPC   C1A28047  34.420  12.928   8.779
 2077POPC   D2A28048  34.296  12.760   8.364
 2077POPC   C3A28049  34.507  12.886   8.015
 2077POPC   C4A28050  34.796  12.668   7.811
 2077POPC   C1B28051  34.942  13.015   8.857
 2077POPC   C2B28052  34.868  12.943   8.446
 2077POPC   C3B28053  34.987  13.083   8.092
 2077POPC   C4B28054  34.775  13.206   7.708
 2078POPC   NC328055   6.069   3.446   9.377
 2078POPC   PO428056   5.437   3.197   9.522
 2078POPC   GL128057   5.508   3.319   9.095
 2078POPC   GL228058   5.635   3.615   9.124
 2078POPC   C1A28059   5.522   3.437   8.641
 2078POPC   D2A28060   5.867   3.468   8.346
 2078POPC   C3A28061   5.791   3.379   7.934
 2078POPC   C4A28062   5.922   3.447   7.495
 2078POPC   C1B28063   5.941   3.714   8.787
 2078POPC   C2B28064   6.113   3.927   8.403
 2078POPC   C3B28065   6.034   3.861   8.006
 2078POPC   C4B28066   6.160   3.873   7.607
 2079POPC   NC328067  11.489  33.696   9.545
 2079POPC   PO428068  11.004  34.273   9.556
 2079POPC   GL128069  11.054  33.878   9.226
 2079POPC   GL228070  11.380  33.694   9.073
 2079POPC   C1A28071  11.061  33.933   8.781
 2079POPC   D2A28072  11.048  33.687   8.433
 2079POPC   C3A28073  11.165  33.881   8.058
 2079POPC   C4A28074  11.020  33.771   7.692
 2079POPC   C1B28075  11.538  33.705   8.656
 2079POPC   C2B28076  11.536  33.573   8.273
 2079POPC   C3B28077  11.537  33.579   7.855
 2079POPC   C4B28078  11.524  33.508   7.444
 2080POPC   NC328079   0.802  21.954   9.335
 2080POPC   PO428080   1.031  22.579   9.578
 2080POPC   GL128081   1.147  22.368   9.178
 2080POPC   GL228082   1.343  22.039   9.202
 2080POPC   C1A28083   1.127  22.295   8.782
 2080POPC   D2A28084   1.365  22.419   8.472
 2080POPC   C3A28085   1.173  22.541   8.150
 2080POPC   C4A28086   1.281  22.393   7.775
 2080POPC   C1B28087   1.586  22.089   8.815
 2080POPC   C2B28088   1.414  21.906   8.451
 2080POPC   C3B28089   1.172  21.982   8.079
 2080POPC   C4B28090   1.235  21.871   7.655
 2081POPC   NC328091  33.273  27.978   9.592
 2081POPC   PO428092  32.979  28.555   9.599
 2081POPC   GL128093  33.130  28.343   9.229
 2081POPC   GL228094  32.949  28.050   9.097
 2081POPC   C1A28095  33.154  28.418   8.788
 2081POPC   D2A28096  33.007  28.346   8.378
 2081POPC   C3A28097  33.204  28.435   8.024
 2081POPC   C4A28098  32.975  28.704   7.734
 2081POPC   C1B28099  32.681  28.148   8.725
 2081POPC   C2B28100  32.663  27.971   8.300
 2081POPC   C3B28101  32.534  27.968   7.882
 2081POPC   C4B28102  32.875  28.203   7.721
 2082POPC   NC328103  11.905   5.881   9.544
 2082POPC   PO428104  12.387   5.623   9.097
 2082POPC   GL128105  12.105   6.012   9.091
 2082POPC   GL228106  11.718   6.091   9.107
 2082POPC   C1A28107  12.030   6.211   8.702
 2082POPC   D2A28108  12.267   6.162   8.316
 2082POPC   C3A28109  12.192   5.857   7.988
 2082POPC   C4A28110  12.429   6.088   7.698
 2082POPC   C1B28111  11.769   5.785   8.771
 2082POPC   C2B28112  11.794   5.876   8.331
 2082POPC   C3B28113  11.836   6.231   8.030
 2082POPC   C4B28114  11.925   6.117   7.614
 2083POPC   NC328115  41.831  21.998   9.535
 2083POPC   PO428116  42.557  21.908   9.513
 2083POPC   GL128117  42.387  22.117   9.160
 2083POPC   GL228118  42.596  22.362   9.087
 2083POPC   C1A28119  42.357  22.089   8.688
 2083POPC   D2A28120  42.127  21.814   8.394
 2083POPC   C3A28121  41.999  22.116   8.096
 2083POPC   C4A28122  42.224  22.332   7.807
 2083POPC   C1B28123  42.821  22.016   8.883
 2083POPC   C2B28124  42.903  22.069   8.432
 2083POPC   C3B28125  42.734  22.145   7.994
 2083POPC   C4B28126  42.658  22.305   7.551
 2084POPC   NC328127  30.078  25.203   9.568
 2084POPC   PO428128  29.454  25.141   9.466
 2084POPC   GL128129  29.758  25.004   9.209
 2084POPC   GL228130  29.847  25.328   9.071
 2084POPC   C1A28131  29.868  24.859   8.823
 2084POPC   D2A28132  29.984  25.110   8.482
 2084POPC   C3A28133  29.898  25.005   8.080
 2084POPC   C4A28134  29.959  25.250   7.740
 2084POPC   C1B28135  30.044  25.548   8.746
 2084POPC   C2B28136  30.209  25.596   8.370
 2084POPC   C3B28137  30.361  25.400   8.046
 2084POPC   C4B28138  30.363  25.568   7.631
 2085POPC   NC328139  37.259  37.527   9.736
 2085POPC   PO428140  36.658  37.293   9.522
 2085POPC   GL128141  36.871  37.547   9.188
 2085POPC   GL228142  37.197  37.716   9.235
 2085POPC   C1A28143  37.097  37.528   8.774
 2085POPC   D2A28144  37.026  37.256   8.411
 2085POPC   C3A28145  36.852  37.467   8.079
 2085POPC   C4A28146  37.034  37.726   7.767
 2085POPC   C1B28147  37.299  38.050   8.903
 2085POPC   C2B28148  37.323  38.167   8.459
 2085POPC   C3B28149  37.128  38.135   8.053
 2085POPC   C4B28150  37.092  38.218   7.614
 2086POPC   NC328151  13.353  32.255   9.498
 2086POPC   PO428152  14.003  32.091   9.588
 2086POPC   GL128153  13.834  32.258   9.220
 2086POPC   GL228154  14.013  32.545   9.120
 2086POPC   C1A28155  13.532  32.216   8.884
 2086POPC   D2A28156  13.461  32.078   8.483
 2086POPC   C3A28157  13.328  32.399   8.183
 2086POPC   C4A28158  13.292  32.504   7.741
 2086POPC   C1B28159  14.011  32.279   8.722
 2086POPC   C2B28160  13.845  32.349   8.285
 2086POPC   C3B28161  13.830  32.216   7.854
 2086POPC   C4B28162  14.132  32.291   7.505
 2087POPC   NC328163  22.822   4.474   9.144
 2087POPC   PO428164  23.081   3.979   9.538
 2087POPC   GL128165  23.081   3.979   9.038
 2087POPC   GL228166  22.746   4.011   8.893
 2087POPC   C1A28167  23.089   3.959   8.525
 2087POPC   D2A28168  23.032   4.351   8.254
 2087POPC   C3A28169  23.132   4.447   7.812
 2087POPC   C4A28170  23.027   4.629   7.401
 2087POPC   C1B28171  22.601   4.318   8.573
 2087POPC   C2B28172  22.561   4.684   8.349
 2087POPC   C3B28173  22.674   4.622   7.950
 2087POPC   C4B28174  22.451   4.595   7.575
 2088POPC   NC328175   6.950  13.331   9.577
 2088POPC   PO428176   7.557  13.720   9.473
 2088POPC   GL128177   7.397  13.646   9.098
 2088POPC   GL228178   7.455  13.304   9.051
 2088POPC   C1A28179   7.335  13.613   8.650
 2088POPC   D2A28180   7.373  13.800   8.256
 2088POPC   C3A28181   7.358  13.640   7.821
 2088POPC   C4A28182   7.045  13.461   7.549
 2088POPC   C1B28183   7.805  13.375   8.716
 2088POPC   C2B28184   7.942  13.436   8.314
 2088POPC   C3B28185   7.670  13.285   7.987
 2088POPC   C4B28186   7.660  13.302   7.528
 2089POPC   NC328187  33.912  21.609   9.331
 2089POPC   PO428188  34.172  22.198   9.651
 2089POPC   GL128189  34.004  22.111   9.227
 2089POPC   GL228190  34.023  22.479   9.138
 2089POPC   C1A28191  33.836  21.992   8.825
 2089POPC   D2A28192  33.996  21.841   8.432
 2089POPC   C3A28193  33.792  22.000   8.092
 2089POPC   C4A28194  33.872  21.968   7.646
 2089POPC   C1B28195  33.930  22.502   8.713
 2089POPC   C2B28196  33.784  22.476   8.298
 2089POPC   C3B28197  33.931  22.442   7.889
 2089POPC   C4B28198  33.669  22.656   7.617
 2090POPC   NC328199  41.728  18.385   9.355
 2090POPC   PO428200  41.131  17.994   9.400
 2090POPC   GL128201  41.412  18.152   9.037
 2090POPC   GL228202  41.780  17.986   9.077
 2090POPC   C1A28203  41.704  18.250   8.647
 2090POPC   D2A28204  41.795  18.372   8.194
 2090POPC   C3A28205  41.461  18.287   7.891
 2090POPC   C4A28206  41.144  18.613   7.827
 2090POPC   C1B28207  41.848  17.752   8.732
 2090POPC   C2B28208  41.859  17.872   8.293
 2090POPC   C3B28209  41.877  17.984   7.852
 2090POPC   C4B28210  41.899  18.090   7.375
 2091POPC   NC328211  37.923   4.067   9.490
 2091POPC   PO428212  37.288   3.999   9.475
 2091POPC   GL128213  37.519   4.369   9.200
 2091POPC   GL228214  37.858   4.462   9.178
 2091POPC   C1A28215  37.646   4.560   8.734
 2091POPC   D2A28216  37.480   4.325   8.386
 2091POPC   C3A28217  37.610   4.539   8.033
 2091POPC   C4A28218  37.647   4.366   7.628
 2091POPC   C1B28219  37.928   4.158   8.812
 2091POPC   C2B28220  37.979   4.295   8.351
 2091POPC   C3B28221  38.068   4.374   7.908
 2091POPC   C4B28222  38.005   4.671   7.497
 2092POPC   NC328223  22.225  23.163   9.423
 2092POPC   PO428224  22.380  22.514   9.282
 2092POPC   GL128225  22.249  22.816   9.009
 2092POPC   GL228226  21.954  22.947   9.059
 2092POPC   C1A28227  22.338  22.988   8.616
 2092POPC   D2A28228  22.281  22.833   8.203
 2092POPC   C3A28229  22.401  23.126   7.912
 2092POPC   C4A28230  22.020  23.171   7.722
 2092POPC   C1B28231  21.869  23.190   8.723
 2092POPC   C2B28232  21.985  23.281   8.313
 2092POPC   C3B28233  21.680  23.394   8.027
 2092POPC   C4B28234  21.534  23.279   7.620
 2093POPC   NC328235  15.368  42.554   9.397
 2093POPC   PO428236  15.040  43.118   9.513
 2093POPC   GL128237  15.386  43.218   9.238
 2093POPC   GL228238  15.384  42.931   9.072
 2093POPC   C1A28239  15.423  43.349   8.789
 2093POPC   D2A28240  15.352  43.146   8.384
 2093POPC   C3A28241  15.239  43.386   8.017
 2093POPC   C4A28242  14.956  43.247   7.719
 2093POPC   C1B28243  15.330  42.713   8.719
 2093POPC   C2B28244  15.001  42.734   8.437
 2093POPC   C3B28245  15.067  42.881   8.053
 2093POPC   C4B28246  15.213  42.748   7.698
 2094POPC   NC328247  16.517  29.094   9.431
 2094POPC   PO428248  17.130  29.313   9.435
 2094POPC   GL128249  16.901  29.190   9.061
 2094POPC   GL228250  16.591  29.380   9.020
 2094POPC   C1A28251  16.874  29.258   8.610
 2094POPC   D2A28252  16.803  29.296   8.164
 2094POPC   C3A28253  17.085  29.248   7.843
 2094POPC   C4A28254  17.230  29.459   7.479
 2094POPC   C1B28255  16.447  29.031   8.769
 2094POPC   C2B28256  16.515  28.889   8.343
 2094POPC   C3B28257  16.438  29.018   7.942
 2094POPC   C4B28258  16.580  28.859   7.580
 2095POPC   NC328259   6.118  17.875   9.250
 2095POPC   PO428260   6.266  17.242   9.230
 2095POPC   GL128261   5.845  17.424   9.136
 2095POPC   GL228262   5.772  17.726   8.906
 2095POPC   C1A28263   5.574  17.282   8.829
 2095POPC   D2A28264   5.479  17.354   8.406
 2095POPC   C3A28265   5.757  17.618   8.123
 2095POPC   C4A28266   5.821  17.497   7.692
 2095POPC   C1B28267   6.005  17.480   8.602
 2095POPC   C2B28268   6.339  17.223   8.469
 2095POPC   C3B28269   6.450  17.143   8.061
 2095POPC   C4B28270   6.242  17.232   7.686
 2096POPC   NC328271  35.943   9.971   9.693
 2096POPC   PO428272  36.389   9.498   9.479
 2096POPC   GL128273  36.212   9.820   9.160
 2096POPC   GL228274  35.876   9.986   9.186
 2096POPC   C1A28275  36.189   9.933   8.755
 2096POPC   D2A28276  36.359   9.811   8.399
 2096POPC   C3A28277  36.064   9.633   8.117
 2096POPC   C4A28278  36.228   9.600   7.738
 2096POPC   C1B28279  35.683   9.985   8.789
 2096POPC   C2B28280  35.852  10.080   8.350
 2096POPC   C3B28281  35.757   9.998   7.903
 2096POPC   C4B28282  35.975   9.975   7.533
 2097POPC   NC328283   4.266   6.889   9.476
 2097POPC   PO428284   4.520   6.279   9.508
 2097POPC   GL128285   4.467   6.458   9.143
 2097POPC   GL228286   4.676   6.733   9.199
 2097POPC   C1A28287   4.144   6.463   8.830
 2097POPC   D2A28288   3.922   6.525   8.448
 2097POPC   C3A28289   4.158   6.379   8.103
 2097POPC   C4A28290   4.112   6.486   7.682
 2097POPC   C1B28291   4.453   6.885   8.833
 2097POPC   C2B28292   4.400   6.726   8.419
 2097POPC   C3B28293   4.318   6.863   7.991
 2097POPC   C4B28294   4.540   6.758   7.620
 2098POPC   NC328295  13.575  38.628   9.900
 2098POPC   PO428296  13.340  38.074   9.527
 2098POPC   GL128297  13.580  38.347   9.190
 2098POPC   GL228298  13.445  38.626   8.983
 2098POPC   C1A28299  13.635  38.260   8.704
 2098POPC   D2A28300  13.523  38.473   8.295
 2098POPC   C3A28301  13.672  38.253   7.881
 2098POPC   C4A28302  13.703  38.223   7.397
 2098POPC   C1B28303  13.737  38.758   8.711
 2098POPC   C2B28304  13.972  38.837   8.351
 2098POPC   C3B28305  13.809  38.776   7.957
 2098POPC   C4B28306  13.954  38.667   7.553
 2099POPC   NC328307  40.611  40.977   9.474
 2099POPC   PO428308  41.097  40.587   9.485
 2099POPC   GL128309  40.881  40.786   9.090
 2099POPC   GL228310  40.468  40.706   9.074
 2099POPC   C1A28311  40.691  40.983   8.694
 2099POPC   D2A28312  40.561  40.971   8.256
 2099POPC   C3A28313  40.731  41.125   7.843
 2099POPC   C4A28314  40.545  40.849   7.510
 2099POPC   C1B28315  40.647  40.476   8.749
 2099POPC   C2B28316  40.900  40.544   8.408
 2099POPC   C3B28317  40.855  40.651   7.991
 2099POPC   C4B28318  40.769  40.421   7.631
 2100POPC   NC328319  40.594   1.227   9.536
 2100POPC   PO428320  41.192   1.256   9.460
 2100POPC   GL128321  40.906   1.370   9.142
 2100POPC   GL228322  40.574   1.231   9.035
 2100POPC   C1A28323  40.996   1.224   8.744
 2100POPC   D2A28324  40.765   1.163   8.396
 2100POPC   C3A28325  40.816   1.264   7.992
 2100POPC   C4A28326  40.481   1.380   7.734
 2100POPC   C1B28327  40.543   0.874   8.755
 2100POPC   C2B28328  40.689   0.643   8.359
 2100POPC   C3B28329  40.679   0.770   7.932
 2100POPC   C4B28330  40.812   0.995   7.542
 2101POPC   NC328331  12.477   2.575   9.456
 2101POPC   PO428332  12.786   1.883   9.466
 2101POPC   GL128333  12.888   1.834   9.077
 2101POPC   GL228334  13.119   2.062   9.005
 2101POPC   C1A28335  12.622   1.910   8.758
 2101POPC   D2A28336  12.463   1.751   8.449
 2101POPC   C3A28337  12.737   1.756   8.200
 2101POPC   C4A28338  12.634   2.037   7.876
 2101POPC   C1B28339  12.939   2.298   8.679
 2101POPC   C2B28340  12.936   2.237   8.229
 2101POPC   C3B28341  13.063   2.278   7.782
 2101POPC   C4B28342  13.136   2.398   7.349
 2102POPC   NC328343  11.319   9.770   9.636
 2102POPC   PO428344  10.819   9.426   9.397
 2102POPC   GL128345  11.027   9.630   9.088
 2102POPC   GL228346  11.383   9.688   9.134
 2102POPC   C1A28347  11.202   9.521   8.693
 2102POPC   D2A28348  10.995   9.703   8.364
 2102POPC   C3A28349  11.204   9.595   8.025
 2102POPC   C4A28350  11.096   9.541   7.603
 2102POPC   C1B28351  11.503   9.933   8.796
 2102POPC   C2B28352  11.352  10.132   8.427
 2102POPC   C3B28353  11.547   9.980   8.074
 2102POPC   C4B28354  11.531   9.814   7.683
 2103POPC   NC328355  44.459   8.088   9.590
 2103POPC   PO428356  44.858   8.560   9.406
 2103POPC   GL128357  44.636   8.277   9.146
 2103POPC   GL228358  44.258   8.291   9.165
 2103POPC   C1A28359  44.593   8.316   8.719
 2103POPC   D2A28360  44.829   8.290   8.389
 2103POPC   C3A28361  44.589   8.299   8.069
 2103POPC   C4A28362  44.733   8.178   7.689
 2103POPC   C1B28363  44.362   7.904   8.891
 2103POPC   C2B28364  44.443   7.893   8.409
 2103POPC   C3B28365  44.405   7.849   7.930
 2103POPC   C4B28366  44.406   7.846   7.446
 2104POPC   NC328367  10.408   2.597   9.537
 2104POPC   PO428368  10.427   3.217   9.548
 2104POPC   GL128369  10.701   3.041   9.221
 2104POPC   GL228370  10.784   2.693   9.189
 2104POPC   C1A28371  10.646   3.035   8.786
 2104POPC   D2A28372  10.439   2.806   8.470
 2104POPC   C3A28373  10.364   2.933   8.044
 2104POPC   C4A28374  10.551   3.005   7.653
 2104POPC   C1B28375  10.903   2.569   8.751
 2104POPC   C2B28376  10.786   2.429   8.320
 2104POPC   C3B28377  10.664   2.559   7.908
 2104POPC   C4B28378  10.403   2.516   7.527
 2105POPC   NC328379  10.625  42.686   9.448
 2105POPC   PO428380  10.532  41.991   9.542
 2105POPC   GL128381  10.356  42.269   9.263
 2105POPC   GL228382  10.682  42.283   9.131
 2105POPC   C1A28383  10.304  42.252   8.794
 2105POPC   D2A28384  10.592  42.129   8.492
 2105POPC   C3A28385  10.410  42.157   8.095
 2105POPC   C4A28386  10.675  41.964   7.809
 2105POPC   C1B28387  10.679  42.597   8.787
 2105POPC   C2B28388  10.494  42.629   8.375
 2105POPC   C3B28389  10.483  42.630   7.928
 2105POPC   C4B28390  10.160  42.670   7.660
 2106POPC   NC328391  33.505  23.142   9.412
 2106POPC   PO428392  33.779  23.816   9.561
 2106POPC   GL128393  33.710  23.829   9.145
 2106POPC   GL228394  33.769  23.477   9.152
 2106POPC   C1A28395  33.739  23.784   8.713
 2106POPC   D2A28396  33.852  23.849   8.306
 2106POPC   C3A28397  33.610  23.781   7.979
 2106POPC   C4A28398  33.878  23.909   7.708
 2106POPC   C1B28399  34.101  23.460   8.900
 2106POPC   C2B28400  34.162  23.500   8.507
 2106POPC   C3B28401  34.148  23.315   8.136
 2106POPC   C4B28402  33.890  23.386   7.805
 2107POPC   NC328403  37.189  21.205   9.497
 2107POPC   PO428404  36.558  21.514   9.660
 2107POPC   GL128405  36.825  21.517   9.231
 2107POPC   GL228406  37.181  21.575   9.118
 2107POPC   C1A28407  36.769  21.602   8.773
 2107POPC   D2A28408  36.514  21.375   8.450
 2107POPC   C3A28409  36.623  21.356   8.010
 2107POPC   C4A28410  36.798  21.314   7.590
 2107POPC   C1B28411  37.207  21.370   8.694
 2107POPC   C2B28412  37.013  21.518   8.325
 2107POPC   C3B28413  37.149  21.457   7.926
 2107POPC   C4B28414  37.372  21.339   7.545
 2108POPC   NC328415  33.929  16.847   9.344
 2108POPC   PO428416  33.298  17.202   9.426
 2108POPC   GL128417  33.461  16.937   9.111
 2108POPC   GL228418  33.454  16.567   9.066
 2108POPC   C1A28419  33.504  16.865   8.671
 2108POPC   D2A28420  33.700  16.679   8.295
 2108POPC   C3A28421  33.623  16.819   7.870
 2108POPC   C4A28422  33.712  17.028   7.472
 2108POPC   C1B28423  33.833  16.484   8.777
 2108POPC   C2B28424  34.114  16.363   8.417
 2108POPC   C3B28425  34.066  16.422   7.984
 2108POPC   C4B28426  33.985  16.605   7.571
 2109POPC   NC328427  41.117  21.966   9.352
 2109POPC   PO428428  40.690  22.410   9.471
 2109POPC   GL128429  40.599  22.415   9.055
 2109POPC   GL228430  40.475  22.084   9.037
 2109POPC   C1A28431  40.476  22.466   8.626
 2109POPC   D2A28432  40.643  22.251   8.286
 2109POPC   C3A28433  40.641  22.411   7.888
 2109POPC   C4A28434  40.728  22.249   7.455
 2109POPC   C1B28435  40.871  22.102   8.747
 2109POPC   C2B28436  41.114  22.098   8.350
 2109POPC   C3B28437  40.986  22.028   7.913
 2109POPC   C4B28438  41.211  22.185   7.551
 2110POPC   NC328439  17.671  38.399   9.564
 2110POPC   PO428440  17.255  38.860   9.395
 2110POPC   GL128441  17.492  38.554   9.133
 2110POPC   GL228442  17.863  38.664   9.027
 2110POPC   C1A28443  17.560  38.346   8.752
 2110POPC   D2A28444  17.778  38.351   8.381
 2110POPC   C3A28445  17.595  38.227   8.010
 2110POPC   C4A28446  17.542  38.340   7.599
 2110POPC   C1B28447  17.518  38.891   8.775
 2110POPC   C2B28448  17.302  38.892   8.422
 2110POPC   C3B28449  17.509  38.727   8.095
 2110POPC   C4B28450  17.448  38.815   7.711
 2111POPC   NC328451  23.615  44.231   9.474
 2111POPC   PO428452  23.831  44.883   9.501
 2111POPC   GL128453  23.802  44.651   9.130
 2111POPC   GL228454  23.479  44.521   9.026
 2111POPC   C1A28455  23.825  44.733   8.690
 2111POPC   D2A28456  23.734  44.947   8.305
 2111POPC   C3A28457  23.699  44.659   7.990
 2111POPC   C4A28458  23.620  44.424   7.633
 2111POPC   C1B28459  23.320  44.849   8.732
 2111POPC   C2B28460  23.202  44.966   8.296
 2111POPC   C3B28461  23.418   0.092   7.897
 2111POPC   C4B28462  23.652  44.924   7.519
 2112POPC   NC328463  25.277   5.159   9.535
 2112POPC   PO428464  25.903   5.178   9.408
 2112POPC   GL128465  25.550   5.237   9.091
 2112POPC   GL228466  25.217   5.419   9.078
 2112POPC   C1A28467  25.356   5.134   8.649
 2112POPC   D2A28468  25.423   5.064   8.182
 2112POPC   C3A28469  25.216   4.871   7.851
 2112POPC   C4A28470  25.321   4.659   7.437
 2112POPC   C1B28471  25.494   5.616   8.756
 2112POPC   C2B28472  25.503   5.596   8.322
 2112POPC   C3B28473  25.139   5.497   8.072
 2112POPC   C4B28474  25.024   5.306   7.686
 2113POPC   NC328475  33.460  26.558   9.618
 2113POPC   PO428476  32.833  26.892   9.500
 2113POPC   GL128477  32.946  26.834   9.118
 2113POPC   GL228478  33.275  26.939   9.057
 2113POPC   C1A28479  32.852  26.882   8.712
 2113POPC   D2A28480  33.033  26.868   8.319
 2113POPC   C3A28481  32.772  26.818   7.962
 2113POPC   C4A28482  32.788  26.893   7.516
 2113POPC   C1B28483  33.386  26.786   8.707
 2113POPC   C2B28484  33.432  26.540   8.363
 2113POPC   C3B28485  33.298  26.621   7.961
 2113POPC   C4B28486  33.283  26.799   7.556
 2114POPC   NC328487   2.120   4.581   9.453
 2114POPC   PO428488   1.707   5.182   9.371
 2114POPC   GL128489   1.803   4.824   9.121
 2114POPC   GL228490   2.168   4.852   9.042
 2114POPC   C1A28491   1.830   4.793   8.666
 2114POPC   D2A28492   1.996   4.791   8.241
 2114POPC   C3A28493   1.810   5.072   7.918
 2114POPC   C4A28494   1.689   4.973   7.494
 2114POPC   C1B28495   2.361   4.887   8.649
 2114POPC   C2B28496   2.352   5.156   8.279
 2114POPC   C3B28497   2.306   5.014   7.852
 2114POPC   C4B28498   2.136   4.719   7.533
 2115POPC   NC328499  22.284  13.280   9.491
 2115POPC   PO428500  22.220  12.635   9.516
 2115POPC   GL128501  22.233  12.708   9.147
 2115POPC   GL228502  22.088  13.039   9.092
 2115POPC   C1A28503  22.403  12.791   8.782
 2115POPC   D2A28504  22.122  12.844   8.465
 2115POPC   C3A28505  22.288  12.776   8.118
 2115POPC   C4A28506  22.280  12.741   7.756
 2115POPC   C1B28507  22.233  13.292   8.747
 2115POPC   C2B28508  22.315  13.288   8.295
 2115POPC   C3B28509  21.978  13.170   8.019
 2115POPC   C4B28510  21.735  13.230   7.666
 2116POPC   NC328511  30.095  36.992   9.656
 2116POPC   PO428512  30.781  36.866   9.539
 2116POPC   GL128513  30.677  36.759   9.141
 2116POPC   GL228514  30.670  37.093   9.072
 2116POPC   C1A28515  30.704  36.718   8.709
 2116POPC   D2A28516  30.656  37.008   8.383
 2116POPC   C3A28517  30.694  36.752   8.042
 2116POPC   C4A28518  30.782  36.693   7.606
 2116POPC   C1B28519  30.364  37.152   8.782
 2116POPC   C2B28520  30.211  37.290   8.434
 2116POPC   C3B28521  30.285  37.152   8.045
 2116POPC   C4B28522  30.662  37.179   7.780
 2117POPC   NC328523  33.489   2.425   9.239
 2117POPC   PO428524  33.989   2.743   9.517
 2117POPC   GL128525  33.928   2.856   9.086
 2117POPC   GL228526  33.961   2.525   8.965
 2117POPC   C1A28527  34.023   3.039   8.677
 2117POPC   D2A28528  33.807   3.015   8.273
 2117POPC   C3A28529  33.844   2.724   7.954
 2117POPC   C4A28530  34.215   2.671   7.688
 2117POPC   C1B28531  33.677   2.659   8.651
 2117POPC   C2B28532  33.400   2.703   8.333
 2117POPC   C3B28533  33.346   2.980   8.037
 2117POPC   C4B28534  33.441   2.839   7.652
 2118POPC   NC328535  19.430  23.283   9.626
 2118POPC   PO428536  19.937  22.858   9.408
 2118POPC   GL128537  19.933  22.701   9.005
 2118POPC   GL228538  19.570  22.696   8.986
 2118POPC   C1A28539  20.053  22.594   8.566
 2118POPC   D2A28540  19.950  22.839   8.155
 2118POPC   C3A28541  19.967  22.787   7.696
 2118POPC   C4A28542  20.010  22.901   7.236
 2118POPC   C1B28543  19.672  22.931   8.594
 2118POPC   C2B28544  19.698  23.264   8.280
 2118POPC   C3B28545  19.498  23.281   7.895
 2118POPC   C4B28546  19.417  22.903   7.650
 2119POPC   NC328547  44.777  42.734   9.476
 2119POPC   PO428548   0.352  42.263   9.497
 2119POPC   GL128549   0.403  42.444   9.107
 2119POPC   GL228550   0.133  42.683   9.107
 2119POPC   C1A28551   0.563  42.245   8.720
 2119POPC   D2A28552   0.808  42.243   8.339
 2119POPC   C3A28553   0.568  42.376   7.979
 2119POPC   C4A28554   0.185  42.322   7.730
 2119POPC   C1B28555   0.196  42.602   8.668
 2119POPC   C2B28556   0.155  42.507   8.249
 2119POPC   C3B28557   0.227  42.800   7.908
 2119POPC   C4B28558   0.040  42.770   7.495
 2120POPC   NC328559  36.441  28.702   9.321
 2120POPC   PO428560  36.129  29.346   9.403
 2120POPC   GL128561  36.207  29.100   9.071
 2120POPC   GL228562  36.554  29.150   9.062
 2120POPC   C1A28563  36.091  28.879   8.691
 2120POPC   D2A28564  35.826  28.892   8.327
 2120POPC   C3A28565  36.017  28.873   7.953
 2120POPC   C4A28566  36.468  28.840   7.805
 2120POPC   C1B28567  36.583  29.013   8.633
 2120POPC   C2B28568  36.377  29.112   8.239
 2120POPC   C3B28569  36.261  29.303   7.834
 2120POPC   C4B28570  36.238  29.513   7.469
 2121POPC   NC328571  29.884   7.125   9.654
 2121POPC   PO428572  29.704   6.529   9.606
 2121POPC   GL128573  29.833   6.625   9.174
 2121POPC   GL228574  30.131   6.475   9.107
 2121POPC   C1A28575  29.742   6.430   8.748
 2121POPC   D2A28576  29.916   6.362   8.327
 2121POPC   C3A28577  29.958   6.685   8.024
 2121POPC   C4A28578  29.799   6.706   7.621
 2121POPC   C1B28579  30.229   6.653   8.723
 2121POPC   C2B28580  30.410   6.458   8.370
 2121POPC   C3B28581  30.322   6.304   7.982
 2121POPC   C4B28582  30.232   6.473   7.602
 2122POPC   NC328583   6.249  14.032   9.446
 2122POPC   PO428584   6.878  13.834   9.680
 2122POPC   GL128585   6.917  13.744   9.249
 2122POPC   GL228586   6.589  13.769   9.183
 2122POPC   C1A28587   6.918  13.442   8.911
 2122POPC   D2A28588   6.557  13.370   8.655
 2122POPC   C3A28589   6.564  13.410   8.184
 2122POPC   C4A28590   6.596  13.279   7.738
 2122POPC   C1B28591   6.719  13.901   8.787
 2122POPC   C2B28592   6.869  13.734   8.441
 2122POPC   C3B28593   6.904  13.785   8.016
 2122POPC   C4B28594   6.773  13.921   7.655
 2123POPC   NC328595  12.140   0.779   9.461
 2123POPC   PO428596  11.876   1.473   9.417
 2123POPC   GL128597  12.146   1.252   9.165
 2123POPC   GL228598  11.854   1.034   9.113
 2123POPC   C1A28599  12.274   1.396   8.755
 2123POPC   D2A28600  12.190   1.349   8.302
 2123POPC   C3A28601  11.963   1.475   7.947
 2123POPC   C4A28602  12.300   1.347   7.671
 2123POPC   C1B28603  12.094   0.918   8.759
 2123POPC   C2B28604  11.876   0.952   8.357
 2123POPC   C3B28605  12.031   0.962   7.947
 2123POPC   C4B28606  11.840   1.127   7.567
 2124POPC   NC328607  37.231   2.735   9.483
 2124POPC   PO428608  37.776   3.191   9.478
 2124POPC   GL128609  37.489   3.046   9.153
 2124POPC   GL228610  37.550   2.642   9.104
 2124POPC   C1A28611  37.567   2.958   8.723
 2124POPC   D2A28612  37.903   2.777   8.484
 2124POPC   C3A28613  37.861   2.912   8.061
 2124POPC   C4A28614  37.749   2.762   7.653
 2124POPC   C1B28615  37.479   2.455   8.687
 2124POPC   C2B28616  37.427   2.693   8.273
 2124POPC   C3B28617  37.274   2.720   7.822
 2124POPC   C4B28618  37.385   2.484   7.419
 2125POPC   NC328619  16.998  42.643   9.621
 2125POPC   PO428620  16.523  42.163   9.624
 2125POPC   GL128621  16.757  42.128   9.250
 2125POPC   GL228622  16.734  42.467   9.200
 2125POPC   C1A28623  16.714  42.038   8.804
 2125POPC   D2A28624  16.636  41.902   8.395
 2125POPC   C3A28625  16.901  41.986   8.056
 2125POPC   C4A28626  16.883  42.326   7.769
 2125POPC   C1B28627  16.713  42.589   8.782
 2125POPC   C2B28628  16.840  42.424   8.365
 2125POPC   C3B28629  16.653  42.684   8.045
 2125POPC   C4B28630  16.623  42.797   7.620
 2126POPC   NC328631  24.048  43.430   9.457
 2126POPC   PO428632  23.398  43.794   9.481
 2126POPC   GL128633  23.607  43.846   9.111
 2126POPC   GL228634  23.664  43.499   9.067
 2126POPC   C1A28635  23.732  44.139   8.777
 2126POPC   D2A28636  23.939  44.296   8.403
 2126POPC   C3A28637  23.840  44.128   7.985
 2126POPC   C4A28638  23.750  43.960   7.518
 2126POPC   C1B28639  24.006  43.680   8.812
 2126POPC   C2B28640  23.883  43.770   8.398
 2126POPC   C3B28641  23.781  43.616   7.991
 2126POPC   C4B28642  24.094  43.628   7.676
 2127POPC   NC328643   2.182  28.159   9.629
 2127POPC   PO428644   1.706  28.530   9.450
 2127POPC   GL128645   2.042  28.385   9.156
 2127POPC   GL228646   2.316  28.174   9.150
 2127POPC   C1A28647   2.197  28.507   8.764
 2127POPC   D2A28648   1.906  28.449   8.471
 2127POPC   C3A28649   1.992  28.658   8.119
 2127POPC   C4A28650   1.854  28.657   7.717
 2127POPC   C1B28651   2.331  28.009   8.764
 2127POPC   C2B28652   2.300  28.143   8.352
 2127POPC   C3B28653   2.342  28.274   7.960
 2127POPC   C4B28654   2.198  28.308   7.559
 2128POPC   NC328655  32.405  29.858   9.480
 2128POPC   PO428656  31.998  29.386   9.335
 2128POPC   GL128657  32.110  29.778   9.065
 2128POPC   GL228658  32.420  30.078   9.031
 2128POPC   C1A28659  32.117  29.940   8.654
 2128POPC   D2A28660  32.372  30.079   8.342
 2128POPC   C3A28661  32.087  30.067   8.024
 2128POPC   C4A28662  32.174  29.911   7.626
 2128POPC   C1B28663  32.574  29.701   8.836
 2128POPC   C2B28664  32.499  29.569   8.433
 2128POPC   C3B28665  32.420  29.673   8.009
 2128POPC   C4B28666  32.366  29.438   7.639
 2129POPC   NC328667  43.410   6.963   9.620
 2129POPC   PO428668  43.097   7.559   9.580
 2129POPC   GL128669  43.270   7.505   9.176
 2129POPC   GL228670  43.186   7.817   9.098
 2129POPC   C1A28671  43.207   7.436   8.740
 2129POPC   D2A28672  42.934   7.517   8.404
 2129POPC   C3A28673  43.139   7.462   8.037
 2129POPC   C4A28674  42.949   7.525   7.684
 2129POPC   C1B28675  43.475   7.877   8.762
 2129POPC   C2B28676  43.526   7.665   8.385
 2129POPC   C3B28677  43.547   7.787   7.984
 2129POPC   C4B28678  43.453   7.573   7.614
 2130POPC   NC328679  37.327  30.652   9.289
 2130POPC   PO428680  36.654  30.641   9.454
 2130POPC   GL128681  36.838  30.691   9.064
 2130POPC   GL228682  37.052  30.981   9.044
 2130POPC   C1A28683  36.960  30.553   8.653
 2130POPC   D2A28684  37.115  30.690   8.271
 2130POPC   C3A28685  36.926  30.568   7.919
 2130POPC   C4A28686  36.859  30.705   7.499
 2130POPC   C1B28687  37.312  30.967   8.664
 2130POPC   C2B28688  37.221  31.196   8.273
 2130POPC   C3B28689  37.216  30.992   7.860
 2130POPC   C4B28690  37.246  31.083   7.415
 2131POPC   NC328691  18.542  38.566   9.676
 2131POPC   PO428692  19.096  38.781   9.366
 2131POPC   GL128693  18.973  38.668   9.006
 2131POPC   GL228694  18.893  38.375   9.135
 2131POPC   C1A28695  19.199  38.579   8.635
 2131POPC   D2A28696  19.181  38.254   8.319
 2131POPC   C3A28697  19.121  38.410   7.920
 2131POPC   C4A28698  19.159  38.843   7.758
 2131POPC   C1B28699  18.879  38.202   8.767
 2131POPC   C2B28700  18.636  38.099   8.511
 2131POPC   C3B28701  18.701  38.094   8.099
 2131POPC   C4B28702  18.669  38.312   7.721
 2132POPC   NC328703   5.816   6.222   9.636
 2132POPC   PO428704   5.850   6.798   9.406
 2132POPC   GL128705   5.692   6.633   9.056
 2132POPC   GL228706   5.816   6.293   9.132
 2132POPC   C1A28707   5.792   6.804   8.636
 2132POPC   D2A28708   6.090   7.002   8.341
 2132POPC   C3A28709   6.095   6.839   7.947
 2132POPC   C4A28710   5.875   6.939   7.543
 2132POPC   C1B28711   6.068   6.381   8.807
 2132POPC   C2B28712   6.141   6.488   8.363
 2132POPC   C3B28713   6.384   6.406   8.006
 2132POPC   C4B28714   6.233   6.322   7.584
 2133POPC   NC328715  14.241  31.688   9.514
 2133POPC   PO428716  14.430  30.997   9.418
 2133POPC   GL128717  14.526  31.346   9.211
 2133POPC   GL228718  14.175  31.414   9.090
 2133POPC   C1A28719  14.547  31.358   8.763
 2133POPC   D2A28720  14.296  31.407   8.374
 2133POPC   C3A28721  14.549  31.399   8.004
 2133POPC   C4A28722  14.672  31.049   7.741
 2133POPC   C1B28723  14.227  31.763   8.763
 2133POPC   C2B28724  14.084  31.884   8.319
 2133POPC   C3B28725  14.037  31.703   7.875
 2133POPC   C4B28726  14.217  31.356   7.616
 2134POPC   NC328727  38.521  11.895   9.475
 2134POPC   PO428728  38.168  12.519   9.532
 2134POPC   GL128729  38.148  12.229   9.165
 2134POPC   GL228730  38.509  12.227   9.094
 2134POPC   C1A28731  38.248  11.939   8.782
 2134POPC   D2A28732  38.171  11.713   8.394
 2134POPC   C3A28733  38.399  11.960   8.139
 2134POPC   C4A28734  38.402  12.103   7.760
 2134POPC   C1B28735  38.745  12.367   8.763
 2134POPC   C2B28736  38.858  12.210   8.397
 2134POPC   C3B28737  38.765  12.362   8.031
 2134POPC   C4B28738  38.673  12.492   7.654
 2135POPC   NC328739  39.853  40.328   9.417
 2135POPC   PO428740  40.152  40.914   9.458
 2135POPC   GL128741  39.915  40.753   9.099
 2135POPC   GL228742  39.703  40.477   8.969
 2135POPC   C1A28743  39.886  40.854   8.681
 2135POPC   D2A28744  40.038  40.940   8.297
 2135POPC   C3A28745  39.852  40.729   7.990
 2135POPC   C4A28746  39.992  40.763   7.580
 2135POPC   C1B28747  40.126  40.401   8.772
 2135POPC   C2B28748  40.316  40.508   8.360
 2135POPC   C3B28749  40.345  40.562   7.904
 2135POPC   C4B28750  40.304  40.403   7.442
 2136POPC   NC328751   2.266  15.757   9.436
 2136POPC   PO428752   1.722  16.138   9.420
 2136POPC   GL128753   1.812  15.770   9.165
 2136POPC   GL228754   2.121  15.797   8.962
 2136POPC   C1A28755   1.645  15.751   8.753
 2136POPC   D2A28756   1.799  15.893   8.354
 2136POPC   C3A28757   1.723  15.781   7.958
 2136POPC   C4A28758   2.120  15.753   7.754
 2136POPC   C1B28759   1.933  16.172   8.783
 2136POPC   C2B28760   1.990  16.406   8.393
 2136POPC   C3B28761   2.025  16.219   7.993
 2136POPC   C4B28762   2.379  16.294   7.735
 2137POPC   NC328763  33.588  30.947   9.230
 2137POPC   PO428764  33.701  31.286   9.751
 2137POPC   GL128765  33.876  31.377   9.317
 2137POPC   GL228766  34.090  31.105   9.196
 2137POPC   C1A28767  33.936  31.608   8.914
 2137POPC   D2A28768  33.661  31.742   8.565
 2137POPC   C3A28769  33.679  31.444   8.220
 2137POPC   C4A28770  33.709  31.388   7.803
 2137POPC   C1B28771  34.308  31.277   8.841
 2137POPC   C2B28772  34.210  31.515   8.465
 2137POPC   C3B28773  34.196  31.357   8.060
 2137POPC   C4B28774  34.166  31.576   7.687
 2138POPC   NC328775   8.136  25.725   9.500
 2138POPC   PO428776   8.391  26.393   9.472
 2138POPC   GL128777   8.368  26.067   9.171
 2138POPC   GL228778   8.586  25.789   9.267
 2138POPC   C1A28779   8.082  25.972   8.820
 2138POPC   D2A28780   8.202  26.160   8.420
 2138POPC   C3A28781   7.996  26.250   8.055
 2138POPC   C4A28782   8.092  26.056   7.655
 2138POPC   C1B28783   8.483  25.638   8.842
 2138POPC   C2B28784   8.241  25.645   8.459
 2138POPC   C3B28785   8.149  25.740   8.049
 2138POPC   C4B28786   8.403  25.651   7.690
 2139POPC   NC328787  18.330  42.506   9.475
 2139POPC   PO428788  18.150  41.906   9.511
 2139POPC   GL128789  18.121  42.206   9.117
 2139POPC   GL228790  17.982  42.555   9.087
 2139POPC   C1A28791  18.361  42.323   8.710
 2139POPC   D2A28792  18.184  42.204   8.294
 2139POPC   C3A28793  18.355  42.257   7.859
 2139POPC   C4A28794  18.653  42.212   7.499
 2139POPC   C1B28795  18.078  42.740   8.659
 2139POPC   C2B28796  18.184  42.710   8.205
 2139POPC   C3B28797  18.207  42.738   7.754
 2139POPC   C4B28798  18.319  42.623   7.334
 2140POPC   NC328799  40.312  10.470   9.792
 2140POPC   PO428800  40.884  10.556   9.507
 2140POPC   GL128801  40.748  10.700   9.098
 2140POPC   GL228802  40.407  10.638   9.127
 2140POPC   C1A28803  40.669  10.533   8.679
 2140POPC   D2A28804  40.882  10.310   8.342
 2140POPC   C3A28805  40.776  10.316   7.914
 2140POPC   C4A28806  40.985  10.434   7.559
 2140POPC   C1B28807  40.252  10.891   8.827
 2140POPC   C2B28808  40.290  10.802   8.423
 2140POPC   C3B28809  40.382  10.592   8.086
 2140POPC   C4B28810  40.471  10.659   7.670
 2141POPC   NC328811  20.010  40.867   9.836
 2141POPC   PO428812  19.726  40.432   9.451
 2141POPC   GL128813  19.746  40.567   9.075
 2141POPC   GL228814  19.558  40.857   9.195
 2141POPC   C1A28815  19.938  40.655   8.685
 2141POPC   D2A28816  20.016  40.529   8.273
 2141POPC   C3A28817  19.750  40.685   7.963
 2141POPC   C4A28818  19.764  40.519   7.545
 2141POPC   C1B28819  19.649  41.073   8.809
 2141POPC   C2B28820  19.739  41.041   8.375
 2141POPC   C3B28821  19.648  41.211   7.968
 2141POPC   C4B28822  19.927  41.044   7.645
 2142POPC   NC328823  22.082  43.518   9.348
 2142POPC   PO428824  22.332  43.052   9.809
 2142POPC   GL128825  22.309  43.059   9.208
 2142POPC   GL228826  22.429  43.324   9.004
 2142POPC   C1A28827  22.024  43.057   8.806
 2142POPC   D2A28828  21.913  42.879   8.433
 2142POPC   C3A28829  22.095  42.938   8.040
 2142POPC   C4A28830  22.202  43.047   7.664
 2142POPC   C1B28831  22.526  43.007   8.740
 2142POPC   C2B28832  22.487  43.097   8.336
 2142POPC   C3B28833  22.583  42.882   7.986
 2142POPC   C4B28834  22.589  42.726   7.618
 2143POPC   NC328835  40.654  41.849   9.205
 2143POPC   PO428836  41.008  41.258   9.427
 2143POPC   GL128837  40.812  41.346   9.065
 2143POPC   GL228838  41.072  41.566   8.950
 2143POPC   C1A28839  40.632  41.494   8.668
 2143POPC   D2A28840  40.789  41.465   8.274
 2143POPC   C3A28841  40.594  41.648   7.927
 2143POPC   C4A28842  40.812  41.629   7.548
 2143POPC   C1B28843  41.051  41.828   8.569
 2143POPC   C2B28844  41.135  41.835   8.126
 2143POPC   C3B28845  40.935  42.045   7.814
 2143POPC   C4B28846  41.004  42.091   7.340
 2144POPC   NC328847  29.206  44.861   9.400
 2144POPC   PO428848  28.949  44.224   9.562
 2144POPC   GL128849  28.844  44.450   9.180
 2144POPC   GL228850  28.799  44.828   9.109
 2144POPC   C1A28851  29.033  44.444   8.770
 2144POPC   D2A28852  29.263  44.760   8.542
 2144POPC   C3A28853  29.231  44.705   8.079
 2144POPC   C4A28854  28.902  44.479   7.829
 2144POPC   C1B28855  28.942   0.124   8.765
 2144POPC   C2B28856  28.942   0.144   8.304
 2144POPC   C3B28857  28.852  44.972   7.887
 2144POPC   C4B28858  28.812   0.048   7.430
 2145POPC   NC328859  27.768  21.117   9.554
 2145POPC   PO428860  27.511  21.767   9.523
 2145POPC   GL128861  27.594  21.593   9.132
 2145POPC   GL228862  27.503  21.236   9.138
 2145POPC   C1A28863  27.785  21.542   8.725
 2145POPC   D2A28864  27.754  21.352   8.312
 2145POPC   C3A28865  27.593  21.547   7.943
 2145POPC   C4A28866  27.637  21.387   7.515
 2145POPC   C1B28867  27.549  21.054   8.719
 2145POPC   C2B28868  27.323  21.097   8.321
 2145POPC   C3B28869  27.323  21.101   7.883
 2145POPC   C4B28870  27.310  21.030   7.474
 2146POPC   NC328871  18.907  39.790   9.718
 2146POPC   PO428872  18.766  40.351   9.383
 2146POPC   GL128873  18.972  40.057   9.140
 2146POPC   GL228874  19.079  39.741   9.249
 2146POPC   C1A28875  19.091  40.191   8.755
 2146POPC   D2A28876  18.845  40.275   8.417
 2146POPC   C3A28877  19.113  40.207   8.076
 2146POPC   C4A28878  18.944  40.158   7.707
 2146POPC   C1B28879  18.963  39.634   8.827
 2146POPC   C2B28880  19.036  39.796   8.431
 2146POPC   C3B28881  18.931  39.724   8.023
 2146POPC   C4B28882  19.209  39.709   7.734
 2147POPC   NC328883  36.320  11.524   9.489
 2147POPC   PO428884  35.870  11.054   9.481
 2147POPC   GL128885  36.192  11.087   9.157
 2147POPC   GL228886  35.925  10.889   8.964
 2147POPC   C1A28887  36.440  11.275   8.772
 2147POPC   D2A28888  36.366  11.524   8.380
 2147POPC   C3A28889  36.551  11.507   7.978
 2147POPC   C4A28890  36.495  11.182   7.688
 2147POPC   C1B28891  35.918  11.279   8.782
 2147POPC   C2B28892  36.003  11.185   8.394
 2147POPC   C3B28893  36.076  11.282   7.991
 2147POPC   C4B28894  36.075  10.926   7.765
 2148POPC   NC328895  26.931   4.826   9.802
 2148POPC   PO428896  26.685   5.508   9.723
 2148POPC   GL128897  26.639   5.261   9.278
 2148POPC   GL228898  26.854   4.985   9.209
 2148POPC   C1A28899  26.796   5.203   8.785
 2148POPC   D2A28900  27.050   5.080   8.437
 2148POPC   C3A28901  26.955   5.016   8.012
 2148POPC   C4A28902  27.129   4.974   7.599
 2148POPC   C1B28903  26.631   4.718   8.868
 2148POPC   C2B28904  26.605   4.798   8.421
 2148POPC   C3B28905  26.648   4.600   7.994
 2148POPC   C4B28906  26.711   4.720   7.558
 2149POPC   NC328907   6.238  38.281   9.329
 2149POPC   PO428908   5.911  38.750   9.684
 2149POPC   GL128909   5.873  38.663   9.256
 2149POPC   GL228910   6.172  38.784   9.148
 2149POPC   C1A28911   5.713  38.731   8.867
 2149POPC   D2A28912   5.641  38.851   8.445
 2149POPC   C3A28913   5.643  38.503   8.176
 2149POPC   C4A28914   5.555  38.475   7.750
 2149POPC   C1B28915   6.193  38.632   8.689
 2149POPC   C2B28916   6.148  38.628   8.229
 2149POPC   C3B28917   6.042  38.348   7.868
 2149POPC   C4B28918   5.967  38.418   7.415
 2150POPC   NC328919   5.737  32.599   9.474
 2150POPC   PO428920   5.912  31.964   9.619
 2150POPC   GL128921   5.946  32.198   9.206
 2150POPC   GL228922   5.662  32.433   9.008
 2150POPC   C1A28923   6.024  32.151   8.773
 2150POPC   D2A28924   5.694  32.276   8.485
 2150POPC   C3A28925   5.828  32.402   8.091
 2150POPC   C4A28926   6.135  32.305   7.743
 2150POPC   C1B28927   5.509  32.023   8.898
 2150POPC   C2B28928   5.325  31.867   8.488
 2150POPC   C3B28929   5.455  32.015   8.059
 2150POPC   C4B28930   5.650  32.179   7.669
 2151POPC   NC328931   2.862  40.478   9.453
 2151POPC   PO428932   2.376  40.942   9.539
 2151POPC   GL128933   2.620  40.876   9.158
 2151POPC   GL228934   2.544  40.558   9.002
 2151POPC   C1A28935   2.631  40.960   8.697
 2151POPC   D2A28936   2.698  40.677   8.313
 2151POPC   C3A28937   2.599  40.945   7.971
 2151POPC   C4A28938   2.668  41.031   7.519
 2151POPC   C1B28939   2.961  40.585   8.742
 2151POPC   C2B28940   3.196  40.503   8.384
 2151POPC   C3B28941   3.117  40.679   8.030
 2151POPC   C4B28942   2.866  40.597   7.712
 2152POPC   NC328943  24.070  27.448   9.400
 2152POPC   PO428944  24.719  27.651   9.552
 2152POPC   GL128945  24.580  27.720   9.188
 2152POPC   GL228946  24.526  27.362   9.151
 2152POPC   C1A28947  24.379  27.705   8.816
 2152POPC   D2A28948  24.297  27.604   8.429
 2152POPC   C3A28949  24.446  27.926   8.177
 2152POPC   C4A28950  24.480  27.883   7.723
 2152POPC   C1B28951  24.437  27.189   8.729
 2152POPC   C2B28952  24.602  27.188   8.307
 2152POPC   C3B28953  24.392  27.248   7.959
 2152POPC   C4B28954  24.118  27.573   7.950
 2153POPC   NC328955  40.736  29.349   9.575
 2153POPC   PO428956  40.442  28.828   9.255
 2153POPC   GL128957  40.773  29.083   9.154
 2153POPC   GL228958  41.070  28.916   9.154
 2153POPC   C1A28959  40.860  29.338   8.786
 2153POPC   D2A28960  40.695  29.295   8.372
 2153POPC   C3A28961  40.887  29.362   8.002
 2153POPC   C4A28962  40.576  29.542   7.794
 2153POPC   C1B28963  40.824  28.829   8.736
 2153POPC   C2B28964  40.932  28.851   8.354
 2153POPC   C3B28965  40.824  28.825   7.951
 2153POPC   C4B28966  41.178  28.986   7.770
 2154POPC   NC328967  28.686  39.612   9.367
 2154POPC   PO428968  28.023  39.903   9.510
 2154POPC   GL128969  28.263  39.836   9.190
 2154POPC   GL228970  28.488  40.135   9.196
 2154POPC   C1A28971  28.343  39.858   8.776
 2154POPC   D2A28972  28.161  40.048   8.423
 2154POPC   C3A28973  28.095  39.810   8.041
 2154POPC   C4A28974  28.203  40.138   7.804
 2154POPC   C1B28975  28.434  40.357   8.785
 2154POPC   C2B28976  28.651  40.204   8.423
 2154POPC   C3B28977  28.665  40.325   8.004
 2154POPC   C4B28978  28.688  40.187   7.605
 2155POPC   NC328979   0.980  14.990   9.540
 2155POPC   PO428980   1.482  15.406   9.420
 2155POPC   GL128981   1.160  15.239   9.148
 2155POPC   GL228982   1.339  14.958   9.147
 2155POPC   C1A28983   1.015  15.043   8.757
 2155POPC   D2A28984   1.178  15.227   8.387
 2155POPC   C3A28985   1.007  15.085   8.005
 2155POPC   C4A28986   1.185  15.213   7.624
 2155POPC   C1B28987   1.539  15.056   8.760
 2155POPC   C2B28988   1.557  14.875   8.325
 2155POPC   C3B28989   1.526  14.899   7.878
 2155POPC   C4B28990   1.540  14.905   7.414
 2156POPC   NC328991   0.341  26.466   9.476
 2156POPC   PO428992   0.810  26.986   9.455
 2156POPC   GL128993   0.471  26.899   9.162
 2156POPC   GL228994   0.238  27.195   9.133
 2156POPC   C1A28995   0.362  26.653   8.789
 2156POPC   D2A28996   0.543  26.716   8.371
 2156POPC   C3A28997   0.353  26.710   7.985
 2156POPC   C4A28998   0.313  27.000   7.636
 2156POPC   C1B28999   0.433  27.174   8.716
 2156POPC   C2B29000   0.822  27.103   8.519
 2156POPC   C3B29001   0.978  26.929   8.152
 2156POPC   C4B29002   0.786  26.840   7.760
 2157POPC   NC329003   4.502  28.642   9.593
 2157POPC   PO429004   4.116  28.053   9.576
 2157POPC   GL129005   4.152  28.296   9.220
 2157POPC   GL229006   4.482  28.214   9.222
 2157POPC   C1A29007   4.258  28.389   8.783
 2157POPC   D2A29008   4.186  28.543   8.377
 2157POPC   C3A29009   4.073  28.263   8.072
 2157POPC   C4A29010   4.135  28.439   7.667
 2157POPC   C1B29011   4.587  28.016   8.830
 2157POPC   C2B29012   4.389  28.019   8.401
 2157POPC   C3B29013   4.542  28.069   7.968
 2157POPC   C4B29014   4.757  28.129   7.589
 2158POPC   NC329015  26.171  20.171   9.348
 2158POPC   PO429016  25.939  19.610   9.528
 2158POPC   GL129017  26.014  19.764   9.080
 2158POPC   GL229018  25.845  20.046   9.002
 2158POPC   C1A29019  25.808  19.688   8.670
 2158POPC   D2A29020  25.738  19.393   8.390
 2158POPC   C3A29021  26.007  19.543   8.066
 2158POPC   C4A29022  26.152  19.889   7.769
 2158POPC   C1B29023  25.941  20.190   8.649
 2158POPC   C2B29024  26.021  20.027   8.278
 2158POPC   C3B29025  25.749  20.070   7.972
 2158POPC   C4B29026  25.792  20.200   7.569
 2159POPC   NC329027   5.244  12.720   9.476
 2159POPC   PO429028   4.639  12.884   9.556
 2159POPC   GL129029   4.882  12.935   9.121
 2159POPC   GL229030   5.256  12.902   9.011
 2159POPC   C1A29031   4.957  13.078   8.649
 2159POPC   D2A29032   5.198  13.314   8.345
 2159POPC   C3A29033   4.984  13.151   8.014
 2159POPC   C4A29034   4.854  12.909   7.690
 2159POPC   C1B29035   5.263  12.641   8.663
 2159POPC   C2B29036   5.254  12.782   8.253
 2159POPC   C3B29037   5.345  12.826   7.826
 2159POPC   C4B29038   5.557  12.715   7.424
 2160POPC   NC329039  11.914  23.478   9.769
 2160POPC   PO429040  11.307  23.566   9.480
 2160POPC   GL129041  11.099  23.767   9.138
 2160POPC   GL229042  11.395  23.894   8.935
 2160POPC   C1A29043  10.933  23.685   8.757
 2160POPC   D2A29044  11.248  23.783   8.455
 2160POPC   C3A29045  11.091  23.590   8.139
 2160POPC   C4A29046  11.167  23.629   7.717
 2160POPC   C1B29047  11.717  23.662   8.645
 2160POPC   C2B29048  11.723  23.639   8.177
 2160POPC   C3B29049  11.573  23.936   7.852
 2160POPC   C4B29050  11.604  23.853   7.377
 2161POPC   NC329051   5.948  18.651   9.345
 2161POPC   PO429052   5.660  18.017   9.329
 2161POPC   GL129053   5.797  18.231   8.964
 2161POPC   GL229054   5.985  18.539   8.829
 2161POPC   C1A29055   5.983  18.086   8.588
 2161POPC   D2A29056   5.725  18.332   8.369
 2161POPC   C3A29057   5.540  18.142   8.039
 2161POPC   C4A29058   5.671  18.392   7.733
 2161POPC   C1B29059   6.406  18.474   8.599
 2161POPC   C2B29060   6.422  18.117   8.320
 2161POPC   C3B29061   6.068  18.097   8.021
 2161POPC   C4B29062   6.121  18.255   7.578
 2162POPC   NC329063  36.307   2.366   9.377
 2162POPC   PO429064  36.073   2.943   9.625
 2162POPC   GL129065  35.937   3.018   9.218
 2162POPC   GL229066  36.035   2.703   9.132
 2162POPC   C1A29067  36.144   3.051   8.787
 2162POPC   D2A29068  36.095   2.862   8.361
 2162POPC   C3A29069  36.052   3.126   7.993
 2162POPC   C4A29070  35.669   3.185   7.794
 2162POPC   C1B29071  36.274   2.567   8.750
 2162POPC   C2B29072  36.567   2.635   8.430
 2162POPC   C3B29073  36.433   2.700   7.999
 2162POPC   C4B29074  36.440   2.707   7.551
 2163POPC   NC329075  42.476  44.663   9.689
 2163POPC   PO429076  41.818  44.553   9.530
 2163POPC   GL129077  42.167  44.473   9.213
 2163POPC   GL229078  42.532  44.590   9.191
 2163POPC   C1A29079  42.208  44.547   8.759
 2163POPC   D2A29080  42.140  44.793   8.390
 2163POPC   C3A29081  42.324  44.824   8.004
 2163POPC   C4A29082  42.109  44.646   7.694
 2163POPC   C1B29083  42.690  44.708   8.771
 2163POPC   C2B29084  42.629  44.543   8.352
 2163POPC   C3B29085  42.557  44.382   7.912
 2163POPC   C4B29086  42.574  44.612   7.517
 2164POPC   NC329087   7.543  29.721   9.658
 2164POPC   PO429088   8.272  29.844   9.544
 2164POPC   GL129089   8.278  30.020   9.151
 2164POPC   GL229090   8.035  30.226   9.200
 2164POPC   C1A29091   8.352  29.938   8.721
 2164POPC   D2A29092   8.521  29.678   8.391
 2164POPC   C3A29093   8.300  29.762   8.007
 2164POPC   C4A29094   8.458  30.055   7.714
 2164POPC   C1B29095   7.882  30.160   8.801
 2164POPC   C2B29096   7.953  30.006   8.392
 2164POPC   C3B29097   7.879  30.072   7.972
 2164POPC   C4B29098   8.003  30.218   7.541
 2165POPC   NC329099  15.008  19.738   9.424
 2165POPC   PO429100  15.588  19.579   9.469
 2165POPC   GL129101  15.380  19.854   9.104
 2165POPC   GL229102  15.032  19.987   8.993
 2165POPC   C1A29103  15.360  19.664   8.715
 2165POPC   D2A29104  15.238  19.770   8.350
 2165POPC   C3A29105  15.451  19.771   7.966
 2165POPC   C4A29106  15.513  20.173   7.797
 2165POPC   C1B29107  14.730  19.721   8.776
 2165POPC   C2B29108  14.739  19.639   8.327
 2165POPC   C3B29109  14.907  19.939   8.025
 2165POPC   C4B29110  15.076  19.953   7.639
 2166POPC   NC329111  27.288  29.347   9.244
 2166POPC   PO429112  27.788  29.107   9.659
 2166POPC   GL129113  27.868  29.199   9.215
 2166POPC   GL229114  27.627  28.961   9.127
 2166POPC   C1A29115  27.732  29.251   8.748
 2166POPC   D2A29116  27.378  29.437   8.523
 2166POPC   C3A29117  27.507  29.416   8.079
 2166POPC   C4A29118  27.782  29.089   7.843
 2166POPC   C1B29119  27.302  28.947   8.734
 2166POPC   C2B29120  27.423  28.954   8.300
 2166POPC   C3B29121  27.303  28.957   7.875
 2166POPC   C4B29122  27.474  28.808   7.477
 2167POPC   NC329123  39.384  30.196   9.598
 2167POPC   PO429124  38.815  29.820   9.543
 2167POPC   GL129125  39.104  29.758   9.251
 2167POPC   GL229126  39.089  30.080   9.170
 2167POPC   C1A29127  39.100  29.667   8.813
 2167POPC   D2A29128  39.359  29.728   8.444
 2167POPC   C3A29129  39.197  29.701   8.001
 2167POPC   C4A29130  39.393  29.547   7.604
 2167POPC   C1B29131  39.234  30.156   8.768
 2167POPC   C2B29132  39.038  30.114   8.382
 2167POPC   C3B29133  39.012  30.328   8.034
 2167POPC   C4B29134  39.235  30.170   7.684
 2168POPC   NC329135  30.828  33.629   9.482
 2168POPC   PO429136  30.350  34.012   9.515
 2168POPC   GL129137  30.599  33.961   9.126
 2168POPC   GL229138  30.939  34.015   9.046
 2168POPC   C1A29139  30.611  33.873   8.667
 2168POPC   D2A29140  30.430  34.007   8.268
 2168POPC   C3A29141  30.600  33.804   7.886
 2168POPC   C4A29142  30.535  33.822   7.435
 2168POPC   C1B29143  31.110  33.997   8.664
 2168POPC   C2B29144  30.956  33.937   8.245
 2168POPC   C3B29145  31.109  33.725   7.866
 2168POPC   C4B29146  30.977  33.547   7.425
 2169POPC   NC329147   1.288   8.315   9.518
 2169POPC   PO429148   1.386   7.707   9.276
 2169POPC   GL129149   1.376   8.091   9.074
 2169POPC   GL229150   1.390   7.877   8.818
 2169POPC   C1A29151   1.372   8.368   8.704
 2169POPC   D2A29152   1.625   8.341   8.317
 2169POPC   C3A29153   1.444   8.418   7.940
 2169POPC   C4A29154   1.017   8.478   7.862
 2169POPC   C1B29155   0.980   8.023   8.736
 2169POPC   C2B29156   1.039   8.195   8.329
 2169POPC   C3B29157   1.154   8.004   7.946
 2169POPC   C4B29158   0.917   7.788   7.700
 2170POPC   NC329159  40.682  36.550   9.338
 2170POPC   PO429160  40.704  37.208   9.591
 2170POPC   GL129161  40.914  37.155   9.210
 2170POPC   GL229162  40.695  36.937   9.009
 2170POPC   C1A29163  40.958  37.277   8.772
 2170POPC   D2A29164  40.843  36.972   8.438
 2170POPC   C3A29165  40.631  37.033   8.046
 2170POPC   C4A29166  40.985  37.053   7.809
 2170POPC   C1B29167  40.644  36.600   8.690
 2170POPC   C2B29168  40.523  36.415   8.301
 2170POPC   C3B29169  40.713  36.536   7.934
 2170POPC   C4B29170  40.629  36.751   7.601
 2171POPC   NC329171  38.048  43.717   9.473
 2171POPC   PO429172  37.403  43.897   9.537
 2171POPC   GL129173  37.481  44.062   9.150
 2171POPC   GL229174  37.843  44.021   9.102
 2171POPC   C1A29175  37.471  43.890   8.732
 2171POPC   D2A29176  37.398  44.025   8.320
 2171POPC   C3A29177  37.606  43.840   7.991
 2171POPC   C4A29178  37.582  43.869   7.571
 2171POPC   C1B29179  38.068  44.233   8.785
 2171POPC   C2B29180  38.163  44.304   8.371
 2171POPC   C3B29181  37.948  44.248   8.036
 2171POPC   C4B29182  38.030  44.180   7.641
 2172POPC   NC329183  30.999   0.365   9.717
 2172POPC   PO429184  30.511   0.219   9.354
 2172POPC   GL129185  30.787   0.407   9.073
 2172POPC   GL229186  30.656   0.698   9.175
 2172POPC   C1A29187  30.762   0.311   8.630
 2172POPC   D2A29188  30.459   0.371   8.287
 2172POPC   C3A29189  30.659   0.273   7.890
 2172POPC   C4A29190  30.998   0.441   7.619
 2172POPC   C1B29191  30.533   0.765   8.769
 2172POPC   C2B29192  30.773   0.877   8.409
 2172POPC   C3B29193  30.846   0.786   7.975
 2172POPC   C4B29194  30.518   0.730   7.685
 2173POPC   NC329195  28.644   8.205   9.826
 2173POPC   PO429196  29.243   8.005   9.468
 2173POPC   GL129197  29.179   8.089   9.089
 2173POPC   GL229198  29.400   8.358   9.132
 2173POPC   C1A29199  28.926   8.018   8.730
 2173POPC   D2A29200  29.073   8.121   8.344
 2173POPC   C3A29201  28.929   7.916   8.015
 2173POPC   C4A29202  29.337   7.885   7.840
 2173POPC   C1B29203  29.204   8.452   8.735
 2173POPC   C2B29204  29.324   8.660   8.389
 2173POPC   C3B29205  29.457   8.542   8.004
 2173POPC   C4B29206  29.099   8.359   7.833
 2174POPC   NC329207  11.647  31.310   9.542
 2174POPC   PO429208  11.559  31.939   9.203
 2174POPC   GL129209  11.378  31.475   9.156
 2174POPC   GL229210  11.590  31.134   9.071
 2174POPC   C1A29211  11.148  31.270   8.841
 2174POPC   D2A29212  11.115  31.523   8.478
 2174POPC   C3A29213  11.122  31.298   8.115
 2174POPC   C4A29214  11.262  31.467   7.760
 2174POPC   C1B29215  11.688  31.397   8.728
 2174POPC   C2B29216  11.738  31.441   8.272
 2174POPC   C3B29217  11.618  31.143   7.934
 2174POPC   C4B29218  11.483  31.122   7.458
 2175POPC   NC329219  24.843  43.966   9.740
 2175POPC   PO429220  24.220  43.962   9.484
 2175POPC   GL129221  24.554  43.788   9.230
 2175POPC   GL229222  24.826  44.008   9.159
 2175POPC   C1A29223  24.595  43.760   8.770
 2175POPC   D2A29224  24.420  44.041   8.455
 2175POPC   C3A29225  24.280  43.874   8.080
 2175POPC   C4A29226  24.252  44.127   7.697
 2175POPC   C1B29227  24.776  44.281   8.759
 2175POPC   C2B29228  24.843  44.356   8.299
 2175POPC   C3B29229  24.713  44.100   7.936
 2175POPC   C4B29230  24.700  44.104   7.450
 2176POPC   NC329231  11.827   8.728   9.591
 2176POPC   PO429232  12.145   8.173   9.605
 2176POPC   GL129233  12.232   8.179   9.171
 2176POPC   GL229234  12.092   8.511   9.203
 2176POPC   C1A29235  12.035   8.161   8.772
 2176POPC   D2A29236  12.122   8.024   8.355
 2176POPC   C3A29237  11.930   8.209   8.015
 2176POPC   C4A29238  12.025   7.970   7.675
 2176POPC   C1B29239  12.338   8.593   8.859
 2176POPC   C2B29240  12.427   8.418   8.502
 2176POPC   C3B29241  12.430   8.370   8.076
 2176POPC   C4B29242  12.262   8.413   7.677
 2177POPC   NC329243   6.929  19.131   9.286
 2177POPC   PO429244   6.291  18.908   9.550
 2177POPC   GL129245   6.350  18.821   9.091
 2177POPC   GL229246   6.630  18.903   8.962
 2177POPC   C1A29247   6.241  18.976   8.645
 2177POPC   D2A29248   6.281  19.389   8.437
 2177POPC   C3A29249   6.521  19.308   8.060
 2177POPC   C4A29250   6.374  19.209   7.608
 2177POPC   C1B29251   6.822  19.109   8.603
 2177POPC   C2B29252   7.008  19.008   8.207
 2177POPC   C3B29253   6.916  19.017   7.780
 2177POPC   C4B29254   6.751  18.890   7.404
 2178POPC   NC329255  11.888  28.093   9.528
 2178POPC   PO429256  12.447  28.492   9.575
 2178POPC   GL129257  12.132  28.489   9.261
 2178POPC   GL229258  11.780  28.550   9.175
 2178POPC   C1A29259  12.200  28.484   8.845
 2178POPC   D2A29260  12.152  28.333   8.450
 2178POPC   C3A29261  12.113  28.685   8.193
 2178POPC   C4A29262  12.047  28.672   7.778
 2178POPC   C1B29263  11.734  28.272   8.813
 2178POPC   C2B29264  11.747  28.020   8.408
 2178POPC   C3B29265  11.962  28.113   8.007
 2178POPC   C4B29266  11.905  28.250   7.574
 2179POPC   NC329267   7.293   7.009   9.676
 2179POPC   PO429268   7.517   7.405   9.155
 2179POPC   GL129269   7.273   7.391   8.872
 2179POPC   GL229270   7.016   7.552   9.038
 2179POPC   C1A29271   7.387   7.285   8.485
 2179POPC   D2A29272   7.654   7.086   8.210
 2179POPC   C3A29273   7.644   7.374   7.937
 2179POPC   C4A29274   7.353   7.436   7.645
 2179POPC   C1B29275   7.140   7.814   8.653
 2179POPC   C2B29276   7.180   7.665   8.221
 2179POPC   C3B29277   7.054   7.772   7.841
 2179POPC   C4B29278   6.969   7.757   7.376
 2180POPC   NC329279  42.336  37.566   9.467
 2180POPC   PO429280  42.557  38.175   9.667
 2180POPC   GL129281  42.496  38.006   9.248
 2180POPC   GL229282  42.626  37.747   9.072
 2180POPC   C1A29283  42.166  37.919   8.930
 2180POPC   D2A29284  42.123  37.974   8.478
 2180POPC   C3A29285  42.338  37.705   8.169
 2180POPC   C4A29286  42.168  37.436   7.822
 2180POPC   C1B29287  42.602  37.690   8.643
 2180POPC   C2B29288  42.811  37.370   8.404
 2180POPC   C3B29289  42.671  37.348   7.994
 2180POPC   C4B29290  42.633  37.629   7.672
 2181POPC   NC329291  13.804  16.262   9.854
 2181POPC   PO429292  13.660  16.796   9.516
 2181POPC   GL129293  13.727  16.672   9.069
 2181POPC   GL229294  13.478  16.501   8.988
 2181POPC   C1A29295  13.786  16.810   8.633
 2181POPC   D2A29296  13.934  16.894   8.194
 2181POPC   C3A29297  13.623  16.977   7.886
 2181POPC   C4A29298  13.199  16.753   7.879
 2181POPC   C1B29299  13.539  16.352   8.639
 2181POPC   C2B29300  13.447  16.564   8.298
 2181POPC   C3B29301  13.653  16.483   7.947
 2181POPC   C4B29302  13.506  16.412   7.549
 2182POPC   NC329303   0.767  14.274   9.826
 2182POPC   PO429304   1.332  14.591   9.509
 2182POPC   GL129305   1.237  14.441   9.109
 2182POPC   GL229306   0.957  14.632   9.085
 2182POPC   C1A29307   1.437  14.255   8.745
 2182POPC   D2A29308   1.310  14.202   8.314
 2182POPC   C3A29309   1.176  14.569   8.089
 2182POPC   C4A29310   1.109  14.698   7.649
 2182POPC   C1B29311   0.963  14.440   8.653
 2182POPC   C2B29312   0.779  14.240   8.285
 2182POPC   C3B29313   0.789  14.323   7.836
 2182POPC   C4B29314   0.986  14.265   7.409
 2183POPC   NC329315  30.655  32.748   9.923
 2183POPC   PO429316  30.906  33.175   9.521
 2183POPC   GL129317  31.041  33.254   9.112
 2183POPC   GL229318  30.862  33.516   8.986
 2183POPC   C1A29319  30.969  33.108   8.675
 2183POPC   D2A29320  30.621  32.918   8.439
 2183POPC   C3A29321  30.667  33.031   8.021
 2183POPC   C4A29322  31.013  33.233   7.844
 2183POPC   C1B29323  30.527  33.365   8.748
 2183POPC   C2B29324  30.501  33.467   8.325
 2183POPC   C3B29325  30.302  33.387   7.961
 2183POPC   C4B29326  30.517  33.328   7.581
 2184POPC   NC329327  26.193   7.635   9.438
 2184POPC   PO429328  26.328   6.994   9.463
 2184POPC   GL129329  26.267   7.256   9.084
 2184POPC   GL229330  25.908   7.315   9.127
 2184POPC   C1A29331  26.120   7.569   8.734
 2184POPC   D2A29332  25.905   7.756   8.322
 2184POPC   C3A29333  26.082   7.628   7.929
 2184POPC   C4A29334  26.326   7.697   7.554
 2184POPC   C1B29335  25.886   7.073   8.757
 2184POPC   C2B29336  25.989   7.242   8.364
 2184POPC   C3B29337  26.316   7.229   8.100
 2184POPC   C4B29338  26.166   7.176   7.674
 2185POPC   NC329339  28.695  23.140   9.491
 2185POPC   PO429340  28.590  23.771   9.616
 2185POPC   GL129341  28.427  23.561   9.216
 2185POPC   GL229342  28.175  23.789   9.074
 2185POPC   C1A29343  28.296  23.459   8.736
 2185POPC   D2A29344  28.434  23.306   8.326
 2185POPC   C3A29345  28.335  23.576   8.025
 2185POPC   C4A29346  28.223  23.736   7.644
 2185POPC   C1B29347  28.186  24.034   8.684
 2185POPC   C2B29348  28.113  24.006   8.222
 2185POPC   C3B29349  28.063  24.178   7.784
 2185POPC   C4B29350  27.945  24.062   7.343
 2186POPC   NC329351   6.097  23.247   9.397
 2186POPC   PO429352   5.610  23.680   9.532
 2186POPC   GL129353   5.773  23.686   9.137
 2186POPC   GL229354   5.835  24.036   9.153
 2186POPC   C1A29355   5.775  23.754   8.690
 2186POPC   D2A29356   5.955  23.563   8.331
 2186POPC   C3A29357   5.741  23.597   7.934
 2186POPC   C4A29358   6.045  23.517   7.613
 2186POPC   C1B29359   6.093  24.141   8.816
 2186POPC   C2B29360   6.150  24.023   8.397
 2186POPC   C3B29361   6.148  23.894   7.966
 2186POPC   C4B29362   5.897  24.021   7.592
 2187POPC   NC329363   5.604  16.224   9.659
 2187POPC   PO429364   6.210  15.927   9.539
 2187POPC   GL129365   5.951  16.147   9.199
 2187POPC   GL229366   5.571  16.021   9.191
 2187POPC   C1A29367   5.865  16.007   8.758
 2187POPC   D2A29368   5.910  15.867   8.320
 2187POPC   C3A29369   5.866  16.090   7.920
 2187POPC   C4A29370   5.641  15.832   7.595
 2187POPC   C1B29371   5.354  16.153   8.820
 2187POPC   C2B29372   5.491  16.144   8.431
 2187POPC   C3B29373   5.398  15.967   8.065
 2187POPC   C4B29374   5.331  16.288   7.812
 2188POPC   NC329375  25.353   1.540   9.558
 2188POPC   PO429376  24.894   1.101   9.586
 2188POPC   GL129377  25.120   1.172   9.188
 2188POPC   GL229378  25.447   1.311   9.097
 2188POPC   C1A29379  24.967   1.146   8.776
 2188POPC   D2A29380  24.927   1.307   8.384
 2188POPC   C3A29381  25.059   1.105   8.046
 2188POPC   C4A29382  25.319   1.185   7.732
 2188POPC   C1B29383  25.465   1.278   8.633
 2188POPC   C2B29384  25.578   1.332   8.175
 2188POPC   C3B29385  25.773   1.364   7.751
 2188POPC   C4B29386  25.714   0.962   7.476
 2189POPC   NC329387  31.993  36.330   9.405
 2189POPC   PO429388  32.553  36.176   9.666
 2189POPC   GL129389  32.431  36.287   9.157
 2189POPC   GL229390  32.061  36.302   8.914
 2189POPC   C1A29391  32.505  36.369   8.734
 2189POPC   D2A29392  32.524  36.174   8.337
 2189POPC   C3A29393  32.442  36.428   8.022
 2189POPC   C4A29394  32.311  36.325   7.626
 2189POPC   C1B29395  32.073  35.995   8.535
 2189POPC   C2B29396  31.989  35.832   8.084
 2189POPC   C3B29397  31.959  35.972   7.630
 2189POPC   C4B29398  31.749  35.864   7.243
 2190POPC   NC329399  37.271  29.044   9.543
 2190POPC   PO429400  37.787  29.396   9.823
 2190POPC   GL129401  37.624  29.336   9.315
 2190POPC   GL229402  37.583  29.022   9.136
 2190POPC   C1A29403  37.510  29.404   8.849
 2190POPC   D2A29404  37.614  29.133   8.507
 2190POPC   C3A29405  37.472  29.269   8.123
 2190POPC   C4A29406  37.609  29.239   7.698
 2190POPC   C1B29407  37.864  28.818   8.841
 2190POPC   C2B29408  37.963  28.756   8.407
 2190POPC   C3B29409  37.837  28.861   7.993
 2190POPC   C4B29410  37.974  28.874   7.552
 2191POPC   NC329411  16.862  34.448   9.634
 2191POPC   PO429412  16.842  33.781   9.627
 2191POPC   GL129413  16.663  33.851   9.199
 2191POPC   GL229414  16.538  34.195   9.222
 2191POPC   C1A29415  16.748  33.787   8.729
 2191POPC   D2A29416  16.895  34.084   8.380
 2191POPC   C3A29417  16.852  33.893   7.944
 2191POPC   C4A29418  16.699  33.921   7.497
 2191POPC   C1B29419  16.474  34.207   8.728
 2191POPC   C2B29420  16.404  34.027   8.279
 2191POPC   C3B29421  16.468  34.219   7.847
 2191POPC   C4B29422  16.689  34.498   7.539
 2192POPC   NC329423  23.772  33.476   9.704
 2192POPC   PO429424  23.457  32.944   9.436
 2192POPC   GL129425  23.707  32.941   9.096
 2192POPC   GL229426  23.390  33.056   8.921
 2192POPC   C1A29427  23.873  33.217   8.812
 2192POPC   D2A29428  23.753  33.027   8.440
 2192POPC   C3A29429  23.868  33.258   8.076
 2192POPC   C4A29430  23.952  33.103   7.687
 2192POPC   C1B29431  23.312  32.688   8.670
 2192POPC   C2B29432  23.513  32.605   8.282
 2192POPC   C3B29433  23.542  32.859   7.919
 2192POPC   C4B29434  23.509  32.710   7.512
 2193POPC   NC329435  35.501  21.594   9.599
 2193POPC   PO429436  35.184  21.044   9.420
 2193POPC   GL129437  35.371  21.402   9.130
 2193POPC   GL229438  35.592  21.700   9.095
 2193POPC   C1A29439  35.385  21.508   8.691
 2193POPC   D2A29440  35.185  21.233   8.438
 2193POPC   C3A29441  35.334  21.174   8.037
 2193POPC   C4A29442  35.136  21.163   7.647
 2193POPC   C1B29443  35.872  21.470   8.786
 2193POPC   C2B29444  35.735  21.312   8.363
 2193POPC   C3B29445  35.796  21.419   7.929
 2193POPC   C4B29446  35.472  21.534   7.639
 2194POPC   NC329447   3.407  13.012   9.305
 2194POPC   PO429448   3.432  13.572   9.730
 2194POPC   GL129449   3.492  13.515   9.283
 2194POPC   GL229450   3.797  13.571   9.053
 2194POPC   C1A29451   3.321  13.582   8.870
 2194POPC   D2A29452   3.556  13.678   8.514
 2194POPC   C3A29453   3.427  13.669   8.098
 2194POPC   C4A29454   3.656  13.907   7.811
 2194POPC   C1B29455   3.938  13.355   8.673
 2194POPC   C2B29456   3.777  13.272   8.273
 2194POPC   C3B29457   3.760  13.336   7.871
 2194POPC   C4B29458   3.979  13.488   7.554
 2195POPC   NC329459  40.388  21.254   9.913
 2195POPC   PO429460  39.905  21.145   9.440
 2195POPC   GL129461  40.025  21.316   9.000
 2195POPC   GL229462  40.095  21.670   9.005
 2195POPC   C1A29463  40.015  21.354   8.572
 2195POPC   D2A29464  39.974  21.076   8.243
 2195POPC   C3A29465  40.141  21.239   7.861
 2195POPC   C4A29466  40.163  21.166   7.428
 2195POPC   C1B29467  39.746  21.771   8.725
 2195POPC   C2B29468  39.869  21.823   8.305
 2195POPC   C3B29469  39.930  21.695   7.879
 2195POPC   C4B29470  39.933  21.833   7.450
 2196POPC   NC329471  13.087  25.742   9.439
 2196POPC   PO429472  12.824  25.094   9.466
 2196POPC   GL129473  12.834  25.149   9.062
 2196POPC   GL229474  12.872  25.497   9.055
 2196POPC   C1A29475  12.556  25.097   8.726
 2196POPC   D2A29476  12.524  25.274   8.314
 2196POPC   C3A29477  12.694  25.022   7.974
 2196POPC   C4A29478  13.116  25.076   7.835
 2196POPC   C1B29479  12.897  25.499   8.647
 2196POPC   C2B29480  12.857  25.734   8.311
 2196POPC   C3B29481  12.972  25.586   7.946
 2196POPC   C4B29482  12.788  25.429   7.622
 2197POPC   NC329483  42.857  30.830   9.387
 2197POPC   PO429484  43.446  30.462   9.421
 2197POPC   GL129485  43.360  30.583   9.045
 2197POPC   GL229486  43.023  30.549   9.040
 2197POPC   C1A29487  43.289  30.563   8.615
 2197POPC   D2A29488  43.349  30.581   8.223
 2197POPC   C3A29489  43.271  30.919   8.042
 2197POPC   C4A29490  43.298  30.676   7.673
 2197POPC   C1B29491  42.802  30.698   8.708
 2197POPC   C2B29492  42.862  30.653   8.280
 2197POPC   C3B29493  42.866  30.471   7.886
 2197POPC   C4B29494  42.739  30.738   7.539
 2198POPC   NC329495   5.362  11.528   9.735
 2198POPC   PO429496   4.788  11.321   9.416
 2198POPC   GL129497   5.225  11.253   9.259
 2198POPC   GL229498   5.055  10.987   9.115
 2198POPC   C1A29499   5.321  11.307   8.779
 2198POPC   D2A29500   5.322  11.622   8.417
 2198POPC   C3A29501   5.251  11.468   7.996
 2198POPC   C4A29502   5.009  11.224   7.702
 2198POPC   C1B29503   4.857  11.105   8.712
 2198POPC   C2B29504   4.875  11.207   8.256
 2198POPC   C3B29505   4.651  10.968   7.924
 2198POPC   C4B29506   4.639  10.976   7.441
 2199POPC   NC329507  38.870  32.902   9.741
 2199POPC   PO429508  39.346  33.187   9.445
 2199POPC   GL129509  39.156  33.113   9.101
 2199POPC   GL229510  39.152  32.739   9.189
 2199POPC   C1A29511  39.145  33.422   8.770
 2199POPC   D2A29512  39.221  33.350   8.353
 2199POPC   C3A29513  38.934  33.386   8.039
 2199POPC   C4A29514  39.245  33.257   7.747
 2199POPC   C1B29515  39.363  32.777   8.796
 2199POPC   C2B29516  39.067  32.891   8.506
 2199POPC   C3B29517  39.098  32.890   8.076
 2199POPC   C4B29518  39.194  32.741   7.682
 2200POPC   NC329519  35.047  18.784   9.347
 2200POPC   PO429520  34.334  18.773   9.412
 2200POPC   GL129521  34.446  19.045   9.088
 2200POPC   GL229522  34.800  19.146   9.044
 2200POPC   C1A29523  34.368  19.209   8.707
 2200POPC   D2A29524  34.611  19.175   8.343
 2200POPC   C3A29525  34.483  19.364   7.967
 2200POPC   C4A29526  34.206  19.146   7.706
 2200POPC   C1B29527  35.071  18.970   8.695
 2200POPC   C2B29528  35.007  18.874   8.282
 2200POPC   C3B29529  34.988  19.144   7.958
 2200POPC   C4B29530  35.039  18.983   7.570
 2201POPC   NC329531   9.614  38.338   9.981
 2201POPC   PO429532   9.974  38.357   9.405
 2201POPC   GL129533   9.844  38.262   9.014
 2201POPC   GL229534   9.612  38.001   9.003
 2201POPC   C1A29535   9.670  38.469   8.687
 2201POPC   D2A29536   9.428  38.411   8.308
 2201POPC   C3A29537   9.689  38.658   8.028
 2201POPC   C4A29538  10.067  38.858   7.783
 2201POPC   C1B29539   9.594  37.972   8.588
 2201POPC   C2B29540   9.508  37.895   8.193
 2201POPC   C3B29541   9.602  38.147   7.867
 2201POPC   C4B29542   9.465  38.110   7.483
 2202POPC   NC329543   2.001  24.611   9.602
 2202POPC   PO429544   2.128  25.147   9.282
 2202POPC   GL129545   2.113  24.726   9.099
 2202POPC   GL229546   1.796  24.542   9.150
 2202POPC   C1A29547   2.237  24.544   8.707
 2202POPC   D2A29548   2.087  24.665   8.302
 2202POPC   C3A29549   2.248  24.439   7.919
 2202POPC   C4A29550   2.475  24.418   7.521
 2202POPC   C1B29551   1.790  24.302   8.770
 2202POPC   C2B29552   1.597  24.367   8.393
 2202POPC   C3B29553   1.725  24.489   7.992
 2202POPC   C4B29554   1.720  24.297   7.620
 2203POPC   NC329555   8.835  10.505   9.652
 2203POPC   PO429556   9.062  11.088   9.584
 2203POPC   GL129557   9.038  10.762   9.247
 2203POPC   GL229558   9.171  10.417   9.270
 2203POPC   C1A29559   9.103  10.796   8.806
 2203POPC   D2A29560   9.220  10.803   8.357
 2203POPC   C3A29561   8.893  10.738   8.045
 2203POPC   C4A29562   8.958  10.671   7.555
 2203POPC   C1B29563   8.878  10.354   8.918
 2203POPC   C2B29564   8.970  10.357   8.465
 2203POPC   C3B29565   9.169  10.329   8.038
 2203POPC   C4B29566   8.779  10.285   7.824
 2204POPC   NC329567  10.207  29.107   9.405
 2204POPC   PO429568   9.507  29.300   9.424
 2204POPC   GL129569   9.718  28.986   9.186
 2204POPC   GL229570   9.431  28.909   9.017
 2204POPC   C1A29571   9.993  28.994   8.806
 2204POPC   D2A29572   9.983  29.225   8.418
 2204POPC   C3A29573   9.914  28.936   8.061
 2204POPC   C4A29574   9.815  29.038   7.633
 2204POPC   C1B29575   9.561  29.258   8.755
 2204POPC   C2B29576   9.483  29.149   8.342
 2204POPC   C3B29577   9.588  29.320   7.987
 2204POPC   C4B29578   9.430  29.345   7.544
 2205POPC   NC329579  32.634  26.294   9.434
 2205POPC   PO429580  33.314  26.029   9.655
 2205POPC   GL129581  33.155  26.111   9.258
 2205POPC   GL229582  33.247  26.434   9.186
 2205POPC   C1A29583  33.119  25.923   8.845
 2205POPC   D2A29584  32.998  25.746   8.448
 2205POPC   C3A29585  33.177  25.881   8.103
 2205POPC   C4A29586  33.083  25.888   7.721
 2205POPC   C1B29587  33.029  26.423   8.825
 2205POPC   C2B29588  33.004  26.264   8.435
 2205POPC   C3B29589  32.889  26.316   8.036
 2205POPC   C4B29590  32.973  26.409   7.632
 2206POPC   NC329591  16.329  39.219   9.615
 2206POPC   PO429592  15.695  38.936   9.459
 2206POPC   GL129593  15.939  39.231   9.171
 2206POPC   GL229594  15.657  39.441   9.026
 2206POPC   C1A29595  16.084  39.444   8.780
 2206POPC   D2A29596  15.890  39.681   8.437
 2206POPC   C3A29597  15.947  39.463   8.043
 2206POPC   C4A29598  16.191  39.285   7.678
 2206POPC   C1B29599  15.690  39.089   8.717
 2206POPC   C2B29600  15.833  39.040   8.290
 2206POPC   C3B29601  15.868  38.913   7.851
 2206POPC   C4B29602  15.475  38.790   7.549
 2207POPC   NC329603  31.821  27.962   9.593
 2207POPC   PO429604  31.100  28.059   9.330
 2207POPC   GL129605  31.294  27.777   9.072
 2207POPC   GL229606  31.588  27.707   9.218
 2207POPC   C1A29607  31.503  27.618   8.722
 2207POPC   D2A29608  31.576  27.268   8.461
 2207POPC   C3A29609  31.619  27.430   8.051
 2207POPC   C4A29610  31.757  27.189   7.725
 2207POPC   C1B29611  31.850  27.955   8.943
 2207POPC   C2B29612  31.958  27.937   8.522
 2207POPC   C3B29613  31.963  27.839   8.110
 2207POPC   C4B29614  31.745  27.790   7.701
 2208POPC   NC329615  18.122  14.388   9.493
 2208POPC   PO429616  18.588  13.940   9.411
 2208POPC   GL129617  18.446  14.262   9.138
 2208POPC   GL229618  18.133  14.285   9.002
 2208POPC   C1A29619  18.457  14.646   8.859
 2208POPC   D2A29620  18.174  14.791   8.545
 2208POPC   C3A29621  18.214  14.622   8.120
 2208POPC   C4A29622  18.282  14.581   7.659
 2208POPC   C1B29623  17.904  14.324   8.642
 2208POPC   C2B29624  17.899  14.106   8.273
 2208POPC   C3B29625  17.975  14.234   7.874
 2208POPC   C4B29626  18.206  14.066   7.539
 2209POPC   NC329627  27.091   1.330   9.410
 2209POPC   PO429628  27.652   1.625   9.699
 2209POPC   GL129629  27.621   1.238   9.329
 2209POPC   GL229630  27.925   1.116   9.160
 2209POPC   C1A29631  27.505   0.994   8.896
 2209POPC   D2A29632  27.313   1.100   8.496
 2209POPC   C3A29633  27.482   1.038   8.083
 2209POPC   C4A29634  27.390   1.298   7.706
 2209POPC   C1B29635  27.910   1.268   8.739
 2209POPC   C2B29636  28.008   1.431   8.333
 2209POPC   C3B29637  27.793   1.433   7.993
 2209POPC   C4B29638  27.849   1.550   7.606
 2210POPC   NC329639  43.768  27.078   9.349
 2210POPC   PO429640  44.494  26.837   9.281
 2210POPC   GL129641  44.231  26.648   9.069
 2210POPC   GL229642  43.901  26.632   9.175
 2210POPC   C1A29643  44.099  26.828   8.722
 2210POPC   D2A29644  44.205  27.097   8.431
 2210POPC   C3A29645  44.028  26.892   8.090
 2210POPC   C4A29646  44.082  26.982   7.702
 2210POPC   C1B29647  43.624  26.702   8.819
 2210POPC   C2B29648  43.663  26.642   8.380
 2210POPC   C3B29649  43.501  26.756   7.968
 2210POPC   C4B29650  43.274  26.511   7.639
 2211POPC   NC329651  16.089   5.704   9.468
 2211POPC   PO429652  15.766   6.244   9.413
 2211POPC   GL129653  15.999   5.992   9.057
 2211POPC   GL229654  15.913   5.605   9.011
 2211POPC   C1A29655  16.250   5.801   8.709
 2211POPC   D2A29656  16.124   5.688   8.306
 2211POPC   C3A29657  16.071   6.043   8.043
 2211POPC   C4A29658  16.342   6.063   7.754
 2211POPC   C1B29659  15.722   5.812   8.653
 2211POPC   C2B29660  15.625   5.862   8.217
 2211POPC   C3B29661  15.756   5.701   7.807
 2211POPC   C4B29662  15.594   5.683   7.353
 2212POPC   NC329663  35.013  34.453   9.402
 2212POPC   PO429664  34.334  34.746   9.440
 2212POPC   GL129665  34.588  34.577   9.134
 2212POPC   GL229666  34.864  34.775   9.034
 2212POPC   C1A29667  34.549  34.522   8.712
 2212POPC   D2A29668  34.278  34.664   8.409
 2212POPC   C3A29669  34.371  34.385   8.070
 2212POPC   C4A29670  34.374  34.650   7.722
 2212POPC   C1B29671  35.040  34.659   8.641
 2212POPC   C2B29672  34.772  34.685   8.259
 2212POPC   C3B29673  34.820  34.860   7.868
 2212POPC   C4B29674  34.862  34.582   7.531
 2213POPC   NC329675   9.057   2.082   9.442
 2213POPC   PO429676   9.449   1.497   9.493
 2213POPC   GL129677   9.237   1.670   9.145
 2213POPC   GL229678   8.853   1.736   9.134
 2213POPC   C1A29679   9.237   1.958   8.807
 2213POPC   D2A29680   9.023   2.186   8.511
 2213POPC   C3A29681   9.175   2.029   8.165
 2213POPC   C4A29682   9.116   2.085   7.768
 2213POPC   C1B29683   8.716   1.830   8.699
 2213POPC   C2B29684   8.634   2.015   8.246
 2213POPC   C3B29685   8.628   1.873   7.806
 2213POPC   C4B29686   8.456   1.707   7.396
 2214POPC   NC329687  36.032  22.756   9.498
 2214POPC   PO429688  35.578  23.233   9.710
 2214POPC   GL129689  36.032  23.198   9.251
 2214POPC   GL229690  36.010  22.893   9.005
 2214POPC   C1A29691  36.340  23.249   8.843
 2214POPC   D2A29692  36.456  23.127   8.379
 2214POPC   C3A29693  36.134  23.069   8.040
 2214POPC   C4A29694  36.190  23.018   7.612
 2214POPC   C1B29695  36.014  22.889   8.576
 2214POPC   C2B29696  36.229  22.640   8.283
 2214POPC   C3B29697  36.012  22.568   7.892
 2214POPC   C4B29698  35.713  22.868   7.721
 2215POPC   NC329699  40.856  11.752   9.961
 2215POPC   PO429700  40.839  12.296   9.557
 2215POPC   GL129701  40.808  12.125   9.152
 2215POPC   GL229702  40.721  12.508   9.089
 2215POPC   C1A29703  41.056  11.942   8.788
 2215POPC   D2A29704  41.067  11.880   8.317
 2215POPC   C3A29705  40.710  11.813   8.085
 2215POPC   C4A29706  40.846  12.088   7.756
 2215POPC   C1B29707  40.689  12.320   8.693
 2215POPC   C2B29708  40.721  12.280   8.277
 2215POPC   C3B29709  40.478  12.378   7.964
 2215POPC   C4B29710  40.602  12.502   7.593
 2216POPC   NC329711   9.169  18.625   9.466
 2216POPC   PO429712   8.945  19.265   9.695
 2216POPC   GL129713   8.882  19.047   9.263
 2216POPC   GL229714   8.600  18.827   9.182
 2216POPC   C1A29715   8.971  19.085   8.794
 2216POPC   D2A29716   9.301  19.197   8.499
 2216POPC   C3A29717   9.161  19.204   8.066
 2216POPC   C4A29718   9.081  18.929   7.716
 2216POPC   C1B29719   8.721  18.632   8.780
 2216POPC   C2B29720   8.683  18.775   8.378
 2216POPC   C3B29721   8.677  18.699   7.980
 2216POPC   C4B29722   8.694  18.333   7.766
 2217POPC   NC329723   0.204  33.246   9.552
 2217POPC   PO429724   0.712  33.423   9.106
 2217POPC   GL129725   0.408  33.099   9.073
 2217POPC   GL229726   0.050  33.130   9.088
 2217POPC   C1A29727   0.360  32.845   8.700
 2217POPC   D2A29728   0.585  32.692   8.336
 2217POPC   C3A29729   0.356  32.863   7.983
 2217POPC   C4A29730   0.427  33.254   7.765
 2217POPC   C1B29731   0.118  33.326   8.715
 2217POPC   C2B29732   0.303  33.263   8.327
 2217POPC   C3B29733  44.996  33.300   8.044
 2217POPC   C4B29734  44.862  33.140   7.697
 2218POPC   NC329735  21.500  34.028   9.469
 2218POPC   PO429736  21.023  33.607   9.504
 2218POPC   GL129737  21.270  33.674   9.146
 2218POPC   GL229738  21.496  33.367   9.155
 2218POPC   C1A29739  21.154  33.840   8.701
 2218POPC   D2A29740  21.318  34.138   8.387
 2218POPC   C3A29741  21.500  34.016   7.983
 2218POPC   C4A29742  21.818  33.798   7.731
 2218POPC   C1B29743  21.551  33.531   8.748
 2218POPC   C2B29744  21.692  33.705   8.356
 2218POPC   C3B29745  21.482  33.509   8.001
 2218POPC   C4B29746  21.547  33.226   7.687
 2219POPC   NC329747  24.064   0.135   9.203
 2219POPC   PO429748  24.390   0.704   9.479
 2219POPC   GL129749  24.468   0.449   9.110
 2219POPC   GL229750  24.777   0.212   9.117
 2219POPC   C1A29751  24.311   0.415   8.683
 2219POPC   D2A29752  24.141   0.261   8.341
 2219POPC   C3A29753  24.396   0.456   8.043
 2219POPC   C4A29754  24.357   0.550   7.637
 2219POPC   C1B29755  24.823   0.448   8.726
 2219POPC   C2B29756  24.865   0.760   8.384
 2219POPC   C3B29757  24.929   0.624   7.960
 2219POPC   C4B29758  24.787   0.268   7.724
 2220POPC   NC329759  43.890  38.546   9.607
 2220POPC   PO429760  43.610  37.970   9.465
 2220POPC   GL129761  43.889  38.234   9.166
 2220POPC   GL229762  43.872  38.630   9.116
 2220POPC   C1A29763  43.937  38.347   8.714
 2220POPC   D2A29764  43.833  38.519   8.350
 2220POPC   C3A29765  43.884  38.195   8.087
 2220POPC   C4A29766  43.640  38.202   7.749
 2220POPC   C1B29767  44.010  38.857   8.752
 2220POPC   C2B29768  44.238  38.825   8.382
 2220POPC   C3B29769  44.271  38.563   8.043
 2220POPC   C4B29770  43.997  38.543   7.736
 2221POPC   NC329771  10.470   0.949   9.517
 2221POPC   PO429772  10.922   1.408   9.237
 2221POPC   GL129773  10.654   1.148   9.068
 2221POPC   GL229774  10.416   1.399   9.166
 2221POPC   C1A29775  10.822   1.129   8.667
 2221POPC   D2A29776  11.060   1.230   8.310
 2221POPC   C3A29777  10.701   1.143   8.036
 2221POPC   C4A29778  10.549   1.037   7.666
 2221POPC   C1B29779  10.231   1.309   8.811
 2221POPC   C2B29780  10.352   1.241   8.389
 2221POPC   C3B29781  10.138   1.267   7.985
 2221POPC   C4B29782  10.148   1.319   7.525
 2222POPC   NC329783   3.687   7.573   9.714
 2222POPC   PO429784   3.874   7.065   9.274
 2222POPC   GL129785   3.673   7.321   8.976
 2222POPC   GL229786   3.468   7.568   9.140
 2222POPC   C1A29787   3.681   7.648   8.623
 2222POPC   D2A29788   3.967   7.666   8.247
 2222POPC   C3A29789   3.949   7.328   7.938
 2222POPC   C4A29790   3.858   7.428   7.522
 2222POPC   C1B29791   3.252   7.388   8.739
 2222POPC   C2B29792   3.257   7.502   8.301
 2222POPC   C3B29793   3.181   7.426   7.880
 2222POPC   C4B29794   3.481   7.130   7.699
 2223POPC   NC329795  21.949  12.259   9.481
 2223POPC   PO429796  22.118  11.651   9.575
 2223POPC   GL129797  22.085  11.870   9.196
 2223POPC   GL229798  22.358  12.095   9.179
 2223POPC   C1A29799  21.966  11.858   8.797
 2223POPC   D2A29800  22.202  11.941   8.454
 2223POPC   C3A29801  21.949  11.820   8.157
 2223POPC   C4A29802  21.961  11.791   7.751
 2223POPC   C1B29803  22.212  12.315   8.818
 2223POPC   C2B29804  22.404  12.407   8.425
 2223POPC   C3B29805  22.232  12.250   8.016
 2223POPC   C4B29806  22.349  12.102   7.620
 2224POPC   NC329807   6.828  12.242   9.378
 2224POPC   PO429808   6.345  12.626   9.672
 2224POPC   GL129809   6.560  12.667   9.277
 2224POPC   GL229810   6.414  12.404   9.082
 2224POPC   C1A29811   6.684  12.825   8.863
 2224POPC   D2A29812   6.539  12.916   8.429
 2224POPC   C3A29813   6.853  12.954   8.083
 2224POPC   C4A29814   6.818  12.821   7.657
 2224POPC   C1B29815   6.178  12.594   8.685
 2224POPC   C2B29816   6.212  12.580   8.213
 2224POPC   C3B29817   6.406  12.506   7.813
 2224POPC   C4B29818   6.450  12.668   7.338
 2225POPC   NC329819  40.437  37.697   9.496
 2225POPC   PO429820  39.734  37.426   9.539
 2225POPC   GL129821  40.022  37.691   9.175
 2225POPC   GL229822  40.324  37.952   9.066
 2225POPC   C1A29823  40.136  37.661   8.721
 2225POPC   D2A29824  39.947  37.790   8.372
 2225POPC   C3A29825  40.113  37.809   7.996
 2225POPC   C4A29826  39.878  37.673   7.642
 2225POPC   C1B29827  40.352  38.132   8.656
 2225POPC   C2B29828  40.512  38.080   8.221
 2225POPC   C3B29829  40.501  38.194   7.765
 2225POPC   C4B29830  40.358  38.218   7.306
 2226POPC   NC329831  40.071  16.293   9.647
 2226POPC   PO429832  40.107  16.959   9.486
 2226POPC   GL129833  39.951  16.650   9.254
 2226POPC   GL229834  40.293  16.538   9.267
 2226POPC   C1A29835  39.735  16.690   8.852
 2226POPC   D2A29836  39.868  16.936   8.479
 2226POPC   C3A29837  39.800  16.747   8.096
 2226POPC   C4A29838  39.707  16.541   7.763
 2226POPC   C1B29839  40.253  16.630   8.824
 2226POPC   C2B29840  40.219  16.540   8.376
 2226POPC   C3B29841  40.250  16.592   7.933
 2226POPC   C4B29842  40.339  16.531   7.535
 2227POPC   NC329843  33.475  16.826   9.637
 2227POPC   PO429844  32.798  16.664   9.601
 2227POPC   GL129845  32.981  16.748   9.241
 2227POPC   GL229846  32.704  16.902   9.103
 2227POPC   C1A29847  33.004  16.520   8.841
 2227POPC   D2A29848  33.229  16.512   8.454
 2227POPC   C3A29849  33.017  16.492   8.080
 2227POPC   C4A29850  33.146  16.639   7.686
 2227POPC   C1B29851  33.023  17.042   8.834
 2227POPC   C2B29852  33.155  17.207   8.505
 2227POPC   C3B29853  33.204  16.978   8.143
 2227POPC   C4B29854  33.232  17.129   7.749
 2228POPC   NC329855  34.630  30.523   9.719
 2228POPC   PO429856  34.995  30.985   9.463
 2228POPC   GL129857  34.715  30.753   9.172
 2228POPC   GL229858  34.609  30.446   9.178
 2228POPC   C1A29859  34.520  30.806   8.820
 2228POPC   D2A29860  34.607  30.634   8.456
 2228POPC   C3A29861  34.353  30.785   8.130
 2228POPC   C4A29862  34.421  30.691   7.706
 2228POPC   C1B29863  34.394  30.249   8.781
 2228POPC   C2B29864  34.640  30.123   8.414
 2228POPC   C3B29865  34.673  30.371   8.027
 2228POPC   C4B29866  34.837  30.398   7.589
 2229POPC   NC329867  38.521  37.998   9.673
 2229POPC   PO429868  38.395  37.342   9.629
 2229POPC   GL129869  38.609  37.588   9.359
 2229POPC   GL229870  38.299  37.757   9.272
 2229POPC   C1A29871  38.657  37.608   8.910
 2229POPC   D2A29872  38.594  37.754   8.482
 2229POPC   C3A29873  38.782  37.647   8.093
 2229POPC   C4A29874  38.639  37.747   7.683
 2229POPC   C1B29875  38.156  37.812   8.856
 2229POPC   C2B29876  38.108  37.652   8.453
 2229POPC   C3B29877  38.258  37.769   8.067
 2229POPC   C4B29878  38.016  37.842   7.730
 2230POPC   NC329879  38.327   0.515   9.538
 2230POPC   PO429880  39.050   0.500   9.624
 2230POPC   GL129881  38.765   0.378   9.262
 2230POPC   GL229882  38.578   0.627   9.110
 2230POPC   C1A29883  38.630   0.207   8.814
 2230POPC   D2A29884  38.241   0.233   8.516
 2230POPC   C3A29885  38.314   0.217   8.033
 2230POPC   C4A29886  38.361   0.349   7.566
 2230POPC   C1B29887  38.196   0.675   8.855
 2230POPC   C2B29888  38.183   0.761   8.396
 2230POPC   C3B29889  38.182   0.705   7.952
 2230POPC   C4B29890  38.543   0.798   7.700
 2231POPC   NC329891   1.307  27.252   9.411
 2231POPC   PO429892   0.870  27.824   9.420
 2231POPC   GL129893   1.061  27.637   9.112
 2231POPC   GL229894   1.379  27.803   9.114
 2231POPC   C1A29895   0.918  27.569   8.717
 2231POPC   D2A29896   1.129  27.461   8.322
 2231POPC   C3A29897   0.994  27.645   7.935
 2231POPC   C4A29898   1.070  27.256   7.742
 2231POPC   C1B29899   1.405  27.767   8.641
 2231POPC   C2B29900   1.453  27.821   8.149
 2231POPC   C3B29901   1.491  27.572   7.760
 2231POPC   C4B29902   1.583  27.121   7.660
 2232POPC   NC329903  14.258   8.008   9.384
 2232POPC   PO429904  14.677   8.503   9.604
 2232POPC   GL129905  14.518   8.368   9.127
 2232POPC   GL229906  14.531   7.964   8.963
 2232POPC   C1A29907  14.241   8.294   8.743
 2232POPC   D2A29908  14.327   7.939   8.489
 2232POPC   C3A29909  14.155   8.068   8.120
 2232POPC   C4A29910  14.279   8.390   7.829
 2232POPC   C1B29911  14.741   8.218   8.707
 2232POPC   C2B29912  14.562   8.369   8.343
 2232POPC   C3B29913  14.682   8.127   8.037
 2232POPC   C4B29914  14.830   8.231   7.673
 2233POPC   NC329915  31.237  43.479   9.824
 2233POPC   PO429916  31.824  43.117   9.646
 2233POPC   GL129917  31.662  42.990   9.216
 2233POPC   GL229918  31.554  42.659   9.117
 2233POPC   C1A29919  31.414  43.145   8.867
 2233POPC   D2A29920  31.507  43.242   8.439
 2233POPC   C3A29921  31.307  43.499   8.146
 2233POPC   C4A29922  31.396  43.323   7.765
 2233POPC   C1B29923  31.341  42.672   8.741
 2233POPC   C2B29924  31.531  42.739   8.351
 2233POPC   C3B29925  31.527  42.851   7.939
 2233POPC   C4B29926  31.830  42.834   7.584
 2234POPC   NC329927   1.453  19.765   9.500
 2234POPC   PO429928   0.918  19.944   9.907
 2234POPC   GL129929   1.007  20.010   9.385
 2234POPC   GL229930   1.334  20.168   9.217
 2234POPC   C1A29931   1.071  19.749   8.955
 2234POPC   D2A29932   1.175  19.751   8.497
 2234POPC   C3A29933   1.091  19.567   8.078
 2234POPC   C4A29934   1.181  19.711   7.673
 2234POPC   C1B29935   1.524  19.935   8.845
 2234POPC   C2B29936   1.673  19.842   8.428
 2234POPC   C3B29937   1.433  20.007   8.069
 2234POPC   C4B29938   1.199  20.229   7.768
 2235POPC   NC329939  13.356  27.060   9.560
 2235POPC   PO429940  13.915  26.589   9.707
 2235POPC   GL129941  13.820  26.629   9.209
 2235POPC   GL229942  13.480  26.796   9.106
 2235POPC   C1A29943  13.789  26.598   8.763
 2235POPC   D2A29944  13.661  26.908   8.454
 2235POPC   C3A29945  13.602  26.709   8.072
 2235POPC   C4A29946  13.822  26.606   7.720
 2235POPC   C1B29947  13.233  27.023   8.786
 2235POPC   C2B29948  13.233  27.209   8.347
 2235POPC   C3B29949  13.463  27.191   7.966
 2235POPC   C4B29950  13.272  26.938   7.658
 2236POPC   NC329951  24.137   2.471   9.305
 2236POPC   PO429952  24.333   3.017   9.654
 2236POPC   GL129953  24.317   3.187   9.203
 2236POPC   GL229954  24.143   2.949   9.009
 2236POPC   C1A29955  24.537   3.151   8.759
 2236POPC   D2A29956  24.621   2.871   8.385
 2236POPC   C3A29957  24.348   2.944   8.035
 2236POPC   C4A29958  24.436   2.746   7.672
 2236POPC   C1B29959  24.328   2.637   8.723
 2236POPC   C2B29960  24.439   2.314   8.444
 2236POPC   C3B29961  24.321   2.312   8.037
 2236POPC   C4B29962  24.027   2.474   7.765
 2237POPC   NC329963  35.705   2.609   9.562
 2237POPC   PO429964  35.423   3.106   9.592
 2237POPC   GL129965  35.395   2.957   9.176
 2237POPC   GL229966  35.530   2.663   9.105
 2237POPC   C1A29967  35.239   2.916   8.736
 2237POPC   D2A29968  34.971   3.027   8.354
 2237POPC   C3A29969  35.191   2.974   7.941
 2237POPC   C4A29970  35.156   2.555   7.758
 2237POPC   C1B29971  35.740   2.709   8.726
 2237POPC   C2B29972  35.660   2.536   8.341
 2237POPC   C3B29973  35.630   2.681   7.941
 2237POPC   C4B29974  35.930   2.747   7.651
 2238POPC   NC329975  36.310  44.341   9.781
 2238POPC   PO429976  36.033  44.741   9.321
 2238POPC   GL129977  35.946  44.444   9.009
 2238POPC   GL229978  36.171  44.617   8.824
 2238POPC   C1A29979  35.693  44.276   8.701
 2238POPC   D2A29980  35.914  44.253   8.319
 2238POPC   C3A29981  35.843  44.445   7.920
 2238POPC   C4A29982  36.221  44.435   7.677
 2238POPC   C1B29983  35.784  44.779   8.649
 2238POPC   C2B29984  35.844  44.879   8.226
 2238POPC   C3B29985  36.208  44.830   7.993
 2238POPC   C4B29986  36.198  44.964   7.599
 2239POPC   NC329987  34.889  21.395   9.341
 2239POPC   PO429988  34.337  21.737   9.481
 2239POPC   GL129989  34.372  21.753   9.085
 2239POPC   GL229990  34.709  21.826   9.095
 2239POPC   C1A29991  34.447  21.479   8.741
 2239POPC   D2A29992  34.696  21.400   8.375
 2239POPC   C3A29993  34.504  21.578   8.011
 2239POPC   C4A29994  34.364  21.262   7.743
 2239POPC   C1B29995  34.930  21.696   8.753
 2239POPC   C2B29996  35.100  21.743   8.343
 2239POPC   C3B29997  35.009  21.547   7.965
 2239POPC   C4B29998  34.765  21.535   7.565
 2240POPC   NC329999   9.594  42.613   9.493
 2240POPC   PO430000   9.004  42.205   9.468
 2240POPC   GL130001   9.053  42.307   9.064
 2240POPC   GL230002   9.404  42.164   9.111
 2240POPC   C1A30003   8.921  42.612   8.714
 2240POPC   D2A30004   8.663  42.635   8.330
 2240POPC   C3A30005   8.675  42.220   8.195
 2240POPC   C4A30006   8.756  42.152   7.788
 2240POPC   C1B30007   9.428  42.573   8.873
 2240POPC   C2B30008   9.429  42.626   8.442
 2240POPC   C3B30009   9.166  42.520   8.114
 2240POPC   C4B30010   9.211  42.378   7.692
 2241POPC   NC330011   1.889  26.860   9.727
 2241POPC   PO430012   2.517  27.073   9.591
 2241POPC   GL130013   2.209  26.959   9.213
 2241POPC   GL230014   2.196  26.636   9.020
 2241POPC   C1A30015   2.182  27.050   8.762
 2241POPC   D2A30016   2.115  26.835   8.361
 2241POPC   C3A30017   1.990  26.957   7.960
 2241POPC   C4A30018   2.287  26.722   7.736
 2241POPC   C1B30019   1.826  26.645   8.731
 2241POPC   C2B30020   1.674  26.511   8.331
 2241POPC   C3B30021   1.842  26.409   7.929
 2241POPC   C4B30022   1.756  26.633   7.542
 2242POPC   NC330023  13.559  10.924   9.489
 2242POPC   PO430024  13.429  11.565   9.644
 2242POPC   GL130025  13.409  11.674   9.206
 2242POPC   GL230026  13.654  11.407   9.139
 2242POPC   C1A30027  13.490  11.805   8.766
 2242POPC   D2A30028  13.620  11.549   8.406
 2242POPC   C3A30029  13.758  11.661   7.999
 2242POPC   C4A30030  13.728  11.885   7.621
 2242POPC   C1B30031  13.722  11.172   8.739
 2242POPC   C2B30032  13.566  11.009   8.361
 2242POPC   C3B30033  13.641  11.108   7.925
 2242POPC   C4B30034  13.507  11.030   7.482
 2243POPC   NC330035   3.180  20.520   9.835
 2243POPC   PO430036   3.679  20.808   9.488
 2243POPC   GL130037   3.824  20.819   9.086
 2243POPC   GL230038   3.551  21.020   9.022
 2243POPC   C1A30039   3.740  20.752   8.621
 2243POPC   D2A30040   3.655  20.446   8.293
 2243POPC   C3A30041   3.806  20.551   7.889
 2243POPC   C4A30042   3.652  20.409   7.465
 2243POPC   C1B30043   3.256  20.994   8.690
 2243POPC   C2B30044   3.280  20.850   8.263
 2243POPC   C3B30045   3.418  20.894   7.844
 2243POPC   C4B30046   3.330  20.787   7.413
 2244POPC   NC330047  28.362  17.584   9.571
 2244POPC   PO430048  27.967  17.377   9.115
 2244POPC   GL130049  28.398  17.404   9.077
 2244POPC   GL230050  28.494  17.768   9.099
 2244POPC   C1A30051  28.671  17.475   8.725
 2244POPC   D2A30052  28.788  17.364   8.323
 2244POPC   C3A30053  28.729  17.620   7.956
 2244POPC   C4A30054  28.695  17.255   7.694
 2244POPC   C1B30055  28.238  17.757   8.707
 2244POPC   C2B30056  28.375  17.690   8.318
 2244POPC   C3B30057  28.298  17.363   8.036
 2244POPC   C4B30058  28.217  17.372   7.599
 2245POPC   NC330059  36.821  15.908   9.621
 2245POPC   PO430060  37.259  15.901   9.113
 2245POPC   GL130061  36.820  15.867   9.110
 2245POPC   GL230062  36.750  16.196   9.175
 2245POPC   C1A30063  36.638  15.641   8.795
 2245POPC   D2A30064  36.878  15.619   8.417
 2245POPC   C3A30065  37.019  15.904   8.120
 2245POPC   C4A30066  36.893  15.757   7.747
 2245POPC   C1B30067  36.691  16.285   8.727
 2245POPC   C2B30068  36.604  16.155   8.284
 2245POPC   C3B30069  36.667  16.201   7.833
 2245POPC   C4B30070  37.076  16.260   7.683
 2246POPC   NC330071  32.784   4.600   9.358
 2246POPC   PO430072  33.099   4.039   9.564
 2246POPC   GL130073  33.078   4.183   9.122
 2246POPC   GL230074  33.037   4.496   8.954
 2246POPC   C1A30075  33.300   4.165   8.703
 2246POPC   D2A30076  33.324   4.220   8.238
 2246POPC   C3A30077  32.931   4.264   7.989
 2246POPC   C4A30078  32.807   4.343   7.538
 2246POPC   C1B30079  33.155   4.790   8.687
 2246POPC   C2B30080  33.047   4.677   8.302
 2246POPC   C3B30081  33.270   4.659   7.948
 2246POPC   C4B30082  33.199   4.684   7.538
 2247POPC   NC330083  19.128  31.164   9.546
 2247POPC   PO430084  19.128  31.888   9.526
 2247POPC   GL130085  19.178  31.615   9.157
 2247POPC   GL230086  18.943  31.324   9.073
 2247POPC   C1A30087  19.034  31.691   8.735
 2247POPC   D2A30088  18.991  31.478   8.357
 2247POPC   C3A30089  19.054  31.676   7.987
 2247POPC   C4A30090  18.828  31.619   7.628
 2247POPC   C1B30091  18.690  31.191   8.704
 2247POPC   C2B30092  18.525  31.229   8.270
 2247POPC   C3B30093  18.808  31.197   7.938
 2247POPC   C4B30094  19.198  31.248   7.724
 2248POPC   NC330095  39.401  26.907   9.524
 2248POPC   PO430096  39.036  26.297   9.458
 2248POPC   GL130097  39.092  26.650   9.150
 2248POPC   GL230098  38.940  26.981   9.184
 2248POPC   C1A30099  39.286  26.828   8.783
 2248POPC   D2A30100  39.277  27.077   8.402
 2248POPC   C3A30101  39.380  26.883   8.022
 2248POPC   C4A30102  39.391  26.489   7.806
 2248POPC   C1B30103  38.749  26.922   8.784
 2248POPC   C2B30104  38.878  26.732   8.416
 2248POPC   C3B30105  38.928  26.557   8.023
 2248POPC   C4B30106  38.906  26.883   7.764
 2249POPC   NC330107   4.511  40.500   9.494
 2249POPC   PO430108   3.932  40.470   9.550
 2249POPC   GL130109   4.071  40.759   9.219
 2249POPC   GL230110   4.128  40.510   9.046
 2249POPC   C1A30111   4.078  40.917   8.738
 2249POPC   D2A30112   4.034  40.825   8.265
 2249POPC   C3A30113   4.347  40.823   7.955
 2249POPC   C4A30114   4.707  41.043   7.858
 2249POPC   C1B30115   4.202  40.440   8.646
 2249POPC   C2B30116   4.322  40.403   8.257
 2249POPC   C3B30117   4.096  40.370   7.911
 2249POPC   C4B30118   3.945  40.609   7.602
 2250POPC   NC330119   6.600   5.078   9.526
 2250POPC   PO430120   6.118   5.501   9.425
 2250POPC   GL130121   6.476   5.373   9.145
 2250POPC   GL230122   6.318   5.015   9.107
 2250POPC   C1A30123   6.721   5.099   8.821
 2250POPC   D2A30124   6.580   5.139   8.395
 2250POPC   C3A30125   6.598   4.808   8.122
 2250POPC   C4A30126   6.880   5.083   7.918
 2250POPC   C1B30127   6.199   5.266   8.741
 2250POPC   C2B30128   6.268   5.549   8.402
 2250POPC   C3B30129   6.462   5.523   8.029
 2250POPC   C4B30130   6.389   5.163   7.808
 2251POPC   NC330131   9.278  30.549   9.434
 2251POPC   PO430132   8.589  30.721   9.609
 2251POPC   GL130133   8.885  30.823   9.209
 2251POPC   GL230134   8.978  30.528   9.030
 2251POPC   C1A30135   9.059  30.961   8.786
 2251POPC   D2A30136   9.036  30.617   8.479
 2251POPC   C3A30137   9.228  30.745   8.129
 2251POPC   C4A30138   9.119  30.819   7.732
 2251POPC   C1B30139   8.714  30.309   8.741
 2251POPC   C2B30140   8.562  30.240   8.316
 2251POPC   C3B30141   8.741  30.487   7.963
 2251POPC   C4B30142   8.559  30.515   7.540
 2252POPC   NC330143  24.648  25.561   9.386
 2252POPC   PO430144  24.387  24.924   9.445
 2252POPC   GL130145  24.468  25.154   9.114
 2252POPC   GL230146  24.799  25.029   9.112
 2252POPC   C1A30147  24.316  25.381   8.733
 2252POPC   D2A30148  24.478  25.543   8.338
 2252POPC   C3A30149  24.402  25.275   7.981
 2252POPC   C4A30150  24.258  25.313   7.562
 2252POPC   C1B30151  24.586  24.914   8.701
 2252POPC   C2B30152  24.752  25.058   8.335
 2252POPC   C3B30153  24.925  25.276   7.990
 2252POPC   C4B30154  24.737  25.106   7.616
 2253POPC   NC330155  44.723  43.632   9.436
 2253POPC   PO430156  44.527  43.015   9.739
 2253POPC   GL130157  44.486  43.069   9.229
 2253POPC   GL230158  44.316  42.876   9.050
 2253POPC   C1A30159  44.763  42.875   8.829
 2253POPC   D2A30160  44.860  42.907   8.401
 2253POPC   C3A30161  44.551  43.064   8.131
 2253POPC   C4A30162  44.731  43.094   7.735
 2253POPC   C1B30163  44.381  43.159   8.691
 2253POPC   C2B30164  44.448  43.511   8.455
 2253POPC   C3B30165  44.230  43.529   8.090
 2253POPC   C4B30166  44.347  43.410   7.739
 2254POPC   NC330167  20.867  21.918   9.491
 2254POPC   PO430168  20.295  22.377   9.517
 2254POPC   GL130169  20.550  22.244   9.212
 2254POPC   GL230170  20.410  21.909   9.225
 2254POPC   C1A30171  20.677  22.375   8.794
 2254POPC   D2A30172  20.478  22.343   8.374
 2254POPC   C3A30173  20.772  22.386   8.032
 2254POPC   C4A30174  20.737  22.555   7.617
 2254POPC   C1B30175  20.397  21.954   8.797
 2254POPC   C2B30176  20.403  21.788   8.406
 2254POPC   C3B30177  20.531  21.915   8.035
 2254POPC   C4B30178  20.834  21.975   7.713
 2255POPC   NC330179   3.707  41.829   9.499
 2255POPC   PO430180   3.328  41.250   9.710
 2255POPC   GL130181   3.434  41.420   9.229
 2255POPC   GL230182   3.707  41.586   9.068
 2255POPC   C1A30183   3.341  41.653   8.747
 2255POPC   D2A30184   3.124  41.618   8.310
 2255POPC   C3A30185   3.380  41.568   7.930
 2255POPC   C4A30186   3.520  41.496   7.509
 2255POPC   C1B30187   3.879  41.848   8.762
 2255POPC   C2B30188   3.724  41.756   8.374
 2255POPC   C3B30189   3.885  41.612   7.991
 2255POPC   C4B30190   3.953  41.810   7.640
 2256POPC   NC330191   8.086  31.952   9.424
 2256POPC   PO430192   8.515  32.361   9.610
 2256POPC   GL130193   8.273  32.518   9.215
 2256POPC   GL230194   8.041  32.303   9.066
 2256POPC   C1A30195   8.251  32.667   8.761
 2256POPC   D2A30196   8.356  32.672   8.327
 2256POPC   C3A30197   8.202  32.511   7.935
 2256POPC   C4A30198   8.265  32.098   7.753
 2256POPC   C1B30199   8.328  32.162   8.740
 2256POPC   C2B30200   8.184  32.141   8.320
 2256POPC   C3B30201   8.027  31.777   8.111
 2256POPC   C4B30202   7.804  31.743   7.728
 2257POPC   NC330203  17.063  31.263   9.346
 2257POPC   PO430204  16.643  31.755   9.560
 2257POPC   GL130205  16.552  31.540   9.167
 2257POPC   GL230206  16.624  31.176   9.134
 2257POPC   C1A30207  16.607  31.462   8.717
 2257POPC   D2A30208  16.646  31.609   8.313
 2257POPC   C3A30209  16.539  31.499   7.890
 2257POPC   C4A30210  16.695  31.702   7.518
 2257POPC   C1B30211  16.897  31.049   8.764
 2257POPC   C2B30212  16.933  30.975   8.332
 2257POPC   C3B30213  17.091  31.166   7.968
 2257POPC   C4B30214  16.941  31.271   7.559
 2258POPC   NC330215   6.160   5.957   9.341
 2258POPC   PO430216   5.566   5.807   9.608
 2258POPC   GL130217   5.580   5.816   9.158
 2258POPC   GL230218   5.852   5.670   9.038
 2258POPC   C1A30219   5.646   6.038   8.736
 2258POPC   D2A30220   6.062   5.994   8.504
 2258POPC   C3A30221   6.174   5.960   8.086
 2258POPC   C4A30222   5.874   6.022   7.784
 2258POPC   C1B30223   5.799   5.567   8.635
 2258POPC   C2B30224   5.771   5.685   8.216
 2258POPC   C3B30225   5.982   5.526   7.852
 2258POPC   C4B30226   5.746   5.490   7.497
 2259POPC   NC330227  19.450  43.861   9.382
 2259POPC   PO430228  18.736  43.641   9.406
 2259POPC   GL130229  18.974  43.982   9.217
 2259POPC   GL230230  19.124  43.739   9.008
 2259POPC   C1A30231  19.081  44.242   8.873
 2259POPC   D2A30232  19.145  43.979   8.506
 2259POPC   C3A30233  19.195  44.076   8.089
 2259POPC   C4A30234  19.106  43.928   7.692
 2259POPC   C1B30235  19.183  43.494   8.651
 2259POPC   C2B30236  19.227  43.543   8.226
 2259POPC   C3B30237  19.142  43.437   7.828
 2259POPC   C4B30238  19.363  43.572   7.454
 2260POPC   NC330239   9.230  28.940   9.528
 2260POPC   PO430240   8.649  29.267   9.387
 2260POPC   GL130241   9.000  29.221   9.123
 2260POPC   GL230242   8.925  28.870   9.099
 2260POPC   C1A30243   9.064  29.250   8.668
 2260POPC   D2A30244   9.103  29.481   8.232
 2260POPC   C3A30245   9.115  29.178   7.912
 2260POPC   C4A30246   9.400  28.833   7.833
 2260POPC   C1B30247   8.640  28.947   8.719
 2260POPC   C2B30248   8.754  29.114   8.292
 2260POPC   C3B30249   8.651  29.390   7.974
 2260POPC   C4B30250   8.668  29.350   7.553
 2261POPC   NC330251  32.323  17.960   9.426
 2261POPC   PO430252  32.326  17.278   9.487
 2261POPC   GL130253  32.265  17.205   9.091
 2261POPC   GL230254  32.390  17.565   9.050
 2261POPC   C1A30255  32.217  17.290   8.665
 2261POPC   D2A30256  32.274  17.562   8.359
 2261POPC   C3A30257  32.221  17.358   7.987
 2261POPC   C4A30258  31.894  17.141   7.768
 2261POPC   C1B30259  32.074  17.779   8.790
 2261POPC   C2B30260  31.929  17.966   8.402
 2261POPC   C3B30261  32.082  17.863   7.993
 2261POPC   C4B30262  31.969  17.691   7.640
 2262POPC   NC330263   6.062  12.244   9.583
 2262POPC   PO430264   5.749  11.600   9.469
 2262POPC   GL130265   6.026  11.887   9.183
 2262POPC   GL230266   5.916  12.258   9.080
 2262POPC   C1A30267   6.021  11.918   8.718
 2262POPC   D2A30268   5.874  11.825   8.298
 2262POPC   C3A30269   5.943  12.049   7.911
 2262POPC   C4A30270   5.549  11.891   7.744
 2262POPC   C1B30271   5.694  12.318   8.652
 2262POPC   C2B30272   5.557  12.344   8.197
 2262POPC   C3B30273   5.796  12.570   7.868
 2262POPC   C4B30274   6.009  12.456   7.487
 2263POPC   NC330275   7.035  11.284   9.575
 2263POPC   PO430276   6.493  11.002   9.298
 2263POPC   GL130277   6.760  11.281   9.075
 2263POPC   GL230278   7.075  11.108   9.102
 2263POPC   C1A30279   6.691  11.367   8.624
 2263POPC   D2A30280   6.802  11.557   8.221
 2263POPC   C3A30281   6.596  11.368   7.877
 2263POPC   C4A30282   6.454  10.963   7.842
 2263POPC   C1B30283   6.934  10.923   8.719
 2263POPC   C2B30284   6.784  10.991   8.279
 2263POPC   C3B30285   6.999  11.066   7.905
 2263POPC   C4B30286   6.844  11.027   7.513
 2264POPC   NC330287  15.844  43.270   9.555
 2264POPC   PO430288  16.250  42.939   9.233
 2264POPC   GL130289  15.874  43.019   9.059
 2264POPC   GL230290  15.862  43.345   9.051
 2264POPC   C1A30291  15.770  42.975   8.621
 2264POPC   D2A30292  16.137  42.869   8.345
 2264POPC   C3A30293  15.999  42.910   7.933
 2264POPC   C4A30294  15.605  43.101   7.771
 2264POPC   C1B30295  16.127  43.320   8.659
 2264POPC   C2B30296  16.072  43.433   8.213
 2264POPC   C3B30297  16.080  43.381   7.729
 2264POPC   C4B30298  16.220  43.586   7.320
 2265POPC   NC330299  30.815   6.333   9.647
 2265POPC   PO430300  30.954   5.721   9.737
 2265POPC   GL130301  30.680   5.855   9.298
 2265POPC   GL230302  30.347   6.005   9.211
 2265POPC   C1A30303  30.784   5.786   8.858
 2265POPC   D2A30304  31.115   5.765   8.589
 2265POPC   C3A30305  31.014   5.742   8.140
 2265POPC   C4A30306  30.835   5.822   7.738
 2265POPC   C1B30307  30.278   5.817   8.776
 2265POPC   C2B30308  30.523   5.757   8.382
 2265POPC   C3B30309  30.367   5.804   7.941
 2265POPC   C4B30310  30.420   5.595   7.537
 2266POPC   NC330311  43.726   8.492   9.443
 2266POPC   PO430312  44.042   7.878   9.505
 2266POPC   GL130313  43.867   7.980   9.075
 2266POPC   GL230314  43.687   8.283   8.996
 2266POPC   C1A30315  44.033   8.193   8.667
 2266POPC   D2A30316  43.866   8.101   8.298
 2266POPC   C3A30317  44.083   8.245   7.956
 2266POPC   C4A30318  43.958   7.885   7.703
 2266POPC   C1B30319  43.746   8.621   8.681
 2266POPC   C2B30320  43.656   8.566   8.229
 2266POPC   C3B30321  43.596   8.292   7.841
 2266POPC   C4B30322  43.437   8.338   7.402
 2267POPC   NC330323  27.226  23.764   9.553
 2267POPC   PO430324  26.590  23.993   9.543
 2267POPC   GL130325  26.563  23.898   9.118
 2267POPC   GL230326  26.912  23.775   9.140
 2267POPC   C1A30327  26.645  23.722   8.705
 2267POPC   D2A30328  26.894  23.441   8.455
 2267POPC   C3A30329  26.835  23.460   8.006
 2267POPC   C4A30330  27.119  23.265   7.732
 2267POPC   C1B30331  27.191  23.738   8.795
 2267POPC   C2B30332  27.241  23.828   8.364
 2267POPC   C3B30333  27.144  24.025   7.957
 2267POPC   C4B30334  27.126  23.796   7.603
 2268POPC   NC330335  12.303  32.637   9.620
 2268POPC   PO430336  12.559  33.157   9.380
 2268POPC   GL130337  12.750  33.163   8.983
 2268POPC   GL230338  13.097  33.015   8.996
 2268POPC   C1A30339  12.819  33.090   8.550
 2268POPC   D2A30340  12.906  33.251   8.150
 2268POPC   C3A30341  12.617  33.203   7.829
 2268POPC   C4A30342  12.341  33.104   7.492
 2268POPC   C1B30343  13.298  33.264   8.700
 2268POPC   C2B30344  13.319  33.501   8.304
 2268POPC   C3B30345  13.306  33.423   7.888
 2268POPC   C4B30346  13.100  33.094   7.674
 2269POPC   NC330347  37.581  38.254   9.439
 2269POPC   PO430348  37.815  38.887   9.505
 2269POPC   GL130349  37.723  38.747   9.071
 2269POPC   GL230350  37.379  38.634   9.027
 2269POPC   C1A30351  37.734  38.387   8.739
 2269POPC   D2A30352  37.959  38.142   8.406
 2269POPC   C3A30353  37.901  38.297   7.984
 2269POPC   C4A30354  37.519  38.421   7.812
 2269POPC   C1B30355  37.331  38.705   8.584
 2269POPC   C2B30356  37.580  38.734   8.227
 2269POPC   C3B30357  37.835  38.861   7.900
 2269POPC   C4B30358  37.811  38.754   7.492
 2270POPC   NC330359  23.740  26.847   9.583
 2270POPC   PO430360  23.047  26.790   9.606
 2270POPC   GL130361  23.409  26.651   9.266
 2270POPC   GL230362  23.605  26.951   9.090
 2270POPC   C1A30363  23.659  26.485   8.886
 2270POPC   D2A30364  23.752  26.777   8.566
 2270POPC   C3A30365  23.669  26.709   8.159
 2270POPC   C4A30366  23.696  26.658   7.752
 2270POPC   C1B30367  23.923  27.195   8.792
 2270POPC   C2B30368  24.067  27.131   8.342
 2270POPC   C3B30369  23.914  27.096   7.892
 2270POPC   C4B30370  23.891  27.377   7.538
 2271POPC   NC330371  44.369  33.696   9.440
 2271POPC   PO430372  44.848  34.120   9.672
 2271POPC   GL130373  44.778  33.909   9.209
 2271POPC   GL230374  44.720  33.570   9.038
 2271POPC   C1A30375  44.634  33.958   8.743
 2271POPC   D2A30376  44.593  33.755   8.313
 2271POPC   C3A30377  44.523  34.044   7.958
 2271POPC   C4A30378  44.868  34.149   7.659
 2271POPC   C1B30379  44.288  33.580   8.805
 2271POPC   C2B30380  44.175  33.469   8.387
 2271POPC   C3B30381  44.228  33.520   7.954
 2271POPC   C4B30382  44.603  33.591   7.739
 2272POPC   NC330383  15.788  16.832   9.572
 2272POPC   PO430384  16.210  16.351   9.365
 2272POPC   GL130385  16.000  16.662   9.145
 2272POPC   GL230386  16.293  16.825   9.084
 2272POPC   C1A30387  15.899  16.859   8.764
 2272POPC   D2A30388  15.902  17.057   8.372
 2272POPC   C3A30389  15.645  16.799   8.137
 2272POPC   C4A30390  15.710  16.671   7.738
 2272POPC   C1B30391  16.549  16.849   8.754
 2272POPC   C2B30392  16.383  16.770   8.366
 2272POPC   C3B30393  16.125  16.704   8.032
 2272POPC   C4B30394  16.233  16.799   7.617
 2273POPC   NC330395   1.846  18.081   9.473
 2273POPC   PO430396   2.388  18.548   9.521
 2273POPC   GL130397   2.235  18.255   9.180
 2273POPC   GL230398   1.945  18.438   9.109
 2273POPC   C1A30399   2.058  18.024   8.802
 2273POPC   D2A30400   1.818  18.029   8.413
 2273POPC   C3A30401   1.949  18.229   8.016
 2273POPC   C4A30402   2.063  18.356   7.582
 2273POPC   C1B30403   2.278  18.684   8.888
 2273POPC   C2B30404   2.205  18.706   8.439
 2273POPC   C3B30405   2.227  18.678   7.966
 2273POPC   C4B30406   2.108  18.867   7.564
 2274POPC   NC330407  21.503   4.315   9.627
 2274POPC   PO430408  20.866   4.449   9.602
 2274POPC   GL130409  21.011   4.379   9.166
 2274POPC   GL230410  21.407   4.266   9.134
 2274POPC   C1A30411  21.170   4.498   8.769
 2274POPC   D2A30412  21.396   4.314   8.447
 2274POPC   C3A30413  21.239   4.472   8.037
 2274POPC   C4A30414  21.113   4.445   7.607
 2274POPC   C1B30415  21.791   4.254   8.852
 2274POPC   C2B30416  21.825   3.995   8.468
 2274POPC   C3B30417  21.754   4.180   8.084
 2274POPC   C4B30418  21.528   4.202   7.724
 2275POPC   NC330419  17.627  13.706   9.441
 2275POPC   PO430420  17.048  13.653   9.798
 2275POPC   GL130421  17.154  13.746   9.238
 2275POPC   GL230422  17.465  13.511   9.019
 2275POPC   C1A30423  17.112  13.663   8.740
 2275POPC   D2A30424  17.346  13.388   8.419
 2275POPC   C3A30425  17.445  13.504   8.004
 2275POPC   C4A30426  17.346  13.322   7.613
 2275POPC   C1B30427  17.741  13.592   8.672
 2275POPC   C2B30428  17.903  13.570   8.253
 2275POPC   C3B30429  17.876  13.747   7.826
 2275POPC   C4B30430  17.825  13.772   7.377
 2276POPC   NC330431  11.511  23.978   9.434
 2276POPC   PO430432  11.287  24.609   9.547
 2276POPC   GL130433  11.206  24.617   9.148
 2276POPC   GL230434  11.097  24.286   9.167
 2276POPC   C1A30435  11.421  24.511   8.776
 2276POPC   D2A30436  11.300  24.334   8.381
 2276POPC   C3A30437  11.302  24.609   8.036
 2276POPC   C4A30438  11.476  24.406   7.675
 2276POPC   C1B30439  10.976  24.197   8.756
 2276POPC   C2B30440  10.810  24.010   8.364
 2276POPC   C3B30441  11.043  24.077   7.983
 2276POPC   C4B30442  10.950  24.390   7.718
 2277POPC   NC330443  24.350  42.761   9.885
 2277POPC   PO430444  24.346  43.106   9.304
 2277POPC   GL130445  24.493  42.830   9.020
 2277POPC   GL230446  24.824  42.960   9.150
 2277POPC   C1A30447  24.389  42.994   8.607
 2277POPC   D2A30448  24.329  43.438   8.434
 2277POPC   C3A30449  24.375  43.340   8.019
 2277POPC   C4A30450  24.401  42.893   7.883
 2277POPC   C1B30451  24.805  43.261   8.783
 2277POPC   C2B30452  24.832  43.322   8.325
 2277POPC   C3B30453  24.856  43.207   7.858
 2277POPC   C4B30454  24.952  43.347   7.422
 2278POPC   NC330455  44.368  40.279   9.512
 2278POPC   PO430456  44.714  39.703   9.383
 2278POPC   GL130457  44.777  40.124   9.195
 2278POPC   GL230458  44.452  40.176   9.028
 2278POPC   C1A30459  44.868  40.267   8.773
 2278POPC   D2A30460  44.780  40.074   8.408
 2278POPC   C3A30461  44.668  40.315   8.075
 2278POPC   C4A30462  44.801  40.092   7.739
 2278POPC   C1B30463  44.418  39.830   8.779
 2278POPC   C2B30464  44.220  39.715   8.383
 2278POPC   C3B30465  44.436  39.829   8.034
 2278POPC   C4B30466  44.315  39.975   7.657
 2279POPC   NC330467  30.469  43.791   9.514
 2279POPC   PO430468  29.770  43.894   9.386
 2279POPC   GL130469  29.997  43.824   9.072
 2279POPC   GL230470  30.158  43.553   9.150
 2279POPC   C1A30471  30.090  43.987   8.689
 2279POPC   D2A30472  30.074  44.286   8.396
 2279POPC   C3A30473  29.773  44.083   8.176
 2279POPC   C4A30474  29.798  44.056   7.774
 2279POPC   C1B30475  29.960  43.416   8.758
 2279POPC   C2B30476  29.736  43.580   8.381
 2279POPC   C3B30477  29.933  43.620   7.983
 2279POPC   C4B30478  30.359  43.511   7.813
 2280POPC   NC330479  33.276  19.191   9.668
 2280POPC   PO430480  33.512  18.620   9.349
 2280POPC   GL130481  33.346  18.827   9.037
 2280POPC   GL230482  33.193  19.102   9.172
 2280POPC   C1A30483  33.254  19.025   8.638
 2280POPC   D2A30484  33.138  19.185   8.256
 2280POPC   C3A30485  33.281  19.054   7.879
 2280POPC   C4A30486  33.191  19.274   7.509
 2280POPC   C1B30487  32.825  19.071   8.919
 2280POPC   C2B30488  32.727  18.987   8.481
 2280POPC   C3B30489  32.773  18.839   8.046
 2280POPC   C4B30490  32.888  18.825   7.613
 2281POPC   NC330491   7.137  26.228   9.399
 2281POPC   PO430492   7.652  25.770   9.499
 2281POPC   GL130493   7.430  25.894   9.133
 2281POPC   GL230494   7.530  26.234   9.034
 2281POPC   C1A30495   7.575  25.831   8.715
 2281POPC   D2A30496   7.777  25.876   8.356
 2281POPC   C3A30497   7.591  25.837   7.955
 2281POPC   C4A30498   7.232  25.974   7.680
 2281POPC   C1B30499   7.722  26.319   8.628
 2281POPC   C2B30500   7.537  26.438   8.236
 2281POPC   C3B30501   7.291  26.455   7.875
 2281POPC   C4B30502   7.641  26.292   7.687
 2282POPC   NC330503   8.836  13.405   9.577
 2282POPC   PO430504   8.792  12.736   9.532
 2282POPC   GL130505   8.888  13.021   9.207
 2282POPC   GL230506   9.207  13.165   9.191
 2282POPC   C1A30507   8.863  13.013   8.763
 2282POPC   D2A30508   8.882  12.765   8.388
 2282POPC   C3A30509   8.555  12.784   8.093
 2282POPC   C4A30510   8.490  13.094   7.793
 2282POPC   C1B30511   9.283  12.748   8.947
 2282POPC   C2B30512   9.369  12.615   8.475
 2282POPC   C3B30513   9.255  12.714   8.038
 2282POPC   C4B30514   8.986  13.032   7.869
 2283POPC   NC330515  14.708  22.245   9.476
 2283POPC   PO430516  15.345  22.208   9.491
 2283POPC   GL130517  15.327  22.259   9.046
 2283POPC   GL230518  14.970  22.165   9.047
 2283POPC   C1A30519  15.188  22.372   8.632
 2283POPC   D2A30520  14.996  22.096   8.333
 2283POPC   C3A30521  15.172  22.114   7.947
 2283POPC   C4A30522  15.515  22.336   7.755
 2283POPC   C1B30523  14.690  22.337   8.729
 2283POPC   C2B30524  14.732  22.524   8.304
 2283POPC   C3B30525  14.681  22.248   7.932
 2283POPC   C4B30526  14.819  22.122   7.535
 2284POPC   NC330527  28.748  14.894   9.487
 2284POPC   PO430528  28.288  15.314   9.738
 2284POPC   GL130529  28.197  15.267   9.241
 2284POPC   GL230530  28.199  14.917   9.274
 2284POPC   C1A30531  28.315  15.461   8.808
 2284POPC   D2A30532  28.639  15.455   8.472
 2284POPC   C3A30533  28.353  15.447   8.124
 2284POPC   C4A30534  28.381  15.308   7.715
 2284POPC   C1B30535  28.407  14.844   8.873
 2284POPC   C2B30536  28.355  15.031   8.482
 2284POPC   C3B30537  28.468  14.948   8.067
 2284POPC   C4B30538  28.287  14.761   7.706
 2285POPC   NC330539  31.327  34.394   9.539
 2285POPC   PO430540  31.907  34.821   9.575
 2285POPC   GL130541  31.689  34.678   9.225
 2285POPC   GL230542  31.335  34.699   9.141
 2285POPC   C1A30543  31.689  34.717   8.789
 2285POPC   D2A30544  31.692  34.960   8.438
 2285POPC   C3A30545  31.543  34.705   8.136
 2285POPC   C4A30546  31.597  34.647   7.738
 2285POPC   C1B30547  31.188  34.491   8.780
 2285POPC   C2B30548  31.156  34.417   8.321
 2285POPC   C3B30549  31.209  34.235   7.882
 2285POPC   C4B30550  30.969  34.064   7.522
 2286POPC   NC330551  22.796  14.227   9.579
 2286POPC   PO430552  22.647  13.543   9.525
 2286POPC   GL130553  22.848  13.532   9.136
 2286POPC   GL230554  23.195  13.384   9.104
 2286POPC   C1A30555  22.713  13.734   8.758
 2286POPC   D2A30556  22.898  13.870   8.391
 2286POPC   C3A30557  22.828  13.510   8.138
 2286POPC   C4A30558  22.790  13.585   7.723
 2286POPC   C1B30559  23.224  13.682   8.765
 2286POPC   C2B30560  23.310  13.586   8.340
 2286POPC   C3B30561  23.246  13.739   7.902
 2286POPC   C4B30562  23.446  13.890   7.511
 2287POPC   NC330563   1.796  30.674   9.423
 2287POPC   PO430564   2.459  30.536   9.360
 2287POPC   GL130565   2.207  30.733   9.064
 2287POPC   GL230566   1.994  30.441   9.035
 2287POPC   C1A30567   2.191  30.974   8.678
 2287POPC   D2A30568   2.345  31.086   8.253
 2287POPC   C3A30569   2.065  30.902   7.917
 2287POPC   C4A30570   1.786  30.997   7.577
 2287POPC   C1B30571   1.847  30.245   8.709
 2287POPC   C2B30572   2.010  30.057   8.339
 2287POPC   C3B30573   2.229  30.302   8.037
 2287POPC   C4B30574   2.075  30.429   7.630
 2288POPC   NC330575  32.203  22.396   9.864
 2288POPC   PO430576  32.262  22.948   9.493
 2288POPC   GL130577  32.364  23.098   9.071
 2288POPC   GL230578  32.612  23.346   9.121
 2288POPC   C1A30579  32.273  22.970   8.623
 2288POPC   D2A30580  31.937  22.819   8.325
 2288POPC   C3A30581  32.041  22.714   7.908
 2288POPC   C4A30582  32.411  22.681   7.648
 2288POPC   C1B30583  32.465  23.447   8.689
 2288POPC   C2B30584  32.629  23.203   8.345
 2288POPC   C3B30585  32.432  23.005   8.064
 2288POPC   C4B30586  32.361  23.246   7.716
 2289POPC   NC330587   2.167  23.025   9.473
 2289POPC   PO430588   1.825  23.630   9.394
 2289POPC   GL130589   1.973  23.326   9.082
 2289POPC   GL230590   1.864  22.961   9.084
 2289POPC   C1A30591   2.022  23.174   8.663
 2289POPC   D2A30592   2.151  22.873   8.390
 2289POPC   C3A30593   2.016  23.089   8.081
 2289POPC   C4A30594   1.928  23.034   7.690
 2289POPC   C1B30595   1.666  22.681   8.825
 2289POPC   C2B30596   1.644  22.834   8.416
 2289POPC   C3B30597   1.691  22.672   7.998
 2289POPC   C4B30598   1.676  22.610   7.553
 2290POPC   NC330599  16.978  18.377   9.538
 2290POPC   PO430600  16.487  18.704   9.749
 2290POPC   GL130601  16.556  18.736   9.265
 2290POPC   GL230602  16.604  18.388   9.192
 2290POPC   C1A30603  16.757  18.744   8.838
 2290POPC   D2A30604  17.009  18.742   8.452
 2290POPC   C3A30605  16.865  18.459   8.170
 2290POPC   C4A30606  16.744  18.319   7.782
 2290POPC   C1B30607  16.469  18.310   8.796
 2290POPC   C2B30608  16.451  18.573   8.436
 2290POPC   C3B30609  16.325  18.391   8.060
 2290POPC   C4B30610  16.304  18.049   7.765
 2291POPC   NC330611  33.197  43.487   9.706
 2291POPC   PO430612  32.726  43.891   9.515
 2291POPC   GL130613  32.806  43.991   9.107
 2291POPC   GL230614  33.131  43.854   9.064
 2291POPC   C1A30615  32.930  44.212   8.743
 2291POPC   D2A30616  33.003  44.015   8.348
 2291POPC   C3A30617  33.203  44.181   7.988
 2291POPC   C4A30618  32.952  44.275   7.575
 2291POPC   C1B30619  33.392  43.925   8.683
 2291POPC   C2B30620  33.415  43.710   8.265
 2291POPC   C3B30621  33.080  43.697   7.939
 2291POPC   C4B30622  33.031  43.675   7.486
 2292POPC   NC330623  16.728   7.024   9.554
 2292POPC   PO430624  16.971   7.652   9.401
 2292POPC   GL130625  16.734   7.332   9.126
 2292POPC   GL230626  16.848   6.982   9.054
 2292POPC   C1A30627  16.656   7.344   8.683
 2292POPC   D2A30628  16.586   7.138   8.282
 2292POPC   C3A30629  16.642   7.451   7.965
 2292POPC   C4A30630  16.510   7.660   7.610
 2292POPC   C1B30631  16.976   6.935   8.640
 2292POPC   C2B30632  17.105   7.262   8.373
 2292POPC   C3B30633  17.135   7.315   7.955
 2292POPC   C4B30634  16.862   7.086   7.702
 2293POPC   NC330635  18.696  34.709   9.906
 2293POPC   PO430636  18.277  34.359   9.576
 2293POPC   GL130637  18.253  34.384   9.146
 2293POPC   GL230638  18.453  34.098   9.102
 2293POPC   C1A30639  18.129  34.515   8.723
 2293POPC   D2A30640  17.906  34.454   8.326
 2293POPC   C3A30641  18.025  34.704   7.950
 2293POPC   C4A30642  18.205  34.543   7.547
 2293POPC   C1B30643  18.635  34.320   8.751
 2293POPC   C2B30644  18.536  34.554   8.401
 2293POPC   C3B30645  18.475  34.465   7.989
 2293POPC   C4B30646  18.721  34.280   7.735
 2294POPC   NC330647  42.086   8.590   9.556
 2294POPC   PO430648  42.515   9.085   9.307
 2294POPC   GL130649  42.212   8.811   9.113
 2294POPC   GL230650  42.419   8.567   9.002
 2294POPC   C1A30651  42.054   8.913   8.712
 2294POPC   D2A30652  42.239   9.115   8.406
 2294POPC   C3A30653  42.233   8.838   8.097
 2294POPC   C4A30654  42.142   9.091   7.804
 2294POPC   C1B30655  42.560   8.733   8.631
 2294POPC   C2B30656  42.785   9.058   8.430
 2294POPC   C3B30657  42.626   9.156   8.070
 2294POPC   C4B30658  42.636   8.938   7.696
 2295POPC   NC330659   0.634  22.835   9.418
 2295POPC   PO430660  44.921  22.705   9.608
 2295POPC   GL130661   0.155  22.799   9.193
 2295POPC   GL230662   0.111  23.123   8.992
 2295POPC   C1A30663   0.331  22.707   8.758
 2295POPC   D2A30664   0.732  22.746   8.494
 2295POPC   C3A30665   0.549  22.874   8.115
 2295POPC   C4A30666   0.337  22.598   7.853
 2295POPC   C1B30667   0.517  23.207   8.730
 2295POPC   C2B30668   0.765  23.311   8.338
 2295POPC   C3B30669   0.654  23.324   7.867
 2295POPC   C4B30670   0.495  23.358   7.409
 2296POPC   NC330671  42.014  36.296   9.432
 2296POPC   PO430672  42.590  35.914   9.585
 2296POPC   GL130673  42.655  35.958   9.152
 2296POPC   GL230674  42.453  36.264   9.107
 2296POPC   C1A30675  42.634  36.001   8.706
 2296POPC   D2A30676  42.472  36.268   8.394
 2296POPC   C3A30677  42.590  36.055   8.049
 2296POPC   C4A30678  42.490  36.061   7.633
 2296POPC   C1B30679  42.127  36.168   8.781
 2296POPC   C2B30680  41.969  36.217   8.353
 2296POPC   C3B30681  42.169  36.366   7.943
 2296POPC   C4B30682  42.093  36.363   7.487
 2297POPC   NC330683  32.368   9.394   9.391
 2297POPC   PO430684  32.420   8.752   9.707
 2297POPC   GL130685  32.324   8.873   9.225
 2297POPC   GL230686  32.625   8.722   9.056
 2297POPC   C1A30687  32.095   9.061   8.800
 2297POPC   D2A30688  31.842   9.007   8.373
 2297POPC   C3A30689  31.871   9.281   8.018
 2297POPC   C4A30690  31.970   9.200   7.586
 2297POPC   C1B30691  32.625   8.941   8.691
 2297POPC   C2B30692  32.725   9.032   8.283
 2297POPC   C3B30693  32.602   8.947   7.934
 2297POPC   C4B30694  32.398   9.278   7.839
 2298POPC   NC330695  40.948  31.667   9.453
 2298POPC   PO430696  40.303  31.436   9.502
 2298POPC   GL130697  40.630  31.380   9.138
 2298POPC   GL230698  40.319  31.166   9.018
 2298POPC   C1A30699  40.976  31.532   8.744
 2298POPC   D2A30700  41.101  31.811   8.338
 2298POPC   C3A30701  41.022  31.664   7.881
 2298POPC   C4A30702  40.809  31.689   7.453
 2298POPC   C1B30703  40.490  31.424   8.670
 2298POPC   C2B30704  40.646  31.618   8.311
 2298POPC   C3B30705  40.504  31.575   7.906
 2298POPC   C4B30706  40.354  31.477   7.510
 2299POPC   NC330707  24.937   4.478   9.719
 2299POPC   PO430708  24.280   4.315   9.532
 2299POPC   GL130709  24.542   4.267   9.190
 2299POPC   GL230710  24.649   4.602   9.277
 2299POPC   C1A30711  24.462   4.172   8.739
 2299POPC   D2A30712  24.582   4.087   8.301
 2299POPC   C3A30713  24.470   4.267   7.911
 2299POPC   C4A30714  24.370   4.051   7.508
 2299POPC   C1B30715  24.757   4.596   8.850
 2299POPC   C2B30716  24.587   4.591   8.421
 2299POPC   C3B30717  24.841   4.598   8.088
 2299POPC   C4B30718  24.958   4.444   7.716
 2300POPC   NC330719  16.946   6.177   9.263
 2300POPC   PO430720  16.544   6.619   9.709
 2300POPC   GL130721  16.519   6.603   9.260
 2300POPC   GL230722  16.358   6.902   9.227
 2300POPC   C1A30723  16.651   6.549   8.831
 2300POPC   D2A30724  16.894   6.453   8.471
 2300POPC   C3A30725  16.907   6.760   8.128
 2300POPC   C4A30726  16.916   6.583   7.701
 2300POPC   C1B30727  16.340   6.967   8.802
 2300POPC   C2B30728  16.374   6.694   8.443
 2300POPC   C3B30729  16.186   6.632   8.079
 2300POPC   C4B30730  16.441   6.750   7.755
 2301POPC   NC330731   1.743   0.058   9.696
 2301POPC   PO430732   2.018   0.613   9.456
 2301POPC   GL130733   1.857   0.553   9.089
 2301POPC   GL230734   1.926   0.203   9.072
 2301POPC   C1A30735   2.001   0.619   8.680
 2301POPC   D2A30736   2.169   0.557   8.287
 2301POPC   C3A30737   1.867   0.770   8.066
 2301POPC   C4A30738   1.844   0.760   7.674
 2301POPC   C1B30739   1.624   0.290   8.732
 2301POPC   C2B30740   1.712   0.338   8.293
 2301POPC   C3B30741   1.852   0.287   7.867
 2301POPC   C4B30742   1.886   0.314   7.416
 2302POPC   NC330743  37.598  32.070   9.535
 2302POPC   PO430744  37.805  32.717   9.482
 2302POPC   GL130745  37.628  32.538   9.124
 2302POPC   GL230746  37.806  32.230   9.096
 2302POPC   C1A30747  37.561  32.440   8.714
 2302POPC   D2A30748  37.850  32.250   8.438
 2302POPC   C3A30749  37.750  32.371   8.027
 2302POPC   C4A30750  37.346  32.417   7.880
 2302POPC   C1B30751  38.108  31.994   8.825
 2302POPC   C2B30752  38.244  31.883   8.431
 2302POPC   C3B30753  38.106  32.006   8.031
 2302POPC   C4B30754  37.994  32.166   7.621
 2303POPC   NC330755  37.472  24.045   9.442
 2303POPC   PO430756  37.739  24.725   9.537
 2303POPC   GL130757  37.445  24.622   9.203
 2303POPC   GL230758  37.667  24.397   9.132
 2303POPC   C1A30759  37.323  24.460   8.771
 2303POPC   D2A30760  37.535  24.622   8.426
 2303POPC   C3A30761  37.489  24.469   8.047
 2303POPC   C4A30762  37.615  24.535   7.630
 2303POPC   C1B30763  37.847  24.693   8.845
 2303POPC   C2B30764  38.052  24.598   8.462
 2303POPC   C3B30765  38.006  24.562   8.017
 2303POPC   C4B30766  38.058  24.851   7.671
 2304POPC   NC330767   1.078  16.690   9.484
 2304POPC   PO430768   1.677  16.879   9.388
 2304POPC   GL130769   1.310  16.964   9.099
 2304POPC   GL230770   1.218  16.606   9.011
 2304POPC   C1A30771   0.928  17.010   8.811
 2304POPC   D2A30772   0.885  16.981   8.348
 2304POPC   C3A30773   1.246  16.880   8.081
 2304POPC   C4A30774   1.334  16.957   7.655
 2304POPC   C1B30775   1.277  16.709   8.596
 2304POPC   C2B30776   1.064  16.477   8.330
 2304POPC   C3B30777   0.907  16.516   7.968
 2304POPC   C4B30778   1.147  16.497   7.614
 2305POPC   NC330779   8.176  14.133   9.834
 2305POPC   PO430780   8.052  14.586   9.346
 2305POPC   GL130781   8.186  14.318   9.101
 2305POPC   GL230782   8.500  14.451   9.036
 2305POPC   C1A30783   7.972  14.311   8.720
 2305POPC   D2A30784   8.139  14.361   8.315
 2305POPC   C3A30785   7.999  14.303   7.918
 2305POPC   C4A30786   8.119  14.529   7.543
 2305POPC   C1B30787   8.473  14.222   8.689
 2305POPC   C2B30788   8.674  14.269   8.350
 2305POPC   C3B30789   8.522  14.318   7.957
 2305POPC   C4B30790   8.558  14.255   7.506
 2306POPC   NC330791  22.692  19.098   9.770
 2306POPC   PO430792  23.117  18.683   9.529
 2306POPC   GL130793  22.919  18.874   9.138
 2306POPC   GL230794  22.700  19.143   9.219
 2306POPC   C1A30795  23.036  19.103   8.743
 2306POPC   D2A30796  23.209  19.136   8.304
 2306POPC   C3A30797  22.939  18.922   7.952
 2306POPC   C4A30798  23.040  18.702   7.535
 2306POPC   C1B30799  22.587  19.333   8.806
 2306POPC   C2B30800  22.698  19.233   8.374
 2306POPC   C3B30801  22.456  19.078   8.037
 2306POPC   C4B30802  22.574  19.185   7.632
 2307POPC   NC330803  36.973  42.732   9.511
 2307POPC   PO430804  36.606  43.294   9.517
 2307POPC   GL130805  36.772  43.314   9.140
 2307POPC   GL230806  36.701  42.961   9.137
 2307POPC   C1A30807  36.858  43.187   8.726
 2307POPC   D2A30808  37.037  43.097   8.391
 2307POPC   C3A30809  36.840  43.216   8.019
 2307POPC   C4A30810  37.125  43.075   7.725
 2307POPC   C1B30811  36.435  42.895   8.752
 2307POPC   C2B30812  36.551  42.877   8.312
 2307POPC   C3B30813  36.528  42.826   7.846
 2307POPC   C4B30814  36.752  42.880   7.433
 2308POPC   NC330815   1.736  33.023   9.495
 2308POPC   PO430816   2.462  33.062   9.507
 2308POPC   GL130817   2.111  33.107   9.176
 2308POPC   GL230818   1.975  32.747   9.142
 2308POPC   C1A30819   1.890  33.191   8.773
 2308POPC   D2A30820   1.813  33.041   8.339
 2308POPC   C3A30821   2.059  33.184   7.965
 2308POPC   C4A30822   2.129  33.058   7.524
 2308POPC   C1B30823   1.778  32.590   8.772
 2308POPC   C2B30824   1.825  32.510   8.326
 2308POPC   C3B30825   1.897  32.685   7.899
 2308POPC   C4B30826   1.674  32.745   7.483
 2309POPC   NC330827   7.618  19.836   9.444
 2309POPC   PO430828   7.117  19.537   9.119
 2309POPC   GL130829   7.423  19.765   8.940
 2309POPC   GL230830   7.465  20.115   9.044
 2309POPC   C1A30831   7.365  19.712   8.503
 2309POPC   D2A30832   7.027  19.521   8.246
 2309POPC   C3A30833   7.247  19.417   7.885
 2309POPC   C4A30834   7.153  19.784   7.695
 2309POPC   C1B30835   7.477  20.197   8.649
 2309POPC   C2B30836   7.649  20.093   8.328
 2309POPC   C3B30837   7.442  20.008   8.032
 2309POPC   C4B30838   7.356  20.236   7.645
 2310POPC   NC330839  23.502  25.746   9.482
 2310POPC   PO430840  23.761  26.367   9.520
 2310POPC   GL130841  23.737  26.045   9.150
 2310POPC   GL230842  23.449  25.782   8.990
 2310POPC   C1A30843  23.831  26.019   8.731
 2310POPC   D2A30844  23.659  26.253   8.390
 2310POPC   C3A30845  23.900  26.274   7.991
 2310POPC   C4A30846  24.029  26.059   7.623
 2310POPC   C1B30847  23.360  25.825   8.576
 2310POPC   C2B30848  23.683  25.741   8.304
 2310POPC   C3B30849  23.646  25.852   7.945
 2310POPC   C4B30850  23.372  25.720   7.711
 2311POPC   NC330851  43.012  19.689   9.505
 2311POPC   PO430852  43.665  19.862   9.478
 2311POPC   GL130853  43.291  19.918   9.150
 2311POPC   GL230854  42.916  20.055   9.172
 2311POPC   C1A30855  43.066  19.678   8.789
 2311POPC   D2A30856  42.845  19.827   8.391
 2311POPC   C3A30857  43.095  19.926   8.033
 2311POPC   C4A30858  43.110  19.569   7.778
 2311POPC   C1B30859  42.896  20.162   8.765
 2311POPC   C2B30860  43.094  20.280   8.401
 2311POPC   C3B30861  42.750  20.301   8.101
 2311POPC   C4B30862  42.800  20.316   7.674
 2312POPC   NC330863  34.943  18.055   9.814
 2312POPC   PO430864  34.260  17.990   9.556
 2312POPC   GL130865  34.515  18.112   9.112
 2312POPC   GL230866  34.696  18.437   9.170
 2312POPC   C1A30867  34.706  18.200   8.704
 2312POPC   D2A30868  34.774  18.024   8.309
 2312POPC   C3A30869  34.720  18.286   7.980
 2312POPC   C4A30870  34.612  18.168   7.585
 2312POPC   C1B30871  34.652  18.697   8.776
 2312POPC   C2B30872  34.559  18.630   8.340
 2312POPC   C3B30873  34.607  18.794   7.904
 2312POPC   C4B30874  34.366  18.609   7.574
 2313POPC   NC330875  10.385   9.426   9.533
 2313POPC   PO430876  10.291  10.151   9.567
 2313POPC   GL130877  10.452   9.945   9.198
 2313POPC   GL230878  10.473   9.589   9.075
 2313POPC   C1A30879  10.258   9.919   8.785
 2313POPC   D2A30880  10.508   9.894   8.452
 2313POPC   C3A30881  10.396  10.058   8.076
 2313POPC   C4A30882  10.453   9.828   7.741
 2313POPC   C1B30883  10.650   9.450   8.720
 2313POPC   C2B30884  10.553   9.404   8.318
 2313POPC   C3B30885  10.718   9.437   7.926
 2313POPC   C4B30886  10.613   9.402   7.485
 2314POPC   NC330887  35.371  13.034   9.475
 2314POPC   PO430888  35.587  12.359   9.434
 2314POPC   GL130889  35.645  12.671   9.138
 2314POPC   GL230890  35.288  12.711   9.111
 2314POPC   C1A30891  35.571  12.994   8.805
 2314POPC   D2A30892  35.408  13.185   8.424
 2314POPC   C3A30893  35.554  13.035   8.024
 2314POPC   C4A30894  35.269  13.095   7.698
 2314POPC   C1B30895  35.195  12.613   8.704
 2314POPC   C2B30896  35.348  12.679   8.342
 2314POPC   C3B30897  35.255  12.592   7.964
 2314POPC   C4B30898  35.255  12.631   7.536
 2315POPC   NC330899  41.227  34.947   9.655
 2315POPC   PO430900  41.770  34.641   9.642
 2315POPC   GL130901  41.707  34.790   9.154
 2315POPC   GL230902  41.701  34.484   8.897
 2315POPC   C1A30903  41.490  34.868   8.708
 2315POPC   D2A30904  41.556  34.574   8.388
 2315POPC   C3A30905  41.466  34.809   8.061
 2315POPC   C4A30906  41.377  34.803   7.652
 2315POPC   C1B30907  41.982  34.744   8.656
 2315POPC   C2B30908  41.961  34.875   8.249
 2315POPC   C3B30909  41.908  34.698   7.851
 2315POPC   C4B30910  41.878  34.840   7.457
 2316POPC   NC330911  42.824  32.404   9.412
 2316POPC   PO430912  42.474  32.794   9.705
 2316POPC   GL130913  42.320  32.394   9.363
 2316POPC   GL230914  42.504  32.031   9.271
 2316POPC   C1A30915  42.274  32.281   8.884
 2316POPC   D2A30916  42.233  32.513   8.477
 2316POPC   C3A30917  42.260  32.331   8.054
 2316POPC   C4A30918  42.405  32.433   7.595
 2316POPC   C1B30919  42.752  32.087   8.844
 2316POPC   C2B30920  42.687  32.231   8.379
 2316POPC   C3B30921  42.680  32.136   7.916
 2316POPC   C4B30922  42.696  32.046   7.441
 2317POPC   NC330923  19.955   3.288   9.544
 2317POPC   PO430924  20.366   3.751   9.398
 2317POPC   GL130925  20.013   3.595   9.134
 2317POPC   GL230926  19.967   3.216   9.046
 2317POPC   C1A30927  19.884   3.712   8.712
 2317POPC   D2A30928  19.996   3.995   8.341
 2317POPC   C3A30929  19.919   3.860   7.930
 2317POPC   C4A30930  19.813   3.473   7.760
 2317POPC   C1B30931  19.936   3.211   8.608
 2317POPC   C2B30932  19.670   3.433   8.298
 2317POPC   C3B30933  19.430   3.212   7.975
 2317POPC   C4B30934  19.584   3.012   7.606
 2318POPC   NC330935  42.060  39.842   9.293
 2318POPC   PO430936  41.631  39.803   9.800
 2318POPC   GL130937  41.558  39.802   9.312
 2318POPC   GL230938  41.279  39.731   9.211
 2318POPC   C1A30939  41.599  40.017   8.848
 2318POPC   D2A30940  41.795  39.999   8.470
 2318POPC   C3A30941  41.648  40.167   8.096
 2318POPC   C4A30942  41.516  40.056   7.687
 2318POPC   C1B30943  41.183  39.751   8.798
 2318POPC   C2B30944  41.384  39.713   8.445
 2318POPC   C3B30945  41.308  39.761   8.064
 2318POPC   C4B30946  41.124  39.494   7.785
 2319POPC   NC330947  35.309  17.832   9.504
 2319POPC   PO430948  35.257  18.537   9.702
 2319POPC   GL130949  35.238  18.296   9.295
 2319POPC   GL230950  35.589  18.178   9.229
 2319POPC   C1A30951  35.202  18.179   8.850
 2319POPC   D2A30952  35.131  18.387   8.453
 2319POPC   C3A30953  35.239  18.110   8.108
 2319POPC   C4A30954  35.157  18.215   7.704
 2319POPC   C1B30955  35.727  18.123   8.806
 2319POPC   C2B30956  35.651  18.269   8.392
 2319POPC   C3B30957  35.821  18.550   8.092
 2319POPC   C4B30958  35.774  18.439   7.681
 2320POPC   NC330959  24.469   1.102   9.721
 2320POPC   PO430960  24.853   1.583   9.363
 2320POPC   GL130961  24.612   1.232   9.138
 2320POPC   GL230962  24.261   1.165   9.233
 2320POPC   C1A30963  24.491   1.333   8.683
 2320POPC   D2A30964  24.398   1.347   8.255
 2320POPC   C3A30965  24.686   1.466   7.939
 2320POPC   C4A30966  24.840   1.213   7.595
 2320POPC   C1B30967  24.310   0.896   8.850
 2320POPC   C2B30968  24.362   0.844   8.398
 2320POPC   C3B30969  24.536   0.954   7.965
 2320POPC   C4B30970  24.264   1.245   7.745
 2321POPC   NC330971  39.822  19.167   9.353
 2321POPC   PO430972  39.954  18.730   9.797
 2321POPC   GL130973  40.102  18.710   9.276
 2321POPC   GL230974  39.879  18.804   8.910
 2321POPC   C1A30975  40.360  18.855   8.875
 2321POPC   D2A30976  40.130  18.985   8.469
 2321POPC   C3A30977  40.297  19.007   8.037
 2321POPC   C4A30978  40.060  18.810   7.716
 2321POPC   C1B30979  39.799  19.244   8.731
 2321POPC   C2B30980  39.875  19.411   8.343
 2321POPC   C3B30981  39.785  19.135   7.986
 2321POPC   C4B30982  39.777  19.230   7.541
 2322POPC   NC330983  38.673  43.208  10.064
 2322POPC   PO430984  38.271  43.267   9.501
 2322POPC   GL130985  38.461  43.110   9.136
 2322POPC   GL230986  38.232  42.846   9.044
 2322POPC   C1A30987  38.653  43.042   8.770
 2322POPC   D2A30988  38.628  43.317   8.447
 2322POPC   C3A30989  38.585  43.033   8.110
 2322POPC   C4A30990  38.399  42.768   7.787
 2322POPC   C1B30991  38.146  43.195   8.738
 2322POPC   C2B30992  38.123  43.315   8.284
 2322POPC   C3B30993  38.218  43.255   7.839
 2322POPC   C4B30994  38.087  43.033   7.447
 2323POPC   NC330995   2.934   9.184   9.468
 2323POPC   PO430996   2.720   8.553   9.433
 2323POPC   GL130997   2.820   8.815   9.107
 2323POPC   GL230998   2.475   8.829   8.993
 2323POPC   C1A30999   2.895   8.866   8.663
 2323POPC   D2A31000   2.647   8.726   8.306
 2323POPC   C3A31001   2.715   8.979   7.949
 2323POPC   C4A31002   2.976   8.866   7.571
 2323POPC   C1B31003   2.445   9.130   8.636
 2323POPC   C2B31004   2.772   9.336   8.399
 2323POPC   C3B31005   2.910   9.467   8.013
 2323POPC   C4B31006   2.710   9.355   7.610
 2324POPC   NC331007  15.359  28.313   9.571
 2324POPC   PO431008  14.822  28.079   9.286
 2324POPC   GL131009  15.114  28.481   9.141
 2324POPC   GL231010  15.518  28.491   9.119
 2324POPC   C1A31011  15.252  28.685   8.744
 2324POPC   D2A31012  15.490  28.706   8.333
 2324POPC   C3A31013  15.164  28.567   8.015
 2324POPC   C4A31014  14.898  28.376   7.677
 2324POPC   C1B31015  15.382  28.138   8.865
 2324POPC   C2B31016  15.264  28.245   8.447
 2324POPC   C3B31017  15.417  28.124   8.043
 2324POPC   C4B31018  15.417  28.230   7.611
 2325POPC   NC331019  30.206  27.501   9.697
 2325POPC   PO431020  29.755  27.858   9.420
 2325POPC   GL131021  29.823  27.523   9.126
 2325POPC   GL231022  30.207  27.568   9.161
 2325POPC   C1A31023  29.622  27.530   8.683
 2325POPC   D2A31024  29.648  27.925   8.419
 2325POPC   C3A31025  29.740  27.876   7.977
 2325POPC   C4A31026  29.532  27.602   7.666
 2325POPC   C1B31027  30.082  27.741   8.744
 2325POPC   C2B31028  30.044  27.444   8.392
 2325POPC   C3B31029  29.873  27.382   8.000
 2325POPC   C4B31030  30.063  27.522   7.677
 2326POPC   NC331031  22.331  31.934   9.352
 2326POPC   PO431032  21.903  32.300   9.751
 2326POPC   GL131033  22.089  32.375   9.235
 2326POPC   GL231034  22.080  32.131   8.950
 2326POPC   C1A31035  22.327  32.527   8.840
 2326POPC   D2A31036  22.232  32.252   8.450
 2326POPC   C3A31037  22.522  32.267   8.084
 2326POPC   C4A31038  22.412  32.335   7.653
 2326POPC   C1B31039  21.833  31.953   8.652
 2326POPC   C2B31040  21.843  31.931   8.228
 2326POPC   C3B31041  21.989  32.198   7.914
 2326POPC   C4B31042  22.002  32.068   7.470
 2327POPC   NC331043  33.312  12.319   9.512
 2327POPC   PO431044  32.904  11.798   9.496
 2327POPC   GL131045  33.047  12.041   9.158
 2327POPC   GL231046  32.895  12.378   9.172
 2327POPC   C1A31047  33.130  11.868   8.738
 2327POPC   D2A31048  32.935  11.677   8.355
 2327POPC   C3A31049  33.093  11.901   7.986
 2327POPC   C4A31050  32.826  11.936   7.644
 2327POPC   C1B31051  32.738  12.205   8.785
 2327POPC   C2B31052  32.930  12.209   8.382
 2327POPC   C3B31053  32.780  12.333   7.975
 2327POPC   C4B31054  32.853  12.429   7.525
 2328POPC   NC331055  28.228  35.776   9.587
 2328POPC   PO431056  28.036  36.427   9.570
 2328POPC   GL131057  28.270  36.189   9.248
 2328POPC   GL231058  28.019  36.310   9.036
 2328POPC   C1A31059  28.482  36.242   8.824
 2328POPC   D2A31060  28.459  36.104   8.386
 2328POPC   C3A31061  28.667  36.331   8.057
 2328POPC   C4A31062  28.525  36.498   7.685
 2328POPC   C1B31063  27.990  36.102   8.633
 2328POPC   C2B31064  28.069  35.761   8.330
 2328POPC   C3B31065  28.177  35.955   7.965
 2328POPC   C4B31066  28.130  36.381   8.006
 2329POPC   NC331067  40.415   8.557   9.734
 2329POPC   PO431068  40.942   8.904   9.496
 2329POPC   GL131069  40.785   9.007   9.124
 2329POPC   GL231070  40.468   8.848   9.148
 2329POPC   C1A31071  40.936   8.948   8.726
 2329POPC   D2A31072  40.904   9.182   8.355
 2329POPC   C3A31073  40.708   9.021   7.970
 2329POPC   C4A31074  40.819   8.927   7.548
 2329POPC   C1B31075  40.434   9.089   8.727
 2329POPC   C2B31076  40.297   9.149   8.272
 2329POPC   C3B31077  40.175   9.068   7.840
 2329POPC   C4B31078  40.328   8.853   7.454
 2330POPC   NC331079   7.676  30.495   9.410
 2330POPC   PO431080   7.026  30.757   9.462
 2330POPC   GL131081   7.267  30.596   9.130
 2330POPC   GL231082   7.556  30.873   9.072
 2330POPC   C1A31083   7.248  30.607   8.693
 2330POPC   D2A31084   7.404  30.918   8.375
 2330POPC   C3A31085   7.195  30.855   7.981
 2330POPC   C4A31086   7.204  30.629   7.555
 2330POPC   C1B31087   7.750  30.655   8.716
 2330POPC   C2B31088   7.599  30.408   8.349
 2330POPC   C3B31089   7.672  30.538   7.932
 2330POPC   C4B31090   7.635  30.881   7.690
 2331POPC   NC331091  19.941  12.684   9.444
 2331POPC   PO431092  19.424  13.162   9.316
 2331POPC   GL131093  19.769  12.995   9.078
 2331POPC   GL231094  19.805  12.612   8.968
 2331POPC   C1A31095  19.979  13.002   8.701
 2331POPC   D2A31096  19.766  12.944   8.313
 2331POPC   C3A31097  19.954  13.039   7.891
 2331POPC   C4A31098  20.050  13.189   7.460
 2331POPC   C1B31099  19.889  12.476   8.577
 2331POPC   C2B31100  19.919  12.516   8.134
 2331POPC   C3B31101  19.594  12.662   7.869
 2331POPC   C4B31102  19.605  12.911   7.499
 2332POPC   NC331103  16.193  21.645   9.593
 2332POPC   PO431104  15.623  21.250   9.628
 2332POPC   GL131105  15.936  21.172   9.316
 2332POPC   GL231106  15.903  21.495   9.215
 2332POPC   C1A31107  15.960  21.160   8.843
 2332POPC   D2A31108  15.936  20.968   8.448
 2332POPC   C3A31109  16.091  21.163   8.100
 2332POPC   C4A31110  15.986  21.182   7.673
 2332POPC   C1B31111  16.063  21.684   8.855
 2332POPC   C2B31112  15.923  21.527   8.456
 2332POPC   C3B31113  15.908  21.650   8.057
 2332POPC   C4B31114  16.198  21.626   7.719
 2333POPC   NC331115  19.277  27.239   9.715
 2333POPC   PO431116  18.803  27.690   9.557
 2333POPC   GL131117  18.980  27.565   9.129
 2333POPC   GL231118  19.302  27.414   9.121
 2333POPC   C1A31119  18.998  27.410   8.712
 2333POPC   D2A31120  18.763  27.543   8.402
 2333POPC   C3A31121  18.942  27.468   8.042
 2333POPC   C4A31122  18.652  27.396   7.797
 2333POPC   C1B31123  19.405  27.698   8.754
 2333POPC   C2B31124  19.242  27.738   8.333
 2333POPC   C3B31125  19.415  27.719   7.915
 2333POPC   C4B31126  19.506  27.787   7.459
 2334POPC   NC331127  31.797  38.817   9.550
 2334POPC   PO431128  31.389  39.324   9.781
 2334POPC   GL131129  31.464  39.171   9.308
 2334POPC   GL231130  31.765  39.052   9.111
 2334POPC   C1A31131  31.342  39.244   8.867
 2334POPC   D2A31132  31.531  39.147   8.455
 2334POPC   C3A31133  31.354  39.244   8.086
 2334POPC   C4A31134  31.447  39.110   7.666
 2334POPC   C1B31135  31.972  39.112   8.725
 2334POPC   C2B31136  32.012  39.333   8.343
 2334POPC   C3B31137  31.862  39.234   7.928
 2334POPC   C4B31138  31.814  39.419   7.487
 2335POPC   NC331139  26.520  16.229   9.487
 2335POPC   PO431140  27.138  15.832   9.498
 2335POPC   GL131141  26.871  15.751   9.124
 2335POPC   GL231142  26.561  15.592   9.261
 2335POPC   C1A31143  26.732  16.023   8.744
 2335POPC   D2A31144  26.727  16.180   8.289
 2335POPC   C3A31145  27.042  16.087   7.972
 2335POPC   C4A31146  27.194  16.309   7.594
 2335POPC   C1B31147  26.512  15.555   8.806
 2335POPC   C2B31148  26.473  15.740   8.397
 2335POPC   C3B31149  26.649  15.708   7.990
 2335POPC   C4B31150  26.492  15.504   7.638
 2336POPC   NC331151  20.886  39.847   9.811
 2336POPC   PO431152  20.331  40.027   9.509
 2336POPC   GL131153  20.434  40.046   9.123
 2336POPC   GL231154  20.297  39.720   9.069
 2336POPC   C1A31155  20.610  40.266   8.783
 2336POPC   D2A31156  20.508  40.486   8.413
 2336POPC   C3A31157  20.514  40.277   8.048
 2336POPC   C4A31158  20.187  40.336   7.768
 2336POPC   C1B31159  20.447  39.795   8.671
 2336POPC   C2B31160  20.781  39.840   8.408
 2336POPC   C3B31161  20.718  39.740   8.019
 2336POPC   C4B31162  20.647  39.951   7.673
 2337POPC   NC331163  11.031  39.206   9.860
 2337POPC   PO431164  10.955  39.678   9.453
 2337POPC   GL131165  11.186  39.420   9.164
 2337POPC   GL231166  11.324  39.104   9.169
 2337POPC   C1A31167  11.137  39.362   8.730
 2337POPC   D2A31168  11.465  39.487   8.455
 2337POPC   C3A31169  11.305  39.390   8.065
 2337POPC   C4A31170  11.623  39.354   7.793
 2337POPC   C1B31171  11.543  39.075   8.783
 2337POPC   C2B31172  11.349  38.996   8.399
 2337POPC   C3B31173  11.445  38.901   7.996
 2337POPC   C4B31174  11.141  39.005   7.720
 2338POPC   NC331175  42.713  36.965   9.481
 2338POPC   PO431176  42.046  36.764   9.420
 2338POPC   GL131177  42.338  36.975   9.144
 2338POPC   GL231178  42.623  36.750   9.048
 2338POPC   C1A31179  42.485  37.183   8.776
 2338POPC   D2A31180  42.344  37.159   8.335
 2338POPC   C3A31181  42.482  36.866   7.986
 2338POPC   C4A31182  42.358  37.034   7.584
 2338POPC   C1B31183  42.340  36.647   8.728
 2338POPC   C2B31184  42.122  36.697   8.339
 2338POPC   C3B31185  41.974  36.909   7.956
 2338POPC   C4B31186  41.877  36.883   7.513
 2339POPC   NC331187   9.346  22.546   9.314
 2339POPC   PO431188   8.865  22.989   9.533
 2339POPC   GL131189   8.925  22.855   9.146
 2339POPC   GL231190   8.695  22.632   9.151
 2339POPC   C1A31191   9.063  22.884   8.727
 2339POPC   D2A31192   8.960  23.068   8.342
 2339POPC   C3A31193   9.117  22.920   7.926
 2339POPC   C4A31194   9.200  23.106   7.502
 2339POPC   C1B31195   8.557  22.762   8.761
 2339POPC   C2B31196   8.701  22.631   8.366
 2339POPC   C3B31197   8.689  22.658   7.917
 2339POPC   C4B31198   8.905  22.654   7.503
 2340POPC   NC331199  30.951  11.243   9.658
 2340POPC   PO431200  30.410  11.532   9.368
 2340POPC   GL131201  30.503  11.250   9.101
 2340POPC   GL231202  30.843  11.182   9.154
 2340POPC   C1A31203  30.533  11.398   8.691
 2340POPC   D2A31204  30.762  11.473   8.326
 2340POPC   C3A31205  30.511  11.268   8.039
 2340POPC   C4A31206  30.382  11.369   7.633
 2340POPC   C1B31207  30.987  11.205   8.733
 2340POPC   C2B31208  30.953  10.977   8.337
 2340POPC   C3B31209  30.998  11.135   7.910
 2340POPC   C4B31210  30.886  11.117   7.484
 2341POPC   NC331211   9.888  33.372   9.515
 2341POPC   PO431212   9.451  33.959   9.494
 2341POPC   GL131213   9.718  33.764   9.222
 2341POPC   GL231214   9.505  33.469   9.216
 2341POPC   C1A31215   9.875  33.879   8.832
 2341POPC   D2A31216   9.716  34.088   8.515
 2341POPC   C3A31217   9.754  33.870   8.164
 2341POPC   C4A31218   9.545  33.984   7.819
 2341POPC   C1B31219   9.684  33.402   8.846
 2341POPC   C2B31220   9.576  33.496   8.478
 2341POPC   C3B31221   9.720  33.355   8.128
 2341POPC   C4B31222   9.745  33.503   7.745
 2342POPC   NC331223  17.308  10.986   9.381
 2342POPC   PO431224  17.690  11.552   9.439
 2342POPC   GL131225  17.586  11.325   9.091
 2342POPC   GL231226  17.860  11.080   9.048
 2342POPC   C1A31227  17.403  11.430   8.699
 2342POPC   D2A31228  17.128  11.457   8.370
 2342POPC   C3A31229  17.363  11.497   8.003
 2342POPC   C4A31230  17.247  11.438   7.602
 2342POPC   C1B31231  17.578  10.945   8.731
 2342POPC   C2B31232  17.514  11.089   8.319
 2342POPC   C3B31233  17.764  11.188   7.979
 2342POPC   C4B31234  17.638  11.122   7.569
 2343POPC   NC331235  33.681  14.906   9.421
 2343POPC   PO431236  33.869  15.531   9.599
 2343POPC   GL131237  34.073  15.340   9.264
 2343POPC   GL231238  34.168  14.982   9.223
 2343POPC   C1A31239  33.929  15.369   8.860
 2343POPC   D2A31240  33.800  15.212   8.475
 2343POPC   C3A31241  33.712  15.350   8.066
 2343POPC   C4A31242  33.414  15.123   7.795
 2343POPC   C1B31243  33.977  14.848   8.820
 2343POPC   C2B31244  34.147  14.833   8.419
 2343POPC   C3B31245  33.987  14.918   7.995
 2343POPC   C4B31246  34.136  14.950   7.583
 2344POPC   NC331247  23.868  32.574   9.433
 2344POPC   PO431248  23.559  32.036   9.723
 2344POPC   GL131249  23.518  32.162   9.264
 2344POPC   GL231250  23.432  32.501   9.142
 2344POPC   C1A31251  23.432  32.092   8.811
 2344POPC   D2A31252  23.663  32.108   8.412
 2344POPC   C3A31253  23.467  31.981   8.007
 2344POPC   C4A31254  23.595  32.213   7.615
 2344POPC   C1B31255  23.775  32.490   8.799
 2344POPC   C2B31256  24.027  32.496   8.434
 2344POPC   C3B31257  24.022  32.753   8.082
 2344POPC   C4B31258  23.979  32.588   7.662
 2345POPC   NC331259  41.157  40.138   9.519
 2345POPC   PO431260  40.820  39.561   9.438
 2345POPC   GL131261  40.821  39.929   9.168
 2345POPC   GL231262  40.761  40.281   9.207
 2345POPC   C1A31263  40.748  39.986   8.758
 2345POPC   D2A31264  40.903  39.952   8.369
 2345POPC   C3A31265  40.634  40.174   8.116
 2345POPC   C4A31266  40.408  40.025   7.777
 2345POPC   C1B31267  41.129  40.301   8.879
 2345POPC   C2B31268  41.314  40.245   8.469
 2345POPC   C3B31269  41.155  40.248   8.029
 2345POPC   C4B31270  40.955  39.983   7.766
 2346POPC   NC331271  34.896  28.918   9.573
 2346POPC   PO431272  34.501  29.467   9.330
 2346POPC   GL131273  34.606  29.244   9.014
 2346POPC   GL231274  34.610  28.937   9.151
 2346POPC   C1A31275  34.552  29.227   8.607
 2346POPC   D2A31276  34.729  29.017   8.335
 2346POPC   C3A31277  34.624  29.268   8.019
 2346POPC   C4A31278  34.786  29.189   7.665
 2346POPC   C1B31279  34.444  28.763   8.790
 2346POPC   C2B31280  34.210  28.835   8.415
 2346POPC   C3B31281  34.144  28.841   7.966
 2346POPC   C4B31282  34.294  28.654   7.563
 2347POPC   NC331283  34.794   7.973   9.480
 2347POPC   PO431284  34.304   8.441   9.437
 2347POPC   GL131285  34.273   8.261   9.065
 2347POPC   GL231286  34.520   8.019   9.056
 2347POPC   C1A31287  34.368   8.288   8.641
 2347POPC   D2A31288  34.765   8.265   8.447
 2347POPC   C3A31289  34.694   8.383   8.020
 2347POPC   C4A31290  34.766   8.268   7.580
 2347POPC   C1B31291  34.459   7.779   8.702
 2347POPC   C2B31292  34.424   7.906   8.281
 2347POPC   C3B31293  34.482   7.865   7.868
 2347POPC   C4B31294  34.531   7.816   7.455
 2348POPC   NC331295  10.925  36.284   9.543
 2348POPC   PO431296  11.307  35.792   9.570
 2348POPC   GL131297  11.249  36.052   9.230
 2348POPC   GL231298  11.587  36.095   9.175
 2348POPC   C1A31299  11.225  36.018   8.804
 2348POPC   D2A31300  11.276  35.808   8.422
 2348POPC   C3A31301  11.218  36.069   8.057
 2348POPC   C4A31302  11.293  36.311   7.697
 2348POPC   C1B31303  11.726  35.935   8.774
 2348POPC   C2B31304  11.824  36.042   8.370
 2348POPC   C3B31305  11.717  35.993   7.999
 2348POPC   C4B31306  11.462  35.851   7.654
 2349POPC   NC331307  35.771  24.362   9.473
 2349POPC   PO431308  35.173  24.595   9.490
 2349POPC   GL131309  35.332  24.429   9.115
 2349POPC   GL231310  35.641  24.293   9.001
 2349POPC   C1A31311  35.240  24.340   8.705
 2349POPC   D2A31312  35.415  24.116   8.395
 2349POPC   C3A31313  35.227  24.312   8.072
 2349POPC   C4A31314  35.407  24.444   7.722
 2349POPC   C1B31315  35.647  24.671   8.744
 2349POPC   C2B31316  35.557  24.652   8.316
 2349POPC   C3B31317  35.757  24.747   7.960
 2349POPC   C4B31318  35.629  24.936   7.604
 2350POPC   NC331319   4.464  11.504   9.711
 2350POPC   PO431320   3.959  11.751   9.334
 2350POPC   GL131321   4.163  11.403   9.092
 2350POPC   GL231322   4.502  11.331   8.980
 2350POPC   C1A31323   4.134  11.149   8.715
 2350POPC   D2A31324   4.390  11.100   8.371
 2350POPC   C3A31325   4.179  11.142   8.003
 2350POPC   C4A31326   4.202  10.886   7.679
 2350POPC   C1B31327   4.357  11.577   8.574
 2350POPC   C2B31328   4.424  11.594   8.121
 2350POPC   C3B31329   4.520  11.408   7.712
 2350POPC   C4B31330   4.630  11.532   7.285
 2351POPC   NC331331  31.994  32.026   9.441
 2351POPC   PO431332  32.381  32.545   9.437
 2351POPC   GL131333  32.299  32.292   9.110
 2351POPC   GL231334  31.963  32.436   9.093
 2351POPC   C1A31335  32.487  32.054   8.758
 2351POPC   D2A31336  32.314  32.030   8.329
 2351POPC   C3A31337  32.447  32.175   7.917
 2351POPC   C4A31338  32.412  32.529   7.700
 2351POPC   C1B31339  31.988  32.133   8.759
 2351POPC   C2B31340  31.815  32.096   8.376
 2351POPC   C3B31341  31.952  32.252   7.998
 2351POPC   C4B31342  32.026  31.951   7.693
 2352POPC   NC331343   2.919  28.347   9.425
 2352POPC   PO431344   2.373  28.576   9.541
 2352POPC   GL131345   2.567  28.613   9.125
 2352POPC   GL231346   2.757  28.312   8.955
 2352POPC   C1A31347   2.657  28.767   8.719
 2352POPC   D2A31348   2.474  28.647   8.313
 2352POPC   C3A31349   2.786  28.546   7.994
 2352POPC   C4A31350   2.703  28.374   7.582
 2352POPC   C1B31351   2.758  28.291   8.529
 2352POPC   C2B31352   2.766  28.036   8.168
 2352POPC   C3B31353   2.908  27.945   7.776
 2352POPC   C4B31354   3.090  28.088   7.371
 2353POPC   NC331355  27.380  42.981   9.548
 2353POPC   PO431356  27.835  43.480   9.413
 2353POPC   GL131357  27.574  43.225   9.128
 2353POPC   GL231358  27.453  42.880   9.075
 2353POPC   C1A31359  27.592  43.189   8.701
 2353POPC   D2A31360  27.895  43.168   8.405
 2353POPC   C3A31361  27.688  43.236   8.061
 2353POPC   C4A31362  27.592  43.256   7.678
 2353POPC   C1B31363  27.349  42.733   8.672
 2353POPC   C2B31364  27.513  42.819   8.286
 2353POPC   C3B31365  27.453  42.790   7.853
 2353POPC   C4B31366  27.052  42.797   7.690
 2354POPC   NC331367  16.754  27.343   9.460
 2354POPC   PO431368  16.930  27.991   9.408
 2354POPC   GL131369  16.835  27.687   9.081
 2354POPC   GL231370  16.517  27.731   8.917
 2354POPC   C1A31371  16.872  27.474   8.686
 2354POPC   D2A31372  16.610  27.531   8.314
 2354POPC   C3A31373  16.721  27.663   7.873
 2354POPC   C4A31374  16.710  27.815   7.420
 2354POPC   C1B31375  16.251  27.427   8.702
 2354POPC   C2B31376  16.168  27.222   8.286
 2354POPC   C3B31377  16.222  27.520   7.933
 2354POPC   C4B31378  16.255  27.643   7.513
 2355POPC   NC331379  13.385   8.436   9.441
 2355POPC   PO431380  13.834   7.968   9.549
 2355POPC   GL131381  13.724   8.121   9.156
 2355POPC   GL231382  13.978   8.365   9.156
 2355POPC   C1A31383  13.392   8.169   8.804
 2355POPC   D2A31384  13.272   8.155   8.346
 2355POPC   C3A31385  13.612   7.937   8.055
 2355POPC   C4A31386  13.897   8.071   7.669
 2355POPC   C1B31387  13.759   8.503   8.814
 2355POPC   C2B31388  13.791   8.257   8.452
 2355POPC   C3B31389  13.781   8.413   8.050
 2355POPC   C4B31390  13.789   8.591   7.681
 2356POPC   NC331391  33.568  33.243   9.418
 2356POPC   PO431392  33.097  33.780   9.598
 2356POPC   GL131393  32.945  33.901   9.164
 2356POPC   GL231394  33.224  34.142   9.137
 2356POPC   C1A31395  32.752  33.959   8.724
 2356POPC   D2A31396  33.001  33.914   8.309
 2356POPC   C3A31397  32.961  33.989   7.845
 2356POPC   C4A31398  32.834  33.614   7.602
 2356POPC   C1B31399  33.265  33.995   8.748
 2356POPC   C2B31400  33.486  34.047   8.387
 2356POPC   C3B31401  33.437  33.853   8.012
 2356POPC   C4B31402  33.349  33.701   7.626
 2357POPC   NC331403   8.427   7.210   9.334
 2357POPC   PO431404   7.790   7.234   9.619
 2357POPC   GL131405   7.998   7.319   9.129
 2357POPC   GL231406   8.077   7.028   8.988
 2357POPC   C1A31407   8.165   7.602   8.772
 2357POPC   D2A31408   8.508   7.685   8.468
 2357POPC   C3A31409   8.451   7.621   8.014
 2357POPC   C4A31410   8.055   7.745   7.807
 2357POPC   C1B31411   7.878   7.220   8.642
 2357POPC   C2B31412   8.074   7.411   8.282
 2357POPC   C3B31413   8.135   7.229   7.875
 2357POPC   C4B31414   7.888   7.300   7.504
 2358POPC   NC331415   4.300  17.592   9.599
 2358POPC   PO431416   4.590  16.962   9.538
 2358POPC   GL131417   4.493  17.292   9.228
 2358POPC   GL231418   4.470  17.693   9.147
 2358POPC   C1A31419   4.296  17.343   8.848
 2358POPC   D2A31420   4.314  17.654   8.544
 2358POPC   C3A31421   4.176  17.478   8.174
 2358POPC   C4A31422   4.213  17.553   7.771
 2358POPC   C1B31423   4.741  17.823   8.846
 2358POPC   C2B31424   4.690  18.005   8.453
 2358POPC   C3B31425   4.687  17.760   8.064
 2358POPC   C4B31426   4.614  17.837   7.621
 2359POPC   NC331427  23.339  24.061   9.908
 2359POPC   PO431428  23.486  24.706   9.678
 2359POPC   GL131429  23.603  24.518   9.247
 2359POPC   GL231430  23.646  24.808   9.120
 2359POPC   C1A31431  23.670  24.470   8.760
 2359POPC   D2A31432  23.794  24.637   8.347
 2359POPC   C3A31433  23.622  24.436   7.962
 2359POPC   C4A31434  23.804  24.560   7.586
 2359POPC   C1B31435  23.513  24.960   8.729
 2359POPC   C2B31436  23.334  24.837   8.359
 2359POPC   C3B31437  23.454  24.918   7.964
 2359POPC   C4B31438  23.321  24.731   7.601
 2360POPC   NC331439  29.466   9.089   9.407
 2360POPC   PO431440  28.911   8.695   9.532
 2360POPC   GL131441  29.124   8.797   9.114
 2360POPC   GL231442  29.476   8.830   8.968
 2360POPC   C1A31443  29.010   8.932   8.697
 2360POPC   D2A31444  28.825   9.024   8.297
 2360POPC   C3A31445  29.039   8.856   7.976
 2360POPC   C4A31446  28.835   9.039   7.686
 2360POPC   C1B31447  29.428   9.232   8.754
 2360POPC   C2B31448  29.266   9.255   8.323
 2360POPC   C3B31449  29.292   9.273   7.878
 2360POPC   C4B31450  29.288   9.030   7.457
 2361POPC   NC331451  40.052   2.823   9.463
 2361POPC   PO431452  39.428   3.021   9.310
 2361POPC   GL131453  39.741   2.964   9.042
 2361POPC   GL231454  40.068   2.812   8.962
 2361POPC   C1A31455  39.717   2.976   8.626
 2361POPC   D2A31456  39.890   2.687   8.439
 2361POPC   C3A31457  39.983   2.863   8.093
 2361POPC   C4A31458  40.079   2.841   7.687
 2361POPC   C1B31459  40.220   3.093   8.637
 2361POPC   C2B31460  40.329   3.293   8.275
 2361POPC   C3B31461  40.184   3.284   7.873
 2361POPC   C4B31462  40.312   3.180   7.392
 2362POPC   NC331463  10.073  44.234   9.378
 2362POPC   PO431464   9.593  43.969   9.739
 2362POPC   GL131465   9.669  43.955   9.247
 2362POPC   GL231466   9.493  43.695   9.115
 2362POPC   C1A31467   9.919  43.890   8.823
 2362POPC   D2A31468   9.758  43.857   8.366
 2362POPC   C3A31469   9.958  44.009   7.969
 2362POPC   C4A31470   9.910  43.939   7.505
 2362POPC   C1B31471   9.439  43.992   8.756
 2362POPC   C2B31472   9.272  44.066   8.383
 2362POPC   C3B31473   9.449  44.211   7.985
 2362POPC   C4B31474   9.462  43.842   7.737
 2363POPC   NC331475  13.807  20.721   9.467
 2363POPC   PO431476  13.344  20.181   9.637
 2363POPC   GL131477  13.217  20.364   9.190
 2363POPC   GL231478  13.357  20.712   9.201
 2363POPC   C1A31479  13.269  20.504   8.755
 2363POPC   D2A31480  13.576  20.470   8.451
 2363POPC   C3A31481  13.546  20.710   8.076
 2363POPC   C4A31482  13.728  20.469   7.741
 2363POPC   C1B31483  13.714  20.876   8.865
 2363POPC   C2B31484  13.796  20.928   8.471
 2363POPC   C3B31485  14.046  20.843   8.119
 2363POPC   C4B31486  13.902  20.944   7.717
 2364POPC   NC331487  32.180  35.419   9.682
 2364POPC   PO431488  32.069  35.898   9.226
 2364POPC   GL131489  32.219  35.437   9.144
 2364POPC   GL231490  32.457  35.128   9.077
 2364POPC   C1A31491  32.027  35.175   8.806
 2364POPC   D2A31492  31.987  35.404   8.408
 2364POPC   C3A31493  31.849  35.277   8.017
 2364POPC   C4A31494  32.028  35.483   7.673
 2364POPC   C1B31495  32.589  35.479   8.784
 2364POPC   C2B31496  32.454  35.642   8.368
 2364POPC   C3B31497  32.417  35.344   8.013
 2364POPC   C4B31498  32.791  35.102   7.845
 2365POPC   NC331499  30.552  41.285   9.322
 2365POPC   PO431500  30.694  40.705   9.644
 2365POPC   GL131501  30.765  40.660   9.204
 2365POPC   GL231502  30.465  40.813   9.062
 2365POPC   C1A31503  30.863  40.751   8.747
 2365POPC   D2A31504  30.778  40.966   8.341
 2365POPC   C3A31505  30.703  40.761   7.944
 2365POPC   C4A31506  30.792  40.908   7.520
 2365POPC   C1B31507  30.379  41.067   8.672
 2365POPC   C2B31508  30.284  41.069   8.197
 2365POPC   C3B31509  30.436  41.164   7.766
 2365POPC   C4B31510  30.351  41.044   7.286
 2366POPC   NC331511  24.753  35.011   9.279
 2366POPC   PO431512  24.258  35.480   9.434
 2366POPC   GL131513  24.537  35.588   9.127
 2366POPC   GL231514  24.481  35.296   8.939
 2366POPC   C1A31515  24.823  35.647   8.799
 2366POPC   D2A31516  24.685  35.436   8.422
 2366POPC   C3A31517  24.773  35.547   8.009
 2366POPC   C4A31518  24.548  35.382   7.614
 2366POPC   C1B31519  24.417  35.002   8.610
 2366POPC   C2B31520  24.381  34.877   8.168
 2366POPC   C3B31521  24.305  34.941   7.721
 2366POPC   C4B31522  24.408  34.973   7.261
 2367POPC   NC331523  33.113   5.613   9.395
 2367POPC   PO431524  33.006   6.307   9.430
 2367POPC   GL131525  33.059   6.051   9.058
 2367POPC   GL231526  32.754   5.914   9.088
 2367POPC   C1A31527  33.261   5.810   8.686
 2367POPC   D2A31528  33.298   5.488   8.337
 2367POPC   C3A31529  33.179   5.633   7.898
 2367POPC   C4A31530  33.093   6.035   7.584
 2367POPC   C1B31531  32.751   5.710   8.741
 2367POPC   C2B31532  32.870   5.775   8.345
 2367POPC   C3B31533  32.753   5.894   7.972
 2367POPC   C4B31534  32.742   5.656   7.636
 2368POPC   NC331535  43.965  29.004   9.594
 2368POPC   PO431536  44.151  29.560   9.278
 2368POPC   GL131537  43.887  29.261   9.131
 2368POPC   GL231538  43.545  29.276   9.257
 2368POPC   C1A31539  43.943  29.185   8.713
 2368POPC   D2A31540  44.134  29.333   8.337
 2368POPC   C3A31541  44.206  28.942   8.086
 2368POPC   C4A31542  44.031  28.851   7.727
 2368POPC   C1B31543  43.448  29.343   8.818
 2368POPC   C2B31544  43.616  29.376   8.398
 2368POPC   C3B31545  43.735  29.191   8.035
 2368POPC   C4B31546  43.557  29.175   7.657
 2369POPC   NC331547  31.822  17.226   9.462
 2369POPC   PO431548  31.176  17.080   9.312
 2369POPC   GL131549  31.449  17.264   8.987
 2369POPC   GL231550  31.790  17.421   8.991
 2369POPC   C1A31551  31.554  17.274   8.552
 2369POPC   D2A31552  31.766  17.484   8.266
 2369POPC   C3A31553  31.486  17.366   7.978
 2369POPC   C4A31554  31.537  17.442   7.564
 2369POPC   C1B31555  31.563  17.738   8.728
 2369POPC   C2B31556  31.440  17.892   8.326
 2369POPC   C3B31557  31.581  17.850   7.921
 2369POPC   C4B31558  31.382  17.932   7.544
 2370POPC   NC331559   8.268   9.181   9.307
 2370POPC   PO431560   8.074   9.769   9.408
 2370POPC   GL131561   8.309   9.630   9.074
 2370POPC   GL231562   8.670   9.541   9.170
 2370POPC   C1A31563   8.293   9.567   8.637
 2370POPC   D2A31564   8.114   9.836   8.305
 2370POPC   C3A31565   8.159   9.604   7.953
 2370POPC   C4A31566   8.210   9.558   7.540
 2370POPC   C1B31567   8.702   9.859   8.832
 2370POPC   C2B31568   8.735   9.759   8.396
 2370POPC   C3B31569   8.661   9.759   7.954
 2370POPC   C4B31570   8.427   9.975   7.666
 2371POPC   NC331571  12.696   3.377   9.407
 2371POPC   PO431572  12.965   2.707   9.469
 2371POPC   GL131573  12.806   2.851   9.127
 2371POPC   GL231574  13.040   3.113   9.113
 2371POPC   C1A31575  12.961   2.802   8.716
 2371POPC   D2A31576  12.740   2.708   8.382
 2371POPC   C3A31577  13.030   2.706   8.073
 2371POPC   C4A31578  12.960   2.781   7.660
 2371POPC   C1B31579  12.667   3.206   8.793
 2371POPC   C2B31580  12.492   3.200   8.393
 2371POPC   C3B31581  12.589   3.034   7.966
 2371POPC   C4B31582  12.632   3.220   7.546
 2372POPC   NC331583   5.205  17.988   9.444
 2372POPC   PO431584   4.884  18.527   9.700
 2372POPC   GL131585   5.114  18.455   9.282
 2372POPC   GL231586   5.456  18.508   9.280
 2372POPC   C1A31587   5.049  18.243   8.853
 2372POPC   D2A31588   5.255  18.056   8.484
 2372POPC   C3A31589   5.023  18.162   8.108
 2372POPC   C4A31590   4.653  18.275   7.877
 2372POPC   C1B31591   5.440  18.577   8.839
 2372POPC   C2B31592   5.260  18.575   8.400
 2372POPC   C3B31593   5.243  18.579   7.934
 2372POPC   C4B31594   5.439  18.829   7.634
 2373POPC   NC331595  34.528   4.729   9.509
 2373POPC   PO431596  33.978   4.355   9.499
 2373POPC   GL131597  34.324   4.421   9.174
 2373POPC   GL231598  34.723   4.520   9.083
 2373POPC   C1A31599  34.335   4.491   8.765
 2373POPC   D2A31600  34.063   4.458   8.454
 2373POPC   C3A31601  34.266   4.512   8.101
 2373POPC   C4A31602  34.547   4.213   7.925
 2373POPC   C1B31603  34.808   4.305   8.722
 2373POPC   C2B31604  34.709   4.458   8.352
 2373POPC   C3B31605  34.899   4.582   7.981
 2373POPC   C4B31606  34.997   4.277   7.716
 2374POPC   NC331607  27.872  22.015   9.341
 2374POPC   PO431608  28.472  22.036   9.687
 2374POPC   GL131609  28.479  22.285   9.141
 2374POPC   GL231610  28.119  22.316   9.002
 2374POPC   C1A31611  28.475  22.320   8.638
 2374POPC   D2A31612  28.257  22.226   8.211
 2374POPC   C3A31613  28.467  22.160   7.791
 2374POPC   C4A31614  28.622  22.305   7.395
 2374POPC   C1B31615  28.080  21.980   8.637
 2374POPC   C2B31616  28.120  21.713   8.265
 2374POPC   C3B31617  28.072  21.855   7.876
 2374POPC   C4B31618  27.798  21.838   7.562
 2375POPC   NC331619  44.549  16.322   9.532
 2375POPC   PO431620   0.037  16.904   9.456
 2375POPC   GL131621  44.801  16.671   9.193
 2375POPC   GL231622  44.473  16.776   9.301
 2375POPC   C1A31623  44.771  16.849   8.797
 2375POPC   D2A31624  44.875  16.985   8.376
 2375POPC   C3A31625  44.912  16.701   8.006
 2375POPC   C4A31626  44.937  16.785   7.558
 2375POPC   C1B31627  44.364  16.541   8.907
 2375POPC   C2B31628  44.197  16.570   8.499
 2375POPC   C3B31629  44.389  16.652   8.119
 2375POPC   C4B31630  44.363  16.935   7.789
 2376POPC   NC331631  25.748  27.767   9.529
 2376POPC   PO431632  26.300  27.389   9.494
 2376POPC   GL131633  26.185  27.459   9.049
 2376POPC   GL231634  25.958  27.745   9.046
 2376POPC   C1A31635  26.176  27.305   8.628
 2376POPC   D2A31636  26.208  27.540   8.241
 2376POPC   C3A31637  26.197  27.358   7.826
 2376POPC   C4A31638  26.353  27.512   7.407
 2376POPC   C1B31639  25.764  27.636   8.676
 2376POPC   C2B31640  25.635  27.853   8.321
 2376POPC   C3B31641  25.791  27.682   7.965
 2376POPC   C4B31642  26.068  27.846   7.701
 2377POPC   NC331643  29.524   4.740   9.511
 2377POPC   PO431644  28.897   4.533   9.762
 2377POPC   GL131645  29.034   4.297   9.365
 2377POPC   GL231646  29.353   4.358   9.142
 2377POPC   C1A31647  28.906   4.296   8.924
 2377POPC   D2A31648  29.179   4.155   8.565
 2377POPC   C3A31649  29.055   4.112   8.140
 2377POPC   C4A31650  29.367   4.232   7.820
 2377POPC   C1B31651  29.292   4.625   8.752
 2377POPC   C2B31652  29.222   4.585   8.294
 2377POPC   C3B31653  29.126   4.653   7.884
 2377POPC   C4B31654  29.423   4.725   7.540
 2378POPC   NC331655  44.101  14.310   9.651
 2378POPC   PO431656  43.891  14.878   9.596
 2378POPC   GL131657  43.842  14.586   9.232
 2378POPC   GL231658  44.169  14.433   9.155
 2378POPC   C1A31659  43.822  14.531   8.756
 2378POPC   D2A31660  43.681  14.292   8.369
 2378POPC   C3A31661  43.573  14.526   7.992
 2378POPC   C4A31662  43.783  14.459   7.596
 2378POPC   C1B31663  44.262  14.167   8.808
 2378POPC   C2B31664  44.165  14.071   8.373
 2378POPC   C3B31665  44.072  14.289   7.997
 2378POPC   C4B31666  44.166  14.140   7.590
 2379POPC   NC331667   4.057   2.656   9.403
 2379POPC   PO431668   4.709   2.599   9.462
 2379POPC   GL131669   4.583   2.935   9.182
 2379POPC   GL231670   4.272   3.117   9.229
 2379POPC   C1A31671   4.434   2.885   8.788
 2379POPC   D2A31672   4.551   2.602   8.480
 2379POPC   C3A31673   4.212   2.540   8.199
 2379POPC   C4A31674   4.286   2.722   7.835
 2379POPC   C1B31675   4.002   3.125   8.861
 2379POPC   C2B31676   3.933   3.169   8.440
 2379POPC   C3B31677   4.192   3.148   8.093
 2379POPC   C4B31678   4.038   3.126   7.662
 2380POPC   NC331679  42.883   6.410   9.974
 2380POPC   PO431680  43.003   5.861   9.594
 2380POPC   GL131681  43.008   5.873   9.176
 2380POPC   GL231682  42.829   5.583   9.148
 2380POPC   C1A31683  43.351   6.003   8.866
 2380POPC   D2A31684  43.526   6.110   8.439
 2380POPC   C3A31685  43.206   6.071   8.089
 2380POPC   C4A31686  43.166   5.621   7.933
 2380POPC   C1B31687  43.151   5.541   8.836
 2380POPC   C2B31688  43.158   5.724   8.449
 2380POPC   C3B31689  42.777   5.787   8.203
 2380POPC   C4B31690  42.610   5.684   7.770
 2381POPC   NC331691   7.435  39.758   9.329
 2381POPC   PO431692   7.115  40.327   9.667
 2381POPC   GL131693   7.196  40.296   9.155
 2381POPC   GL231694   7.444  40.076   8.933
 2381POPC   C1A31695   7.273  40.442   8.665
 2381POPC   D2A31696   7.499  40.121   8.411
 2381POPC   C3A31697   7.317  40.022   8.052
 2381POPC   C4A31698   7.427  39.903   7.668
 2381POPC   C1B31699   7.841  39.881   8.713
 2381POPC   C2B31700   7.871  39.694   8.329
 2381POPC   C3B31701   7.824  39.861   7.963
 2381POPC   C4B31702   7.933  39.604   7.600
 2382POPC   NC331703  10.822  12.268   9.483
 2382POPC   PO431704  10.253  11.923   9.477
 2382POPC   GL131705  10.582  11.928   9.192
 2382POPC   GL231706  10.462  12.261   9.099
 2382POPC   C1A31707  10.659  11.796   8.774
 2382POPC   D2A31708  10.438  11.908   8.392
 2382POPC   C3A31709  10.609  11.876   7.999
 2382POPC   C4A31710  10.282  12.073   7.790
 2382POPC   C1B31711  10.792  12.395   8.824
 2382POPC   C2B31712  10.907  12.418   8.393
 2382POPC   C3B31713  10.703  12.367   7.996
 2382POPC   C4B31714  10.834  12.598   7.688
 2383POPC   NC331715  32.025   8.502   9.641
 2383POPC   PO431716  32.049   7.866   9.432
 2383POPC   GL131717  32.360   8.029   9.136
 2383POPC   GL231718  32.335   8.352   9.219
 2383POPC   C1A31719  32.588   8.218   8.778
 2383POPC   D2A31720  32.358   8.243   8.382
 2383POPC   C3A31721  32.437   8.411   7.988
 2383POPC   C4A31722  32.235   8.146   7.708
 2383POPC   C1B31723  32.237   8.582   8.789
 2383POPC   C2B31724  32.294   8.762   8.350
 2383POPC   C3B31725  32.114   8.831   7.938
 2383POPC   C4B31726  31.970   8.593   7.582
 2384POPC   NC331727  44.292  25.234   9.840
 2384POPC   PO431728  44.793  25.228   9.341
 2384POPC   GL131729  44.685  25.365   8.941
 2384POPC   GL231730  44.516  25.068   8.879
 2384POPC   C1A31731  44.584  25.364   8.472
 2384POPC   D2A31732  44.411  25.578   8.099
 2384POPC   C3A31733  44.716  25.547   7.783
 2384POPC   C4A31734  44.842  25.109   7.640
 2384POPC   C1B31735  44.410  24.710   8.681
 2384POPC   C2B31736  44.487  24.727   8.285
 2384POPC   C3B31737  44.505  25.061   8.022
 2384POPC   C4B31738  44.346  25.243   7.657
 2385POPC   NC331739   7.184   2.153   9.399
 2385POPC   PO431740   7.819   2.050   9.509
 2385POPC   GL131741   7.633   2.144   9.135
 2385POPC   GL231742   7.923   2.035   9.004
 2385POPC   C1A31743   7.463   1.954   8.750
 2385POPC   D2A31744   7.677   1.858   8.372
 2385POPC   C3A31745   7.461   1.968   8.009
 2385POPC   C4A31746   7.281   1.673   7.754
 2385POPC   C1B31747   7.850   2.305   8.687
 2385POPC   C2B31748   7.653   2.360   8.294
 2385POPC   C3B31749   7.836   2.285   7.895
 2385POPC   C4B31750   7.821   2.290   7.410
 2386POPC   NC331751  13.427  41.349   9.489
 2386POPC   PO431752  13.935  41.822   9.355
 2386POPC   GL131753  13.604  41.671   9.083
 2386POPC   GL231754  13.557  41.304   9.008
 2386POPC   C1A31755  13.667  41.644   8.636
 2386POPC   D2A31756  13.520  41.478   8.265
 2386POPC   C3A31757  13.668  41.658   7.880
 2386POPC   C4A31758  13.447  41.491   7.538
 2386POPC   C1B31759  13.758  41.118   8.653
 2386POPC   C2B31760  13.958  41.186   8.249
 2386POPC   C3B31761  13.713  41.159   7.880
 2386POPC   C4B31762  13.786  41.151   7.422
 2387POPC   NC331763   1.746  33.903   9.431
 2387POPC   PO431764   2.402  33.794   9.473
 2387POPC   GL131765   2.163  33.951   9.124
 2387POPC   GL231766   2.030  33.611   9.116
 2387POPC   C1A31767   1.917  34.222   8.813
 2387POPC   D2A31768   1.664  34.047   8.427
 2387POPC   C3A31769   1.847  34.136   8.010
 2387POPC   C4A31770   1.714  34.035   7.578
 2387POPC   C1B31771   1.938  33.709   8.699
 2387POPC   C2B31772   1.832  33.590   8.277
 2387POPC   C3B31773   1.891  33.641   7.844
 2387POPC   C4B31774   2.281  33.539   7.632
 2388POPC   NC331775  34.023  44.211   9.585
 2388POPC   PO431776  33.458  43.782   9.465
 2388POPC   GL131777  33.685  43.908   9.111
 2388POPC   GL231778  33.961  43.725   9.104
 2388POPC   C1A31779  33.891  44.064   8.714
 2388POPC   D2A31780  34.057  44.090   8.275
 2388POPC   C3A31781  33.704  44.009   7.947
 2388POPC   C4A31782  33.395  44.033   7.553
 2388POPC   C1B31783  33.838  43.545   8.694
 2388POPC   C2B31784  34.049  43.558   8.282
 2388POPC   C3B31785  33.949  43.543   7.864
 2388POPC   C4B31786  33.521  43.574   7.758
 2389POPC   NC331787  15.753   9.045   9.556
 2389POPC   PO431788  16.241   8.966   9.139
 2389POPC   GL131789  15.921   8.668   9.064
 2389POPC   GL231790  15.580   8.697   9.146
 2389POPC   C1A31791  15.824   8.702   8.654
 2389POPC   D2A31792  16.138   8.878   8.396
 2389POPC   C3A31793  16.094   8.872   7.972
 2389POPC   C4A31794  16.030   9.243   7.723
 2389POPC   C1B31795  15.613   9.089   8.893
 2389POPC   C2B31796  15.754   9.228   8.468
 2389POPC   C3B31797  15.641   9.106   8.034
 2389POPC   C4B31798  15.677   8.872   7.613
 2390POPC   NC331799   0.919  31.445   9.555
 2390POPC   PO431800   1.451  31.835   9.670
 2390POPC   GL131801   1.297  31.636   9.247
 2390POPC   GL231802   0.946  31.512   9.056
 2390POPC   C1A31803   1.350  31.690   8.797
 2390POPC   D2A31804   1.073  31.600   8.449
 2390POPC   C3A31805   1.302  31.575   8.101
 2390POPC   C4A31806   1.444  31.867   7.838
 2390POPC   C1B31807   1.156  31.185   8.756
 2390POPC   C2B31808   1.225  31.107   8.305
 2390POPC   C3B31809   0.932  31.209   7.954
 2390POPC   C4B31810   0.948  31.194   7.501
 2391POPC   NC331811  16.136   4.118   9.298
 2391POPC   PO431812  15.658   4.421   9.657
 2391POPC   GL131813  15.687   4.503   9.186
 2391POPC   GL231814  15.603   4.183   9.074
 2391POPC   C1A31815  15.898   4.473   8.727
 2391POPC   D2A31816  16.194   4.426   8.337
 2391POPC   C3A31817  15.996   4.402   7.921
 2391POPC   C4A31818  15.595   4.385   7.708
 2391POPC   C1B31819  15.694   3.996   8.678
 2391POPC   C2B31820  15.669   4.172   8.253
 2391POPC   C3B31821  15.598   3.922   7.883
 2391POPC   C4B31822  15.999   3.912   7.738
 2392POPC   NC331823  27.945  43.011   9.434
 2392POPC   PO431824  28.520  43.290   9.794
 2392POPC   GL131825  28.347  43.346   9.320
 2392POPC   GL231826  28.476  43.072   9.122
 2392POPC   C1A31827  28.203  43.359   8.831
 2392POPC   D2A31828  28.402  43.206   8.414
 2392POPC   C3A31829  28.255  43.370   8.078
 2392POPC   C4A31830  28.095  43.222   7.707
 2392POPC   C1B31831  28.622  42.888   8.731
 2392POPC   C2B31832  28.643  42.734   8.313
 2392POPC   C3B31833  28.390  42.858   7.969
 2392POPC   C4B31834  27.960  42.750   7.835
 2393POPC   NC331835  38.849  39.653   9.404
 2393POPC   PO431836  38.311  39.991   9.547
 2393POPC   GL131837  38.431  40.176   9.164
 2393POPC   GL231838  38.536  39.853   9.070
 2393POPC   C1A31839  38.538  40.190   8.721
 2393POPC   D2A31840  38.305  40.079   8.356
 2393POPC   C3A31841  38.597  40.086   8.047
 2393POPC   C4A31842  38.782  40.343   7.768
 2393POPC   C1B31843  38.351  39.688   8.707
 2393POPC   C2B31844  38.374  39.480   8.325
 2393POPC   C3B31845  38.410  39.621   7.903
 2393POPC   C4B31846  38.357  39.787   7.492
 2394POPC   NC331847   9.069  27.957   9.445
 2394POPC   PO431848   8.789  27.309   9.511
 2394POPC   GL131849   8.917  27.346   9.086
 2394POPC   GL231850   8.989  27.700   9.028
 2394POPC   C1A31851   8.885  27.375   8.640
 2394POPC   D2A31852   8.737  27.535   8.289
 2394POPC   C3A31853   8.955  27.410   7.947
 2394POPC   C4A31854   8.832  27.537   7.547
 2394POPC   C1B31855   9.296  27.683   8.708
 2394POPC   C2B31856   9.187  27.742   8.294
 2394POPC   C3B31857   9.156  27.871   7.879
 2394POPC   C4B31858   9.477  28.080   7.682
 2395POPC   NC331859   5.956  42.278   9.552
 2395POPC   PO431860   5.434  41.897   9.424
 2395POPC   GL131861   5.603  42.276   9.188
 2395POPC   GL231862   5.965  42.301   9.049
 2395POPC   C1A31863   5.588  42.198   8.734
 2395POPC   D2A31864   5.833  42.359   8.418
 2395POPC   C3A31865   5.640  42.216   8.049
 2395POPC   C4A31866   5.807  42.346   7.660
 2395POPC   C1B31867   6.087  42.663   8.785
 2395POPC   C2B31868   6.272  42.728   8.392
 2395POPC   C3B31869   6.176  42.537   7.992
 2395POPC   C4B31870   6.304  42.486   7.569
 2396POPC   NC331871  35.808  31.409   9.615
 2396POPC   PO431872  36.251  31.906   9.449
 2396POPC   GL131873  36.304  31.592   9.160
 2396POPC   GL231874  36.130  31.270   9.092
 2396POPC   C1A31875  36.180  31.584   8.722
 2396POPC   D2A31876  36.239  31.307   8.392
 2396POPC   C3A31877  36.185  31.599   8.047
 2396POPC   C4A31878  36.266  31.815   7.658
 2396POPC   C1B31879  35.882  31.110   8.751
 2396POPC   C2B31880  35.773  31.072   8.307
 2396POPC   C3B31881  36.091  31.077   7.965
 2396POPC   C4B31882  36.029  31.346   7.627
 2397POPC   NC331883  21.364  36.738   9.409
 2397POPC   PO431884  21.092  37.342   9.533
 2397POPC   GL131885  21.279  37.167   9.140
 2397POPC   GL231886  21.256  36.831   8.937
 2397POPC   C1A31887  21.511  37.232   8.757
 2397POPC   D2A31888  21.627  36.953   8.421
 2397POPC   C3A31889  21.488  37.036   8.005
 2397POPC   C4A31890  21.475  36.786   7.635
 2397POPC   C1B31891  20.955  36.628   8.683
 2397POPC   C2B31892  21.091  36.838   8.315
 2397POPC   C3B31893  21.042  36.698   7.896
 2397POPC   C4B31894  20.928  36.750   7.470
 2398POPC   NC331895  41.717  35.344   9.354
 2398POPC   PO431896  41.120  35.403   9.619
 2398POPC   GL131897  41.270  35.490   9.157
 2398POPC   GL231898  41.480  35.730   9.134
 2398POPC   C1A31899  41.511  35.384   8.745
 2398POPC   D2A31900  41.617  35.231   8.349
 2398POPC   C3A31901  41.959  35.363   8.105
 2398POPC   C4A31902  41.734  35.189   7.777
 2398POPC   C1B31903  41.505  35.880   8.728
 2398POPC   C2B31904  41.693  35.747   8.341
 2398POPC   C3B31905  41.589  35.656   7.911
 2398POPC   C4B31906  41.327  35.597   7.552
 2399POPC   NC331907   8.688  29.721   9.322
 2399POPC   PO431908   9.232  30.079   9.396
 2399POPC   GL131909   9.179  29.740   9.080
 2399POPC   GL231910   8.876  29.849   8.874
 2399POPC   C1A31911   9.294  29.705   8.640
 2399POPC   D2A31912   8.985  29.968   8.380
 2399POPC   C3A31913   8.838  29.881   8.004
 2399POPC   C4A31914   9.055  29.648   7.725
 2399POPC   C1B31915   9.220  30.177   8.766
 2399POPC   C2B31916   9.414  30.242   8.353
 2399POPC   C3B31917   9.227  30.251   7.955
 2399POPC   C4B31918   8.973  30.193   7.601
 2400POPC   NC331919  14.060   5.304   9.506
 2400POPC   PO431920  14.669   5.501   9.505
 2400POPC   GL131921  14.437   5.331   9.146
 2400POPC   GL231922  14.171   5.052   9.069
 2400POPC   C1A31923  14.490   5.245   8.726
 2400POPC   D2A31924  14.582   4.920   8.455
 2400POPC   C3A31925  14.617   5.197   8.141
 2400POPC   C4A31926  14.489   5.189   7.772
 2400POPC   C1B31927  13.979   5.161   8.668
 2400POPC   C2B31928  14.105   5.174   8.229
 2400POPC   C3B31929  14.011   5.282   7.814
 2400POPC   C4B31930  14.160   5.374   7.404
 2401POPC   NC331931  27.386  12.932  10.148
 2401POPC   PO431932  27.500  13.336   9.702
 2401POPC   GL131933  27.489  13.114   9.230
 2401POPC   GL231934  27.206  13.229   8.994
 2401POPC   C1A31935  27.667  13.052   8.759
 2401POPC   D2A31936  27.549  12.987   8.288
 2401POPC   C3A31937  27.873  12.876   7.938
 2401POPC   C4A31938  28.225  13.031   7.669
 2401POPC   C1B31939  27.197  12.870   8.660
 2401POPC   C2B31940  27.135  12.697   8.228
 2401POPC   C3B31941  27.392  12.724   7.873
 2401POPC   C4B31942  27.351  13.002   7.505
 2402POPC   NC331943  11.073   3.340   9.419
 2402POPC   PO431944  11.288   2.713   9.473
 2402POPC   GL131945  11.283   2.735   9.066
 2402POPC   GL231946  11.406   3.058   9.098
 2402POPC   C1A31947  11.429   2.687   8.640
 2402POPC   D2A31948  11.693   2.832   8.312
 2402POPC   C3A31949  11.462   2.883   7.931
 2402POPC   C4A31950  11.118   2.663   7.740
 2402POPC   C1B31951  11.151   3.117   8.734
 2402POPC   C2B31952  10.960   2.932   8.353
 2402POPC   C3B31953  10.963   3.106   7.927
 2402POPC   C4B31954  10.920   3.327   7.499
 2403POPC   NC331955   9.297   6.764   9.265
 2403POPC   PO431956   8.788   7.170   9.635
 2403POPC   GL131957   8.799   6.907   9.190
 2403POPC   GL231958   8.845   6.518   9.172
 2403POPC   C1A31959   8.901   6.800   8.742
 2403POPC   D2A31960   8.778   6.461   8.461
 2403POPC   C3A31961   8.812   6.565   8.034
 2403POPC   C4A31962   8.982   6.798   7.649
 2403POPC   C1B31963   8.988   6.204   8.852
 2403POPC   C2B31964   9.240   6.063   8.504
 2403POPC   C3B31965   9.245   6.266   8.122
 2403POPC   C4B31966   9.092   6.299   7.704
 2404POPC   NC331967  10.289   4.407   9.480
 2404POPC   PO431968  10.950   4.432   9.724
 2404POPC   GL131969  10.722   4.289   9.262
 2404POPC   GL231970  10.505   4.019   9.185
 2404POPC   C1A31971  10.451   4.451   8.850
 2404POPC   D2A31972  10.439   4.369   8.401
 2404POPC   C3A31973  10.405   4.597   8.013
 2404POPC   C4A31974  10.536   4.519   7.568
 2404POPC   C1B31975  10.400   3.877   8.770
 2404POPC   C2B31976  10.576   3.874   8.344
 2404POPC   C3B31977  10.512   4.092   7.932
 2404POPC   C4B31978  10.306   4.042   7.525
 2405POPC   NC331979  24.662  32.487   9.522
 2405POPC   PO431980  24.035  32.134   9.352
 2405POPC   GL131981  24.314  32.406   9.141
 2405POPC   GL231982  24.532  32.158   9.126
 2405POPC   C1A31983  24.578  32.497   8.739
 2405POPC   D2A31984  24.500  32.686   8.304
 2405POPC   C3A31985  24.376  32.406   7.953
 2405POPC   C4A31986  24.569  32.393   7.553
 2405POPC   C1B31987  24.244  32.090   8.755
 2405POPC   C2B31988  24.418  32.141   8.393
 2405POPC   C3B31989  24.370  31.918   8.082
 2405POPC   C4B31990  24.511  31.919   7.742
 2406POPC   NC331991  15.729  44.260   9.636
 2406POPC   PO431992  15.583  43.643   9.476
 2406POPC   GL131993  15.786  43.849   9.141
 2406POPC   GL231994  16.024  44.117   9.219
 2406POPC   C1A31995  15.795  43.713   8.714
 2406POPC   D2A31996  15.550  43.628   8.360
 2406POPC   C3A31997  15.688  43.669   7.947
 2406POPC   C4A31998  16.005  43.891   7.760
 2406POPC   C1B31999  16.165  44.055   8.788
 2406POPC   C2B32000  15.998  44.004   8.356
 2406POPC   C3B32001  16.246  44.211   8.057
 2406POPC   C4B32002  16.082  44.397   7.713
 2407POPC   NC332003   0.416  17.372   9.453
 2407POPC   PO432004  44.922  17.630   9.543
 2407POPC   GL132005   0.015  17.388   9.101
 2407POPC   GL232006   0.367  17.214   8.989
 2407POPC   C1A32007   0.157  17.517   8.655
 2407POPC   D2A32008   0.458  17.567   8.306
 2407POPC   C3A32009   0.412  17.637   7.848
 2407POPC   C4A32010   0.159  17.366   7.602
 2407POPC   C1B32011   0.664  17.543   8.803
 2407POPC   C2B32012   0.849  17.846   8.507
 2407POPC   C3B32013   0.883  17.723   8.073
 2407POPC   C4B32014   0.877  17.639   7.624
 2408POPC   NC332015   9.414  26.828   9.582
 2408POPC   PO432016  10.008  27.176   9.509
 2408POPC   GL132017   9.921  26.961   9.094
 2408POPC   GL232018   9.574  26.805   9.077
 2408POPC   C1A32019   9.828  26.876   8.648
 2408POPC   D2A32020   9.616  26.964   8.274
 2408POPC   C3A32021   9.867  26.853   7.949
 2408POPC   C4A32022  10.119  27.029   7.613
 2408POPC   C1B32023   9.516  26.471   8.743
 2408POPC   C2B32024   9.367  26.381   8.327
 2408POPC   C3B32025   9.490  26.469   7.887
 2408POPC   C4B32026   9.349  26.655   7.502
 2409POPC   NC332027  29.269  17.735   9.967
 2409POPC   PO432028  28.865  17.693   9.448
 2409POPC   GL132029  29.013  17.762   9.020
 2409POPC   GL232030  29.330  17.915   9.125
 2409POPC   C1A32031  29.177  17.459   8.679
 2409POPC   D2A32032  29.273  17.168   8.330
 2409POPC   C3A32033  29.151  17.377   7.948
 2409POPC   C4A32034  29.061  17.559   7.532
 2409POPC   C1B32035  29.383  17.930   8.694
 2409POPC   C2B32036  29.476  17.678   8.335
 2409POPC   C3B32037  29.635  17.414   8.029
 2409POPC   C4B32038  29.532  17.659   7.665
 2410POPC   NC332039  11.664  40.162   9.681
 2410POPC   PO432040  12.199  40.025   9.347
 2410POPC   GL132041  11.904  39.869   9.054
 2410POPC   GL232042  11.782  39.507   9.001
 2410POPC   C1A32043  11.836  39.918   8.636
 2410POPC   D2A32044  12.055  40.192   8.379
 2410POPC   C3A32045  11.920  40.068   8.003
 2410POPC   C4A32046  11.966  40.245   7.624
 2410POPC   C1B32047  12.238  39.571   8.841
 2410POPC   C2B32048  12.385  39.789   8.502
 2410POPC   C3B32049  12.373  39.770   8.055
 2410POPC   C4B32050  12.125  39.734   7.672
 2411POPC   NC332051   7.872  13.388   9.340
 2411POPC   PO432052   8.460  13.684   9.559
 2411POPC   GL132053   8.252  13.697   9.152
 2411POPC   GL232054   7.965  13.872   9.201
 2411POPC   C1A32055   8.224  13.765   8.708
 2411POPC   D2A32056   8.341  13.887   8.289
 2411POPC   C3A32057   8.386  13.539   8.045
 2411POPC   C4A32058   8.092  13.438   7.763
 2411POPC   C1B32059   7.747  13.874   8.820
 2411POPC   C2B32060   7.841  13.934   8.393
 2411POPC   C3B32061   7.829  13.818   7.976
 2411POPC   C4B32062   7.758  13.990   7.576
 2412POPC   NC332063   6.297  24.701   9.559
 2412POPC   PO432064   5.689  24.510   9.418
 2412POPC   GL132065   5.674  24.504   8.991
 2412POPC   GL232066   5.660  24.884   8.974
 2412POPC   C1A32067   5.588  24.236   8.617
 2412POPC   D2A32068   5.661  24.047   8.201
 2412POPC   C3A32069   5.940  24.351   8.045
 2412POPC   C4A32070   5.999  24.553   7.692
 2412POPC   C1B32071   5.793  24.762   8.571
 2412POPC   C2B32072   5.986  24.870   8.194
 2412POPC   C3B32073   5.656  24.845   7.954
 2412POPC   C4B32074   5.595  24.842   7.514
 2413POPC   NC332075  32.520   7.711   9.486
 2413POPC   PO432076  31.919   7.306   9.695
 2413POPC   GL132077  32.129   7.427   9.236
 2413POPC   GL232078  32.464   7.367   9.111
 2413POPC   C1A32079  32.095   7.606   8.804
 2413POPC   D2A32080  32.013   7.420   8.400
 2413POPC   C3A32081  32.272   7.302   8.035
 2413POPC   C4A32082  32.293   7.374   7.556
 2413POPC   C1B32083  32.593   7.698   8.781
 2413POPC   C2B32084  32.411   7.737   8.342
 2413POPC   C3B32085  32.489   7.733   7.867
 2413POPC   C4B32086  32.446   7.840   7.363
 2414POPC   NC332087  23.988   5.750   9.572
 2414POPC   PO432088  23.355   5.565   9.537
 2414POPC   GL132089  23.627   5.927   9.268
 2414POPC   GL232090  24.013   5.880   9.098
 2414POPC   C1A32091  23.646   6.065   8.833
 2414POPC   D2A32092  23.791   6.003   8.479
 2414POPC   C3A32093  23.608   6.257   8.231
 2414POPC   C4A32094  23.554   6.189   7.836
 2414POPC   C1B32095  23.912   5.595   8.773
 2414POPC   C2B32096  23.882   5.419   8.366
 2414POPC   C3B32097  23.817   5.723   8.038
 2414POPC   C4B32098  24.016   5.780   7.667
 2415POPC   NC332099  19.437  14.872   9.408
 2415POPC   PO432100  18.988  15.371   9.466
 2415POPC   GL132101  19.152  15.217   9.125
 2415POPC   GL232102  18.986  14.916   9.169
 2415POPC   C1A32103  19.301  15.179   8.712
 2415POPC   D2A32104  19.219  14.946   8.346
 2415POPC   C3A32105  19.267  15.205   7.995
 2415POPC   C4A32106  19.222  15.094   7.572
 2415POPC   C1B32107  18.974  14.768   8.776
 2415POPC   C2B32108  18.706  14.870   8.422
 2415POPC   C3B32109  18.797  15.024   8.032
 2415POPC   C4B32110  18.714  14.863   7.631
 2416POPC   NC332111  18.684  32.059   9.589
 2416POPC   PO432112  18.003  31.829   9.562
 2416POPC   GL132113  18.302  32.005   9.233
 2416POPC   GL232114  18.431  32.313   9.074
 2416POPC   C1A32115  18.187  31.973   8.794
 2416POPC   D2A32116  18.290  32.317   8.554
 2416POPC   C3A32117  18.353  32.172   8.142
 2416POPC   C4A32118  18.140  32.329   7.789
 2416POPC   C1B32119  18.705  32.585   8.847
 2416POPC   C2B32120  18.677  32.619   8.430
 2416POPC   C3B32121  18.331  32.680   8.163
 2416POPC   C4B32122  18.548  32.614   7.813
 2417POPC   NC332123  14.263  32.465   9.566
 2417POPC   PO432124  14.614  31.980   9.427
 2417POPC   GL132125  14.367  32.149   9.116
 2417POPC   GL232126  14.561  32.431   9.149
 2417POPC   C1A32127  14.521  32.168   8.662
 2417POPC   D2A32128  14.620  31.829   8.333
 2417POPC   C3A32129  14.509  31.940   7.887
 2417POPC   C4A32130  14.623  32.173   7.498
 2417POPC   C1B32131  14.391  32.642   8.813
 2417POPC   C2B32132  14.249  32.631   8.413
 2417POPC   C3B32133  14.306  32.459   8.005
 2417POPC   C4B32134  14.446  32.662   7.635
 2418POPC   NC332135  19.411  16.437   9.466
 2418POPC   PO432136  19.236  16.950   9.673
 2418POPC   GL132137  19.139  16.890   9.171
 2418POPC   GL232138  18.899  17.165   9.080
 2418POPC   C1A32139  18.951  16.721   8.745
 2418POPC   D2A32140  18.821  16.508   8.344
 2418POPC   C3A32141  19.071  16.546   7.938
 2418POPC   C4A32142  19.062  16.484   7.490
 2418POPC   C1B32143  18.962  17.231   8.631
 2418POPC   C2B32144  19.088  16.977   8.280
 2418POPC   C3B32145  19.193  17.144   7.891
 2418POPC   C4B32146  18.952  16.968   7.605
 2419POPC   NC332147   0.416  29.997   9.514
 2419POPC   PO432148   0.769  30.192   8.943
 2419POPC   GL132149   0.423  29.941   9.013
 2419POPC   GL232150   0.522  29.596   9.189
 2419POPC   C1A32151   0.186  29.860   8.636
 2419POPC   D2A32152   0.047  30.058   8.241
 2419POPC   C3A32153   0.243  29.796   7.919
 2419POPC   C4A32154   0.591  29.919   7.679
 2419POPC   C1B32155   0.593  29.565   8.742
 2419POPC   C2B32156   0.674  29.724   8.353
 2419POPC   C3B32157   0.687  29.509   7.996
 2419POPC   C4B32158   0.502  29.421   7.655
 2420POPC   NC332159  29.547  29.885   9.437
 2420POPC   PO432160  28.899  29.760   9.340
 2420POPC   GL132161  29.197  29.809   9.075
 2420POPC   GL232162  29.320  29.502   8.963
 2420POPC   C1A32163  29.463  29.947   8.777
 2420POPC   D2A32164  29.221  29.849   8.414
 2420POPC   C3A32165  29.303  29.995   8.003
 2420POPC   C4A32166  29.383  30.142   7.542
 2420POPC   C1B32167  28.928  29.520   8.709
 2420POPC   C2B32168  28.764  29.642   8.302
 2420POPC   C3B32169  28.796  29.909   7.940
 2420POPC   C4B32170  29.035  29.768   7.591
 2421POPC   NC332171  30.577  38.416   9.644
 2421POPC   PO432172  31.173  38.718   9.404
 2421POPC   GL132173  30.888  38.539   9.087
 2421POPC   GL232174  30.599  38.640   9.051
 2421POPC   C1A32175  30.822  38.422   8.633
 2421POPC   D2A32176  30.451  38.285   8.325
 2421POPC   C3A32177  30.553  38.225   7.893
 2421POPC   C4A32178  31.006  38.185   7.792
 2421POPC   C1B32179  30.949  38.917   8.796
 2421POPC   C2B32180  31.039  38.965   8.378
 2421POPC   C3B32181  30.950  38.614   8.102
 2421POPC   C4B32182  30.767  38.625   7.684
 2422POPC   NC332183  40.538  25.187   9.431
 2422POPC   PO432184  41.220  24.825   9.455
 2422POPC   GL132185  40.962  25.065   9.146
 2422POPC   GL232186  40.653  24.933   9.001
 2422POPC   C1A32187  40.948  25.256   8.747
 2422POPC   D2A32188  40.711  25.061   8.468
 2422POPC   C3A32189  40.663  25.229   8.096
 2422POPC   C4A32190  40.878  25.308   7.745
 2422POPC   C1B32191  40.435  25.321   8.817
 2422POPC   C2B32192  40.280  25.435   8.450
 2422POPC   C3B32193  40.226  25.493   8.043
 2422POPC   C4B32194  40.496  25.667   7.740
 2423POPC   NC332195   2.315   0.256   9.416
 2423POPC   PO432196   2.774   0.739   9.560
 2423POPC   GL132197   2.696   0.517   9.174
 2423POPC   GL232198   2.374   0.622   9.069
 2423POPC   C1A32199   2.795   0.693   8.759
 2423POPC   D2A32200   2.622   0.828   8.397
 2423POPC   C3A32201   2.662   0.568   8.099
 2423POPC   C4A32202   2.871   0.564   7.752
 2423POPC   C1B32203   2.444   0.363   8.681
 2423POPC   C2B32204   2.453   0.122   8.280
 2423POPC   C3B32205   2.472   0.163   7.834
 2423POPC   C4B32206   2.324   0.526   7.652
 2424POPC   NC332207  27.337   6.221   9.235
 2424POPC   PO432208  27.847   6.501   9.619
 2424POPC   GL132209  27.781   6.566   9.185
 2424POPC   GL232210  27.835   6.219   9.111
 2424POPC   C1A32211  27.673   6.630   8.739
 2424POPC   D2A32212  27.358   6.817   8.424
 2424POPC   C3A32213  27.568   7.008   8.050
 2424POPC   C4A32214  27.844   6.845   7.709
 2424POPC   C1B32215  27.637   6.097   8.693
 2424POPC   C2B32216  27.546   6.330   8.353
 2424POPC   C3B32217  27.793   6.495   8.075
 2424POPC   C4B32218  27.687   6.341   7.698
 2425POPC   NC332219   9.838  23.415   9.373
 2425POPC   PO432220   9.736  22.761   9.534
 2425POPC   GL132221   9.796  22.974   9.126
 2425POPC   GL232222  10.153  23.142   9.096
 2425POPC   C1A32223   9.573  23.078   8.719
 2425POPC   D2A32224   9.427  22.869   8.347
 2425POPC   C3A32225   9.626  22.952   7.955
 2425POPC   C4A32226   9.598  23.345   7.751
 2425POPC   C1B32227  10.055  22.955   8.694
 2425POPC   C2B32228   9.925  22.715   8.369
 2425POPC   C3B32229  10.095  22.704   7.978
 2425POPC   C4B32230  10.068  23.088   7.722
 2426POPC   NC332231  32.937   2.580   9.557
 2426POPC   PO432232  33.403   2.870   9.193
 2426POPC   GL132233  32.991   2.809   9.063
 2426POPC   GL232234  32.808   2.500   9.048
 2426POPC   C1A32235  33.023   2.846   8.636
 2426POPC   D2A32236  32.893   2.645   8.266
 2426POPC   C3A32237  32.877   2.913   7.887
 2426POPC   C4A32238  32.975   2.916   7.464
 2426POPC   C1B32239  33.112   2.346   8.719
 2426POPC   C2B32240  33.205   2.230   8.291
 2426POPC   C3B32241  33.170   2.469   7.879
 2426POPC   C4B32242  33.183   2.475   7.381
 2427POPC   NC332243  28.038  41.371   9.505
 2427POPC   PO432244  28.622  41.714   9.504
 2427POPC   GL132245  28.319  41.722   9.200
 2427POPC   GL232246  28.515  41.507   9.015
 2427POPC   C1A32247  28.173  41.845   8.789
 2427POPC   D2A32248  28.276  41.929   8.345
 2427POPC   C3A32249  28.418  41.617   8.078
 2427POPC   C4A32250  28.534  41.553   7.670
 2427POPC   C1B32251  28.451  41.454   8.579
 2427POPC   C2B32252  28.414  41.148   8.276
 2427POPC   C3B32253  28.351  41.114   7.864
 2427POPC   C4B32254  28.555  41.039   7.498
 2428POPC   NC332255  35.361  34.457   9.831
 2428POPC   PO432256  35.317  34.782   9.247
 2428POPC   GL132257  35.323  34.400   9.006
 2428POPC   GL232258  35.566  34.533   8.848
 2428POPC   C1A32259  35.310  34.146   8.639
 2428POPC   D2A32260  35.104  34.301   8.270
 2428POPC   C3A32261  35.267  34.609   7.995
 2428POPC   C4A32262  35.313  34.289   7.694
 2428POPC   C1B32263  35.530  34.909   8.604
 2428POPC   C2B32264  35.679  34.963   8.190
 2428POPC   C3B32265  35.674  34.848   7.751
 2428POPC   C4B32266  35.852  34.872   7.320
 2429POPC   NC332267  42.100  38.824   9.417
 2429POPC   PO432268  42.161  39.471   9.569
 2429POPC   GL132269  42.224  39.421   9.069
 2429POPC   GL232270  42.170  39.069   8.998
 2429POPC   C1A32271  42.377  39.311   8.630
 2429POPC   D2A32272  42.187  38.962   8.400
 2429POPC   C3A32273  42.001  39.181   8.078
 2429POPC   C4A32274  42.137  39.419   7.734
 2429POPC   C1B32275  42.499  38.830   8.796
 2429POPC   C2B32276  42.793  38.941   8.495
 2429POPC   C3B32277  42.627  39.049   8.125
 2429POPC   C4B32278  42.366  38.941   7.787
 2430POPC   NC332279  44.155  26.824   9.599
 2430POPC   PO432280  44.838  26.763   9.830
 2430POPC   GL132281  44.982  26.815   9.346
 2430POPC   GL232282  44.945  26.514   9.165
 2430POPC   C1A32283  44.940  26.939   8.835
 2430POPC   D2A32284   0.040  26.796   8.401
 2430POPC   C3A32285  44.940  27.006   8.028
 2430POPC   C4A32286  44.608  27.025   7.738
 2430POPC   C1B32287  44.901  26.418   8.746
 2430POPC   C2B32288  44.566  26.641   8.576
 2430POPC   C3B32289  44.514  26.751   8.173
 2430POPC   C4B32290  44.357  26.549   7.827
 2431POPC   NC332291   4.408  30.232   9.429
 2431POPC   PO432292   4.177  29.599   9.391
 2431POPC   GL132293   4.240  29.890   9.047
 2431POPC   GL232294   4.033  29.670   8.851
 2431POPC   C1A32295   4.304  30.266   8.776
 2431POPC   D2A32296   4.436  30.526   8.451
 2431POPC   C3A32297   4.454  30.219   8.158
 2431POPC   C4A32298   4.495  29.861   7.886
 2431POPC   C1B32299   4.315  29.766   8.551
 2431POPC   C2B32300   4.264  29.545   8.193
 2431POPC   C3B32301   3.989  29.605   7.855
 2431POPC   C4B32302   3.960  29.604   7.400
 2432POPC   NC332303  38.748  15.301   9.517
 2432POPC   PO432304  38.082  15.191   9.491
 2432POPC   GL132305  38.375  15.384   9.150
 2432POPC   GL232306  38.671  15.121   9.051
 2432POPC   C1A32307  38.382  15.340   8.691
 2432POPC   D2A32308  38.446  14.997   8.402
 2432POPC   C3A32309  38.489  15.263   8.059
 2432POPC   C4A32310  38.231  15.424   7.741
 2432POPC   C1B32311  38.969  14.883   8.778
 2432POPC   C2B32312  38.914  14.755   8.356
 2432POPC   C3B32313  38.945  14.965   7.979
 2432POPC   C4B32314  38.605  14.895   7.739
 2433POPC   NC332315   4.634  13.358   9.443
 2433POPC   PO432316   5.336  13.193   9.415
 2433POPC   GL132317   5.175  13.406   9.033
 2433POPC   GL232318   4.845  13.415   8.985
 2433POPC   C1A32319   5.243  13.705   8.688
 2433POPC   D2A32320   5.015  13.856   8.316
 2433POPC   C3A32321   5.146  13.752   7.930
 2433POPC   C4A32322   5.356  13.403   7.798
 2433POPC   C1B32323   4.716  13.629   8.653
 2433POPC   C2B32324   4.675  13.436   8.307
 2433POPC   C3B32325   4.672  13.558   7.923
 2433POPC   C4B32326   4.899  13.416   7.593
 2434POPC   NC332327  44.748   0.665   9.662
 2434POPC   PO432328  44.572  44.956   9.570
 2434POPC   GL132329  44.695   0.203   9.190
 2434POPC   GL232330  44.916   0.470   9.232
 2434POPC   C1A32331  44.602   0.350   8.758
 2434POPC   D2A32332  44.579   0.395   8.303
 2434POPC   C3A32333  44.637   0.196   7.925
 2434POPC   C4A32334  44.652   0.452   7.552
 2434POPC   C1B32335   0.095   0.405   8.851
 2434POPC   C2B32336   0.051   0.567   8.429
 2434POPC   C3B32337   0.023   0.529   7.969
 2434POPC   C4B32338   0.081   0.223   7.626
 2435POPC   NC332339  25.135  42.681   9.486
 2435POPC   PO432340  25.173  42.019   9.223
 2435POPC   GL132341  25.299  42.380   9.078
 2435POPC   GL232342  24.993  42.500   9.041
 2435POPC   C1A32343  25.302  42.478   8.651
 2435POPC   D2A32344  24.966  42.360   8.384
 2435POPC   C3A32345  25.123  42.226   8.032
 2435POPC   C4A32346  25.175  41.956   7.707
 2435POPC   C1B32347  24.867  42.762   8.683
 2435POPC   C2B32348  24.753  42.823   8.265
 2435POPC   C3B32349  24.918  42.687   7.900
 2435POPC   C4B32350  24.944  42.412   7.586
 2436POPC   NC332351  17.818  30.310   9.416
 2436POPC   PO432352  17.674  29.665   9.595
 2436POPC   GL132353  17.562  29.856   9.164
 2436POPC   GL232354  17.582  30.169   8.979
 2436POPC   C1A32355  17.316  29.630   8.830
 2436POPC   D2A32356  17.248  29.530   8.397
 2436POPC   C3A32357  17.519  29.722   8.080
 2436POPC   C4A32358  17.559  29.834   7.669
 2436POPC   C1B32359  17.622  29.997   8.606
 2436POPC   C2B32360  17.720  30.163   8.239
 2436POPC   C3B32361  17.462  30.255   7.916
 2436POPC   C4B32362  17.501  30.297   7.464
 2437POPC   NC332363  30.877  36.419   9.470
 2437POPC   PO432364  30.511  35.899   9.502
 2437POPC   GL132365  30.709  36.068   9.137
 2437POPC   GL232366  30.499  36.291   8.994
 2437POPC   C1A32367  30.858  36.090   8.699
 2437POPC   D2A32368  30.901  36.387   8.355
 2437POPC   C3A32369  30.770  36.246   7.929
 2437POPC   C4A32370  31.076  36.284   7.589
 2437POPC   C1B32371  30.428  36.314   8.526
 2437POPC   C2B32372  30.297  36.081   8.163
 2437POPC   C3B32373  30.332  36.051   7.719
 2437POPC   C4B32374  30.206  35.945   7.290
 2438POPC   NC332375  25.138  26.059   9.482
 2438POPC   PO432376  25.648  26.445   9.516
 2438POPC   GL132377  25.465  26.219   9.141
 2438POPC   GL232378  25.529  25.840   9.185
 2438POPC   C1A32379  25.280  26.160   8.726
 2438POPC   D2A32380  25.116  26.405   8.353
 2438POPC   C3A32381  24.986  26.196   7.981
 2438POPC   C4A32382  25.121  26.305   7.576
 2438POPC   C1B32383  25.441  25.664   8.792
 2438POPC   C2B32384  25.349  25.752   8.397
 2438POPC   C3B32385  25.484  25.974   8.074
 2438POPC   C4B32386  25.283  25.810   7.725
 2439POPC   NC332387  34.507  41.751   9.837
 2439POPC   PO432388  34.745  41.287   9.388
 2439POPC   GL132389  34.543  41.562   9.156
 2439POPC   GL232390  34.185  41.536   9.208
 2439POPC   C1A32391  34.646  41.668   8.741
 2439POPC   D2A32392  34.929  41.529   8.411
 2439POPC   C3A32393  34.786  41.627   7.984
 2439POPC   C4A32394  34.717  41.628   7.531
 2439POPC   C1B32395  34.252  41.365   8.773
 2439POPC   C2B32396  34.270  41.606   8.332
 2439POPC   C3B32397  34.302  41.591   7.851
 2439POPC   C4B32398  34.102  41.699   7.441
 2440POPC   NC332399  20.213  33.628   9.316
 2440POPC   PO432400  20.628  33.190   9.597
 2440POPC   GL132401  20.636  32.904   9.274
 2440POPC   GL232402  20.330  32.808   9.127
 2440POPC   C1A32403  20.798  32.900   8.865
 2440POPC   D2A32404  20.587  32.881   8.479
 2440POPC   C3A32405  20.830  32.785   8.133
 2440POPC   C4A32406  20.671  32.774   7.707
 2440POPC   C1B32407  20.425  33.223   8.877
 2440POPC   C2B32408  20.432  33.370   8.445
 2440POPC   C3B32409  20.551  33.190   8.029
 2440POPC   C4B32410  20.439  33.293   7.607
 2441POPC   NC332411   4.870  43.155   9.414
 2441POPC   PO432412   5.412  42.697   9.565
 2441POPC   GL132413   5.305  42.971   9.160
 2441POPC   GL232414   5.291  43.339   9.065
 2441POPC   C1A32415   5.189  43.000   8.711
 2441POPC   D2A32416   5.367  43.253   8.359
 2441POPC   C3A32417   5.318  43.103   7.925
 2441POPC   C4A32418   4.967  42.917   7.731
 2441POPC   C1B32419   4.886  43.408   8.815
 2441POPC   C2B32420   4.842  43.220   8.410
 2441POPC   C3B32421   4.872  43.368   8.007
 2441POPC   C4B32422   4.731  43.397   7.582
 2442POPC   NC332423  30.989  24.554   9.486
 2442POPC   PO432424  30.417  24.882   9.538
 2442POPC   GL132425  30.687  24.765   9.145
 2442POPC   GL232426  30.727  24.416   9.056
 2442POPC   C1A32427  30.838  24.776   8.723
 2442POPC   D2A32428  30.664  24.435   8.463
 2442POPC   C3A32429  30.863  24.301   8.126
 2442POPC   C4A32430  30.766  24.496   7.772
 2442POPC   C1B32431  30.392  24.207   8.821
 2442POPC   C2B32432  30.203  24.033   8.439
 2442POPC   C3B32433  30.277  24.170   8.017
 2442POPC   C4B32434  30.377  24.248   7.570
 2443POPC   NC332435  23.537  28.708  10.001
 2443POPC   PO432436  23.775  29.177   9.638
 2443POPC   GL132437  23.804  29.262   9.230
 2443POPC   GL232438  24.099  29.447   9.290
 2443POPC   C1A32439  23.750  29.019   8.826
 2443POPC   D2A32440  23.560  29.057   8.386
 2443POPC   C3A32441  23.572  28.891   7.943
 2443POPC   C4A32442  23.788  29.040   7.561
 2443POPC   C1B32443  24.135  29.346   8.851
 2443POPC   C2B32444  24.056  29.193   8.445
 2443POPC   C3B32445  23.983  29.172   8.026
 2443POPC   C4B32446  24.188  29.364   7.690
 2444POPC   NC332447  26.435  30.947   9.478
 2444POPC   PO432448  25.738  30.688   9.409
 2444POPC   GL132449  25.899  30.698   9.035
 2444POPC   GL232450  26.054  31.005   9.107
 2444POPC   C1A32451  26.041  30.423   8.687
 2444POPC   D2A32452  26.212  30.528   8.290
 2444POPC   C3A32453  25.954  30.627   7.949
 2444POPC   C4A32454  26.097  30.667   7.573
 2444POPC   C1B32455  26.156  30.928   8.656
 2444POPC   C2B32456  26.010  31.049   8.235
 2444POPC   C3B32457  26.154  31.129   7.802
 2444POPC   C4B32458  26.586  31.308   7.684
 2445POPC   NC332459  41.040  24.325   9.509
 2445POPC   PO432460  40.326  24.443   9.541
 2445POPC   GL132461  40.575  24.461   9.191
 2445POPC   GL232462  40.690  24.161   9.159
 2445POPC   C1A32463  40.691  24.483   8.756
 2445POPC   D2A32464  40.603  24.580   8.365
 2445POPC   C3A32465  40.837  24.727   8.065
 2445POPC   C4A32466  40.749  24.808   7.675
 2445POPC   C1B32467  41.026  24.078   8.885
 2445POPC   C2B32468  41.076  24.252   8.502
 2445POPC   C3B32469  41.118  24.305   8.085
 2445POPC   C4B32470  40.920  24.334   7.670
 2446POPC   NC332471  36.454  36.805   9.600
 2446POPC   PO432472  36.052  37.307   9.763
 2446POPC   GL132473  36.205  37.128   9.300
 2446POPC   GL232474  36.435  37.248   9.093
 2446POPC   C1A32475  36.211  36.841   8.863
 2446POPC   D2A32476  36.238  36.608   8.428
 2446POPC   C3A32477  36.096  36.843   8.063
 2446POPC   C4A32478  36.167  36.881   7.646
 2446POPC   C1B32479  36.106  37.357   8.828
 2446POPC   C2B32480  35.992  37.146   8.462
 2446POPC   C3B32481  35.908  37.325   8.065
 2446POPC   C4B32482  35.993  37.359   7.618
 2447POPC   NC332483  32.282  41.976   9.454
 2447POPC   PO432484  32.445  41.354   9.457
 2447POPC   GL132485  32.334  41.593   9.137
 2447POPC   GL232486  31.966  41.677   9.173
 2447POPC   C1A32487  32.401  41.793   8.771
 2447POPC   D2A32488  32.589  41.570   8.441
 2447POPC   C3A32489  32.425  41.672   8.070
 2447POPC   C4A32490  32.542  41.475   7.734
 2447POPC   C1B32491  32.019  41.354   8.836
 2447POPC   C2B32492  32.050  41.542   8.444
 2447POPC   C3B32493  31.919  41.520   8.044
 2447POPC   C4B32494  32.074  41.668   7.670
 2448POPC   NC332495  15.117  41.548   9.472
 2448POPC   PO432496  15.533  42.137   9.551
 2448POPC   GL132497  15.495  41.787   9.177
 2448POPC   GL232498  15.350  41.420   9.059
 2448POPC   C1A32499  15.251  41.809   8.758
 2448POPC   D2A32500  14.972  41.893   8.403
 2448POPC   C3A32501  15.130  41.866   7.971
 2448POPC   C4A32502  15.509  41.733   7.710
 2448POPC   C1B32503  15.269  41.281   8.676
 2448POPC   C2B32504  15.249  41.469   8.295
 2448POPC   C3B32505  15.230  41.347   7.890
 2448POPC   C4B32506  15.534  41.216   7.592
 2449POPC   NC332507  34.393  20.557   9.571
 2449POPC   PO432508  35.003  20.254   9.483
 2449POPC   GL132509  34.741  20.476   9.179
 2449POPC   GL232510  34.758  20.822   9.253
 2449POPC   C1A32511  34.581  20.472   8.751
 2449POPC   D2A32512  34.808  20.280   8.419
 2449POPC   C3A32513  34.654  20.378   8.017
 2449POPC   C4A32514  34.281  20.459   7.821
 2449POPC   C1B32515  34.754  20.964   8.818
 2449POPC   C2B32516  34.428  20.954   8.517
 2449POPC   C3B32517  34.446  20.892   8.090
 2449POPC   C4B32518  34.796  20.838   7.837
 2450POPC   NC332519  20.494   4.663   9.746
 2450POPC   PO432520  20.603   5.292   9.434
 2450POPC   GL132521  20.418   5.063   9.094
 2450POPC   GL232522  20.548   4.736   9.121
 2450POPC   C1A32523  20.335   5.103   8.647
 2450POPC   D2A32524  20.164   5.311   8.260
 2450POPC   C3A32525  20.442   5.139   7.939
 2450POPC   C4A32526  20.755   5.324   7.691
 2450POPC   C1B32527  20.771   4.848   8.723
 2450POPC   C2B32528  20.699   4.780   8.272
 2450POPC   C3B32529  20.892   4.851   7.857
 2450POPC   C4B32530  20.828   4.817   7.382
 2451POPC   NC332531  30.716  25.212   9.365
 2451POPC   PO432532  30.136  25.636   9.427
 2451POPC   GL132533  30.377  25.482   9.105
 2451POPC   GL232534  30.290  25.101   9.086
 2451POPC   C1A32535  30.761  25.592   8.822
 2451POPC   D2A32536  31.159  25.628   8.573
 2451POPC   C3A32537  31.136  25.474   8.155
 2451POPC   C4A32538  30.817  25.541   7.836
 2451POPC   C1B32539  30.447  25.216   8.682
 2451POPC   C2B32540  30.811  25.212   8.436
 2451POPC   C3B32541  30.880  25.024   8.036
 2451POPC   C4B32542  30.571  25.046   7.736
 2452POPC   NC332543  30.663  27.028   9.618
 2452POPC   PO432544  30.652  26.454   9.405
 2452POPC   GL132545  30.628  26.767   9.183
 2452POPC   GL232546  30.915  26.863   9.143
 2452POPC   C1A32547  30.489  26.889   8.819
 2452POPC   D2A32548  30.567  26.985   8.411
 2452POPC   C3A32549  30.448  26.679   8.122
 2452POPC   C4A32550  30.520  26.816   7.718
 2452POPC   C1B32551  30.959  26.688   8.761
 2452POPC   C2B32552  30.893  26.519   8.357
 2452POPC   C3B32553  30.952  26.690   7.949
 2452POPC   C4B32554  30.960  26.521   7.511
 2453POPC   NC332555   0.913  44.187   9.636
 2453POPC   PO432556   1.543  43.829   9.445
 2453POPC   GL132557   1.320  44.049   9.084
 2453POPC   GL232558   0.968  43.998   9.168
 2453POPC   C1A32559   1.274  44.055   8.619
 2453POPC   D2A32560   1.352  43.641   8.439
 2453POPC   C3A32561   1.543  43.678   8.053
 2453POPC   C4A32562   1.541  44.074   7.799
 2453POPC   C1B32563   0.986  43.711   8.830
 2453POPC   C2B32564   0.835  43.700   8.424
 2453POPC   C3B32565   1.062  43.880   8.085
 2453POPC   C4B32566   1.192  43.713   7.700
 2454POPC   NC332567   5.291   8.558   9.519
 2454POPC   PO432568   4.895   8.089   9.549
 2454POPC   GL132569   5.120   8.118   9.192
 2454POPC   GL232570   4.969   8.433   9.134
 2454POPC   C1A32571   5.335   8.100   8.798
 2454POPC   D2A32572   5.222   8.204   8.368
 2454POPC   C3A32573   5.357   8.042   7.987
 2454POPC   C4A32574   5.384   8.402   7.700
 2454POPC   C1B32575   4.865   8.305   8.743
 2454POPC   C2B32576   4.819   8.509   8.336
 2454POPC   C3B32577   4.910   8.333   7.933
 2454POPC   C4B32578   4.753   8.406   7.541
 2455POPC   NC332579   5.393  41.471   9.265
 2455POPC   PO432580   5.891  41.828   9.691
 2455POPC   GL132581   5.877  41.590   9.295
 2455POPC   GL232582   5.758  41.808   9.055
 2455POPC   C1A32583   5.923  41.364   8.866
 2455POPC   D2A32584   6.113  41.311   8.445
 2455POPC   C3A32585   5.889  41.367   8.043
 2455POPC   C4A32586   6.017  41.452   7.613
 2455POPC   C1B32587   6.035  41.874   8.738
 2455POPC   C2B32588   5.915  41.827   8.339
 2455POPC   C3B32589   6.002  41.872   7.933
 2455POPC   C4B32590   5.665  41.851   7.665
 2456POPC   NC332591  20.735   2.958   9.544
 2456POPC   PO432592  20.608   2.313   9.369
 2456POPC   GL132593  20.781   2.527   9.044
 2456POPC   GL232594  20.725   2.883   9.016
 2456POPC   C1A32595  20.672   2.493   8.617
 2456POPC   D2A32596  20.815   2.501   8.189
 2456POPC   C3A32597  20.514   2.720   7.951
 2456POPC   C4A32598  20.326   2.569   7.592
 2456POPC   C1B32599  20.925   2.938   8.610
 2456POPC   C2B32600  20.989   2.987   8.140
 2456POPC   C3B32601  21.016   2.760   7.776
 2456POPC   C4B32602  20.771   2.708   7.379
 2457POPC   NC332603  22.181  32.665   9.618
 2457POPC   PO432604  22.549  33.226   9.505
 2457POPC   GL132605  22.327  33.038   9.106
 2457POPC   GL232606  21.963  33.085   9.063
 2457POPC   C1A32607  22.202  32.959   8.638
 2457POPC   D2A32608  22.396  32.711   8.341
 2457POPC   C3A32609  22.234  32.735   7.934
 2457POPC   C4A32610  22.428  33.129   7.858
 2457POPC   C1B32611  21.691  33.030   8.733
 2457POPC   C2B32612  21.710  33.192   8.353
 2457POPC   C3B32613  21.930  33.152   7.992
 2457POPC   C4B32614  21.995  33.055   7.565
 2458POPC   NC332615  11.885  41.723   9.362
 2458POPC   PO432616  12.276  41.173   9.328
 2458POPC   GL132617  12.240  41.376   8.971
 2458POPC   GL232618  12.276  41.733   9.044
 2458POPC   C1A32619  12.460  41.509   8.627
 2458POPC   D2A32620  12.338  41.782   8.374
 2458POPC   C3A32621  12.062  41.579   8.143
 2458POPC   C4A32622  12.160  41.623   7.694
 2458POPC   C1B32623  12.060  42.006   8.764
 2458POPC   C2B32624  11.928  42.115   8.348
 2458POPC   C3B32625  12.111  42.049   7.951
 2458POPC   C4B32626  11.818  42.018   7.579
 2459POPC   NC332627  43.041  15.080   9.506
 2459POPC   PO432628  43.408  15.524   9.136
 2459POPC   GL132629  43.195  15.122   9.028
 2459POPC   GL232630  43.401  14.803   9.034
 2459POPC   C1A32631  42.962  14.886   8.740
 2459POPC   D2A32632  42.890  15.119   8.383
 2459POPC   C3A32633  43.057  15.072   8.005
 2459POPC   C4A32634  43.172  14.775   7.727
 2459POPC   C1B32635  43.474  14.953   8.631
 2459POPC   C2B32636  43.541  15.033   8.216
 2459POPC   C3B32637  43.489  15.270   7.866
 2459POPC   C4B32638  43.209  15.241   7.496
 2460POPC   NC332639  44.545  19.061   9.572
 2460POPC   PO432640   0.136  19.469   9.504
 2460POPC   GL132641  44.814  19.278   9.176
 2460POPC   GL232642  44.491  19.022   9.088
 2460POPC   C1A32643  44.891  18.944   8.837
 2460POPC   D2A32644  44.834  18.770   8.453
 2460POPC   C3A32645  44.861  19.001   8.101
 2460POPC   C4A32646  44.584  19.074   7.788
 2460POPC   C1B32647  44.515  19.318   8.764
 2460POPC   C2B32648  44.594  19.384   8.341
 2460POPC   C3B32649  44.267  19.342   8.065
 2460POPC   C4B32650  44.130  19.275   7.629
 2461POPC   NC332651  30.395   2.727   9.458
 2461POPC   PO432652  31.078   2.648   9.567
 2461POPC   GL132653  30.813   2.603   9.150
 2461POPC   GL232654  30.446   2.566   9.000
 2461POPC   C1A32655  30.742   2.900   8.769
 2461POPC   D2A32656  30.502   2.868   8.406
 2461POPC   C3A32657  30.707   2.914   8.011
 2461POPC   C4A32658  30.480   3.080   7.683
 2461POPC   C1B32659  30.421   2.240   8.746
 2461POPC   C2B32660  30.485   2.359   8.378
 2461POPC   C3B32661  30.359   2.551   8.014
 2461POPC   C4B32662  30.663   2.455   7.675
 2462POPC   NC332663  22.022  34.409   9.454
 2462POPC   PO432664  22.506  34.819   9.352
 2462POPC   GL132665  22.148  34.746   9.055
 2462POPC   GL232666  21.842  34.513   8.982
 2462POPC   C1A32667  22.207  34.887   8.638
 2462POPC   D2A32668  22.047  35.051   8.258
 2462POPC   C3A32669  22.041  34.703   7.972
 2462POPC   C4A32670  22.371  34.663   7.667
 2462POPC   C1B32671  22.197  34.359   8.745
 2462POPC   C2B32672  22.304  34.387   8.311
 2462POPC   C3B32673  22.060  34.192   7.974
 2462POPC   C4B32674  22.030  34.298   7.543
 2463POPC   NC332675   4.939   2.543   9.864
 2463POPC   PO432676   4.964   1.849   9.561
 2463POPC   GL132677   5.077   1.999   9.141
 2463POPC   GL232678   5.073   1.711   8.945
 2463POPC   C1A32679   4.952   2.218   8.772
 2463POPC   D2A32680   5.030   2.377   8.375
 2463POPC   C3A32681   5.149   2.076   8.060
 2463POPC   C4A32682   5.406   2.099   7.696
 2463POPC   C1B32683   5.273   1.505   8.589
 2463POPC   C2B32684   5.264   1.532   8.131
 2463POPC   C3B32685   5.139   1.673   7.720
 2463POPC   C4B32686   4.908   1.703   7.348
 2464POPC   NC332687   3.749   1.300   9.437
 2464POPC   PO432688   4.353   1.059   9.590
 2464POPC   GL132689   4.241   1.147   9.181
 2464POPC   GL232690   4.449   1.451   9.150
 2464POPC   C1A32691   4.204   0.929   8.767
 2464POPC   D2A32692   4.362   1.113   8.379
 2464POPC   C3A32693   4.432   1.023   7.964
 2464POPC   C4A32694   4.130   1.057   7.627
 2464POPC   C1B32695   4.252   1.450   8.738
 2464POPC   C2B32696   4.367   1.618   8.316
 2464POPC   C3B32697   4.283   1.509   7.870
 2464POPC   C4B32698   4.463   1.397   7.426
 2465POPC   NC332699  36.476  20.456   9.530
 2465POPC   PO432700  37.112  20.729   9.531
 2465POPC   GL132701  36.900  20.792   9.173
 2465POPC   GL232702  37.090  21.040   9.043
 2465POPC   C1A32703  37.032  20.594   8.781
 2465POPC   D2A32704  37.217  20.651   8.393
 2465POPC   C3A32705  36.905  20.515   8.124
 2465POPC   C4A32706  36.740  20.339   7.742
 2465POPC   C1B32707  36.805  21.051   8.711
 2465POPC   C2B32708  36.920  21.037   8.276
 2465POPC   C3B32709  37.115  20.953   7.894
 2465POPC   C4B32710  36.922  20.833   7.512
 2466POPC   NC332711   4.667   5.205   9.588
 2466POPC   PO432712   4.052   5.585   9.537
 2466POPC   GL132713   4.126   5.157   9.260
 2466POPC   GL232714   4.487   5.109   9.136
 2466POPC   C1A32715   4.127   4.950   8.814
 2466POPC   D2A32716   4.349   5.068   8.410
 2466POPC   C3A32717   4.112   5.117   8.042
 2466POPC   C4A32718   4.119   5.013   7.631
 2466POPC   C1B32719   4.804   5.332   8.855
 2466POPC   C2B32720   4.782   5.451   8.410
 2466POPC   C3B32721   4.537   5.428   7.996
 2466POPC   C4B32722   4.501   5.313   7.489
 2467POPC   NC332723   7.832   6.203   9.403
 2467POPC   PO432724   8.344   5.778   9.548
 2467POPC   GL132725   8.136   5.784   9.138
 2467POPC   GL232726   8.450   5.727   8.975
 2467POPC   C1A32727   8.029   5.710   8.686
 2467POPC   D2A32728   8.176   5.445   8.349
 2467POPC   C3A32729   8.246   5.610   7.921
 2467POPC   C4A32730   8.404   5.763   7.530
 2467POPC   C1B32731   8.443   6.042   8.678
 2467POPC   C2B32732   8.303   5.940   8.299
 2467POPC   C3B32733   8.344   6.124   7.911
 2467POPC   C4B32734   8.010   6.032   7.640
 2468POPC   NC332735   3.500  17.066   9.698
 2468POPC   PO432736   3.923  16.555   9.524
 2468POPC   GL132737   3.654  16.696   9.152
 2468POPC   GL232738   3.427  16.974   9.138
 2468POPC   C1A32739   3.502  16.629   8.684
 2468POPC   D2A32740   3.700  16.351   8.349
 2468POPC   C3A32741   3.744  16.483   7.925
 2468POPC   C4A32742   3.811  16.923   7.742
 2468POPC   C1B32743   3.136  17.047   8.766
 2468POPC   C2B32744   3.235  17.154   8.332
 2468POPC   C3B32745   3.405  16.844   8.048
 2468POPC   C4B32746   3.332  16.643   7.639
 2469POPC   NC332747   0.328  11.959   9.381
 2469POPC   PO432748   0.940  12.139   9.608
 2469POPC   GL132749   0.676  12.374   9.246
 2469POPC   GL232750   0.293  12.427   9.156
 2469POPC   C1A32751   0.640  12.438   8.790
 2469POPC   D2A32752   0.638  12.114   8.475
 2469POPC   C3A32753   0.489  12.226   8.060
 2469POPC   C4A32754   0.624  12.246   7.638
 2469POPC   C1B32755   0.173  12.183   8.774
 2469POPC   C2B32756   0.176  11.946   8.389
 2469POPC   C3B32757   0.102  11.710   8.026
 2469POPC   C4B32758   0.140  12.035   7.719
 2470POPC   NC332759   8.108  10.206   9.321
 2470POPC   PO432760   8.402  10.708   9.561
 2470POPC   GL132761   8.282  10.689   9.125
 2470POPC   GL232762   7.916  10.697   9.104
 2470POPC   C1A32763   8.288  10.424   8.717
 2470POPC   D2A32764   8.478  10.239   8.327
 2470POPC   C3A32765   8.268  10.357   7.954
 2470POPC   C4A32766   7.959  10.082   7.818
 2470POPC   C1B32767   8.093  10.909   8.700
 2470POPC   C2B32768   8.236  10.746   8.292
 2470POPC   C3B32769   8.017  10.810   7.893
 2470POPC   C4B32770   8.080  10.866   7.457
 2471POPC   NC332771   9.096  35.941   9.543
 2471POPC   PO432772   8.675  36.587   9.502
 2471POPC   GL132773   8.910  36.310   9.233
 2471POPC   GL232774   8.680  36.015   9.213
 2471POPC   C1A32775   9.055  36.050   8.854
 2471POPC   D2A32776   8.943  35.850   8.439
 2471POPC   C3A32777   9.188  35.915   8.012
 2471POPC   C4A32778   9.128  36.152   7.568
 2471POPC   C1B32779   8.566  36.256   8.846
 2471POPC   C2B32780   8.485  36.121   8.416
 2471POPC   C3B32781   8.768  36.187   8.064
 2471POPC   C4B32782   8.764  35.860   7.720
 2472POPC   NC332783   6.764  35.855   9.600
 2472POPC   PO432784   6.253  36.285   9.443
 2472POPC   GL132785   6.655  36.200   9.185
 2472POPC   GL232786   6.943  35.928   9.136
 2472POPC   C1A32787   6.740  36.338   8.779
 2472POPC   D2A32788   6.789  36.200   8.366
 2472POPC   C3A32789   6.595  36.357   8.013
 2472POPC   C4A32790   6.535  36.193   7.588
 2472POPC   C1B32791   6.838  35.801   8.726
 2472POPC   C2B32792   6.628  35.704   8.336
 2472POPC   C3B32793   6.709  35.818   7.923
 2472POPC   C4B32794   7.086  35.688   7.716
 2473POPC   NC332795  29.333  24.670   9.423
 2473POPC   PO432796  29.057  24.217   9.782
 2473POPC   GL132797  29.028  24.278   9.274
 2473POPC   GL232798  29.317  24.168   9.111
 2473POPC   C1A32799  28.992  24.600   8.864
 2473POPC   D2A32800  29.153  24.720   8.479
 2473POPC   C3A32801  28.906  24.602   8.128
 2473POPC   C4A32802  28.916  24.394   7.735
 2473POPC   C1B32803  29.202  24.193   8.661
 2473POPC   C2B32804  29.434  24.332   8.276
 2473POPC   C3B32805  29.404  24.217   7.806
 2473POPC   C4B32806  29.500  24.081   7.354
 2474POPC   NC332807  42.049  11.772   9.530
 2474POPC   PO432808  42.003  12.413   9.588
 2474POPC   GL132809  42.198  12.185   9.253
 2474POPC   GL232810  42.501  11.968   9.334
 2474POPC   C1A32811  42.183  12.127   8.813
 2474POPC   D2A32812  42.439  12.257   8.446
 2474POPC   C3A32813  42.200  12.295   8.028
 2474POPC   C4A32814  42.121  12.259   7.560
 2474POPC   C1B32815  42.584  11.828   8.915
 2474POPC   C2B32816  42.548  11.732   8.489
 2474POPC   C3B32817  42.543  11.913   8.093
 2474POPC   C4B32818  42.311  11.819   7.726
 2475POPC   NC332819   7.970  23.019   9.866
 2475POPC   PO432820   7.271  23.031   9.672
 2475POPC   GL132821   7.222  22.999   9.189
 2475POPC   GL232822   7.560  22.962   9.007
 2475POPC   C1A32823   7.171  22.737   8.783
 2475POPC   D2A32824   7.519  22.690   8.482
 2475POPC   C3A32825   7.439  22.693   8.046
 2475POPC   C4A32826   7.086  22.780   7.764
 2475POPC   C1B32827   7.481  23.219   8.651
 2475POPC   C2B32828   7.464  23.215   8.215
 2475POPC   C3B32829   7.467  23.135   7.774
 2475POPC   C4B32830   7.842  22.933   7.692
 2476POPC   NC332831   9.612   4.411   9.434
 2476POPC   PO432832  10.083   3.987   9.500
 2476POPC   GL132833  10.007   4.124   9.084
 2476POPC   GL232834   9.968   4.473   9.060
 2476POPC   C1A32835  10.016   4.201   8.624
 2476POPC   D2A32836   9.999   4.259   8.162
 2476POPC   C3A32837   9.567   4.250   8.063
 2476POPC   C4A32838   9.286   4.083   7.751
 2476POPC   C1B32839   9.997   4.749   8.710
 2476POPC   C2B32840  10.097   4.909   8.313
 2476POPC   C3B32841   9.897   4.763   7.943
 2476POPC   C4B32842  10.042   4.451   7.664
 2477POPC   NC332843  28.131  18.551   9.674
 2477POPC   PO432844  27.957  17.937   9.569
 2477POPC   GL132845  28.134  18.117   9.145
 2477POPC   GL232846  28.225  18.468   9.130
 2477POPC   C1A32847  28.445  18.196   8.762
 2477POPC   D2A32848  28.578  18.298   8.333
 2477POPC   C3A32849  28.286  18.141   8.064
 2477POPC   C4A32850  28.343  17.839   7.739
 2477POPC   C1B32851  28.258  18.646   8.696
 2477POPC   C2B32852  28.348  18.789   8.254
 2477POPC   C3B32853  28.470  18.575   7.850
 2477POPC   C4B32854  28.507  18.446   7.400
 2478POPC   NC332855  32.824  41.078   9.401
 2478POPC   PO432856  33.300  40.604   9.635
 2478POPC   GL132857  33.143  40.731   9.198
 2478POPC   GL232858  33.159  41.120   9.016
 2478POPC   C1A32859  33.154  40.684   8.761
 2478POPC   D2A32860  33.364  41.009   8.530
 2478POPC   C3A32861  33.178  40.997   8.136
 2478POPC   C4A32862  32.991  40.716   7.807
 2478POPC   C1B32863  32.867  41.124   8.588
 2478POPC   C2B32864  32.695  41.126   8.128
 2478POPC   C3B32865  32.567  40.978   7.648
 2478POPC   C4B32866  32.562  41.047   7.157
 2479POPC   NC332867  17.963  28.588   9.352
 2479POPC   PO432868  17.383  28.360   9.599
 2479POPC   GL132869  17.484  28.367   9.167
 2479POPC   GL232870  17.785  28.168   9.069
 2479POPC   C1A32871  17.335  28.298   8.751
 2479POPC   D2A32872  17.169  28.382   8.366
 2479POPC   C3A32873  17.374  28.204   8.009
 2479POPC   C4A32874  17.450  28.371   7.580
 2479POPC   C1B32875  17.798  28.503   8.726
 2479POPC   C2B32876  17.671  28.525   8.304
 2479POPC   C3B32877  17.838  28.396   7.914
 2479POPC   C4B32878  17.854  28.051   7.624
 2480POPC   NC332879  20.981  37.767   9.702
 2480POPC   PO432880  20.420  37.563   9.592
 2480POPC   GL132881  20.654  37.540   9.206
 2480POPC   GL232882  20.400  37.285   9.090
 2480POPC   C1A32883  20.702  37.877   8.861
 2480POPC   D2A32884  20.589  37.983   8.407
 2480POPC   C3A32885  20.741  37.846   7.962
 2480POPC   C4A32886  20.691  37.975   7.507
 2480POPC   C1B32887  20.462  37.445   8.710
 2480POPC   C2B32888  20.608  37.479   8.328
 2480POPC   C3B32889  20.388  37.476   7.952
 2480POPC   C4B32890  20.403  37.561   7.525
 2481POPC   NC332891   2.888  15.616   9.541
 2481POPC   PO432892   2.437  16.182   9.411
 2481POPC   GL132893   2.673  15.865   9.151
 2481POPC   GL232894   2.934  15.564   9.063
 2481POPC   C1A32895   2.566  15.969   8.787
 2481POPC   D2A32896   2.286  15.928   8.474
 2481POPC   C3A32897   2.468  15.931   8.083
 2481POPC   C4A32898   2.622  15.807   7.686
 2481POPC   C1B32899   3.045  15.830   8.775
 2481POPC   C2B32900   2.843  15.814   8.401
 2481POPC   C3B32901   2.999  15.888   8.033
 2481POPC   C4B32902   3.129  15.781   7.645
 2482POPC   NC332903  20.178   5.485   9.348
 2482POPC   PO432904  19.603   5.224   9.362
 2482POPC   GL132905  19.708   5.025   9.001
 2482POPC   GL232906  19.953   5.281   8.938
 2482POPC   C1A32907  19.861   4.948   8.565
 2482POPC   D2A32908  20.174   4.805   8.247
 2482POPC   C3A32909  20.016   4.863   7.849
 2482POPC   C4A32910  19.619   4.930   7.824
 2482POPC   C1B32911  19.590   5.401   8.671
 2482POPC   C2B32912  19.498   5.425   8.216
 2482POPC   C3B32913  19.783   5.411   7.858
 2482POPC   C4B32914  19.777   5.602   7.420
 2483POPC   NC332915  16.207   1.124  10.049
 2483POPC   PO432916  16.125   1.270   9.358
 2483POPC   GL132917  16.031   1.049   9.012
 2483POPC   GL232918  16.155   0.733   9.151
 2483POPC   C1A32919  16.040   1.159   8.588
 2483POPC   D2A32920  16.281   1.447   8.360
 2483POPC   C3A32921  16.157   1.358   7.924
 2483POPC   C4A32922  15.787   1.096   7.823
 2483POPC   C1B32923  16.363   0.784   8.741
 2483POPC   C2B32924  16.454   0.943   8.325
 2483POPC   C3B32925  16.222   0.833   7.954
 2483POPC   C4B32926  16.174   0.900   7.529
 2484POPC   NC332927  17.170  12.894   9.430
 2484POPC   PO432928  16.555  12.829   9.519
 2484POPC   GL132929  16.597  12.674   9.110
 2484POPC   GL232930  16.940  12.518   9.109
 2484POPC   C1A32931  16.463  12.870   8.729
 2484POPC   D2A32932  16.563  13.049   8.330
 2484POPC   C3A32933  16.479  12.835   7.965
 2484POPC   C4A32934  16.591  12.922   7.540
 2484POPC   C1B32935  16.963  12.694   8.702
 2484POPC   C2B32936  16.887  12.631   8.254
 2484POPC   C3B32937  17.023  12.816   7.873
 2484POPC   C4B32938  17.070  12.741   7.451
 2485POPC   NC332939  14.549   4.140   9.494
 2485POPC   PO432940  14.241   4.815   9.501
 2485POPC   GL132941  14.461   4.572   9.216
 2485POPC   GL232942  14.149   4.351   9.223
 2485POPC   C1A32943  14.711   4.515   8.821
 2485POPC   D2A32944  14.708   4.377   8.365
 2485POPC   C3A32945  14.584   4.659   8.007
 2485POPC   C4A32946  14.169   4.781   7.861
 2485POPC   C1B32947  14.291   4.152   8.841
 2485POPC   C2B32948  14.261   4.067   8.386
 2485POPC   C3B32949  14.452   4.142   7.982
 2485POPC   C4B32950  14.392   4.365   7.563
 2486POPC   NC332951  25.413  33.475   9.733
 2486POPC   PO432952  25.021  32.842   9.554
 2486POPC   GL132953  25.232  32.879   9.199
 2486POPC   GL232954  25.053  33.171   9.069
 2486POPC   C1A32955  25.394  32.908   8.797
 2486POPC   D2A32956  25.298  33.053   8.415
 2486POPC   C3A32957  25.254  32.800   8.041
 2486POPC   C4A32958  24.893  32.656   7.838
 2486POPC   C1B32959  24.980  33.502   8.743
 2486POPC   C2B32960  25.132  33.544   8.330
 2486POPC   C3B32961  25.414  33.330   8.023
 2486POPC   C4B32962  25.615  33.061   7.810
 2487POPC   NC332963  19.642   7.438   9.649
 2487POPC   PO432964  19.768   6.794   9.506
 2487POPC   GL132965  19.740   6.535   9.099
 2487POPC   GL232966  19.978   6.245   9.040
 2487POPC   C1A32967  19.636   6.596   8.677
 2487POPC   D2A32968  19.523   6.346   8.335
 2487POPC   C3A32969  19.614   6.476   7.894
 2487POPC   C4A32970  19.461   6.744   7.559
 2487POPC   C1B32971  20.001   6.252   8.597
 2487POPC   C2B32972  20.008   6.262   8.161
 2487POPC   C3B32973  20.083   6.307   7.734
 2487POPC   C4B32974  20.311   6.486   7.359
 2488POPC   NC332975  30.482  28.909   9.856
 2488POPC   PO432976  30.670  28.544   9.295
 2488POPC   GL132977  30.589  28.538   8.945
 2488POPC   GL232978  30.287  28.742   8.898
 2488POPC   C1A32979  30.832  28.366   8.624
 2488POPC   D2A32980  31.095  28.354   8.271
 2488POPC   C3A32981  30.805  28.098   8.039
 2488POPC   C4A32982  30.595  28.210   7.683
 2488POPC   C1B32983  30.427  28.706   8.506
 2488POPC   C2B32984  30.488  28.499   8.159
 2488POPC   C3B32985  30.268  28.597   7.786
 2488POPC   C4B32986  30.205  28.463   7.363
 2489POPC   NC332987   8.804  38.754   9.568
 2489POPC   PO432988   9.120  39.361   9.477
 2489POPC   GL132989   9.043  39.010   9.198
 2489POPC   GL232990   8.701  38.978   9.083
 2489POPC   C1A32991   9.103  39.031   8.776
 2489POPC   D2A32992   9.209  39.337   8.517
 2489POPC   C3A32993   8.991  39.145   8.187
 2489POPC   C4A32994   9.040  38.997   7.781
 2489POPC   C1B32995   8.662  39.293   8.717
 2489POPC   C2B32996   8.554  39.369   8.278
 2489POPC   C3B32997   8.705  39.402   7.834
 2489POPC   C4B32998   9.147  39.492   7.776
 2490POPC   NC332999  39.066  34.269   9.636
 2490POPC   PO433000  39.472  34.886   9.569
 2490POPC   GL133001  39.360  34.709   9.166
 2490POPC   GL233002  39.271  34.358   9.143
 2490POPC   C1A33003  39.233  34.756   8.724
 2490POPC   D2A33004  38.917  34.864   8.396
 2490POPC   C3A33005  38.971  34.677   7.999
 2490POPC   C4A33006  39.238  34.396   7.781
 2490POPC   C1B33007  39.462  34.312   8.709
 2490POPC   C2B33008  39.333  34.314   8.311
 2490POPC   C3B33009  39.577  34.112   8.006
 2490POPC   C4B33010  39.750  34.272   7.653
 2491POPC   NC333011  15.225  14.790   9.363
 2491POPC   PO433012  15.357  15.415   9.433
 2491POPC   GL133013  15.184  15.177   9.031
 2491POPC   GL233014  15.300  14.802   8.879
 2491POPC   C1A33015  15.175  15.204   8.585
 2491POPC   D2A33016  15.576  15.254   8.407
 2491POPC   C3A33017  15.556  15.372   7.979
 2491POPC   C4A33018  15.146  15.370   7.786
 2491POPC   C1B33019  14.875  14.753   8.727
 2491POPC   C2B33020  14.867  14.824   8.325
 2491POPC   C3B33021  15.243  14.937   8.120
 2491POPC   C4B33022  15.447  14.928   7.732
 2492POPC   NC333023  41.807  44.115   9.833
 2492POPC   PO433024  41.380  43.803   9.330
 2492POPC   GL133025  41.298  43.833   8.974
 2492POPC   GL233026  41.016  43.587   9.070
 2492POPC   C1A33027  41.526  44.012   8.655
 2492POPC   D2A33028  41.790  43.833   8.349
 2492POPC   C3A33029  41.783  43.978   7.928
 2492POPC   C4A33030  41.506  43.903   7.542
 2492POPC   C1B33031  41.214  43.437   8.709
 2492POPC   C2B33032  41.221  43.663   8.376
 2492POPC   C3B33033  41.300  43.789   7.992
 2492POPC   C4B33034  40.987  43.830   7.706
 2493POPC   NC333035   3.682  19.700   9.561
 2493POPC   PO433036   3.195  20.209   9.493
 2493POPC   GL133037   3.350  19.919   9.188
 2493POPC   GL233038   3.324  19.555   9.155
 2493POPC   C1A33039   3.269  19.913   8.749
 2493POPC   D2A33040   3.565  19.942   8.415
 2493POPC   C3A33041   3.371  19.927   8.014
 2493POPC   C4A33042   3.337  19.527   7.834
 2493POPC   C1B33043   3.704  19.642   8.878
 2493POPC   C2B33044   3.954  19.572   8.487
 2493POPC   C3B33045   3.800  19.607   8.067
 2493POPC   C4B33046   3.787  19.475   7.630
 2494POPC   NC333047  33.413  15.617   9.518
 2494POPC   PO433048  33.580  16.364   9.494
 2494POPC   GL133049  33.826  16.133   9.155
 2494POPC   GL233050  33.780  15.773   9.159
 2494POPC   C1A33051  33.948  15.978   8.731
 2494POPC   D2A33052  33.917  15.700   8.402
 2494POPC   C3A33053  33.966  15.827   7.978
 2494POPC   C4A33054  33.809  16.122   7.672
 2494POPC   C1B33055  33.511  15.648   8.843
 2494POPC   C2B33056  33.423  15.635   8.428
 2494POPC   C3B33057  33.445  15.813   8.031
 2494POPC   C4B33058  33.569  15.646   7.676
 2495POPC   NC333059  35.437  11.039   9.648
 2495POPC   PO433060  35.133  11.644   9.680
 2495POPC   GL133061  35.136  11.229   9.308
 2495POPC   GL233062  35.458  11.018   9.149
 2495POPC   C1A33063  35.022  10.990   8.912
 2495POPC   D2A33064  35.018  10.982   8.440
 2495POPC   C3A33065  35.042  11.312   8.122
 2495POPC   C4A33066  35.065  11.382   7.683
 2495POPC   C1B33067  35.498  10.992   8.686
 2495POPC   C2B33068  35.509  11.153   8.265
 2495POPC   C3B33069  35.577  11.212   7.824
 2495POPC   C4B33070  35.516  11.059   7.384
 2496POPC   NC333071   9.180   9.423   9.638
 2496POPC   PO433072   8.994  10.073   9.656
 2496POPC   GL133073   9.150   9.883   9.262
 2496POPC   GL233074   9.205   9.535   9.147
 2496POPC   C1A33075   9.219   9.976   8.841
 2496POPC   D2A33076   9.352  10.040   8.436
 2496POPC   C3A33077   9.156   9.835   8.111
 2496POPC   C4A33078   9.089   9.899   7.670
 2496POPC   C1B33079   9.043   9.477   8.739
 2496POPC   C2B33080   9.152   9.374   8.323
 2496POPC   C3B33081   9.049   9.406   7.875
 2496POPC   C4B33082   9.273   9.209   7.606
 2497POPC   NC333083  31.137   8.842   9.362
 2497POPC   PO433084  31.719   9.186   9.378
 2497POPC   GL133085  31.475   9.082   9.055
 2497POPC   GL233086  31.182   9.266   9.040
 2497POPC   C1A33087  31.565   8.809   8.741
 2497POPC   D2A33088  31.420   8.653   8.346
 2497POPC   C3A33089  31.604   8.739   7.945
 2497POPC   C4A33090  31.531   8.851   7.510
 2497POPC   C1B33091  31.078   9.014   8.700
 2497POPC   C2B33092  31.047   8.992   8.270
 2497POPC   C3B33093  31.345   9.174   7.995
 2497POPC   C4B33094  31.242   9.271   7.613
 2498POPC   NC333095  10.845  31.178   9.532
 2498POPC   PO433096  10.426  30.643   9.529
 2498POPC   GL133097  10.318  30.681   9.127
 2498POPC   GL233098  10.141  30.401   9.034
 2498POPC   C1A33099  10.569  30.825   8.794
 2498POPC   D2A33100  10.529  31.038   8.404
 2498POPC   C3A33101  10.770  30.841   8.106
 2498POPC   C4A33102  10.767  30.912   7.689
 2498POPC   C1B33103  10.330  30.354   8.695
 2498POPC   C2B33104  10.386  30.551   8.320
 2498POPC   C3B33105  10.212  30.456   7.941
 2498POPC   C4B33106  10.307  30.140   7.679
 2499POPC   NC333107  11.615  16.163   9.658
 2499POPC   PO433108  12.280  15.906   9.662
 2499POPC   GL133109  12.120  16.058   9.262
 2499POPC   GL233110  11.811  15.863   9.239
 2499POPC   C1A33111  12.254  15.945   8.809
 2499POPC   D2A33112  12.111  15.727   8.404
 2499POPC   C3A33113  12.386  15.652   8.047
 2499POPC   C4A33114  12.216  15.712   7.628
 2499POPC   C1B33115  11.770  16.067   8.857
 2499POPC   C2B33116  11.852  16.170   8.412
 2499POPC   C3B33117  11.934  16.012   7.977
 2499POPC   C4B33118  11.808  16.165   7.539
 2500POPC   NC333119  10.201  38.717   9.593
 2500POPC   PO433120  10.118  39.383   9.821
 2500POPC   GL133121  10.418  39.186   9.431
 2500POPC   GL233122  10.284  38.947   9.158
 2500POPC   C1A33123  10.739  39.138   9.026
 2500POPC   D2A33124  10.895  38.898   8.619
 2500POPC   C3A33125  10.875  39.110   8.181
 2500POPC   C4A33126  10.649  39.177   7.762
 2500POPC   C1B33127  10.116  39.103   8.767
 2500POPC   C2B33128  10.251  39.441   8.474
 2500POPC   C3B33129  10.414  39.615   8.103
 2500POPC   C4B33130  10.298  39.564   7.689
 2501POPC   NC333131  38.800  21.149   9.718
 2501POPC   PO433132  38.304  21.537   9.512
 2501POPC   GL133133  38.471  21.528   9.141
 2501POPC   GL233134  38.496  21.162   9.121
 2501POPC   C1A33135  38.352  21.490   8.709
 2501POPC   D2A33136  38.526  21.329   8.339
 2501POPC   C3A33137  38.581  21.600   8.015
 2501POPC   C4A33138  38.720  21.542   7.604
 2501POPC   C1B33139  38.563  20.963   8.695
 2501POPC   C2B33140  38.641  20.826   8.250
 2501POPC   C3B33141  38.686  21.114   7.886
 2501POPC   C4B33142  38.880  21.068   7.462
 2502POPC   NC333143  14.473  17.648   9.425
 2502POPC   PO433144  14.734  17.124   9.091
 2502POPC   GL133145  14.302  17.288   9.067
 2502POPC   GL233146  14.222  17.665   8.978
 2502POPC   C1A33147  14.032  17.271   8.707
 2502POPC   D2A33148  13.966  17.410   8.332
 2502POPC   C3A33149  14.137  17.282   7.915
 2502POPC   C4A33150  14.569  17.329   7.801
 2502POPC   C1B33151  14.474  17.552   8.646
 2502POPC   C2B33152  14.455  17.558   8.236
 2502POPC   C3B33153  14.418  17.804   7.891
 2502POPC   C4B33154  14.834  17.950   7.811
 2503POPC   NC333155  43.392  31.675   9.405
 2503POPC   PO433156  42.891  31.240   9.614
 2503POPC   GL133157  42.993  31.336   9.191
 2503POPC   GL233158  42.834  31.651   9.133
 2503POPC   C1A33159  43.080  31.120   8.787
 2503POPC   D2A33160  42.834  31.154   8.389
 2503POPC   C3A33161  42.975  31.330   7.969
 2503POPC   C4A33162  43.095  31.120   7.573
 2503POPC   C1B33163  42.877  31.587   8.697
 2503POPC   C2B33164  43.260  31.480   8.445
 2503POPC   C3B33165  43.449  31.537   8.045
 2503POPC   C4B33166  43.421  31.514   7.604
 2504POPC   NC333167  36.195   6.705   9.502
 2504POPC   PO433168  36.156   6.053   9.482
 2504POPC   GL133169  36.017   6.404   9.138
 2504POPC   GL233170  36.013   6.780   9.021
 2504POPC   C1A33171  36.118   6.316   8.699
 2504POPC   D2A33172  36.481   6.146   8.463
 2504POPC   C3A33173  36.350   6.150   8.048
 2504POPC   C4A33174  36.028   6.400   7.883
 2504POPC   C1B33175  36.310   6.776   8.672
 2504POPC   C2B33176  36.367   6.625   8.262
 2504POPC   C3B33177  36.242   6.882   7.920
 2504POPC   C4B33178  35.905   7.022   7.691
 2505POPC   NC333179  23.363  11.031   9.391
 2505POPC   PO433180  22.709  11.000   9.489
 2505POPC   GL133181  22.941  11.293   9.210
 2505POPC   GL233182  22.669  11.239   9.033
 2505POPC   C1A33183  22.972  11.568   8.804
 2505POPC   D2A33184  23.124  11.421   8.404
 2505POPC   C3A33185  22.956  11.584   8.018
 2505POPC   C4A33186  23.006  11.520   7.529
 2505POPC   C1B33187  22.765  11.123   8.635
 2505POPC   C2B33188  22.812  11.033   8.210
 2505POPC   C3B33189  22.901  11.123   7.811
 2505POPC   C4B33190  22.836  11.026   7.387
 2506POPC   NC333191  36.351  25.129   9.747
 2506POPC   PO433192  36.676  25.392   9.265
 2506POPC   GL133193  36.314  25.246   9.041
 2506POPC   GL233194  35.979  25.402   9.179
 2506POPC   C1A33195  36.333  24.911   8.703
 2506POPC   D2A33196  36.052  24.865   8.385
 2506POPC   C3A33197  36.229  25.086   8.072
 2506POPC   C4A33198  36.146  24.959   7.694
 2506POPC   C1B33199  35.886  25.179   8.777
 2506POPC   C2B33200  35.868  25.365   8.369
 2506POPC   C3B33201  35.742  25.281   7.963
 2506POPC   C4B33202  35.598  25.554   7.650
 2507POPC   NC333203   9.013  34.111   9.572
 2507POPC   PO433204   9.038  34.772   9.442
 2507POPC   GL133205   8.895  34.638   9.051
 2507POPC   GL233206   8.716  34.278   9.125
 2507POPC   C1A33207   8.973  34.782   8.618
 2507POPC   D2A33208   8.892  34.927   8.193
 2507POPC   C3A33209   8.941  34.719   7.805
 2507POPC   C4A33210   9.273  34.629   7.503
 2507POPC   C1B33211   9.075  34.248   8.809
 2507POPC   C2B33212   9.242  34.397   8.413
 2507POPC   C3B33213   9.185  34.301   7.980
 2507POPC   C4B33214   8.830  34.227   7.717
 2508POPC   NC333215   1.492  41.798   9.527
 2508POPC   PO433216   0.886  41.491   9.536
 2508POPC   GL133217   1.190  41.554   9.201
 2508POPC   GL233218   1.402  41.299   9.074
 2508POPC   C1A33219   1.321  41.724   8.807
 2508POPC   D2A33220   1.362  41.448   8.450
 2508POPC   C3A33221   1.381  41.691   8.113
 2508POPC   C4A33222   1.217  41.689   7.733
 2508POPC   C1B33223   1.499  40.976   8.788
 2508POPC   C2B33224   1.426  40.873   8.360
 2508POPC   C3B33225   1.322  41.168   8.006
 2508POPC   C4B33226   1.520  41.312   7.606
 2509POPC   NC333227  16.817  32.184   9.650
 2509POPC   PO433228  16.390  32.385   9.218
 2509POPC   GL133229  16.706  32.086   9.145
 2509POPC   GL233230  16.979  32.319   9.183
 2509POPC   C1A33231  16.753  31.955   8.727
 2509POPC   D2A33232  16.430  32.064   8.399
 2509POPC   C3A33233  16.646  32.024   8.008
 2509POPC   C4A33234  16.937  32.088   7.740
 2509POPC   C1B33235  16.877  32.463   8.773
 2509POPC   C2B33236  16.870  32.359   8.357
 2509POPC   C3B33237  17.023  32.499   7.993
 2509POPC   C4B33238  16.613  32.555   7.875
 2510POPC   NC333239   7.577  40.439   9.482
 2510POPC   PO433240   7.294  40.937   9.794
 2510POPC   GL133241   7.260  40.809   9.261
 2510POPC   GL233242   7.566  40.651   9.045
 2510POPC   C1A33243   7.273  40.952   8.783
 2510POPC   D2A33244   7.260  40.966   8.329
 2510POPC   C3A33245   7.174  40.566   8.111
 2510POPC   C4A33246   7.161  40.503   7.671
 2510POPC   C1B33247   7.787  40.443   8.738
 2510POPC   C2B33248   7.667  40.581   8.342
 2510POPC   C3B33249   7.653  40.403   7.948
 2510POPC   C4B33250   7.581  40.784   7.735
 2511POPC   NC333251  15.088   1.717   9.547
 2511POPC   PO433252  15.367   2.255   9.543
 2511POPC   GL133253  15.138   2.120   9.188
 2511POPC   GL233254  14.790   2.197   9.182
 2511POPC   C1A33255  15.016   1.794   8.867
 2511POPC   D2A33256  15.157   1.506   8.515
 2511POPC   C3A33257  15.217   1.749   8.131
 2511POPC   C4A33258  15.220   1.869   7.712
 2511POPC   C1B33259  14.941   2.309   8.762
 2511POPC   C2B33260  15.044   2.224   8.338
 2511POPC   C3B33261  14.963   2.244   7.910
 2511POPC   C4B33262  14.928   2.201   7.426
 2512POPC   NC333263   5.947  17.030   9.466
 2512POPC   PO433264   5.574  16.524   9.314
 2512POPC   GL133265   5.846  16.767   9.029
 2512POPC   GL233266   6.193  16.718   9.117
 2512POPC   C1A33267   5.944  16.934   8.612
 2512POPC   D2A33268   5.940  17.133   8.178
 2512POPC   C3A33269   5.566  17.106   7.955
 2512POPC   C4A33270   5.500  16.762   7.725
 2512POPC   C1B33271   6.117  16.439   8.741
 2512POPC   C2B33272   5.903  16.412   8.327
 2512POPC   C3B33273   5.962  16.622   7.909
 2512POPC   C4B33274   6.374  16.759   7.729
 2513POPC   NC333275  30.631  28.084   9.298
 2513POPC   PO433276  30.664  27.499   9.585
 2513POPC   GL133277  30.817  27.572   9.174
 2513POPC   GL233278  30.643  27.287   9.090
 2513POPC   C1A33279  30.928  27.639   8.714
 2513POPC   D2A33280  30.819  27.443   8.284
 2513POPC   C3A33281  31.015  27.638   7.911
 2513POPC   C4A33282  30.935  27.854   7.507
 2513POPC   C1B33283  30.469  27.422   8.698
 2513POPC   C2B33284  30.460  27.809   8.387
 2513POPC   C3B33285  30.484  27.676   7.951
 2513POPC   C4B33286  30.381  27.235   7.971
 2514POPC   NC333287  34.030  25.851   9.314
 2514POPC   PO433288  33.769  26.261   9.857
 2514POPC   GL133289  33.696  26.225   9.320
 2514POPC   GL233290  33.598  25.901   9.073
 2514POPC   C1A33291  33.600  26.338   8.840
 2514POPC   D2A33292  33.481  26.045   8.481
 2514POPC   C3A33293  33.608  26.161   8.044
 2514POPC   C4A33294  33.500  26.309   7.603
 2514POPC   C1B33295  33.940  25.975   8.685
 2514POPC   C2B33296  34.067  25.987   8.219
 2514POPC   C3B33297  34.098  25.876   7.754
 2514POPC   C4B33298  33.920  25.894   7.303
 2515POPC   NC333299  11.805  35.811   9.598
 2515POPC   PO433300  12.244  36.287   9.499
 2515POPC   GL133301  12.084  36.185   9.111
 2515POPC   GL233302  11.922  36.515   9.138
 2515POPC   C1A33303  12.233  36.085   8.677
 2515POPC   D2A33304  12.537  36.076   8.304
 2515POPC   C3A33305  12.339  35.997   7.878
 2515POPC   C4A33306  12.249  36.198   7.437
 2515POPC   C1B33307  11.840  36.424   8.717
 2515POPC   C2B33308  12.089  36.479   8.333
 2515POPC   C3B33309  12.058  36.431   7.880
 2515POPC   C4B33310  11.784  36.262   7.597
 2516POPC   NC333311  30.315   4.542   9.753
 2516POPC   PO433312  29.666   4.288   9.531
 2516POPC   GL133313  29.860   4.452   9.182
 2516POPC   GL233314  29.922   4.153   9.000
 2516POPC   C1A33315  29.821   4.627   8.775
 2516POPC   D2A33316  29.697   4.426   8.397
 2516POPC   C3A33317  29.727   4.590   7.962
 2516POPC   C4A33318  29.782   4.356   7.558
 2516POPC   C1B33319  30.212   4.302   8.677
 2516POPC   C2B33320  30.182   4.318   8.227
 2516POPC   C3B33321  29.844   4.089   8.017
 2516POPC   C4B33322  30.015   3.919   7.681
 2517POPC   NC333323  41.890   9.511   9.701
 2517POPC   PO433324  41.311   9.652   9.481
 2517POPC   GL133325  41.527   9.908   9.178
 2517POPC   GL233326  41.622   9.560   9.045
 2517POPC   C1A33327  41.655   9.951   8.729
 2517POPC   D2A33328  41.561   9.615   8.408
 2517POPC   C3A33329  41.613   9.771   8.000
 2517POPC   C4A33330  41.628   9.799   7.568
 2517POPC   C1B33331  41.218   9.717   8.818
 2517POPC   C2B33332  41.037   9.680   8.397
 2517POPC   C3B33333  41.167   9.479   8.007
 2517POPC   C4B33334  41.043   9.380   7.584
 2518POPC   NC333335  38.918  14.492   9.473
 2518POPC   PO433336  39.619  14.417   9.496
 2518POPC   GL133337  39.351  14.513   9.165
 2518POPC   GL233338  39.192  14.219   9.083
 2518POPC   C1A33339  39.453  14.578   8.746
 2518POPC   D2A33340  39.419  14.774   8.360
 2518POPC   C3A33341  39.268  14.550   8.020
 2518POPC   C4A33342  39.499  14.415   7.677
 2518POPC   C1B33343  39.005  14.341   8.671
 2518POPC   C2B33344  38.764  14.268   8.257
 2518POPC   C3B33345  38.801  14.425   7.838
 2518POPC   C4B33346  39.056  14.658   7.553
 2519POPC   NC333347  22.655  42.920   9.513
 2519POPC   PO433348  23.333  42.843   9.476
 2519POPC   GL133349  23.072  42.965   9.170
 2519POPC   GL233350  22.928  43.239   9.213
 2519POPC   C1A33351  23.007  42.842   8.763
 2519POPC   D2A33352  22.832  42.725   8.402
 2519POPC   C3A33353  23.076  42.889   8.100
 2519POPC   C4A33354  22.977  43.067   7.743
 2519POPC   C1B33355  22.930  43.346   8.805
 2519POPC   C2B33356  23.141  43.271   8.451
 2519POPC   C3B33357  22.869  43.373   8.140
 2519POPC   C4B33358  22.497  43.400   7.891
 2520POPC   NC333359  12.487  29.742   9.586
 2520POPC   PO433360  13.157  29.949   9.530
 2520POPC   GL133361  12.903  29.815   9.199
 2520POPC   GL233362  12.648  29.562   9.143
 2520POPC   C1A33363  12.996  29.723   8.778
 2520POPC   D2A33364  13.196  29.880   8.398
 2520POPC   C3A33365  13.012  29.745   7.997
 2520POPC   C4A33366  12.889  30.097   7.745
 2520POPC   C1B33367  12.470  29.858   8.853
 2520POPC   C2B33368  12.642  29.854   8.431
 2520POPC   C3B33369  12.496  29.825   8.035
 2520POPC   C4B33370  12.586  29.712   7.641
 2521POPC   NC333371  20.909  40.630   9.467
 2521POPC   PO433372  21.479  40.979   9.499
 2521POPC   GL133373  21.438  40.759   9.133
 2521POPC   GL233374  21.288  40.442   9.169
 2521POPC   C1A33375  21.538  40.701   8.706
 2521POPC   D2A33376  21.287  40.703   8.329
 2521POPC   C3A33377  21.367  40.935   7.976
 2521POPC   C4A33378  21.684  40.747   7.758
 2521POPC   C1B33379  21.078  40.474   8.752
 2521POPC   C2B33380  20.978  40.298   8.332
 2521POPC   C3B33381  21.033  40.250   7.891
 2521POPC   C4B33382  21.271  40.516   7.581
 2522POPC   NC333383  32.970   8.739   9.413
 2522POPC   PO433384  32.780   8.122   9.550
 2522POPC   GL133385  32.885   7.981   9.139
 2522POPC   GL233386  33.127   8.264   9.114
 2522POPC   C1A33387  33.047   7.973   8.711
 2522POPC   D2A33388  32.848   8.011   8.343
 2522POPC   C3A33389  33.005   7.895   7.965
 2522POPC   C4A33390  32.751   8.108   7.684
 2522POPC   C1B33391  33.424   8.315   8.770
 2522POPC   C2B33392  33.318   8.359   8.384
 2522POPC   C3B33393  33.453   8.326   7.990
 2522POPC   C4B33394  33.248   8.271   7.629
 2523POPC   NC333395   8.835  37.876   9.323
 2523POPC   PO433396   8.249  37.491   9.461
 2523POPC   GL133397   8.269  37.637   9.064
 2523POPC   GL233398   8.359  38.008   9.110
 2523POPC   C1A33399   8.359  37.372   8.700
 2523POPC   D2A33400   8.459  37.130   8.347
 2523POPC   C3A33401   8.263  37.333   8.014
 2523POPC   C4A33402   8.222  37.616   7.670
 2523POPC   C1B33403   8.116  37.968   8.708
 2523POPC   C2B33404   7.932  37.919   8.287
 2523POPC   C3B33405   8.146  38.072   7.905
 2523POPC   C4B33406   8.211  38.074   7.446
 2524POPC   NC333407  32.683  28.210   9.507
 2524POPC   PO433408  31.999  28.398   9.489
 2524POPC   GL133409  32.263  28.260   9.153
 2524POPC   GL233410  32.577  28.484   9.090
 2524POPC   C1A33411  32.184  28.352   8.737
 2524POPC   D2A33412  32.286  28.355   8.313
 2524POPC   C3A33413  31.990  28.507   8.005
 2524POPC   C4A33414  32.082  28.172   7.753
 2524POPC   C1B33415  32.710  28.669   8.676
 2524POPC   C2B33416  32.659  28.711   8.218
 2524POPC   C3B33417  32.493  28.531   7.838
 2524POPC   C4B33418  32.522  28.759   7.440
 2525POPC   NC333419  43.692  30.853   9.391
 2525POPC   PO433420  43.868  31.573   9.405
 2525POPC   GL133421  43.914  31.252   9.147
 2525POPC   GL233422  44.203  31.362   9.022
 2525POPC   C1A33423  43.829  31.253   8.718
 2525POPC   D2A33424  44.131  31.237   8.410
 2525POPC   C3A33425  43.859  31.222   8.075
 2525POPC   C4A33426  43.628  31.076   7.720
 2525POPC   C1B33427  44.214  31.686   8.711
 2525POPC   C2B33428  44.394  31.743   8.303
 2525POPC   C3B33429  44.321  31.457   7.977
 2525POPC   C4B33430  44.101  31.235   7.638
 2526POPC   NC333431  39.763  35.413   9.557
 2526POPC   PO433432  40.394  35.246   9.424
 2526POPC   GL133433  40.064  35.344   9.136
 2526POPC   GL233434  39.995  35.715   9.180
 2526POPC   C1A33435  40.037  35.131   8.729
 2526POPC   D2A33436  40.114  34.864   8.378
 2526POPC   C3A33437  39.979  35.069   7.984
 2526POPC   C4A33438  40.238  35.235   7.633
 2526POPC   C1B33439  39.859  35.601   8.748
 2526POPC   C2B33440  39.721  35.442   8.345
 2526POPC   C3B33441  39.834  35.559   7.916
 2526POPC   C4B33442  39.671  35.305   7.579
 2527POPC   NC333443  11.719  17.291   9.440
 2527POPC   PO433444  12.237  17.664   9.604
 2527POPC   GL133445  12.210  17.410   9.233
 2527POPC   GL233446  12.103  17.729   9.101
 2527POPC   C1A33447  12.082  17.306   8.805
 2527POPC   D2A33448  12.008  17.595   8.465
 2527POPC   C3A33449  11.993  17.413   8.049
 2527POPC   C4A33450  12.079  17.398   7.586
 2527POPC   C1B33451  11.864  17.975   8.818
 2527POPC   C2B33452  11.719  18.033   8.407
 2527POPC   C3B33453  11.993  17.941   8.071
 2527POPC   C4B33454  11.859  17.822   7.703
 2528POPC   NC333455  33.136   0.628   9.437
 2528POPC   PO433456  32.624   0.190   9.355
 2528POPC   GL133457  32.919   0.322   9.086
 2528POPC   GL233458  32.868   0.684   9.013
 2528POPC   C1A33459  33.043   0.297   8.697
 2528POPC   D2A33460  32.857   0.552   8.406
 2528POPC   C3A33461  33.105   0.365   8.134
 2528POPC   C4A33462  33.226   0.094   7.828
 2528POPC   C1B33463  33.200   0.803   8.708
 2528POPC   C2B33464  33.252   0.921   8.286
 2528POPC   C3B33465  32.986   0.829   7.976
 2528POPC   C4B33466  33.235   0.611   7.694
 2529POPC   NC333467  36.842  30.199   9.590
 2529POPC   PO433468  37.107  29.531   9.501
 2529POPC   GL133469  36.893  29.862   9.192
 2529POPC   GL233470  37.072  30.209   9.120
 2529POPC   C1A33471  36.706  29.980   8.792
 2529POPC   D2A33472  36.626  29.842   8.358
 2529POPC   C3A33473  36.797  30.094   8.044
 2529POPC   C4A33474  36.885  30.160   7.599
 2529POPC   C1B33475  37.378  30.281   8.759
 2529POPC   C2B33476  37.226  30.187   8.352
 2529POPC   C3B33477  37.274  30.158   7.927
 2529POPC   C4B33478  37.395  30.082   7.530
 2530POPC   NC333479  35.021  41.057   9.684
 2530POPC   PO433480  35.332  40.484   9.551
 2530POPC   GL133481  35.319  40.710   9.190
 2530POPC   GL233482  35.161  41.015   9.196
 2530POPC   C1A33483  35.227  40.588   8.786
 2530POPC   D2A33484  35.440  40.679   8.411
 2530POPC   C3A33485  35.306  40.578   7.987
 2530POPC   C4A33486  35.480  40.590   7.527
 2530POPC   C1B33487  35.250  41.079   8.768
 2530POPC   C2B33488  35.020  40.961   8.401
 2530POPC   C3B33489  35.019  41.148   8.028
 2530POPC   C4B33490  35.289  41.028   7.704
 2531POPC   NC333491  30.059  11.394   9.631
 2531POPC   PO433492  29.641  10.957   9.786
 2531POPC   GL133493  29.785  11.138   9.292
 2531POPC   GL233494  29.942  11.491   9.151
 2531POPC   C1A33495  30.076  11.058   8.874
 2531POPC   D2A33496  30.132  11.248   8.416
 2531POPC   C3A33497  30.018  10.994   8.015
 2531POPC   C4A33498  29.796  10.968   7.571
 2531POPC   C1B33499  30.139  11.699   8.783
 2531POPC   C2B33500  30.242  11.841   8.371
 2531POPC   C3B33501  30.107  11.628   8.046
 2531POPC   C4B33502  29.885  11.414   7.779
 2532POPC   NC333503  33.663  30.832   9.800
 2532POPC   PO433504  34.281  30.710   9.485
 2532POPC   GL133505  34.116  30.598   9.067
 2532POPC   GL233506  33.774  30.491   9.053
 2532POPC   C1A33507  34.107  30.612   8.595
 2532POPC   D2A33508  34.174  30.310   8.262
 2532POPC   C3A33509  33.943  30.524   7.935
 2532POPC   C4A33510  34.009  30.967   7.784
 2532POPC   C1B33511  33.615  30.686   8.637
 2532POPC   C2B33512  33.779  30.910   8.264
 2532POPC   C3B33513  33.519  30.910   7.898
 2532POPC   C4B33514  33.380  30.530   7.745
 2533POPC   NC333515  22.273  14.904   9.523
 2533POPC   PO433516  21.792  15.400   9.486
 2533POPC   GL133517  22.168  15.300   9.192
 2533POPC   GL233518  22.313  14.978   9.028
 2533POPC   C1A33519  22.150  15.365   8.746
 2533POPC   D2A33520  22.061  15.157   8.391
 2533POPC   C3A33521  21.951  15.319   8.026
 2533POPC   C4A33522  22.296  15.339   7.780
 2533POPC   C1B33523  21.884  14.919   8.810
 2533POPC   C2B33524  21.832  14.702   8.374
 2533POPC   C3B33525  21.742  14.858   7.971
 2533POPC   C4B33526  21.926  15.030   7.596
 2534POPC   NC333527  43.506  37.070   9.435
 2534POPC   PO433528  43.035  36.634   9.492
 2534POPC   GL133529  43.131  36.834   9.106
 2534POPC   GL233530  43.081  37.159   9.148
 2534POPC   C1A33531  42.942  36.964   8.708
 2534POPC   D2A33532  42.851  36.814   8.329
 2534POPC   C3A33533  43.007  36.968   7.957
 2534POPC   C4A33534  42.861  37.138   7.581
 2534POPC   C1B33535  43.380  37.199   8.793
 2534POPC   C2B33536  43.321  37.106   8.369
 2534POPC   C3B33537  43.497  37.040   7.982
 2534POPC   C4B33538  43.387  37.143   7.591
 2535POPC   NC333539  13.578   0.316   9.731
 2535POPC   PO433540  13.314   0.873   9.432
 2535POPC   GL133541  13.527   0.702   9.059
 2535POPC   GL233542  13.672   0.386   9.195
 2535POPC   C1A33543  13.497   0.472   8.682
 2535POPC   D2A33544  13.398   0.620   8.289
 2535POPC   C3A33545  13.643   0.629   7.898
 2535POPC   C4A33546  13.607   0.290   7.574
 2535POPC   C1B33547  13.875   0.172   8.826
 2535POPC   C2B33548  13.910   0.360   8.412
 2535POPC   C3B33549  13.833   0.194   8.037
 2535POPC   C4B33550  14.115   0.137   7.731
 2536POPC   NC333551  37.352  15.472   9.282
 2536POPC   PO433552  36.847  15.082   9.463
 2536POPC   GL133553  36.881  15.099   9.042
 2536POPC   GL233554  37.235  15.016   9.040
 2536POPC   C1A33555  36.678  15.145   8.609
 2536POPC   D2A33556  36.823  15.180   8.180
 2536POPC   C3A33557  36.661  14.910   7.861
 2536POPC   C4A33558  36.647  15.027   7.411
 2536POPC   C1B33559  37.189  15.331   8.694
 2536POPC   C2B33560  37.386  15.506   8.305
 2536POPC   C3B33561  37.298  15.480   7.880
 2536POPC   C4B33562  37.014  15.241   7.686
 2537POPC   NC333563   9.327  31.567   9.316
 2537POPC   PO433564   9.992  31.441   9.567
 2537POPC   GL133565   9.833  31.620   9.217
 2537POPC   GL233566   9.708  31.278   9.154
 2537POPC   C1A33567   9.765  31.632   8.762
 2537POPC   D2A33568   9.784  31.729   8.302
 2537POPC   C3A33569   9.680  31.552   7.904
 2537POPC   C4A33570   9.637  31.562   7.419
 2537POPC   C1B33571   9.648  31.135   8.722
 2537POPC   C2B33572   9.602  31.214   8.303
 2537POPC   C3B33573   9.637  31.029   7.925
 2537POPC   C4B33574   9.910  31.193   7.616
 2538POPC   NC333575  21.665  25.206   9.484
 2538POPC   PO433576  20.981  24.962   9.494
 2538POPC   GL133577  21.256  25.128   9.121
 2538POPC   GL233578  21.626  25.310   9.008
 2538POPC   C1A33579  21.235  25.345   8.707
 2538POPC   D2A33580  21.588  25.442   8.405
 2538POPC   C3A33581  21.529  25.571   7.948
 2538POPC   C4A33582  21.435  25.496   7.491
 2538POPC   C1B33583  21.591  24.940   8.786
 2538POPC   C2B33584  21.381  24.895   8.452
 2538POPC   C3B33585  21.383  25.077   8.087
 2538POPC   C4B33586  21.403  24.894   7.718
 2539POPC   NC333587  33.818   5.433   9.544
 2539POPC   PO433588  33.484   5.879   9.294
 2539POPC   GL133589  33.848   5.763   9.137
 2539POPC   GL233590  33.972   6.098   9.214
 2539POPC   C1A33591  33.858   5.553   8.745
 2539POPC   D2A33592  33.806   5.401   8.319
 2539POPC   C3A33593  33.665   5.733   8.055
 2539POPC   C4A33594  33.442   6.116   7.955
 2539POPC   C1B33595  33.952   6.100   8.748
 2539POPC   C2B33596  33.841   6.191   8.289
 2539POPC   C3B33597  33.952   6.107   7.839
 2539POPC   C4B33598  34.033   5.768   7.546
 2540POPC   NC333599  31.692  44.430   9.572
 2540POPC   PO433600  31.207  44.606   9.218
 2540POPC   GL133601  31.406  44.912   9.045
 2540POPC   GL233602  31.758  44.842   9.161
 2540POPC   C1A33603  31.320  44.927   8.614
 2540POPC   D2A33604  31.583  44.824   8.301
 2540POPC   C3A33605  31.390  44.692   7.947
 2540POPC   C4A33606  31.651  44.882   7.694
 2540POPC   C1B33607  31.706  44.573   8.759
 2540POPC   C2B33608  31.650  44.314   8.352
 2540POPC   C3B33609  31.779  44.375   7.910
 2540POPC   C4B33610  31.593  44.160   7.549
 2541POPC   NC333611  24.266  39.434   9.349
 2541POPC   PO433612  23.643  39.281   9.593
 2541POPC   GL133613  23.686  39.379   9.191
 2541POPC   GL233614  23.912  39.128   9.142
 2541POPC   C1A33615  23.514  39.480   8.803
 2541POPC   D2A33616  23.690  39.352   8.425
 2541POPC   C3A33617  23.473  39.179   8.077
 2541POPC   C4A33618  23.676  39.324   7.688
 2541POPC   C1B33619  23.686  38.955   8.797
 2541POPC   C2B33620  23.747  38.837   8.373
 2541POPC   C3B33621  23.954  39.036   8.021
 2541POPC   C4B33622  23.951  38.904   7.586
 2542POPC   NC333623  29.183  16.302   9.379
 2542POPC   PO433624  29.506  15.792   9.429
 2542POPC   GL133625  29.060  15.799   9.230
 2542POPC   GL233626  29.196  15.783   8.930
 2542POPC   C1A33627  28.715  15.876   8.857
 2542POPC   D2A33628  28.833  16.114   8.452
 2542POPC   C3A33629  29.002  15.857   8.112
 2542POPC   C4A33630  28.950  15.933   7.658
 2542POPC   C1B33631  29.531  15.599   8.674
 2542POPC   C2B33632  29.476  15.657   8.238
 2542POPC   C3B33633  29.442  15.827   7.850
 2542POPC   C4B33634  29.394  15.649   7.436
 2543POPC   NC333635  10.420  18.204   9.570
 2543POPC   PO433636  11.057  18.500   9.474
 2543POPC   GL133637  10.735  18.311   9.194
 2543POPC   GL233638  10.335  18.417   9.113
 2543POPC   C1A33639  10.592  18.115   8.803
 2543POPC   D2A33640  10.363  18.295   8.466
 2543POPC   C3A33641  10.419  18.027   8.113
 2543POPC   C4A33642  10.425  18.187   7.722
 2543POPC   C1B33643  10.644  18.642   8.848
 2543POPC   C2B33644  10.886  18.481   8.496
 2543POPC   C3B33645  10.761  18.450   8.069
 2543POPC   C4B33646  10.869  18.524   7.634
 2544POPC   NC333647  35.410  43.518   9.345
 2544POPC   PO433648  35.202  44.186   9.343
 2544POPC   GL133649  35.208  43.878   9.033
 2544POPC   GL233650  35.588  43.829   8.970
 2544POPC   C1A33651  35.166  43.789   8.614
 2544POPC   D2A33652  35.533  43.918   8.365
 2544POPC   C3A33653  35.467  44.049   7.944
 2544POPC   C4A33654  35.066  43.906   7.822
 2544POPC   C1B33655  35.546  43.465   8.683
 2544POPC   C2B33656  35.337  43.421   8.274
 2544POPC   C3B33657  35.514  43.383   7.853
 2544POPC   C4B33658  35.716  43.653   7.573
 2545POPC   NC333659  22.520   0.423   9.447
 2545POPC   PO433660  21.992   0.713   9.559
 2545POPC   GL133661  22.116   0.516   9.173
 2545POPC   GL233662  21.943   0.760   9.028
 2545POPC   C1A33663  22.271   0.228   8.802
 2545POPC   D2A33664  22.149   0.106   8.360
 2545POPC   C3A33665  22.393   0.172   7.994
 2545POPC   C4A33666  22.061   0.383   7.816
 2545POPC   C1B33667  22.328   0.733   8.765
 2545POPC   C2B33668  22.286   0.606   8.352
 2545POPC   C3B33669  22.220   0.826   7.963
 2545POPC   C4B33670  22.158   0.787   7.507
 2546POPC   NC333671  13.781   4.674   9.466
 2546POPC   PO433672  13.480   4.099   9.569
 2546POPC   GL133673  13.590   4.270   9.144
 2546POPC   GL233674  13.256   4.288   9.072
 2546POPC   C1A33675  13.602   4.225   8.653
 2546POPC   D2A33676  13.754   3.929   8.280
 2546POPC   C3A33677  13.953   4.136   7.915
 2546POPC   C4A33678  13.836   4.459   7.631
 2546POPC   C1B33679  13.128   4.520   8.721
 2546POPC   C2B33680  13.382   4.645   8.386
 2546POPC   C3B33681  13.527   4.456   8.048
 2546POPC   C4B33682  13.326   4.505   7.659
 2547POPC   NC333683  37.242  39.768   9.455
 2547POPC   PO433684  36.846  40.277   9.369
 2547POPC   GL133685  36.856  39.904   9.147
 2547POPC   GL233686  37.186  40.015   9.017
 2547POPC   C1A33687  36.655  39.853   8.776
 2547POPC   D2A33688  36.764  40.133   8.465
 2547POPC   C3A33689  36.688  39.927   8.103
 2547POPC   C4A33690  36.536  40.225   7.885
 2547POPC   C1B33691  37.356  40.303   8.704
 2547POPC   C2B33692  37.386  40.318   8.251
 2547POPC   C3B33693  37.121  40.167   7.952
 2547POPC   C4B33694  37.158  39.940   7.550
 2548POPC   NC333695  28.689  30.156   9.416
 2548POPC   PO433696  28.205  29.763   9.533
 2548POPC   GL133697  28.360  29.789   9.086
 2548POPC   GL233698  28.667  29.947   8.933
 2548POPC   C1A33699  28.235  29.905   8.651
 2548POPC   D2A33700  28.266  29.712   8.277
 2548POPC   C3A33701  28.249  29.860   7.867
 2548POPC   C4A33702  28.063  29.999   7.497
 2548POPC   C1B33703  28.558  30.283   8.626
 2548POPC   C2B33704  28.450  30.205   8.194
 2548POPC   C3B33705  28.498  30.308   7.755
 2548POPC   C4B33706  28.324  30.538   7.424
 2549POPC   NC333707  31.336  40.681   9.468
 2549POPC   PO433708  31.970  40.474   9.463
 2549POPC   GL133709  31.796  40.470   9.061
 2549POPC   GL233710  31.738  40.810   9.087
 2549POPC   C1A33711  31.455  40.534   8.741
 2549POPC   D2A33712  31.271  40.806   8.390
 2549POPC   C3A33713  31.199  40.555   8.008
 2549POPC   C4A33714  31.544  40.366   7.767
 2549POPC   C1B33715  31.617  41.014   8.731
 2549POPC   C2B33716  31.809  41.096   8.347
 2549POPC   C3B33717  31.665  41.090   7.926
 2549POPC   C4B33718  31.239  41.054   7.867
 2550POPC   NC333719  28.006  19.178   9.463
 2550POPC   PO433720  28.535  18.683   9.481
 2550POPC   GL133721  28.344  18.965   9.127
 2550POPC   GL233722  28.349  19.359   9.126
 2550POPC   C1A33723  28.451  19.101   8.703
 2550POPC   D2A33724  28.363  19.321   8.362
 2550POPC   C3A33725  28.651  19.293   8.032
 2550POPC   C4A33726  28.393  19.064   7.790
 2550POPC   C1B33727  27.979  19.299   8.811
 2550POPC   C2B33728  27.815  19.328   8.400
 2550POPC   C3B33729  27.957  19.147   8.051
 2550POPC   C4B33730  27.921  19.231   7.652
 2551POPC   NC333731  43.728  43.737   9.505
 2551POPC   PO433732  44.382  43.976   9.505
 2551POPC   GL133733  44.106  43.863   9.148
 2551POPC   GL233734  43.731  43.948   9.052
 2551POPC   C1A33735  44.063  43.701   8.739
 2551POPC   D2A33736  43.726  43.815   8.497
 2551POPC   C3A33737  43.744  43.737   8.077
 2551POPC   C4A33738  44.019  43.876   7.750
 2551POPC   C1B33739  43.541  44.238   8.750
 2551POPC   C2B33740  43.760  44.344   8.358
 2551POPC   C3B33741  43.810  44.328   7.924
 2551POPC   C4B33742  43.608  44.231   7.536
 2552POPC   NC333743  41.564   5.526   9.329
 2552POPC   PO433744  41.546   4.870   9.392
 2552POPC   GL133745  41.557   5.079   9.050
 2552POPC   GL233746  41.876   5.189   9.040
 2552POPC   C1A33747  41.540   5.290   8.652
 2552POPC   D2A33748  41.350   5.141   8.287
 2552POPC   C3A33749  41.412   5.338   7.887
 2552POPC   C4A33750  41.378   5.141   7.483
 2552POPC   C1B33751  41.873   4.907   8.694
 2552POPC   C2B33752  41.885   5.073   8.272
 2552POPC   C3B33753  41.802   5.018   7.815
 2552POPC   C4B33754  41.877   5.021   7.355
 2553POPC   NC333755  43.403  15.894   9.401
 2553POPC   PO433756  42.884  16.142   9.721
 2553POPC   GL133757  42.928  16.030   9.264
 2553POPC   GL233758  42.902  15.668   9.177
 2553POPC   C1A33759  42.860  16.049   8.800
 2553POPC   D2A33760  43.140  16.074   8.424
 2553POPC   C3A33761  42.994  16.055   8.004
 2553POPC   C4A33762  43.172  16.216   7.578
 2553POPC   C1B33763  42.915  15.511   8.722
 2553POPC   C2B33764  43.075  15.576   8.270
 2553POPC   C3B33765  43.030  15.582   7.823
 2553POPC   C4B33766  42.775  15.913   7.564
 2554POPC   NC333767  13.999  20.135   9.489
 2554POPC   PO433768  14.602  19.940   9.426
 2554POPC   GL133769  14.326  20.001   9.125
 2554POPC   GL233770  14.249  19.678   8.983
 2554POPC   C1A33771  14.202  20.130   8.744
 2554POPC   D2A33772  14.281  19.810   8.462
 2554POPC   C3A33773  14.386  19.935   8.069
 2554POPC   C4A33774  14.564  19.720   7.740
 2554POPC   C1B33775  13.976  19.477   8.691
 2554POPC   C2B33776  13.882  19.552   8.252
 2554POPC   C3B33777  14.068  19.611   7.849
 2554POPC   C4B33778  14.236  19.486   7.423
 2555POPC   NC333779  12.621  19.389   9.502
 2555POPC   PO433780  13.281  19.201   9.445
 2555POPC   GL133781  13.006  18.996   9.106
 2555POPC   GL233782  12.717  19.166   9.076
 2555POPC   C1A33783  12.812  18.925   8.671
 2555POPC   D2A33784  12.814  18.722   8.329
 2555POPC   C3A33785  12.858  18.974   8.026
 2555POPC   C4A33786  12.911  18.772   7.651
 2555POPC   C1B33787  12.534  19.326   8.723
 2555POPC   C2B33788  12.490  19.238   8.316
 2555POPC   C3B33789  12.456  19.432   7.955
 2555POPC   C4B33790  12.621  19.195   7.633
 2556POPC   NC333791   8.305  40.219   9.580
 2556POPC   PO433792   7.763  40.069   9.310
 2556POPC   GL133793   8.163  40.095   9.101
 2556POPC   GL233794   8.472  39.892   9.206
 2556POPC   C1A33795   8.254  40.209   8.686
 2556POPC   D2A33796   8.012  40.207   8.310
 2556POPC   C3A33797   8.219  40.195   7.912
 2556POPC   C4A33798   7.972  40.097   7.538
 2556POPC   C1B33799   8.452  39.758   8.803
 2556POPC   C2B33800   8.373  39.829   8.367
 2556POPC   C3B33801   8.289  39.672   7.968
 2556POPC   C4B33802   8.408  39.853   7.585
 2557POPC   NC333803  36.572  18.854   9.390
 2557POPC   PO433804  37.104  19.264   9.543
 2557POPC   GL133805  36.868  19.203   9.135
 2557POPC   GL233806  36.680  19.502   9.013
 2557POPC   C1A33807  36.884  18.933   8.733
 2557POPC   D2A33808  37.001  18.740   8.319
 2557POPC   C3A33809  36.990  19.031   7.959
 2557POPC   C4A33810  37.274  19.006   7.662
 2557POPC   C1B33811  36.482  19.246   8.706
 2557POPC   C2B33812  36.666  19.215   8.321
 2557POPC   C3B33813  36.535  19.286   7.924
 2557POPC   C4B33814  36.696  19.264   7.502
 2558POPC   NC333815  27.152  19.634   9.470
 2558POPC   PO433816  26.502  19.834   9.415
 2558POPC   GL133817  26.857  19.920   9.173
 2558POPC   GL233818  26.853  19.561   9.063
 2558POPC   C1A33819  27.010  19.966   8.760
 2558POPC   D2A33820  26.930  19.720   8.405
 2558POPC   C3A33821  27.017  19.880   7.986
 2558POPC   C4A33822  27.063  19.512   7.788
 2558POPC   C1B33823  26.528  19.768   8.784
 2558POPC   C2B33824  26.346  19.632   8.432
 2558POPC   C3B33825  26.533  19.721   8.046
 2558POPC   C4B33826  26.578  19.723   7.579
 2559POPC   NC333827   1.359  18.955   9.458
 2559POPC   PO433828   0.934  19.540   9.552
 2559POPC   GL133829   1.073  19.303   9.187
 2559POPC   GL233830   0.900  19.002   9.210
 2559POPC   C1A33831   1.136  19.267   8.716
 2559POPC   D2A33832   1.214  18.871   8.440
 2559POPC   C3A33833   1.355  18.916   8.012
 2559POPC   C4A33834   1.282  19.204   7.654
 2559POPC   C1B33835   0.726  18.998   8.811
 2559POPC   C2B33836   0.721  18.865   8.401
 2559POPC   C3B33837   0.876  19.063   8.040
 2559POPC   C4B33838   0.908  18.874   7.659
 2560POPC   NC333839  35.644  22.137   9.356
 2560POPC   PO433840  35.094  21.791   9.480
 2560POPC   GL133841  35.180  22.045   9.122
 2560POPC   GL233842  35.282  22.418   9.120
 2560POPC   C1A33843  35.306  22.068   8.712
 2560POPC   D2A33844  35.184  22.254   8.337
 2560POPC   C3A33845  35.330  22.009   7.966
 2560POPC   C4A33846  35.111  21.906   7.631
 2560POPC   C1B33847  35.599  22.506   8.799
 2560POPC   C2B33848  35.720  22.442   8.390
 2560POPC   C3B33849  35.499  22.513   8.031
 2560POPC   C4B33850  35.538  22.372   7.626
 2561POPC   NC333851  13.608  36.481   9.696
 2561POPC   PO433852  13.613  36.041   9.549
 2561POPC   GL133853  13.363  36.097   9.140
 2561POPC   GL233854  13.082  36.350   9.198
 2561POPC   C1A33855  13.506  36.091   8.667
 2561POPC   D2A33856  13.906  36.100   8.355
 2561POPC   C3A33857  13.794  36.032   7.902
 2561POPC   C4A33858  13.343  35.944   7.881
 2561POPC   C1B33859  13.404  36.572   8.960
 2561POPC   C2B33860  13.574  36.578   8.536
 2561POPC   C3B33861  13.483  36.346   8.196
 2561POPC   C4B33862  13.506  36.459   7.800
 2562POPC   NC333863  40.566  16.920   9.492
 2562POPC   PO433864  41.240  17.027   9.629
 2562POPC   GL133865  40.988  16.946   9.206
 2562POPC   GL233866  40.779  16.601   9.139
 2562POPC   C1A33867  40.708  16.988   8.823
 2562POPC   D2A33868  40.394  17.032   8.518
 2562POPC   C3A33869  40.584  16.882   8.177
 2562POPC   C4A33870  40.699  16.861   7.775
 2562POPC   C1B33871  40.644  16.310   8.735
 2562POPC   C2B33872  40.645  16.231   8.248
 2562POPC   C3B33873  40.747  16.330   7.786
 2562POPC   C4B33874  40.691  16.235   7.319
 2563POPC   NC333875  22.696   4.281   9.590
 2563POPC   PO433876  21.966   4.255   9.560
 2563POPC   GL133877  22.206   4.476   9.240
 2563POPC   GL233878  22.309   4.248   9.048
 2563POPC   C1A33879  22.231   4.650   8.776
 2563POPC   D2A33880  22.105   4.404   8.432
 2563POPC   C3A33881  22.168   4.475   8.004
 2563POPC   C4A33882  22.004   4.340   7.606
 2563POPC   C1B33883  22.259   3.973   8.722
 2563POPC   C2B33884  22.542   3.833   8.416
 2563POPC   C3B33885  22.300   3.948   8.069
 2563POPC   C4B33886  22.446   4.115   7.701
 2564POPC   NC333887  18.193  29.531   9.592
 2564POPC   PO433888  18.290  30.224   9.404
 2564POPC   GL133889  18.075  30.046   9.053
 2564POPC   GL233890  18.067  29.731   9.156
 2564POPC   C1A33891  18.153  29.898   8.636
 2564POPC   D2A33892  18.515  29.920   8.375
 2564POPC   C3A33893  18.532  30.100   7.970
 2564POPC   C4A33894  18.382  30.190   7.585
 2564POPC   C1B33895  17.820  29.579   8.861
 2564POPC   C2B33896  17.796  29.535   8.454
 2564POPC   C3B33897  18.032  29.781   8.150
 2564POPC   C4B33898  18.042  29.694   7.753
 2565POPC   NC333899  31.309  32.912   9.426
 2565POPC   PO433900  31.874  33.311   9.309
 2565POPC   GL133901  31.725  32.918   9.052
 2565POPC   GL233902  31.381  32.911   8.929
 2565POPC   C1A33903  31.726  32.834   8.579
 2565POPC   D2A33904  31.357  32.879   8.284
 2565POPC   C3A33905  31.509  33.106   7.900
 2565POPC   C4A33906  31.864  33.287   7.654
 2565POPC   C1B33907  31.100  32.614   8.724
 2565POPC   C2B33908  30.947  32.538   8.304
 2565POPC   C3B33909  31.037  32.703   7.901
 2565POPC   C4B33910  31.381  32.693   7.611
 2566POPC   NC333911  20.238  31.539   9.619
 2566POPC   PO433912  19.582  31.522   9.512
 2566POPC   GL133913  19.711  31.525   9.088
 2566POPC   GL233914  20.023  31.675   9.144
 2566POPC   C1A33915  19.544  31.645   8.686
 2566POPC   D2A33916  19.467  31.822   8.280
 2566POPC   C3A33917  19.565  31.587   7.878
 2566POPC   C4A33918  19.717  31.185   7.694
 2566POPC   C1B33919  20.060  31.726   8.691
 2566POPC   C2B33920  19.979  31.628   8.240
 2566POPC   C3B33921  20.110  31.535   7.794
 2566POPC   C4B33922  20.384  31.630   7.404
 2567POPC   NC333923  23.011  15.537   9.901
 2567POPC   PO433924  22.690  15.125   9.461
 2567POPC   GL133925  22.864  15.304   9.091
 2567POPC   GL233926  22.599  15.479   8.947
 2567POPC   C1A33927  23.082  15.354   8.720
 2567POPC   D2A33928  23.275  15.332   8.347
 2567POPC   C3A33929  23.168  15.022   8.031
 2567POPC   C4A33930  23.109  15.109   7.571
 2567POPC   C1B33931  22.604  15.154   8.639
 2567POPC   C2B33932  22.634  15.127   8.206
 2567POPC   C3B33933  22.796  15.346   7.882
 2567POPC   C4B33934  22.669  15.306   7.438
 2568POPC   NC333935  35.530  11.874   9.413
 2568POPC   PO433936  36.232  11.986   9.488
 2568POPC   GL133937  36.276  12.084   9.109
 2568POPC   GL233938  35.904  12.156   9.056
 2568POPC   C1A33939  36.424  11.823   8.788
 2568POPC   D2A33940  36.524  12.005   8.393
 2568POPC   C3A33941  36.192  11.975   8.133
 2568POPC   C4A33942  36.338  11.973   7.757
 2568POPC   C1B33943  36.107  12.199   8.634
 2568POPC   C2B33944  36.242  12.465   8.299
 2568POPC   C3B33945  36.206  12.451   7.850
 2568POPC   C4B33946  35.944  12.206   7.545
 2569POPC   NC333947  30.388  28.914   9.349
 2569POPC   PO433948  30.962  28.947   9.768
 2569POPC   GL133949  31.024  29.071   9.271
 2569POPC   GL233950  30.740  29.025   9.022
 2569POPC   C1A33951  31.073  29.350   8.849
 2569POPC   D2A33952  30.775  29.522   8.540
 2569POPC   C3A33953  30.866  29.445   8.125
 2569POPC   C4A33954  30.703  29.177   7.807
 2569POPC   C1B33955  30.932  28.874   8.640
 2569POPC   C2B33956  30.896  28.846   8.189
 2569POPC   C3B33957  30.791  28.673   7.794
 2569POPC   C4B33958  30.570  28.845   7.427
 2570POPC   NC333959  10.004  36.265   9.578
 2570POPC   PO433960   9.350  36.329   9.576
 2570POPC   GL133961   9.439  36.174   9.195
 2570POPC   GL233962   9.713  35.947   9.251
 2570POPC   C1A33963   9.760  36.327   8.893
 2570POPC   D2A33964   9.939  36.296   8.480
 2570POPC   C3A33965   9.635  36.313   8.195
 2570POPC   C4A33966   9.571  36.174   7.813
 2570POPC   C1B33967   9.581  35.842   8.817
 2570POPC   C2B33968   9.837  35.772   8.442
 2570POPC   C3B33969   9.963  35.927   8.052
 2570POPC   C4B33970  10.004  36.036   7.605
 2571POPC   NC333971  17.544  13.246   9.847
 2571POPC   PO433972  17.538  12.654   9.566
 2571POPC   GL133973  17.599  12.986   9.184
 2571POPC   GL233974  17.790  12.770   8.959
 2571POPC   C1A33975  17.394  13.047   8.790
 2571POPC   D2A33976  17.342  12.849   8.377
 2571POPC   C3A33977  17.512  12.994   7.997
 2571POPC   C4A33978  17.561  12.871   7.559
 2571POPC   C1B33979  17.909  13.050   8.622
 2571POPC   C2B33980  18.013  13.055   8.172
 2571POPC   C3B33981  17.970  12.747   7.848
 2571POPC   C4B33982  17.945  12.548   7.439
 2572POPC   NC333983   0.420  11.166   9.329
 2572POPC   PO433984   0.697  11.834   9.145
 2572POPC   GL133985   0.655  11.439   8.958
 2572POPC   GL233986   0.287  11.428   8.918
 2572POPC   C1A33987   0.738  11.214   8.587
 2572POPC   D2A33988   0.739  11.019   8.211
 2572POPC   C3A33989   0.393  11.213   8.020
 2572POPC   C4A33990   0.238  11.119   7.655
 2572POPC   C1B33991   0.291  11.461   8.477
 2572POPC   C2B33992   0.592  11.669   8.190
 2572POPC   C3B33993   0.528  11.697   7.751
 2572POPC   C4B33994   0.122  11.575   7.496
 2573POPC   NC333995  42.216  34.734   9.530
 2573POPC   PO433996  41.930  34.207   9.221
 2573POPC   GL133997  42.204  34.528   9.062
 2573POPC   GL233998  42.515  34.386   8.956
 2573POPC   C1A33999  42.455  34.865   8.829
 2573POPC   D2A34000  42.623  34.840   8.415
 2573POPC   C3A34001  42.383  34.699   8.067
 2573POPC   C4A34002  42.371  34.630   7.630
 2573POPC   C1B34003  42.252  34.296   8.576
 2573POPC   C2B34004  41.999  34.324   8.191
 2573POPC   C3B34005  42.074  34.211   7.734
 2573POPC   C4B34006  42.077  34.406   7.295
 2574POPC   NC334007  18.535  15.299   9.477
 2574POPC   PO434008  18.005  14.848   9.448
 2574POPC   GL134009  18.211  15.089   9.131
 2574POPC   GL234010  18.158  15.457   9.146
 2574POPC   C1A34011  18.486  15.162   8.772
 2574POPC   D2A34012  18.336  15.224   8.334
 2574POPC   C3A34013  18.331  15.132   7.880
 2574POPC   C4A34014  18.069  15.021   7.553
 2574POPC   C1B34015  17.992  15.325   8.723
 2574POPC   C2B34016  17.917  15.538   8.327
 2574POPC   C3B34017  17.945  15.505   7.903
 2574POPC   C4B34018  17.977  15.506   7.474
 2575POPC   NC334019  21.567  37.403   9.543
 2575POPC   PO434020  21.340  37.947   9.940
 2575POPC   GL134021  21.446  37.925   9.459
 2575POPC   GL234022  21.147  37.825   9.229
 2575POPC   C1A34023  21.612  37.836   9.021
 2575POPC   D2A34024  21.485  37.733   8.587
 2575POPC   C3A34025  21.648  37.463   8.294
 2575POPC   C4A34026  21.690  37.605   7.882
 2575POPC   C1B34027  21.097  37.554   8.863
 2575POPC   C2B34028  21.121  37.367   8.430
 2575POPC   C3B34029  21.162  37.460   7.986
 2575POPC   C4B34030  21.124  37.161   7.668
 2576POPC   NC334031   5.253  15.289   9.611
 2576POPC   PO434032   4.701  15.506   9.405
 2576POPC   GL134033   5.006  15.238   9.150
 2576POPC   GL234034   5.264  14.943   9.191
 2576POPC   C1A34035   4.980  15.249   8.703
 2576POPC   D2A34036   4.631  15.292   8.428
 2576POPC   C3A34037   4.769  15.195   8.033
 2576POPC   C4A34038   5.136  15.234   7.783
 2576POPC   C1B34039   5.211  14.783   8.761
 2576POPC   C2B34040   4.966  14.845   8.374
 2576POPC   C3B34041   5.128  14.768   7.953
 2576POPC   C4B34042   5.122  14.756   7.481
 2577POPC   NC334043  42.728  33.190   9.778
 2577POPC   PO434044  42.213  33.344   9.337
 2577POPC   GL134045  42.374  33.074   9.045
 2577POPC   GL234046  42.589  32.819   9.187
 2577POPC   C1A34047  42.304  33.152   8.635
 2577POPC   D2A34048  42.433  32.958   8.293
 2577POPC   C3A34049  42.209  33.127   7.963
 2577POPC   C4A34050  42.164  32.871   7.623
 2577POPC   C1B34051  42.685  32.600   8.778
 2577POPC   C2B34052  42.900  32.690   8.368
 2577POPC   C3B34053  42.702  32.675   7.962
 2577POPC   C4B34054  42.684  32.841   7.535
 2578POPC   NC334055  32.938  33.112   9.811
 2578POPC   PO434056  33.335  32.836   9.366
 2578POPC   GL134057  33.184  33.122   9.091
 2578POPC   GL234058  33.006  33.373   9.291
 2578POPC   C1A34059  33.057  32.947   8.702
 2578POPC   D2A34060  33.237  32.627   8.418
 2578POPC   C3A34061  33.175  32.783   8.017
 2578POPC   C4A34062  32.836  32.805   7.699
 2578POPC   C1B34063  32.945  33.491   8.846
 2578POPC   C2B34064  33.159  33.429   8.460
 2578POPC   C3B34065  33.107  33.464   8.035
 2578POPC   C4B34066  33.157  33.192   7.702
 2579POPC   NC334067  30.326  12.628   9.495
 2579POPC   PO434068  31.011  12.905   9.439
 2579POPC   GL134069  30.855  12.953   9.050
 2579POPC   GL234070  30.519  13.031   9.160
 2579POPC   C1A34071  30.693  12.625   8.755
 2579POPC   D2A34072  30.550  12.393   8.390
 2579POPC   C3A34073  30.719  12.520   8.003
 2579POPC   C4A34074  31.074  12.798   7.899
 2579POPC   C1B34075  30.506  13.113   8.703
 2579POPC   C2B34076  30.770  12.973   8.335
 2579POPC   C3B34077  30.583  12.999   7.914
 2579POPC   C4B34078  30.608  13.283   7.545
 2580POPC   NC334079  40.385  15.272   9.628
 2580POPC   PO434080  40.947  15.484   9.452
 2580POPC   GL134081  40.732  15.253   9.153
 2580POPC   GL234082  40.436  15.390   9.129
 2580POPC   C1A34083  40.924  15.142   8.758
 2580POPC   D2A34084  41.043  15.259   8.358
 2580POPC   C3A34085  41.166  14.958   8.073
 2580POPC   C4A34086  40.931  15.055   7.723
 2580POPC   C1B34087  40.419  15.148   8.757
 2580POPC   C2B34088  40.529  15.270   8.354
 2580POPC   C3B34089  40.421  15.186   7.936
 2580POPC   C4B34090  40.266  15.509   7.693
 2581POPC   NC334091   1.459  24.955   9.577
 2581POPC   PO434092   0.986  25.454   9.522
 2581POPC   GL134093   1.233  25.404   9.182
 2581POPC   GL234094   1.187  25.037   9.151
 2581POPC   C1A34095   1.217  25.638   8.801
 2581POPC   D2A34096   1.523  25.598   8.488
 2581POPC   C3A34097   1.448  25.319   8.153
 2581POPC   C4A34098   1.430  25.423   7.748
 2581POPC   C1B34099   1.184  25.120   8.720
 2581POPC   C2B34100   0.992  25.349   8.409
 2581POPC   C3B34101   0.951  25.298   7.982
 2581POPC   C4B34102   1.048  24.974   7.738
 2582POPC   NC334103   3.679  40.091   9.641
 2582POPC   PO434104   3.024  40.056   9.614
 2582POPC   GL134105   3.301  40.243   9.258
 2582POPC   GL234106   3.692  40.213   9.158
 2582POPC   C1A34107   3.319  40.217   8.800
 2582POPC   D2A34108   3.417  39.987   8.426
 2582POPC   C3A34109   3.322  40.148   8.017
 2582POPC   C4A34110   3.286  39.782   7.781
 2582POPC   C1B34111   3.845  40.089   8.763
 2582POPC   C2B34112   3.839  40.235   8.343
 2582POPC   C3B34113   3.801  39.960   7.972
 2582POPC   C4B34114   3.744  39.663   7.611
 2583POPC   NC334115  12.301   4.292   9.486
 2583POPC   PO434116  11.672   4.540   9.521
 2583POPC   GL134117  11.875   4.320   9.143
 2583POPC   GL234118  12.031   3.974   9.143
 2583POPC   C1A34119  12.152   4.287   8.762
 2583POPC   D2A34120  12.248   4.367   8.325
 2583POPC   C3A34121  11.961   4.439   8.002
 2583POPC   C4A34122  12.241   4.398   7.691
 2583POPC   C1B34123  11.821   3.874   8.755
 2583POPC   C2B34124  11.836   4.047   8.342
 2583POPC   C3B34125  12.051   3.939   7.952
 2583POPC   C4B34126  11.817   3.767   7.639
 2584POPC   NC334127   5.587  24.959   9.479
 2584POPC   PO434128   5.025  24.491   9.496
 2584POPC   GL134129   5.224  24.683   9.163
 2584POPC   GL234130   4.949  24.881   9.129
 2584POPC   C1A34131   5.270  24.693   8.690
 2584POPC   D2A34132   5.159  24.947   8.297
 2584POPC   C3A34133   5.185  24.667   7.931
 2584POPC   C4A34134   5.506  24.390   7.776
 2584POPC   C1B34135   4.802  24.543   8.864
 2584POPC   C2B34136   4.805  24.596   8.435
 2584POPC   C3B34137   4.715  24.475   8.043
 2584POPC   C4B34138   4.792  24.532   7.635
 2585POPC   NC334139  19.604  36.687   9.413
 2585POPC   PO434140  20.276  36.771   9.440
 2585POPC   GL134141  19.965  37.006   9.191
 2585POPC   GL234142  19.968  36.695   9.021
 2585POPC   C1A34143  19.661  37.024   8.802
 2585POPC   D2A34144  19.783  36.815   8.403
 2585POPC   C3A34145  19.683  37.086   8.061
 2585POPC   C4A34146  19.499  37.129   7.675
 2585POPC   C1B34147  20.171  36.995   8.725
 2585POPC   C2B34148  20.152  37.190   8.332
 2585POPC   C3B34149  20.187  36.987   7.960
 2585POPC   C4B34150  19.987  36.868   7.589
 2586POPC   NC334151  31.889   6.782   9.709
 2586POPC   PO434152  32.464   6.532   9.535
 2586POPC   GL134153  32.359   6.767   9.180
 2586POPC   GL234154  32.058   6.934   9.253
 2586POPC   C1A34155  32.111   6.592   8.845
 2586POPC   D2A34156  32.058   6.395   8.453
 2586POPC   C3A34157  32.366   6.512   8.149
 2586POPC   C4A34158  32.216   6.573   7.743
 2586POPC   C1B34159  32.145   7.095   8.834
 2586POPC   C2B34160  32.219   6.927   8.444
 2586POPC   C3B34161  31.970   6.872   8.108
 2586POPC   C4B34162  31.980   7.008   7.699
 2587POPC   NC334163  18.133  21.525   9.579
 2587POPC   PO434164  18.625  21.169   9.519
 2587POPC   GL134165  18.422  21.395   9.145
 2587POPC   GL234166  18.276  21.722   9.134
 2587POPC   C1A34167  18.262  21.271   8.728
 2587POPC   D2A34168  18.137  21.111   8.346
 2587POPC   C3A34169  18.356  21.225   8.007
 2587POPC   C4A34170  18.284  21.286   7.604
 2587POPC   C1B34171  18.315  21.779   8.686
 2587POPC   C2B34172  18.271  21.647   8.269
 2587POPC   C3B34173  18.314  21.766   7.822
 2587POPC   C4B34174  18.185  21.736   7.383
 2588POPC   NC334175   1.572   6.442   9.548
 2588POPC   PO434176   0.915   6.397   9.780
 2588POPC   GL134177   1.130   6.644   9.329
 2588POPC   GL234178   0.890   6.875   9.139
 2588POPC   C1A34179   1.182   6.578   8.820
 2588POPC   D2A34180   1.096   6.684   8.359
 2588POPC   C3A34181   1.236   6.550   7.914
 2588POPC   C4A34182   1.295   6.596   7.434
 2588POPC   C1B34183   0.907   7.022   8.746
 2588POPC   C2B34184   0.958   7.176   8.338
 2588POPC   C3B34185   0.897   6.973   7.951
 2588POPC   C4B34186   0.894   6.902   7.505
 2589POPC   NC334187  43.713  11.507   9.456
 2589POPC   PO434188  44.222  11.057   9.527
 2589POPC   GL134189  43.996  11.200   9.163
 2589POPC   GL234190  43.624  11.093   9.125
 2589POPC   C1A34191  43.958  11.335   8.742
 2589POPC   D2A34192  44.119  11.240   8.355
 2589POPC   C3A34193  43.862  11.197   8.024
 2589POPC   C4A34194  43.976  10.952   7.678
 2589POPC   C1B34195  43.460  11.377   8.785
 2589POPC   C2B34196  43.598  11.523   8.387
 2589POPC   C3B34197  43.538  11.614   7.952
 2589POPC   C4B34198  43.721  11.407   7.570
 2590POPC   NC334199  24.355  30.893   9.435
 2590POPC   PO434200  24.818  30.296   9.443
 2590POPC   GL134201  24.623  30.592   9.100
 2590POPC   GL234202  24.744  30.950   9.099
 2590POPC   C1A34203  24.426  30.488   8.678
 2590POPC   D2A34204  24.203  30.455   8.272
 2590POPC   C3A34205  24.439  30.516   7.893
 2590POPC   C4A34206  24.240  30.582   7.511
 2590POPC   C1B34207  24.442  31.002   8.749
 2590POPC   C2B34208  24.525  30.845   8.299
 2590POPC   C3B34209  24.627  30.989   7.862
 2590POPC   C4B34210  24.661  30.851   7.408
 2591POPC   NC334211  28.751  34.943   9.588
 2591POPC   PO434212  28.244  35.298   9.564
 2591POPC   GL134213  28.397  35.555   9.173
 2591POPC   GL234214  28.755  35.569   9.069
 2591POPC   C1A34215  28.370  35.738   8.765
 2591POPC   D2A34216  28.614  35.615   8.409
 2591POPC   C3A34217  28.472  35.538   8.036
 2591POPC   C4A34218  28.081  35.434   7.911
 2591POPC   C1B34219  28.594  35.249   8.772
 2591POPC   C2B34220  28.633  35.102   8.308
 2591POPC   C3B34221  28.629  35.089   7.840
 2591POPC   C4B34222  28.541  34.787   7.507
 2592POPC   NC334223  36.313  16.367   9.379
 2592POPC   PO434224  35.998  16.962   9.577
 2592POPC   GL134225  36.136  16.788   9.182
 2592POPC   GL234226  35.889  16.479   9.103
 2592POPC   C1A34227  36.352  16.927   8.814
 2592POPC   D2A34228  36.152  17.055   8.438
 2592POPC   C3A34229  36.182  16.883   8.045
 2592POPC   C4A34230  36.037  16.972   7.642
 2592POPC   C1B34231  36.186  16.454   8.771
 2592POPC   C2B34232  36.346  16.568   8.422
 2592POPC   C3B34233  36.212  16.373   8.037
 2592POPC   C4B34234  35.985  16.423   7.678
 2593POPC   NC334235  32.155  37.274   9.693
 2593POPC   PO434236  32.309  36.683   9.442
 2593POPC   GL134237  32.295  36.778   9.064
 2593POPC   GL234238  32.315  37.119   9.133
 2593POPC   C1A34239  32.075  36.775   8.695
 2593POPC   D2A34240  32.033  36.528   8.321
 2593POPC   C3A34241  32.119  36.812   7.968
 2593POPC   C4A34242  31.940  37.211   7.930
 2593POPC   C1B34243  32.555  37.070   8.752
 2593POPC   C2B34244  32.528  36.776   8.412
 2593POPC   C3B34245  32.607  36.928   8.030
 2593POPC   C4B34246  32.433  37.185   7.717
 2594POPC   NC334247  12.897  20.321   9.562
 2594POPC   PO434248  12.600  20.848   9.673
 2594POPC   GL134249  12.801  20.730   9.222
 2594POPC   GL234250  12.712  20.407   9.082
 2594POPC   C1A34251  12.815  20.765   8.721
 2594POPC   D2A34252  13.058  20.647   8.307
 2594POPC   C3A34253  12.826  20.502   7.924
 2594POPC   C4A34254  12.699  20.646   7.530
 2594POPC   C1B34255  12.930  20.119   8.805
 2594POPC   C2B34256  13.244  20.073   8.480
 2594POPC   C3B34257  13.288  20.250   8.046
 2594POPC   C4B34258  13.313  20.170   7.592
 2595POPC   NC334259  12.953  42.879   9.561
 2595POPC   PO434260  12.755  43.547   9.635
 2595POPC   GL134261  12.968  43.422   9.176
 2595POPC   GL234262  12.854  43.083   9.118
 2595POPC   C1A34263  12.839  43.373   8.709
 2595POPC   D2A34264  12.869  43.065   8.405
 2595POPC   C3A34265  13.019  43.159   8.064
 2595POPC   C4A34266  12.886  43.388   7.768
 2595POPC   C1B34267  12.744  42.769   8.803
 2595POPC   C2B34268  12.480  42.758   8.422
 2595POPC   C3B34269  12.482  42.881   8.004
 2595POPC   C4B34270  12.748  42.917   7.679
 2596POPC   NC334271  41.934  44.947   9.293
 2596POPC   PO434272  41.374   0.273   9.487
 2596POPC   GL134273  41.489   0.467   9.138
 2596POPC   GL234274  41.805   0.634   9.241
 2596POPC   C1A34275  41.322   0.490   8.725
 2596POPC   D2A34276  41.386   0.258   8.362
 2596POPC   C3A34277  41.572   0.373   8.005
 2596POPC   C4A34278  41.400   0.310   7.625
 2596POPC   C1B34279  41.835   0.583   8.797
 2596POPC   C2B34280  41.691   0.724   8.397
 2596POPC   C3B34281  41.900   0.767   8.035
 2596POPC   C4B34282  41.783   0.664   7.636
 2597POPC   NC334283  19.157  20.021   9.497
 2597POPC   PO434284  18.656  19.581   9.502
 2597POPC   GL134285  18.806  19.831   9.131
 2597POPC   GL234286  18.739  20.169   9.087
 2597POPC   C1A34287  18.905  19.890   8.649
 2597POPC   D2A34288  18.903  20.034   8.192
 2597POPC   C3A34289  18.795  19.742   7.869
 2597POPC   C4A34290  19.095  19.470   7.622
 2597POPC   C1B34291  19.125  20.303   8.829
 2597POPC   C2B34292  19.338  20.174   8.429
 2597POPC   C3B34293  19.374  20.131   7.976
 2597POPC   C4B34294  19.018  20.169   7.685
 2598POPC   NC334295  36.742   7.098   9.557
 2598POPC   PO434296  36.621   6.472   9.553
 2598POPC   GL134297  36.532   6.624   9.126
 2598POPC   GL234298  36.489   6.982   9.113
 2598POPC   C1A34299  36.742   6.512   8.738
 2598POPC   D2A34300  37.034   6.498   8.403
 2598POPC   C3A34301  36.802   6.421   8.072
 2598POPC   C4A34302  36.572   6.538   7.738
 2598POPC   C1B34303  36.742   7.056   8.756
 2598POPC   C2B34304  36.770   6.948   8.305
 2598POPC   C3B34305  37.051   6.853   7.942
 2598POPC   C4B34306  37.131   6.505   7.645
 2599POPC   NC334307   6.396  10.553   9.336
 2599POPC   PO434308   6.981  10.815   9.555
 2599POPC   GL134309   6.885  10.600   9.141
 2599POPC   GL234310   6.812  10.219   9.135
 2599POPC   C1A34311   6.675  10.479   8.730
 2599POPC   D2A34312   6.444  10.616   8.377
 2599POPC   C3A34313   6.653  10.535   7.995
 2599POPC   C4A34314   6.481  10.205   7.729
 2599POPC   C1B34315   7.007  10.068   8.757
 2599POPC   C2B34316   6.913  10.219   8.326
 2599POPC   C3B34317   6.984  10.184   7.870
 2599POPC   C4B34318   6.906  10.060   7.422
 2600POPC   NC334319  19.018  36.484   9.412
 2600POPC   PO434320  18.977  37.189   9.476
 2600POPC   GL134321  18.889  36.916   9.156
 2600POPC   GL234322  19.237  36.848   9.074
 2600POPC   C1A34323  18.857  36.851   8.719
 2600POPC   D2A34324  19.258  36.870   8.439
 2600POPC   C3A34325  19.122  36.693   8.046
 2600POPC   C4A34326  18.750  36.829   7.803
 2600POPC   C1B34327  19.173  37.234   8.831
 2600POPC   C2B34328  18.980  37.292   8.434
 2600POPC   C3B34329  19.136  37.198   8.020
 2600POPC   C4B34330  19.011  37.355   7.602
 2601POPC   NC334331   3.782  43.206   9.401
 2601POPC   PO434332   3.124  43.034   9.415
 2601POPC   GL134333   3.417  42.954   9.128
 2601POPC   GL234334   3.423  43.266   8.962
 2601POPC   C1A34335   3.540  42.803   8.746
 2601POPC   D2A34336   3.721  42.896   8.381
 2601POPC   C3A34337   3.592  42.769   8.002
 2601POPC   C4A34338   3.468  42.783   7.609
 2601POPC   C1B34339   3.836  43.238   8.757
 2601POPC   C2B34340   4.018  43.297   8.372
 2601POPC   C3B34341   3.821  43.387   8.009
 2601POPC   C4B34342   3.783  43.196   7.647
 2602POPC   NC334343  42.003  25.880   9.499
 2602POPC   PO434344  41.427  26.346   9.391
 2602POPC   GL134345  41.577  26.072   9.068
 2602POPC   GL234346  41.635  25.730   9.181
 2602POPC   C1A34347  41.399  26.078   8.647
 2602POPC   D2A34348  41.097  26.122   8.319
 2602POPC   C3A34349  41.278  26.192   7.908
 2602POPC   C4A34350  41.364  26.105   7.439
 2602POPC   C1B34351  41.719  25.667   8.739
 2602POPC   C2B34352  41.630  25.787   8.280
 2602POPC   C3B34353  41.621  25.832   7.822
 2602POPC   C4B34354  41.736  25.756   7.416
 2603POPC   NC334355  27.105  44.705   9.484
 2603POPC   PO434356  26.653  44.208   9.370
 2603POPC   GL134357  26.828  44.524   9.062
 2603POPC   GL234358  27.024  44.850   9.022
 2603POPC   C1A34359  26.995  44.516   8.622
 2603POPC   D2A34360  26.972  44.530   8.154
 2603POPC   C3A34361  26.576  44.671   8.014
 2603POPC   C4A34362  26.310  44.402   7.795
 2603POPC   C1B34363  26.928   0.055   8.665
 2603POPC   C2B34364  27.071   0.190   8.267
 2603POPC   C3B34365  26.980   0.005   7.868
 2603POPC   C4B34366  27.228  44.643   7.718
 2604POPC   NC334367  32.322  30.983   9.373
 2604POPC   PO434368  32.308  30.328   9.460
 2604POPC   GL134369  31.969  30.600   9.231
 2604POPC   GL234370  32.246  30.620   9.026
 2604POPC   C1A34371  31.825  30.659   8.772
 2604POPC   D2A34372  31.977  30.416   8.416
 2604POPC   C3A34373  31.985  30.593   8.008
 2604POPC   C4A34374  32.108  30.806   7.601
 2604POPC   C1B34375  32.366  30.679   8.626
 2604POPC   C2B34376  32.455  30.902   8.267
 2604POPC   C3B34377  32.482  30.714   7.919
 2604POPC   C4B34378  32.487  30.283   7.797
 2605POPC   NC334379  43.524  24.850   9.346
 2605POPC   PO434380  43.145  24.365   9.391
 2605POPC   GL134381  43.182  24.588   9.040
 2605POPC   GL234382  42.970  24.392   8.828
 2605POPC   C1A34383  43.437  24.686   8.703
 2605POPC   D2A34384  43.437  24.462   8.333
 2605POPC   C3A34385  43.042  24.446   8.164
 2605POPC   C4A34386  42.878  24.448   7.767
 2605POPC   C1B34387  43.321  24.127   8.767
 2605POPC   C2B34388  43.424  23.918   8.401
 2605POPC   C3B34389  43.298  24.042   7.999
 2605POPC   C4B34390  43.375  24.282   7.622
 2606POPC   NC334391  11.199  25.647   9.555
 2606POPC   PO434392  11.498  26.277   9.572
 2606POPC   GL134393  11.272  26.073   9.255
 2606POPC   GL234394  11.481  25.855   9.142
 2606POPC   C1A34395  11.271  26.169   8.814
 2606POPC   D2A34396  11.026  26.282   8.507
 2606POPC   C3A34397  11.081  26.258   8.058
 2606POPC   C4A34398  10.830  26.471   7.732
 2606POPC   C1B34399  11.329  25.660   8.751
 2606POPC   C2B34400  11.307  25.851   8.352
 2606POPC   C3B34401  11.135  25.752   7.958
 2606POPC   C4B34402  10.877  25.959   7.670
 2607POPC   NC334403  23.616  27.994   9.542
 2607POPC   PO434404  23.598  27.323   9.501
 2607POPC   GL134405  23.613  27.461   9.109
 2607POPC   GL234406  23.559  27.779   9.092
 2607POPC   C1A34407  23.454  27.388   8.678
 2607POPC   D2A34408  23.561  27.202   8.271
 2607POPC   C3A34409  23.564  27.473   7.920
 2607POPC   C4A34410  23.377  27.810   7.718
 2607POPC   C1B34411  23.862  27.730   8.764
 2607POPC   C2B34412  23.791  27.669   8.355
 2607POPC   C3B34413  23.752  27.925   8.014
 2607POPC   C4B34414  23.881  27.890   7.642
 2608POPC   NC334415  12.907   5.077   9.614
 2608POPC   PO434416  13.631   5.139   9.503
 2608POPC   GL134417  13.644   5.013   9.095
 2608POPC   GL234418  13.374   4.783   9.121
 2608POPC   C1A34419  13.744   4.711   8.759
 2608POPC   D2A34420  13.911   4.678   8.314
 2608POPC   C3A34421  13.674   4.934   7.984
 2608POPC   C4A34422  13.519   5.356   7.870
 2608POPC   C1B34423  13.283   5.017   8.733
 2608POPC   C2B34424  13.310   5.174   8.312
 2608POPC   C3B34425  13.148   4.991   7.928
 2608POPC   C4B34426  13.337   5.002   7.517
 2609POPC   NC334427  42.811  13.339   9.364
 2609POPC   PO434428  42.181  13.141   9.548
 2609POPC   GL134429  42.132  13.582   9.286
 2609POPC   GL234430  42.460  13.617   9.135
 2609POPC   C1A34431  42.088  13.704   8.797
 2609POPC   D2A34432  42.270  13.756   8.353
 2609POPC   C3A34433  42.028  13.576   7.999
 2609POPC   C4A34434  42.045  13.667   7.563
 2609POPC   C1B34435  42.574  13.506   8.718
 2609POPC   C2B34436  42.742  13.388   8.317
 2609POPC   C3B34437  42.542  13.404   7.920
 2609POPC   C4B34438  42.663  13.210   7.543
 2610POPC   NC334439  41.362  40.945   9.383
 2610POPC   PO434440  41.604  40.285   9.402
 2610POPC   GL134441  41.655  40.608   9.140
 2610POPC   GL234442  41.925  40.816   9.277
 2610POPC   C1A34443  41.498  40.663   8.750
 2610POPC   D2A34444  41.676  40.616   8.363
 2610POPC   C3A34445  41.376  40.695   8.077
 2610POPC   C4A34446  41.552  40.546   7.732
 2610POPC   C1B34447  41.894  40.997   8.869
 2610POPC   C2B34448  41.639  41.105   8.509
 2610POPC   C3B34449  41.675  41.097   8.061
 2610POPC   C4B34450  41.680  41.025   7.617
 2611POPC   NC334451  28.972  18.895   9.506
 2611POPC   PO434452  29.047  19.534   9.501
 2611POPC   GL134453  29.157  19.271   9.159
 2611POPC   GL234454  28.822  19.139   9.091
 2611POPC   C1A34455  29.171  19.081   8.743
 2611POPC   D2A34456  29.335  18.885   8.404
 2611POPC   C3A34457  29.295  19.018   7.996
 2611POPC   C4A34458  29.379  18.796   7.633
 2611POPC   C1B34459  28.770  18.736   8.873
 2611POPC   C2B34460  28.910  18.631   8.506
 2611POPC   C3B34461  28.844  18.838   8.156
 2611POPC   C4B34462  28.871  18.905   7.738
 2612POPC   NC334463  14.688   7.640   9.666
 2612POPC   PO434464  15.070   7.092   9.548
 2612POPC   GL134465  15.141   7.308   9.191
 2612POPC   GL234466  15.009   7.609   9.263
 2612POPC   C1A34467  15.203   7.162   8.796
 2612POPC   D2A34468  15.465   7.165   8.468
 2612POPC   C3A34469  15.262   7.259   8.114
 2612POPC   C4A34470  15.061   7.192   7.743
 2612POPC   C1B34471  14.860   7.604   8.832
 2612POPC   C2B34472  14.846   7.807   8.427
 2612POPC   C3B34473  14.984   7.692   8.045
 2612POPC   C4B34474  14.805   7.634   7.658
 2613POPC   NC334475   6.438   3.966   9.443
 2613POPC   PO434476   6.653   4.632   9.448
 2613POPC   GL134477   6.545   4.394   9.124
 2613POPC   GL234478   6.177   4.309   9.167
 2613POPC   C1A34479   6.831   4.231   8.797
 2613POPC   D2A34480   6.927   4.502   8.448
 2613POPC   C3A34481   6.874   4.387   8.018
 2613POPC   C4A34482   6.802   4.656   7.660
 2613POPC   C1B34483   6.344   4.070   8.814
 2613POPC   C2B34484   6.429   4.339   8.492
 2613POPC   C3B34485   6.319   4.342   8.090
 2613POPC   C4B34486   6.457   4.273   7.700
 2614POPC   NC334487   5.325  39.701   9.377
 2614POPC   PO434488   4.907  40.275   9.439
 2614POPC   GL134489   5.126  40.139   9.076
 2614POPC   GL234490   5.347  39.868   8.905
 2614POPC   C1A34491   5.176  40.385   8.727
 2614POPC   D2A34492   5.210  40.388   8.307
 2614POPC   C3A34493   5.276  40.007   8.134
 2614POPC   C4A34494   5.053  40.105   7.775
 2614POPC   C1B34495   4.912  39.856   8.716
 2614POPC   C2B34496   4.667  39.634   8.401
 2614POPC   C3B34497   4.772  39.659   7.973
 2614POPC   C4B34498   5.158  39.636   7.794
 2615POPC   NC334499   9.034  40.903   9.544
 2615POPC   PO434500   9.478  40.471   9.237
 2615POPC   GL134501   9.081  40.608   9.120
 2615POPC   GL234502   8.723  40.758   9.165
 2615POPC   C1A34503   8.987  40.661   8.716
 2615POPC   D2A34504   9.244  40.652   8.357
 2615POPC   C3A34505   8.975  40.608   8.040
 2615POPC   C4A34506   9.015  40.811   7.741
 2615POPC   C1B34507   8.649  41.044   8.807
 2615POPC   C2B34508   8.790  40.971   8.372
 2615POPC   C3B34509   8.598  41.010   7.996
 2615POPC   C4B34510   8.518  40.649   7.757
 2616POPC   NC334511  10.498  25.645   9.366
 2616POPC   PO434512  10.972  25.164   9.462
 2616POPC   GL134513  10.652  25.105   9.121
 2616POPC   GL234514  10.472  25.425   8.928
 2616POPC   C1A34515  10.488  24.981   8.707
 2616POPC   D2A34516  10.509  25.335   8.416
 2616POPC   C3A34517  10.477  25.191   8.008
 2616POPC   C4A34518  10.194  25.009   7.727
 2616POPC   C1B34519  10.725  25.780   8.743
 2616POPC   C2B34520  10.777  25.892   8.329
 2616POPC   C3B34521  10.611  25.677   8.015
 2616POPC   C4B34522  10.653  25.498   7.625
 2617POPC   NC334523   6.111  28.535   9.449
 2617POPC   PO434524   5.712  28.007   9.697
 2617POPC   GL134525   5.787  28.244   9.192
 2617POPC   GL234526   5.455  28.311   8.978
 2617POPC   C1A34527   5.948  28.459   8.801
 2617POPC   D2A34528   6.153  28.636   8.430
 2617POPC   C3A34529   5.952  28.620   8.039
 2617POPC   C4A34530   5.972  28.873   7.704
 2617POPC   C1B34531   5.661  28.032   8.666
 2617POPC   C2B34532   5.909  28.193   8.338
 2617POPC   C3B34533   5.952  28.114   7.910
 2617POPC   C4B34534   5.901  28.381   7.566
 2618POPC   NC334535  24.682  38.986   9.741
 2618POPC   PO434536  24.725  39.550   9.514
 2618POPC   GL134537  24.782  39.234   9.204
 2618POPC   GL234538  24.500  39.242   8.968
 2618POPC   C1A34539  24.900  39.053   8.781
 2618POPC   D2A34540  24.693  39.283   8.442
 2618POPC   C3A34541  24.514  39.133   8.059
 2618POPC   C4A34542  24.667  39.163   7.684
 2618POPC   C1B34543  24.157  39.244   8.703
 2618POPC   C2B34544  24.188  39.428   8.337
 2618POPC   C3B34545  23.977  39.559   8.022
 2618POPC   C4B34546  24.195  39.371   7.682
 2619POPC   NC334547   5.432  10.800   9.433
 2619POPC   PO434548   4.907  10.413   9.443
 2619POPC   GL134549   5.151  10.482   9.124
 2619POPC   GL234550   4.897  10.535   8.880
 2619POPC   C1A34551   5.307  10.249   8.767
 2619POPC   D2A34552   5.142  10.362   8.376
 2619POPC   C3A34553   5.282  10.310   7.951
 2619POPC   C4A34554   5.387  10.213   7.506
 2619POPC   C1B34555   5.249  10.774   8.706
 2619POPC   C2B34556   5.353  10.997   8.356
 2619POPC   C3B34557   5.195  10.847   7.988
 2619POPC   C4B34558   5.064  10.658   7.592
 2620POPC   NC334559  25.180  27.734   9.583
 2620POPC   PO434560  25.766  27.369   9.325
 2620POPC   GL134561  25.424  27.640   9.132
 2620POPC   GL234562  25.058  27.530   9.149
 2620POPC   C1A34563  25.266  27.767   8.728
 2620POPC   D2A34564  25.317  27.450   8.399
 2620POPC   C3A34565  25.286  27.612   7.997
 2620POPC   C4A34566  25.292  27.442   7.592
 2620POPC   C1B34567  24.863  27.452   8.774
 2620POPC   C2B34568  24.828  27.656   8.418
 2620POPC   C3B34569  24.780  27.584   8.022
 2620POPC   C4B34570  24.798  27.366   7.688
 2621POPC   NC334571   7.633   9.860   9.498
 2621POPC   PO434572   7.140   9.489   9.628
 2621POPC   GL134573   7.340   9.542   9.206
 2621POPC   GL234574   7.720   9.541   9.104
 2621POPC   C1A34575   7.291   9.619   8.778
 2621POPC   D2A34576   7.230   9.443   8.410
 2621POPC   C3A34577   7.093   9.740   8.120
 2621POPC   C4A34578   7.198   9.738   7.686
 2621POPC   C1B34579   7.833   9.793   8.755
 2621POPC   C2B34580   7.587   9.916   8.402
 2621POPC   C3B34581   7.602   9.769   7.984
 2621POPC   C4B34582   7.685   9.743   7.524
 2622POPC   NC334583  11.099   0.419   9.544
 2622POPC   PO434584  11.736   0.489   9.530
 2622POPC   GL134585  11.450   0.243   9.172
 2622POPC   GL234586  11.032   0.239   9.090
 2622POPC   C1A34587  11.310   0.356   8.723
 2622POPC   D2A34588  11.015   0.276   8.423
 2622POPC   C3A34589  11.190   0.385   8.037
 2622POPC   C4A34590  11.467   0.240   7.699
 2622POPC   C1B34591  10.885   0.625   8.810
 2622POPC   C2B34592  10.851   0.751   8.340
 2622POPC   C3B34593  10.727   0.579   7.902
 2622POPC   C4B34594  11.056   0.487   7.561
 2623POPC   NC334595  11.136  19.597   9.680
 2623POPC   PO434596  11.486  20.139   9.584
 2623POPC   GL134597  11.419  19.804   9.269
 2623POPC   GL234598  11.101  19.598   9.186
 2623POPC   C1A34599  11.469  19.756   8.824
 2623POPC   D2A34600  11.640  19.505   8.515
 2623POPC   C3A34601  11.473  19.628   8.129
 2623POPC   C4A34602  11.166  19.658   7.805
 2623POPC   C1B34603  10.882  19.664   8.821
 2623POPC   C2B34604  11.089  19.738   8.430
 2623POPC   C3B34605  10.948  20.016   8.092
 2623POPC   C4B34606  10.695  19.915   7.738
 2624POPC   NC334607  36.807   3.846   9.454
 2624POPC   PO434608  37.031   3.221   9.560
 2624POPC   GL134609  36.926   3.404   9.189
 2624POPC   GL234610  37.151   3.666   9.102
 2624POPC   C1A34611  36.606   3.462   8.881
 2624POPC   D2A34612  36.632   3.725   8.529
 2624POPC   C3A34613  36.856   3.536   8.192
 2624POPC   C4A34614  36.751   3.718   7.804
 2624POPC   C1B34615  37.094   3.553   8.693
 2624POPC   C2B34616  37.280   3.258   8.435
 2624POPC   C3B34617  37.319   3.184   8.041
 2624POPC   C4B34618  37.252   3.549   7.802
 2625POPC   NC334619  41.688  21.068   9.371
 2625POPC   PO434620  41.452  21.709   9.523
 2625POPC   GL134621  41.541  21.494   9.132
 2625POPC   GL234622  41.372  21.156   8.989
 2625POPC   C1A34623  41.710  21.583   8.744
 2625POPC   D2A34624  41.778  21.427   8.332
 2625POPC   C3A34625  41.745  21.680   7.982
 2625POPC   C4A34626  41.432  21.748   7.641
 2625POPC   C1B34627  41.752  21.062   8.740
 2625POPC   C2B34628  41.977  20.971   8.371
 2625POPC   C3B34629  41.770  21.008   7.987
 2625POPC   C4B34630  41.491  21.274   7.813
 2626POPC   NC334631  40.298  39.500   9.690
 2626POPC   PO434632  40.242  40.074   9.422
 2626POPC   GL134633  40.063  39.912   9.065
 2626POPC   GL234634  40.381  39.735   9.010
 2626POPC   C1A34635  39.764  40.029   8.718
 2626POPC   D2A34636  39.705  40.409   8.446
 2626POPC   C3A34637  39.619  40.271   8.036
 2626POPC   C4A34638  39.950  40.257   7.751
 2626POPC   C1B34639  40.280  39.935   8.599
 2626POPC   C2B34640  40.091  40.058   8.221
 2626POPC   C3B34641  39.842  39.803   7.957
 2626POPC   C4B34642  39.673  39.457   7.737
 2627POPC   NC334643   1.018  44.935   9.394
 2627POPC   PO434644   1.669  44.813   9.318
 2627POPC   GL134645   1.399  44.618   9.130
 2627POPC   GL234646   1.193  44.467   9.334
 2627POPC   C1A34647   1.499  44.500   8.750
 2627POPC   D2A34648   1.572  44.819   8.476
 2627POPC   C3A34649   1.604  44.548   8.139
 2627POPC   C4A34650   1.502  44.605   7.739
 2627POPC   C1B34651   0.996  44.443   8.895
 2627POPC   C2B34652   1.078  44.652   8.506
 2627POPC   C3B34653   1.059  44.628   8.070
 2627POPC   C4B34654   1.080  44.281   7.763
 2628POPC   NC334655  21.393  42.112   9.527
 2628POPC   PO434656  21.000  42.616   9.465
 2628POPC   GL134657  21.249  42.441   9.109
 2628POPC   GL234658  21.154  42.098   9.082
 2628POPC   C1A34659  21.492  42.216   8.729
 2628POPC   D2A34660  21.809  42.370   8.436
 2628POPC   C3A34661  21.690  42.583   8.057
 2628POPC   C4A34662  21.810  42.717   7.654
 2628POPC   C1B34663  21.002  41.951   8.710
 2628POPC   C2B34664  21.091  42.019   8.341
 2628POPC   C3B34665  21.404  42.153   8.168
 2628POPC   C4B34666  21.390  42.060   7.781
 2629POPC   NC334667  20.629  33.619   9.740
 2629POPC   PO434668  20.176  34.074   9.481
 2629POPC   GL134669  20.520  34.106   9.171
 2629POPC   GL234670  20.914  34.135   9.170
 2629POPC   C1A34671  20.576  33.971   8.748
 2629POPC   D2A34672  20.263  33.864   8.419
 2629POPC   C3A34673  20.488  33.699   8.042
 2629POPC   C4A34674  20.599  33.787   7.632
 2629POPC   C1B34675  20.983  34.327   8.743
 2629POPC   C2B34676  20.819  34.212   8.326
 2629POPC   C3B34677  20.986  33.881   8.015
 2629POPC   C4B34678  20.957  33.445   7.796
 2630POPC   NC334679  31.544  29.407   9.297
 2630POPC   PO434680  31.258  29.885   9.584
 2630POPC   GL134681  31.351  29.970   9.148
 2630POPC   GL234682  31.089  30.220   9.069
 2630POPC   C1A34683  31.600  29.810   8.757
 2630POPC   D2A34684  31.685  30.000   8.357
 2630POPC   C3A34685  31.627  29.859   7.941
 2630POPC   C4A34686  31.517  29.918   7.518
 2630POPC   C1B34687  31.091  29.893   8.714
 2630POPC   C2B34688  31.183  29.847   8.239
 2630POPC   C3B34689  31.179  29.655   7.792
 2630POPC   C4B34690  31.090  29.745   7.324
 2631POPC   NC334691  38.213  14.909   9.158
 2631POPC   PO434692  37.563  15.044   9.461
 2631POPC   GL134693  37.758  15.241   9.105
 2631POPC   GL234694  37.757  14.954   8.968
 2631POPC   C1A34695  37.745  15.322   8.643
 2631POPC   D2A34696  38.004  15.246   8.293
 2631POPC   C3A34697  37.769  15.317   7.944
 2631POPC   C4A34698  37.777  15.637   7.641
 2631POPC   C1B34699  37.492  14.780   8.682
 2631POPC   C2B34700  37.286  14.971   8.375
 2631POPC   C3B34701  37.219  14.901   8.014
 2631POPC   C4B34702  37.467  14.967   7.695
 2632POPC   NC334703  19.824  22.376   9.478
 2632POPC   PO434704  19.584  21.691   9.389
 2632POPC   GL134705  19.850  21.877   9.100
 2632POPC   GL234706  20.025  22.202   9.046
 2632POPC   C1A34707  19.929  21.832   8.681
 2632POPC   D2A34708  20.008  22.107   8.385
 2632POPC   C3A34709  20.010  21.952   7.994
 2632POPC   C4A34710  20.197  22.353   7.890
 2632POPC   C1B34711  19.681  22.272   8.744
 2632POPC   C2B34712  19.606  22.470   8.319
 2632POPC   C3B34713  19.581  22.442   7.844
 2632POPC   C4B34714  19.644  22.546   7.355
 2633POPC   NC334715  24.696   8.721   9.851
 2633POPC   PO434716  25.176   8.932   9.412
 2633POPC   GL134717  25.044   8.986   9.004
 2633POPC   GL234718  24.728   9.172   9.037
 2633POPC   C1A34719  25.187   8.942   8.592
 2633POPC   D2A34720  25.100   9.082   8.192
 2633POPC   C3A34721  25.383   8.946   7.845
 2633POPC   C4A34722  25.746   8.940   7.553
 2633POPC   C1B34723  24.671   8.926   8.658
 2633POPC   C2B34724  24.811   8.656   8.358
 2633POPC   C3B34725  24.829   8.778   7.897
 2633POPC   C4B34726  24.970   9.208   7.715
 2634POPC   NC334727  30.454   8.369   9.423
 2634POPC   PO434728  31.084   8.459   9.118
 2634POPC   GL134729  30.697   8.308   8.979
 2634POPC   GL234730  30.747   8.057   9.137
 2634POPC   C1A34731  30.474   8.201   8.634
 2634POPC   D2A34732  30.500   8.395   8.243
 2634POPC   C3A34733  30.934   8.479   8.200
 2634POPC   C4A34734  30.950   8.250   7.829
 2634POPC   C1B34735  30.905   7.918   8.705
 2634POPC   C2B34736  30.820   7.989   8.289
 2634POPC   C3B34737  30.601   7.872   7.932
 2634POPC   C4B34738  30.855   7.649   7.678
 2635POPC   NC334739  22.624  12.387   9.522
 2635POPC   PO434740  22.981  11.837   9.407
 2635POPC   GL134741  22.990  12.215   9.129
 2635POPC   GL234742  22.710  12.448   9.018
 2635POPC   C1A34743  23.112  12.329   8.702
 2635POPC   D2A34744  22.942  12.520   8.356
 2635POPC   C3A34745  23.138  12.294   8.046
 2635POPC   C4A34746  22.946  12.001   7.743
 2635POPC   C1B34747  22.671  12.065   8.713
 2635POPC   C2B34748  22.734  12.073   8.244
 2635POPC   C3B34749  22.683  12.421   7.872
 2635POPC   C4B34750  22.704  12.364   7.373
 2636POPC   NC334751   1.859  20.577   9.511
 2636POPC   PO434752   2.299  21.073   9.398
 2636POPC   GL134753   2.123  20.769   9.110
 2636POPC   GL234754   2.140  20.375   9.144
 2636POPC   C1A34755   2.023  20.726   8.692
 2636POPC   D2A34756   2.113  20.526   8.357
 2636POPC   C3A34757   2.004  20.826   8.088
 2636POPC   C4A34758   2.093  20.694   7.724
 2636POPC   C1B34759   1.908  20.246   8.786
 2636POPC   C2B34760   1.627  20.363   8.449
 2636POPC   C3B34761   1.735  20.402   8.002
 2636POPC   C4B34762   1.617  20.557   7.636
 2637POPC   NC334763  42.541  30.968   9.805
 2637POPC   PO434764  42.029  31.120   9.528
 2637POPC   GL134765  42.117  30.902   9.141
 2637POPC   GL234766  42.430  30.698   9.118
 2637POPC   C1A34767  42.066  30.799   8.711
 2637POPC   D2A34768  42.405  30.816   8.420
 2637POPC   C3A34769  42.419  30.735   7.986
 2637POPC   C4A34770  42.165  30.973   7.725
 2637POPC   C1B34771  42.392  30.408   8.763
 2637POPC   C2B34772  42.502  30.298   8.351
 2637POPC   C3B34773  42.285  30.232   7.995
 2637POPC   C4B34774  42.363  30.387   7.585
 2638POPC   NC334775  17.549   8.716  10.037
 2638POPC   PO434776  17.687   8.798   9.390
 2638POPC   GL134777  17.559   9.039   9.069
 2638POPC   GL234778  17.736   9.346   9.246
 2638POPC   C1A34779  17.418   8.964   8.612
 2638POPC   D2A34780  17.593   9.072   8.241
 2638POPC   C3A34781  17.517   9.084   7.809
 2638POPC   C4A34782  17.407   8.982   7.403
 2638POPC   C1B34783  17.995   9.352   8.915
 2638POPC   C2B34784  17.918   9.386   8.474
 2638POPC   C3B34785  17.896   9.413   8.029
 2638POPC   C4B34786  17.815   9.734   7.752
 2639POPC   NC334787  24.554  22.206   9.506
 2639POPC   PO434788  24.012  21.799   9.458
 2639POPC   GL134789  24.184  22.098   9.174
 2639POPC   GL234790  24.460  21.864   9.139
 2639POPC   C1A34791  24.441  22.235   8.799
 2639POPC   D2A34792  24.646  22.460   8.451
 2639POPC   C3A34793  24.475  22.317   8.106
 2639POPC   C4A34794  24.219  22.420   7.780
 2639POPC   C1B34795  24.773  21.842   8.790
 2639POPC   C2B34796  24.833  21.977   8.355
 2639POPC   C3B34797  24.663  21.891   7.934
 2639POPC   C4B34798  24.679  21.898   7.416
 2640POPC   NC334799  14.697  24.990   9.324
 2640POPC   PO434800  14.199  25.360   9.651
 2640POPC   GL134801  14.333  25.299   9.149
 2640POPC   GL234802  14.664  25.356   8.907
 2640POPC   C1A34803  14.310  25.003   8.785
 2640POPC   D2A34804  14.048  24.941   8.448
 2640POPC   C3A34805  14.251  24.979   8.051
 2640POPC   C4A34806  14.105  25.175   7.708
 2640POPC   C1B34807  14.318  25.516   8.671
 2640POPC   C2B34808  14.305  25.447   8.250
 2640POPC   C3B34809  14.500  25.448   7.834
 2640POPC   C4B34810  14.671  25.298   7.418
 2641POPC   NC334811  34.148  18.358   9.315
 2641POPC   PO434812  33.585  18.138   9.634
 2641POPC   GL134813  33.652  18.157   9.181
 2641POPC   GL234814  33.381  18.297   8.962
 2641POPC   C1A34815  33.864  18.254   8.778
 2641POPC   D2A34816  33.748  18.103   8.404
 2641POPC   C3A34817  33.785  18.275   8.010
 2641POPC   C4A34818  34.113  18.198   7.743
 2641POPC   C1B34819  33.530  18.578   8.635
 2641POPC   C2B34820  33.592  18.716   8.229
 2641POPC   C3B34821  33.378  18.564   7.863
 2641POPC   C4B34822  33.532  18.326   7.510
 2642POPC   NC334823   5.097  30.886   9.442
 2642POPC   PO434824   5.196  31.459   9.840
 2642POPC   GL134825   5.324  31.535   9.378
 2642POPC   GL234826   5.397  31.216   9.183
 2642POPC   C1A34827   5.190  31.621   8.941
 2642POPC   D2A34828   4.921  31.499   8.558
 2642POPC   C3A34829   5.036  31.578   8.131
 2642POPC   C4A34830   4.985  31.420   7.717
 2642POPC   C1B34831   5.260  31.174   8.743
 2642POPC   C2B34832   5.437  31.319   8.362
 2642POPC   C3B34833   5.417  31.225   7.917
 2642POPC   C4B34834   5.408  31.262   7.449
 2643POPC   NC334835  11.464  18.602   9.261
 2643POPC   PO434836  11.246  19.117   9.666
 2643POPC   GL134837  11.353  19.141   9.224
 2643POPC   GL234838  11.619  19.349   9.112
 2643POPC   C1A34839  11.225  19.284   8.797
 2643POPC   D2A34840  11.144  18.992   8.481
 2643POPC   C3A34841  11.139  19.223   8.102
 2643POPC   C4A34842  10.939  19.017   7.789
 2643POPC   C1B34843  11.635  19.011   8.738
 2643POPC   C2B34844  11.593  19.064   8.241
 2643POPC   C3B34845  11.439  18.927   7.817
 2643POPC   C4B34846  11.596  18.593   7.546
 2644POPC   NC334847  12.467  25.384   9.365
 2644POPC   PO434848  12.027  24.880   9.365
 2644POPC   GL134849  12.030  25.311   9.130
 2644POPC   GL234850  11.769  25.476   8.974
 2644POPC   C1A34851  12.176  25.466   8.686
 2644POPC   D2A34852  12.019  25.392   8.225
 2644POPC   C3A34853  12.335  25.404   7.852
 2644POPC   C4A34854  12.386  25.277   7.371
 2644POPC   C1B34855  11.797  25.093   8.732
 2644POPC   C2B34856  11.879  24.901   8.368
 2644POPC   C3B34857  12.162  24.925   8.015
 2644POPC   C4B34858  11.992  25.099   7.638
 2645POPC   NC334859  19.233   1.081   9.285
 2645POPC   PO434860  19.813   1.152   9.552
 2645POPC   GL134861  19.741   1.188   9.151
 2645POPC   GL234862  19.557   1.437   9.079
 2645POPC   C1A34863  20.003   1.096   8.822
 2645POPC   D2A34864  20.219   1.226   8.443
 2645POPC   C3A34865  20.142   1.048   8.037
 2645POPC   C4A34866  19.988   1.268   7.674
 2645POPC   C1B34867  19.404   1.300   8.675
 2645POPC   C2B34868  19.537   1.317   8.261
 2645POPC   C3B34869  19.487   1.241   7.847
 2645POPC   C4B34870  19.587   1.542   7.541
 2646POPC   NC334871  11.937  20.049   9.494
 2646POPC   PO434872  12.175  19.480   9.602
 2646POPC   GL134873  12.230  19.700   9.194
 2646POPC   GL234874  12.371  20.044   9.200
 2646POPC   C1A34875  12.005  19.851   8.785
 2646POPC   D2A34876  12.126  19.643   8.384
 2646POPC   C3A34877  11.960  19.655   7.968
 2646POPC   C4A34878  11.666  19.378   7.751
 2646POPC   C1B34879  12.314  20.277   8.779
 2646POPC   C2B34880  12.251  20.136   8.340
 2646POPC   C3B34881  12.402  19.946   7.924
 2646POPC   C4B34882  12.500  20.176   7.515
 2647POPC   NC334883   3.055   9.950   9.523
 2647POPC   PO434884   2.639   9.548   9.381
 2647POPC   GL134885   2.943   9.633   9.094
 2647POPC   GL234886   2.840   9.327   8.925
 2647POPC   C1A34887   3.048   9.918   8.741
 2647POPC   D2A34888   3.010  10.245   8.400
 2647POPC   C3A34889   3.107   9.998   8.011
 2647POPC   C4A34890   2.949   9.810   7.632
 2647POPC   C1B34891   2.590   9.692   8.729
 2647POPC   C2B34892   2.558   9.910   8.334
 2647POPC   C3B34893   2.503   9.755   7.905
 2647POPC   C4B34894   2.470   9.760   7.449
 2648POPC   NC334895  11.573  29.685   9.988
 2648POPC   PO434896  11.496  30.146   9.484
 2648POPC   GL134897  11.313  29.976   9.173
 2648POPC   GL234898  10.987  29.878   9.283
 2648POPC   C1A34899  11.506  29.838   8.804
 2648POPC   D2A34900  11.643  29.653   8.463
 2648POPC   C3A34901  11.622  29.916   8.154
 2648POPC   C4A34902  11.613  29.785   7.763
 2648POPC   C1B34903  10.997  29.847   8.809
 2648POPC   C2B34904  11.208  30.057   8.428
 2648POPC   C3B34905  11.143  29.945   7.963
 2648POPC   C4B34906  11.139  29.623   7.603
 2649POPC   NC334907  18.803   4.387   9.601
 2649POPC   PO434908  19.299   4.109   9.238
 2649POPC   GL134909  19.072   4.456   9.079
 2649POPC   GL234910  18.736   4.430   9.081
 2649POPC   C1A34911  19.019   4.410   8.648
 2649POPC   D2A34912  19.256   4.441   8.324
 2649POPC   C3A34913  19.115   4.146   8.058
 2649POPC   C4A34914  18.858   4.158   7.772
 2649POPC   C1B34915  18.675   4.748   8.771
 2649POPC   C2B34916  18.864   4.839   8.392
 2649POPC   C3B34917  18.814   4.646   7.999
 2649POPC   C4B34918  18.829   4.607   7.561
 2650POPC   NC334919  32.048   2.418   9.409
 2650POPC   PO434920  32.342   1.684   9.400
 2650POPC   GL134921  32.216   1.937   9.068
 2650POPC   GL234922  32.345   2.243   9.029
 2650POPC   C1A34923  32.186   1.916   8.631
 2650POPC   D2A34924  31.960   1.676   8.357
 2650POPC   C3A34925  32.166   1.817   8.019
 2650POPC   C4A34926  32.354   2.111   7.721
 2650POPC   C1B34927  32.212   2.429   8.653
 2650POPC   C2B34928  32.238   2.282   8.242
 2650POPC   C3B34929  32.012   2.445   7.942
 2650POPC   C4B34930  32.130   2.520   7.543
 2651POPC   NC334931  16.643  13.584   9.575
 2651POPC   PO434932  17.318  13.333   9.457
 2651POPC   GL134933  17.013  13.259   9.110
 2651POPC   GL234934  16.721  13.493   9.066
 2651POPC   C1A34935  16.906  13.201   8.680
 2651POPC   D2A34936  16.852  13.482   8.343
 2651POPC   C3A34937  16.941  13.316   7.957
 2651POPC   C4A34938  16.593  13.388   7.723
 2651POPC   C1B34939  16.637  13.830   8.749
 2651POPC   C2B34940  16.907  14.000   8.401
 2651POPC   C3B34941  17.030  13.826   7.996
 2651POPC   C4B34942  16.926  13.744   7.554
 2652POPC   NC334943  41.367   8.064  10.181
 2652POPC   PO434944  41.718   8.281   9.567
 2652POPC   GL134945  41.575   7.994   9.185
 2652POPC   GL234946  41.586   8.268   8.956
 2652POPC   C1A34947  41.479   7.852   8.702
 2652POPC   D2A34948  41.643   8.206   8.429
 2652POPC   C3A34949  41.494   8.361   7.985
 2652POPC   C4A34950  41.618   8.534   7.564
 2652POPC   C1B34951  41.952   7.937   8.816
 2652POPC   C2B34952  42.085   7.853   8.412
 2652POPC   C3B34953  41.844   7.934   8.067
 2652POPC   C4B34954  41.495   7.862   7.840
 2653POPC   NC334955  25.003  41.411   9.537
 2653POPC   PO434956  25.373  41.949   9.701
 2653POPC   GL134957  25.430  41.563   9.285
 2653POPC   GL234958  25.132  41.438   9.067
 2653POPC   C1A34959  25.508  41.603   8.781
 2653POPC   D2A34960  25.317  41.897   8.426
 2653POPC   C3A34961  25.566  41.927   8.038
 2653POPC   C4A34962  25.590  41.690   7.656
 2653POPC   C1B34963  25.002  41.560   8.686
 2653POPC   C2B34964  25.254  41.382   8.359
 2653POPC   C3B34965  25.224  41.519   7.978
 2653POPC   C4B34966  24.892  41.498   7.726
 2654POPC   NC334967  26.501  25.423   9.477
 2654POPC   PO434968  25.938  25.060   9.530
 2654POPC   GL134969  26.154  25.205   9.157
 2654POPC   GL234970  26.126  25.590   9.162
 2654POPC   C1A34971  26.189  25.012   8.741
 2654POPC   D2A34972  25.990  25.042   8.324
 2654POPC   C3A34973  26.225  25.059   7.930
 2654POPC   C4A34974  26.037  25.156   7.521
 2654POPC   C1B34975  26.408  25.485   8.813
 2654POPC   C2B34976  26.378  25.649   8.404
 2654POPC   C3B34977  26.316  25.560   7.982
 2654POPC   C4B34978  26.172  25.644   7.584
 2655POPC   NC334979  12.183  22.612   9.713
 2655POPC   PO434980  12.023  21.969   9.530
 2655POPC   GL134981  12.064  22.130   9.137
 2655POPC   GL234982  12.288  22.374   9.202
 2655POPC   C1A34983  11.804  22.192   8.744
 2655POPC   D2A34984  11.714  22.339   8.319
 2655POPC   C3A34985  11.891  22.119   7.966
 2655POPC   C4A34986  11.955  22.277   7.590
 2655POPC   C1B34987  12.343  22.270   8.731
 2655POPC   C2B34988  12.308  22.191   8.281
 2655POPC   C3B34989  12.355  22.379   7.884
 2655POPC   C4B34990  12.385  22.501   7.436
 2656POPC   NC334991  29.748  41.281   9.345
 2656POPC   PO434992  30.350  41.690   9.437
 2656POPC   GL134993  30.122  41.729   9.090
 2656POPC   GL234994  29.788  41.812   9.168
 2656POPC   C1A34995  29.953  41.506   8.756
 2656POPC   D2A34996  29.851  41.304   8.383
 2656POPC   C3A34997  30.015  41.488   7.986
 2656POPC   C4A34998  30.095  41.429   7.520
 2656POPC   C1B34999  29.701  41.969   8.757
 2656POPC   C2B35000  29.650  41.786   8.348
 2656POPC   C3B35001  29.657  41.924   7.920
 2656POPC   C4B35002  29.971  41.923   7.614
 2657POPC   NC335003   3.174  22.363   9.322
 2657POPC   PO435004   3.535  21.804   9.435
 2657POPC   GL135005   3.572  21.950   9.065
 2657POPC   GL235006   3.674  22.275   9.153
 2657POPC   C1A35007   3.300  22.009   8.710
 2657POPC   D2A35008   3.395  22.194   8.331
 2657POPC   C3A35009   3.177  22.293   7.965
 2657POPC   C4A35010   3.335  22.339   7.570
 2657POPC   C1B35011   3.556  22.477   8.753
 2657POPC   C2B35012   3.788  22.500   8.367
 2657POPC   C3B35013   3.703  22.451   7.921
 2657POPC   C4B35014   3.722  22.687   7.507
 2658POPC   NC335015  16.977   1.577   9.600
 2658POPC   PO435016  16.928   2.205   9.404
 2658POPC   GL135017  16.751   1.910   9.167
 2658POPC   GL235018  17.034   1.919   8.961
 2658POPC   C1A35019  16.594   1.768   8.757
 2658POPC   D2A35020  16.699   1.915   8.339
 2658POPC   C3A35021  16.525   1.865   7.943
 2658POPC   C4A35022  16.838   1.845   7.580
 2658POPC   C1B35023  16.798   2.244   8.737
 2658POPC   C2B35024  16.930   2.402   8.363
 2658POPC   C3B35025  17.032   2.153   8.011
 2658POPC   C4B35026  16.719   2.303   7.792
 2659POPC   NC335027  19.624  26.973   9.299
 2659POPC   PO435028  20.071  26.540   9.476
 2659POPC   GL135029  19.928  26.585   9.113
 2659POPC   GL235030  20.101  26.902   9.082
 2659POPC   C1A35031  19.752  26.655   8.726
 2659POPC   D2A35032  19.656  26.830   8.365
 2659POPC   C3A35033  19.817  26.710   7.955
 2659POPC   C4A35034  19.755  26.970   7.582
 2659POPC   C1B35035  20.051  27.068   8.673
 2659POPC   C2B35036  20.123  27.256   8.295
 2659POPC   C3B35037  20.157  27.098   7.897
 2659POPC   C4B35038  20.262  27.286   7.518
 2660POPC   NC335039  13.823  44.349   9.660
 2660POPC   PO435040  13.732  43.705   9.488
 2660POPC   GL135041  13.687  43.847   9.122
 2660POPC   GL235042  13.545  44.112   9.242
 2660POPC   C1A35043  13.789  43.696   8.722
 2660POPC   D2A35044  13.865  43.534   8.337
 2660POPC   C3A35045  13.615  43.749   8.097
 2660POPC   C4A35046  13.654  43.823   7.689
 2660POPC   C1B35047  13.465  44.145   8.794
 2660POPC   C2B35048  13.539  44.206   8.362
 2660POPC   C3B35049  13.774  44.232   7.986
 2660POPC   C4B35050  13.657  44.312   7.555
 2661POPC   NC335051  36.360   9.063   9.651
 2661POPC   PO435052  37.010   9.053   9.416
 2661POPC   GL135053  36.648   9.022   9.176
 2661POPC   GL235054  36.503   8.689   9.273
 2661POPC   C1A35055  36.772   9.070   8.736
 2661POPC   D2A35056  37.039   8.870   8.393
 2661POPC   C3A35057  37.039   9.156   8.045
 2661POPC   C4A35058  36.789   9.166   7.707
 2661POPC   C1B35059  36.517   8.624   8.805
 2661POPC   C2B35060  36.473   8.834   8.400
 2661POPC   C3B35061  36.663   8.765   8.020
 2661POPC   C4B35062  37.024   8.674   7.835
 2662POPC   NC335063   5.119  16.478   9.382
 2662POPC   PO435064   5.421  16.990   9.703
 2662POPC   GL135065   5.401  16.977   9.180
 2662POPC   GL235066   5.066  16.865   9.035
 2662POPC   C1A35067   5.442  16.823   8.690
 2662POPC   D2A35068   5.400  16.627   8.254
 2662POPC   C3A35069   5.047  16.713   7.962
 2662POPC   C4A35070   5.067  17.014   7.595
 2662POPC   C1B35071   5.011  16.560   8.705
 2662POPC   C2B35072   4.710  16.494   8.403
 2662POPC   C3B35073   4.583  16.466   7.998
 2662POPC   C4B35074   4.656  16.701   7.607
 2663POPC   NC335075  14.173  30.861   9.783
 2663POPC   PO435076  13.613  30.587   9.475
 2663POPC   GL135077  13.657  30.462   9.092
 2663POPC   GL235078  13.390  30.204   9.049
 2663POPC   C1A35079  13.816  30.726   8.736
 2663POPC   D2A35080  13.925  31.022   8.441
 2663POPC   C3A35081  13.733  30.814   8.127
 2663POPC   C4A35082  13.831  30.667   7.747
 2663POPC   C1B35083  13.248  30.591   8.793
 2663POPC   C2B35084  13.344  30.940   8.477
 2663POPC   C3B35085  13.297  31.078   8.030
 2663POPC   C4B35086  13.328  30.756   7.711
 2664POPC   NC335087  21.313  13.487   9.604
 2664POPC   PO435088  21.488  14.064   9.701
 2664POPC   GL135089  21.407  13.815   9.206
 2664POPC   GL235090  21.176  13.511   9.138
 2664POPC   C1A35091  21.413  13.700   8.727
 2664POPC   D2A35092  21.665  13.760   8.332
 2664POPC   C3A35093  21.519  13.847   7.916
 2664POPC   C4A35094  21.615  13.717   7.510
 2664POPC   C1B35095  20.967  13.380   8.790
 2664POPC   C2B35096  21.163  13.208   8.419
 2664POPC   C3B35097  21.409  13.351   8.072
 2664POPC   C4B35098  21.236  13.407   7.663
 2665POPC   NC335099  35.382  18.949   9.906
 2665POPC   PO435100  35.260  19.188   9.315
 2665POPC   GL135101  35.471  19.007   9.019
 2665POPC   GL235102  35.548  18.701   9.217
 2665POPC   C1A35103  35.535  19.209   8.664
 2665POPC   D2A35104  35.282  19.358   8.359
 2665POPC   C3A35105  35.497  19.280   8.004
 2665POPC   C4A35106  35.361  19.344   7.620
 2665POPC   C1B35107  35.511  18.588   8.775
 2665POPC   C2B35108  35.485  18.789   8.383
 2665POPC   C3B35109  35.396  18.791   7.935
 2665POPC   C4B35110  35.702  18.958   7.619
 2666POPC   NC335111  23.723  29.630   9.661
 2666POPC   PO435112  23.345  30.150   9.632
 2666POPC   GL135113  23.663  30.135   9.261
 2666POPC   GL235114  23.691  29.788   9.181
 2666POPC   C1A35115  23.753  30.120   8.774
 2666POPC   D2A35116  23.840  30.097   8.296
 2666POPC   C3A35117  23.644  30.082   7.866
 2666POPC   C4A35118  23.781  30.272   7.455
 2666POPC   C1B35119  23.689  29.564   8.802
 2666POPC   C2B35120  23.699  29.573   8.367
 2666POPC   C3B35121  23.928  29.671   8.020
 2666POPC   C4B35122  23.657  29.507   7.700
 2667POPC   NC335123  12.428  35.206   9.303
 2667POPC   PO435124  11.860  35.362   9.745
 2667POPC   GL135125  11.885  35.313   9.254
 2667POPC   GL235126  11.919  35.656   9.135
 2667POPC   C1A35127  11.973  35.068   8.814
 2667POPC   D2A35128  11.736  35.039   8.393
 2667POPC   C3A35129  11.925  35.048   7.944
 2667POPC   C4A35130  12.137  35.291   7.570
 2667POPC   C1B35131  12.126  35.578   8.767
 2667POPC   C2B35132  12.215  35.685   8.351
 2667POPC   C3B35133  12.024  35.592   7.975
 2667POPC   C4B35134  11.961  35.779   7.559
 2668POPC   NC335135  37.071   4.448   9.492
 2668POPC   PO435136  36.529   4.073   9.181
 2668POPC   GL135137  36.744   4.378   9.065
 2668POPC   GL235138  37.049   4.166   9.055
 2668POPC   C1A35139  36.804   4.329   8.623
 2668POPC   D2A35140  36.978   4.091   8.329
 2668POPC   C3A35141  36.849   4.217   7.939
 2668POPC   C4A35142  36.891   4.174   7.558
 2668POPC   C1B35143  37.180   4.539   8.879
 2668POPC   C2B35144  37.158   4.694   8.519
 2668POPC   C3B35145  37.105   4.577   8.148
 2668POPC   C4B35146  37.212   4.580   7.724
 2669POPC   NC335147  34.014  13.558   9.473
 2669POPC   PO435148  33.354  13.299   9.455
 2669POPC   GL135149  33.618  13.543   9.139
 2669POPC   GL235150  33.770  13.906   9.202
 2669POPC   C1A35151  33.929  13.528   8.800
 2669POPC   D2A35152  33.959  13.177   8.481
 2669POPC   C3A35153  33.661  13.252   8.136
 2669POPC   C4A35154  33.789  13.589   7.869
 2669POPC   C1B35155  33.591  13.970   8.811
 2669POPC   C2B35156  33.741  13.911   8.402
 2669POPC   C3B35157  33.605  14.080   8.019
 2669POPC   C4B35158  33.708  14.024   7.615
 2670POPC   NC335159  32.009  12.673   9.593
 2670POPC   PO435160  32.660  12.653   9.698
 2670POPC   GL135161  32.532  12.759   9.254
 2670POPC   GL235162  32.174  12.902   9.149
 2670POPC   C1A35163  32.463  12.641   8.820
 2670POPC   D2A35164  32.297  12.849   8.459
 2670POPC   C3A35165  32.406  12.691   8.076
 2670POPC   C4A35166  32.476  12.755   7.667
 2670POPC   C1B35167  31.962  13.095   8.733
 2670POPC   C2B35168  31.916  13.116   8.232
 2670POPC   C3B35169  31.996  12.849   7.849
 2670POPC   C4B35170  32.097  12.922   7.374
 2671POPC   NC335171  16.103   6.533   9.564
 2671POPC   PO435172  15.589   6.884   9.575
 2671POPC   GL135173  15.842   6.832   9.230
 2671POPC   GL235174  15.941   7.188   9.259
 2671POPC   C1A35175  15.998   6.575   8.838
 2671POPC   D2A35176  15.873   6.283   8.466
 2671POPC   C3A35177  15.721   6.435   8.027
 2671POPC   C4A35178  15.995   6.417   7.632
 2671POPC   C1B35179  15.830   7.154   8.838
 2671POPC   C2B35180  15.933   6.935   8.468
 2671POPC   C3B35181  15.752   6.975   8.077
 2671POPC   C4B35182  15.948   6.929   7.701
 2672POPC   NC335183  34.396   9.388   9.606
 2672POPC   PO435184  34.476   9.985   9.751
 2672POPC   GL135185  34.440   9.773   9.276
 2672POPC   GL235186  34.080   9.680   9.233
 2672POPC   C1A35187  34.738   9.702   8.856
 2672POPC   D2A35188  34.927   9.826   8.480
 2672POPC   C3A35189  34.671   9.904   8.142
 2672POPC   C4A35190  34.817   9.958   7.717
 2672POPC   C1B35191  34.261   9.583   8.830
 2672POPC   C2B35192  34.188   9.681   8.425
 2672POPC   C3B35193  34.312   9.552   8.036
 2672POPC   C4B35194  34.347   9.818   7.744
 2673POPC   NC335195  44.085  15.291   9.457
 2673POPC   PO435196  44.828  15.110   9.449
 2673POPC   GL135197  44.636  15.225   9.083
 2673POPC   GL235198  44.775  14.940   8.942
 2673POPC   C1A35199  44.550  15.283   8.625
 2673POPC   D2A35200  44.850  15.244   8.260
 2673POPC   C3A35201  44.638  15.232   7.853
 2673POPC   C4A35202  44.496  15.610   7.611
 2673POPC   C1B35203  44.525  14.770   8.636
 2673POPC   C2B35204  44.417  14.947   8.249
 2673POPC   C3B35205  44.341  14.752   7.871
 2673POPC   C4B35206  44.559  14.700   7.524
 2674POPC   NC335207  43.519  42.379   9.110
 2674POPC   PO435208  43.001  42.460   9.471
 2674POPC   GL135209  42.996  42.280   9.063
 2674POPC   GL235210  42.709  42.490   9.028
 2674POPC   C1A35211  43.110  42.114   8.661
 2674POPC   D2A35212  43.411  41.913   8.398
 2674POPC   C3A35213  43.364  42.132   8.018
 2674POPC   C4A35214  43.101  42.340   7.720
 2674POPC   C1B35215  42.860  42.554   8.626
 2674POPC   C2B35216  42.971  42.415   8.236
 2674POPC   C3B35217  42.659  42.370   7.947
 2674POPC   C4B35218  42.627  42.783   7.845
 2675POPC   NC335219   3.198   3.079   9.289
 2675POPC   PO435220   3.860   3.121   9.548
 2675POPC   GL135221   3.661   2.907   9.186
 2675POPC   GL235222   3.639   2.551   9.101
 2675POPC   C1A35223   3.573   2.897   8.735
 2675POPC   D2A35224   3.754   2.632   8.438
 2675POPC   C3A35225   3.776   2.841   8.067
 2675POPC   C4A35226   3.469   2.917   7.779
 2675POPC   C1B35227   3.296   2.485   8.773
 2675POPC   C2B35228   3.344   2.328   8.343
 2675POPC   C3B35229   3.301   2.460   7.908
 2675POPC   C4B35230   3.345   2.463   7.453
 2676POPC   NC335231   8.184   2.284   9.395
 2676POPC   PO435232   8.218   2.981   9.525
 2676POPC   GL135233   8.279   2.744   9.188
 2676POPC   GL235234   8.589   2.563   9.156
 2676POPC   C1A35235   8.185   2.692   8.788
 2676POPC   D2A35236   7.932   2.759   8.455
 2676POPC   C3A35237   8.144   2.843   8.077
 2676POPC   C4A35238   8.023   2.698   7.700
 2676POPC   C1B35239   8.651   2.910   8.864
 2676POPC   C2B35240   8.506   3.048   8.462
 2676POPC   C3B35241   8.651   2.913   8.045
 2676POPC   C4B35242   8.521   2.809   7.654
 2677POPC   NC335243  12.701  38.891   9.491
 2677POPC   PO435244  12.997  39.528   9.339
 2677POPC   GL135245  12.680  39.272   9.135
 2677POPC   GL235246  12.756  39.501   8.878
 2677POPC   C1A35247  12.501  39.102   8.740
 2677POPC   D2A35248  12.638  39.316   8.371
 2677POPC   C3A35249  12.770  39.074   8.009
 2677POPC   C4A35250  12.809  39.176   7.575
 2677POPC   C1B35251  13.170  39.475   8.692
 2677POPC   C2B35252  13.141  39.341   8.266
 2677POPC   C3B35253  13.050  39.524   7.888
 2677POPC   C4B35254  13.422  39.573   7.679
 2678POPC   NC335255  27.537  40.097   9.538
 2678POPC   PO435256  27.284  39.405   9.533
 2678POPC   GL135257  27.586  39.675   9.251
 2678POPC   GL235258  27.416  40.003   9.075
 2678POPC   C1A35259  27.839  39.826   8.873
 2678POPC   D2A35260  27.687  40.151   8.604
 2678POPC   C3A35261  27.742  40.160   8.138
 2678POPC   C4A35262  27.706  40.018   7.695
 2678POPC   C1B35263  27.158  40.130   8.757
 2678POPC   C2B35264  27.228  40.275   8.354
 2678POPC   C3B35265  27.272  40.101   7.970
 2678POPC   C4B35266  27.008  40.144   7.644
 2679POPC   NC335267  29.352  15.330   9.544
 2679POPC   PO435268  28.711  15.325   9.313
 2679POPC   GL135269  29.082  15.098   9.147
 2679POPC   GL235270  29.371  15.325   9.060
 2679POPC   C1A35271  28.935  14.844   8.815
 2679POPC   D2A35272  28.867  14.914   8.399
 2679POPC   C3A35273  29.095  14.802   8.030
 2679POPC   C4A35274  28.833  14.940   7.710
 2679POPC   C1B35275  29.111  15.313   8.687
 2679POPC   C2B35276  29.307  15.179   8.323
 2679POPC   C3B35277  29.239  15.312   7.912
 2679POPC   C4B35278  28.855  15.454   7.760
 2680POPC   NC335279  34.984  24.144   9.378
 2680POPC   PO435280  34.333  24.527   9.405
 2680POPC   GL135281  34.464  24.341   9.062
 2680POPC   GL235282  34.802  24.485   9.034
 2680POPC   C1A35283  34.404  24.461   8.624
 2680POPC   D2A35284  34.568  24.739   8.278
 2680POPC   C3A35285  34.381  24.661   7.874
 2680POPC   C4A35286  34.262  24.248   7.747
 2680POPC   C1B35287  34.787  24.116   8.758
 2680POPC   C2B35288  34.823  24.272   8.396
 2680POPC   C3B35289  34.686  24.272   8.035
 2680POPC   C4B35290  34.863  24.516   7.748
 2681POPC   NC335291   9.852  40.527   9.499
 2681POPC   PO435292   9.766  39.811   9.567
 2681POPC   GL135293   9.656  39.885   9.156
 2681POPC   GL235294   9.863  40.159   9.113
 2681POPC   C1A35295   9.457  39.747   8.760
 2681POPC   D2A35296   9.442  39.903   8.343
 2681POPC   C3A35297   9.549  39.709   7.995
 2681POPC   C4A35298   9.796  39.733   7.647
 2681POPC   C1B35299   9.740  40.192   8.678
 2681POPC   C2B35300   9.683  40.361   8.257
 2681POPC   C3B35301   9.694  40.214   7.813
 2681POPC   C4B35302   9.714  40.180   7.346
 2682POPC   NC335303   2.537  31.005   9.393
 2682POPC   PO435304   3.149  30.694   9.568
 2682POPC   GL135305   2.913  30.733   9.173
 2682POPC   GL235306   3.151  30.490   9.088
 2682POPC   C1A35307   2.690  30.853   8.770
 2682POPC   D2A35308   2.855  31.052   8.403
 2682POPC   C3A35309   2.800  30.889   8.018
 2682POPC   C4A35310   2.511  30.658   7.826
 2682POPC   C1B35311   2.828  30.366   8.795
 2682POPC   C2B35312   2.892  30.527   8.399
 2682POPC   C3B35313   2.930  30.375   8.018
 2682POPC   C4B35314   2.964  30.439   7.628
 2683POPC   NC335315  42.108   9.314   9.185
 2683POPC   PO435316  42.298   9.734   9.623
 2683POPC   GL135317  42.414   9.902   9.206
 2683POPC   GL235318  42.579   9.594   9.124
 2683POPC   C1A35319  42.177   9.903   8.786
 2683POPC   D2A35320  41.992   9.906   8.338
 2683POPC   C3A35321  42.086   9.582   8.011
 2683POPC   C4A35322  42.149   9.869   7.672
 2683POPC   C1B35323  42.681   9.762   8.746
 2683POPC   C2B35324  42.441   9.658   8.395
 2683POPC   C3B35325  42.502   9.887   8.043
 2683POPC   C4B35326  42.661   9.965   7.659
 2684POPC   NC335327  41.405   7.225   9.885
 2684POPC   PO435328  41.294   6.835   9.473
 2684POPC   GL135329  41.471   7.148   9.120
 2684POPC   GL235330  41.743   7.444   9.131
 2684POPC   C1A35331  41.450   7.324   8.666
 2684POPC   D2A35332  41.319   7.557   8.269
 2684POPC   C3A35333  41.449   7.369   7.880
 2684POPC   C4A35334  41.423   7.268   7.453
 2684POPC   C1B35335  41.941   7.434   8.702
 2684POPC   C2B35336  41.828   7.435   8.243
 2684POPC   C3B35337  41.921   7.517   7.785
 2684POPC   C4B35338  41.940   7.282   7.390
 2685POPC   NC335339  10.231  10.951   9.408
 2685POPC   PO435340   9.664  10.570   9.396
 2685POPC   GL135341   9.624  10.263   9.087
 2685POPC   GL235342   9.984  10.189   9.114
 2685POPC   C1A35343   9.454  10.441   8.710
 2685POPC   D2A35344   9.612  10.460   8.285
 2685POPC   C3A35345   9.561  10.694   7.899
 2685POPC   C4A35346   9.934  10.835   7.643
 2685POPC   C1B35347   9.962  10.322   8.701
 2685POPC   C2B35348   9.965  10.101   8.337
 2685POPC   C3B35349   9.986  10.357   7.936
 2685POPC   C4B35350  10.259  10.294   7.598
 2686POPC   NC335351  35.212  23.319   9.400
 2686POPC   PO435352  35.563  23.951   9.383
 2686POPC   GL135353  35.394  23.700   9.077
 2686POPC   GL235354  35.562  23.394   9.040
 2686POPC   C1A35355  35.190  23.700   8.679
 2686POPC   D2A35356  34.998  23.819   8.296
 2686POPC   C3A35357  35.269  23.824   7.925
 2686POPC   C4A35358  35.298  23.763   7.462
 2686POPC   C1B35359  35.538  23.288   8.617
 2686POPC   C2B35360  35.559  23.596   8.280
 2686POPC   C3B35361  35.695  23.557   7.833
 2686POPC   C4B35362  35.784  23.309   7.465
 2687POPC   NC335363   0.254  33.940   9.625
 2687POPC   PO435364   0.622  33.487   9.634
 2687POPC   GL135365   0.536  33.856   9.250
 2687POPC   GL235366   0.230  33.625   9.210
 2687POPC   C1A35367   0.640  34.027   8.843
 2687POPC   D2A35368   0.704  33.798   8.477
 2687POPC   C3A35369   0.551  33.998   8.121
 2687POPC   C4A35370   0.515  33.766   7.761
 2687POPC   C1B35371   0.155  33.830   8.847
 2687POPC   C2B35372   0.151  33.765   8.407
 2687POPC   C3B35373   0.042  33.802   7.979
 2687POPC   C4B35374   0.071  33.581   7.580
 2688POPC   NC335375   4.302  15.284   9.503
 2688POPC   PO435376   4.731  14.691   9.528
 2688POPC   GL135377   4.444  14.895   9.218
 2688POPC   GL235378   4.509  15.191   9.028
 2688POPC   C1A35379   4.200  14.805   8.859
 2688POPC   D2A35380   4.060  14.894   8.464
 2688POPC   C3A35381   4.308  14.992   8.147
 2688POPC   C4A35382   4.214  15.031   7.744
 2688POPC   C1B35383   4.169  15.318   8.761
 2688POPC   C2B35384   4.125  15.441   8.326
 2688POPC   C3B35385   4.042  15.577   7.884
 2688POPC   C4B35386   4.064  15.418   7.451
 2689POPC   NC335387  24.915  18.887   9.404
 2689POPC   PO435388  25.547  19.006   9.505
 2689POPC   GL135389  25.317  19.025   9.129
 2689POPC   GL235390  25.201  19.346   9.178
 2689POPC   C1A35391  25.045  19.058   8.751
 2689POPC   D2A35392  25.273  19.093   8.373
 2689POPC   C3A35393  25.282  18.850   8.016
 2689POPC   C4A35394  25.042  18.933   7.658
 2689POPC   C1B35395  25.358  19.473   8.785
 2689POPC   C2B35396  25.124  19.564   8.420
 2689POPC   C3B35397  25.087  19.356   7.978
 2689POPC   C4B35398  25.337  19.337   7.586
 2690POPC   NC335399  27.046  15.378   9.477
 2690POPC   PO435400  26.427  15.129   9.476
 2690POPC   GL135401  26.762  15.143   9.114
 2690POPC   GL235402  26.878  14.807   9.045
 2690POPC   C1A35403  26.985  15.367   8.742
 2690POPC   D2A35404  26.984  15.701   8.385
 2690POPC   C3A35405  27.140  15.564   7.952
 2690POPC   C4A35406  27.037  15.190   7.720
 2690POPC   C1B35407  26.963  14.870   8.591
 2690POPC   C2B35408  26.974  15.125   8.234
 2690POPC   C3B35409  26.668  14.967   7.934
 2690POPC   C4B35410  26.820  14.682   7.610
 2691POPC   NC335411   2.451  42.040   9.378
 2691POPC   PO435412   3.185  42.081   9.392
 2691POPC   GL135413   2.830  42.310   9.115
 2691POPC   GL235414   2.793  42.699   9.162
 2691POPC   C1A35415   2.531  42.159   8.749
 2691POPC   D2A35416   2.397  42.185   8.316
 2691POPC   C3A35417   2.771  42.163   8.061
 2691POPC   C4A35418   2.831  42.279   7.633
 2691POPC   C1B35419   2.566  42.668   8.773
 2691POPC   C2B35420   2.685  42.714   8.349
 2691POPC   C3B35421   2.651  42.668   7.917
 2691POPC   C4B35422   2.472  42.691   7.510
 2692POPC   NC335423  43.664  26.265   9.779
 2692POPC   PO435424  43.167  25.895   9.468
 2692POPC   GL135425  43.254  26.071   9.123
 2692POPC   GL235426  43.592  26.221   9.158
 2692POPC   C1A35427  42.985  26.058   8.749
 2692POPC   D2A35428  42.745  26.040   8.379
 2692POPC   C3A35429  42.962  25.882   8.070
 2692POPC   C4A35430  42.968  26.002   7.670
 2692POPC   C1B35431  43.490  26.205   8.696
 2692POPC   C2B35432  43.424  25.988   8.315
 2692POPC   C3B35433  43.423  26.099   7.891
 2692POPC   C4B35434  43.411  26.071   7.411
 2693POPC   NC335435  21.836  14.016   9.393
 2693POPC   PO435436  21.824  13.329   9.478
 2693POPC   GL135437  21.963  13.563   9.141
 2693POPC   GL235438  22.322  13.659   9.113
 2693POPC   C1A35439  21.963  13.737   8.739
 2693POPC   D2A35440  22.257  13.780   8.390
 2693POPC   C3A35441  22.052  13.673   7.995
 2693POPC   C4A35442  22.104  13.559   7.579
 2693POPC   C1B35443  22.340  14.068   8.838
 2693POPC   C2B35444  22.517  14.226   8.412
 2693POPC   C3B35445  22.615  13.992   7.985
 2693POPC   C4B35446  22.466  13.937   7.535
 2694POPC   NC335447  22.509  37.776   9.659
 2694POPC   PO435448  21.873  37.907   9.801
 2694POPC   GL135449  21.983  37.735   9.381
 2694POPC   GL235450  22.210  37.984   9.287
 2694POPC   C1A35451  22.089  37.661   8.889
 2694POPC   D2A35452  21.982  37.858   8.449
 2694POPC   C3A35453  22.187  37.724   8.042
 2694POPC   C4A35454  22.133  37.526   7.621
 2694POPC   C1B35455  22.477  38.031   8.933
 2694POPC   C2B35456  22.483  37.979   8.491
 2694POPC   C3B35457  22.569  38.085   8.094
 2694POPC   C4B35458  22.670  37.912   7.710
 2695POPC   NC335459  38.558  30.212   9.494
 2695POPC   PO435460  38.088  29.666   9.365
 2695POPC   GL135461  38.274  29.950   9.097
 2695POPC   GL235462  38.626  29.823   9.083
 2695POPC   C1A35463  38.339  29.826   8.684
 2695POPC   D2A35464  38.704  29.692   8.479
 2695POPC   C3A35465  38.488  29.559   8.149
 2695POPC   C4A35466  38.157  29.781   7.923
 2695POPC   C1B35467  38.712  30.149   8.782
 2695POPC   C2B35468  38.526  30.167   8.342
 2695POPC   C3B35469  38.641  29.992   7.944
 2695POPC   C4B35470  38.729  30.246   7.623
 2696POPC   NC335471  17.430  27.882   9.557
 2696POPC   PO435472  17.224  27.212   9.572
 2696POPC   GL135473  17.362  27.517   9.190
 2696POPC   GL235474  17.299  27.895   9.074
 2696POPC   C1A35475  17.692  27.671   8.860
 2696POPC   D2A35476  17.704  28.017   8.525
 2696POPC   C3A35477  17.788  27.875   8.095
 2696POPC   C4A35478  17.704  27.551   7.757
 2696POPC   C1B35479  17.247  27.801   8.651
 2696POPC   C2B35480  17.356  27.622   8.279
 2696POPC   C3B35481  17.235  27.725   7.874
 2696POPC   C4B35482  17.104  27.501   7.507
 2697POPC   NC335483  12.266  33.560   9.475
 2697POPC   PO435484  11.819  34.048   9.586
 2697POPC   GL135485  11.888  33.886   9.202
 2697POPC   GL235486  12.270  33.909   9.112
 2697POPC   C1A35487  11.952  33.961   8.745
 2697POPC   D2A35488  12.033  33.763   8.371
 2697POPC   C3A35489  12.156  34.088   8.085
 2697POPC   C4A35490  12.053  33.946   7.701
 2697POPC   C1B35491  12.394  33.578   8.777
 2697POPC   C2B35492  12.451  33.429   8.333
 2697POPC   C3B35493  12.463  33.675   7.951
 2697POPC   C4B35494  12.402  33.607   7.495
 2698POPC   NC335495  43.755   3.830   9.506
 2698POPC   PO435496  44.256   3.458   9.444
 2698POPC   GL135497  44.101   3.645   9.072
 2698POPC   GL235498  43.763   3.638   9.043
 2698POPC   C1A35499  44.009   3.475   8.650
 2698POPC   D2A35500  44.249   3.590   8.348
 2698POPC   C3A35501  44.092   3.568   7.994
 2698POPC   C4A35502  43.901   3.850   7.729
 2698POPC   C1B35503  43.486   3.688   8.695
 2698POPC   C2B35504  43.266   3.735   8.306
 2698POPC   C3B35505  43.422   3.702   7.900
 2698POPC   C4B35506  43.687   3.374   7.754
 2699POPC   NC335507  19.743   4.088   9.436
 2699POPC   PO435508  19.240   4.531   9.722
 2699POPC   GL135509  19.534   4.566   9.269
 2699POPC   GL235510  19.902   4.569   9.168
 2699POPC   C1A35511  19.528   4.584   8.783
 2699POPC   D2A35512  19.810   4.460   8.416
 2699POPC   C3A35513  19.639   4.335   8.015
 2699POPC   C4A35514  19.289   4.554   7.814
 2699POPC   C1B35515  20.187   4.568   8.782
 2699POPC   C2B35516  20.353   4.364   8.381
 2699POPC   C3B35517  20.157   4.339   7.985
 2699POPC   C4B35518  20.258   4.133   7.615
 2700POPC   NC335519  44.838   1.615   9.668
 2700POPC   PO435520  44.494   1.028   9.831
 2700POPC   GL135521  44.553   1.222   9.388
 2700POPC   GL235522  44.851   1.204   9.188
 2700POPC   C1A35523  44.406   1.298   8.938
 2700POPC   D2A35524  44.624   1.516   8.589
 2700POPC   C3A35525  44.687   1.281   8.213
 2700POPC   C4A35526  44.507   1.310   7.814
 2700POPC   C1B35527  44.842   0.880   8.851
 2700POPC   C2B35528  44.570   0.861   8.467
 2700POPC   C3B35529  44.610   0.817   7.997
 2700POPC   C4B35530  44.981   1.032   7.809
 2701POPC   NC335531  10.461  36.761   9.519
 2701POPC   PO435532  10.176  37.378   9.435
 2701POPC   GL135533  10.345  37.109   9.092
 2701POPC   GL235534  10.621  36.851   9.051
 2701POPC   C1A35535  10.374  37.027   8.642
 2701POPC   D2A35536  10.488  37.153   8.245
 2701POPC   C3A35537  10.333  36.863   7.936
 2701POPC   C4A35538   9.996  37.116   7.796
 2701POPC   C1B35539  10.849  36.803   8.670
 2701POPC   C2B35540  10.771  36.730   8.228
 2701POPC   C3B35541  11.068  36.706   7.888
 2701POPC   C4B35542  11.153  36.955   7.530
 2702POPC   NC335543  15.219  38.808   9.513
 2702POPC   PO435544  15.400  38.209   9.584
 2702POPC   GL135545  15.279  38.410   9.173
 2702POPC   GL235546  14.958  38.625   9.116
 2702POPC   C1A35547  15.252  38.365   8.706
 2702POPC   D2A35548  15.518  38.633   8.431
 2702POPC   C3A35549  15.530  38.565   7.991
 2702POPC   C4A35550  15.288  38.288   7.698
 2702POPC   C1B35551  15.095  38.835   8.729
 2702POPC   C2B35552  14.984  38.705   8.289
 2702POPC   C3B35553  15.065  38.713   7.839
 2702POPC   C4B35554  14.999  38.561   7.395
 2703POPC   NC335555  15.143  40.554   9.366
 2703POPC   PO435556  14.826  41.191   9.336
 2703POPC   GL135557  15.046  40.919   9.013
 2703POPC   GL235558  14.911  40.576   8.930
 2703POPC   C1A35559  15.343  40.775   8.666
 2703POPC   D2A35560  15.526  41.022   8.276
 2703POPC   C3A35561  15.353  40.828   7.884
 2703POPC   C4A35562  14.934  40.947   7.750
 2703POPC   C1B35563  14.843  40.738   8.544
 2703POPC   C2B35564  15.027  40.528   8.214
 2703POPC   C3B35565  14.878  40.449   7.812
 2703POPC   C4B35566  14.945  40.550   7.405
 2704POPC   NC335567   0.341  37.018   9.503
 2704POPC   PO435568   0.856  36.633   9.563
 2704POPC   GL135569   0.552  36.595   9.147
 2704POPC   GL235570   0.251  36.810   9.031
 2704POPC   C1A35571   0.565  36.700   8.651
 2704POPC   D2A35572   0.764  36.989   8.314
 2704POPC   C3A35573   0.537  37.146   7.950
 2704POPC   C4A35574   0.426  36.843   7.655
 2704POPC   C1B35575   0.081  36.956   8.627
 2704POPC   C2B35576  44.869  36.763   8.272
 2704POPC   C3B35577  44.949  36.772   7.827
 2704POPC   C4B35578   0.035  37.154   7.582
 2705POPC   NC335579  42.291  38.464   9.903
 2705POPC   PO435580  42.588  38.849   9.432
 2705POPC   GL135581  42.429  38.502   9.199
 2705POPC   GL235582  42.106  38.344   9.242
 2705POPC   C1A35583  42.453  38.311   8.793
 2705POPC   D2A35584  42.519  38.492   8.392
 2705POPC   C3A35585  42.711  38.221   8.100
 2705POPC   C4A35586  42.565  38.443   7.757
 2705POPC   C1B35587  41.993  38.567   8.827
 2705POPC   C2B35588  41.982  38.463   8.385
 2705POPC   C3B35589  42.191  38.247   8.049
 2705POPC   C4B35590  42.262  37.966   7.723
 2706POPC   NC335591  44.842  41.108   9.215
 2706POPC   PO435592  44.317  41.499   9.517
 2706POPC   GL135593  44.456  41.448   9.126
 2706POPC   GL235594  44.287  41.138   9.127
 2706POPC   C1A35595  44.621  41.617   8.730
 2706POPC   D2A35596  44.439  41.710   8.325
 2706POPC   C3A35597  44.730  41.670   7.994
 2706POPC   C4A35598  44.861  41.921   7.679
 2706POPC   C1B35599  44.360  41.122   8.688
 2706POPC   C2B35600  44.224  41.194   8.256
 2706POPC   C3B35601  44.380  41.303   7.860
 2706POPC   C4B35602  44.314  41.694   7.650
 2707POPC   NC335603   5.578  26.667   9.852
 2707POPC   PO435604   5.954  27.090   9.565
 2707POPC   GL135605   5.862  27.080   9.128
 2707POPC   GL235606   5.646  26.865   8.969
 2707POPC   C1A35607   6.074  26.930   8.723
 2707POPC   D2A35608   6.005  26.694   8.356
 2707POPC   C3A35609   5.733  26.869   8.074
 2707POPC   C4A35610   5.767  27.139   7.744
 2707POPC   C1B35611   5.700  26.475   8.714
 2707POPC   C2B35612   5.573  26.244   8.345
 2707POPC   C3B35613   5.590  26.384   7.918
 2707POPC   C4B35614   5.828  26.632   7.636
 2708POPC   NC335615  24.677  40.001   9.473
 2708POPC   PO435616  25.379  40.139   9.430
 2708POPC   GL135617  25.226  40.040   9.046
 2708POPC   GL235618  25.046  39.774   9.178
 2708POPC   C1A35619  25.115  40.067   8.607
 2708POPC   D2A35620  25.214  40.318   8.256
 2708POPC   C3A35621  25.315  40.210   7.827
 2708POPC   C4A35622  25.439  39.837   7.613
 2708POPC   C1B35623  24.964  39.576   8.803
 2708POPC   C2B35624  25.179  39.586   8.415
 2708POPC   C3B35625  25.131  39.788   8.035
 2708POPC   C4B35626  24.818  40.024   7.827
 2709POPC   NC335627   9.012  33.366   9.553
 2709POPC   PO435628   8.660  33.905   9.768
 2709POPC   GL135629   8.775  33.766   9.304
 2709POPC   GL235630   9.100  33.753   9.207
 2709POPC   C1A35631   8.808  33.733   8.825
 2709POPC   D2A35632   8.761  33.984   8.505
 2709POPC   C3A35633   8.785  33.915   8.094
 2709POPC   C4A35634   8.601  33.715   7.723
 2709POPC   C1B35635   9.348  33.824   8.814
 2709POPC   C2B35636   9.258  33.888   8.359
 2709POPC   C3B35637   9.273  33.598   8.014
 2709POPC   C4B35638   9.271  33.628   7.563
 2710POPC   NC335639  34.559  32.598   9.430
 2710POPC   PO435640  34.156  32.176   9.780
 2710POPC   GL135641  34.214  32.246   9.274
 2710POPC   GL235642  34.574  32.153   9.178
 2710POPC   C1A35643  34.345  32.467   8.821
 2710POPC   D2A35644  34.416  32.708   8.394
 2710POPC   C3A35645  34.451  32.468   7.983
 2710POPC   C4A35646  34.340  32.034   7.843
 2710POPC   C1B35647  34.781  32.176   8.782
 2710POPC   C2B35648  34.709  32.042   8.351
 2710POPC   C3B35649  34.836  32.144   7.962
 2710POPC   C4B35650  34.955  32.559   7.808
 2711POPC   NC335651  28.707  28.499   9.346
 2711POPC   PO435652  29.303  28.640   9.638
 2711POPC   GL135653  29.214  28.353   9.244
 2711POPC   GL235654  28.968  28.366   8.935
 2711POPC   C1A35655  29.428  28.159   8.863
 2711POPC   D2A35656  29.238  28.276   8.464
 2711POPC   C3A35657  29.262  28.100   8.079
 2711POPC   C4A35658  29.373  28.082   7.673
 2711POPC   C1B35659  28.852  28.603   8.542
 2711POPC   C2B35660  29.167  28.732   8.215
 2711POPC   C3B35661  29.202  28.544   7.800
 2711POPC   C4B35662  28.848  28.516   7.535
 2712POPC   NC335663  32.825  13.089   9.925
 2712POPC   PO435664  33.149  12.736   9.446
 2712POPC   GL135665  33.185  12.797   9.070
 2712POPC   GL235666  33.290  13.132   9.001
 2712POPC   C1A35667  32.997  12.644   8.744
 2712POPC   D2A35668  32.769  12.689   8.411
 2712POPC   C3A35669  32.895  12.830   8.017
 2712POPC   C4A35670  32.946  12.934   7.609
 2712POPC   C1B35671  33.020  13.167   8.698
 2712POPC   C2B35672  33.175  13.163   8.309
 2712POPC   C3B35673  33.148  13.279   7.922
 2712POPC   C4B35674  33.415  13.194   7.574
 2713POPC   NC335675  40.005  31.052   9.435
 2713POPC   PO435676  39.621  31.583   9.614
 2713POPC   GL135677  39.874  31.466   9.186
 2713POPC   GL235678  39.747  31.178   9.039
 2713POPC   C1A35679  39.991  31.388   8.691
 2713POPC   D2A35680  40.158  31.426   8.270
 2713POPC   C3A35681  40.000  31.244   7.894
 2713POPC   C4A35682  39.840  31.464   7.529
 2713POPC   C1B35683  39.509  31.121   8.721
 2713POPC   C2B35684  39.654  31.201   8.336
 2713POPC   C3B35685  39.485  31.059   7.971
 2713POPC   C4B35686  39.537  31.058   7.536
 2714POPC   NC335687  27.902  13.552   9.556
 2714POPC   PO435688  27.511  14.103   9.744
 2714POPC   GL135689  27.498  13.928   9.288
 2714POPC   GL235690  27.545  13.608   9.178
 2714POPC   C1A35691  27.746  13.936   8.857
 2714POPC   D2A35692  27.779  13.996   8.443
 2714POPC   C3A35693  27.893  13.844   8.037
 2714POPC   C4A35694  27.715  13.785   7.661
 2714POPC   C1B35695  27.502  13.528   8.701
 2714POPC   C2B35696  27.714  13.464   8.312
 2714POPC   C3B35697  27.670  13.332   7.876
 2714POPC   C4B35698  27.803  13.272   7.453
 2715POPC   NC335699  33.070  23.860   9.610
 2715POPC   PO435700  33.048  23.273   9.425
 2715POPC   GL135701  33.231  23.600   9.184
 2715POPC   GL235702  32.905  23.759   9.149
 2715POPC   C1A35703  33.246  23.896   8.814
 2715POPC   D2A35704  33.321  23.725   8.413
 2715POPC   C3A35705  33.130  23.921   8.070
 2715POPC   C4A35706  33.160  23.791   7.686
 2715POPC   C1B35707  32.952  23.503   8.753
 2715POPC   C2B35708  32.815  23.664   8.358
 2715POPC   C3B35709  32.818  23.479   7.912
 2715POPC   C4B35710  32.936  23.402   7.438
 2716POPC   NC335711   0.160   9.420   9.531
 2716POPC   PO435712   0.769   9.675   9.508
 2716POPC   GL135713   0.513   9.570   9.154
 2716POPC   GL235714   0.169   9.736   9.140
 2716POPC   C1A35715   0.446   9.590   8.717
 2716POPC   D2A35716   0.547   9.408   8.345
 2716POPC   C3A35717   0.528   9.658   8.021
 2716POPC   C4A35718   0.265   9.376   7.785
 2716POPC   C1B35719   0.320  10.067   8.864
 2716POPC   C2B35720   0.440  10.084   8.412
 2716POPC   C3B35721   0.151  10.176   8.077
 2716POPC   C4B35722   0.202   9.925   7.718
 2717POPC   NC335723  38.804  11.067   9.707
 2717POPC   PO435724  39.428  10.956   9.569
 2717POPC   GL135725  39.335  11.215   9.213
 2717POPC   GL235726  39.011  11.062   9.215
 2717POPC   C1A35727  39.415  11.506   8.848
 2717POPC   D2A35728  39.657  11.568   8.483
 2717POPC   C3A35729  39.474  11.452   8.137
 2717POPC   C4A35730  39.508  11.388   7.741
 2717POPC   C1B35731  38.931  11.340   8.868
 2717POPC   C2B35732  39.081  11.326   8.444
 2717POPC   C3B35733  39.106  11.139   8.012
 2717POPC   C4B35734  38.987  11.430   7.760
 2718POPC   NC335735   5.061  35.923   9.502
 2718POPC   PO435736   4.620  36.418   9.441
 2718POPC   GL135737   4.795  36.131   9.071
 2718POPC   GL235738   5.168  36.136   9.041
 2718POPC   C1A35739   4.863  36.002   8.605
 2718POPC   D2A35740   4.762  35.990   8.130
 2718POPC   C3A35741   4.954  36.298   7.899
 2718POPC   C4A35742   5.332  36.322   7.696
 2718POPC   C1B35743   5.380  35.866   8.739
 2718POPC   C2B35744   5.323  35.643   8.337
 2718POPC   C3B35745   5.198  35.773   7.917
 2718POPC   C4B35746   5.106  35.917   7.490
 2719POPC   NC335747  26.583  42.318   9.536
 2719POPC   PO435748  27.210  42.573   9.429
 2719POPC   GL135749  26.894  42.458   9.137
 2719POPC   GL235750  26.530  42.565   9.102
 2719POPC   C1A35751  26.930  42.445   8.715
 2719POPC   D2A35752  27.078  42.491   8.285
 2719POPC   C3A35753  27.086  42.047   8.133
 2719POPC   C4A35754  26.883  41.932   7.742
 2719POPC   C1B35755  26.519  42.194   8.869
 2719POPC   C2B35756  26.580  42.187   8.419
 2719POPC   C3B35757  26.686  42.354   8.001
 2719POPC   C4B35758  26.479  42.600   7.671
 2720POPC   NC335759  17.978  44.882   9.592
 2720POPC   PO435760  18.558  44.544   9.619
 2720POPC   GL135761  18.229  44.594   9.256
 2720POPC   GL235762  17.972  44.333   9.220
 2720POPC   C1A35763  18.016  44.752   8.864
 2720POPC   D2A35764  17.980  44.587   8.418
 2720POPC   C3A35765  18.106  44.809   8.035
 2720POPC   C4A35766  17.992   0.016   7.671
 2720POPC   C1B35767  18.073  44.248   8.792
 2720POPC   C2B35768  18.393  44.267   8.476
 2720POPC   C3B35769  18.256  44.309   8.035
 2720POPC   C4B35770  18.465  44.526   7.705
 2721POPC   NC335771  20.757  39.701   9.334
 2721POPC   PO435772  20.513  39.199   9.730
 2721POPC   GL135773  20.412  39.254   9.260
 2721POPC   GL235774  20.745  39.212   9.135
 2721POPC   C1A35775  20.374  39.290   8.776
 2721POPC   D2A35776  20.545  39.393   8.358
 2721POPC   C3A35777  20.360  39.317   7.953
 2721POPC   C4A35778  20.491  38.921   7.781
 2721POPC   C1B35779  20.884  39.469   8.764
 2721POPC   C2B35780  21.188  39.473   8.471
 2721POPC   C3B35781  21.118  39.355   8.067
 2721POPC   C4B35782  20.828  39.305   7.729
 2722POPC   NC335783  20.464  35.410   9.567
 2722POPC   PO435784  21.057  35.398   9.318
 2722POPC   GL135785  20.728  35.221   9.116
 2722POPC   GL235786  20.429  35.033   9.216
 2722POPC   C1A35787  20.740  35.401   8.728
 2722POPC   D2A35788  20.831  35.731   8.470
 2722POPC   C3A35789  20.557  35.665   8.181
 2722POPC   C4A35790  20.812  35.452   7.919
 2722POPC   C1B35791  20.307  35.085   8.831
 2722POPC   C2B35792  20.327  35.288   8.471
 2722POPC   C3B35793  20.423  35.134   8.083
 2722POPC   C4B35794  20.343  35.386   7.764
 2723POPC   NC335795   0.145  12.938   9.470
 2723POPC   PO435796   0.813  12.974   9.390
 2723POPC   GL135797   0.495  12.895   9.088
 2723POPC   GL235798   0.532  13.213   8.917
 2723POPC   C1A35799   0.241  12.837   8.710
 2723POPC   D2A35800   0.306  13.136   8.400
 2723POPC   C3A35801   0.264  12.941   7.997
 2723POPC   C4A35802   0.579  12.778   7.716
 2723POPC   C1B35803   0.739  12.912   8.619
 2723POPC   C2B35804   0.707  12.687   8.224
 2723POPC   C3B35805   0.983  12.537   7.872
 2723POPC   C4B35806   0.949  12.599   7.415
 2724POPC   NC335807   2.666  13.764   9.489
 2724POPC   PO435808   2.998  13.200   9.435
 2724POPC   GL135809   2.751  13.232   9.076
 2724POPC   GL235810   2.538  13.549   9.042
 2724POPC   C1A35811   2.880  13.373   8.706
 2724POPC   D2A35812   2.634  13.581   8.439
 2724POPC   C3A35813   2.862  13.540   8.072
 2724POPC   C4A35814   2.696  13.638   7.705
 2724POPC   C1B35815   2.886  13.859   8.856
 2724POPC   C2B35816   3.066  13.885   8.425
 2724POPC   C3B35817   3.075  14.018   7.964
 2724POPC   C4B35818   3.179  13.798   7.564
 2725POPC   NC335819  16.946  28.420   9.547
 2725POPC   PO435820  16.392  28.648   9.360
 2725POPC   GL135821  16.747  28.664   9.092
 2725POPC   GL235822  16.932  28.337   9.046
 2725POPC   C1A35823  16.801  28.613   8.653
 2725POPC   D2A35824  16.654  28.399   8.300
 2725POPC   C3A35825  16.807  28.619   7.970
 2725POPC   C4A35826  17.014  28.606   7.574
 2725POPC   C1B35827  16.819  28.079   8.678
 2725POPC   C2B35828  16.931  27.955   8.237
 2725POPC   C3B35829  16.918  28.134   7.780
 2725POPC   C4B35830  17.048  28.175   7.302
 2726POPC   NC335831   7.591  44.602   9.728
 2726POPC   PO435832   7.149  44.809   9.344
 2726POPC   GL135833   7.211  44.531   9.049
 2726POPC   GL235834   7.582  44.542   9.114
 2726POPC   C1A35835   7.084  44.504   8.625
 2726POPC   D2A35836   7.332  44.236   8.352
 2726POPC   C3A35837   7.256  44.359   7.939
 2726POPC   C4A35838   7.097  44.760   7.798
 2726POPC   C1B35839   7.570  44.645   8.666
 2726POPC   C2B35840   7.405  44.756   8.256
 2726POPC   C3B35841   7.623  44.779   7.863
 2726POPC   C4B35842   7.987  44.615   7.619
 2727POPC   NC335843   2.819  16.442   9.394
 2727POPC   PO435844   3.075  17.084   9.493
 2727POPC   GL135845   2.761  16.922   9.148
 2727POPC   GL235846   2.450  16.692   9.141
 2727POPC   C1A35847   2.737  16.757   8.701
 2727POPC   D2A35848   3.027  16.682   8.367
 2727POPC   C3A35849   2.902  16.864   7.975
 2727POPC   C4A35850   2.562  16.782   7.698
 2727POPC   C1B35851   2.368  16.427   8.771
 2727POPC   C2B35852   2.642  16.309   8.423
 2727POPC   C3B35853   2.780  16.369   8.032
 2727POPC   C4B35854   2.934  16.261   7.640
 2728POPC   NC335855  13.869  42.998   9.377
 2728POPC   PO435856  13.269  43.232   9.558
 2728POPC   GL135857  13.382  43.069   9.179
 2728POPC   GL235858  13.611  43.337   9.100
 2728POPC   C1A35859  13.228  43.015   8.769
 2728POPC   D2A35860  13.366  42.907   8.354
 2728POPC   C3A35861  13.579  43.168   8.111
 2728POPC   C4A35862  13.395  43.387   7.800
 2728POPC   C1B35863  13.696  43.180   8.678
 2728POPC   C2B35864  13.934  42.912   8.408
 2728POPC   C3B35865  14.022  42.897   7.991
 2728POPC   C4B35866  13.787  43.100   7.641
 2729POPC   NC335867   6.570  32.636   9.490
 2729POPC   PO435868   6.829  33.242   9.435
 2729POPC   GL135869   6.777  33.152   9.014
 2729POPC   GL235870   6.516  32.949   9.100
 2729POPC   C1A35871   6.546  33.054   8.614
 2729POPC   D2A35872   6.163  33.079   8.413
 2729POPC   C3A35873   6.300  33.194   8.009
 2729POPC   C4A35874   6.706  33.148   7.801
 2729POPC   C1B35875   6.316  32.637   8.858
 2729POPC   C2B35876   6.131  32.566   8.490
 2729POPC   C3B35877   6.281  32.650   8.124
 2729POPC   C4B35878   6.406  32.728   7.761
 2730POPC   NC335879  18.074  33.173   9.418
 2730POPC   PO435880  18.354  32.519   9.507
 2730POPC   GL135881  18.418  32.860   9.170
 2730POPC   GL235882  18.738  33.056   9.151
 2730POPC   C1A35883  18.247  32.924   8.735
 2730POPC   D2A35884  17.886  32.782   8.447
 2730POPC   C3A35885  17.913  32.983   8.045
 2730POPC   C4A35886  18.286  33.074   7.797
 2730POPC   C1B35887  18.726  33.133   8.732
 2730POPC   C2B35888  18.532  33.121   8.335
 2730POPC   C3B35889  18.532  33.431   8.041
 2730POPC   C4B35890  18.624  33.462   7.607
 2731POPC   NC335891   6.101  20.347   9.540
 2731POPC   PO435892   5.753  19.751   9.560
 2731POPC   GL135893   5.758  19.991   9.198
 2731POPC   GL235894   6.100  19.969   9.181
 2731POPC   C1A35895   5.664  19.802   8.810
 2731POPC   D2A35896   5.882  19.777   8.385
 2731POPC   C3A35897   5.639  19.720   8.023
 2731POPC   C4A35898   5.656  19.374   7.736
 2731POPC   C1B35899   6.165  19.992   8.753
 2731POPC   C2B35900   6.087  20.249   8.346
 2731POPC   C3B35901   6.058  20.020   7.948
 2731POPC   C4B35902   6.132  19.603   7.824
 2732POPC   NC335903  19.549  31.943   9.320
 2732POPC   PO435904  19.071  32.366   9.671
 2732POPC   GL135905  19.037  32.291   9.210
 2732POPC   GL235906  18.845  32.008   9.115
 2732POPC   C1A35907  19.208  32.207   8.784
 2732POPC   D2A35908  19.191  32.448   8.412
 2732POPC   C3A35909  19.363  32.256   8.057
 2732POPC   C4A35910  19.167  32.068   7.689
 2732POPC   C1B35911  18.719  32.095   8.719
 2732POPC   C2B35912  18.919  32.022   8.352
 2732POPC   C3B35913  18.848  32.260   8.039
 2732POPC   C4B35914  18.637  32.120   7.697
 2733POPC   NC335915  21.893  38.308   9.564
 2733POPC   PO435916  22.612  38.231   9.548
 2733POPC   GL135917  22.391  38.459   9.208
 2733POPC   GL235918  22.103  38.663   9.257
 2733POPC   C1A35919  22.174  38.422   8.806
 2733POPC   D2A35920  22.296  38.487   8.394
 2733POPC   C3A35921  22.076  38.270   8.071
 2733POPC   C4A35922  22.317  38.303   7.698
 2733POPC   C1B35923  21.880  38.836   8.895
 2733POPC   C2B35924  21.818  38.722   8.472
 2733POPC   C3B35925  21.909  38.783   8.054
 2733POPC   C4B35926  21.804  38.542   7.701
 2734POPC   NC335927  39.738  41.130   9.392
 2734POPC   PO435928  40.199  41.716   9.216
 2734POPC   GL135929  40.023  41.376   9.046
 2734POPC   GL235930  39.711  41.528   9.052
 2734POPC   C1A35931  39.983  41.350   8.622
 2734POPC   D2A35932  40.283  41.393   8.293
 2734POPC   C3A35933  40.222  41.220   7.898
 2734POPC   C4A35934  40.114  41.621   7.732
 2734POPC   C1B35935  39.697  41.801   8.681
 2734POPC   C2B35936  39.923  41.762   8.317
 2734POPC   C3B35937  40.142  42.025   8.060
 2734POPC   C4B35938  40.017  42.116   7.645
 2735POPC   NC335939   0.746  42.577   9.497
 2735POPC   PO435940   1.331  42.237   9.535
 2735POPC   GL135941   1.288  42.117   9.135
 2735POPC   GL235942   1.623  42.087   9.073
 2735POPC   C1A35943   1.074  42.355   8.795
 2735POPC   D2A35944   1.142  42.655   8.449
 2735POPC   C3A35945   1.070  42.541   8.007
 2735POPC   C4A35946   1.003  42.128   7.849
 2735POPC   C1B35947   1.570  42.238   8.698
 2735POPC   C2B35948   1.305  42.125   8.398
 2735POPC   C3B35949   1.465  42.217   8.045
 2735POPC   C4B35950   1.495  42.140   7.650
 2736POPC   NC335951  16.898  43.586   9.860
 2736POPC   PO435952  16.304  43.865   9.607
 2736POPC   GL135953  16.509  43.948   9.208
 2736POPC   GL235954  16.280  43.654   9.123
 2736POPC   C1A35955  16.780  44.032   8.829
 2736POPC   D2A35956  16.968  43.716   8.515
 2736POPC   C3A35957  16.879  43.776   8.093
 2736POPC   C4A35958  16.946  43.753   7.655
 2736POPC   C1B35959  16.489  43.643   8.756
 2736POPC   C2B35960  16.456  43.815   8.364
 2736POPC   C3B35961  16.427  43.697   7.927
 2736POPC   C4B35962  16.479  43.948   7.554
 2737POPC   NC335963  31.660  26.976   9.562
 2737POPC   PO435964  31.955  26.429   9.379
 2737POPC   GL135965  32.037  26.854   9.177
 2737POPC   GL235966  32.419  26.898   9.162
 2737POPC   C1A35967  31.951  27.044   8.760
 2737POPC   D2A35968  31.895  26.748   8.393
 2737POPC   C3A35969  32.076  26.809   7.996
 2737POPC   C4A35970  32.322  27.029   7.735
 2737POPC   C1B35971  32.363  26.757   8.727
 2737POPC   C2B35972  32.562  26.529   8.414
 2737POPC   C3B35973  32.384  26.360   8.054
 2737POPC   C4B35974  32.439  26.551   7.668
 2738POPC   NC335975  23.062  40.521   9.369
 2738POPC   PO435976  22.841  39.864   9.466
 2738POPC   GL135977  22.970  40.070   9.140
 2738POPC   GL235978  23.217  39.820   9.087
 2738POPC   C1A35979  23.018  40.198   8.733
 2738POPC   D2A35980  23.110  40.003   8.332
 2738POPC   C3A35981  22.894  39.983   7.913
 2738POPC   C4A35982  22.764  39.642   7.601
 2738POPC   C1B35983  23.019  39.675   8.745
 2738POPC   C2B35984  23.175  39.495   8.375
 2738POPC   C3B35985  23.264  39.631   7.994
 2738POPC   C4B35986  23.269  39.587   7.596
 2739POPC   NC335987   7.796  41.214   9.713
 2739POPC   PO435988   7.910  40.569   9.819
 2739POPC   GL135989   8.046  40.698   9.299
 2739POPC   GL235990   8.116  41.092   9.078
 2739POPC   C1A35991   8.254  40.682   8.853
 2739POPC   D2A35992   8.277  40.906   8.427
 2739POPC   C3A35993   8.101  40.679   8.071
 2739POPC   C4A35994   8.020  40.582   7.634
 2739POPC   C1B35995   7.823  40.961   8.668
 2739POPC   C2B35996   7.763  41.053   8.174
 2739POPC   C3B35997   8.021  41.075   7.741
 2739POPC   C4B35998   7.894  41.206   7.302
 2740POPC   NC335999   2.555  13.019   9.487
 2740POPC   PO436000   3.171  12.729   9.623
 2740POPC   GL136001   2.966  12.729   9.201
 2740POPC   GL236002   2.612  12.664   9.129
 2740POPC   C1A36003   2.949  12.859   8.774
 2740POPC   D2A36004   2.752  13.000   8.399
 2740POPC   C3A36005   2.877  12.958   8.032
 2740POPC   C4A36006   2.635  13.149   7.751
 2740POPC   C1B36007   2.433  12.931   8.780
 2740POPC   C2B36008   2.241  13.030   8.389
 2740POPC   C3B36009   2.333  12.838   8.005
 2740POPC   C4B36010   2.633  12.647   7.727
 2741POPC   NC336011  24.870  22.865   9.548
 2741POPC   PO436012  24.272  22.567   9.466
 2741POPC   GL136013  24.580  22.617   9.143
 2741POPC   GL236014  24.681  22.985   9.080
 2741POPC   C1A36015  24.352  22.736   8.767
 2741POPC   D2A36016  24.333  22.921   8.369
 2741POPC   C3A36017  24.528  22.810   7.979
 2741POPC   C4A36018  24.617  23.194   7.754
 2741POPC   C1B36019  24.914  22.844   8.689
 2741POPC   C2B36020  24.984  22.831   8.222
 2741POPC   C3B36021  25.024  22.813   7.760
 2741POPC   C4B36022  24.754  22.820   7.405
 2742POPC   NC336023   2.742  20.039   9.514
 2742POPC   PO436024   2.538  19.498   9.243
 2742POPC   GL136025   2.860  19.760   9.046
 2742POPC   GL236026   2.914  20.165   9.060
 2742POPC   C1A36027   2.853  19.591   8.605
 2742POPC   D2A36028   2.451  19.569   8.367
 2742POPC   C3A36029   2.463  19.742   7.941
 2742POPC   C4A36030   2.885  19.758   7.813
 2742POPC   C1B36031   2.755  20.085   8.675
 2742POPC   C2B36032   2.774  19.983   8.263
 2742POPC   C3B36033   2.779  20.240   7.896
 2742POPC   C4B36034   3.093  20.256   7.522
 2743POPC   NC336035  11.975  32.054   9.391
 2743POPC   PO436036  12.358  32.538   9.169
 2743POPC   GL136037  12.140  32.305   8.956
 2743POPC   GL236038  12.241  32.034   8.906
 2743POPC   C1A36039  12.206  32.403   8.541
 2743POPC   D2A36040  11.959  32.709   8.454
 2743POPC   C3A36041  11.938  32.608   8.059
 2743POPC   C4A36042  12.044  32.619   7.632
 2743POPC   C1B36043  11.829  32.073   8.631
 2743POPC   C2B36044  11.680  32.155   8.203
 2743POPC   C3B36045  11.953  32.132   7.839
 2743POPC   C4B36046  12.374  32.230   7.865
 2744POPC   NC336047   3.358  18.178   9.563
 2744POPC   PO436048   3.938  18.304   9.466
 2744POPC   GL136049   3.597  18.272   9.117
 2744POPC   GL236050   3.433  17.913   9.082
 2744POPC   C1A36051   3.599  18.319   8.655
 2744POPC   D2A36052   3.347  18.166   8.295
 2744POPC   C3A36053   3.363  18.426   7.962
 2744POPC   C4A36054   3.791  18.516   7.796
 2744POPC   C1B36055   3.553  17.823   8.627
 2744POPC   C2B36056   3.780  17.817   8.236
 2744POPC   C3B36057   3.678  17.952   7.818
 2744POPC   C4B36058   3.261  17.914   7.741
 2745POPC   NC336059   2.412  22.081   9.668
 2745POPC   PO436060   2.803  22.597   9.484
 2745POPC   GL136061   2.575  22.422   9.152
 2745POPC   GL236062   2.477  22.046   9.148
 2745POPC   C1A36063   2.762  22.571   8.788
 2745POPC   D2A36064   2.918  22.437   8.393
 2745POPC   C3A36065   2.675  22.437   8.001
 2745POPC   C4A36066   2.855  22.538   7.605
 2745POPC   C1B36067   2.708  22.056   8.737
 2745POPC   C2B36068   2.917  21.928   8.339
 2745POPC   C3B36069   2.787  21.933   7.912
 2745POPC   C4B36070   2.425  22.002   7.656
 2746POPC   NC336071  17.492  20.758   9.547
 2746POPC   PO436072  17.326  20.248   9.211
 2746POPC   GL136073  17.731  20.419   9.044
 2746POPC   GL236074  17.834  20.769   9.148
 2746POPC   C1A36075  17.692  20.501   8.598
 2746POPC   D2A36076  17.274  20.642   8.375
 2746POPC   C3A36077  17.191  20.447   7.974
 2746POPC   C4A36078  17.503  20.364   7.661
 2746POPC   C1B36079  17.774  21.043   8.773
 2746POPC   C2B36080  17.672  20.943   8.352
 2746POPC   C3B36081  17.610  20.782   7.962
 2746POPC   C4B36082  17.906  21.027   7.779
 2747POPC   NC336083  35.791  32.071   9.412
 2747POPC   PO436084  35.076  32.336   9.460
 2747POPC   GL136085  35.336  32.160   9.158
 2747POPC   GL236086  35.308  31.823   9.159
 2747POPC   C1A36087  35.288  32.192   8.735
 2747POPC   D2A36088  35.126  32.357   8.331
 2747POPC   C3A36089  35.350  32.212   7.975
 2747POPC   C4A36090  35.440  32.352   7.604
 2747POPC   C1B36091  35.156  31.690   8.761
 2747POPC   C2B36092  35.270  31.849   8.350
 2747POPC   C3B36093  35.140  31.731   7.941
 2747POPC   C4B36094  35.073  31.978   7.549
 2748POPC   NC336095  15.901   3.189   9.583
 2748POPC   PO436096  15.713   3.784   9.366
 2748POPC   GL136097  15.862   3.431   9.105
 2748POPC   GL236098  16.207   3.386   9.166
 2748POPC   C1A36099  15.724   3.418   8.680
 2748POPC   D2A36100  15.735   3.623   8.277
 2748POPC   C3A36101  15.781   3.425   7.850
 2748POPC   C4A36102  15.923   3.514   7.407
 2748POPC   C1B36103  16.213   3.119   8.798
 2748POPC   C2B36104  16.047   3.136   8.397
 2748POPC   C3B36105  16.259   3.264   8.046
 2748POPC   C4B36106  16.329   3.540   7.714
 2749POPC   NC336107  31.595  10.952   9.489
 2749POPC   PO436108  31.230  11.488   9.372
 2749POPC   GL136109  31.492  11.293   9.090
 2749POPC   GL236110  31.321  11.019   9.082
 2749POPC   C1A36111  31.478  11.157   8.628
 2749POPC   D2A36112  31.291  11.358   8.302
 2749POPC   C3A36113  31.528  11.340   7.935
 2749POPC   C4A36114  31.378  11.271   7.527
 2749POPC   C1B36115  31.194  10.743   8.794
 2749POPC   C2B36116  31.385  10.671   8.441
 2749POPC   C3B36117  31.398  10.869   8.090
 2749POPC   C4B36118  31.361  10.802   7.700
 2750POPC   NC336119  39.015  42.524   9.446
 2750POPC   PO436120  39.599  42.369   9.411
 2750POPC   GL136121  39.320  42.387   9.058
 2750POPC   GL236122  38.994  42.194   9.041
 2750POPC   C1A36123  39.224  42.574   8.672
 2750POPC   D2A36124  39.129  42.376   8.280
 2750POPC   C3A36125  39.168  42.651   7.978
 2750POPC   C4A36126  39.299  42.609   7.564
 2750POPC   C1B36127  39.226  42.055   8.658
 2750POPC   C2B36128  39.251  41.830   8.267
 2750POPC   C3B36129  39.118  41.991   7.862
 2750POPC   C4B36130  38.800  42.008   7.557
 2751POPC   NC336131   5.900  34.153   9.717
 2751POPC   PO436132   5.844  33.493   9.604
 2751POPC   GL136133   5.948  33.679   9.218
 2751POPC   GL236134   5.741  33.951   9.259
 2751POPC   C1A36135   6.155  33.868   8.835
 2751POPC   D2A36136   6.330  33.622   8.492
 2751POPC   C3A36137   6.299  33.708   8.048
 2751POPC   C4A36138   6.004  33.564   7.730
 2751POPC   C1B36139   5.626  33.918   8.844
 2751POPC   C2B36140   5.799  33.947   8.450
 2751POPC   C3B36141   5.894  34.031   8.022
 2751POPC   C4B36142   5.634  34.076   7.701
 2752POPC   NC336143  15.538   4.875   9.563
 2752POPC   PO436144  16.126   5.266   9.565
 2752POPC   GL136145  16.141   5.170   9.150
 2752POPC   GL236146  15.786   5.095   9.133
 2752POPC   C1A36147  16.113   5.242   8.705
 2752POPC   D2A36148  16.006   4.920   8.406
 2752POPC   C3A36149  16.211   4.849   8.022
 2752POPC   C4A36150  16.163   4.862   7.600
 2752POPC   C1B36151  15.576   5.297   8.773
 2752POPC   C2B36152  15.726   5.379   8.358
 2752POPC   C3B36153  15.942   5.267   7.972
 2752POPC   C4B36154  15.923   5.300   7.488
 2753POPC   NC336155   5.455  29.289   9.411
 2753POPC   PO436156   4.852  28.917   9.418
 2753POPC   GL136157   5.046  29.193   9.107
 2753POPC   GL236158   4.733  29.154   8.948
 2753POPC   C1A36159   4.996  29.512   8.749
 2753POPC   D2A36160   4.666  29.364   8.461
 2753POPC   C3A36161   4.781  29.403   8.038
 2753POPC   C4A36162   5.240  29.360   7.896
 2753POPC   C1B36163   5.013  28.951   8.656
 2753POPC   C2B36164   5.154  28.727   8.303
 2753POPC   C3B36165   5.059  28.872   7.905
 2753POPC   C4B36166   4.731  29.042   7.686
 2754POPC   NC336167  38.707   3.980   9.467
 2754POPC   PO436168  39.112   4.553   9.606
 2754POPC   GL136169  39.130   4.242   9.204
 2754POPC   GL236170  38.861   4.121   9.013
 2754POPC   C1A36171  39.289   4.178   8.755
 2754POPC   D2A36172  39.435   4.410   8.389
 2754POPC   C3A36173  39.512   4.217   8.011
 2754POPC   C4A36174  39.381   4.189   7.592
 2754POPC   C1B36175  38.829   3.950   8.580
 2754POPC   C2B36176  39.054   4.071   8.219
 2754POPC   C3B36177  39.010   4.369   7.897
 2754POPC   C4B36178  38.838   4.728   7.664
 2755POPC   NC336179   8.020  39.325   9.565
 2755POPC   PO436180   7.406  39.141   9.414
 2755POPC   GL136181   7.700  39.199   9.127
 2755POPC   GL236182   7.769  38.857   9.119
 2755POPC   C1A36183   7.640  39.406   8.739
 2755POPC   D2A36184   7.376  39.612   8.428
 2755POPC   C3A36185   7.458  39.507   8.004
 2755POPC   C4A36186   7.148  39.347   7.728
 2755POPC   C1B36187   7.791  38.902   8.669
 2755POPC   C2B36188   7.654  39.121   8.298
 2755POPC   C3B36189   7.524  39.014   7.891
 2755POPC   C4B36190   7.699  38.811   7.584
 2756POPC   NC336191  29.694  26.763   9.599
 2756POPC   PO436192  30.222  27.060   9.788
 2756POPC   GL136193  30.207  27.064   9.309
 2756POPC   GL236194  30.116  26.710   9.168
 2756POPC   C1A36195  30.036  27.123   8.870
 2756POPC   D2A36196  30.062  26.777   8.573
 2756POPC   C3A36197  30.018  26.944   8.203
 2756POPC   C4A36198  30.004  26.925   7.773
 2756POPC   C1B36199  29.696  26.671   8.939
 2756POPC   C2B36200  29.618  26.502   8.523
 2756POPC   C3B36201  29.608  26.662   8.103
 2756POPC   C4B36202  29.435  26.507   7.724
 2757POPC   NC336203   8.830   8.522   9.384
 2757POPC   PO436204   8.740   9.110   9.759
 2757POPC   GL136205   8.840   9.067   9.316
 2757POPC   GL236206   9.183   9.027   9.262
 2757POPC   C1A36207   8.811   9.010   8.852
 2757POPC   D2A36208   8.670   9.203   8.459
 2757POPC   C3A36209   8.850   9.001   8.098
 2757POPC   C4A36210   8.905   8.859   7.676
 2757POPC   C1B36211   9.293   8.784   8.887
 2757POPC   C2B36212   9.239   8.865   8.429
 2757POPC   C3B36213   9.322   8.821   7.966
 2757POPC   C4B36214   9.365   8.747   7.476
 2758POPC   NC336215   7.286  42.998   9.673
 2758POPC   PO436216   7.721  43.479   9.501
 2758POPC   GL136217   7.666  43.275   9.108
 2758POPC   GL236218   7.331  43.188   9.181
 2758POPC   C1A36219   7.528  42.991   8.750
 2758POPC   D2A36220   7.716  42.950   8.354
 2758POPC   C3A36221   7.566  42.916   7.947
 2758POPC   C4A36222   7.894  43.114   7.696
 2758POPC   C1B36223   7.221  43.409   8.797
 2758POPC   C2B36224   7.526  43.429   8.483
 2758POPC   C3B36225   7.652  43.412   8.039
 2758POPC   C4B36226   7.397  43.319   7.687
 2759POPC   NC336227   8.416  27.447   9.722
 2759POPC   PO436228   8.028  27.958   9.658
 2759POPC   GL136229   8.141  27.653   9.288
 2759POPC   GL236230   8.500  27.628   9.214
 2759POPC   C1A36231   8.182  27.401   8.891
 2759POPC   D2A36232   8.312  27.319   8.453
 2759POPC   C3A36233   8.312  27.479   8.006
 2759POPC   C4A36234   7.992  27.605   7.704
 2759POPC   C1B36235   8.544  27.760   8.750
 2759POPC   C2B36236   8.399  27.914   8.318
 2759POPC   C3B36237   8.628  27.868   7.900
 2759POPC   C4B36238   8.557  27.964   7.437
 2760POPC   NC336239   3.219  21.508   9.609
 2760POPC   PO436240   3.843  21.471   9.811
 2760POPC   GL136241   3.803  21.414   9.267
 2760POPC   GL236242   4.038  21.642   9.050
 2760POPC   C1A36243   3.582  21.476   8.828
 2760POPC   D2A36244   3.625  21.223   8.413
 2760POPC   C3A36245   3.438  21.383   7.988
 2760POPC   C4A36246   3.495  21.281   7.522
 2760POPC   C1B36247   4.001  21.614   8.581
 2760POPC   C2B36248   3.592  21.718   8.353
 2760POPC   C3B36249   3.596  21.927   7.940
 2760POPC   C4B36250   3.501  21.822   7.520
 2761POPC   NC336251  44.506  11.405   9.515
 2761POPC   PO436252   0.098  11.557   9.410
 2761POPC   GL136253  44.904  11.180   9.198
 2761POPC   GL236254  44.523  11.099   9.107
 2761POPC   C1A36255  44.878  11.173   8.765
 2761POPC   D2A36256  44.619  11.195   8.456
 2761POPC   C3A36257  44.878  11.262   8.146
 2761POPC   C4A36258  44.766  11.349   7.760
 2761POPC   C1B36259  44.426  11.481   8.871
 2761POPC   C2B36260  44.281  11.709   8.506
 2761POPC   C3B36261  44.421  11.555   8.104
 2761POPC   C4B36262  44.227  11.448   7.734
 2762POPC   NC336263   2.608  34.407   9.481
 2762POPC   PO436264   3.072  34.877   9.471
 2762POPC   GL136265   2.889  34.670   9.108
 2762POPC   GL236266   2.939  34.335   9.086
 2762POPC   C1A36267   2.772  34.624   8.660
 2762POPC   D2A36268   3.001  34.702   8.253
 2762POPC   C3A36269   2.787  34.773   7.859
 2762POPC   C4A36270   2.821  34.795   7.387
 2762POPC   C1B36271   2.970  34.150   8.686
 2762POPC   C2B36272   2.771  34.259   8.276
 2762POPC   C3B36273   2.911  34.280   7.861
 2762POPC   C4B36274   3.137  33.959   7.607
 2763POPC   NC336275  15.209  23.200   9.685
 2763POPC   PO436276  15.023  23.824   9.555
 2763POPC   GL136277  14.951  23.917   9.155
 2763POPC   GL236278  15.057  23.597   9.044
 2763POPC   C1A36279  15.175  24.152   8.881
 2763POPC   D2A36280  15.279  24.198   8.453
 2763POPC   C3A36281  15.025  24.142   8.065
 2763POPC   C4A36282  15.224  24.102   7.682
 2763POPC   C1B36283  15.302  23.701   8.669
 2763POPC   C2B36284  15.252  23.712   8.231
 2763POPC   C3B36285  15.124  23.580   7.830
 2763POPC   C4B36286  15.286  23.329   7.517
 2764POPC   NC336287  21.476  15.071   9.389
 2764POPC   PO436288  20.896  14.707   9.507
 2764POPC   GL136289  20.997  15.022   9.179
 2764POPC   GL236290  21.015  15.386   9.159
 2764POPC   C1A36291  21.243  15.069   8.783
 2764POPC   D2A36292  21.550  15.154   8.451
 2764POPC   C3A36293  21.401  15.210   8.038
 2764POPC   C4A36294  21.430  15.166   7.604
 2764POPC   C1B36295  21.129  15.548   8.710
 2764POPC   C2B36296  21.284  15.632   8.276
 2764POPC   C3B36297  21.245  15.626   7.782
 2764POPC   C4B36298  21.357  15.604   7.324
 2765POPC   NC336299  43.645  10.188   9.463
 2765POPC   PO436300  44.011   9.642   9.429
 2765POPC   GL136301  43.874   9.588   9.028
 2765POPC   GL236302  43.587   9.808   9.092
 2765POPC   C1A36303  43.807   9.546   8.603
 2765POPC   D2A36304  43.903   9.859   8.300
 2765POPC   C3A36305  44.060   9.780   7.918
 2765POPC   C4A36306  43.853   9.703   7.509
 2765POPC   C1B36307  43.699  10.075   8.729
 2765POPC   C2B36308  43.575  10.253   8.300
 2765POPC   C3B36309  43.621  10.064   7.860
 2765POPC   C4B36310  43.536  10.122   7.379
 2766POPC   NC336311   9.449  44.435   9.707
 2766POPC   PO436312   9.946  44.878   9.516
 2766POPC   GL136313   9.691  44.646   9.213
 2766POPC   GL236314   9.945  44.750   9.009
 2766POPC   C1A36315   9.477  44.772   8.788
 2766POPC   D2A36316   9.606  44.959   8.361
 2766POPC   C3A36317   9.481  44.754   7.951
 2766POPC   C4A36318   9.688  44.624   7.587
 2766POPC   C1B36319   9.818  44.385   8.772
 2766POPC   C2B36320   9.996  44.331   8.387
 2766POPC   C3B36321   9.968  44.547   8.007
 2766POPC   C4B36322  10.126  44.378   7.634
 2767POPC   NC336323  26.575  27.127   9.763
 2767POPC   PO436324  26.485  26.580   9.330
 2767POPC   GL136325  26.826  26.700   9.084
 2767POPC   GL236326  26.947  27.003   9.264
 2767POPC   C1A36327  26.722  26.672   8.640
 2767POPC   D2A36328  26.697  26.559   8.171
 2767POPC   C3A36329  26.320  26.464   7.935
 2767POPC   C4A36330  26.325  26.552   7.484
 2767POPC   C1B36331  26.998  27.129   8.813
 2767POPC   C2B36332  26.875  27.081   8.376
 2767POPC   C3B36333  26.470  27.047   8.173
 2767POPC   C4B36334  26.512  26.952   7.743
 2768POPC   NC336335  34.060  10.103   9.596
 2768POPC   PO436336  33.573   9.708   9.422
 2768POPC   GL136337  33.602   9.894   9.061
 2768POPC   GL236338  33.780  10.204   9.164
 2768POPC   C1A36339  33.773   9.601   8.758
 2768POPC   D2A36340  33.684   9.349   8.414
 2768POPC   C3A36341  33.799   9.627   8.089
 2768POPC   C4A36342  33.898   9.583   7.701
 2768POPC   C1B36343  33.976  10.066   8.754
 2768POPC   C2B36344  33.885  10.110   8.296
 2768POPC   C3B36345  34.002  10.165   7.837
 2768POPC   C4B36346  34.047   9.949   7.382
 2769POPC   NC336347  18.638   1.362   9.657
 2769POPC   PO436348  18.086   1.030   9.466
 2769POPC   GL136349  18.191   1.427   9.263
 2769POPC   GL236350  17.932   1.425   9.023
 2769POPC   C1A36351  18.451   1.533   8.893
 2769POPC   D2A36352  18.513   1.212   8.549
 2769POPC   C3A36353  18.417   1.362   8.123
 2769POPC   C4A36354  18.554   1.267   7.705
 2769POPC   C1B36355  17.902   1.102   8.694
 2769POPC   C2B36356  18.089   0.952   8.307
 2769POPC   C3B36357  18.076   1.012   7.901
 2769POPC   C4B36358  18.008   1.367   7.715
 2770POPC   NC336359  18.826   1.915   9.366
 2770POPC   PO436360  19.067   2.499   9.494
 2770POPC   GL136361  19.206   2.210   9.158
 2770POPC   GL236362  19.317   1.859   9.229
 2770POPC   C1A36363  19.062   2.158   8.739
 2770POPC   D2A36364  19.123   2.242   8.297
 2770POPC   C3A36365  18.898   1.992   7.997
 2770POPC   C4A36366  18.568   2.200   7.777
 2770POPC   C1B36367  19.450   1.836   8.792
 2770POPC   C2B36368  19.320   1.772   8.386
 2770POPC   C3B36369  19.408   1.788   7.970
 2770POPC   C4B36370  19.206   1.867   7.588
 2771POPC   NC336371  17.623  16.887   9.477
 2771POPC   PO436372  17.605  16.193   9.436
 2771POPC   GL136373  17.683  16.504   9.119
 2771POPC   GL236374  17.385  16.685   9.073
 2771POPC   C1A36375  17.817  16.703   8.748
 2771POPC   D2A36376  17.587  16.855   8.407
 2771POPC   C3A36377  17.628  16.709   8.004
 2771POPC   C4A36378  17.295  16.564   7.779
 2771POPC   C1B36379  17.368  17.068   8.829
 2771POPC   C2B36380  17.306  17.273   8.429
 2771POPC   C3B36381  17.297  17.103   8.028
 2771POPC   C4B36382  17.525  17.095   7.670
 2772POPC   NC336383   5.590   7.177   9.444
 2772POPC   PO436384   6.034   7.688   9.554
 2772POPC   GL136385   5.812   7.557   9.162
 2772POPC   GL236386   5.818   7.188   8.999
 2772POPC   C1A36387   5.633   7.608   8.762
 2772POPC   D2A36388   5.675   7.306   8.435
 2772POPC   C3A36389   5.555   7.492   8.073
 2772POPC   C4A36390   5.841   7.369   7.804
 2772POPC   C1B36391   6.177   7.311   8.753
 2772POPC   C2B36392   6.202   7.505   8.336
 2772POPC   C3B36393   6.316   7.307   7.926
 2772POPC   C4B36394   6.217   7.328   7.440
 2773POPC   NC336395   0.422  10.361   9.485
 2773POPC   PO436396   0.816  10.864   9.338
 2773POPC   GL136397   0.539  10.677   9.062
 2773POPC   GL236398   0.279  10.895   8.926
 2773POPC   C1A36399   0.527  10.515   8.655
 2773POPC   D2A36400   0.523  10.549   8.199
 2773POPC   C3A36401   0.613  10.210   7.876
 2773POPC   C4A36402   0.433  10.238   7.401
 2773POPC   C1B36403   0.267  10.950   8.490
 2773POPC   C2B36404   0.092  10.790   8.131
 2773POPC   C3B36405   0.294  10.620   7.746
 2773POPC   C4B36406   0.186  10.704   7.303
 2774POPC   NC336407  28.026  37.785   9.502
 2774POPC   PO436408  28.609  38.157   9.346
 2774POPC   GL136409  28.365  37.867   9.085
 2774POPC   GL236410  28.023  37.658   9.015
 2774POPC   C1A36411  28.319  37.935   8.668
 2774POPC   D2A36412  28.253  37.747   8.272
 2774POPC   C3A36413  28.450  37.868   7.916
 2774POPC   C4A36414  28.703  37.523   7.750
 2774POPC   C1B36415  28.250  37.430   8.694
 2774POPC   C2B36416  28.123  37.254   8.277
 2774POPC   C3B36417  28.252  37.290   7.882
 2774POPC   C4B36418  28.092  37.602   7.656
 2775POPC   NC336419   7.090  16.643   9.567
 2775POPC   PO436420   7.706  16.864   9.636
 2775POPC   GL136421   7.477  16.897   9.206
 2775POPC   GL236422   7.148  17.045   9.166
 2775POPC   C1A36423   7.674  16.826   8.778
 2775POPC   D2A36424   7.693  16.622   8.380
 2775POPC   C3A36425   7.749  16.848   8.015
 2775POPC   C4A36426   7.590  16.687   7.660
 2775POPC   C1B36427   7.262  17.104   8.731
 2775POPC   C2B36428   7.245  16.857   8.328
 2775POPC   C3B36429   7.294  17.055   7.901
 2775POPC   C4B36430   7.288  17.015   7.409
 2776POPC   NC336431  24.140  42.705   9.387
 2776POPC   PO436432  24.739  42.544   9.708
 2776POPC   GL136433  24.564  42.355   9.268
 2776POPC   GL236434  24.236  42.340   9.064
 2776POPC   C1A36435  24.623  42.317   8.782
 2776POPC   D2A36436  24.393  42.479   8.440
 2776POPC   C3A36437  24.566  42.344   8.055
 2776POPC   C4A36438  24.441  42.451   7.639
 2776POPC   C1B36439  24.138  42.096   8.691
 2776POPC   C2B36440  24.177  42.010   8.276
 2776POPC   C3B36441  24.075  42.241   7.938
 2776POPC   C4B36442  24.157  42.015   7.567
 2777POPC   NC336443  36.208  26.700   9.311
 2777POPC   PO436444  36.561  27.304   9.413
 2777POPC   GL136445  36.318  27.142   9.064
 2777POPC   GL236446  36.457  26.782   8.893
 2777POPC   C1A36447  36.263  27.147   8.626
 2777POPC   D2A36448  36.202  26.888   8.280
 2777POPC   C3A36449  36.134  27.099   7.920
 2777POPC   C4A36450  35.890  26.961   7.613
 2777POPC   C1B36451  36.080  26.609   8.686
 2777POPC   C2B36452  36.032  26.396   8.302
 2777POPC   C3B36453  36.028  26.568   7.910
 2777POPC   C4B36454  36.136  26.392   7.539
 2778POPC   NC336455   6.869  37.395   9.475
 2778POPC   PO436456   6.511  37.966   9.523
 2778POPC   GL136457   6.597  37.685   9.165
 2778POPC   GL236458   6.927  37.778   9.119
 2778POPC   C1A36459   6.717  37.548   8.715
 2778POPC   D2A36460   6.714  37.390   8.275
 2778POPC   C3A36461   6.463  37.533   7.872
 2778POPC   C4A36462   6.397  37.595   7.365
 2778POPC   C1B36463   7.099  37.970   8.754
 2778POPC   C2B36464   6.905  37.972   8.407
 2778POPC   C3B36465   6.976  38.222   8.085
 2778POPC   C4B36466   6.926  38.034   7.715
 2779POPC   NC336467  18.492  20.724   9.578
 2779POPC   PO436468  18.034  20.364   9.491
 2779POPC   GL136469  18.286  20.518   9.140
 2779POPC   GL236470  18.354  20.898   9.133
 2779POPC   C1A36471  18.165  20.705   8.724
 2779POPC   D2A36472  18.220  20.510   8.378
 2779POPC   C3A36473  18.178  20.697   8.045
 2779POPC   C4A36474  18.164  20.466   7.695
 2779POPC   C1B36475  18.701  21.058   8.847
 2779POPC   C2B36476  18.589  20.942   8.461
 2779POPC   C3B36477  18.718  20.881   8.081
 2779POPC   C4B36478  18.527  20.838   7.708
 2780POPC   NC336479  26.326  21.354   9.492
 2780POPC   PO436480  26.580  21.974   9.486
 2780POPC   GL136481  26.719  21.665   9.174
 2780POPC   GL236482  26.965  21.361   9.188
 2780POPC   C1A36483  26.675  21.484   8.784
 2780POPC   D2A36484  26.849  21.254   8.460
 2780POPC   C3A36485  26.551  21.226   8.141
 2780POPC   C4A36486  26.659  21.293   7.731
 2780POPC   C1B36487  27.205  21.458   8.795
 2780POPC   C2B36488  27.249  21.604   8.379
 2780POPC   C3B36489  27.054  21.505   8.004
 2780POPC   C4B36490  27.120  21.514   7.541
 2781POPC   NC336491  16.196  23.200   9.521
 2781POPC   PO436492  15.606  22.894   9.617
 2781POPC   GL136493  15.763  22.830   9.204
 2781POPC   GL236494  15.842  23.178   9.134
 2781POPC   C1A36495  15.814  22.869   8.740
 2781POPC   D2A36496  16.034  22.897   8.358
 2781POPC   C3A36497  15.796  22.914   8.003
 2781POPC   C4A36498  15.740  23.261   7.736
 2781POPC   C1B36499  15.921  23.376   8.713
 2781POPC   C2B36500  16.041  23.500   8.292
 2781POPC   C3B36501  16.216  23.308   7.965
 2781POPC   C4B36502  16.281  22.959   7.760
 2782POPC   NC336503  38.115  11.092   9.418
 2782POPC   PO436504  38.574  11.468   9.662
 2782POPC   GL136505  38.535  11.379   9.226
 2782POPC   GL236506  38.516  11.016   9.128
 2782POPC   C1A36507  38.439  11.444   8.780
 2782POPC   D2A36508  38.563  11.234   8.390
 2782POPC   C3A36509  38.529  11.459   7.997
 2782POPC   C4A36510  38.180  11.647   7.803
 2782POPC   C1B36511  38.751  10.866   8.784
 2782POPC   C2B36512  38.879  10.841   8.361
 2782POPC   C3B36513  38.655  10.928   7.934
 2782POPC   C4B36514  38.541  10.826   7.490
 2783POPC   NC336515  41.920  16.607   9.372
 2783POPC   PO436516  42.590  16.918   9.448
 2783POPC   GL136517  42.468  16.761   9.078
 2783POPC   GL236518  42.612  16.424   9.116
 2783POPC   C1A36519  42.175  16.681   8.728
 2783POPC   D2A36520  42.137  16.481   8.320
 2783POPC   C3A36521  42.207  16.688   7.951
 2783POPC   C4A36522  42.247  16.627   7.511
 2783POPC   C1B36523  42.673  16.529   8.677
 2783POPC   C2B36524  42.593  16.754   8.285
 2783POPC   C3B36525  42.683  16.453   7.933
 2783POPC   C4B36526  42.742  16.493   7.472
 2784POPC   NC336527  33.176  18.299   9.426
 2784POPC   PO436528  32.903  18.899   9.694
 2784POPC   GL136529  32.891  18.679   9.242
 2784POPC   GL236530  32.739  18.354   9.128
 2784POPC   C1A36531  32.997  18.593   8.777
 2784POPC   D2A36532  33.116  18.618   8.356
 2784POPC   C3A36533  33.284  18.211   8.212
 2784POPC   C4A36534  33.136  18.115   7.790
 2784POPC   C1B36535  32.803  18.084   8.739
 2784POPC   C2B36536  32.903  17.873   8.323
 2784POPC   C3B36537  32.663  17.866   7.907
 2784POPC   C4B36538  32.799  17.903   7.429
 2785POPC   NC336539  28.434  36.727   9.457
 2785POPC   PO436540  28.045  37.283   9.435
 2785POPC   GL136541  28.142  37.005   9.121
 2785POPC   GL236542  27.904  36.788   9.255
 2785POPC   C1A36543  28.306  36.919   8.716
 2785POPC   D2A36544  28.578  37.102   8.393
 2785POPC   C3A36545  28.480  36.856   8.058
 2785POPC   C4A36546  28.616  37.000   7.662
 2785POPC   C1B36547  27.796  36.722   8.846
 2785POPC   C2B36548  27.960  36.610   8.461
 2785POPC   C3B36549  27.911  36.837   8.097
 2785POPC   C4B36550  28.091  36.802   7.721
 2786POPC   NC336551  40.092  15.733   9.290
 2786POPC   PO436552  39.638  16.244   9.479
 2786POPC   GL136553  39.872  16.166   9.118
 2786POPC   GL236554  40.222  16.128   9.019
 2786POPC   C1A36555  39.673  16.106   8.756
 2786POPC   D2A36556  39.704  16.386   8.433
 2786POPC   C3A36557  39.891  16.178   8.092
 2786POPC   C4A36558  39.898  15.817   7.791
 2786POPC   C1B36559  40.168  16.086   8.619
 2786POPC   C2B36560  40.380  15.772   8.462
 2786POPC   C3B36561  40.363  15.782   8.088
 2786POPC   C4B36562  40.310  16.100   7.810
 2787POPC   NC336563   1.735  42.435   9.470
 2787POPC   PO436564   2.386  42.504   9.383
 2787POPC   GL136565   2.124  42.273   9.068
 2787POPC   GL236566   1.912  42.517   9.000
 2787POPC   C1A36567   2.026  42.003   8.697
 2787POPC   D2A36568   1.781  41.908   8.342
 2787POPC   C3A36569   1.966  42.162   8.007
 2787POPC   C4A36570   2.352  42.267   7.789
 2787POPC   C1B36571   2.090  42.502   8.579
 2787POPC   C2B36572   2.191  42.631   8.137
 2787POPC   C3B36573   1.970  42.594   7.739
 2787POPC   C4B36574   1.534  42.654   7.765
 2788POPC   NC336575  29.631  28.287   9.534
 2788POPC   PO436576  30.072  28.776   9.657
 2788POPC   GL136577  29.975  28.574   9.284
 2788POPC   GL236578  30.174  28.309   9.207
 2788POPC   C1A36579  29.811  28.567   8.867
 2788POPC   D2A36580  29.860  28.736   8.446
 2788POPC   C3A36581  29.634  28.459   8.156
 2788POPC   C4A36582  29.809  28.352   7.780
 2788POPC   C1B36583  30.227  28.243   8.760
 2788POPC   C2B36584  30.066  28.248   8.365
 2788POPC   C3B36585  30.206  28.099   7.997
 2788POPC   C4B36586  30.144  28.004   7.578
 2789POPC   NC336587  22.026   5.022   9.558
 2789POPC   PO436588  22.569   4.812   9.331
 2789POPC   GL136589  22.228   5.046   9.105
 2789POPC   GL236590  21.888   4.846   9.102
 2789POPC   C1A36591  22.094   5.167   8.710
 2789POPC   D2A36592  22.095   4.907   8.346
 2789POPC   C3A36593  22.289   4.963   7.952
 2789POPC   C4A36594  22.280   5.257   7.608
 2789POPC   C1B36595  21.705   4.768   8.695
 2789POPC   C2B36596  21.673   4.674   8.253
 2789POPC   C3B36597  21.705   4.697   7.839
 2789POPC   C4B36598  22.006   4.842   7.546
 2790POPC   NC336599  21.746  12.858   9.435
 2790POPC   PO436600  21.065  13.107   9.456
 2790POPC   GL136601  21.306  12.986   9.091
 2790POPC   GL236602  21.585  13.205   9.049
 2790POPC   C1A36603  21.232  12.740   8.689
 2790POPC   D2A36604  21.383  12.452   8.349
 2790POPC   C3A36605  21.292  12.546   7.929
 2790POPC   C4A36606  21.353  12.921   7.767
 2790POPC   C1B36607  21.713  12.879   8.761
 2790POPC   C2B36608  21.622  12.897   8.311
 2790POPC   C3B36609  21.794  12.703   7.956
 2790POPC   C4B36610  21.814  12.723   7.516
 2791POPC   NC336611  40.861  30.537   9.466
 2791POPC   PO436612  40.861  29.817   9.497
 2791POPC   GL136613  40.796  30.097   9.158
 2791POPC   GL236614  41.103  30.273   9.095
 2791POPC   C1A36615  40.873  29.852   8.783
 2791POPC   D2A36616  41.065  29.683   8.402
 2791POPC   C3A36617  40.783  29.873   8.113
 2791POPC   C4A36618  40.642  30.140   7.769
 2791POPC   C1B36619  40.994  30.324   8.662
 2791POPC   C2B36620  41.164  30.200   8.253
 2791POPC   C3B36621  41.190  30.039   7.829
 2791POPC   C4B36622  41.120  30.306   7.465
 2792POPC   NC336623  32.168   0.149   9.365
 2792POPC   PO436624  31.986   0.757   9.513
 2792POPC   GL136625  32.325   0.678   9.168
 2792POPC   GL236626  32.185   0.421   8.932
 2792POPC   C1A36627  32.486   0.768   8.716
 2792POPC   D2A36628  32.334   0.527   8.364
 2792POPC   C3A36629  32.375   0.648   7.943
 2792POPC   C4A36630  32.257   0.430   7.540
 2792POPC   C1B36631  32.534   0.195   8.717
 2792POPC   C2B36632  32.690   0.047   8.326
 2792POPC   C3B36633  32.458   0.134   7.948
 2792POPC   C4B36634  32.151  44.951   7.667
 2793POPC   NC336635  41.501  44.884   9.723
 2793POPC   PO436636  41.349  44.215   9.652
 2793POPC   GL136637  41.413  44.480   9.226
 2793POPC   GL236638  41.414  44.838   9.216
 2793POPC   C1A36639  41.683  44.509   8.827
 2793POPC   D2A36640  41.849  44.349   8.416
 2793POPC   C3A36641  41.588  44.428   8.046
 2793POPC   C4A36642  41.693  44.360   7.609
 2793POPC   C1B36643  41.471  44.989   8.799
 2793POPC   C2B36644  41.603  44.805   8.405
 2793POPC   C3B36645  41.771  44.894   8.010
 2793POPC   C4B36646  41.854   0.093   7.640
 2794POPC   NC336647  26.380  22.407   9.570
 2794POPC   PO436648  25.797  22.229   9.622
 2794POPC   GL136649  25.905  22.104   9.175
 2794POPC   GL236650  26.258  22.154   9.134
 2794POPC   C1A36651  25.917  21.961   8.747
 2794POPC   D2A36652  25.756  22.224   8.438
 2794POPC   C3A36653  25.918  22.152   8.044
 2794POPC   C4A36654  25.967  22.378   7.647
 2794POPC   C1B36655  26.425  21.994   8.758
 2794POPC   C2B36656  26.315  22.176   8.377
 2794POPC   C3B36657  26.417  22.126   7.943
 2794POPC   C4B36658  26.360  22.044   7.498
 2795POPC   NC336659  27.067  20.535   9.490
 2795POPC   PO436660  26.486  20.917   9.414
 2795POPC   GL136661  26.480  21.115   9.055
 2795POPC   GL236662  26.778  20.907   8.931
 2795POPC   C1A36663  26.399  21.064   8.629
 2795POPC   D2A36664  26.615  20.736   8.398
 2795POPC   C3A36665  26.536  20.738   7.940
 2795POPC   C4A36666  26.897  20.844   7.706
 2795POPC   C1B36667  26.675  20.432   8.851
 2795POPC   C2B36668  26.699  20.208   8.445
 2795POPC   C3B36669  26.890  20.393   8.091
 2795POPC   C4B36670  27.083  20.368   7.725
 2796POPC   NC336671  43.190  17.871   9.550
 2796POPC   PO436672  42.821  18.457   9.505
 2796POPC   GL136673  42.935  18.268   9.121
 2796POPC   GL236674  43.232  18.186   9.116
 2796POPC   C1A36675  43.084  18.488   8.735
 2796POPC   D2A36676  43.287  18.591   8.352
 2796POPC   C3A36677  43.119  18.278   8.057
 2796POPC   C4A36678  42.766  18.305   7.786
 2796POPC   C1B36679  43.378  18.000   8.745
 2796POPC   C2B36680  43.512  18.113   8.335
 2796POPC   C3B36681  43.529  17.986   7.898
 2796POPC   C4B36682  43.241  18.075   7.596
 2797POPC   NC336683  36.869  23.247   9.454
 2797POPC   PO436684  36.480  22.564   9.546
 2797POPC   GL136685  36.489  22.829   9.175
 2797POPC   GL236686  36.824  22.959   9.040
 2797POPC   C1A36687  36.498  22.749   8.722
 2797POPC   D2A36688  36.798  22.708   8.379
 2797POPC   C3A36689  36.635  22.756   7.964
 2797POPC   C4A36690  36.770  22.897   7.556
 2797POPC   C1B36691  37.147  23.127   8.739
 2797POPC   C2B36692  37.243  23.331   8.328
 2797POPC   C3B36693  37.101  23.233   7.891
 2797POPC   C4B36694  36.932  23.430   7.529
 2798POPC   NC336695  25.821   6.991   9.516
 2798POPC   PO436696  25.142   6.632   9.476
 2798POPC   GL136697  25.394   6.650   9.141
 2798POPC   GL236698  25.467   6.996   9.164
 2798POPC   C1A36699  25.263   6.593   8.725
 2798POPC   D2A36700  25.019   6.627   8.364
 2798POPC   C3A36701  25.209   6.401   8.039
 2798POPC   C4A36702  25.646   6.379   7.842
 2798POPC   C1B36703  25.363   7.084   8.773
 2798POPC   C2B36704  25.496   7.101   8.359
 2798POPC   C3B36705  25.362   6.872   8.007
 2798POPC   C4B36706  25.187   6.765   7.633
 2799POPC   NC336707  14.063  30.724   9.317
 2799POPC   PO436708  14.650  30.527   9.677
 2799POPC   GL136709  14.543  30.568   9.169
 2799POPC   GL236710  14.266  30.371   9.022
 2799POPC   C1A36711  14.362  30.835   8.755
 2799POPC   D2A36712  14.530  30.951   8.330
 2799POPC   C3A36713  14.206  31.006   7.990
 2799POPC   C4A36714  14.248  30.844   7.534
 2799POPC   C1B36715  14.384  30.334   8.656
 2799POPC   C2B36716  14.159  30.555   8.354
 2799POPC   C3B36717  14.377  30.540   7.998
 2799POPC   C4B36718  14.218  30.334   7.719
 2800POPC   NC336719  44.557   8.910   9.445
 2800POPC   PO436720  44.719   9.542   9.536
 2800POPC   GL136721  44.808   9.266   9.155
 2800POPC   GL236722  44.658   8.927   8.966
 2800POPC   C1A36723  44.996   9.260   8.759
 2800POPC   D2A36724  44.765   9.356   8.401
 2800POPC   C3A36725  44.869   9.123   8.038
 2800POPC   C4A36726  44.632   9.054   7.661
 2800POPC   C1B36727  44.271   8.686   8.829
 2800POPC   C2B36728  44.165   8.631   8.390
 2800POPC   C3B36729  44.402   8.794   8.055
 2800POPC   C4B36730  44.375   8.592   7.670
 2801POPC   NC336731  11.459  13.481   9.423
 2801POPC   PO436732  11.448  14.077   9.447
 2801POPC   GL136733  11.234  13.835   9.091
 2801POPC   GL236734  11.285  13.482   8.951
 2801POPC   C1A36735  11.106  13.830   8.652
 2801POPC   D2A36736  11.018  13.670   8.274
 2801POPC   C3A36737  11.326  13.804   7.991
 2801POPC   C4A36738  11.424  13.684   7.575
 2801POPC   C1B36739  11.004  13.262   8.660
 2801POPC   C2B36740  10.821  13.193   8.248
 2801POPC   C3B36741  10.779  13.448   7.861
 2801POPC   C4B36742  10.986  13.404   7.437
 2802POPC   NC336743   2.391   3.153   9.735
 2802POPC   PO436744   1.887   3.501   9.593
 2802POPC   GL136745   2.168   3.449   9.290
 2802POPC   GL236746   2.264   3.796   9.210
 2802POPC   C1A36747   2.117   3.436   8.865
 2802POPC   D2A36748   1.851   3.605   8.549
 2802POPC   C3A36749   2.018   3.646   8.157
 2802POPC   C4A36750   1.847   3.521   7.770
 2802POPC   C1B36751   2.236   3.901   8.759
 2802POPC   C2B36752   2.476   3.744   8.415
 2802POPC   C3B36753   2.434   3.941   8.016
 2802POPC   C4B36754   2.336   3.707   7.726
 2803POPC   NC336755  30.611  10.801   9.410
 2803POPC   PO436756  30.278  10.220   9.559
 2803POPC   GL136757  30.571  10.332   9.205
 2803POPC   GL236758  30.927  10.283   9.237
 2803POPC   C1A36759  30.698  10.609   8.823
 2803POPC   D2A36760  30.493  10.901   8.542
 2803POPC   C3A36761  30.456  10.726   8.136
 2803POPC   C4A36762  30.511  10.856   7.716
 2803POPC   C1B36763  31.057  10.249   8.798
 2803POPC   C2B36764  30.932  10.445   8.390
 2803POPC   C3B36765  30.955  10.595   7.949
 2803POPC   C4B36766  30.935  10.593   7.489
 2804POPC   NC336767  42.842   9.391   9.501
 2804POPC   PO436768  43.236   9.966   9.511
 2804POPC   GL136769  43.021   9.874   9.176
 2804POPC   GL236770  43.153   9.540   9.133
 2804POPC   C1A36771  43.187   9.905   8.776
 2804POPC   D2A36772  43.384   9.774   8.429
 2804POPC   C3A36773  43.183   9.934   8.087
 2804POPC   C4A36774  43.181   9.860   7.673
 2804POPC   C1B36775  43.070   9.397   8.722
 2804POPC   C2B36776  42.925   9.559   8.319
 2804POPC   C3B36777  42.869   9.536   7.877
 2804POPC   C4B36778  42.490   9.447   7.667
 2805POPC   NC336779  44.862  23.173   9.461
 2805POPC   PO436780  44.518  23.850   9.533
 2805POPC   GL136781  44.608  23.823   9.119
 2805POPC   GL236782  44.836  23.563   9.146
 2805POPC   C1A36783  44.786  23.953   8.716
 2805POPC   D2A36784   0.031  23.935   8.340
 2805POPC   C3A36785  44.775  23.762   8.023
 2805POPC   C4A36786  44.544  23.806   7.649
 2805POPC   C1B36787  44.588  23.430   8.801
 2805POPC   C2B36788  44.692  23.413   8.404
 2805POPC   C3B36789  44.934  23.288   8.106
 2805POPC   C4B36790  44.734  23.321   7.715
 2806POPC   NC336791  19.902  25.395   9.503
 2806POPC   PO436792  19.387  25.813   9.534
 2806POPC   GL136793  19.605  25.604   9.119
 2806POPC   GL236794  19.982  25.541   9.014
 2806POPC   C1A36795  19.641  25.605   8.642
 2806POPC   D2A36796  19.593  25.287   8.303
 2806POPC   C3A36797  19.598  25.367   7.882
 2806POPC   C4A36798  19.718  25.117   7.532
 2806POPC   C1B36799  20.161  25.700   8.636
 2806POPC   C2B36800  20.008  25.612   8.216
 2806POPC   C3B36801  20.117  25.318   7.851
 2806POPC   C4B36802  20.091  25.464   7.409
 2807POPC   NC336803  28.873  28.594   9.841
 2807POPC   PO436804  28.292  28.472   9.551
 2807POPC   GL136805  28.170  28.462   9.148
 2807POPC   GL236806  28.469  28.557   8.923
 2807POPC   C1A36807  28.068  28.299   8.768
 2807POPC   D2A36808  28.340  28.434   8.453
 2807POPC   C3A36809  28.190  28.343   8.128
 2807POPC   C4A36810  28.140  28.302   7.760
 2807POPC   C1B36811  28.554  28.109   8.786
 2807POPC   C2B36812  28.735  28.107   8.378
 2807POPC   C3B36813  28.768  28.344   8.040
 2807POPC   C4B36814  28.671  28.087   7.701
 2808POPC   NC336815  16.916   6.320   9.751
 2808POPC   PO436816  16.565   5.753   9.422
 2808POPC   GL136817  16.736   5.736   9.040
 2808POPC   GL236818  16.536   5.462   8.955
 2808POPC   C1A36819  16.741   5.944   8.625
 2808POPC   D2A36820  16.419   6.188   8.404
 2808POPC   C3A36821  16.614   6.347   8.053
 2808POPC   C4A36822  16.890   6.101   7.808
 2808POPC   C1B36823  16.909   5.444   8.673
 2808POPC   C2B36824  17.007   5.583   8.278
 2808POPC   C3B36825  16.797   5.615   7.897
 2808POPC   C4B36826  16.332   5.570   7.845
 2809POPC   NC336827  14.375  19.514   9.442
 2809POPC   PO436828  14.220  18.859   9.412
 2809POPC   GL136829  14.419  19.126   9.113
 2809POPC   GL236830  14.702  18.970   9.001
 2809POPC   C1A36831  14.442  19.275   8.696
 2809POPC   D2A36832  14.204  19.137   8.353
 2809POPC   C3A36833  14.425  19.326   8.060
 2809POPC   C4A36834  14.606  19.218   7.700
 2809POPC   C1B36835  14.486  18.741   8.763
 2809POPC   C2B36836  14.663  18.542   8.443
 2809POPC   C3B36837  14.596  18.804   8.097
 2809POPC   C4B36838  14.490  18.721   7.687
 2810POPC   NC336839   7.999  24.823   9.444
 2810POPC   PO436840   8.434  25.340   9.521
 2810POPC   GL136841   8.094  25.309   9.227
 2810POPC   GL236842   8.316  25.169   9.004
 2810POPC   C1A36843   7.946  25.466   8.835
 2810POPC   D2A36844   8.035  25.175   8.531
 2810POPC   C3A36845   8.072  25.247   8.089
 2810POPC   C4A36846   7.928  25.460   7.673
 2810POPC   C1B36847   8.316  24.776   8.787
 2810POPC   C2B36848   8.532  24.668   8.423
 2810POPC   C3B36849   8.490  24.920   8.040
 2810POPC   C4B36850   8.258  25.067   7.655
 2811POPC   NC336851  34.966   9.705   9.454
 2811POPC   PO436852  35.536   9.340   9.502
 2811POPC   GL136853  35.461   9.667   9.201
 2811POPC   GL236854  35.327  10.010   9.255
 2811POPC   C1A36855  35.282   9.618   8.815
 2811POPC   D2A36856  35.329   9.351   8.491
 2811POPC   C3A36857  35.527   9.584   8.150
 2811POPC   C4A36858  35.304   9.573   7.768
 2811POPC   C1B36859  35.187  10.105   8.840
 2811POPC   C2B36860  35.341  10.098   8.418
 2811POPC   C3B36861  35.203   9.993   8.047
 2811POPC   C4B36862  35.303  10.101   7.630
 2812POPC   NC336863  28.062   3.628   9.640
 2812POPC   PO436864  27.497   3.339   9.499
 2812POPC   GL136865  27.568   3.550   9.119
 2812POPC   GL236866  27.341   3.815   9.114
 2812POPC   C1A36867  27.670   3.423   8.706
 2812POPC   D2A36868  27.836   3.260   8.346
 2812POPC   C3A36869  27.731   3.468   7.991
 2812POPC   C4A36870  27.935   3.407   7.632
 2812POPC   C1B36871  27.349   3.827   8.678
 2812POPC   C2B36872  27.332   3.588   8.303
 2812POPC   C3B36873  27.255   3.669   7.869
 2812POPC   C4B36874  27.148   3.885   7.480
 2813POPC   NC336875  41.718  31.513   9.636
 2813POPC   PO436876  41.147  31.264   9.329
 2813POPC   GL136877  41.391  31.545   9.064
 2813POPC   GL236878  41.753  31.535   9.131
 2813POPC   C1A36879  41.515  31.592   8.611
 2813POPC   D2A36880  41.383  31.411   8.186
 2813POPC   C3A36881  41.537  31.712   7.875
 2813POPC   C4A36882  41.837  32.027   7.993
 2813POPC   C1B36883  41.913  31.276   8.812
 2813POPC   C2B36884  41.809  31.133   8.384
 2813POPC   C3B36885  41.841  31.296   7.963
 2813POPC   C4B36886  42.146  31.495   7.724
 2814POPC   NC336887  16.183  31.961   9.354
 2814POPC   PO436888  16.003  32.509   9.710
 2814POPC   GL136889  15.896  32.393   9.246
 2814POPC   GL236890  15.745  32.060   9.088
 2814POPC   C1A36891  15.853  32.478   8.812
 2814POPC   D2A36892  16.056  32.449   8.437
 2814POPC   C3A36893  15.717  32.466   8.154
 2814POPC   C4A36894  15.821  32.471   7.746
 2814POPC   C1B36895  15.976  31.984   8.705
 2814POPC   C2B36896  15.893  31.979   8.252
 2814POPC   C3B36897  16.172  32.091   7.881
 2814POPC   C4B36898  16.210  31.795   7.480
 2815POPC   NC336899  44.795   6.372   9.425
 2815POPC   PO436900  44.568   7.028   9.482
 2815POPC   GL136901  44.862   7.012   9.132
 2815POPC   GL236902  44.976   6.667   9.051
 2815POPC   C1A36903  44.742   6.973   8.707
 2815POPC   D2A36904  44.494   6.773   8.392
 2815POPC   C3A36905  44.669   6.933   8.008
 2815POPC   C4A36906  44.566   6.869   7.584
 2815POPC   C1B36907  44.753   6.413   8.738
 2815POPC   C2B36908  44.834   6.232   8.327
 2815POPC   C3B36909  44.784   6.444   7.971
 2815POPC   C4B36910  44.640   6.356   7.555
 2816POPC   NC336911  14.620  29.973   9.673
 2816POPC   PO436912  14.080  30.291   9.474
 2816POPC   GL136913  14.361  29.933   9.250
 2816POPC   GL236914  14.240  29.600   9.166
 2816POPC   C1A36915  14.683  29.854   8.926
 2816POPC   D2A36916  14.729  29.851   8.461
 2816POPC   C3A36917  14.511  29.677   8.075
 2816POPC   C4A36918  14.550  29.949   7.700
 2816POPC   C1B36919  14.216  29.836   8.734
 2816POPC   C2B36920  14.205  30.022   8.304
 2816POPC   C3B36921  14.055  29.885   7.912
 2816POPC   C4B36922  14.081  29.935   7.447
 2817POPC   NC336923  11.318  32.792   9.544
 2817POPC   PO436924  11.046  33.422   9.484
 2817POPC   GL136925  11.093  33.085   9.190
 2817POPC   GL236926  11.489  33.067   9.132
 2817POPC   C1A36927  10.991  32.916   8.775
 2817POPC   D2A36928  10.999  32.636   8.410
 2817POPC   C3A36929  11.028  32.843   7.982
 2817POPC   C4A36930  11.245  32.793   7.591
 2817POPC   C1B36931  11.310  33.289   8.780
 2817POPC   C2B36932  11.219  33.158   8.374
 2817POPC   C3B36933  11.105  33.362   8.023
 2817POPC   C4B36934  11.081  33.267   7.591
 2818POPC   NC336935   2.408  25.175   9.633
 2818POPC   PO436936   3.072  25.018   9.473
 2818POPC   GL136937   2.908  25.182   9.082
 2818POPC   GL236938   2.578  25.303   9.135
 2818POPC   C1A36939   2.805  25.402   8.709
 2818POPC   D2A36940   2.960  25.602   8.323
 2818POPC   C3A36941   2.838  25.340   8.003
 2818POPC   C4A36942   2.958  25.190   7.644
 2818POPC   C1B36943   2.495  24.994   8.793
 2818POPC   C2B36944   2.592  24.883   8.419
 2818POPC   C3B36945   2.405  24.953   8.023
 2818POPC   C4B36946   2.540  24.910   7.627
 2819POPC   NC336947  39.624  10.523   9.529
 2819POPC   PO436948  39.011  10.193   9.585
 2819POPC   GL136949  39.120  10.538   9.284
 2819POPC   GL236950  39.390  10.699   9.115
 2819POPC   C1A36951  39.054  10.456   8.832
 2819POPC   D2A36952  39.268  10.495   8.455
 2819POPC   C3A36953  39.003  10.440   8.095
 2819POPC   C4A36954  39.104  10.197   7.795
 2819POPC   C1B36955  39.271  10.953   8.765
 2819POPC   C2B36956  39.437  10.967   8.359
 2819POPC   C3B36957  39.431  10.722   7.988
 2819POPC   C4B36958  39.581  10.899   7.634
 2820POPC   NC336959  13.144  24.749   9.541
 2820POPC   PO436960  12.694  24.220   9.491
 2820POPC   GL136961  12.810  24.528   9.197
 2820POPC   GL236962  13.121  24.373   9.204
 2820POPC   C1A36963  13.047  24.738   8.853
 2820POPC   D2A36964  12.961  24.920   8.444
 2820POPC   C3A36965  13.130  24.650   8.129
 2820POPC   C4A36966  12.912  24.587   7.751
 2820POPC   C1B36967  12.999  24.212   8.819
 2820POPC   C2B36968  13.020  24.196   8.396
 2820POPC   C3B36969  13.018  24.147   7.962
 2820POPC   C4B36970  13.207  24.195   7.573
 2821POPC   NC336971  37.289  40.537   9.452
 2821POPC   PO436972  37.084  41.180   9.632
 2821POPC   GL136973  37.036  40.942   9.257
 2821POPC   GL236974  36.720  40.756   9.179
 2821POPC   C1A36975  37.168  40.822   8.854
 2821POPC   D2A36976  36.981  40.906   8.470
 2821POPC   C3A36977  37.104  40.748   8.096
 2821POPC   C4A36978  37.115  40.983   7.723
 2821POPC   C1B36979  36.592  40.717   8.736
 2821POPC   C2B36980  36.602  40.608   8.265
 2821POPC   C3B36981  36.688  40.720   7.814
 2821POPC   C4B36982  36.574  40.671   7.365
 2822POPC   NC336983  37.157  25.711   9.640
 2822POPC   PO436984  36.829  25.063   9.689
 2822POPC   GL136985  37.099  25.111   9.208
 2822POPC   GL236986  37.244  25.443   9.214
 2822POPC   C1A36987  36.943  25.145   8.730
 2822POPC   D2A36988  36.741  25.007   8.322
 2822POPC   C3A36989  36.722  25.336   7.999
 2822POPC   C4A36990  36.751  25.804   8.027
 2822POPC   C1B36991  37.339  25.473   8.795
 2822POPC   C2B36992  37.074  25.544   8.422
 2822POPC   C3B36993  37.200  25.530   8.015
 2822POPC   C4B36994  37.438  25.444   7.709
 2823POPC   NC336995  27.105  40.673   9.474
 2823POPC   PO436996  27.702  40.541   9.515
 2823POPC   GL136997  27.439  40.535   9.120
 2823POPC   GL236998  27.264  40.901   9.053
 2823POPC   C1A36999  27.482  40.606   8.690
 2823POPC   D2A37000  27.498  40.981   8.463
 2823POPC   C3A37001  27.474  40.852   8.051
 2823POPC   C4A37002  27.550  40.502   7.793
 2823POPC   C1B37003  27.705  41.001   8.942
 2823POPC   C2B37004  28.018  41.035   8.599
 2823POPC   C3B37005  27.934  41.021   8.152
 2823POPC   C4B37006  27.922  40.887   7.709
 2824POPC   NC337007  10.581  40.858   9.548
 2824POPC   PO437008  10.244  41.110   9.168
 2824POPC   GL137009  10.511  40.762   9.033
 2824POPC   GL237010  10.828  40.577   9.177
 2824POPC   C1A37011  10.497  40.873   8.608
 2824POPC   D2A37012  10.365  41.110   8.266
 2824POPC   C3A37013  10.503  40.862   7.936
 2824POPC   C4A37014  10.513  40.676   7.536
 2824POPC   C1B37015  10.958  40.720   8.746
 2824POPC   C2B37016  10.817  40.636   8.293
 2824POPC   C3B37017  10.982  40.684   7.855
 2824POPC   C4B37018  10.976  40.513   7.420
 2825POPC   NC337019  19.959   6.374   9.544
 2825POPC   PO437020  19.369   6.056   9.871
 2825POPC   GL137021  19.599   6.048   9.354
 2825POPC   GL237022  19.754   5.743   9.148
 2825POPC   C1A37023  19.534   6.094   8.845
 2825POPC   D2A37024  19.668   5.865   8.455
 2825POPC   C3A37025  19.622   5.923   8.024
 2825POPC   C4A37026  19.640   6.052   7.606
 2825POPC   C1B37027  20.033   5.769   8.782
 2825POPC   C2B37028  20.182   5.814   8.365
 2825POPC   C3B37029  20.107   5.808   7.920
 2825POPC   C4B37030  20.231   5.494   7.631
 2826POPC   NC337031  18.182  35.507   9.433
 2826POPC   PO437032  18.492  34.955   9.571
 2826POPC   GL137033  18.620  35.150   9.160
 2826POPC   GL237034  18.473  35.480   9.024
 2826POPC   C1A37035  18.442  35.005   8.768
 2826POPC   D2A37036  18.176  34.933   8.409
 2826POPC   C3A37037  18.456  34.969   8.080
 2826POPC   C4A37038  18.378  35.040   7.677
 2826POPC   C1B37039  18.424  35.774   8.631
 2826POPC   C2B37040  18.156  35.675   8.250
 2826POPC   C3B37041  18.048  35.363   7.903
 2826POPC   C4B37042  18.095  35.389   7.430
 2827POPC   NC337043  43.485  21.646   9.583
 2827POPC   PO437044  43.010  21.173   9.597
 2827POPC   GL137045  43.165  21.352   9.268
 2827POPC   GL237046  42.968  21.656   9.250
 2827POPC   C1A37047  43.006  21.184   8.902
 2827POPC   D2A37048  42.990  21.111   8.494
 2827POPC   C3A37049  42.880  21.273   8.113
 2827POPC   C4A37050  43.153  21.290   7.812
 2827POPC   C1B37051  43.194  21.662   8.864
 2827POPC   C2B37052  43.136  21.601   8.446
 2827POPC   C3B37053  43.120  21.766   8.050
 2827POPC   C4B37054  42.883  21.721   7.709
 2828POPC   NC337055   9.401   7.010   9.698
 2828POPC   PO437056   9.895   6.484   9.490
 2828POPC   GL137057   9.700   6.496   9.098
 2828POPC   GL237058   9.535   6.188   8.953
 2828POPC   C1A37059   9.808   6.820   8.784
 2828POPC   D2A37060  10.029   6.889   8.398
 2828POPC   C3A37061   9.878   6.666   8.044
 2828POPC   C4A37062   9.872   6.809   7.613
 2828POPC   C1B37063   9.386   6.520   8.668
 2828POPC   C2B37064   9.219   6.755   8.322
 2828POPC   C3B37065   9.388   6.729   7.922
 2828POPC   C4B37066   9.578   6.422   7.683
 2829POPC   NC337067  25.346  38.463   9.827
 2829POPC   PO437068  26.014  38.445   9.620
 2829POPC   GL137069  25.992  38.426   9.155
 2829POPC   GL237070  25.668  38.321   9.043
 2829POPC   C1A37071  26.243  38.291   8.763
 2829POPC   D2A37072  26.185  38.583   8.376
 2829POPC   C3A37073  26.013  38.481   7.988
 2829POPC   C4A37074  26.096  38.429   7.527
 2829POPC   C1B37075  25.778  38.405   8.644
 2829POPC   C2B37076  25.641  38.180   8.312
 2829POPC   C3B37077  25.566  38.245   7.911
 2829POPC   C4B37078  25.608  38.628   7.715
 2830POPC   NC337079   8.083   1.663   9.493
 2830POPC   PO437080   8.608   2.119   9.425
 2830POPC   GL137081   8.457   2.070   9.041
 2830POPC   GL237082   8.338   1.754   9.056
 2830POPC   C1A37083   8.530   2.307   8.684
 2830POPC   D2A37084   8.429   2.542   8.355
 2830POPC   C3A37085   8.362   2.383   7.954
 2830POPC   C4A37086   8.243   2.135   7.604
 2830POPC   C1B37087   8.217   1.878   8.631
 2830POPC   C2B37088   8.130   2.099   8.306
 2830POPC   C3B37089   8.092   1.835   7.981
 2830POPC   C4B37090   7.790   1.839   7.639
 2831POPC   NC337091  40.740  35.554   9.397
 2831POPC   PO437092  41.146  35.018   9.211
 2831POPC   GL137093  40.843  35.277   8.959
 2831POPC   GL237094  40.518  35.157   8.922
 2831POPC   C1A37095  40.805  35.394   8.501
 2831POPC   D2A37096  41.198  35.523   8.277
 2831POPC   C3A37097  41.254  35.254   7.927
 2831POPC   C4A37098  41.026  35.154   7.545
 2831POPC   C1B37099  40.394  35.535   8.779
 2831POPC   C2B37100  40.218  35.483   8.387
 2831POPC   C3B37101  40.403  35.527   8.013
 2831POPC   C4B37102  40.408  35.723   7.627
 2832POPC   NC337103  15.547  11.039   9.975
 2832POPC   PO437104  14.999  11.222   9.551
 2832POPC   GL137105  15.141  11.365   9.168
 2832POPC   GL237106  15.433  11.602   9.196
 2832POPC   C1A37107  14.997  11.411   8.769
 2832POPC   D2A37108  15.122  11.660   8.417
 2832POPC   C3A37109  15.015  11.428   8.081
 2832POPC   C4A37110  15.093  11.491   7.696
 2832POPC   C1B37111  15.528  11.314   8.839
 2832POPC   C2B37112  15.335  11.189   8.442
 2832POPC   C3B37113  15.438  11.089   8.037
 2832POPC   C4B37114  15.170  10.945   7.760
 2833POPC   NC337115  28.849   3.073   9.909
 2833POPC   PO437116  28.776   2.696   9.363
 2833POPC   GL137117  28.536   2.904   9.034
 2833POPC   GL237118  28.164   2.893   9.083
 2833POPC   C1A37119  28.436   2.760   8.609
 2833POPC   D2A37120  28.587   2.759   8.177
 2833POPC   C3A37121  28.267   2.585   7.898
 2833POPC   C4A37122  27.913   2.543   7.611
 2833POPC   C1B37123  28.188   3.185   8.740
 2833POPC   C2B37124  28.357   3.190   8.322
 2833POPC   C3B37125  28.336   3.155   7.877
 2833POPC   C4B37126  28.225   2.952   7.479
 2834POPC   NC337127  33.579  12.884   9.392
 2834POPC   PO437128  34.215  13.123   9.436
 2834POPC   GL137129  34.030  12.822   9.123
 2834POPC   GL237130  33.795  13.045   8.952
 2834POPC   C1A37131  33.962  12.610   8.712
 2834POPC   D2A37132  33.770  12.740   8.283
 2834POPC   C3A37133  33.996  12.912   7.968
 2834POPC   C4A37134  34.159  12.590   7.743
 2834POPC   C1B37135  33.491  12.799   8.690
 2834POPC   C2B37136  33.272  12.667   8.321
 2834POPC   C3B37137  33.394  12.810   7.912
 2834POPC   C4B37138  33.699  12.738   7.596
 2835POPC   NC337139   6.730   6.627   9.549
 2835POPC   PO437140   6.282   6.212   9.731
 2835POPC   GL137141   6.330   6.521   9.232
 2835POPC   GL237142   6.679   6.735   9.082
 2835POPC   C1A37143   6.352   6.781   8.739
 2835POPC   D2A37144   6.645   6.662   8.375
 2835POPC   C3A37145   6.608   6.872   7.959
 2835POPC   C4A37146   6.387   6.870   7.548
 2835POPC   C1B37147   6.892   6.461   8.800
 2835POPC   C2B37148   7.106   6.403   8.387
 2835POPC   C3B37149   6.985   6.530   7.966
 2835POPC   C4B37150   6.715   6.472   7.629
 2836POPC   NC337151   6.772  12.518   9.841
 2836POPC   PO437152   6.498  11.963   9.526
 2836POPC   GL137153   6.578  11.905   9.068
 2836POPC   GL237154   6.823  12.151   8.901
 2836POPC   C1A37155   6.510  11.849   8.630
 2836POPC   D2A37156   6.332  12.077   8.295
 2836POPC   C3A37157   6.449  11.868   7.955
 2836POPC   C4A37158   6.801  11.797   7.697
 2836POPC   C1B37159   6.614  12.368   8.612
 2836POPC   C2B37160   6.741  12.473   8.244
 2836POPC   C3B37161   6.796  12.234   7.942
 2836POPC   C4B37162   6.809  12.332   7.530
 2837POPC   NC337163  24.896  42.084   9.591
 2837POPC   PO437164  24.522  41.499   9.636
 2837POPC   GL137165  24.572  41.443   9.219
 2837POPC   GL237166  24.735  41.754   9.217
 2837POPC   C1A37167  24.610  41.242   8.808
 2837POPC   D2A37168  24.748  41.246   8.368
 2837POPC   C3A37169  24.507  41.301   8.008
 2837POPC   C4A37170  24.381  41.613   7.767
 2837POPC   C1B37171  24.530  41.802   8.850
 2837POPC   C2B37172  24.653  41.919   8.461
 2837POPC   C3B37173  24.784  41.837   8.080
 2837POPC   C4B37174  24.679  42.000   7.686
 2838POPC   NC337175  33.403  29.905   9.535
 2838POPC   PO437176  32.791  30.016   9.647
 2838POPC   GL137177  32.928  29.931   9.224
 2838POPC   GL237178  33.127  30.223   9.179
 2838POPC   C1A37179  33.081  29.837   8.789
 2838POPC   D2A37180  32.900  29.894   8.368
 2838POPC   C3A37181  32.923  29.646   7.971
 2838POPC   C4A37182  32.723  29.867   7.612
 2838POPC   C1B37183  33.283  30.318   8.746
 2838POPC   C2B37184  33.163  30.427   8.291
 2838POPC   C3B37185  33.006  30.167   7.926
 2838POPC   C4B37186  33.185  30.113   7.489
 2839POPC   NC337187  43.251  42.938   9.532
 2839POPC   PO437188  42.701  43.401   9.506
 2839POPC   GL137189  42.954  43.239   9.158
 2839POPC   GL237190  43.302  43.231   9.129
 2839POPC   C1A37191  43.021  43.314   8.724
 2839POPC   D2A37192  43.044  42.997   8.404
 2839POPC   C3A37193  43.054  43.227   8.054
 2839POPC   C4A37194  43.195  43.109   7.679
 2839POPC   C1B37195  43.401  42.962   8.781
 2839POPC   C2B37196  43.553  42.852   8.348
 2839POPC   C3B37197  43.318  42.720   7.963
 2839POPC   C4B37198  43.333  42.683   7.442
 2840POPC   NC337199  44.606  41.867   9.444
 2840POPC   PO437200  44.374  42.456   9.424
 2840POPC   GL137201  44.575  42.404   9.054
 2840POPC   GL237202  44.474  42.045   8.982
 2840POPC   C1A37203  44.945  42.196   8.848
 2840POPC   D2A37204  44.949  41.975   8.430
 2840POPC   C3A37205  44.719  42.198   8.098
 2840POPC   C4A37206  44.764  42.603   7.909
 2840POPC   C1B37207  44.500  42.217   8.573
 2840POPC   C2B37208  44.415  42.588   8.329
 2840POPC   C3B37209  44.266  42.551   7.918
 2840POPC   C4B37210  44.462  42.239   7.633
 2841POPC   NC337211  38.229  41.990   9.498
 2841POPC   PO437212  38.678  41.450   9.512
 2841POPC   GL137213  38.516  41.645   9.171
 2841POPC   GL237214  38.147  41.791   9.044
 2841POPC   C1A37215  38.411  41.457   8.794
 2841POPC   D2A37216  38.114  41.579   8.500
 2841POPC   C3A37217  38.184  41.427   8.090
 2841POPC   C4A37218  38.031  41.394   7.679
 2841POPC   C1B37219  38.541  41.988   8.814
 2841POPC   C2B37220  38.755  42.040   8.410
 2841POPC   C3B37221  38.567  41.941   8.019
 2841POPC   C4B37222  38.435  41.692   7.683
 2842POPC   NC337223  39.662  13.003   9.380
 2842POPC   PO437224  40.299  13.089   9.527
 2842POPC   GL137225  40.258  12.789   9.191
 2842POPC   GL237226  39.943  12.598   9.199
 2842POPC   C1A37227  40.312  12.722   8.770
 2842POPC   D2A37228  39.990  12.755   8.433
 2842POPC   C3A37229  40.076  12.891   8.005
 2842POPC   C4A37230  39.828  13.115   7.684
 2842POPC   C1B37231  39.951  12.385   8.811
 2842POPC   C2B37232  40.212  12.297   8.442
 2842POPC   C3B37233  39.989  12.373   8.067
 2842POPC   C4B37234  40.090  12.430   7.624
 2843POPC   NC337235   4.783  14.208   9.504
 2843POPC   PO437236   5.499  14.154   9.388
 2843POPC   GL137237   5.436  14.378   9.018
 2843POPC   GL237238   5.060  14.373   9.052
 2843POPC   C1A37239   5.290  14.277   8.591
 2843POPC   D2A37240   4.975  14.352   8.265
 2843POPC   C3A37241   5.138  14.273   7.843
 2843POPC   C4A37242   5.215  14.279   7.386
 2843POPC   C1B37243   4.771  14.159   8.724
 2843POPC   C2B37244   4.524  14.042   8.347
 2843POPC   C3B37245   4.667  14.073   7.927
 2843POPC   C4B37246   4.738  14.379   7.580
 2844POPC   NC337247   0.181   2.503   9.975
 2844POPC   PO437248   0.393   2.991   9.503
 2844POPC   GL137249   0.506   2.747   9.143
 2844POPC   GL237250   0.715   2.976   8.991
 2844POPC   C1A37251   0.624   2.576   8.705
 2844POPC   D2A37252   0.506   2.736   8.291
 2844POPC   C3A37253   0.626   2.563   7.922
 2844POPC   C4A37254   0.481   2.254   7.641
 2844POPC   C1B37255   0.421   3.085   8.688
 2844POPC   C2B37256   0.124   3.074   8.369
 2844POPC   C3B37257   0.217   2.986   7.952
 2844POPC   C4B37258   0.604   3.056   7.756
 2845POPC   NC337259  28.338  25.889   9.443
 2845POPC   PO437260  28.694  26.457   9.514
 2845POPC   GL137261  28.476  26.320   9.150
 2845POPC   GL237262  28.556  25.985   8.975
 2845POPC   C1A37263  28.560  26.434   8.733
 2845POPC   D2A37264  28.793  26.126   8.502
 2845POPC   C3A37265  28.462  26.017   8.243
 2845POPC   C4A37266  28.461  25.993   7.816
 2845POPC   C1B37267  28.255  25.748   8.676
 2845POPC   C2B37268  27.996  25.717   8.305
 2845POPC   C3B37269  27.995  25.792   7.856
 2845POPC   C4B37270  28.145  25.830   7.428
 2846POPC   NC337271   2.143   1.696   9.359
 2846POPC   PO437272   1.697   1.206   9.415
 2846POPC   GL137273   1.862   1.083   9.035
 2846POPC   GL237274   2.182   1.119   9.140
 2846POPC   C1A37275   2.033   1.411   8.724
 2846POPC   D2A37276   2.056   1.605   8.286
 2846POPC   C3A37277   2.011   1.363   7.906
 2846POPC   C4A37278   1.667   1.487   7.630
 2846POPC   C1B37279   2.319   1.002   8.756
 2846POPC   C2B37280   2.185   1.079   8.345
 2846POPC   C3B37281   2.318   0.943   7.964
 2846POPC   C4B37282   2.269   1.037   7.544
 2847POPC   NC337283   5.658   0.876   9.487
 2847POPC   PO437284   6.188   1.144   9.521
 2847POPC   GL137285   6.050   1.231   9.142
 2847POPC   GL237286   5.962   1.569   9.208
 2847POPC   C1A37287   6.139   1.202   8.709
 2847POPC   D2A37288   5.825   0.993   8.446
 2847POPC   C3A37289   5.690   1.171   8.055
 2847POPC   C4A37290   5.909   1.141   7.707
 2847POPC   C1B37291   5.952   1.668   8.799
 2847POPC   C2B37292   5.865   1.515   8.400
 2847POPC   C3B37293   6.164   1.384   8.096
 2847POPC   C4B37294   6.157   1.608   7.718
 2848POPC   NC337295   6.335  27.056   9.327
 2848POPC   PO437296   6.810  26.593   9.426
 2848POPC   GL137297   6.786  26.790   9.076
 2848POPC   GL237298   6.481  26.695   8.997
 2848POPC   C1A37299   6.940  26.575   8.730
 2848POPC   D2A37300   7.011  26.491   8.309
 2848POPC   C3A37301   6.641  26.488   8.037
 2848POPC   C4A37302   6.682  26.815   7.751
 2848POPC   C1B37303   6.586  26.943   8.633
 2848POPC   C2B37304   6.457  26.924   8.230
 2848POPC   C3B37305   6.207  26.882   7.887
 2848POPC   C4B37306   6.333  27.227   7.655
 2849POPC   NC337307   3.648  44.986   9.492
 2849POPC   PO437308   3.862  44.286   9.616
 2849POPC   GL137309   3.760  44.538   9.264
 2849POPC   GL237310   3.441  44.650   9.190
 2849POPC   C1A37311   3.758  44.514   8.811
 2849POPC   D2A37312   3.757  44.757   8.435
 2849POPC   C3A37313   3.722  44.587   8.010
 2849POPC   C4A37314   3.956  44.760   7.692
 2849POPC   C1B37315   3.360  44.888   8.792
 2849POPC   C2B37316   3.267  44.868   8.353
 2849POPC   C3B37317   3.443  44.988   7.965
 2849POPC   C4B37318   3.484  44.830   7.544
 2850POPC   NC337319   4.467  41.658   9.592
 2850POPC   PO437320   3.929  41.419   9.481
 2850POPC   GL137321   4.202  41.635   9.150
 2850POPC   GL237322   4.513  41.857   9.116
 2850POPC   C1A37323   4.132  41.409   8.800
 2850POPC   D2A37324   4.031  41.325   8.388
 2850POPC   C3A37325   4.355  41.359   8.108
 2850POPC   C4A37326   4.422  41.407   7.676
 2850POPC   C1B37327   4.406  41.807   8.680
 2850POPC   C2B37328   4.222  41.891   8.273
 2850POPC   C3B37329   4.421  41.860   7.873
 2850POPC   C4B37330   4.777  41.790   7.568
 2851POPC   NC337331  39.616  33.565   9.544
 2851POPC   PO437332  38.954  33.796   9.589
 2851POPC   GL137333  39.078  33.847   9.182
 2851POPC   GL237334  39.425  33.869   9.175
 2851POPC   C1A37335  39.118  33.957   8.758
 2851POPC   D2A37336  38.943  33.791   8.402
 2851POPC   C3A37337  39.066  33.975   8.052
 2851POPC   C4A37338  39.135  33.750   7.728
 2851POPC   C1B37339  39.625  33.825   8.786
 2851POPC   C2B37340  39.461  33.797   8.397
 2851POPC   C3B37341  39.528  33.591   8.019
 2851POPC   C4B37342  39.739  33.756   7.684
 2852POPC   NC337343   3.995   7.536   9.291
 2852POPC   PO437344   3.489   7.953   9.525
 2852POPC   GL137345   3.318   8.067   9.115
 2852POPC   GL237346   3.009   7.859   9.069
 2852POPC   C1A37347   3.546   8.214   8.721
 2852POPC   D2A37348   3.615   8.564   8.432
 2852POPC   C3A37349   3.505   8.507   8.003
 2852POPC   C4A37350   3.385   8.208   7.719
 2852POPC   C1B37351   3.171   7.889   8.629
 2852POPC   C2B37352   3.472   7.977   8.251
 2852POPC   C3B37353   3.593   7.735   7.873
 2852POPC   C4B37354   3.406   7.614   7.465
 2853POPC   NC337355  31.013  39.203   9.536
 2853POPC   PO437356  30.394  38.857   9.528
 2853POPC   GL137357  30.647  39.099   9.213
 2853POPC   GL237358  30.404  39.146   9.063
 2853POPC   C1A37359  30.809  39.402   8.847
 2853POPC   D2A37360  31.086  39.490   8.475
 2853POPC   C3A37361  30.848  39.378   8.096
 2853POPC   C4A37362  30.973  39.051   7.831
 2853POPC   C1B37363  30.462  39.015   8.707
 2853POPC   C2B37364  30.563  38.789   8.414
 2853POPC   C3B37365  30.470  38.804   8.037
 2853POPC   C4B37366  30.490  39.136   7.777
 2854POPC   NC337367   5.190   0.408   9.615
 2854POPC   PO437368   5.031   0.012   9.116
 2854POPC   GL137369   5.115   0.413   9.072
 2854POPC   GL237370   5.458   0.466   9.187
 2854POPC   C1A37371   5.065   0.489   8.643
 2854POPC   D2A37372   5.034   0.638   8.242
 2854POPC   C3A37373   4.830   0.376   7.935
 2854POPC   C4A37374   4.826   0.733   7.684
 2854POPC   C1B37375   5.520   0.698   8.839
 2854POPC   C2B37376   5.548   0.553   8.461
 2854POPC   C3B37377   5.529   0.681   8.100
 2854POPC   C4B37378   5.298   0.548   7.793
 2855POPC   NC337379   3.811  23.286   9.557
 2855POPC   PO437380   3.479  22.716   9.384
 2855POPC   GL137381   3.476  23.028   9.093
 2855POPC   GL237382   3.831  23.064   9.094
 2855POPC   C1A37383   3.327  22.966   8.651
 2855POPC   D2A37384   3.331  22.699   8.270
 2855POPC   C3A37385   3.400  22.862   7.832
 2855POPC   C4A37386   3.236  22.803   7.366
 2855POPC   C1B37387   3.834  22.906   8.695
 2855POPC   C2B37388   3.727  23.000   8.278
 2855POPC   C3B37389   3.927  22.936   7.909
 2855POPC   C4B37390   3.821  23.204   7.620
 2856POPC   NC337391  35.680  41.804   9.776
 2856POPC   PO437392  36.299  41.746   9.408
 2856POPC   GL137393  36.199  41.471   9.122
 2856POPC   GL237394  35.877  41.579   9.065
 2856POPC   C1A37395  36.246  41.496   8.693
 2856POPC   D2A37396  36.098  41.639   8.305
 2856POPC   C3A37397  36.154  41.362   7.977
 2856POPC   C4A37398  36.178  41.630   7.648
 2856POPC   C1B37399  35.866  41.861   8.712
 2856POPC   C2B37400  35.661  41.910   8.341
 2856POPC   C3B37401  35.828  41.922   7.923
 2856POPC   C4B37402  35.589  41.908   7.552
 2857POPC   NC337403  22.536  39.564   9.271
 2857POPC   PO437404  21.890  39.559   9.408
 2857POPC   GL137405  21.946  39.323   9.071
 2857POPC   GL237406  22.232  39.150   9.185
 2857POPC   C1A37407  22.036  39.389   8.668
 2857POPC   D2A37408  22.209  39.633   8.340
 2857POPC   C3A37409  22.059  39.413   8.056
 2857POPC   C4A37410  21.971  39.206   7.703
 2857POPC   C1B37411  22.366  38.959   8.798
 2857POPC   C2B37412  22.246  39.029   8.374
 2857POPC   C3B37413  22.443  39.082   7.992
 2857POPC   C4B37414  22.287  38.799   7.719
 2858POPC   NC337415  30.895  13.352   9.473
 2858POPC   PO437416  30.378  13.733   9.340
 2858POPC   GL137417  30.731  13.823   9.110
 2858POPC   GL237418  30.734  13.483   9.022
 2858POPC   C1A37419  30.637  13.811   8.654
 2858POPC   D2A37420  30.368  13.565   8.369
 2858POPC   C3A37421  30.532  13.582   7.956
 2858POPC   C4A37422  30.876  13.885   7.858
 2858POPC   C1B37423  30.959  13.341   8.705
 2858POPC   C2B37424  30.882  13.487   8.323
 2858POPC   C3B37425  30.962  13.308   7.967
 2858POPC   C4B37426  31.068  13.459   7.642
 2859POPC   NC337427  17.097   3.377   9.690
 2859POPC   PO437428  17.759   3.518   9.563
 2859POPC   GL137429  17.605   3.475   9.162
 2859POPC   GL237430  17.391   3.728   9.122
 2859POPC   C1A37431  17.803   3.494   8.754
 2859POPC   D2A37432  17.831   3.704   8.341
 2859POPC   C3A37433  17.760   3.554   7.922
 2859POPC   C4A37434  17.874   3.191   7.694
 2859POPC   C1B37435  17.187   3.635   8.760
 2859POPC   C2B37436  17.308   3.694   8.367
 2859POPC   C3B37437  17.253   3.585   7.975
 2859POPC   C4B37438  17.056   3.450   7.623
 2860POPC   NC337439  16.137  12.747   9.370
 2860POPC   PO437440  15.583  13.046   9.450
 2860POPC   GL137441  15.708  12.812   9.068
 2860POPC   GL237442  16.047  12.598   8.905
 2860POPC   C1A37443  15.908  13.053   8.734
 2860POPC   D2A37444  16.036  12.906   8.346
 2860POPC   C3A37445  15.790  13.059   7.996
 2860POPC   C4A37446  16.092  13.002   7.676
 2860POPC   C1B37447  15.698  12.563   8.632
 2860POPC   C2B37448  15.643  12.573   8.196
 2860POPC   C3B37449  15.985  12.570   7.926
 2860POPC   C4B37450  15.746  12.482   7.583
 2861POPC   NC337451  13.648  30.121   9.511
 2861POPC   PO437452  13.636  29.495   9.616
 2861POPC   GL137453  13.720  29.674   9.182
 2861POPC   GL237454  13.886  29.987   9.094
 2861POPC   C1A37455  13.548  29.797   8.773
 2861POPC   D2A37456  13.735  29.865   8.381
 2861POPC   C3A37457  13.535  29.816   7.997
 2861POPC   C4A37458  13.674  29.668   7.613
 2861POPC   C1B37459  13.876  30.217   8.724
 2861POPC   C2B37460  13.605  30.373   8.434
 2861POPC   C3B37461  13.789  30.288   8.070
 2861POPC   C4B37462  13.705  30.182   7.659
 2862POPC   NC337463   0.235  18.355   9.415
 2862POPC   PO437464   0.700  17.816   9.397
 2862POPC   GL137465   0.420  17.961   9.051
 2862POPC   GL237466   0.480  18.320   8.959
 2862POPC   C1A37467   0.351  18.006   8.584
 2862POPC   D2A37468   0.511  18.349   8.314
 2862POPC   C3A37469   0.641  18.153   7.919
 2862POPC   C4A37470   0.611  18.196   7.468
 2862POPC   C1B37471   0.012  18.334   8.779
 2862POPC   C2B37472  44.926  18.299   8.326
 2862POPC   C3B37473   0.107  18.551   7.998
 2862POPC   C4B37474   0.487  18.627   7.763
 2863POPC   NC337475  17.697  39.005   9.368
 2863POPC   PO437476  17.456  39.599   9.555
 2863POPC   GL137477  17.365  39.373   9.174
 2863POPC   GL237478  17.688  39.345   9.001
 2863POPC   C1A37479  17.254  39.319   8.735
 2863POPC   D2A37480  17.603  39.296   8.436
 2863POPC   C3A37481  17.397  39.253   8.045
 2863POPC   C4A37482  17.089  39.531   7.870
 2863POPC   C1B37483  17.991  39.125   8.757
 2863POPC   C2B37484  17.885  38.864   8.437
 2863POPC   C3B37485  17.878  39.090   8.034
 2863POPC   C4B37486  17.912  38.972   7.624
 2864POPC   NC337487  12.899   4.206   9.419
 2864POPC   PO437488  12.380   4.769   9.474
 2864POPC   GL137489  12.531   4.524   9.081
 2864POPC   GL237490  12.755   4.210   8.941
 2864POPC   C1A37491  12.595   4.554   8.641
 2864POPC   D2A37492  12.789   4.278   8.368
 2864POPC   C3A37493  13.003   4.500   8.055
 2864POPC   C4A37494  12.836   4.656   7.670
 2864POPC   C1B37495  13.084   3.995   8.701
 2864POPC   C2B37496  13.258   4.086   8.290
 2864POPC   C3B37497  12.989   4.022   7.917
 2864POPC   C4B37498  13.056   4.074   7.495
 2865POPC   NC337499  11.856  27.302   9.435
 2865POPC   PO437500  12.341  27.779   9.561
 2865POPC   GL137501  12.110  27.763   9.210
 2865POPC   GL237502  12.223  27.479   9.130
 2865POPC   C1A37503  12.086  27.885   8.791
 2865POPC   D2A37504  12.253  27.810   8.386
 2865POPC   C3A37505  12.021  27.608   8.090
 2865POPC   C4A37506  11.990  27.582   7.668
 2865POPC   C1B37507  12.122  27.325   8.765
 2865POPC   C2B37508  12.110  27.204   8.381
 2865POPC   C3B37509  12.308  27.165   8.028
 2865POPC   C4B37510  12.269  27.144   7.618
 2866POPC   NC337511  23.621  22.085   9.485
 2866POPC   PO437512  23.512  22.732   9.559
 2866POPC   GL137513  23.439  22.383   9.135
 2866POPC   GL237514  23.677  22.068   8.996
 2866POPC   C1A37515  23.435  22.349   8.665
 2866POPC   D2A37516  23.620  21.957   8.479
 2866POPC   C3A37517  23.611  21.832   8.032
 2866POPC   C4A37518  23.423  22.159   7.769
 2866POPC   C1B37519  24.038  21.840   8.771
 2866POPC   C2B37520  24.312  21.881   8.410
 2866POPC   C3B37521  24.150  21.929   7.969
 2866POPC   C4B37522  23.900  22.048   7.598
 2867POPC   NC337523   6.403  22.084   9.534
 2867POPC   PO437524   6.901  22.516   9.409
 2867POPC   GL137525   6.575  22.349   9.104
 2867POPC   GL237526   6.540  21.981   9.069
 2867POPC   C1A37527   6.538  22.304   8.662
 2867POPC   D2A37528   6.406  22.521   8.282
 2867POPC   C3A37529   6.612  22.370   7.890
 2867POPC   C4A37530   6.478  22.121   7.520
 2867POPC   C1B37531   6.562  21.799   8.670
 2867POPC   C2B37532   6.557  21.988   8.271
 2867POPC   C3B37533   6.689  21.847   7.904
 2867POPC   C4B37534   6.956  21.998   7.604
 2868POPC   NC337535  10.045  14.081   9.459
 2868POPC   PO437536   9.603  14.559   9.493
 2868POPC   GL137537   9.767  14.406   9.142
 2868POPC   GL237538   9.452  14.343   8.972
 2868POPC   C1A37539   9.882  14.534   8.753
 2868POPC   D2A37540   9.702  14.403   8.387
 2868POPC   C3A37541   9.883  14.478   8.031
 2868POPC   C4A37542   9.923  14.740   7.734
 2868POPC   C1B37543   9.298  13.926   8.810
 2868POPC   C2B37544   9.324  13.772   8.399
 2868POPC   C3B37545   9.559  13.980   8.138
 2868POPC   C4B37546   9.510  14.233   7.805
 2869POPC   NC337547  34.469   2.529   9.409
 2869POPC   PO437548  34.720   3.199   9.216
 2869POPC   GL137549  34.762   2.848   8.964
 2869POPC   GL237550  34.991   2.603   9.112
 2869POPC   C1A37551  34.399   2.665   8.759
 2869POPC   D2A37552  34.142   2.596   8.405
 2869POPC   C3A37553  34.310   2.898   8.137
 2869POPC   C4A37554  34.693   2.890   7.891
 2869POPC   C1B37555  34.834   2.389   8.732
 2869POPC   C2B37556  34.684   2.546   8.339
 2869POPC   C3B37557  34.535   2.404   7.963
 2869POPC   C4B37558  34.695   2.498   7.528
 2870POPC   NC337559  38.678  17.015   9.502
 2870POPC   PO437560  38.061  16.611   9.579
 2870POPC   GL137561  38.256  16.791   9.214
 2870POPC   GL237562  38.500  16.567   9.105
 2870POPC   C1A37563  38.346  16.915   8.772
 2870POPC   D2A37564  38.181  16.972   8.373
 2870POPC   C3A37565  38.305  16.787   7.990
 2870POPC   C4A37566  38.276  16.471   7.703
 2870POPC   C1B37567  38.792  16.721   8.776
 2870POPC   C2B37568  38.708  16.845   8.341
 2870POPC   C3B37569  38.803  16.810   7.906
 2870POPC   C4B37570  38.801  16.711   7.464
 2871POPC   NC337571  41.867   3.368   9.374
 2871POPC   PO437572  41.628   3.915   9.675
 2871POPC   GL137573  41.439   3.862   9.207
 2871POPC   GL237574  41.447   3.508   9.093
 2871POPC   C1A37575  41.530   3.808   8.687
 2871POPC   D2A37576  41.868   3.679   8.346
 2871POPC   C3A37577  41.849   3.848   7.901
 2871POPC   C4A37578  41.692   3.992   7.456
 2871POPC   C1B37579  41.718   3.306   8.740
 2871POPC   C2B37580  41.784   3.120   8.321
 2871POPC   C3B37581  41.694   3.195   7.879
 2871POPC   C4B37582  41.519   3.513   7.596
 2872POPC   NC337583   9.820  11.737   9.415
 2872POPC   PO437584   9.629  12.400   9.550
 2872POPC   GL137585   9.667  12.175   9.192
 2872POPC   GL237586   9.990  12.047   9.041
 2872POPC   C1A37587   9.500  12.273   8.831
 2872POPC   D2A37588   9.763  12.294   8.489
 2872POPC   C3A37589   9.545  12.188   8.120
 2872POPC   C4A37590   9.785  12.199   7.760
 2872POPC   C1B37591   9.726  11.824   8.728
 2872POPC   C2B37592   9.874  11.792   8.303
 2872POPC   C3B37593   9.695  11.709   7.906
 2872POPC   C4B37594   9.363  11.888   7.716
 2873POPC   NC337595   6.376  33.356   9.439
 2873POPC   PO437596   6.741  33.920   9.491
 2873POPC   GL137597   6.707  33.676   9.133
 2873POPC   GL237598   6.650  34.003   8.991
 2873POPC   C1A37599   6.813  33.635   8.689
 2873POPC   D2A37600   6.718  33.947   8.353
 2873POPC   C3A37601   6.841  33.870   7.924
 2873POPC   C4A37602   6.964  33.545   7.621
 2873POPC   C1B37603   6.503  34.279   8.703
 2873POPC   C2B37604   6.252  34.172   8.371
 2873POPC   C3B37605   6.400  34.195   7.967
 2873POPC   C4B37606   6.465  33.952   7.577
 2874POPC   NC337607   1.592  14.212   9.404
 2874POPC   PO437608   2.082  14.633   9.532
 2874POPC   GL137609   2.025  14.439   9.168
 2874POPC   GL237610   1.718  14.611   9.116
 2874POPC   C1A37611   2.300  14.467   8.805
 2874POPC   D2A37612   2.462  14.624   8.403
 2874POPC   C3A37613   2.242  14.394   8.112
 2874POPC   C4A37614   2.217  14.245   7.720
 2874POPC   C1B37615   1.831  14.634   8.711
 2874POPC   C2B37616   1.782  14.405   8.349
 2874POPC   C3B37617   1.697  14.419   7.927
 2874POPC   C4B37618   1.909  14.613   7.583
 2875POPC   NC337619  25.002  40.412   9.378
 2875POPC   PO437620  25.201  41.024   9.383
 2875POPC   GL137621  25.333  40.777   9.059
 2875POPC   GL237622  25.500  41.079   8.888
 2875POPC   C1A37623  25.421  40.600   8.651
 2875POPC   D2A37624  25.677  40.501   8.267
 2875POPC   C3A37625  25.393  40.699   7.944
 2875POPC   C4A37626  25.391  40.669   7.507
 2875POPC   C1B37627  25.091  41.028   8.704
 2875POPC   C2B37628  25.043  40.828   8.326
 2875POPC   C3B37629  24.980  41.037   7.946
 2875POPC   C4B37630  24.970  40.931   7.530
 2876POPC   NC337631  15.907  17.572   9.522
 2876POPC   PO437632  16.257  17.025   9.585
 2876POPC   GL137633  15.963  17.192   9.189
 2876POPC   GL237634  16.093  17.526   9.071
 2876POPC   C1A37635  15.754  17.359   8.762
 2876POPC   D2A37636  16.030  17.556   8.447
 2876POPC   C3A37637  15.857  17.617   8.082
 2876POPC   C4A37638  15.502  17.544   7.855
 2876POPC   C1B37639  16.247  17.238   8.768
 2876POPC   C2B37640  16.467  17.272   8.411
 2876POPC   C3B37641  16.270  17.191   8.028
 2876POPC   C4B37642  15.867  17.157   7.829
 2877POPC   NC337643   5.715  25.710   9.599
 2877POPC   PO437644   6.084  25.142   9.493
 2877POPC   GL137645   5.821  25.338   9.201
 2877POPC   GL237646   5.942  25.673   9.141
 2877POPC   C1A37647   5.818  25.332   8.742
 2877POPC   D2A37648   5.617  25.205   8.360
 2877POPC   C3A37649   5.853  25.326   8.000
 2877POPC   C4A37650   6.029  25.053   7.697
 2877POPC   C1B37651   5.495  25.658   8.981
 2877POPC   C2B37652   5.434  25.654   8.552
 2877POPC   C3B37653   5.434  25.610   8.111
 2877POPC   C4B37654   5.555  25.545   7.673
 2878POPC   NC337655  33.763   4.786   9.435
 2878POPC   PO437656  33.359   5.275   9.618
 2878POPC   GL137657  33.474   5.183   9.175
 2878POPC   GL237658  33.844   5.181   9.104
 2878POPC   C1A37659  33.550   5.146   8.704
 2878POPC   D2A37660  33.455   4.991   8.320
 2878POPC   C3A37661  33.584   5.085   7.916
 2878POPC   C4A37662  33.856   5.359   7.765
 2878POPC   C1B37663  34.015   4.888   8.808
 2878POPC   C2B37664  34.295   4.921   8.483
 2878POPC   C3B37665  34.095   5.035   8.137
 2878POPC   C4B37666  34.071   4.877   7.785
 2879POPC   NC337667  23.912  22.969   9.439
 2879POPC   PO437668  23.301  22.854   9.095
 2879POPC   GL137669  23.727  22.793   8.990
 2879POPC   GL237670  23.923  22.540   9.110
 2879POPC   C1A37671  23.864  22.947   8.624
 2879POPC   D2A37672  23.519  23.166   8.425
 2879POPC   C3A37673  23.575  22.981   8.069
 2879POPC   C4A37674  24.009  22.966   7.968
 2879POPC   C1B37675  23.959  22.384   8.699
 2879POPC   C2B37676  24.028  22.510   8.280
 2879POPC   C3B37677  23.750  22.507   7.931
 2879POPC   C4B37678  23.485  22.700   7.640
 2880POPC   NC337679  34.712  39.491   9.411
 2880POPC   PO437680  34.220  39.020   9.423
 2880POPC   GL137681  34.399  39.172   9.110
 2880POPC   GL237682  34.196  39.473   9.157
 2880POPC   C1A37683  34.517  38.985   8.745
 2880POPC   D2A37684  34.379  38.947   8.341
 2880POPC   C3A37685  34.704  39.105   8.070
 2880POPC   C4A37686  34.644  39.232   7.657
 2880POPC   C1B37687  34.430  39.589   8.826
 2880POPC   C2B37688  34.516  39.427   8.443
 2880POPC   C3B37689  34.288  39.412   8.072
 2880POPC   C4B37690  34.307  39.599   7.670
 2881POPC   NC337691  28.291  27.885   9.442
 2881POPC   PO437692  28.653  27.293   9.587
 2881POPC   GL137693  28.428  27.289   9.180
 2881POPC   GL237694  28.093  27.476   9.172
 2881POPC   C1A37695  28.439  27.488   8.787
 2881POPC   D2A37696  28.646  27.615   8.445
 2881POPC   C3A37697  28.536  27.388   8.111
 2881POPC   C4A37698  28.555  27.480   7.700
 2881POPC   C1B37699  28.001  27.760   8.789
 2881POPC   C2B37700  28.217  27.918   8.423
 2881POPC   C3B37701  28.338  27.859   7.997
 2881POPC   C4B37702  28.261  27.856   7.520
 2882POPC   NC337703  42.737  43.854   9.576
 2882POPC   PO437704  43.386  44.054   9.455
 2882POPC   GL137705  43.275  43.745   9.143
 2882POPC   GL237706  42.940  43.738   9.130
 2882POPC   C1A37707  43.229  43.797   8.683
 2882POPC   D2A37708  43.322  44.061   8.298
 2882POPC   C3A37709  43.334  43.951   7.875
 2882POPC   C4A37710  43.350  43.584   7.706
 2882POPC   C1B37711  42.643  43.649   8.833
 2882POPC   C2B37712  42.743  43.785   8.439
 2882POPC   C3B37713  42.846  43.988   8.073
 2882POPC   C4B37714  42.865  43.774   7.686
 2883POPC   NC337715  30.615  31.901   9.439
 2883POPC   PO437716  30.881  32.362   9.802
 2883POPC   GL137717  30.936  32.347   9.332
 2883POPC   GL237718  31.040  32.042   9.203
 2883POPC   C1A37719  30.697  32.361   8.905
 2883POPC   D2A37720  30.558  32.234   8.460
 2883POPC   C3A37721  30.501  32.521   8.072
 2883POPC   C4A37722  30.635  32.489   7.637
 2883POPC   C1B37723  31.072  32.044   8.765
 2883POPC   C2B37724  30.945  31.913   8.353
 2883POPC   C3B37725  30.791  32.092   7.992
 2883POPC   C4B37726  31.083  32.233   7.727
 2884POPC   NC337727  17.049  14.112   9.774
 2884POPC   PO437728  17.672  14.260   9.482
 2884POPC   GL137729  17.618  14.338   9.065
 2884POPC   GL237730  17.728  13.980   9.023
 2884POPC   C1A37731  17.336  14.513   8.709
 2884POPC   D2A37732  17.221  14.383   8.270
 2884POPC   C3A37733  17.409  14.622   7.947
 2884POPC   C4A37734  17.770  14.658   7.708
 2884POPC   C1B37735  17.456  14.024   8.705
 2884POPC   C2B37736  17.423  13.899   8.332
 2884POPC   C3B37737  17.492  14.071   7.949
 2884POPC   C4B37738  17.404  13.832   7.619
 2885POPC   NC337739  35.240   6.470   9.651
 2885POPC   PO437740  35.740   6.833   9.463
 2885POPC   GL137741  35.517   6.610   9.120
 2885POPC   GL237742  35.151   6.615   9.145
 2885POPC   C1A37743  35.592   6.549   8.672
 2885POPC   D2A37744  35.850   6.645   8.325
 2885POPC   C3A37745  35.603   6.695   7.957
 2885POPC   C4A37746  35.368   6.937   7.666
 2885POPC   C1B37747  35.111   6.746   8.709
 2885POPC   C2B37748  35.182   6.615   8.257
 2885POPC   C3B37749  35.140   6.505   7.786
 2885POPC   C4B37750  35.100   6.670   7.330
 2886POPC   NC337751   8.417  22.873   9.489
 2886POPC   PO437752   7.760  22.928   9.465
 2886POPC   GL137753   8.090  22.869   9.098
 2886POPC   GL237754   8.378  23.164   9.099
 2886POPC   C1A37755   8.045  22.749   8.641
 2886POPC   D2A37756   7.908  22.909   8.237
 2886POPC   C3A37757   8.238  22.851   7.979
 2886POPC   C4A37758   8.337  22.736   7.549
 2886POPC   C1B37759   8.583  23.266   8.748
 2886POPC   C2B37760   8.417  23.128   8.387
 2886POPC   C3B37761   8.605  23.248   8.035
 2886POPC   C4B37762   8.707  23.097   7.638
 2887POPC   NC337763  38.003  13.213   9.324
 2887POPC   PO437764  37.578  12.772   9.644
 2887POPC   GL137765  37.498  12.764   9.212
 2887POPC   GL237766  37.842  12.717   9.162
 2887POPC   C1A37767  37.505  13.039   8.841
 2887POPC   D2A37768  37.681  13.066   8.438
 2887POPC   C3A37769  37.438  12.921   8.122
 2887POPC   C4A37770  37.506  12.925   7.684
 2887POPC   C1B37771  38.003  12.886   8.775
 2887POPC   C2B37772  38.174  12.907   8.375
 2887POPC   C3B37773  37.951  12.985   7.985
 2887POPC   C4B37774  37.959  13.304   7.645
 2888POPC   NC337775  43.080  27.046   9.557
 2888POPC   PO437776  43.683  26.713   9.643
 2888POPC   GL137777  43.389  26.705   9.278
 2888POPC   GL237778  43.310  27.021   9.089
 2888POPC   C1A37779  43.150  26.524   8.915
 2888POPC   D2A37780  42.841  26.498   8.549
 2888POPC   C3A37781  42.957  26.422   8.077
 2888POPC   C4A37782  42.768  26.509   7.651
 2888POPC   C1B37783  42.937  26.956   8.787
 2888POPC   C2B37784  42.981  26.914   8.314
 2888POPC   C3B37785  42.998  26.923   7.865
 2888POPC   C4B37786  43.317  27.014   7.558
 2889POPC   NC337787  31.319  12.543   9.478
 2889POPC   PO437788  31.740  13.039   9.626
 2889POPC   GL137789  31.657  12.842   9.237
 2889POPC   GL237790  31.666  13.176   9.125
 2889POPC   C1A37791  31.434  12.713   8.854
 2889POPC   D2A37792  31.597  12.796   8.469
 2889POPC   C3A37793  31.570  12.617   8.053
 2889POPC   C4A37794  31.562  12.728   7.621
 2889POPC   C1B37795  31.461  13.235   8.737
 2889POPC   C2B37796  31.290  13.165   8.327
 2889POPC   C3B37797  31.452  13.139   7.924
 2889POPC   C4B37798  31.729  13.196   7.624
 2890POPC   NC337799  11.563  24.963   9.439
 2890POPC   PO437800  11.663  25.551   9.497
 2890POPC   GL137801  11.328  25.359   9.169
 2890POPC   GL237802  10.980  25.548   9.116
 2890POPC   C1A37803  11.312  25.039   8.868
 2890POPC   D2A37804  11.353  24.931   8.465
 2890POPC   C3A37805  11.491  25.253   8.211
 2890POPC   C4A37806  11.519  25.061   7.829
 2890POPC   C1B37807  10.924  25.309   8.728
 2890POPC   C2B37808  11.005  25.415   8.316
 2890POPC   C3B37809  11.007  25.225   7.901
 2890POPC   C4B37810  11.077  25.293   7.446
 2891POPC   NC337811  37.949  22.663   9.457
 2891POPC   PO437812  37.269  22.945   9.375
 2891POPC   GL137813  37.625  22.872   9.120
 2891POPC   GL237814  37.861  23.129   9.060
 2891POPC   C1A37815  37.737  22.784   8.713
 2891POPC   D2A37816  37.716  22.644   8.329
 2891POPC   C3A37817  37.388  22.853   8.128
 2891POPC   C4A37818  37.201  22.715   7.743
 2891POPC   C1B37819  37.635  23.299   8.732
 2891POPC   C2B37820  37.771  23.188   8.357
 2891POPC   C3B37821  37.897  23.002   8.010
 2891POPC   C4B37822  37.586  23.068   7.709
 2892POPC   NC337823  39.225   3.284   9.614
 2892POPC   PO437824  39.137   3.927   9.618
 2892POPC   GL137825  39.044   3.680   9.207
 2892POPC   GL237826  39.090   3.325   9.105
 2892POPC   C1A37827  39.195   3.677   8.762
 2892POPC   D2A37828  39.145   3.573   8.316
 2892POPC   C3A37829  39.315   3.747   7.903
 2892POPC   C4A37830  39.039   3.825   7.527
 2892POPC   C1B37831  39.264   3.184   8.700
 2892POPC   C2B37832  39.147   3.072   8.309
 2892POPC   C3B37833  39.309   3.219   7.925
 2892POPC   C4B37834  39.278   3.374   7.520
 2893POPC   NC337835  21.707  20.744   9.611
 2893POPC   PO437836  21.080  20.718   9.575
 2893POPC   GL137837  21.242  20.638   9.157
 2893POPC   GL237838  21.583  20.650   9.118
 2893POPC   C1A37839  21.272  20.786   8.702
 2893POPC   D2A37840  21.455  20.760   8.260
 2893POPC   C3A37841  21.236  20.618   7.867
 2893POPC   C4A37842  21.018  20.282   7.573
 2893POPC   C1B37843  21.776  20.753   8.715
 2893POPC   C2B37844  21.900  20.995   8.362
 2893POPC   C3B37845  21.865  20.853   7.957
 2893POPC   C4B37846  21.701  20.568   7.674
 2894POPC   NC337847  36.251  30.408   9.429
 2894POPC   PO437848  35.994  31.010   9.496
 2894POPC   GL137849  35.956  30.757   9.145
 2894POPC   GL237850  36.302  30.782   9.073
 2894POPC   C1A37851  35.995  30.493   8.749
 2894POPC   D2A37852  36.109  30.690   8.340
 2894POPC   C3A37853  35.909  30.595   7.963
 2894POPC   C4A37854  35.741  30.930   7.619
 2894POPC   C1B37855  36.475  30.677   8.695
 2894POPC   C2B37856  36.530  30.418   8.316
 2894POPC   C3B37857  36.414  30.594   7.878
 2894POPC   C4B37858  36.325  30.907   7.517
 2895POPC   NC337859  18.416  41.513   9.556
 2895POPC   PO437860  17.765  41.442   9.349
 2895POPC   GL137861  17.987  41.323   9.014
 2895POPC   GL237862  18.258  41.507   9.089
 2895POPC   C1A37863  18.210  41.373   8.607
 2895POPC   D2A37864  18.553  41.323   8.327
 2895POPC   C3A37865  18.388  41.292   7.912
 2895POPC   C4A37866  18.278  41.264   7.458
 2895POPC   C1B37867  18.300  41.828   8.823
 2895POPC   C2B37868  18.512  41.846   8.473
 2895POPC   C3B37869  18.395  41.785   8.078
 2895POPC   C4B37870  18.167  41.714   7.719
 2896POPC   NC337871  34.139  26.645   9.640
 2896POPC   PO437872  33.585  26.977   9.489
 2896POPC   GL137873  33.757  26.748   9.164
 2896POPC   GL237874  34.063  26.929   9.207
 2896POPC   C1A37875  33.912  26.775   8.723
 2896POPC   D2A37876  33.940  26.474   8.383
 2896POPC   C3A37877  33.802  26.622   7.967
 2896POPC   C4A37878  33.796  26.767   7.544
 2896POPC   C1B37879  34.117  27.238   8.885
 2896POPC   C2B37880  34.109  27.214   8.427
 2896POPC   C3B37881  34.093  27.044   8.012
 2896POPC   C4B37882  34.061  27.199   7.624
 2897POPC   NC337883   7.249  14.056   9.468
 2897POPC   PO437884   7.359  14.677   9.737
 2897POPC   GL137885   7.392  14.537   9.270
 2897POPC   GL237886   7.635  14.266   9.195
 2897POPC   C1A37887   7.558  14.654   8.833
 2897POPC   D2A37888   7.827  14.734   8.478
 2897POPC   C3A37889   7.670  14.693   8.051
 2897POPC   C4A37890   7.619  14.494   7.620
 2897POPC   C1B37891   7.360  14.188   8.816
 2897POPC   C2B37892   7.519  14.324   8.414
 2897POPC   C3B37893   7.457  14.210   7.989
 2897POPC   C4B37894   7.246  14.086   7.607
 2898POPC   NC337895  25.889  17.904   9.464
 2898POPC   PO437896  26.469  17.481   9.445
 2898POPC   GL137897  26.112  17.541   9.159
 2898POPC   GL237898  25.864  17.260   9.072
 2898POPC   C1A37899  25.816  17.707   8.846
 2898POPC   D2A37900  25.810  17.981   8.524
 2898POPC   C3A37901  25.634  17.885   8.122
 2898POPC   C4A37902  25.915  17.762   7.803
 2898POPC   C1B37903  26.151  17.324   8.703
 2898POPC   C2B37904  26.422  17.262   8.351
 2898POPC   C3B37905  26.370  17.194   7.899
 2898POPC   C4B37906  25.957  17.244   7.717
 2899POPC   NC337907  32.318  44.089   9.547
 2899POPC   PO437908  32.166  44.711   9.522
 2899POPC   GL137909  32.277  44.689   9.130
 2899POPC   GL237910  32.478  44.390   9.150
 2899POPC   C1A37911  32.152  44.832   8.743
 2899POPC   D2A37912  32.070  44.596   8.373
 2899POPC   C3A37913  32.317  44.633   8.023
 2899POPC   C4A37914  32.451  44.450   7.628
 2899POPC   C1B37915  32.192  44.267   8.799
 2899POPC   C2B37916  32.108  44.060   8.390
 2899POPC   C3B37917  32.212  44.121   7.976
 2899POPC   C4B37918  32.100  44.072   7.547
 2900POPC   NC337919  10.163  30.268   9.509
 2900POPC   PO437920  10.306  29.638   9.464
 2900POPC   GL137921  10.474  29.957   9.175
 2900POPC   GL237922  10.632  30.269   9.239
 2900POPC   C1A37923  10.483  29.862   8.758
 2900POPC   D2A37924  10.290  29.765   8.378
 2900POPC   C3A37925  10.530  29.788   7.974
 2900POPC   C4A37926  10.327  29.650   7.550
 2900POPC   C1B37927  10.816  30.319   8.825
 2900POPC   C2B37928  10.707  30.154   8.392
 2900POPC   C3B37929  10.713  30.292   7.960
 2900POPC   C4B37930  10.811  30.050   7.577
 2901POPC   NC337931   0.274  40.430   9.438
 2901POPC   PO437932   0.858  40.721   9.486
 2901POPC   GL137933   0.611  40.651   9.106
 2901POPC   GL237934   0.254  40.791   9.053
 2901POPC   C1A37935   0.632  40.738   8.669
 2901POPC   D2A37936   0.663  40.559   8.270
 2901POPC   C3A37937   0.452  40.689   7.924
 2901POPC   C4A37938   0.742  40.654   7.627
 2901POPC   C1B37939   0.278  41.102   8.714
 2901POPC   C2B37940   0.420  41.069   8.290
 2901POPC   C3B37941   0.276  41.177   7.878
 2901POPC   C4B37942   0.028  41.034   7.509
 2902POPC   NC337943  39.514  43.258   9.525
 2902POPC   PO437944  38.830  43.062   9.634
 2902POPC   GL137945  39.004  43.057   9.195
 2902POPC   GL237946  39.358  42.910   9.147
 2902POPC   C1A37947  39.115  43.319   8.804
 2902POPC   D2A37948  39.239  43.487   8.370
 2902POPC   C3A37949  39.204  43.165   8.036
 2902POPC   C4A37950  38.902  42.986   7.714
 2902POPC   C1B37951  39.653  42.829   8.788
 2902POPC   C2B37952  39.620  42.717   8.320
 2902POPC   C3B37953  39.614  42.882   7.881
 2902POPC   C4B37954  39.352  43.104   7.542
 2903POPC   NC337955   8.841  31.098   9.620
 2903POPC   PO437956   9.129  31.646   9.723
 2903POPC   GL137957   8.866  31.422   9.249
 2903POPC   GL237958   8.513  31.194   9.238
 2903POPC   C1A37959   8.952  31.520   8.795
 2903POPC   D2A37960   9.306  31.599   8.504
 2903POPC   C3A37961   9.198  31.601   8.060
 2903POPC   C4A37962   9.287  31.316   7.704
 2903POPC   C1B37963   8.484  31.320   8.810
 2903POPC   C2B37964   8.729  31.211   8.450
 2903POPC   C3B37965   8.891  31.166   8.044
 2903POPC   C4B37966   8.813  31.468   7.713
 2904POPC   NC337967   7.060  27.064   9.402
 2904POPC   PO437968   7.465  26.565   9.417
 2904POPC   GL137969   7.308  26.763   9.062
 2904POPC   GL237970   7.495  27.099   9.104
 2904POPC   C1A37971   7.422  26.734   8.627
 2904POPC   D2A37972   7.539  26.966   8.248
 2904POPC   C3A37973   7.717  26.767   7.882
 2904POPC   C4A37974   7.615  26.747   7.447
 2904POPC   C1B37975   7.281  27.201   8.716
 2904POPC   C2B37976   7.025  27.040   8.339
 2904POPC   C3B37977   7.156  27.015   7.874
 2904POPC   C4B37978   7.314  27.162   7.430
 2905POPC   NC337979   6.679  18.634   9.520
 2905POPC   PO437980   6.234  18.307   9.192
 2905POPC   GL137981   6.678  18.399   9.078
 2905POPC   GL237982   6.964  18.155   9.107
 2905POPC   C1A37983   6.935  18.578   8.748
 2905POPC   D2A37984   7.043  18.507   8.338
 2905POPC   C3A37985   6.726  18.594   8.073
 2905POPC   C4A37986   6.535  18.281   7.857
 2905POPC   C1B37987   6.771  18.098   8.696
 2905POPC   C2B37988   6.947  18.002   8.315
 2905POPC   C3B37989   6.759  17.843   7.932
 2905POPC   C4B37990   6.642  17.951   7.500
 2906POPC   NC337991  41.280  23.654   9.520
 2906POPC   PO437992  41.961  23.466   9.445
 2906POPC   GL137993  41.658  23.709   9.160
 2906POPC   GL237994  41.407  23.452   9.091
 2906POPC   C1A37995  41.548  23.978   8.786
 2906POPC   D2A37996  41.725  23.841   8.376
 2906POPC   C3A37997  41.557  23.999   8.007
 2906POPC   C4A37998  41.190  23.925   7.764
 2906POPC   C1B37999  41.565  23.473   8.712
 2906POPC   C2B38000  41.337  23.461   8.355
 2906POPC   C3B38001  41.355  23.484   7.952
 2906POPC   C4B38002  41.730  23.561   7.783
 2907POPC   NC338003  19.452  32.119   9.783
 2907POPC   PO438004  20.122  31.998   9.537
 2907POPC   GL138005  19.937  32.176   9.088
 2907POPC   GL238006  19.581  32.379   9.090
 2907POPC   C1A38007  19.749  32.123   8.664
 2907POPC   D2A38008  20.014  32.141   8.308
 2907POPC   C3A38009  19.857  31.995   7.907
 2907POPC   C4A38010  20.085  31.998   7.540
 2907POPC   C1B38011  19.579  32.592   8.716
 2907POPC   C2B38012  19.718  32.669   8.325
 2907POPC   C3B38013  19.861  32.485   7.957
 2907POPC   C4B38014  19.546  32.490   7.657
 2908POPC   NC338015  28.205  29.311   9.642
 2908POPC   PO438016  28.764  28.934   9.531
 2908POPC   GL138017  28.356  28.936   9.284
 2908POPC   GL238018  28.391  29.270   9.140
 2908POPC   C1A38019  28.118  28.901   8.862
 2908POPC   D2A38020  28.355  28.936   8.451
 2908POPC   C3A38021  28.206  28.838   8.006
 2908POPC   C4A38022  28.309  29.033   7.582
 2908POPC   C1B38023  28.222  29.390   8.716
 2908POPC   C2B38024  27.989  29.262   8.309
 2908POPC   C3B38025  28.210  29.348   7.945
 2908POPC   C4B38026  28.604  29.462   7.805
 2909POPC   NC338027  42.044  15.011   9.484
 2909POPC   PO438028  42.671  15.361   9.543
 2909POPC   GL138029  42.450  15.397   9.172
 2909POPC   GL238030  42.126  15.529   9.309
 2909POPC   C1A38031  42.490  15.173   8.744
 2909POPC   D2A38032  42.420  15.025   8.293
 2909POPC   C3A38033  42.583  15.206   7.914
 2909POPC   C4A38034  42.293  14.954   7.730
 2909POPC   C1B38035  42.035  15.438   8.880
 2909POPC   C2B38036  42.040  15.280   8.480
 2909POPC   C3B38037  42.117  15.351   8.056
 2909POPC   C4B38038  41.884  15.406   7.685
 2910POPC   NC338039   5.421  11.774   9.206
 2910POPC   PO438040   4.925  11.825   9.550
 2910POPC   GL138041   4.954  11.920   9.079
 2910POPC   GL238042   4.960  11.591   9.009
 2910POPC   C1A38043   5.127  12.064   8.666
 2910POPC   D2A38044   4.951  12.364   8.376
 2910POPC   C3A38045   4.978  12.468   7.943
 2910POPC   C4A38046   5.316  12.342   7.679
 2910POPC   C1B38047   4.852  11.608   8.625
 2910POPC   C2B38048   4.820  11.869   8.303
 2910POPC   C3B38049   5.077  11.968   7.982
 2910POPC   C4B38050   4.926  11.728   7.656
 2911POPC   NC338051  34.854  16.677   9.395
 2911POPC   PO438052  34.292  17.121   9.300
 2911POPC   GL138053  34.643  16.991   9.025
 2911POPC   GL238054  34.991  17.036   9.067
 2911POPC   C1A38055  34.836  16.679   8.731
 2911POPC   D2A38056  34.775  16.461   8.351
 2911POPC   C3A38057  34.559  16.721   8.071
 2911POPC   C4A38058  34.465  16.590   7.687
 2911POPC   C1B38059  35.007  17.209   8.695
 2911POPC   C2B38060  34.838  17.057   8.360
 2911POPC   C3B38061  34.946  17.121   7.969
 2911POPC   C4B38062  34.860  16.878   7.671
 2912POPC   NC338063  10.465  13.375   9.391
 2912POPC   PO438064  10.584  12.662   9.407
 2912POPC   GL138065  10.631  12.939   9.075
 2912POPC   GL238066  10.280  12.866   8.978
 2912POPC   C1A38067  10.657  12.870   8.628
 2912POPC   D2A38068  10.516  12.751   8.250
 2912POPC   C3A38069  10.441  13.011   7.918
 2912POPC   C4A38070   9.997  13.127   7.939
 2912POPC   C1B38071  10.279  12.488   8.670
 2912POPC   C2B38072  10.194  12.353   8.224
 2912POPC   C3B38073  10.207  12.566   7.822
 2912POPC   C4B38074  10.431  12.515   7.419
 2913POPC   NC338075   7.323  18.058   9.499
 2913POPC   PO438076   7.128  18.712   9.384
 2913POPC   GL138077   7.376  18.465   9.074
 2913POPC   GL238078   7.573  18.147   9.069
 2913POPC   C1A38079   7.274  18.199   8.686
 2913POPC   D2A38080   7.484  18.099   8.320
 2913POPC   C3A38081   7.241  18.198   7.953
 2913POPC   C4A38082   7.130  17.995   7.579
 2913POPC   C1B38083   7.753  18.370   8.709
 2913POPC   C2B38084   7.905  18.477   8.321
 2913POPC   C3B38085   7.718  18.358   7.931
 2913POPC   C4B38086   7.499  18.375   7.519
 2914POPC   NC338087   6.304  31.775   9.449
 2914POPC   PO438088   7.027  31.661   9.461
 2914POPC   GL138089   6.723  31.563   9.110
 2914POPC   GL238090   6.431  31.308   9.141
 2914POPC   C1A38091   6.730  31.388   8.677
 2914POPC   D2A38092   7.087  31.372   8.339
 2914POPC   C3A38093   6.930  31.389   7.912
 2914POPC   C4A38094   6.811  31.560   7.499
 2914POPC   C1B38095   6.216  31.502   8.794
 2914POPC   C2B38096   6.330  31.618   8.357
 2914POPC   C3B38097   6.470  31.654   7.917
 2914POPC   C4B38098   6.328  31.439   7.518
 2915POPC   NC338099  41.767  28.268   9.425
 2915POPC   PO438100  41.210  28.627   9.585
 2915POPC   GL138101  41.399  28.509   9.173
 2915POPC   GL238102  41.301  28.153   9.214
 2915POPC   C1A38103  41.706  28.474   8.799
 2915POPC   D2A38104  41.638  28.222   8.409
 2915POPC   C3A38105  41.829  28.097   8.009
 2915POPC   C4A38106  41.619  28.215   7.616
 2915POPC   C1B38107  41.320  28.047   8.798
 2915POPC   C2B38108  41.174  28.008   8.402
 2915POPC   C3B38109  41.324  27.999   8.011
 2915POPC   C4B38110  41.123  27.965   7.652
 2916POPC   NC338111   2.210  18.971   9.609
 2916POPC   PO438112   1.631  19.331   9.567
 2916POPC   GL138113   1.830  19.060   9.269
 2916POPC   GL238114   2.135  19.191   9.125
 2916POPC   C1A38115   1.818  18.875   8.890
 2916POPC   D2A38116   1.701  18.927   8.516
 2916POPC   C3A38117   1.851  18.950   8.143
 2916POPC   C4A38118   1.771  19.152   7.787
 2916POPC   C1B38119   2.127  19.220   8.671
 2916POPC   C2B38120   1.974  19.422   8.309
 2916POPC   C3B38121   2.215  19.296   7.967
 2916POPC   C4B38122   2.514  19.085   7.778
 2917POPC   NC338123  42.312   1.344   9.423
 2917POPC   PO438124  42.684   0.729   9.491
 2917POPC   GL138125  42.544   0.969   9.157
 2917POPC   GL238126  42.172   0.985   9.085
 2917POPC   C1A38127  42.530   1.246   8.798
 2917POPC   D2A38128  42.367   1.141   8.403
 2917POPC   C3A38129  42.418   1.343   8.046
 2917POPC   C4A38130  42.489   1.131   7.696
 2917POPC   C1B38131  41.969   1.061   8.702
 2917POPC   C2B38132  41.888   1.253   8.288
 2917POPC   C3B38133  41.953   1.225   7.852
 2917POPC   C4B38134  42.091   1.391   7.486
 2918POPC   NC338135  11.890   0.006   9.562
 2918POPC   PO438136  12.427   0.418   9.505
 2918POPC   GL138137  12.138   0.289   9.186
 2918POPC   GL238138  11.907   0.527   9.070
 2918POPC   C1A38139  12.198   0.299   8.736
 2918POPC   D2A38140  12.121   0.515   8.393
 2918POPC   C3A38141  12.138   0.274   8.113
 2918POPC   C4A38142  12.316   0.442   7.816
 2918POPC   C1B38143  11.736   0.578   8.699
 2918POPC   C2B38144  11.632   0.346   8.327
 2918POPC   C3B38145  11.733   0.554   7.983
 2918POPC   C4B38146  11.864   0.610   7.567
 2919POPC   NC338147  30.554  41.119   9.914
 2919POPC   PO438148  30.906  41.549   9.586
 2919POPC   GL138149  30.902  41.599   9.158
 2919POPC   GL238150  31.064  41.259   9.169
 2919POPC   C1A38151  30.621  41.647   8.778
 2919POPC   D2A38152  30.341  41.531   8.432
 2919POPC   C3A38153  30.484  41.671   8.070
 2919POPC   C4A38154  30.526  41.653   7.669
 2919POPC   C1B38155  31.012  41.258   8.733
 2919POPC   C2B38156  30.856  41.463   8.366
 2919POPC   C3B38157  30.856  41.340   7.955
 2919POPC   C4B38158  31.054  41.465   7.554
 2920POPC   NC338159  14.760  44.382   9.852
 2920POPC   PO438160  14.922  44.935   9.389
 2920POPC   GL138161  15.202  44.670   9.187
 2920POPC   GL238162  15.222  44.884   8.948
 2920POPC   C1A38163  15.138  44.370   8.830
 2920POPC   D2A38164  14.969  44.646   8.511
 2920POPC   C3A38165  14.907  44.476   8.091
 2920POPC   C4A38166  15.213  44.329   7.800
 2920POPC   C1B38167  15.490  44.668   8.645
 2920POPC   C2B38168  15.408  44.626   8.208
 2920POPC   C3B38169  15.203  44.853   7.881
 2920POPC   C4B38170  15.260  44.983   7.427
 2921POPC   NC338171  43.811  30.242   9.589
 2921POPC   PO438172  44.139  30.811   9.500
 2921POPC   GL138173  44.008  30.518   9.194
 2921POPC   GL238174  44.281  30.442   9.076
 2921POPC   C1A38175  43.795  30.491   8.788
 2921POPC   D2A38176  43.738  30.816   8.471
 2921POPC   C3A38177  43.819  30.724   8.058
 2921POPC   C4A38178  43.848  30.622   7.645
 2921POPC   C1B38179  44.243  30.281   8.690
 2921POPC   C2B38180  43.998  30.318   8.311
 2921POPC   C3B38181  44.220  30.421   7.927
 2921POPC   C4B38182  44.231  30.266   7.499
 2922POPC   NC338183  36.583   6.039   9.693
 2922POPC   PO438184  36.932   5.589  10.052
 2922POPC   GL138185  36.982   5.710   9.510
 2922POPC   GL238186  37.031   5.423   9.222
 2922POPC   C1A38187  36.942   5.882   9.019
 2922POPC   D2A38188  37.010   5.986   8.543
 2922POPC   C3A38189  36.811   5.909   8.141
 2922POPC   C4A38190  36.837   6.042   7.730
 2922POPC   C1B38191  37.143   5.501   8.737
 2922POPC   C2B38192  37.178   5.545   8.262
 2922POPC   C3B38193  37.104   5.601   7.791
 2922POPC   C4B38194  37.118   5.548   7.326
 2923POPC   NC338195  34.213  33.983   9.452
 2923POPC   PO438196  34.872  33.940   9.550
 2923POPC   GL138197  34.802  34.036   9.132
 2923POPC   GL238198  34.784  33.679   9.098
 2923POPC   C1A38199  34.469  34.019   8.799
 2923POPC   D2A38200  34.567  33.894   8.370
 2923POPC   C3A38201  34.337  33.859   7.984
 2923POPC   C4A38202  34.647  34.012   7.697
 2923POPC   C1B38203  34.633  33.515   8.751
 2923POPC   C2B38204  34.762  33.412   8.370
 2923POPC   C3B38205  34.753  33.554   7.959
 2923POPC   C4B38206  34.936  33.464   7.577
 2924POPC   NC338207  37.585  23.303   9.435
 2924POPC   PO438208  38.010  23.834   9.511
 2924POPC   GL138209  37.868  23.925   9.138
 2924POPC   GL238210  37.653  23.669   9.083
 2924POPC   C1A38211  37.654  24.073   8.749
 2924POPC   D2A38212  37.794  24.178   8.348
 2924POPC   C3A38213  37.596  23.969   8.002
 2924POPC   C4A38214  37.565  23.999   7.593
 2924POPC   C1B38215  37.971  23.687   8.720
 2924POPC   C2B38216  37.905  23.686   8.303
 2924POPC   C3B38217  37.827  23.516   7.901
 2924POPC   C4B38218  37.977  23.576   7.468
 2925POPC   NC338219  25.056  35.872   9.403
 2925POPC   PO438220  25.539  36.439   9.473
 2925POPC   GL138221  25.436  36.172   9.134
 2925POPC   GL238222  25.310  36.464   8.998
 2925POPC   C1A38223  25.256  35.953   8.757
 2925POPC   D2A38224  24.948  35.935   8.399
 2925POPC   C3A38225  25.159  35.892   7.999
 2925POPC   C4A38226  25.372  36.110   7.660
 2925POPC   C1B38227  25.148  36.438   8.630
 2925POPC   C2B38228  25.200  36.350   8.226
 2925POPC   C3B38229  25.108  36.547   7.913
 2925POPC   C4B38230  25.363  36.632   7.598
 2926POPC   NC338231  24.306  41.107   9.558
 2926POPC   PO438232  24.427  40.416   9.558
 2926POPC   GL138233  24.546  40.520   9.141
 2926POPC   GL238234  24.798  40.817   9.105
 2926POPC   C1A38235  24.379  40.761   8.790
 2926POPC   D2A38236  24.268  41.003   8.434
 2926POPC   C3A38237  24.517  40.821   8.125
 2926POPC   C4A38238  24.514  40.791   7.695
 2926POPC   C1B38239  24.880  40.533   8.738
 2926POPC   C2B38240  24.731  40.391   8.333
 2926POPC   C3B38241  24.891  40.526   7.925
 2926POPC   C4B38242  24.924  40.409   7.523
 2927POPC   NC338243   7.792  28.203   9.351
 2927POPC   PO438244   7.246  28.569   9.536
 2927POPC   GL138245   7.346  28.409   9.112
 2927POPC   GL238246   7.689  28.448   8.926
 2927POPC   C1A38247   7.131  28.269   8.734
 2927POPC   D2A38248   7.279  28.120   8.341
 2927POPC   C3A38249   7.139  28.271   7.995
 2927POPC   C4A38250   7.263  28.450   7.596
 2927POPC   C1B38251   7.583  28.057   8.752
 2927POPC   C2B38252   7.701  27.806   8.416
 2927POPC   C3B38253   7.585  27.834   7.997
 2927POPC   C4B38254   7.665  28.143   7.709
 2928POPC   NC338255   0.543  19.802   9.657
 2928POPC   PO438256   0.109  20.146   9.412
 2928POPC   GL138257   0.221  19.812   9.125
 2928POPC   GL238258   0.591  19.797   9.135
 2928POPC   C1A38259   0.249  19.938   8.697
 2928POPC   D2A38260   0.397  20.252   8.400
 2928POPC   C3A38261   0.295  20.044   8.032
 2928POPC   C4A38262  44.905  19.969   7.867
 2928POPC   C1B38263   0.745  20.021   8.706
 2928POPC   C2B38264   0.754  19.923   8.244
 2928POPC   C3B38265   0.743  19.954   7.780
 2928POPC   C4B38266   0.748  19.793   7.335
 2929POPC   NC338267  23.510  34.654   9.627
 2929POPC   PO438268  24.197  34.736   9.725
 2929POPC   GL138269  23.913  34.783   9.319
 2929POPC   GL238270  23.773  34.440   9.234
 2929POPC   C1A38271  23.961  34.902   8.864
 2929POPC   D2A38272  23.770  34.863   8.462
 2929POPC   C3A38273  23.874  34.948   8.033
 2929POPC   C4A38274  23.576  34.819   7.736
 2929POPC   C1B38275  23.652  34.478   8.791
 2929POPC   C2B38276  23.467  34.461   8.333
 2929POPC   C3B38277  23.595  34.316   7.924
 2929POPC   C4B38278  23.456  34.025   7.594
 2930POPC   NC338279  20.577  37.120   9.529
 2930POPC   PO438280  20.983  36.487   9.359
 2930POPC   GL138281  20.826  36.864   9.185
 2930POPC   GL238282  20.537  36.782   9.015
 2930POPC   C1A38283  20.840  37.116   8.806
 2930POPC   D2A38284  20.605  36.963   8.449
 2930POPC   C3A38285  20.737  37.087   8.041
 2930POPC   C4A38286  20.584  37.091   7.651
 2930POPC   C1B38287  20.372  36.521   8.713
 2930POPC   C2B38288  20.271  36.580   8.284
 2930POPC   C3B38289  20.534  36.617   7.897
 2930POPC   C4B38290  20.431  36.634   7.444
 2931POPC   NC338291  12.327  44.180   9.368
 2931POPC   PO438292  11.947  44.585   9.780
 2931POPC   GL138293  11.962  44.595   9.257
 2931POPC   GL238294  11.930  44.267   9.086
 2931POPC   C1A38295  11.929  44.874   8.880
 2931POPC   D2A38296  12.096  44.855   8.439
 2931POPC   C3A38297  11.810  44.890   8.070
 2931POPC   C4A38298  11.940   0.106   7.681
 2931POPC   C1B38299  12.058  44.398   8.708
 2931POPC   C2B38300  12.100  44.214   8.328
 2931POPC   C3B38301  12.268  44.396   8.028
 2931POPC   C4B38302  12.047  44.600   7.711
 2932POPC   NC338303  18.505  37.119   9.495
 2932POPC   PO438304  18.524  36.470   9.425
 2932POPC   GL138305  18.422  36.735   9.074
 2932POPC   GL238306  18.184  37.040   9.111
 2932POPC   C1A38307  18.241  36.742   8.675
 2932POPC   D2A38308  18.013  36.943   8.335
 2932POPC   C3A38309  18.253  36.906   7.952
 2932POPC   C4A38310  18.320  36.740   7.519
 2932POPC   C1B38311  18.485  37.217   8.819
 2932POPC   C2B38312  18.501  37.105   8.407
 2932POPC   C3B38313  18.631  37.246   8.047
 2932POPC   C4B38314  18.470  37.299   7.675
 2933POPC   NC338315  16.413  20.748   9.531
 2933POPC   PO438316  17.066  20.584   9.615
 2933POPC   GL138317  16.835  20.504   9.192
 2933POPC   GL238318  16.528  20.696   9.037
 2933POPC   C1A38319  16.901  20.481   8.731
 2933POPC   D2A38320  16.766  20.593   8.332
 2933POPC   C3A38321  16.698  20.279   8.078
 2933POPC   C4A38322  16.819  20.206   7.691
 2933POPC   C1B38323  16.439  20.882   8.627
 2933POPC   C2B38324  16.708  21.097   8.303
 2933POPC   C3B38325  17.006  20.946   8.006
 2933POPC   C4B38326  16.729  20.713   7.803
 2934POPC   NC338327   8.464  28.747   9.339
 2934POPC   PO438328   9.068  28.449   9.444
 2934POPC   GL138329   9.036  28.260   9.052
 2934POPC   GL238330   8.741  28.403   9.019
 2934POPC   C1A38331   8.954  28.068   8.665
 2934POPC   D2A38332   8.879  28.163   8.261
 2934POPC   C3A38333   9.187  28.360   8.007
 2934POPC   C4A38334   8.873  28.272   7.713
 2934POPC   C1B38335   9.016  28.592   8.669
 2934POPC   C2B38336   9.115  28.780   8.271
 2934POPC   C3B38337   8.861  28.757   7.872
 2934POPC   C4B38338   8.539  28.849   7.547
 2935POPC   NC338339   2.640  33.462   9.245
 2935POPC   PO438340   2.979  34.039   9.529
 2935POPC   GL138341   3.021  33.815   9.157
 2935POPC   GL238342   2.681  33.910   9.034
 2935POPC   C1A38343   3.000  33.630   8.738
 2935POPC   D2A38344   2.732  33.789   8.416
 2935POPC   C3A38345   3.046  33.842   8.106
 2935POPC   C4A38346   2.987  33.504   7.803
 2935POPC   C1B38347   2.459  34.174   8.744
 2935POPC   C2B38348   2.192  34.090   8.403
 2935POPC   C3B38349   2.294  33.830   8.085
 2935POPC   C4B38350   2.629  33.866   7.823
 2936POPC   NC338351   1.554  34.579   9.331
 2936POPC   PO438352   2.156  34.613   9.528
 2936POPC   GL138353   2.013  34.759   9.152
 2936POPC   GL238354   2.376  34.818   9.092
 2936POPC   C1A38355   1.746  34.758   8.749
 2936POPC   D2A38356   1.858  34.522   8.384
 2936POPC   C3A38357   1.907  34.691   8.006
 2936POPC   C4A38358   1.918  34.502   7.638
 2936POPC   C1B38359   2.244  34.634   8.715
 2936POPC   C2B38360   2.371  34.572   8.317
 2936POPC   C3B38361   2.355  34.360   7.968
 2936POPC   C4B38362   2.417  34.547   7.588
 2937POPC   NC338363  27.706  30.050   9.460
 2937POPC   PO438364  27.353  29.732   9.011
 2937POPC   GL138365  27.809  29.742   8.929
 2937POPC   GL238366  27.944  30.090   9.018
 2937POPC   C1A38367  27.797  29.709   8.474
 2937POPC   D2A38368  27.451  29.943   8.260
 2937POPC   C3A38369  27.579  29.917   7.850
 2937POPC   C4A38370  27.826  29.587   7.725
 2937POPC   C1B38371  27.789  30.190   8.605
 2937POPC   C2B38372  27.928  30.129   8.162
 2937POPC   C3B38373  27.826  30.361   7.758
 2937POPC   C4B38374  27.856  30.380   7.258
 2938POPC   NC338375  10.960  22.377   9.399
 2938POPC   PO438376  10.348  22.322   9.726
 2938POPC   GL138377  10.500  22.113   9.308
 2938POPC   GL238378  10.522  21.739   9.345
 2938POPC   C1A38379  10.609  22.224   8.844
 2938POPC   D2A38380  10.463  22.354   8.415
 2938POPC   C3A38381  10.680  22.251   8.044
 2938POPC   C4A38382  10.432  22.384   7.704
 2938POPC   C1B38383  10.566  21.700   8.899
 2938POPC   C2B38384  10.600  21.853   8.474
 2938POPC   C3B38385  10.328  21.901   8.158
 2938POPC   C4B38386  10.457  21.879   7.768
 2939POPC   NC338387  19.710  34.161   9.532
 2939POPC   PO438388  19.783  33.509   9.447
 2939POPC   GL138389  19.771  33.779   9.105
 2939POPC   GL238390  19.632  34.100   9.054
 2939POPC   C1A38391  19.877  33.620   8.710
 2939POPC   D2A38392  19.765  33.607   8.288
 2939POPC   C3A38393  20.014  33.840   7.959
 2939POPC   C4A38394  20.088  33.667   7.536
 2939POPC   C1B38395  19.982  34.167   8.811
 2939POPC   C2B38396  19.746  34.075   8.470
 2939POPC   C3B38397  19.573  34.055   8.072
 2939POPC   C4B38398  19.630  33.905   7.648
 2940POPC   NC338399  27.857  15.328   9.619
 2940POPC   PO438400  27.417  14.871   9.529
 2940POPC   GL138401  27.346  15.054   9.150
 2940POPC   GL238402  27.683  15.172   9.170
 2940POPC   C1A38403  27.431  15.057   8.711
 2940POPC   D2A38404  27.456  14.927   8.268
 2940POPC   C3A38405  27.500  15.080   7.823
 2940POPC   C4A38406  27.418  15.384   7.453
 2940POPC   C1B38407  27.803  15.394   8.833
 2940POPC   C2B38408  27.884  15.216   8.432
 2940POPC   C3B38409  27.978  15.092   8.009
 2940POPC   C4B38410  27.892  15.336   7.628
 2941POPC   NC338411  24.851  11.556   9.559
 2941POPC   PO438412  24.523  11.058   9.624
 2941POPC   GL138413  24.429  11.390   9.256
 2941POPC   GL238414  24.087  11.377   9.180
 2941POPC   C1A38415  24.338  11.590   8.798
 2941POPC   D2A38416  24.121  11.664   8.364
 2941POPC   C3A38417  24.237  11.407   7.991
 2941POPC   C4A38418  24.640  11.277   7.768
 2941POPC   C1B38419  24.173  11.089   8.799
 2941POPC   C2B38420  24.202  11.017   8.323
 2941POPC   C3B38421  24.295  10.900   7.861
 2941POPC   C4B38422  24.377  10.822   7.399
 2942POPC   NC338423   7.330  38.680   9.368
 2942POPC   PO438424   7.814  38.230   9.475
 2942POPC   GL138425   7.561  38.264   9.144
 2942POPC   GL238426   7.437  37.943   9.128
 2942POPC   C1A38427   7.427  38.447   8.774
 2942POPC   D2A38428   7.152  38.539   8.469
 2942POPC   C3A38429   7.411  38.576   8.138
 2942POPC   C4A38430   7.271  38.500   7.759
 2942POPC   C1B38431   7.609  37.957   8.727
 2942POPC   C2B38432   7.416  38.109   8.365
 2942POPC   C3B38433   7.473  38.060   7.953
 2942POPC   C4B38434   7.753  38.342   7.739
 2943POPC   NC338435  10.352  32.547   9.464
 2943POPC   PO438436  10.661  32.008   9.183
 2943POPC   GL138437  10.533  32.298   8.967
 2943POPC   GL238438  10.223  32.264   9.066
 2943POPC   C1A38439  10.359  32.196   8.572
 2943POPC   D2A38440  10.420  32.088   8.168
 2943POPC   C3A38441  10.669  32.419   8.054
 2943POPC   C4A38442  10.833  32.268   7.727
 2943POPC   C1B38443  10.118  32.583   8.810
 2943POPC   C2B38444  10.203  32.630   8.332
 2943POPC   C3B38445  10.163  32.467   7.923
 2943POPC   C4B38446  10.320  32.170   7.638
 2944POPC   NC338447  15.129  43.594   9.508
 2944POPC   PO438448  15.172  44.328   9.637
 2944POPC   GL138449  15.329  44.097   9.278
 2944POPC   GL238450  15.561  44.322   9.154
 2944POPC   C1A38451  15.304  43.861   8.866
 2944POPC   D2A38452  15.058  43.672   8.506
 2944POPC   C3A38453  15.129  43.892   8.104
 2944POPC   C4A38454  15.274  43.816   7.687
 2944POPC   C1B38455  15.676  44.209   8.773
 2944POPC   C2B38456  15.486  44.146   8.398
 2944POPC   C3B38457  15.667  44.201   7.991
 2944POPC   C4B38458  15.628  44.172   7.535
 2945POPC   NC338459   5.396  28.295   9.498
 2945POPC   PO438460   4.745  28.263   9.696
 2945POPC   GL138461   4.929  28.425   9.295
 2945POPC   GL238462   4.988  28.114   9.166
 2945POPC   C1A38463   4.864  28.474   8.825
 2945POPC   D2A38464   4.726  28.398   8.378
 2945POPC   C3A38465   4.978  28.380   7.968
 2945POPC   C4A38466   5.072  28.513   7.512
 2945POPC   C1B38467   5.085  28.000   8.719
 2945POPC   C2B38468   5.256  28.214   8.382
 2945POPC   C3B38469   5.492  28.312   8.025
 2945POPC   C4B38470   5.444  28.157   7.598
 2946POPC   NC338471  12.721  21.256   9.840
 2946POPC   PO438472  13.026  21.734   9.487
 2946POPC   GL138473  12.756  21.515   9.192
 2946POPC   GL238474  12.855  21.220   9.063
 2946POPC   C1A38475  12.516  21.485   8.793
 2946POPC   D2A38476  12.490  21.644   8.336
 2946POPC   C3A38477  12.552  21.398   7.909
 2946POPC   C4A38478  12.591  21.123   7.486
 2946POPC   C1B38479  12.942  21.340   8.611
 2946POPC   C2B38480  12.796  21.094   8.281
 2946POPC   C3B38481  12.927  21.021   7.881
 2946POPC   C4B38482  12.999  21.395   7.658
 2947POPC   NC338483  22.053  24.062   9.398
 2947POPC   PO438484  22.503  23.535   9.388
 2947POPC   GL138485  22.273  23.655   9.094
 2947POPC   GL238486  21.967  23.478   9.122
 2947POPC   C1A38487  22.287  23.507   8.697
 2947POPC   D2A38488  22.185  23.777   8.379
 2947POPC   C3A38489  22.227  23.610   7.990
 2947POPC   C4A38490  22.392  23.811   7.611
 2947POPC   C1B38491  21.851  23.749   8.791
 2947POPC   C2B38492  21.641  23.745   8.419
 2947POPC   C3B38493  21.793  23.914   8.048
 2947POPC   C4B38494  21.871  23.696   7.659
 2948POPC   NC338495  24.023  40.296   9.209
 2948POPC   PO438496  23.448  40.369   9.587
 2948POPC   GL138497  23.522  40.210   9.151
 2948POPC   GL238498  23.744  39.880   9.122
 2948POPC   C1A38499  23.502  40.027   8.704
 2948POPC   D2A38500  23.615  39.863   8.290
 2948POPC   C3A38501  23.405  40.107   7.930
 2948POPC   C4A38502  23.339  40.091   7.464
 2948POPC   C1B38503  23.968  39.755   8.707
 2948POPC   C2B38504  24.168  39.948   8.323
 2948POPC   C3B38505  23.930  40.157   8.005
 2948POPC   C4B38506  23.786  39.897   7.673
 2949POPC   NC338507   1.396  43.380   9.517
 2949POPC   PO438508   0.842  43.027   9.569
 2949POPC   GL138509   1.067  43.096   9.200
 2949POPC   GL238510   0.958  43.427   9.228
 2949POPC   C1A38511   1.313  43.287   8.838
 2949POPC   D2A38512   1.549  43.176   8.436
 2949POPC   C3A38513   1.318  42.981   8.098
 2949POPC   C4A38514   1.128  42.976   7.697
 2949POPC   C1B38515   0.773  43.264   8.822
 2949POPC   C2B38516   1.009  43.166   8.454
 2949POPC   C3B38517   1.002  43.369   8.055
 2949POPC   C4B38518   0.799  43.385   7.665
 2950POPC   NC338519   8.054  31.271   9.498
 2950POPC   PO438520   8.481  31.694   9.401
 2950POPC   GL138521   8.101  31.566   9.092
 2950POPC   GL238522   8.029  31.196   9.003
 2950POPC   C1A38523   8.068  31.601   8.652
 2950POPC   D2A38524   8.444  31.688   8.435
 2950POPC   C3A38525   8.443  31.445   8.076
 2950POPC   C4A38526   8.305  31.582   7.697
 2950POPC   C1B38527   8.116  30.999   8.596
 2950POPC   C2B38528   7.894  30.984   8.191
 2950POPC   C3B38529   8.025  31.191   7.819
 2950POPC   C4B38530   8.118  31.091   7.366
 2951POPC   NC338531  38.960  41.802   9.480
 2951POPC   PO438532  39.349  41.386   9.385
 2951POPC   GL138533  39.035  41.474   9.103
 2951POPC   GL238534  39.248  41.746   9.032
 2951POPC   C1A38535  38.887  41.619   8.700
 2951POPC   D2A38536  38.623  41.553   8.340
 2951POPC   C3A38537  38.864  41.504   7.982
 2951POPC   C4A38538  39.274  41.490   7.796
 2951POPC   C1B38539  39.371  41.418   8.692
 2951POPC   C2B38540  39.578  41.193   8.352
 2951POPC   C3B38541  39.740  41.375   7.990
 2951POPC   C4B38542  39.655  41.821   7.872
 2952POPC   NC338543  22.236  24.895   9.506
 2952POPC   PO438544  22.459  24.291   9.376
 2952POPC   GL138545  22.384  24.599   9.107
 2952POPC   GL238546  22.048  24.480   9.096
 2952POPC   C1A38547  22.273  24.718   8.709
 2952POPC   D2A38548  22.476  24.840   8.385
 2952POPC   C3A38549  22.524  24.564   8.074
 2952POPC   C4A38550  22.289  24.586   7.699
 2952POPC   C1B38551  22.236  24.184   8.778
 2952POPC   C2B38552  22.227  24.296   8.381
 2952POPC   C3B38553  22.250  24.137   7.990
 2952POPC   C4B38554  22.016  24.177   7.646
 2953POPC   NC338555  27.177  13.756   9.630
 2953POPC   PO438556  26.570  13.393   9.537
 2953POPC   GL138557  26.766  13.556   9.121
 2953POPC   GL238558  27.037  13.721   9.147
 2953POPC   C1A38559  26.784  13.765   8.701
 2953POPC   D2A38560  26.928  13.573   8.355
 2953POPC   C3A38561  26.792  13.693   7.950
 2953POPC   C4A38562  26.850  13.408   7.612
 2953POPC   C1B38563  27.243  13.943   8.859
 2953POPC   C2B38564  27.285  13.924   8.439
 2953POPC   C3B38565  27.335  13.701   8.049
 2953POPC   C4B38566  27.184  13.920   7.709
 2954POPC   NC338567   8.365  24.001   9.525
 2954POPC   PO438568   8.016  23.465   9.765
 2954POPC   GL138569   8.073  23.557   9.321
 2954POPC   GL238570   7.886  23.332   9.167
 2954POPC   C1A38571   8.250  23.673   8.897
 2954POPC   D2A38572   8.390  23.651   8.460
 2954POPC   C3A38573   8.279  23.700   8.035
 2954POPC   C4A38574   8.406  24.034   7.742
 2954POPC   C1B38575   8.019  23.237   8.748
 2954POPC   C2B38576   7.946  23.401   8.373
 2954POPC   C3B38577   7.903  23.362   7.955
 2954POPC   C4B38578   8.237  23.282   7.691
 2955POPC   NC338579   7.082  24.493   9.777
 2955POPC   PO438580   7.005  24.275   9.154
 2955POPC   GL138581   7.207  24.368   8.823
 2955POPC   GL238582   7.431  24.625   8.884
 2955POPC   C1A38583   7.538  24.278   8.528
 2955POPC   D2A38584   7.597  24.533   8.191
 2955POPC   C3A38585   7.393  24.587   7.816
 2955POPC   C4A38586   7.392  24.662   7.378
 2955POPC   C1B38587   7.256  24.775   8.519
 2955POPC   C2B38588   7.142  24.943   8.128
 2955POPC   C3B38589   6.905  24.742   7.787
 2955POPC   C4B38590   6.917  24.804   7.340
 2956POPC   NC338591  44.204   0.156   9.387
 2956POPC   PO438592  43.961  44.534   9.387
 2956POPC   GL138593  43.954  44.572   9.003
 2956POPC   GL238594  44.035  44.284   8.843
 2956POPC   C1A38595  43.736  44.731   8.698
 2956POPC   D2A38596  43.892  44.871   8.341
 2956POPC   C3A38597  43.611  44.854   8.030
 2956POPC   C4A38598  43.558  44.757   7.601
 2956POPC   C1B38599  44.215  44.506   8.548
 2956POPC   C2B38600  44.396  44.429   8.174
 2956POPC   C3B38601  44.293  44.385   7.750
 2956POPC   C4B38602  44.011  44.576   7.479
 2957POPC   NC338603  21.177  34.975   9.461
 2957POPC   PO438604  21.571  34.471   9.423
 2957POPC   GL138605  21.337  34.457   9.095
 2957POPC   GL238606  21.410  34.159   8.990
 2957POPC   C1A38607  21.428  34.580   8.657
 2957POPC   D2A38608  21.137  34.650   8.331
 2957POPC   C3A38609  21.139  34.452   7.957
 2957POPC   C4A38610  20.970  34.581   7.539
 2957POPC   C1B38611  21.746  34.016   8.776
 2957POPC   C2B38612  21.820  34.226   8.426
 2957POPC   C3B38613  21.622  34.486   8.156
 2957POPC   C4B38614  21.575  34.427   7.701
 2958POPC   NC338615  25.879   8.203  10.147
 2958POPC   PO438616  26.375   7.934   9.799
 2958POPC   GL138617  26.246   8.087   9.266
 2958POPC   GL238618  25.900   7.893   9.092
 2958POPC   C1A38619  26.286   8.057   8.760
 2958POPC   D2A38620  26.436   8.261   8.356
 2958POPC   C3A38621  26.333   8.076   7.970
 2958POPC   C4A38622  25.946   8.097   7.782
 2958POPC   C1B38623  25.715   8.070   8.675
 2958POPC   C2B38624  25.895   8.284   8.273
 2958POPC   C3B38625  25.700   8.523   7.906
 2958POPC   C4B38626  25.428   8.539   7.535
 2959POPC   NC338627  16.640  22.281   9.676
 2959POPC   PO438628  17.098  21.852   9.612
 2959POPC   GL138629  16.686  21.726   9.319
 2959POPC   GL238630  16.356  21.932   9.211
 2959POPC   C1A38631  16.627  21.746   8.840
 2959POPC   D2A38632  16.521  21.946   8.421
 2959POPC   C3A38633  16.737  21.944   7.999
 2959POPC   C4A38634  16.915  22.233   7.645
 2959POPC   C1B38635  16.343  22.208   8.824
 2959POPC   C2B38636  16.316  22.445   8.394
 2959POPC   C3B38637  16.512  22.454   7.959
 2959POPC   C4B38638  16.515  22.572   7.519
 2960POPC   NC338639   2.382   9.905   9.306
 2960POPC   PO438640   1.738   9.927   9.590
 2960POPC   GL138641   1.721   9.838   9.177
 2960POPC   GL238642   1.907  10.112   9.146
 2960POPC   C1A38643   1.885   9.717   8.782
 2960POPC   D2A38644   2.176   9.568   8.473
 2960POPC   C3A38645   2.032   9.717   8.092
 2960POPC   C4A38646   2.004   9.665   7.689
 2960POPC   C1B38647   1.724  10.240   8.778
 2960POPC   C2B38648   1.522  10.123   8.370
 2960POPC   C3B38649   1.694  10.078   7.936
 2960POPC   C4B38650   1.816  10.342   7.553
 2961POPC   NC338651  24.577  13.272   9.494
 2961POPC   PO438652  24.117  13.742   9.260
 2961POPC   GL138653  24.482  13.601   9.079
 2961POPC   GL238654  24.796  13.422   9.048
 2961POPC   C1A38655  24.453  13.457   8.675
 2961POPC   D2A38656  24.568  13.691   8.343
 2961POPC   C3A38657  24.246  13.830   8.104
 2961POPC   C4A38658  24.372  13.550   7.785
 2961POPC   C1B38659  24.903  13.734   8.740
 2961POPC   C2B38660  25.102  13.723   8.334
 2961POPC   C3B38661  24.966  13.706   7.909
 2961POPC   C4B38662  24.956  14.030   7.609
 2962POPC   NC338663  12.443  40.751   9.469
 2962POPC   PO438664  13.085  41.019   9.475
 2962POPC   GL138665  12.986  40.657   9.207
 2962POPC   GL238666  12.729  40.819   9.074
 2962POPC   C1A38667  12.940  40.472   8.781
 2962POPC   D2A38668  12.904  40.663   8.385
 2962POPC   C3A38669  12.882  40.514   7.962
 2962POPC   C4A38670  12.825  40.905   7.708
 2962POPC   C1B38671  12.405  40.790   8.792
 2962POPC   C2B38672  12.324  40.663   8.398
 2962POPC   C3B38673  12.434  40.792   8.015
 2962POPC   C4B38674  12.385  40.638   7.608
 2963POPC   NC338675   0.556  19.302   9.415
 2963POPC   PO438676   0.624  18.607   9.368
 2963POPC   GL138677   0.327  18.796   9.109
 2963POPC   GL238678   0.294  19.170   9.016
 2963POPC   C1A38679   0.317  18.726   8.681
 2963POPC   D2A38680   0.258  19.087   8.482
 2963POPC   C3A38681   0.365  19.029   8.083
 2963POPC   C4A38682   0.295  19.196   7.727
 2963POPC   C1B38683   0.515  19.471   8.763
 2963POPC   C2B38684   0.723  19.410   8.411
 2963POPC   C3B38685   0.602  19.491   8.005
 2963POPC   C4B38686   0.771  19.368   7.604
 2964POPC   NC338687  24.288  12.380   9.497
 2964POPC   PO438688  24.695  11.937   9.391
 2964POPC   GL138689  24.297  11.984   9.142
 2964POPC   GL238690  24.386  12.328   9.011
 2964POPC   C1A38691  24.112  12.051   8.710
 2964POPC   D2A38692  24.329  12.286   8.374
 2964POPC   C3A38693  24.400  12.088   7.977
 2964POPC   C4A38694  24.399  11.753   7.670
 2964POPC   C1B38695  24.628  12.054   8.730
 2964POPC   C2B38696  24.844  12.128   8.335
 2964POPC   C3B38697  24.869  12.294   7.912
 2964POPC   C4B38698  24.748  12.099   7.524
 2965POPC   NC338699  14.519  11.203   9.496
 2965POPC   PO438700  13.955  10.889   9.263
 2965POPC   GL138701  14.350  11.094   9.029
 2965POPC   GL238702  14.737  10.981   9.088
 2965POPC   C1A38703  14.440  11.310   8.631
 2965POPC   D2A38704  14.096  11.370   8.313
 2965POPC   C3A38705  14.227  11.488   7.917
 2965POPC   C4A38706  14.604  11.631   7.779
 2965POPC   C1B38707  14.616  10.788   8.679
 2965POPC   C2B38708  14.340  10.884   8.348
 2965POPC   C3B38709  14.560  11.166   8.114
 2965POPC   C4B38710  14.713  11.147   7.717
 2966POPC   NC338711  22.779  28.176   9.624
 2966POPC   PO438712  23.410  28.402   9.661
 2966POPC   GL138713  23.259  28.218   9.191
 2966POPC   GL238714  22.873  28.150   9.105
 2966POPC   C1A38715  23.130  28.345   8.712
 2966POPC   D2A38716  23.146  28.501   8.256
 2966POPC   C3A38717  23.176  28.251   7.861
 2966POPC   C4A38718  23.300  28.196   7.398
 2966POPC   C1B38719  22.647  28.127   8.681
 2966POPC   C2B38720  22.654  28.335   8.255
 2966POPC   C3B38721  22.632  28.220   7.838
 2966POPC   C4B38722  22.809  28.373   7.463
 2967POPC   NC338723   7.736  14.928   9.417
 2967POPC   PO438724   8.322  15.303   9.402
 2967POPC   GL138725   7.999  15.353   9.068
 2967POPC   GL238726   7.888  15.028   8.939
 2967POPC   C1A38727   8.023  15.400   8.607
 2967POPC   D2A38728   8.095  15.113   8.303
 2967POPC   C3A38729   8.122  15.257   7.920
 2967POPC   C4A38730   8.339  15.579   7.816
 2967POPC   C1B38731   8.256  14.826   8.755
 2967POPC   C2B38732   8.451  14.753   8.382
 2967POPC   C3B38733   8.285  14.764   7.967
 2967POPC   C4B38734   8.613  14.724   7.659
 2968POPC   NC338735  35.389   8.886   9.489
 2968POPC   PO438736  34.806   9.238   9.446
 2968POPC   GL138737  35.016   9.004   9.134
 2968POPC   GL238738  35.317   9.170   9.048
 2968POPC   C1A38739  35.020   8.846   8.712
 2968POPC   D2A38740  34.968   9.038   8.304
 2968POPC   C3A38741  34.976   8.821   7.886
 2968POPC   C4A38742  34.923   8.725   7.408
 2968POPC   C1B38743  35.527   8.858   8.770
 2968POPC   C2B38744  35.425   8.803   8.361
 2968POPC   C3B38745  35.386   9.101   8.032
 2968POPC   C4B38746  35.474   8.965   7.685
 2969POPC   NC338747  34.476   0.029  10.036
 2969POPC   PO438748  34.677  44.716   9.494
 2969POPC   GL138749  34.501  44.605   9.104
 2969POPC   GL238750  34.200  44.690   9.208
 2969POPC   C1A38751  34.677  44.701   8.712
 2969POPC   D2A38752  34.660   0.022   8.446
 2969POPC   C3A38753  34.938  44.871   8.166
 2969POPC   C4A38754  34.876  44.799   7.733
 2969POPC   C1B38755  34.241  44.963   8.814
 2969POPC   C2B38756  34.242  44.748   8.405
 2969POPC   C3B38757  34.388  44.665   7.993
 2969POPC   C4B38758  34.125  44.709   7.659
 2970POPC   NC338759  29.247  17.434   9.327
 2970POPC   PO438760  29.249  16.757   9.473
 2970POPC   GL138761  29.018  16.683   9.073
 2970POPC   GL238762  28.978  16.313   8.928
 2970POPC   C1A38763  28.927  16.980   8.707
 2970POPC   D2A38764  28.802  16.845   8.281
 2970POPC   C3A38765  29.097  16.879   7.926
 2970POPC   C4A38766  29.418  17.132   7.607
 2970POPC   C1B38767  29.192  16.548   8.611
 2970POPC   C2B38768  29.353  16.500   8.218
 2970POPC   C3B38769  29.105  16.343   7.907
 2970POPC   C4B38770  28.954  16.431   7.492
 2971POPC   NC338771  26.459   6.332   9.446
 2971POPC   PO438772  25.796   6.535   9.503
 2971POPC   GL138773  25.926   6.679   9.128
 2971POPC   GL238774  26.089   6.365   9.112
 2971POPC   C1A38775  25.782   6.550   8.728
 2971POPC   D2A38776  25.664   6.604   8.312
 2971POPC   C3A38777  25.887   6.836   7.974
 2971POPC   C4A38778  26.091   6.652   7.605
 2971POPC   C1B38779  26.307   6.154   8.792
 2971POPC   C2B38780  26.123   6.279   8.433
 2971POPC   C3B38781  26.179   6.387   8.030
 2971POPC   C4B38782  26.259   6.161   7.661
 2972POPC   NC338783  13.034  37.808   9.296
 2972POPC   PO438784  12.549  37.479   9.616
 2972POPC   GL138785  12.543  37.657   9.170
 2972POPC   GL238786  12.584  38.018   9.152
 2972POPC   C1A38787  12.754  37.628   8.734
 2972POPC   D2A38788  12.890  37.783   8.323
 2972POPC   C3A38789  12.748  37.554   7.964
 2972POPC   C4A38790  13.102  37.341   7.865
 2972POPC   C1B38791  12.705  38.132   8.729
 2972POPC   C2B38792  12.517  38.118   8.317
 2972POPC   C3B38793  12.694  38.056   7.889
 2972POPC   C4B38794  12.512  37.858   7.488
 2973POPC   NC338795   9.137  16.364   9.494
 2973POPC   PO438796   9.483  15.701   9.456
 2973POPC   GL138797   9.599  15.866   9.087
 2973POPC   GL238798   9.486  16.207   9.100
 2973POPC   C1A38799   9.633  15.877   8.694
 2973POPC   D2A38800   9.931  15.877   8.423
 2973POPC   C3A38801   9.727  15.907   8.059
 2973POPC   C4A38802   9.601  15.583   7.854
 2973POPC   C1B38803   9.878  16.311   8.889
 2973POPC   C2B38804  10.151  16.323   8.552
 2973POPC   C3B38805  10.191  16.193   8.102
 2973POPC   C4B38806   9.969  16.218   7.727
 2974POPC   NC338807  19.053  12.949   9.489
 2974POPC   PO438808  19.557  12.494   9.636
 2974POPC   GL138809  19.368  12.666   9.206
 2974POPC   GL238810  19.060  12.501   9.193
 2974POPC   C1A38811  19.400  12.848   8.723
 2974POPC   D2A38812  19.307  13.126   8.339
 2974POPC   C3A38813  19.261  13.062   7.893
 2974POPC   C4A38814  18.869  12.918   7.710
 2974POPC   C1B38815  18.869  12.699   8.845
 2974POPC   C2B38816  18.911  12.839   8.434
 2974POPC   C3B38817  19.068  12.613   8.083
 2974POPC   C4B38818  18.893  12.426   7.742
 2975POPC   NC338819  34.629  37.201   9.609
 2975POPC   PO438820  34.628  36.594   9.407
 2975POPC   GL138821  34.786  36.702   9.002
 2975POPC   GL238822  34.848  37.048   9.109
 2975POPC   C1A38823  34.693  36.720   8.525
 2975POPC   D2A38824  34.515  36.996   8.214
 2975POPC   C3A38825  34.552  36.977   7.744
 2975POPC   C4A38826  34.515  36.699   7.366
 2975POPC   C1B38827  34.736  37.193   8.733
 2975POPC   C2B38828  34.971  37.230   8.379
 2975POPC   C3B38829  34.824  37.347   8.027
 2975POPC   C4B38830  34.703  37.471   7.654
 2976POPC   NC338831  24.844  18.101   9.390
 2976POPC   PO438832  25.530  18.175   9.347
 2976POPC   GL138833  25.222  18.185   9.055
 2976POPC   GL238834  25.050  18.494   9.119
 2976POPC   C1A38835  25.001  18.128   8.683
 2976POPC   D2A38836  25.148  17.958   8.311
 2976POPC   C3A38837  24.935  18.010   7.915
 2976POPC   C4A38838  25.101  18.176   7.529
 2976POPC   C1B38839  25.303  18.614   8.779
 2976POPC   C2B38840  25.323  18.457   8.372
 2976POPC   C3B38841  25.382  18.318   7.956
 2976POPC   C4B38842  25.408  18.579   7.592
 2977POPC   NC338843  41.216  37.620   9.571
 2977POPC   PO438844  40.770  37.957   9.311
 2977POPC   GL138845  40.798  37.708   9.012
 2977POPC   GL238846  40.546  37.474   9.044
 2977POPC   C1A38847  40.682  37.722   8.589
 2977POPC   D2A38848  40.797  37.450   8.274
 2977POPC   C3A38849  40.742  37.663   7.899
 2977POPC   C4A38850  40.881  37.918   7.555
 2977POPC   C1B38851  40.463  37.278   8.658
 2977POPC   C2B38852  40.286  37.396   8.274
 2977POPC   C3B38853  40.282  37.360   7.852
 2977POPC   C4B38854  40.608  37.295   7.553
 2978POPC   NC338855  40.228  22.421   9.407
 2978POPC   PO438856  39.881  21.819   9.474
 2978POPC   GL138857  39.921  22.131   9.128
 2978POPC   GL238858  39.710  22.427   9.162
 2978POPC   C1A38859  40.082  22.152   8.715
 2978POPC   D2A38860  40.131  22.264   8.299
 2978POPC   C3A38861  40.299  22.023   7.969
 2978POPC   C4A38862  40.236  22.215   7.585
 2978POPC   C1B38863  39.581  22.267   8.758
 2978POPC   C2B38864  39.612  22.304   8.309
 2978POPC   C3B38865  39.790  22.196   7.900
 2978POPC   C4B38866  39.735  22.302   7.450
 2979POPC   NC338867  19.404  38.327   9.298
 2979POPC   PO438868  20.035  38.462   9.486
 2979POPC   GL138869  19.915  38.366   9.106
 2979POPC   GL238870  19.993  38.738   9.060
 2979POPC   C1A38871  19.772  38.456   8.695
 2979POPC   D2A38872  19.853  38.739   8.387
 2979POPC   C3A38873  19.601  38.623   8.025
 2979POPC   C4A38874  19.505  38.492   7.600
 2979POPC   C1B38875  20.307  38.780   8.744
 2979POPC   C2B38876  20.332  38.911   8.312
 2979POPC   C3B38877  20.216  38.580   8.028
 2979POPC   C4B38878  19.988  38.614   7.666
 2980POPC   NC338879  20.218  39.288  10.068
 2980POPC   PO438880  19.686  39.352   9.777
 2980POPC   GL138881  19.844  39.235   9.304
 2980POPC   GL238882  19.812  39.549   9.130
 2980POPC   C1A38883  19.872  39.155   8.802
 2980POPC   D2A38884  19.905  39.304   8.343
 2980POPC   C3A38885  19.931  39.033   7.976
 2980POPC   C4A38886  19.646  38.978   7.644
 2980POPC   C1B38887  19.926  39.674   8.706
 2980POPC   C2B38888  19.640  39.771   8.362
 2980POPC   C3B38889  19.679  39.706   7.930
 2980POPC   C4B38890  19.887  39.445   7.676
 2981POPC   NC338891  21.211  43.035   9.439
 2981POPC   PO438892  21.881  43.088   9.431
 2981POPC   GL138893  21.610  42.847   9.125
 2981POPC   GL238894  21.328  43.054   8.965
 2981POPC   C1A38895  21.515  42.710   8.693
 2981POPC   D2A38896  21.411  43.041   8.432
 2981POPC   C3A38897  21.650  43.123   8.072
 2981POPC   C4A38898  21.668  43.210   7.640
 2981POPC   C1B38899  21.153  43.398   8.739
 2981POPC   C2B38900  21.029  43.367   8.323
 2981POPC   C3B38901  21.171  43.191   7.992
 2981POPC   C4B38902  21.313  42.833   7.786
 2982POPC   NC338903  25.373  28.679   9.361
 2982POPC   PO438904  25.014  28.150   9.647
 2982POPC   GL138905  25.152  28.091   9.211
 2982POPC   GL238906  24.876  28.259   9.157
 2982POPC   C1A38907  25.228  28.333   8.794
 2982POPC   D2A38908  25.091  28.676   8.474
 2982POPC   C3A38909  25.213  28.560   8.041
 2982POPC   C4A38910  25.527  28.457   7.740
 2982POPC   C1B38911  24.802  28.007   8.810
 2982POPC   C2B38912  24.918  28.164   8.408
 2982POPC   C3B38913  24.902  28.104   7.982
 2982POPC   C4B38914  25.005  27.870   7.656
 2983POPC   NC338915   1.957  43.588   9.393
 2983POPC   PO438916   2.256  44.200   9.436
 2983POPC   GL138917   2.202  43.930   9.095
 2983POPC   GL238918   1.826  43.937   9.040
 2983POPC   C1A38919   2.110  44.013   8.650
 2983POPC   D2A38920   1.763  44.056   8.376
 2983POPC   C3A38921   1.992  43.938   8.026
 2983POPC   C4A38922   1.969  43.864   7.591
 2983POPC   C1B38923   1.778  43.561   8.757
 2983POPC   C2B38924   1.949  43.509   8.340
 2983POPC   C3B38925   1.970  43.452   7.901
 2983POPC   C4B38926   1.961  43.392   7.417
 2984POPC   NC338927  11.169  43.443   9.495
 2984POPC   PO438928  11.744  43.030   9.518
 2984POPC   GL138929  11.477  43.068   9.185
 2984POPC   GL238930  11.444  43.374   9.076
 2984POPC   C1A38931  11.557  42.955   8.764
 2984POPC   D2A38932  11.348  42.997   8.367
 2984POPC   C3A38933  11.337  42.730   8.012
 2984POPC   C4A38934  10.941  42.867   7.859
 2984POPC   C1B38935  11.124  43.245   8.803
 2984POPC   C2B38936  11.123  43.453   8.428
 2984POPC   C3B38937  11.386  43.441   8.065
 2984POPC   C4B38938  11.257  43.459   7.630
 2985POPC   NC338939   5.706  33.130   9.856
 2985POPC   PO438940   6.195  32.907   9.522
 2985POPC   GL138941   6.014  33.084   9.156
 2985POPC   GL238942   5.688  33.225   9.154
 2985POPC   C1A38943   5.847  32.887   8.787
 2985POPC   D2A38944   5.671  32.839   8.377
 2985POPC   C3A38945   5.864  32.923   8.008
 2985POPC   C4A38946   5.761  32.679   7.658
 2985POPC   C1B38947   5.875  33.427   8.751
 2985POPC   C2B38948   5.881  33.477   8.279
 2985POPC   C3B38949   5.604  33.388   7.981
 2985POPC   C4B38950   5.627  33.185   7.634
 2986POPC   NC338951  15.346  10.948   9.386
 2986POPC   PO438952  15.334  10.320   9.707
 2986POPC   GL138953  15.107  10.441   9.360
 2986POPC   GL238954  15.384  10.502   9.126
 2986POPC   C1A38955  14.881  10.455   8.977
 2986POPC   D2A38956  15.005  10.440   8.530
 2986POPC   C3A38957  14.923  10.778   8.220
 2986POPC   C4A38958  14.745  10.648   7.819
 2986POPC   C1B38959  15.425  10.772   8.751
 2986POPC   C2B38960  15.462  10.658   8.316
 2986POPC   C3B38961  15.265  10.468   7.950
 2986POPC   C4B38962  15.445  10.342   7.570
 2987POPC   NC338963  29.963  40.499   9.506
 2987POPC   PO438964  30.155  41.073   9.372
 2987POPC   GL138965  29.957  40.940   9.002
 2987POPC   GL238966  29.871  40.607   9.035
 2987POPC   C1A38967  29.932  40.809   8.573
 2987POPC   D2A38968  29.600  40.726   8.293
 2987POPC   C3A38969  29.695  41.042   7.981
 2987POPC   C4A38970  30.009  40.939   7.711
 2987POPC   C1B38971  29.714  40.351   8.740
 2987POPC   C2B38972  29.919  40.317   8.403
 2987POPC   C3B38973  30.099  40.572   8.108
 2987POPC   C4B38974  29.964  40.428   7.739
 2988POPC   NC338975  24.422   1.695   9.229
 2988POPC   PO438976  24.609   2.380   9.301
 2988POPC   GL138977  24.469   2.163   8.969
 2988POPC   GL238978  24.120   2.166   8.850
 2988POPC   C1A38979  24.762   1.997   8.707
 2988POPC   D2A38980  24.808   1.791   8.341
 2988POPC   C3A38981  24.760   2.011   7.976
 2988POPC   C4A38982  24.590   2.260   7.619
 2988POPC   C1B38983  24.300   1.824   8.598
 2988POPC   C2B38984  24.323   1.828   8.181
 2988POPC   C3B38985  24.341   1.808   7.762
 2988POPC   C4B38986  24.057   1.647   7.515
 2989POPC   NC338987   6.572  14.132   9.900
 2989POPC   PO438988   6.445  14.477   9.384
 2989POPC   GL138989   6.533  14.291   9.062
 2989POPC   GL238990   6.896  14.265   9.133
 2989POPC   C1A38991   6.385  14.266   8.653
 2989POPC   D2A38992   6.551  14.136   8.233
 2989POPC   C3A38993   6.417  14.416   7.920
 2989POPC   C4A38994   6.575  14.618   7.554
 2989POPC   C1B38995   6.898  14.378   8.691
 2989POPC   C2B38996   7.038  14.199   8.327
 2989POPC   C3B38997   6.935  14.328   7.927
 2989POPC   C4B38998   7.106  14.605   7.636
 2990POPC   NC338999   9.377  17.901   9.789
 2990POPC   PO439000   8.843  18.196   9.501
 2990POPC   GL139001   9.106  18.086   9.163
 2990POPC   GL239002   9.100  18.409   9.020
 2990POPC   C1A39003   8.884  18.043   8.754
 2990POPC   D2A39004   8.907  18.288   8.387
 2990POPC   C3A39005   8.893  17.982   8.074
 2990POPC   C4A39006   9.033  17.949   7.660
 2990POPC   C1B39007   9.282  18.663   8.695
 2990POPC   C2B39008   9.186  18.739   8.280
 2990POPC   C3B39009   9.149  18.468   7.962
 2990POPC   C4B39010   9.173  18.421   7.545
 2991POPC   NC339011   8.404   5.383   9.340
 2991POPC   PO439012   8.013   4.880   9.536
 2991POPC   GL139013   8.107   5.002   9.157
 2991POPC   GL239014   8.456   4.888   9.202
 2991POPC   C1A39015   8.236   5.151   8.758
 2991POPC   D2A39016   8.260   4.902   8.389
 2991POPC   C3A39017   8.350   5.114   8.013
 2991POPC   C4A39018   8.146   4.963   7.683
 2991POPC   C1B39019   8.561   4.754   8.801
 2991POPC   C2B39020   8.706   4.625   8.406
 2991POPC   C3B39021   8.535   4.658   8.000
 2991POPC   C4B39022   8.633   4.858   7.632
 2992POPC   NC339023  19.541  35.021   9.471
 2992POPC   PO439024  19.927  35.438   9.994
 2992POPC   GL139025  19.960  35.351   9.442
 2992POPC   GL239026  19.934  35.061   9.188
 2992POPC   C1A39027  19.993  35.481   8.944
 2992POPC   D2A39028  19.823  35.461   8.514
 2992POPC   C3A39029  20.009  35.498   8.127
 2992POPC   C4A39030  19.856  35.264   7.801
 2992POPC   C1B39031  19.699  35.027   8.773
 2992POPC   C2B39032  19.404  34.948   8.377
 2992POPC   C3B39033  19.418  35.010   7.897
 2992POPC   C4B39034  19.674  34.868   7.534
 2993POPC   NC339035  31.876  25.982   9.497
 2993POPC   PO439036  32.521  25.835   9.387
 2993POPC   GL139037  32.228  26.048   9.113
 2993POPC   GL239038  32.334  26.371   9.031
 2993POPC   C1A39039  32.131  25.917   8.674
 2993POPC   D2A39040  32.143  25.668   8.266
 2993POPC   C3A39041  32.132  25.933   7.877
 2993POPC   C4A39042  31.963  26.359   7.753
 2993POPC   C1B39043  32.617  26.113   8.772
 2993POPC   C2B39044  32.553  25.979   8.380
 2993POPC   C3B39045  32.653  25.871   8.009
 2993POPC   C4B39046  32.580  26.073   7.636
 2994POPC   NC339047  29.457   2.384   9.515
 2994POPC   PO439048  29.200   1.805   9.178
 2994POPC   GL139049  29.184   2.168   9.114
 2994POPC   GL239050  28.815   2.233   9.123
 2994POPC   C1A39051  29.382   2.332   8.757
 2994POPC   D2A39052  29.319   2.059   8.442
 2994POPC   C3A39053  29.425   2.123   8.020
 2994POPC   C4A39054  29.412   1.795   7.725
 2994POPC   C1B39055  28.862   2.060   8.699
 2994POPC   C2B39056  28.823   1.883   8.304
 2994POPC   C3B39057  28.946   1.905   7.925
 2994POPC   C4B39058  28.676   1.639   7.746
 2995POPC   NC339059  41.672  15.750   9.479
 2995POPC   PO439060  41.340  16.227   9.721
 2995POPC   GL139061  41.408  16.133   9.265
 2995POPC   GL239062  41.314  15.814   9.137
 2995POPC   C1A39063  41.551  16.289   8.877
 2995POPC   D2A39064  41.732  16.224   8.490
 2995POPC   C3A39065  41.604  16.214   8.069
 2995POPC   C4A39066  41.896  16.288   7.722
 2995POPC   C1B39067  41.684  15.802   8.819
 2995POPC   C2B39068  41.999  15.788   8.466
 2995POPC   C3B39069  41.885  15.795   8.025
 2995POPC   C4B39070  41.581  15.848   7.694
 2996POPC   NC339071  19.462  30.275   9.863
 2996POPC   PO439072  19.030  30.703   9.663
 2996POPC   GL139073  18.944  30.787   9.178
 2996POPC   GL239074  18.586  30.754   9.020
 2996POPC   C1A39075  19.022  30.742   8.722
 2996POPC   D2A39076  19.065  30.969   8.323
 2996POPC   C3A39077  19.107  30.772   7.912
 2996POPC   C4A39078  19.174  30.798   7.454
 2996POPC   C1B39079  18.564  30.365   8.728
 2996POPC   C2B39080  18.874  30.302   8.356
 2996POPC   C3B39081  19.016  30.276   7.917
 2996POPC   C4B39082  18.817  30.443   7.551
 2997POPC   NC339083  13.112  13.903   9.368
 2997POPC   PO439084  12.599  13.483   9.571
 2997POPC   GL139085  12.826  13.506   9.209
 2997POPC   GL239086  12.626  13.814   9.178
 2997POPC   C1A39087  13.091  13.460   8.831
 2997POPC   D2A39088  12.891  13.339   8.441
 2997POPC   C3A39089  12.877  13.546   8.062
 2997POPC   C4A39090  12.660  13.395   7.708
 2997POPC   C1B39091  12.612  13.644   8.764
 2997POPC   C2B39092  12.625  13.882   8.418
 2997POPC   C3B39093  12.485  13.947   8.043
 2997POPC   C4B39094  12.706  13.896   7.724
 2998POPC   NC339095  30.731  31.051   9.598
 2998POPC   PO439096  30.973  31.637   9.544
 2998POPC   GL139097  30.839  31.513   9.169
 2998POPC   GL239098  30.962  31.207   9.143
 2998POPC   C1A39099  30.727  31.667   8.768
 2998POPC   D2A39100  30.466  31.709   8.414
 2998POPC   C3A39101  30.605  31.602   8.010
 2998POPC   C4A39102  30.433  31.786   7.649
 2998POPC   C1B39103  30.738  31.138   8.744
 2998POPC   C2B39104  30.683  30.954   8.340
 2998POPC   C3B39105  30.819  31.107   7.940
 2998POPC   C4B39106  30.883  31.104   7.504
 2999POPC   NC339107  35.275  32.753   9.556
 2999POPC   PO439108  35.526  33.330   9.419
 2999POPC   GL139109  35.319  33.058   9.105
 2999POPC   GL239110  35.387  32.668   9.080
 2999POPC   C1A39111  35.437  33.206   8.696
 2999POPC   D2A39112  35.255  33.301   8.322
 2999POPC   C3A39113  35.543  33.271   8.008
 2999POPC   C4A39114  35.438  33.272   7.568
 2999POPC   C1B39115  35.272  32.706   8.665
 2999POPC   C2B39116  35.439  32.797   8.261
 2999POPC   C3B39117  35.413  32.812   7.810
 2999POPC   C4B39118  35.481  32.790   7.360
 3000POPC   NC339119   2.648  39.813   9.695
 3000POPC   PO439120   2.168  40.210   9.528
 3000POPC   GL139121   2.531  40.096   9.261
 3000POPC   GL239122   2.653  39.750   9.171
 3000POPC   C1A39123   2.794  40.137   8.884
 3000POPC   D2A39124   2.913  40.107   8.464
 3000POPC   C3A39125   2.806  40.207   8.039
 3000POPC   C4A39126   2.964  40.117   7.607
 3000POPC   C1B39127   2.741  39.668   8.683
 3000POPC   C2B39128   2.553  39.804   8.253
 3000POPC   C3B39129   2.754  39.707   7.821
 3000POPC   C4B39130   2.995  39.498   7.457
 3001POPC   NC339131   6.942  30.284   9.493
 3001POPC   PO439132   6.223  30.348   9.474
 3001POPC   GL139133   6.554  30.623   9.296
 3001POPC   GL239134   6.616  30.383   9.072
 3001POPC   C1A39135   6.706  30.923   8.941
 3001POPC   D2A39136   6.882  30.919   8.509
 3001POPC   C3A39137   6.679  30.976   8.115
 3001POPC   C4A39138   6.740  30.661   7.790
 3001POPC   C1B39139   6.532  30.542   8.670
 3001POPC   C2B39140   6.656  30.458   8.257
 3001POPC   C3B39141   6.446  30.247   7.926
 3001POPC   C4B39142   6.331  30.423   7.552
 3002POPC   NC339143  40.280  21.422   9.413
 3002POPC   PO439144  40.751  21.537   9.877
 3002POPC   GL139145  40.746  21.617   9.380
 3002POPC   GL239146  41.028  21.470   9.210
 3002POPC   C1A39147  40.644  21.607   8.892
 3002POPC   D2A39148  40.519  21.374   8.496
 3002POPC   C3A39149  40.531  21.529   8.063
 3002POPC   C4A39150  40.646  21.239   7.740
 3002POPC   C1B39151  41.169  21.605   8.767
 3002POPC   C2B39152  41.267  21.593   8.296
 3002POPC   C3B39153  41.042  21.530   7.902
 3002POPC   C4B39154  40.896  21.739   7.481
 3003POPC   NC339155  23.389  21.266   9.510
 3003POPC   PO439156  24.122  21.040   9.693
 3003POPC   GL139157  23.875  21.254   9.272
 3003POPC   GL239158  23.632  21.582   9.207
 3003POPC   C1A39159  23.865  21.353   8.830
 3003POPC   D2A39160  23.710  21.453   8.436
 3003POPC   C3A39161  23.889  21.263   8.086
 3003POPC   C4A39162  24.029  21.479   7.745
 3003POPC   C1B39163  23.377  21.640   8.831
 3003POPC   C2B39164  23.212  21.593   8.392
 3003POPC   C3B39165  23.353  21.264   8.104
 3003POPC   C4B39166  23.534  21.321   7.710
 3004POPC   NC339167   3.880  10.720   9.500
 3004POPC   PO439168   3.429  10.228   9.497
 3004POPC   GL139169   3.618  10.343   9.151
 3004POPC   GL239170   3.486  10.689   9.133
 3004POPC   C1A39171   3.502  10.382   8.726
 3004POPC   D2A39172   3.445  10.663   8.411
 3004POPC   C3A39173   3.425  10.393   8.090
 3004POPC   C4A39174   3.548  10.301   7.697
 3004POPC   C1B39175   3.738  10.835   8.792
 3004POPC   C2B39176   3.925  10.852   8.358
 3004POPC   C3B39177   3.784  10.738   7.945
 3004POPC   C4B39178   3.462  10.805   7.652
 3005POPC   NC339179  14.822  20.408   9.465
 3005POPC   PO439180  14.233  20.599   9.580
 3005POPC   GL139181  14.271  20.540   9.141
 3005POPC   GL239182  14.610  20.718   9.091
 3005POPC   C1A39183  14.293  20.678   8.683
 3005POPC   D2A39184  14.647  20.869   8.412
 3005POPC   C3A39185  14.551  20.851   7.965
 3005POPC   C4A39186  14.250  20.553   7.753
 3005POPC   C1B39187  14.660  20.321   8.857
 3005POPC   C2B39188  14.710  20.147   8.472
 3005POPC   C3B39189  14.642  20.375   8.113
 3005POPC   C4B39190  14.626  20.226   7.690
 3006POPC   NC339191   5.794  22.544   9.787
 3006POPC   PO439192   5.648  22.953   9.266
 3006POPC   GL139193   5.975  22.870   9.083
 3006POPC   GL239194   6.067  22.518   9.182
 3006POPC   C1A39195   6.248  23.089   8.761
 3006POPC   D2A39196   6.276  23.051   8.308
 3006POPC   C3A39197   5.885  23.122   8.100
 3006POPC   C4A39198   5.730  23.134   7.724
 3006POPC   C1B39199   6.130  22.581   8.730
 3006POPC   C2B39200   5.877  22.715   8.403
 3006POPC   C3B39201   5.993  22.636   7.977
 3006POPC   C4B39202   5.874  22.681   7.564
 3007POPC   NC339203   4.235  44.552   9.723
 3007POPC   PO439204   4.082   0.083   9.358
 3007POPC   GL139205   4.269  44.645   9.218
 3007POPC   GL239206   4.195  44.287   9.207
 3007POPC   C1A39207   4.531  44.527   8.857
 3007POPC   D2A39208   4.447  44.583   8.419
 3007POPC   C3A39209   4.558  44.424   8.019
 3007POPC   C4A39210   4.455  44.682   7.704
 3007POPC   C1B39211   4.159  44.195   8.740
 3007POPC   C2B39212   4.026  44.305   8.295
 3007POPC   C3B39213   4.095  44.282   7.800
 3007POPC   C4B39214   4.193  44.448   7.339
 3008POPC   NC339215  17.150  32.739   9.486
 3008POPC   PO439216  17.627  33.206   9.493
 3008POPC   GL139217  17.649  33.314   9.083
 3008POPC   GL239218  17.296  33.249   9.096
 3008POPC   C1A39219  17.506  33.226   8.643
 3008POPC   D2A39220  17.192  32.955   8.490
 3008POPC   C3A39221  17.406  32.784   8.151
 3008POPC   C4A39222  17.658  32.531   7.888
 3008POPC   C1B39223  16.998  33.335   8.794
 3008POPC   C2B39224  16.966  33.450   8.373
 3008POPC   C3B39225  17.143  33.419   7.962
 3008POPC   C4B39226  17.467  33.149   7.811
 3009POPC   NC339227   0.196  28.100   9.456
 3009POPC   PO439228   0.400  28.699   9.534
 3009POPC   GL139229   0.197  28.584   9.181
 3009POPC   GL239230   0.454  28.368   9.109
 3009POPC   C1A39231   0.241  28.631   8.749
 3009POPC   D2A39232   0.095  28.389   8.423
 3009POPC   C3A39233   0.155  28.505   8.068
 3009POPC   C4A39234   0.146  28.309   7.710
 3009POPC   C1B39235   0.590  28.282   8.674
 3009POPC   C2B39236   0.588  28.600   8.340
 3009POPC   C3B39237   0.630  28.493   7.907
 3009POPC   C4B39238   0.623  28.085   7.769
 3010POPC   NC339239  42.742  23.347   9.757
 3010POPC   PO439240  43.076  22.759   9.592
 3010POPC   GL139241  43.017  22.914   9.181
 3010POPC   GL239242  43.363  22.972   9.178
 3010POPC   C1A39243  43.080  23.119   8.781
 3010POPC   D2A39244  42.837  23.192   8.461
 3010POPC   C3A39245  42.998  23.011   8.119
 3010POPC   C4A39246  43.205  23.141   7.755
 3010POPC   C1B39247  43.362  22.707   8.824
 3010POPC   C2B39248  43.284  22.663   8.400
 3010POPC   C3B39249  43.458  22.775   8.005
 3010POPC   C4B39250  43.513  22.512   7.668
 3011POPC   NC339251  37.925  14.765   9.622
 3011POPC   PO439252  37.600  14.153   9.646
 3011POPC   GL139253  37.588  14.196   9.198
 3011POPC   GL239254  37.622  14.551   9.236
 3011POPC   C1A39255  37.683  14.048   8.769
 3011POPC   D2A39256  37.729  14.343   8.394
 3011POPC   C3A39257  37.925  14.301   7.984
 3011POPC   C4A39258  37.811  14.596   7.636
 3011POPC   C1B39259  37.890  14.480   8.859
 3011POPC   C2B39260  37.977  14.774   8.521
 3011POPC   C3B39261  37.774  14.806   8.124
 3011POPC   C4B39262  38.109  14.945   7.860
 3012POPC   NC339263   8.535  44.827   9.598
 3012POPC   PO439264   9.149  44.863   9.682
 3012POPC   GL139265   9.130  44.772   9.195
 3012POPC   GL239266   8.826  44.621   9.202
 3012POPC   C1A39267   9.044  44.480   8.747
 3012POPC   D2A39268   9.232  44.568   8.353
 3012POPC   C3A39269   9.008  44.557   7.955
 3012POPC   C4A39270   9.177  44.646   7.521
 3012POPC   C1B39271   8.819  44.916   8.830
 3012POPC   C2B39272   8.785  44.829   8.401
 3012POPC   C3B39273   8.662  44.988   8.014
 3012POPC   C4B39274   8.683  44.791   7.622
 3013POPC   NC339275  26.716   5.966   9.771
 3013POPC   PO439276  27.034   6.646   9.663
 3013POPC   GL139277  26.948   6.645   9.190
 3013POPC   GL239278  26.583   6.713   9.124
 3013POPC   C1A39279  26.881   6.590   8.739
 3013POPC   D2A39280  26.614   6.455   8.403
 3013POPC   C3A39281  26.884   6.543   8.083
 3013POPC   C4A39282  27.306   6.565   7.942
 3013POPC   C1B39283  26.286   6.666   8.766
 3013POPC   C2B39284  26.228   6.788   8.348
 3013POPC   C3B39285  26.473   6.787   7.916
 3013POPC   C4B39286  26.652   6.468   7.619
 3014POPC   NC339287  18.138  36.189   9.457
 3014POPC   PO439288  18.626  35.738   9.459
 3014POPC   GL139289  18.447  35.999   9.099
 3014POPC   GL239290  18.114  35.862   9.048
 3014POPC   C1A39291  18.567  36.309   8.731
 3014POPC   D2A39292  18.607  36.603   8.330
 3014POPC   C3A39293  18.466  36.446   7.938
 3014POPC   C4A39294  18.459  36.241   7.553
 3014POPC   C1B39295  17.984  36.058   8.660
 3014POPC   C2B39296  18.257  36.192   8.329
 3014POPC   C3B39297  18.522  35.965   8.036
 3014POPC   C4B39298  18.229  35.815   7.737
 3015POPC   NC339299  29.068  41.975   9.501
 3015POPC   PO439300  29.301  41.352   9.407
 3015POPC   GL139301  29.036  41.603   9.147
 3015POPC   GL239302  29.248  41.901   9.038
 3015POPC   C1A39303  28.938  41.567   8.728
 3015POPC   D2A39304  28.872  41.659   8.303
 3015POPC   C3A39305  28.840  41.342   8.000
 3015POPC   C4A39306  29.052  41.162   7.673
 3015POPC   C1B39307  29.437  41.552   8.802
 3015POPC   C2B39308  29.334  41.397   8.425
 3015POPC   C3B39309  29.341  41.494   8.012
 3015POPC   C4B39310  29.611  41.476   7.677
 3016POPC   NC339311  37.086  43.521   9.526
 3016POPC   PO439312  36.567  44.020   9.564
 3016POPC   GL139313  36.911  44.117   9.252
 3016POPC   GL239314  37.023  43.798   9.117
 3016POPC   C1A39315  37.058  44.184   8.805
 3016POPC   D2A39316  36.887  44.069   8.373
 3016POPC   C3A39317  37.046  44.056   7.946
 3016POPC   C4A39318  36.741  44.188   7.611
 3016POPC   C1B39319  36.934  43.682   8.697
 3016POPC   C2B39320  37.115  43.596   8.277
 3016POPC   C3B39321  37.196  43.574   7.829
 3016POPC   C4B39322  37.093  43.816   7.456
 3017POPC   NC339323  23.461  42.416   9.587
 3017POPC   PO439324  24.129  42.244   9.555
 3017POPC   GL139325  23.774  42.250   9.231
 3017POPC   GL239326  23.700  42.572   9.142
 3017POPC   C1A39327  23.646  42.081   8.825
 3017POPC   D2A39328  23.690  41.868   8.405
 3017POPC   C3A39329  23.457  42.060   8.031
 3017POPC   C4A39330  23.648  42.212   7.643
 3017POPC   C1B39331  23.902  42.576   8.746
 3017POPC   C2B39332  23.786  42.395   8.369
 3017POPC   C3B39333  23.701  42.627   8.008
 3017POPC   C4B39334  23.950  42.660   7.663
 3018POPC   NC339335  23.429   5.064   9.443
 3018POPC   PO439336  24.140   5.305   9.533
 3018POPC   GL139337  23.944   5.196   9.181
 3018POPC   GL239338  23.711   5.429   9.197
 3018POPC   C1A39339  24.076   5.102   8.765
 3018POPC   D2A39340  24.123   4.855   8.391
 3018POPC   C3A39341  23.847   4.977   8.043
 3018POPC   C4A39342  23.928   4.936   7.601
 3018POPC   C1B39343  23.561   5.207   8.824
 3018POPC   C2B39344  23.468   5.095   8.418
 3018POPC   C3B39345  23.448   5.336   8.075
 3018POPC   C4B39346  23.677   5.362   7.714
 3019POPC   NC339347  17.826  34.436   9.495
 3019POPC   PO439348  17.228  34.701   9.558
 3019POPC   GL139349  17.455  34.491   9.128
 3019POPC   GL239350  17.772  34.278   9.017
 3019POPC   C1A39351  17.610  34.664   8.699
 3019POPC   D2A39352  17.636  34.880   8.279
 3019POPC   C3A39353  17.264  34.833   8.044
 3019POPC   C4A39354  17.022  34.439   7.940
 3019POPC   C1B39355  17.584  34.158   8.659
 3019POPC   C2B39356  17.405  34.330   8.292
 3019POPC   C3B39357  17.570  34.456   7.912
 3019POPC   C4B39358  17.641  34.332   7.514
 3020POPC   NC339359  31.331  25.653   9.501
 3020POPC   PO439360  31.146  25.004   9.408
 3020POPC   GL139361  31.285  25.230   9.093
 3020POPC   GL239362  31.392  25.557   9.021
 3020POPC   C1A39363  31.248  25.098   8.707
 3020POPC   D2A39364  31.567  24.914   8.504
 3020POPC   C3A39365  31.444  25.063   8.101
 3020POPC   C4A39366  31.636  25.124   7.722
 3020POPC   C1B39367  31.637  25.430   8.678
 3020POPC   C2B39368  31.613  25.641   8.305
 3020POPC   C3B39369  31.747  25.554   7.933
 3020POPC   C4B39370  31.953  25.523   7.596
 3021POPC   NC339371  23.064  22.619   9.413
 3021POPC   PO439372  23.174  21.934   9.466
 3021POPC   GL139373  23.081  22.012   9.090
 3021POPC   GL239374  22.832  22.269   9.118
 3021POPC   C1A39375  23.048  22.022   8.682
 3021POPC   D2A39376  22.935  22.368   8.403
 3021POPC   C3A39377  22.960  22.227   8.012
 3021POPC   C4A39378  23.094  21.820   7.946
 3021POPC   C1B39379  22.578  22.230   8.754
 3021POPC   C2B39380  22.419  22.393   8.406
 3021POPC   C3B39381  22.399  22.288   8.002
 3021POPC   C4B39382  22.631  22.199   7.639
 3022POPC   NC339383  33.146   9.577   9.553
 3022POPC   PO439384  33.010  10.237   9.645
 3022POPC   GL139385  33.017   9.912   9.177
 3022POPC   GL239386  32.991   9.542   9.084
 3022POPC   C1A39387  32.801   9.792   8.689
 3022POPC   D2A39388  32.737   9.556   8.289
 3022POPC   C3A39389  32.647   9.751   7.874
 3022POPC   C4A39390  32.749   9.946   7.462
 3022POPC   C1B39391  33.274   9.639   8.765
 3022POPC   C2B39392  33.461   9.849   8.437
 3022POPC   C3B39393  33.293   9.627   8.101
 3022POPC   C4B39394  33.375   9.628   7.672
 3023POPC   NC339395  18.776  35.322   9.614
 3023POPC   PO439396  19.426  35.466   9.596
 3023POPC   GL139397  19.153  35.294   9.282
 3023POPC   GL239398  18.977  35.553   9.143
 3023POPC   C1A39399  19.223  35.182   8.858
 3023POPC   D2A39400  19.299  35.426   8.484
 3023POPC   C3A39401  19.052  35.279   8.119
 3023POPC   C4A39402  18.876  35.105   7.749
 3023POPC   C1B39403  18.850  35.485   8.717
 3023POPC   C2B39404  18.589  35.358   8.386
 3023POPC   C3B39405  18.565  35.461   7.965
 3023POPC   C4B39406  18.593  35.551   7.541
 3024POPC   NC339407  15.773   0.996   9.443
 3024POPC   PO439408  15.138   1.264   9.518
 3024POPC   GL139409  15.402   1.234   9.195
 3024POPC   GL239410  15.352   0.870   9.140
 3024POPC   C1A39411  15.567   1.178   8.787
 3024POPC   D2A39412  15.409   0.956   8.428
 3024POPC   C3A39413  15.359   1.241   8.079
 3024POPC   C4A39414  15.184   1.364   7.652
 3024POPC   C1B39415  15.063   1.092   8.833
 3024POPC   C2B39416  14.879   1.075   8.421
 3024POPC   C3B39417  14.870   1.174   7.998
 3024POPC   C4B39418  14.818   1.004   7.572
 3025POPC   NC339419  29.652  28.980   9.590
 3025POPC   PO439420  30.309  29.309   9.586
 3025POPC   GL139421  30.161  29.309   9.130
 3025POPC   GL239422  29.925  29.056   9.144
 3025POPC   C1A39423  30.328  29.222   8.706
 3025POPC   D2A39424  30.476  29.156   8.272
 3025POPC   C3A39425  30.190  29.118   7.898
 3025POPC   C4A39426  29.810  28.858   7.879
 3025POPC   C1B39427  29.791  29.209   8.751
 3025POPC   C2B39428  29.963  29.243   8.339
 3025POPC   C3B39429  29.704  29.331   8.009
 3025POPC   C4B39430  29.479  29.594   7.783
 3026POPC   NC339431  30.502   3.670   9.610
 3026POPC   PO439432  30.749   3.075   9.387
 3026POPC   GL139433  30.633   3.440   9.180
 3026POPC   GL239434  30.851   3.743   9.223
 3026POPC   C1A39435  30.518   3.468   8.778
 3026POPC   D2A39436  30.336   3.348   8.419
 3026POPC   C3A39437  30.625   3.414   8.083
 3026POPC   C4A39438  30.786   3.479   7.665
 3026POPC   C1B39439  31.057   3.477   8.893
 3026POPC   C2B39440  30.938   3.508   8.465
 3026POPC   C3B39441  31.057   3.700   8.051
 3026POPC   C4B39442  31.299   3.599   7.690
 3027POPC   NC339443  35.463  30.946   9.421
 3027POPC   PO439444  35.553  30.156   9.512
 3027POPC   GL139445  35.518  30.465   9.188
 3027POPC   GL239446  35.176  30.556   9.183
 3027POPC   C1A39447  35.541  30.714   8.808
 3027POPC   D2A39448  35.601  30.562   8.406
 3027POPC   C3A39449  35.445  30.750   8.043
 3027POPC   C4A39450  35.501  30.497   7.660
 3027POPC   C1B39451  35.036  30.755   8.767
 3027POPC   C2B39452  35.030  30.920   8.318
 3027POPC   C3B39453  34.979  30.791   7.856
 3027POPC   C4B39454  35.233  30.850   7.460
 3028POPC   NC339455  41.356   8.702   9.430
 3028POPC   PO439456  41.869   9.077   9.503
 3028POPC   GL139457  41.650   9.023   9.111
 3028POPC   GL239458  41.298   9.151   9.149
 3028POPC   C1A39459  41.560   8.768   8.730
 3028POPC   D2A39460  41.783   8.686   8.330
 3028POPC   C3A39461  41.715   8.863   7.934
 3028POPC   C4A39462  41.627   9.286   7.824
 3028POPC   C1B39463  41.349   9.245   8.709
 3028POPC   C2B39464  41.421   9.105   8.290
 3028POPC   C3B39465  41.216   8.964   7.901
 3028POPC   C4B39466  41.323   8.939   7.467
 3029POPC   NC339467  41.380  20.281   9.315
 3029POPC   PO439468  41.631  19.750   9.554
 3029POPC   GL139469  41.607  19.862   9.129
 3029POPC   GL239470  41.856  20.149   9.118
 3029POPC   C1A39471  41.346  19.750   8.759
 3029POPC   D2A39472  41.324  19.866   8.335
 3029POPC   C3A39473  41.470  19.747   7.937
 3029POPC   C4A39474  41.461  19.945   7.511
 3029POPC   C1B39475  41.720  20.095   8.687
 3029POPC   C2B39476  41.641  20.261   8.291
 3029POPC   C3B39477  41.740  20.172   7.893
 3029POPC   C4B39478  41.920  20.154   7.469
 3030POPC   NC339479   1.463  39.287   9.435
 3030POPC   PO439480   1.036  38.807   9.428
 3030POPC   GL139481   1.013  39.206   9.137
 3030POPC   GL239482   1.326  39.208   8.945
 3030POPC   C1A39483   1.003  39.546   8.759
 3030POPC   D2A39484   1.272  39.629   8.365
 3030POPC   C3A39485   1.119  39.609   7.908
 3030POPC   C4A39486   1.046  39.251   7.582
 3030POPC   C1B39487   1.033  38.982   8.648
 3030POPC   C2B39488   1.002  38.703   8.243
 3030POPC   C3B39489   1.018  38.610   7.752
 3030POPC   C4B39490   1.091  38.450   7.287
 3031POPC   NC339491  43.851  19.440   9.491
 3031POPC   PO439492  44.130  18.894   9.427
 3031POPC   GL139493  44.004  19.176   9.083
 3031POPC   GL239494  43.645  19.141   9.141
 3031POPC   C1A39495  44.038  19.162   8.624
 3031POPC   D2A39496  44.317  18.913   8.341
 3031POPC   C3A39497  44.103  18.843   7.928
 3031POPC   C4A39498  43.683  18.884   7.678
 3031POPC   C1B39499  43.509  19.298   8.754
 3031POPC   C2B39500  43.572  19.062   8.385
 3031POPC   C3B39501  43.772  19.220   8.048
 3031POPC   C4B39502  43.621  19.387   7.678
 3032POPC   NC339503  40.689  34.898   9.304
 3032POPC   PO439504  41.112  34.403   9.592
 3032POPC   GL139505  41.096  34.514   9.143
 3032POPC   GL239506  40.791  34.576   8.931
 3032POPC   C1A39507  41.230  34.374   8.738
 3032POPC   D2A39508  40.980  34.284   8.398
 3032POPC   C3A39509  41.035  34.504   8.012
 3032POPC   C4A39510  41.109  34.343   7.627
 3032POPC   C1B39511  40.521  34.296   8.668
 3032POPC   C2B39512  40.354  34.335   8.258
 3032POPC   C3B39513  40.520  34.438   7.849
 3032POPC   C4B39514  40.722  34.752   7.626
 3033POPC   NC339515  38.928  28.491   9.424
 3033POPC   PO439516  39.209  27.828   9.547
 3033POPC   GL139517  39.244  28.123   9.165
 3033POPC   GL239518  38.967  28.283   8.954
 3033POPC   C1A39519  39.449  28.205   8.737
 3033POPC   D2A39520  39.519  28.458   8.332
 3033POPC   C3A39521  39.306  28.316   7.947
 3033POPC   C4A39522  39.194  27.868   7.831
 3033POPC   C1B39523  39.067  28.652   8.640
 3033POPC   C2B39524  38.978  28.802   8.195
 3033POPC   C3B39525  39.051  28.736   7.736
 3033POPC   C4B39526  38.974  28.788   7.252
 3034POPC   NC339527   4.218  14.515   9.507
 3034POPC   PO439528   4.436  13.928   9.666
 3034POPC   GL139529   4.356  14.147   9.209
 3034POPC   GL239530   4.548  14.416   9.121
 3034POPC   C1A39531   4.249  14.293   8.745
 3034POPC   D2A39532   4.052  14.384   8.319
 3034POPC   C3A39533   4.216  14.311   7.893
 3034POPC   C4A39534   4.025  14.117   7.502
 3034POPC   C1B39535   4.695  14.675   8.804
 3034POPC   C2B39536   4.519  14.593   8.417
 3034POPC   C3B39537   4.623  14.620   8.004
 3034POPC   C4B39538   4.687  14.884   7.662
 3035POPC   NC339539  44.543  12.837   9.416
 3035POPC   PO439540  44.920  13.350   9.467
 3035POPC   GL139541  44.893  13.126   9.074
 3035POPC   GL239542  44.899  12.778   9.054
 3035POPC   C1A39543  44.633  13.015   8.713
 3035POPC   D2A39544  44.834  12.928   8.342
 3035POPC   C3A39545  44.591  13.088   8.021
 3035POPC   C4A39546  44.479  13.327   7.664
 3035POPC   C1B39547  44.799  12.521   8.708
 3035POPC   C2B39548  44.952  12.412   8.318
 3035POPC   C3B39549  44.766  12.571   7.962
 3035POPC   C4B39550  44.493  12.747   7.674
 3036POPC   NC339551  26.048  15.446   9.479
 3036POPC   PO439552  25.900  14.831   9.276
 3036POPC   GL139553  25.887  15.200   9.041
 3036POPC   GL239554  26.225  15.226   9.042
 3036POPC   C1A39555  25.994  15.278   8.604
 3036POPC   D2A39556  25.754  15.119   8.277
 3036POPC   C3A39557  25.754  15.417   7.960
 3036POPC   C4A39558  25.984  15.421   7.633
 3036POPC   C1B39559  26.463  15.038   8.723
 3036POPC   C2B39560  26.500  15.236   8.364
 3036POPC   C3B39561  26.244  15.242   8.029
 3036POPC   C4B39562  26.282  15.023   7.615
 3037POPC   NC339563  37.139  36.087   9.478
 3037POPC   PO439564  37.818  36.246   9.508
 3037POPC   GL139565  37.556  36.029   9.186
 3037POPC   GL239566  37.545  35.675   9.135
 3037POPC   C1A39567  37.374  36.102   8.800
 3037POPC   D2A39568  37.504  36.463   8.566
 3037POPC   C3A39569  37.474  36.464   8.146
 3037POPC   C4A39570  37.715  36.310   7.832
 3037POPC   C1B39571  37.763  35.774   8.727
 3037POPC   C2B39572  37.665  35.981   8.325
 3037POPC   C3B39573  37.758  35.815   7.902
 3037POPC   C4B39574  37.958  35.761   7.474
 3038POPC   NC339575  38.395  13.957   9.411
 3038POPC   PO439576  38.454  14.619   9.416
 3038POPC   GL139577  38.660  14.584   9.053
 3038POPC   GL239578  38.675  14.225   9.056
 3038POPC   C1A39579  38.530  14.540   8.660
 3038POPC   D2A39580  38.249  14.345   8.426
 3038POPC   C3A39581  38.358  14.568   8.084
 3038POPC   C4A39582  38.300  14.510   7.648
 3038POPC   C1B39583  38.617  13.987   8.662
 3038POPC   C2B39584  38.382  13.885   8.272
 3038POPC   C3B39585  38.407  14.081   7.887
 3038POPC   C4B39586  38.611  14.147   7.454
 3039POPC   NC339587  38.717  43.478   9.409
 3039POPC   PO439588  38.390  44.039   9.456
 3039POPC   GL139589  38.408  43.966   9.058
 3039POPC   GL239590  38.355  43.609   9.067
 3039POPC   C1A39591  38.569  44.173   8.672
 3039POPC   D2A39592  38.662  44.349   8.277
 3039POPC   C3A39593  38.485  44.134   7.936
 3039POPC   C4A39594  38.778  43.899   7.705
 3039POPC   C1B39595  38.161  43.719   8.693
 3039POPC   C2B39596  38.315  43.813   8.318
 3039POPC   C3B39597  38.112  43.753   7.956
 3039POPC   C4B39598  38.299  43.760   7.592
 3040POPC   NC339599  20.277  26.188   9.250
 3040POPC   PO439600  20.874  25.961   9.412
 3040POPC   GL139601  20.911  25.762   9.013
 3040POPC   GL239602  20.539  25.815   8.987
 3040POPC   C1A39603  20.851  25.781   8.554
 3040POPC   D2A39604  20.535  25.743   8.230
 3040POPC   C3A39605  20.686  25.688   7.809
 3040POPC   C4A39606  20.490  25.798   7.384
 3040POPC   C1B39607  20.716  26.226   8.793
 3040POPC   C2B39608  20.652  26.472   8.434
 3040POPC   C3B39609  20.599  26.243   8.094
 3040POPC   C4B39610  20.676  26.163   7.714
 3041POPC   NC339611  27.346  39.020   9.789
 3041POPC   PO439612  26.692  39.172   9.512
 3041POPC   GL139613  26.712  39.270   9.110
 3041POPC   GL239614  26.414  39.137   9.023
 3041POPC   C1A39615  26.832  39.147   8.684
 3041POPC   D2A39616  27.109  39.336   8.354
 3041POPC   C3A39617  26.945  39.239   7.945
 3041POPC   C4A39618  26.906  38.869   7.714
 3041POPC   C1B39619  26.427  39.490   8.735
 3041POPC   C2B39620  26.587  39.398   8.299
 3041POPC   C3B39621  26.587  38.950   8.148
 3041POPC   C4B39622  26.384  38.805   7.803
 3042POPC   NC339623   4.154   5.959   9.825
 3042POPC   PO439624   3.476   5.713   9.625
 3042POPC   GL139625   3.447   5.918   9.249
 3042POPC   GL239626   3.752   5.803   9.156
 3042POPC   C1A39627   3.385   5.802   8.810
 3042POPC   D2A39628   3.314   5.940   8.413
 3042POPC   C3A39629   3.468   5.728   8.069
 3042POPC   C4A39630   3.319   6.034   7.816
 3042POPC   C1B39631   3.946   5.810   8.732
 3042POPC   C2B39632   3.846   6.030   8.350
 3042POPC   C3B39633   3.829   6.050   7.889
 3042POPC   C4B39634   3.719   5.780   7.547
 3043POPC   NC339635  40.022  18.285   9.780
 3043POPC   PO439636  40.145  17.914   9.251
 3043POPC   GL139637  40.076  18.271   8.982
 3043POPC   GL239638  39.800  18.045   8.866
 3043POPC   C1A39639  39.927  18.409   8.561
 3043POPC   D2A39640  39.732  18.057   8.319
 3043POPC   C3A39641  39.853  18.179   7.908
 3043POPC   C4A39642  40.254  18.356   7.818
 3043POPC   C1B39643  40.194  17.949   8.601
 3043POPC   C2B39644  40.357  18.062   8.234
 3043POPC   C3B39645  40.454  17.876   7.858
 3043POPC   C4B39646  40.572  17.809   7.451
 3044POPC   NC339647   5.666   7.962   9.470
 3044POPC   PO439648   5.850   8.577   9.681
 3044POPC   GL139649   5.919   8.338   9.236
 3044POPC   GL239650   6.138   8.036   9.209
 3044POPC   C1A39651   5.830   8.228   8.826
 3044POPC   D2A39652   5.652   8.457   8.500
 3044POPC   C3A39653   5.763   8.350   8.078
 3044POPC   C4A39654   5.838   8.166   7.657
 3044POPC   C1B39655   6.117   7.813   8.819
 3044POPC   C2B39656   6.043   7.999   8.419
 3044POPC   C3B39657   5.919   7.844   8.044
 3044POPC   C4B39658   6.153   7.769   7.701
 3045POPC   NC339659  12.832   3.810   9.987
 3045POPC   PO439660  12.531   3.942   9.297
 3045POPC   GL139661  12.632   3.702   8.989
 3045POPC   GL239662  12.932   3.603   9.011
 3045POPC   C1A39663  12.709   3.658   8.556
 3045POPC   D2A39664  13.018   3.649   8.276
 3045POPC   C3A39665  12.843   3.536   7.885
 3045POPC   C4A39666  12.528   3.828   7.674
 3045POPC   C1B39667  13.147   3.354   8.689
 3045POPC   C2B39668  12.982   3.161   8.324
 3045POPC   C3B39669  13.213   3.161   7.949
 3045POPC   C4B39670  13.146   3.251   7.543
 3046POPC   NC339671   4.960  44.051   9.848
 3046POPC   PO439672   5.203  43.479   9.532
 3046POPC   GL139673   5.085  43.790   9.223
 3046POPC   GL239674   5.052  44.114   9.357
 3046POPC   C1A39675   5.162  43.842   8.782
 3046POPC   D2A39676   4.997  43.722   8.399
 3046POPC   C3A39677   5.317  43.707   8.096
 3046POPC   C4A39678   5.111  43.729   7.734
 3046POPC   C1B39679   4.932  44.250   8.970
 3046POPC   C2B39680   4.889  44.290   8.505
 3046POPC   C3B39681   4.980  44.137   8.093
 3046POPC   C4B39682   4.894  44.189   7.684
 3047POPC   NC339683  23.299  37.181   9.510
 3047POPC   PO439684  22.991  36.627   9.480
 3047POPC   GL139685  22.959  36.918   9.168
 3047POPC   GL239686  22.677  36.744   9.003
 3047POPC   C1A39687  23.037  36.979   8.725
 3047POPC   D2A39688  22.796  36.943   8.364
 3047POPC   C3A39689  22.987  37.130   8.012
 3047POPC   C4A39690  23.291  36.969   7.726
 3047POPC   C1B39691  22.535  37.141   8.775
 3047POPC   C2B39692  22.455  37.325   8.338
 3047POPC   C3B39693  22.458  36.988   7.993
 3047POPC   C4B39694  22.756  36.722   7.804
 3048POPC   NC339695  12.470  14.668   9.765
 3048POPC   PO439696  12.888  15.005   9.461
 3048POPC   GL139697  12.774  14.676   9.160
 3048POPC   GL239698  12.597  14.365   9.287
 3048POPC   C1A39699  12.991  14.381   8.899
 3048POPC   D2A39700  13.066  14.104   8.553
 3048POPC   C3A39701  13.063  14.358   8.172
 3048POPC   C4A39702  13.130  14.221   7.758
 3048POPC   C1B39703  12.508  14.182   8.859
 3048POPC   C2B39704  12.646  14.422   8.510
 3048POPC   C3B39705  12.541  14.477   8.100
 3048POPC   C4B39706  12.535  14.359   7.700
 3049POPC   NC339707  32.088  10.154   9.670
 3049POPC   PO439708  32.581   9.830   9.447
 3049POPC   GL139709  32.495   9.773   9.065
 3049POPC   GL239710  32.175   9.883   9.104
 3049POPC   C1A39711  32.478   9.416   8.748
 3049POPC   D2A39712  32.283   9.292   8.368
 3049POPC   C3A39713  32.200   9.657   8.148
 3049POPC   C4A39714  32.139   9.703   7.726
 3049POPC   C1B39715  32.215   9.838   8.640
 3049POPC   C2B39716  31.968  10.084   8.366
 3049POPC   C3B39717  32.024  10.124   7.970
 3049POPC   C4B39718  31.813  10.069   7.562
 3050POPC   NC339719  44.338  25.009   9.347
 3050POPC   PO439720  43.966  25.529   9.728
 3050POPC   GL139721  44.052  25.423   9.282
 3050POPC   GL239722  43.901  25.137   9.131
 3050POPC   C1A39723  44.166  25.428   8.815
 3050POPC   D2A39724  44.143  25.094   8.475
 3050POPC   C3A39725  44.023  25.229   8.079
 3050POPC   C4A39726  43.759  25.182   7.766
 3050POPC   C1B39727  43.697  25.161   8.723
 3050POPC   C2B39728  43.626  24.973   8.298
 3050POPC   C3B39729  43.531  24.741   7.892
 3050POPC   C4B39730  43.698  24.746   7.440
 3051POPC   NC339731  41.333  29.779   9.358
 3051POPC   PO439732  41.642  30.395   9.297
 3051POPC   GL139733  41.587  30.116   9.026
 3051POPC   GL239734  41.780  29.852   9.077
 3051POPC   C1A39735  41.379  29.995   8.699
 3051POPC   D2A39736  41.579  29.863   8.367
 3051POPC   C3A39737  41.697  30.068   7.998
 3051POPC   C4A39738  41.609  30.175   7.563
 3051POPC   C1B39739  41.649  29.527   8.759
 3051POPC   C2B39740  41.771  29.383   8.359
 3051POPC   C3B39741  41.531  29.549   7.992
 3051POPC   C4B39742  41.659  29.687   7.636
 3052POPC   NC339743  11.808  10.584   9.949
 3052POPC   PO439744  11.280  10.279   9.640
 3052POPC   GL139745  11.301  10.562   9.260
 3052POPC   GL239746  11.012  10.692   9.241
 3052POPC   C1A39747  11.444  10.478   8.828
 3052POPC   D2A39748  11.649  10.619   8.453
 3052POPC   C3A39749  11.490  10.507   8.084
 3052POPC   C4A39750  11.266  10.261   7.776
 3052POPC   C1B39751  10.955  10.683   8.785
 3052POPC   C2B39752  11.104  10.616   8.383
 3052POPC   C3B39753  10.990  10.655   7.937
 3052POPC   C4B39754  11.020  10.568   7.445
 3053POPC   NC339755  37.865   5.064   9.542
 3053POPC   PO439756  37.331   4.846   9.516
 3053POPC   GL139757  37.499   4.902   9.092
 3053POPC   GL239758  37.762   5.148   9.050
 3053POPC   C1A39759  37.468   5.098   8.651
 3053POPC   D2A39760  37.460   4.987   8.251
 3053POPC   C3A39761  37.450   5.227   7.924
 3053POPC   C4A39762  37.609   4.962   7.658
 3053POPC   C1B39763  37.974   5.081   8.634
 3053POPC   C2B39764  37.987   4.897   8.188
 3053POPC   C3B39765  38.044   5.175   7.800
 3053POPC   C4B39766  38.210   5.539   7.513
 3054POPC   NC339767  10.855  34.694   9.426
 3054POPC   PO439768  11.472  34.874   9.423
 3054POPC   GL139769  11.300  34.525   9.180
 3054POPC   GL239770  11.434  34.191   9.278
 3054POPC   C1A39771  11.147  34.507   8.750
 3054POPC   D2A39772  11.232  34.689   8.365
 3054POPC   C3A39773  11.290  34.461   7.999
 3054POPC   C4A39774  11.035  34.744   7.766
 3054POPC   C1B39775  11.501  34.161   8.873
 3054POPC   C2B39776  11.402  34.154   8.447
 3054POPC   C3B39777  11.645  34.058   8.091
 3054POPC   C4B39778  11.536  34.046   7.667
 3055POPC   NC339779  21.350  35.745   9.288
 3055POPC   PO439780  21.718  35.214   9.459
 3055POPC   GL139781  21.514  35.284   9.099
 3055POPC   GL239782  21.447  34.950   9.029
 3055POPC   C1A39783  21.286  35.350   8.715
 3055POPC   D2A39784  21.288  35.534   8.373
 3055POPC   C3A39785  21.328  35.365   7.972
 3055POPC   C4A39786  21.148  35.420   7.561
 3055POPC   C1B39787  21.713  35.062   8.684
 3055POPC   C2B39788  21.516  35.022   8.302
 3055POPC   C3B39789  21.544  34.903   7.886
 3055POPC   C4B39790  21.511  35.098   7.521
 3056POPC   NC339791  25.534  16.298   9.377
 3056POPC   PO439792  25.241  16.895   9.535
 3056POPC   GL139793  25.311  16.771   9.154
 3056POPC   GL239794  25.651  16.796   9.187
 3056POPC   C1A39795  25.097  16.717   8.766
 3056POPC   D2A39796  25.241  16.536   8.391
 3056POPC   C3A39797  25.219  16.759   8.013
 3056POPC   C4A39798  25.189  16.555   7.648
 3056POPC   C1B39799  25.586  16.584   8.775
 3056POPC   C2B39800  25.800  16.471   8.431
 3056POPC   C3B39801  25.636  16.495   8.037
 3056POPC   C4B39802  25.625  16.796   7.666
 3057POPC   NC339803   3.114  10.600   9.483
 3057POPC   PO439804   2.569  10.263   9.516
 3057POPC   GL139805   2.742  10.242   9.068
 3057POPC   GL239806   3.111  10.254   9.094
 3057POPC   C1A39807   2.595  10.483   8.655
 3057POPC   D2A39808   2.444  10.834   8.339
 3057POPC   C3A39809   2.635  10.685   7.971
 3057POPC   C4A39810   2.675  10.242   7.943
 3057POPC   C1B39811   3.062  10.612   8.818
 3057POPC   C2B39812   2.954  10.785   8.413
 3057POPC   C3B39813   3.131  10.797   8.021
 3057POPC   C4B39814   3.059  10.466   7.712
 3058POPC   NC339815  39.809  29.433   9.600
 3058POPC   PO439816  40.362  29.113   9.725
 3058POPC   GL139817  40.033  29.103   9.284
 3058POPC   GL239818  39.793  29.335   9.107
 3058POPC   C1A39819  40.031  29.031   8.782
 3058POPC   D2A39820  40.195  29.331   8.470
 3058POPC   C3A39821  40.247  29.211   8.025
 3058POPC   C4A39822  40.313  29.101   7.564
 3058POPC   C1B39823  39.768  29.508   8.722
 3058POPC   C2B39824  39.711  29.389   8.311
 3058POPC   C3B39825  39.821  29.502   7.938
 3058POPC   C4B39826  39.831  29.183   7.681
 3059POPC   NC339827  40.496  33.283   9.539
 3059POPC   PO439828  40.939  32.899   9.675
 3059POPC   GL139829  40.760  32.860   9.286
 3059POPC   GL239830  41.072  32.805   9.157
 3059POPC   C1A39831  40.699  32.950   8.834
 3059POPC   D2A39832  40.620  32.727   8.451
 3059POPC   C3A39833  40.594  32.974   8.092
 3059POPC   C4A39834  40.685  33.084   7.694
 3059POPC   C1B39835  41.247  32.906   8.756
 3059POPC   C2B39836  41.055  33.025   8.402
 3059POPC   C3B39837  41.063  33.211   8.042
 3059POPC   C4B39838  41.169  32.972   7.698
 3060POPC   NC339839  40.466  43.322   9.523
 3060POPC   PO439840  41.060  42.939   9.546
 3060POPC   GL139841  40.845  43.104   9.213
 3060POPC   GL239842  40.548  42.877   9.224
 3060POPC   C1A39843  40.727  43.277   8.817
 3060POPC   D2A39844  40.548  43.207   8.433
 3060POPC   C3A39845  40.741  43.415   8.084
 3060POPC   C4A39846  40.480  43.314   7.748
 3060POPC   C1B39847  40.675  42.776   8.783
 3060POPC   C2B39848  40.692  42.700   8.337
 3060POPC   C3B39849  40.831  42.924   7.939
 3060POPC   C4B39850  41.247  42.884   7.692
 3061POPC   NC339851  12.546   8.385   9.514
 3061POPC   PO439852  13.084   7.986   9.404
 3061POPC   GL139853  12.980   8.351   9.140
 3061POPC   GL239854  12.758   8.653   9.138
 3061POPC   C1A39855  12.863   8.285   8.747
 3061POPC   D2A39856  12.705   7.999   8.428
 3061POPC   C3A39857  12.856   8.064   8.021
 3061POPC   C4A39858  12.539   7.988   7.715
 3061POPC   C1B39859  12.779   8.806   8.714
 3061POPC   C2B39860  12.890   8.585   8.348
 3061POPC   C3B39861  12.822   8.682   7.956
 3061POPC   C4B39862  12.962   8.436   7.641
 3062POPC   NC339863   6.276   8.395   9.570
 3062POPC   PO439864   6.771   8.937   9.535
 3062POPC   GL139865   6.633   9.032   9.128
 3062POPC   GL239866   6.335   9.296   9.179
 3062POPC   C1A39867   6.610   8.741   8.775
 3062POPC   D2A39868   6.525   8.867   8.375
 3062POPC   C3A39869   6.596   8.619   8.041
 3062POPC   C4A39870   6.592   8.850   7.673
 3062POPC   C1B39871   6.291   9.147   8.768
 3062POPC   C2B39872   6.247   9.304   8.372
 3062POPC   C3B39873   6.335   9.180   7.972
 3062POPC   C4B39874   6.059   9.123   7.660
 3063POPC   NC339875  40.391  27.692   9.634
 3063POPC   PO439876  40.884  27.212   9.504
 3063POPC   GL139877  40.921  27.477   9.143
 3063POPC   GL239878  40.580  27.566   9.142
 3063POPC   C1A39879  40.969  27.646   8.739
 3063POPC   D2A39880  40.725  27.776   8.397
 3063POPC   C3A39881  40.893  27.689   8.017
 3063POPC   C4A39882  41.172  27.445   7.797
 3063POPC   C1B39883  40.427  27.830   8.832
 3063POPC   C2B39884  40.309  28.078   8.464
 3063POPC   C3B39885  40.385  27.923   8.053
 3063POPC   C4B39886  40.597  27.849   7.659
 3064POPC   NC339887  14.717  13.257   9.423
 3064POPC   PO439888  15.217  13.699   9.515
 3064POPC   GL139889  15.156  13.601   9.096
 3064POPC   GL239890  14.897  13.390   8.951
 3064POPC   C1A39891  15.129  13.761   8.686
 3064POPC   D2A39892  15.235  13.436   8.412
 3064POPC   C3A39893  15.379  13.476   8.012
 3064POPC   C4A39894  15.162  13.623   7.651
 3064POPC   C1B39895  14.722  13.510   8.561
 3064POPC   C2B39896  14.885  13.737   8.207
 3064POPC   C3B39897  14.868  13.370   7.961
 3064POPC   C4B39898  14.516  13.289   7.729
 3065POPC   NC339899   6.979   5.692   9.295
 3065POPC   PO439900   7.666   5.740   9.366
 3065POPC   GL139901   7.400   5.889   9.060
 3065POPC   GL239902   7.130   6.152   9.125
 3065POPC   C1A39903   7.550   5.904   8.670
 3065POPC   D2A39904   7.765   6.077   8.318
 3065POPC   C3A39905   7.738   5.787   7.989
 3065POPC   C4A39906   7.420   5.525   7.798
 3065POPC   C1B39907   7.030   5.972   8.687
 3065POPC   C2B39908   7.240   5.894   8.279
 3065POPC   C3B39909   7.335   6.144   7.951
 3065POPC   C4B39910   7.061   6.121   7.602
 3066POPC   NC339911   1.263  36.488   9.695
 3066POPC   PO439912   1.031  35.903   9.523
 3066POPC   GL139913   1.131  36.040   9.126
 3066POPC   GL239914   1.063  36.386   9.165
 3066POPC   C1A39915   1.098  35.878   8.680
 3066POPC   D2A39916   1.334  35.624   8.368
 3066POPC   C3A39917   1.588  35.827   8.063
 3066POPC   C4A39918   1.444  36.070   7.696
 3066POPC   C1B39919   0.793  36.268   8.824
 3066POPC   C2B39920   0.736  36.243   8.376
 3066POPC   C3B39921   0.704  36.501   7.977
 3066POPC   C4B39922   0.761  36.492   7.508
 3067POPC   NC339923  31.361  35.061   9.489
 3067POPC   PO439924  31.746  35.586   9.680
 3067POPC   GL139925  31.730  35.390   9.230
 3067POPC   GL239926  31.548  35.152   9.025
 3067POPC   C1A39927  31.673  35.571   8.780
 3067POPC   D2A39928  31.454  35.407   8.421
 3067POPC   C3A39929  31.458  35.614   8.032
 3067POPC   C4A39930  31.516  35.565   7.601
 3067POPC   C1B39931  31.234  35.011   8.718
 3067POPC   C2B39932  31.149  35.027   8.266
 3067POPC   C3B39933  31.384  35.118   7.856
 3067POPC   C4B39934  31.286  34.930   7.432
 3068POPC   NC339935  24.477  13.963   9.467
 3068POPC   PO439936  24.733  14.634   9.378
 3068POPC   GL139937  24.566  14.410   9.052
 3068POPC   GL239938  24.778  14.085   9.082
 3068POPC   C1A39939  24.271  14.531   8.712
 3068POPC   D2A39940  24.037  14.370   8.316
 3068POPC   C3A39941  24.367  14.517   8.007
 3068POPC   C4A39942  24.744  14.474   7.732
 3068POPC   C1B39943  24.468  14.006   8.757
 3068POPC   C2B39944  24.503  14.200   8.400
 3068POPC   C3B39945  24.670  14.096   8.047
 3068POPC   C4B39946  24.422  14.057   7.694
 3069POPC   NC339947  42.061  30.228   9.334
 3069POPC   PO439948  42.602  30.489   9.563
 3069POPC   GL139949  42.598  30.162   9.146
 3069POPC   GL239950  42.370  29.850   9.172
 3069POPC   C1A39951  42.516  29.915   8.689
 3069POPC   D2A39952  42.094  29.965   8.419
 3069POPC   C3A39953  42.028  29.706   8.009
 3069POPC   C4A39954  42.073  29.975   7.623
 3069POPC   C1B39955  42.145  29.620   8.831
 3069POPC   C2B39956  42.292  29.511   8.406
 3069POPC   C3B39957  42.512  29.754   8.086
 3069POPC   C4B39958  42.392  29.583   7.640
 3070POPC   NC339959   4.990   3.003   9.489
 3070POPC   PO439960   5.355   2.476   9.634
 3070POPC   GL139961   5.166   2.535   9.209
 3070POPC   GL239962   5.335   2.840   9.148
 3070POPC   C1A39963   4.928   2.742   8.827
 3070POPC   D2A39964   4.791   3.050   8.473
 3070POPC   C3A39965   4.752   2.865   8.060
 3070POPC   C4A39966   5.030   2.557   7.882
 3070POPC   C1B39967   5.377   2.930   8.712
 3070POPC   C2B39968   5.227   2.849   8.287
 3070POPC   C3B39969   5.421   2.917   7.887
 3070POPC   C4B39970   5.469   3.214   7.575
 3071POPC   NC339971  10.840  24.715   9.502
 3071POPC   PO439972  10.713  24.039   9.453
 3071POPC   GL139973  10.582  24.213   9.093
 3071POPC   GL239974  10.657  24.564   9.050
 3071POPC   C1A39975  10.474  24.243   8.698
 3071POPC   D2A39976  10.600  24.489   8.386
 3071POPC   C3A39977  10.537  24.282   8.000
 3071POPC   C4A39978  10.395  24.437   7.588
 3071POPC   C1B39979  10.930  24.727   8.731
 3071POPC   C2B39980  10.860  24.930   8.339
 3071POPC   C3B39981  10.742  24.766   7.965
 3071POPC   C4B39982  10.658  24.897   7.575
 3072POPC   NC339983  44.462   2.147   9.377
 3072POPC   PO439984   0.039   2.031   9.688
 3072POPC   GL139985  44.929   1.941   9.255
 3072POPC   GL239986  44.668   1.697   9.170
 3072POPC   C1A39987  44.831   2.098   8.819
 3072POPC   D2A39988  44.946   2.065   8.368
 3072POPC   C3A39989  44.685   2.148   8.034
 3072POPC   C4A39990  44.550   1.823   7.717
 3072POPC   C1B39991   0.040   1.621   8.878
 3072POPC   C2B39992   0.145   1.603   8.431
 3072POPC   C3B39993  44.937   1.671   8.038
 3072POPC   C4B39994  44.942   1.521   7.634
 3073POPC   NC339995  40.397  26.994   9.505
 3073POPC   PO439996  39.769  26.588   9.544
 3073POPC   GL139997  39.987  26.787   9.223
 3073POPC   GL239998  40.282  26.628   9.148
 3073POPC   C1A39999  39.838  26.938   8.828
 3073POPC   D2A40000  39.700  26.752   8.447
 3073POPC   C3A40001  39.902  26.955   8.117
 3073POPC   C4A40002  39.823  26.875   7.707
 3073POPC   C1B40003  40.350  26.794   8.722
 3073POPC   C2B40004  40.402  26.867   8.275
 3073POPC   C3B40005  40.461  26.641   7.896
 3073POPC   C4B40006  40.204  26.589   7.496
 3074POPC   NC340007  29.715   3.146   9.819
 3074POPC   PO440008  29.894   2.574   9.523
 3074POPC   GL140009  29.965   2.794   9.169
 3074POPC   GL240010  29.666   2.608   9.075
 3074POPC   C1A40011  30.188   2.987   8.816
 3074POPC   D2A40012  29.983   2.935   8.415
 3074POPC   C3A40013  30.128   3.042   8.060
 3074POPC   C4A40014  30.046   2.845   7.708
 3074POPC   C1B40015  29.642   2.927   8.781
 3074POPC   C2B40016  29.511   3.155   8.370
 3074POPC   C3B40017  29.583   2.906   7.973
 3074POPC   C4B40018  29.610   3.014   7.517
 3075POPC   NC340019  14.078  16.595   9.442
 3075POPC   PO440020  14.635  16.977   9.648
 3075POPC   GL140021  14.475  16.750   9.227
 3075POPC   GL240022  14.544  16.475   9.078
 3075POPC   C1A40023  14.290  16.834   8.766
 3075POPC   D2A40024  14.375  17.076   8.382
 3075POPC   C3A40025  14.446  16.863   7.998
 3075POPC   C4A40026  14.846  16.916   7.780
 3075POPC   C1B40027  14.121  16.377   8.843
 3075POPC   C2B40028  14.107  16.462   8.412
 3075POPC   C3B40029  14.149  16.430   7.973
 3075POPC   C4B40030  14.023  16.718   7.688
 3076POPC   NC340031  30.187  42.127   9.458
 3076POPC   PO440032  29.515  42.158   9.424
 3076POPC   GL140033  29.770  42.384   9.082
 3076POPC   GL240034  30.073  42.251   8.999
 3076POPC   C1A40035  29.870  42.410   8.588
 3076POPC   D2A40036  29.575  42.285   8.312
 3076POPC   C3A40037  29.491  42.510   7.943
 3076POPC   C4A40038  29.652  42.349   7.557
 3076POPC   C1B40039  30.207  41.979   8.650
 3076POPC   C2B40040  30.110  41.983   8.219
 3076POPC   C3B40041  29.977  42.314   7.976
 3076POPC   C4B40042  29.962  42.729   7.905
 3077POPC   NC340043  23.922  16.461   9.410
 3077POPC   PO440044  23.377  16.703   9.620
 3077POPC   GL140045  23.533  16.753   9.195
 3077POPC   GL240046  23.866  16.906   9.162
 3077POPC   C1A40047  23.640  16.622   8.762
 3077POPC   D2A40048  23.692  16.884   8.369
 3077POPC   C3A40049  23.816  16.800   7.909
 3077POPC   C4A40050  23.565  16.958   7.512
 3077POPC   C1B40051  24.070  16.860   8.777
 3077POPC   C2B40052  24.093  16.582   8.438
 3077POPC   C3B40053  24.258  16.430   8.079
 3077POPC   C4B40054  24.206  16.527   7.686
 3078POPC   NC340055  37.309  32.722   9.473
 3078POPC   PO440056  36.627  32.473   9.359
 3078POPC   GL140057  36.893  32.797   9.160
 3078POPC   GL240058  36.907  33.163   9.085
 3078POPC   C1A40059  37.189  32.820   8.826
 3078POPC   D2A40060  37.164  33.052   8.443
 3078POPC   C3A40061  36.835  32.879   8.188
 3078POPC   C4A40062  36.967  32.843   7.787
 3078POPC   C1B40063  36.718  33.086   8.707
 3078POPC   C2B40064  36.671  33.352   8.339
 3078POPC   C3B40065  36.907  33.373   7.982
 3078POPC   C4B40066  37.316  33.439   7.790
 3079POPC   NC340067  38.740  25.784   9.435
 3079POPC   PO440068  38.238  26.350   9.482
 3079POPC   GL140069  38.387  26.163   9.144
 3079POPC   GL240070  38.242  25.853   9.144
 3079POPC   C1A40071  38.632  26.085   8.788
 3079POPC   D2A40072  38.596  25.874   8.359
 3079POPC   C3A40073  38.582  26.123   7.975
 3079POPC   C4A40074  38.550  26.434   7.623
 3079POPC   C1B40075  38.295  25.698   8.748
 3079POPC   C2B40076  38.160  25.549   8.364
 3079POPC   C3B40077  38.271  25.674   7.943
 3079POPC   C4B40078  38.299  25.665   7.475
 3080POPC   NC340079  41.863  41.789   9.577
 3080POPC   PO440080  42.548  41.572   9.456
 3080POPC   GL140081  42.490  41.379   9.079
 3080POPC   GL240082  42.116  41.445   9.083
 3080POPC   C1A40083  42.418  41.335   8.680
 3080POPC   D2A40084  42.398  41.676   8.450
 3080POPC   C3A40085  42.659  41.485   8.133
 3080POPC   C4A40086  42.561  41.481   7.721
 3080POPC   C1B40087  41.943  41.498   8.681
 3080POPC   C2B40088  42.031  41.402   8.252
 3080POPC   C3B40089  42.163  41.196   7.896
 3080POPC   C4B40090  42.098  41.293   7.489
 3081POPC   NC340091  16.113  14.358   9.521
 3081POPC   PO440092  15.439  14.422   9.516
 3081POPC   GL140093  15.709  14.461   9.143
 3081POPC   GL240094  16.050  14.589   9.094
 3081POPC   C1A40095  15.797  14.384   8.701
 3081POPC   D2A40096  15.546  14.646   8.437
 3081POPC   C3A40097  15.508  14.485   8.045
 3081POPC   C4A40098  15.774  14.188   7.846
 3081POPC   C1B40099  16.243  14.612   8.703
 3081POPC   C2B40100  16.081  14.546   8.299
 3081POPC   C3B40101  16.333  14.737   8.035
 3081POPC   C4B40102  16.438  14.600   7.656
 3082POPC   NC340103  44.506   3.742   9.710
 3082POPC   PO440104  44.759   3.094   9.554
 3082POPC   GL140105  44.700   3.417   9.198
 3082POPC   GL240106  44.596   3.768   9.208
 3082POPC   C1A40107  44.532   3.433   8.773
 3082POPC   D2A40108  44.721   3.375   8.354
 3082POPC   C3A40109  44.556   3.265   7.940
 3082POPC   C4A40110  44.403   3.184   7.515
 3082POPC   C1B40111  44.840   3.911   8.869
 3082POPC   C2B40112  44.647   3.870   8.473
 3082POPC   C3B40113  44.618   3.757   8.026
 3082POPC   C4B40114  44.395   3.724   7.633
 3083POPC   NC340115  38.094  25.061   9.439
 3083POPC   PO440116  37.617  25.551   9.563
 3083POPC   GL140117  37.835  25.445   9.197
 3083POPC   GL240118  37.648  25.111   9.162
 3083POPC   C1A40119  38.000  25.260   8.801
 3083POPC   D2A40120  37.803  25.070   8.443
 3083POPC   C3A40121  37.755  25.336   8.102
 3083POPC   C4A40122  37.929  25.389   7.704
 3083POPC   C1B40123  37.411  24.968   8.794
 3083POPC   C2B40124  37.285  25.063   8.333
 3083POPC   C3B40125  37.470  24.965   7.908
 3083POPC   C4B40126  37.478  25.010   7.450
 3084POPC   NC340127  36.983  17.000   9.442
 3084POPC   PO440128  36.694  17.638   9.575
 3084POPC   GL140129  36.993  17.504   9.250
 3084POPC   GL240130  37.197  17.738   9.066
 3084POPC   C1A40131  37.014  17.300   8.851
 3084POPC   D2A40132  36.885  17.418   8.459
 3084POPC   C3A40133  36.948  17.375   8.031
 3084POPC   C4A40134  36.742  17.451   7.650
 3084POPC   C1B40135  37.298  17.670   8.638
 3084POPC   C2B40136  37.202  17.809   8.224
 3084POPC   C3B40137  37.033  17.853   7.809
 3084POPC   C4B40138  37.120  17.688   7.351
 3085POPC   NC340139   2.481  14.861   9.456
 3085POPC   PO440140   3.043  15.174   9.431
 3085POPC   GL140141   2.835  15.022   9.069
 3085POPC   GL240142   2.567  15.209   9.084
 3085POPC   C1A40143   2.767  15.069   8.607
 3085POPC   D2A40144   2.980  15.338   8.316
 3085POPC   C3A40145   2.852  15.400   7.929
 3085POPC   C4A40146   2.833  14.995   7.725
 3085POPC   C1B40147   2.490  15.478   8.788
 3085POPC   C2B40148   2.388  15.415   8.392
 3085POPC   C3B40149   2.479  15.099   8.124
 3085POPC   C4B40150   2.396  15.278   7.741
 3086POPC   NC340151   0.946   7.671   9.384
 3086POPC   PO440152   1.400   7.123   9.511
 3086POPC   GL140153   1.220   7.250   9.122
 3086POPC   GL240154   1.408   6.968   9.019
 3086POPC   C1A40155   1.087   7.489   8.736
 3086POPC   D2A40156   0.960   7.687   8.342
 3086POPC   C3A40157   1.205   7.506   8.033
 3086POPC   C4A40158   1.155   7.314   7.654
 3086POPC   C1B40159   1.409   7.038   8.603
 3086POPC   C2B40160   1.433   7.050   8.149
 3086POPC   C3B40161   1.525   6.934   7.722
 3086POPC   C4B40162   1.471   7.130   7.295
 3087POPC   NC340163  18.282  19.244   9.518
 3087POPC   PO440164  18.453  18.585   9.546
 3087POPC   GL140165  18.236  18.803   9.155
 3087POPC   GL240166  18.051  19.160   9.072
 3087POPC   C1A40167  17.963  18.699   8.822
 3087POPC   D2A40168  18.113  18.778   8.451
 3087POPC   C3A40169  18.091  18.711   8.025
 3087POPC   C4A40170  18.403  18.987   7.888
 3087POPC   C1B40171  18.260  19.255   8.690
 3087POPC   C2B40172  18.272  19.578   8.359
 3087POPC   C3B40173  18.349  19.499   7.943
 3087POPC   C4B40174  18.143  19.536   7.589
 3088POPC   NC340175  19.569  35.141   9.956
 3088POPC   PO440176  19.795  34.625   9.536
 3088POPC   GL140177  19.800  34.573   9.125
 3088POPC   GL240178  20.128  34.599   9.073
 3088POPC   C1A40179  19.571  34.526   8.741
 3088POPC   D2A40180  19.688  34.546   8.308
 3088POPC   C3A40181  19.548  34.523   7.918
 3088POPC   C4A40182  19.872  34.331   7.727
 3088POPC   C1B40183  20.060  34.687   8.642
 3088POPC   C2B40184  19.945  34.988   8.310
 3088POPC   C3B40185  19.997  34.805   7.930
 3088POPC   C4B40186  20.314  34.600   7.721
 3089POPC   NC340187  26.269   3.719   9.544
 3089POPC   PO440188  25.627   3.629   9.776
 3089POPC   GL140189  25.761   3.573   9.301
 3089POPC   GL240190  26.008   3.744   9.101
 3089POPC   C1A40191  25.751   3.332   8.888
 3089POPC   D2A40192  25.996   3.227   8.493
 3089POPC   C3A40193  25.882   3.423   8.086
 3089POPC   C4A40194  26.161   3.520   7.760
 3089POPC   C1B40195  26.331   3.916   8.835
 3089POPC   C2B40196  26.213   3.952   8.364
 3089POPC   C3B40197  26.264   4.001   7.905
 3089POPC   C4B40198  26.201   3.890   7.429
 3090POPC   NC340199  21.160  24.509   9.452
 3090POPC   PO440200  21.789  24.744   9.462
 3090POPC   GL140201  21.545  24.570   9.128
 3090POPC   GL240202  21.526  24.192   9.183
 3090POPC   C1A40203  21.249  24.503   8.780
 3090POPC   D2A40204  20.981  24.576   8.416
 3090POPC   C3A40205  21.239  24.541   8.086
 3090POPC   C4A40206  21.057  24.460   7.710
 3090POPC   C1B40207  21.724  24.248   8.779
 3090POPC   C2B40208  21.801  24.557   8.489
 3090POPC   C3B40209  21.818  24.489   8.036
 3090POPC   C4B40210  21.525  24.260   7.760
 3091POPC   NC340211  16.542  16.661   9.477
 3091POPC   PO440212  17.068  17.137   9.497
 3091POPC   GL140213  16.903  16.869   9.136
 3091POPC   GL240214  16.895  16.488   9.151
 3091POPC   C1A40215  17.026  16.693   8.701
 3091POPC   D2A40216  16.892  16.948   8.371
 3091POPC   C3A40217  16.901  16.819   7.960
 3091POPC   C4A40218  17.075  16.922   7.524
 3091POPC   C1B40219  16.593  16.347   8.810
 3091POPC   C2B40220  16.709  16.366   8.372
 3091POPC   C3B40221  16.556  16.469   7.958
 3091POPC   C4B40222  16.833  16.451   7.607
 3092POPC   NC340223   0.341  32.208   9.450
 3092POPC   PO440224   0.424  32.845   9.561
 3092POPC   GL140225   0.584  32.633   9.196
 3092POPC   GL240226   0.227  32.581   9.117
 3092POPC   C1A40227   0.631  32.410   8.796
 3092POPC   D2A40228   0.501  32.106   8.453
 3092POPC   C3A40229   0.560  32.254   8.016
 3092POPC   C4A40230   0.644  31.995   7.653
 3092POPC   C1B40231   0.125  32.296   8.764
 3092POPC   C2B40232   0.125  32.461   8.353
 3092POPC   C3B40233   0.061  32.297   7.950
 3092POPC   C4B40234   0.134  31.932   7.740
 3093POPC   NC340235  41.127  26.826   9.614
 3093POPC   PO440236  40.615  26.503   9.516
 3093POPC   GL140237  40.789  26.728   9.224
 3093POPC   GL240238  40.649  27.030   9.071
 3093POPC   C1A40239  40.893  26.642   8.818
 3093POPC   D2A40240  40.885  26.831   8.442
 3093POPC   C3A40241  41.011  26.587   8.113
 3093POPC   C4A40242  40.921  26.525   7.709
 3093POPC   C1B40243  40.618  27.270   8.695
 3093POPC   C2B40244  40.749  27.283   8.274
 3093POPC   C3B40245  40.846  27.022   7.924
 3093POPC   C4B40246  41.104  26.994   7.539
 3094POPC   NC340247  36.331  28.261   9.702
 3094POPC   PO440248  35.945  28.631   9.351
 3094POPC   GL140249  36.105  28.242   9.163
 3094POPC   GL240250  36.406  28.151   9.098
 3094POPC   C1A40251  36.059  28.110   8.754
 3094POPC   D2A40252  35.939  28.412   8.514
 3094POPC   C3A40253  36.021  28.384   8.116
 3094POPC   C4A40254  36.162  28.440   7.733
 3094POPC   C1B40255  36.409  28.468   8.730
 3094POPC   C2B40256  36.444  28.601   8.284
 3094POPC   C3B40257  36.611  28.358   7.893
 3094POPC   C4B40258  36.403  28.075   7.496
 3095POPC   NC340259  35.791  23.560   9.466
 3095POPC   PO440260  36.481  23.557   9.435
 3095POPC   GL140261  36.213  23.723   9.139
 3095POPC   GL240262  36.467  23.909   8.972
 3095POPC   C1A40263  35.950  23.589   8.802
 3095POPC   D2A40264  36.014  23.386   8.426
 3095POPC   C3A40265  36.165  23.580   8.056
 3095POPC   C4A40266  36.218  23.566   7.615
 3095POPC   C1B40267  36.378  23.773   8.571
 3095POPC   C2B40268  36.260  24.041   8.240
 3095POPC   C3B40269  36.223  24.049   7.814
 3095POPC   C4B40270  36.298  24.022   7.384
 3096POPC   NC340271  29.684  37.366   9.243
 3096POPC   PO440272  29.656  36.858   9.616
 3096POPC   GL140273  29.837  36.861   9.187
 3096POPC   GL240274  30.176  36.926   9.175
 3096POPC   C1A40275  29.849  36.995   8.735
 3096POPC   D2A40276  29.641  36.784   8.406
 3096POPC   C3A40277  29.820  36.914   8.069
 3096POPC   C4A40278  29.740  36.746   7.711
 3096POPC   C1B40279  30.205  36.661   8.838
 3096POPC   C2B40280  30.202  36.761   8.409
 3096POPC   C3B40281  30.212  36.569   8.013
 3096POPC   C4B40282  30.250  36.817   7.674
 3097POPC   NC340283   8.142   8.384   9.479
 3097POPC   PO440284   8.273   7.624   9.430
 3097POPC   GL140285   8.237   7.954   9.160
 3097POPC   GL240286   7.915   8.087   9.141
 3097POPC   C1A40287   8.257   8.108   8.742
 3097POPC   D2A40288   8.148   7.996   8.317
 3097POPC   C3A40289   8.510   8.116   8.064
 3097POPC   C4A40290   8.275   8.268   7.744
 3097POPC   C1B40291   7.847   8.407   8.817
 3097POPC   C2B40292   7.819   8.396   8.356
 3097POPC   C3B40293   7.908   8.635   7.945
 3097POPC   C4B40294   8.005   8.597   7.491
 3098POPC   NC340295  23.478  30.586   9.500
 3098POPC   PO440296  24.111  30.451   9.327
 3098POPC   GL140297  23.999  30.772   9.068
 3098POPC   GL240298  23.677  30.604   9.018
 3098POPC   C1A40299  23.976  30.754   8.621
 3098POPC   D2A40300  23.669  30.593   8.311
 3098POPC   C3A40301  23.858  30.573   7.899
 3098POPC   C4A40302  24.110  30.933   7.966
 3098POPC   C1B40303  23.485  30.903   8.744
 3098POPC   C2B40304  23.299  31.014   8.334
 3098POPC   C3B40305  23.503  30.944   7.954
 3098POPC   C4B40306  23.363  30.960   7.578
 3099POPC   NC340307  11.551  42.615   9.400
 3099POPC   PO440308  10.972  42.311   9.609
 3099POPC   GL140309  11.190  42.264   9.228
 3099POPC   GL240310  11.299  41.957   9.235
 3099POPC   C1A40311  11.038  42.210   8.782
 3099POPC   D2A40312  11.025  42.516   8.400
 3099POPC   C3A40313  10.929  42.370   7.977
 3099POPC   C4A40314  11.027  42.494   7.516
 3099POPC   C1B40315  11.552  42.030   8.873
 3099POPC   C2B40316  11.464  42.239   8.533
 3099POPC   C3B40317  11.421  42.231   8.155
 3099POPC   C4B40318  11.362  42.208   7.767
 3100POPC   NC340319  43.628  42.014   9.593
 3100POPC   PO440320  43.639  42.655   9.455
 3100POPC   GL140321  43.972  42.547   9.151
 3100POPC   GL240322  44.001  42.179   9.131
 3100POPC   C1A40323  44.070  42.502   8.715
 3100POPC   D2A40324  43.726  42.359   8.421
 3100POPC   C3A40325  43.757  42.462   7.976
 3100POPC   C4A40326  43.601  42.272   7.553
 3100POPC   C1B40327  44.035  41.993   8.681
 3100POPC   C2B40328  44.124  42.105   8.217
 3100POPC   C3B40329  44.016  42.085   7.775
 3100POPC   C4B40330  44.111  42.037   7.307
 3101POPC   NC340331  16.882  41.651   9.583
 3101POPC   PO440332  16.267  41.448   9.410
 3101POPC   GL140333  16.628  41.577   9.151
 3101POPC   GL240334  16.984  41.361   9.163
 3101POPC   C1A40335  16.640  41.516   8.734
 3101POPC   D2A40336  16.396  41.417   8.393
 3101POPC   C3A40337  16.384  41.665   8.011
 3101POPC   C4A40338  16.693  41.674   7.687
 3101POPC   C1B40339  17.150  41.461   8.735
 3101POPC   C2B40340  16.978  41.534   8.335
 3101POPC   C3B40341  16.760  41.288   8.059
 3101POPC   C4B40342  16.761  41.147   7.650
 3102POPC   NC340343  41.650   2.520   9.474
 3102POPC   PO440344  41.227   3.076   9.308
 3102POPC   GL140345  41.579   2.861   9.084
 3102POPC   GL240346  41.412   2.527   9.032
 3102POPC   C1A40347  41.897   2.817   8.734
 3102POPC   D2A40348  42.169   2.711   8.413
 3102POPC   C3A40349  41.909   2.686   8.072
 3102POPC   C4A40350  41.699   2.715   7.691
 3102POPC   C1B40351  41.424   2.726   8.600
 3102POPC   C2B40352  41.388   2.688   8.146
 3102POPC   C3B40353  41.242   2.966   7.800
 3102POPC   C4B40354  41.410   3.044   7.406
 3103POPC   NC340355  44.881  21.648   9.574
 3103POPC   PO440356  44.270  21.407   9.674
 3103POPC   GL140357  44.530  21.399   9.258
 3103POPC   GL240358  44.908  21.410   9.135
 3103POPC   C1A40359  44.530  21.232   8.818
 3103POPC   D2A40360  44.415  21.095   8.373
 3103POPC   C3A40361  44.748  21.021   8.082
 3103POPC   C4A40362  44.687  21.084   7.659
 3103POPC   C1B40363   0.030  21.254   8.734
 3103POPC   C2B40364  44.791  21.450   8.405
 3103POPC   C3B40365  44.744  21.512   7.980
 3103POPC   C4B40366  44.958  21.513   7.582
 3104POPC   NC340367  35.096  22.933   9.748
 3104POPC   PO440368  35.599  22.956   9.283
 3104POPC   GL140369  35.310  22.949   9.008
 3104POPC   GL240370  35.025  22.875   9.190
 3104POPC   C1A40371  35.045  23.201   8.756
 3104POPC   D2A40372  35.097  23.304   8.327
 3104POPC   C3A40373  35.424  23.146   8.067
 3104POPC   C4A40374  35.296  23.255   7.656
 3104POPC   C1B40375  34.954  22.679   8.797
 3104POPC   C2B40376  35.203  22.769   8.458
 3104POPC   C3B40377  35.038  22.818   8.071
 3104POPC   C4B40378  35.206  22.762   7.687
 3105POPC   NC340379   8.465  14.831   9.382
 3105POPC   PO440380   9.156  15.033   9.549
 3105POPC   GL140381   9.202  15.205   9.137
 3105POPC   GL240382   8.818  15.177   9.125
 3105POPC   C1A40383   9.086  15.470   8.792
 3105POPC   D2A40384   8.945  15.273   8.427
 3105POPC   C3A40385   8.982  15.538   8.057
 3105POPC   C4A40386   9.170  15.442   7.647
 3105POPC   C1B40387   8.531  15.320   8.775
 3105POPC   C2B40388   8.472  15.476   8.350
 3105POPC   C3B40389   8.599  15.163   8.066
 3105POPC   C4B40390   8.707  15.244   7.689
 3106POPC   NC340391  40.181  26.392   9.634
 3106POPC   PO440392  39.851  25.875   9.659
 3106POPC   GL140393  39.950  25.905   9.247
 3106POPC   GL240394  39.931  26.238   9.203
 3106POPC   C1A40395  40.157  25.855   8.843
 3106POPC   D2A40396  39.955  25.827   8.436
 3106POPC   C3A40397  40.179  25.988   8.113
 3106POPC   C4A40398  40.015  25.864   7.723
 3106POPC   C1B40399  39.940  26.420   8.810
 3106POPC   C2B40400  40.111  26.424   8.398
 3106POPC   C3B40401  39.994  26.457   7.971
 3106POPC   C4B40402  39.804  26.296   7.611
 3107POPC   NC340403  36.609  32.110   9.676
 3107POPC   PO440404  35.981  32.451   9.561
 3107POPC   GL140405  36.173  32.328   9.152
 3107POPC   GL240406  36.090  32.030   8.982
 3107POPC   C1A40407  36.309  32.441   8.730
 3107POPC   D2A40408  36.479  32.496   8.312
 3107POPC   C3A40409  36.354  32.177   8.030
 3107POPC   C4A40410  36.149  32.307   7.657
 3107POPC   C1B40411  35.786  32.304   8.793
 3107POPC   C2B40412  35.653  32.212   8.386
 3107POPC   C3B40413  35.852  32.013   8.049
 3107POPC   C4B40414  35.771  31.986   7.645
 3108POPC   NC340415  41.786  39.371   9.884
 3108POPC   PO440416  41.459  38.909   9.513
 3108POPC   GL140417  41.682  39.046   9.177
 3108POPC   GL240418  41.757  39.337   9.307
 3108POPC   C1A40419  41.742  39.032   8.736
 3108POPC   D2A40420  41.384  39.202   8.517
 3108POPC   C3A40421  41.474  39.266   8.093
 3108POPC   C4A40422  41.651  39.094   7.712
 3108POPC   C1B40423  41.647  39.502   8.889
 3108POPC   C2B40424  41.866  39.487   8.482
 3108POPC   C3B40425  41.831  39.680   8.063
 3108POPC   C4B40426  41.617  39.581   7.694
 3109POPC   NC340427   3.109  31.836   9.417
 3109POPC   PO440428   2.932  31.260   9.408
 3109POPC   GL140429   2.833  31.258   9.028
 3109POPC   GL240430   3.008  31.577   8.973
 3109POPC   C1A40431   2.607  31.378   8.698
 3109POPC   D2A40432   2.831  31.591   8.402
 3109POPC   C3A40433   2.714  31.413   8.025
 3109POPC   C4A40434   2.478  31.193   7.751
 3109POPC   C1B40435   3.213  31.331   8.650
 3109POPC   C2B40436   3.227  31.323   8.198
 3109POPC   C3B40437   3.139  31.610   7.874
 3109POPC   C4B40438   2.958  31.540   7.488
 3110POPC   NC340439  40.198  23.024   9.838
 3110POPC   PO440440  39.701  22.800   9.503
 3110POPC   GL140441  39.978  22.891   9.142
 3110POPC   GL240442  40.134  22.617   8.963
 3110POPC   C1A40443  40.151  23.098   8.771
 3110POPC   D2A40444  40.390  22.953   8.409
 3110POPC   C3A40445  40.209  23.102   8.015
 3110POPC   C4A40446  40.079  23.148   7.580
 3110POPC   C1B40447  39.858  22.684   8.644
 3110POPC   C2B40448  39.938  22.713   8.212
 3110POPC   C3B40449  40.013  22.653   7.761
 3110POPC   C4B40450  39.736  22.816   7.428
 3111POPC   NC340451  10.193  22.797   9.684
 3111POPC   PO440452  10.710  23.088   9.530
 3111POPC   GL140453  10.559  22.840   9.200
 3111POPC   GL240454  10.851  22.736   9.071
 3111POPC   C1A40455  10.495  22.733   8.747
 3111POPC   D2A40456  10.434  22.898   8.347
 3111POPC   C3A40457  10.669  22.764   8.021
 3111POPC   C4A40458  10.543  22.875   7.647
 3111POPC   C1B40459  10.930  23.030   8.711
 3111POPC   C2B40460  11.014  23.068   8.258
 3111POPC   C3B40461  10.882  23.233   7.834
 3111POPC   C4B40462  10.893  23.127   7.377
 3112POPC   NC340463   2.246  21.530   9.378
 3112POPC   PO440464   1.858  21.031   9.713
 3112POPC   GL140465   1.831  21.198   9.276
 3112POPC   GL240466   1.699  21.543   9.250
 3112POPC   C1A40467   1.846  21.177   8.828
 3112POPC   D2A40468   2.121  21.277   8.466
 3112POPC   C3A40469   1.929  21.330   8.068
 3112POPC   C4A40470   1.996  21.188   7.670
 3112POPC   C1B40471   1.884  21.679   8.838
 3112POPC   C2B40472   1.913  21.781   8.389
 3112POPC   C3B40473   1.993  21.808   7.946
 3112POPC   C4B40474   2.014  21.736   7.523
 3113POPC   NC340475  13.817  15.625   9.436
 3113POPC   PO440476  13.724  16.287   9.406
 3113POPC   GL140477  13.644  15.998   9.079
 3113POPC   GL240478  13.427  15.675   9.104
 3113POPC   C1A40479  13.871  15.972   8.673
 3113POPC   D2A40480  14.094  15.976   8.288
 3113POPC   C3A40481  13.844  16.001   7.918
 3113POPC   C4A40482  13.643  15.937   7.528
 3113POPC   C1B40483  13.316  15.873   8.719
 3113POPC   C2B40484  13.489  15.947   8.306
 3113POPC   C3B40485  13.287  16.152   7.968
 3113POPC   C4B40486  13.148  16.027   7.589
 3114POPC   NC340487  13.430  40.593   9.444
 3114POPC   PO440488  13.915  41.110   9.378
 3114POPC   GL140489  13.722  40.801   9.075
 3114POPC   GL240490  13.455  40.539   8.951
 3114POPC   C1A40491  13.917  40.600   8.725
 3114POPC   D2A40492  13.748  40.699   8.340
 3114POPC   C3A40493  13.996  40.728   7.990
 3114POPC   C4A40494  13.741  40.706   7.644
 3114POPC   C1B40495  13.262  40.914   8.824
 3114POPC   C2B40496  13.232  41.074   8.416
 3114POPC   C3B40497  13.312  40.842   8.024
 3114POPC   C4B40498  13.310  40.991   7.608
 3115POPC   NC340499   6.730   9.401   9.467
 3115POPC   PO440500   6.491  10.120   9.516
 3115POPC   GL140501   6.475   9.811   9.199
 3115POPC   GL240502   6.822   9.675   9.053
 3115POPC   C1A40503   6.498   9.968   8.796
 3115POPC   D2A40504   6.705   9.771   8.486
 3115POPC   C3A40505   6.555   9.868   8.124
 3115POPC   C4A40506   6.705   9.760   7.768
 3115POPC   C1B40507   6.780   9.331   8.718
 3115POPC   C2B40508   6.754   9.328   8.229
 3115POPC   C3B40509   6.808   9.285   7.775
 3115POPC   C4B40510   6.907   9.488   7.361
 3116POPC   NC340511  37.348  34.403   9.530
 3116POPC   PO440512  37.992  34.370   9.457
 3116POPC   GL140513  37.855  34.670   9.158
 3116POPC   GL240514  37.500  34.673   9.133
 3116POPC   C1A40515  37.806  34.663   8.717
 3116POPC   D2A40516  37.821  34.495   8.301
 3116POPC   C3A40517  37.717  34.836   7.968
 3116POPC   C4A40518  37.501  34.900   7.570
 3116POPC   C1B40519  37.357  34.374   8.814
 3116POPC   C2B40520  37.302  34.255   8.361
 3116POPC   C3B40521  37.495  34.348   7.937
 3116POPC   C4B40522  37.302  34.425   7.514
 3117POPC   NC340523   6.206  15.477   9.377
 3117POPC   PO440524   5.655  15.073   9.529
 3117POPC   GL140525   5.839  14.952   9.142
 3117POPC   GL240526   6.230  14.921   9.127
 3117POPC   C1A40527   5.660  15.055   8.704
 3117POPC   D2A40528   5.385  15.121   8.308
 3117POPC   C3A40529   5.630  15.117   7.912
 3117POPC   C4A40530   5.950  15.460   7.828
 3117POPC   C1B40531   6.369  15.245   8.799
 3117POPC   C2B40532   6.161  15.411   8.432
 3117POPC   C3B40533   6.082  15.082   8.161
 3117POPC   C4B40534   6.301  14.941   7.818
 3118POPC   NC340535   3.718  27.864   9.407
 3118POPC   PO440536   3.293  27.251   9.439
 3118POPC   GL140537   3.502  27.508   9.099
 3118POPC   GL240538   3.370  27.878   9.026
 3118POPC   C1A40539   3.665  27.349   8.706
 3118POPC   D2A40540   3.489  27.231   8.300
 3118POPC   C3A40541   3.784  27.381   8.021
 3118POPC   C4A40542   3.754  27.573   7.623
 3118POPC   C1B40543   3.604  27.879   8.643
 3118POPC   C2B40544   3.667  27.875   8.190
 3118POPC   C3B40545   3.342  27.650   7.972
 3118POPC   C4B40546   3.215  27.597   7.563
 3119POPC   NC340547  21.080  14.293   9.758
 3119POPC   PO440548  21.650  14.654   9.531
 3119POPC   GL140549  21.401  14.337   9.269
 3119POPC   GL240550  21.265  14.597   9.112
 3119POPC   C1A40551  21.281  14.183   8.808
 3119POPC   D2A40552  21.453  14.223   8.371
 3119POPC   C3A40553  21.652  14.348   7.990
 3119POPC   C4A40554  21.515  14.235   7.566
 3119POPC   C1B40555  21.453  14.634   8.690
 3119POPC   C2B40556  21.324  14.729   8.237
 3119POPC   C3B40557  21.348  14.683   7.725
 3119POPC   C4B40558  21.267  14.805   7.279
 3120POPC   NC340559   8.944  22.469   9.906
 3120POPC   PO440560   8.551  22.039   9.532
 3120POPC   GL140561   8.841  22.154   9.217
 3120POPC   GL240562   9.044  21.911   9.122
 3120POPC   C1A40563   8.954  22.326   8.801
 3120POPC   D2A40564   8.915  22.125   8.410
 3120POPC   C3A40565   9.043  22.317   8.047
 3120POPC   C4A40566   8.784  22.202   7.724
 3120POPC   C1B40567   8.791  21.759   8.760
 3120POPC   C2B40568   8.643  21.594   8.352
 3120POPC   C3B40569   8.656  21.759   7.942
 3120POPC   C4B40570   9.086  21.794   7.733
 3121POPC   NC340571  10.246  39.737   9.540
 3121POPC   PO440572  10.361  40.447   9.560
 3121POPC   GL140573  10.364  40.260   9.155
 3121POPC   GL240574  10.666  40.074   9.138
 3121POPC   C1A40575  10.219  40.025   8.744
 3121POPC   D2A40576   9.997  39.905   8.321
 3121POPC   C3A40577  10.162  40.026   7.891
 3121POPC   C4A40578  10.177  39.958   7.410
 3121POPC   C1B40579  10.639  40.325   8.734
 3121POPC   C2B40580  10.529  40.175   8.319
 3121POPC   C3B40581  10.566  40.342   7.914
 3121POPC   C4B40582  10.617  40.162   7.507
 3122POPC   NC340583   6.261  40.051   9.410
 3122POPC   PO440584   5.579  40.091   9.380
 3122POPC   GL140585   5.852  40.070   9.029
 3122POPC   GL240586   5.629  40.304   8.923
 3122POPC   C1A40587   6.088  40.061   8.617
 3122POPC   D2A40588   6.215  40.160   8.187
 3122POPC   C3A40589   5.981  40.110   7.774
 3122POPC   C4A40590   6.138  40.140   7.312
 3122POPC   C1B40591   5.590  40.148   8.550
 3122POPC   C2B40592   5.707  40.321   8.153
 3122POPC   C3B40593   5.432  40.476   7.857
 3122POPC   C4B40594   5.363  40.379   7.436
 3123POPC   NC340595  35.958   1.809   9.167
 3123POPC   PO440596  36.094   1.236   9.538
 3123POPC   GL140597  36.086   1.181   9.123
 3123POPC   GL240598  36.325   1.437   9.096
 3123POPC   C1A40599  35.889   1.340   8.744
 3123POPC   D2A40600  35.982   1.475   8.324
 3123POPC   C3A40601  36.251   1.195   8.128
 3123POPC   C4A40602  35.901   1.160   7.841
 3123POPC   C1B40603  36.335   1.612   8.665
 3123POPC   C2B40604  36.479   1.661   8.212
 3123POPC   C3B40605  36.304   1.538   7.766
 3123POPC   C4B40606  36.454   1.408   7.302
 3124POPC   NC340607  13.973   1.876   9.467
 3124POPC   PO440608  14.628   1.745   9.438
 3124POPC   GL140609  14.358   1.923   9.129
 3124POPC   GL240610  14.254   2.281   9.232
 3124POPC   C1A40611  14.349   1.878   8.689
 3124POPC   D2A40612  14.536   2.070   8.329
 3124POPC   C3A40613  14.283   1.896   8.021
 3124POPC   C4A40614  14.328   1.772   7.618
 3124POPC   C1B40615  14.428   2.355   8.828
 3124POPC   C2B40616  14.598   2.558   8.477
 3124POPC   C3B40617  14.550   2.540   8.061
 3124POPC   C4B40618  14.494   2.250   7.717
 3125POPC   NC340619  29.227  11.143   5.297
 3125POPC   PO440620  29.016  11.741   5.469
 3125POPC   GL140621  29.295  11.551   5.725
 3125POPC   GL240622  29.115  11.249   5.787
 3125POPC   C1A40623  29.265  11.651   6.188
 3125POPC   D2A40624  29.226  11.348   6.534
 3125POPC   C3A40625  29.015  11.383   6.950
 3125POPC   C4A40626  28.948  11.300   7.409
 3125POPC   C1B40627  29.458  11.189   6.075
 3125POPC   C2B40628  29.598  10.978   6.434
 3125POPC   C3B40629  29.408  10.974   6.820
 3125POPC   C4B40630  29.452  11.189   7.174
 3126POPC   NC340631  12.824   6.279   5.365
 3126POPC   PO440632  13.149   6.825   5.541
 3126POPC   GL140633  12.762   6.676   5.791
 3126POPC   GL240634  12.588   6.343   5.813
 3126POPC   C1A40635  12.590   6.722   6.215
 3126POPC   D2A40636  12.755   6.542   6.602
 3126POPC   C3A40637  12.625   6.627   7.012
 3126POPC   C4A40638  12.991   6.798   7.229
 3126POPC   C1B40639  12.881   6.308   6.157
 3126POPC   C2B40640  13.187   6.300   6.493
 3126POPC   C3B40641  13.152   6.417   6.911
 3126POPC   C4B40642  12.855   6.194   7.131
 3127POPC   NC340643   5.536  26.719   5.250
 3127POPC   PO440644   6.209  26.928   5.174
 3127POPC   GL140645   5.954  26.760   5.557
 3127POPC   GL240646   6.206  26.598   5.765
 3127POPC   C1A40647   5.759  26.703   5.990
 3127POPC   D2A40648   5.782  26.811   6.432
 3127POPC   C3A40649   5.623  26.710   6.845
 3127POPC   C4A40650   5.635  26.917   7.247
 3127POPC   C1B40651   6.241  26.761   6.183
 3127POPC   C2B40652   6.253  27.008   6.559
 3127POPC   C3B40653   6.118  26.822   6.918
 3127POPC   C4B40654   6.146  26.901   7.339
 3128POPC   NC340655  36.823  25.913   5.182
 3128POPC   PO440656  36.318  25.600   5.377
 3128POPC   GL140657  36.642  25.852   5.683
 3128POPC   GL240658  36.807  25.613   5.876
 3128POPC   C1A40659  36.883  26.068   6.085
 3128POPC   D2A40660  37.204  25.993   6.425
 3128POPC   C3A40661  37.076  25.936   6.845
 3128POPC   C4A40662  36.906  26.037   7.229
 3128POPC   C1B40663  36.658  25.648   6.275
 3128POPC   C2B40664  36.591  25.722   6.698
 3128POPC   C3B40665  36.740  25.580   7.090
 3128POPC   C4B40666  36.811  25.648   7.560
 3129POPC   NC340667  11.823   1.300   5.333
 3129POPC   PO440668  12.463   1.325   5.280
 3129POPC   GL140669  12.193   1.252   5.708
 3129POPC   GL240670  11.870   1.105   5.867
 3129POPC   C1A40671  12.084   1.494   6.112
 3129POPC   D2A40672  11.999   1.512   6.555
 3129POPC   C3A40673  12.290   1.471   6.878
 3129POPC   C4A40674  12.171   1.196   7.185
 3129POPC   C1B40675  12.188   1.010   6.227
 3129POPC   C2B40676  12.286   0.984   6.696
 3129POPC   C3B40677  12.497   0.814   7.092
 3129POPC   C4B40678  12.310   0.862   7.523
 3130POPC   NC340679  39.681  17.767   5.127
 3130POPC   PO440680  40.052  17.220   5.254
 3130POPC   GL140681  39.983  17.466   5.687
 3130POPC   GL240682  39.668  17.558   5.933
 3130POPC   C1A40683  40.128  17.500   6.119
 3130POPC   D2A40684  40.222  17.681   6.512
 3130POPC   C3A40685  39.992  17.486   6.857
 3130POPC   C4A40686  39.849  17.392   7.251
 3130POPC   C1B40687  39.816  17.887   6.263
 3130POPC   C2B40688  39.786  17.925   6.712
 3130POPC   C3B40689  39.705  17.866   7.155
 3130POPC   C4B40690  39.682  17.767   7.622
 3131POPC   NC340691  12.684  34.035   5.336
 3131POPC   PO440692  12.988  33.426   5.329
 3131POPC   GL140693  12.986  33.714   5.696
 3131POPC   GL240694  12.651  33.707   5.755
 3131POPC   C1A40695  12.934  33.913   6.152
 3131POPC   D2A40696  12.828  33.796   6.603
 3131POPC   C3A40697  13.183  33.854   6.914
 3131POPC   C4A40698  13.216  33.892   7.373
 3131POPC   C1B40699  12.442  33.752   6.158
 3131POPC   C2B40700  12.386  33.532   6.551
 3131POPC   C3B40701  12.401  33.646   6.972
 3131POPC   C4B40702  12.749  33.817   7.174
 3132POPC   NC340703  31.395  15.799   5.467
 3132POPC   PO440704  31.130  16.356   5.470
 3132POPC   GL140705  31.385  16.183   5.824
 3132POPC   GL240706  31.729  15.998   5.836
 3132POPC   C1A40707  31.474  16.140   6.279
 3132POPC   D2A40708  31.679  15.953   6.632
 3132POPC   C3A40709  31.538  16.073   7.047
 3132POPC   C4A40710  31.537  16.168   7.482
 3132POPC   C1B40711  31.610  15.646   6.162
 3132POPC   C2B40712  31.344  15.571   6.558
 3132POPC   C3B40713  31.541  15.568   6.975
 3132POPC   C4B40714  31.483  15.653   7.420
 3133POPC   NC340715  43.259  29.891   5.363
 3133POPC   PO440716  42.710  29.457   5.413
 3133POPC   GL140717  42.870  29.840   5.719
 3133POPC   GL240718  43.241  29.838   5.862
 3133POPC   C1A40719  42.882  30.041   6.151
 3133POPC   D2A40720  42.939  29.845   6.535
 3133POPC   C3A40721  43.038  30.049   6.923
 3133POPC   C4A40722  42.968  29.822   7.303
 3133POPC   C1B40723  43.427  30.041   6.207
 3133POPC   C2B40724  43.433  29.900   6.608
 3133POPC   C3B40725  43.287  29.612   6.921
 3133POPC   C4B40726  43.463  29.930   7.206
 3134POPC   NC340727  44.017  37.424   5.451
 3134POPC   PO440728  43.615  38.028   5.466
 3134POPC   GL140729  43.783  37.756   5.795
 3134POPC   GL240730  44.141  37.786   5.797
 3134POPC   C1A40731  43.684  37.628   6.205
 3134POPC   D2A40732  43.773  37.557   6.617
 3134POPC   C3A40733  43.692  37.789   6.976
 3134POPC   C4A40734  44.002  37.673   7.242
 3134POPC   C1B40735  44.091  37.982   6.207
 3134POPC   C2B40736  44.254  38.202   6.592
 3134POPC   C3B40737  44.255  38.089   7.039
 3134POPC   C4B40738  43.917  38.149   7.330
 3135POPC   NC340739  44.914  11.257   5.386
 3135POPC   PO440740  44.407  11.634   5.136
 3135POPC   GL140741  44.488  11.520   5.626
 3135POPC   GL240742  44.516  11.791   5.848
 3135POPC   C1A40743  44.633  11.324   6.090
 3135POPC   D2A40744  44.734  11.098   6.549
 3135POPC   C3A40745  44.494  11.123   6.971
 3135POPC   C4A40746  44.433  11.076   7.461
 3135POPC   C1B40747  44.342  11.719   6.227
 3135POPC   C2B40748  44.551  11.564   6.559
 3135POPC   C3B40749  44.765  11.575   6.947
 3135POPC   C4B40750  44.581  11.569   7.349
 3136POPC   NC340751  36.531  26.746   5.532
 3136POPC   PO440752  37.049  26.280   5.437
 3136POPC   GL140753  37.031  26.612   5.798
 3136POPC   GL240754  36.765  26.856   5.955
 3136POPC   C1A40755  37.148  26.776   6.250
 3136POPC   D2A40756  36.802  26.938   6.503
 3136POPC   C3A40757  36.907  27.063   6.882
 3136POPC   C4A40758  37.206  26.874   7.152
 3136POPC   C1B40759  36.695  26.519   6.224
 3136POPC   C2B40760  36.940  26.416   6.598
 3136POPC   C3B40761  36.837  26.547   7.015
 3136POPC   C4B40762  36.588  26.429   7.333
 3137POPC   NC340763  16.256   3.698   5.647
 3137POPC   PO440764  15.752   3.524   5.136
 3137POPC   GL140765  15.948   3.301   5.681
 3137POPC   GL240766  15.852   3.569   6.007
 3137POPC   C1A40767  16.155   3.229   6.157
 3137POPC   D2A40768  15.896   3.471   6.523
 3137POPC   C3A40769  15.776   3.299   6.922
 3137POPC   C4A40770  16.077   3.081   7.136
 3137POPC   C1B40771  16.180   3.810   6.270
 3137POPC   C2B40772  16.242   3.841   6.680
 3137POPC   C3B40773  16.212   3.577   6.998
 3137POPC   C4B40774  16.296   3.853   7.317
 3138POPC   NC340775  13.433  40.272   5.456
 3138POPC   PO440776  13.596  39.611   5.520
 3138POPC   GL140777  13.735  39.958   5.865
 3138POPC   GL240778  13.603  40.307   5.918
 3138POPC   C1A40779  13.618  40.046   6.332
 3138POPC   D2A40780  13.295  39.820   6.529
 3138POPC   C3A40781  13.404  39.703   6.931
 3138POPC   C4A40782  13.392  39.946   7.279
 3138POPC   C1B40783  13.969  40.399   6.170
 3138POPC   C2B40784  13.998  40.573   6.542
 3138POPC   C3B40785  13.796  40.501   6.895
 3138POPC   C4B40786  13.723  40.334   7.291
 3139POPC   NC340787  25.051  31.612   5.432
 3139POPC   PO440788  25.323  31.092   5.288
 3139POPC   GL140789  25.359  31.300   5.730
 3139POPC   GL240790  25.431  31.674   5.763
 3139POPC   C1A40791  25.293  31.277   6.210
 3139POPC   D2A40792  25.211  31.039   6.626
 3139POPC   C3A40793  25.098  31.236   7.010
 3139POPC   C4A40794  25.404  31.358   7.297
 3139POPC   C1B40795  25.224  31.805   6.133
 3139POPC   C2B40796  25.046  31.708   6.530
 3139POPC   C3B40797  25.209  31.726   6.938
 3139POPC   C4B40798  25.008  31.670   7.319
 3140POPC   NC340799   0.817  17.499   5.497
 3140POPC   PO440800   1.096  16.987   5.602
 3140POPC   GL140801   1.347  17.332   5.793
 3140POPC   GL240802   1.255  17.698   5.729
 3140POPC   C1A40803   1.417  17.426   6.237
 3140POPC   D2A40804   1.314  17.213   6.621
 3140POPC   C3A40805   1.365  17.437   7.003
 3140POPC   C4A40806   1.111  17.282   7.337
 3140POPC   C1B40807   0.974  17.670   6.117
 3140POPC   C2B40808   1.001  17.625   6.563
 3140POPC   C3B40809   1.019  17.816   6.969
 3140POPC   C4B40810   1.064  18.013   7.341
 3141POPC   NC340811  43.819  29.267   5.229
 3141POPC   PO440812  43.985  28.674   5.509
 3141POPC   GL140813  43.865  29.047   5.705
 3141POPC   GL240814  44.036  29.385   5.691
 3141POPC   C1A40815  43.723  29.107   6.119
 3141POPC   D2A40816  43.895  28.953   6.514
 3141POPC   C3A40817  43.629  29.031   6.871
 3141POPC   C4A40818  43.775  28.921   7.265
 3141POPC   C1B40819  44.229  29.253   6.103
 3141POPC   C2B40820  44.235  29.383   6.554
 3141POPC   C3B40821  44.071  29.276   6.991
 3141POPC   C4B40822  44.057  29.273   7.468
 3142POPC   NC340823  13.697  21.941   5.461
 3142POPC   PO440824  13.365  22.554   5.323
 3142POPC   GL140825  13.518  22.361   5.677
 3142POPC   GL240826  13.298  22.072   5.769
 3142POPC   C1A40827  13.601  22.483   6.090
 3142POPC   D2A40828  13.656  22.313   6.521
 3142POPC   C3A40829  13.614  22.505   6.926
 3142POPC   C4A40830  13.956  22.379   7.199
 3142POPC   C1B40831  13.537  21.959   6.158
 3142POPC   C2B40832  13.462  21.827   6.609
 3142POPC   C3B40833  13.629  21.973   7.034
 3142POPC   C4B40834  13.517  21.894   7.483
 3143POPC   NC340835   8.679  27.293   5.556
 3143POPC   PO440836   9.261  27.731   5.407
 3143POPC   GL140837   8.989  27.674   5.735
 3143POPC   GL240838   8.779  27.962   5.767
 3143POPC   C1A40839   9.083  27.640   6.161
 3143POPC   D2A40840   8.914  27.714   6.563
 3143POPC   C3A40841   9.037  27.532   6.922
 3143POPC   C4A40842   8.782  27.220   7.139
 3143POPC   C1B40843   8.840  28.105   6.186
 3143POPC   C2B40844   9.085  28.171   6.590
 3143POPC   C3B40845   8.892  28.062   6.980
 3143POPC   C4B40846   9.087  27.950   7.365
 3144POPC   NC340847  39.523  15.221   5.644
 3144POPC   PO440848  40.188  15.027   5.463
 3144POPC   GL140849  40.040  15.329   5.728
 3144POPC   GL240850  40.343  15.450   5.793
 3144POPC   C1A40851  39.937  15.406   6.166
 3144POPC   D2A40852  39.755  15.182   6.475
 3144POPC   C3A40853  39.924  15.280   6.843
 3144POPC   C4A40854  39.831  15.057   7.216
 3144POPC   C1B40855  40.411  15.168   6.153
 3144POPC   C2B40856  40.375  15.169   6.603
 3144POPC   C3B40857  40.282  14.952   7.000
 3144POPC   C4B40858  40.257  15.069   7.454
 3145POPC   NC340859  21.826   2.432   5.398
 3145POPC   PO440860  22.228   2.944   5.344
 3145POPC   GL140861  22.165   2.766   5.779
 3145POPC   GL240862  21.834   2.659   5.859
 3145POPC   C1A40863  22.079   2.932   6.232
 3145POPC   D2A40864  21.772   3.047   6.587
 3145POPC   C3A40865  22.009   3.094   6.990
 3145POPC   C4A40866  22.258   2.821   7.249
 3145POPC   C1B40867  22.021   2.415   6.217
 3145POPC   C2B40868  21.987   2.561   6.650
 3145POPC   C3B40869  21.726   2.673   7.008
 3145POPC   C4B40870  21.814   2.647   7.449
 3146POPC   NC340871  24.755  20.846   5.529
 3146POPC   PO440872  24.155  20.621   5.515
 3146POPC   GL140873  24.478  20.548   5.859
 3146POPC   GL240874  24.550  20.875   6.009
 3146POPC   C1A40875  24.856  20.414   6.141
 3146POPC   D2A40876  25.001  20.357   6.586
 3146POPC   C3A40877  24.680  20.582   6.834
 3146POPC   C4A40878  24.651  20.763   7.236
 3146POPC   C1B40879  24.118  20.795   6.169
 3146POPC   C2B40880  24.040  20.485   6.505
 3146POPC   C3B40881  24.116  20.397   6.919
 3146POPC   C4B40882  24.094  20.780   7.153
 3147POPC   NC340883  42.872  29.033   5.445
 3147POPC   PO440884  43.542  28.901   5.253
 3147POPC   GL140885  43.345  29.046   5.679
 3147POPC   GL240886  43.161  29.363   5.717
 3147POPC   C1A40887  43.169  28.995   6.131
 3147POPC   D2A40888  42.922  28.865   6.528
 3147POPC   C3A40889  43.046  29.074   6.914
 3147POPC   C4A40890  43.282  28.962   7.267
 3147POPC   C1B40891  42.872  29.457   6.081
 3147POPC   C2B40892  42.762  29.359   6.525
 3147POPC   C3B40893  42.719  29.528   6.934
 3147POPC   C4B40894  42.795  29.343   7.313
 3148POPC   NC340895  27.154   0.455   5.435
 3148POPC   PO440896  26.625  44.979   5.279
 3148POPC   GL140897  26.601   0.165   5.757
 3148POPC   GL240898  26.777   0.472   5.833
 3148POPC   C1A40899  26.722   0.146   6.235
 3148POPC   D2A40900  26.750   0.379   6.620
 3148POPC   C3A40901  26.566   0.403   7.030
 3148POPC   C4A40902  26.685   0.319   7.469
 3148POPC   C1B40903  26.958   0.654   6.231
 3148POPC   C2B40904  27.210   0.603   6.624
 3148POPC   C3B40905  27.075   0.491   7.043
 3148POPC   C4B40906  26.832   0.776   7.279
 3149POPC   NC340907  11.815   7.662   5.552
 3149POPC   PO440908  12.229   7.212   5.497
 3149POPC   GL140909  12.053   7.351   5.900
 3149POPC   GL240910  12.204   7.687   5.950
 3149POPC   C1A40911  12.038   7.445   6.347
 3149POPC   D2A40912  12.184   7.768   6.578
 3149POPC   C3A40913  12.289   7.521   6.944
 3149POPC   C4A40914  11.954   7.367   7.177
 3149POPC   C1B40915  11.811   7.858   6.165
 3149POPC   C2B40916  11.611   7.746   6.532
 3149POPC   C3B40917  11.802   7.764   6.905
 3149POPC   C4B40918  11.704   7.796   7.312
 3150POPC   NC340919   4.792  10.966   5.555
 3150POPC   PO440920   5.439  11.043   5.568
 3150POPC   GL140921   5.126  11.278   5.820
 3150POPC   GL240922   5.336  11.555   5.861
 3150POPC   C1A40923   4.838  11.160   6.207
 3150POPC   D2A40924   4.671  11.352   6.589
 3150POPC   C3A40925   4.777  11.144   6.963
 3150POPC   C4A40926   5.100  11.056   7.233
 3150POPC   C1B40927   5.253  11.439   6.295
 3150POPC   C2B40928   5.206  11.307   6.722
 3150POPC   C3B40929   5.110  11.531   7.097
 3150POPC   C4B40930   5.364  11.487   7.477
 3151POPC   NC340931   8.252  21.696   5.436
 3151POPC   PO440932   8.361  20.933   5.393
 3151POPC   GL140933   8.464  21.249   5.726
 3151POPC   GL240934   8.108  21.350   5.808
 3151POPC   C1A40935   8.482  21.495   6.148
 3151POPC   D2A40936   8.197  21.664   6.488
 3151POPC   C3A40937   8.134  21.474   6.875
 3151POPC   C4A40938   8.302  21.401   7.267
 3151POPC   C1B40939   8.032  21.210   6.242
 3151POPC   C2B40940   7.973  21.037   6.670
 3151POPC   C3B40941   7.951  21.054   7.133
 3151POPC   C4B40942   7.969  21.115   7.576
 3152POPC   NC340943  32.628   3.098   5.525
 3152POPC   PO440944  33.217   2.684   5.524
 3152POPC   GL140945  33.022   2.940   5.845
 3152POPC   GL240946  33.267   3.140   5.969
 3152POPC   C1A40947  32.930   2.890   6.305
 3152POPC   D2A40948  32.618   2.694   6.597
 3152POPC   C3A40949  32.764   2.709   7.032
 3152POPC   C4A40950  32.668   3.153   7.151
 3152POPC   C1B40951  33.509   2.891   6.223
 3152POPC   C2B40952  33.396   2.667   6.588
 3152POPC   C3B40953  33.267   2.827   7.005
 3152POPC   C4B40954  33.501   3.124   7.256
 3153POPC   NC340955  13.272  12.654   5.358
 3153POPC   PO440956  13.897  12.887   5.122
 3153POPC   GL140957  13.724  12.958   5.604
 3153POPC   GL240958  13.623  12.635   5.740
 3153POPC   C1A40959  13.748  12.951   6.094
 3153POPC   D2A40960  13.658  12.977   6.548
 3153POPC   C3A40961  13.892  12.896   6.932
 3153POPC   C4A40962  13.992  12.675   7.310
 3153POPC   C1B40963  13.569  12.450   6.169
 3153POPC   C2B40964  13.277  12.583   6.477
 3153POPC   C3B40965  13.331  12.722   6.892
 3153POPC   C4B40966  13.456  12.516   7.266
 3154POPC   NC340967  12.976   4.794   5.344
 3154POPC   PO440968  12.616   4.227   5.135
 3154POPC   GL140969  12.565   4.343   5.637
 3154POPC   GL240970  12.535   4.058   5.903
 3154POPC   C1A40971  12.763   4.496   6.076
 3154POPC   D2A40972  12.943   4.420   6.512
 3154POPC   C3A40973  12.735   4.530   6.911
 3154POPC   C4A40974  13.045   4.518   7.227
 3154POPC   C1B40975  12.728   3.988   6.287
 3154POPC   C2B40976  12.556   4.083   6.685
 3154POPC   C3B40977  12.700   4.022   7.083
 3154POPC   C4B40978  12.619   4.275   7.408
 3155POPC   NC340979  41.356  13.857   5.122
 3155POPC   PO440980  41.890  13.549   5.455
 3155POPC   GL140981  41.842  13.770   5.834
 3155POPC   GL240982  41.498  13.735   5.880
 3155POPC   C1A40983  41.847  13.643   6.268
 3155POPC   D2A40984  41.582  13.341   6.522
 3155POPC   C3A40985  41.584  13.484   6.940
 3155POPC   C4A40986  41.884  13.794   7.102
 3155POPC   C1B40987  41.490  14.060   6.212
 3155POPC   C2B40988  41.358  14.228   6.611
 3155POPC   C3B40989  41.164  14.025   6.962
 3155POPC   C4B40990  41.389  13.800   7.295
 3156POPC   NC340991  34.399   2.746   5.349
 3156POPC   PO440992  35.068   2.879   5.293
 3156POPC   GL140993  34.796   2.755   5.728
 3156POPC   GL240994  34.468   2.921   5.826
 3156POPC   C1A40995  34.788   2.826   6.194
 3156POPC   D2A40996  34.420   2.924   6.429
 3156POPC   C3A40997  34.484   3.050   6.870
 3156POPC   C4A40998  34.477   2.927   7.324
 3156POPC   C1B40999  34.409   2.519   6.018
 3156POPC   C2B41000  34.367   2.392   6.450
 3156POPC   C3B41001  34.499   2.518   6.866
 3156POPC   C4B41002  34.278   2.433   7.236
 3157POPC   NC341003  44.231  12.869   5.579
 3157POPC   PO441004  43.568  12.777   5.533
 3157POPC   GL141005  43.803  12.810   5.874
 3157POPC   GL241006  44.082  12.552   5.932
 3157POPC   C1A41007  43.715  13.131   6.185
 3157POPC   D2A41008  43.797  13.141   6.584
 3157POPC   C3A41009  43.624  12.840   6.831
 3157POPC   C4A41010  43.598  12.837   7.263
 3157POPC   C1B41011  43.943  12.679   6.338
 3157POPC   C2B41012  44.124  12.760   6.713
 3157POPC   C3B41013  44.004  12.584   7.066
 3157POPC   C4B41014  44.228  12.467   7.370
 3158POPC   NC341015   0.834  29.901   5.297
 3158POPC   PO441016   1.483  30.095   5.543
 3158POPC   GL141017   1.315  30.005   5.909
 3158POPC   GL241018   1.028  29.863   5.778
 3158POPC   C1A41019   1.042  30.114   6.239
 3158POPC   D2A41020   0.905  30.050   6.654
 3158POPC   C3A41021   1.250  29.846   6.914
 3158POPC   C4A41022   1.647  29.642   7.044
 3158POPC   C1B41023   0.807  29.663   6.121
 3158POPC   C2B41024   0.793  29.418   6.525
 3158POPC   C3B41025   0.765  29.648   6.920
 3158POPC   C4B41026   0.917  29.794   7.317
 3159POPC   NC341027  41.082  36.643   5.347
 3159POPC   PO441028  41.718  36.766   5.358
 3159POPC   GL141029  41.546  36.712   5.747
 3159POPC   GL241030  41.347  36.954   5.686
 3159POPC   C1A41031  41.581  36.561   6.185
 3159POPC   D2A41032  41.767  36.809   6.539
 3159POPC   C3A41033  41.572  36.779   6.934
 3159POPC   C4A41034  41.643  36.515   7.266
 3159POPC   C1B41035  41.513  37.058   6.106
 3159POPC   C2B41036  41.480  37.234   6.498
 3159POPC   C3B41037  41.683  37.298   6.883
 3159POPC   C4B41038  41.492  37.179   7.255
 3160POPC   NC341039  22.563  12.960   5.539
 3160POPC   PO441040  23.248  12.768   5.449
 3160POPC   GL141041  23.093  12.999   5.876
 3160POPC   GL241042  22.753  13.152   5.963
 3160POPC   C1A41043  23.117  13.090   6.354
 3160POPC   D2A41044  23.319  12.901   6.757
 3160POPC   C3A41045  23.111  12.981   7.192
 3160POPC   C4A41046  23.050  13.166   7.628
 3160POPC   C1B41047  22.739  12.761   6.212
 3160POPC   C2B41048  22.832  12.766   6.651
 3160POPC   C3B41049  22.637  12.777   7.040
 3160POPC   C4B41050  22.638  12.922   7.448
 3161POPC   NC341051  29.941  13.277   5.388
 3161POPC   PO441052  29.867  13.949   5.372
 3161POPC   GL141053  29.821  13.710   5.774
 3161POPC   GL241054  29.915  13.345   5.888
 3161POPC   C1A41055  29.866  13.827   6.202
 3161POPC   D2A41056  29.678  13.695   6.572
 3161POPC   C3A41057  29.707  13.827   6.964
 3161POPC   C4A41058  30.061  13.800   7.162
 3161POPC   C1B41059  29.749  13.279   6.298
 3161POPC   C2B41060  29.648  13.219   6.741
 3161POPC   C3B41061  29.862  13.307   7.124
 3161POPC   C4B41062  29.637  13.582   7.417
 3162POPC   NC341063  39.332  15.763   5.218
 3162POPC   PO441064  38.814  16.166   5.379
 3162POPC   GL141065  38.944  16.145   5.791
 3162POPC   GL241066  39.226  15.860   5.787
 3162POPC   C1A41067  38.923  16.036   6.220
 3162POPC   D2A41068  39.221  16.070   6.532
 3162POPC   C3A41069  39.203  15.953   6.945
 3162POPC   C4A41070  39.492  16.125   7.243
 3162POPC   C1B41071  39.378  15.675   6.183
 3162POPC   C2B41072  39.407  15.544   6.618
 3162POPC   C3B41073  39.545  15.588   7.027
 3162POPC   C4B41074  39.530  15.665   7.466
 3163POPC   NC341075  16.668  19.859   5.395
 3163POPC   PO441076  17.305  19.833   5.358
 3163POPC   GL141077  17.007  19.749   5.748
 3163POPC   GL241078  16.620  19.618   5.834
 3163POPC   C1A41079  16.893  19.918   6.176
 3163POPC   D2A41080  16.928  19.714   6.581
 3163POPC   C3A41081  16.793  19.864   6.957
 3163POPC   C4A41082  17.000  20.114   7.236
 3163POPC   C1B41083  16.685  19.418   6.238
 3163POPC   C2B41084  16.744  19.230   6.670
 3163POPC   C3B41085  16.666  19.383   7.105
 3163POPC   C4B41086  16.341  19.529   7.446
 3164POPC   NC341087  15.138  28.601   5.398
 3164POPC   PO441088  14.956  27.915   5.484
 3164POPC   GL141089  15.168  28.238   5.762
 3164POPC   GL241090  14.985  28.601   5.868
 3164POPC   C1A41091  15.252  28.327   6.184
 3164POPC   D2A41092  15.008  28.575   6.407
 3164POPC   C3A41093  15.190  28.617   6.789
 3164POPC   C4A41094  15.286  28.331   7.124
 3164POPC   C1B41095  14.740  28.266   6.071
 3164POPC   C2B41096  14.653  28.175   6.501
 3164POPC   C3B41097  14.686  28.504   6.823
 3164POPC   C4B41098  14.873  28.577   7.205
 3165POPC   NC341099  32.100  25.348   5.384
 3165POPC   PO441100  32.659  24.964   5.548
 3165POPC   GL141101  32.544  25.383   5.791
 3165POPC   GL241102  32.186  25.331   5.873
 3165POPC   C1A41103  32.395  25.600   6.225
 3165POPC   D2A41104  32.112  25.435   6.558
 3165POPC   C3A41105  32.369  25.504   6.938
 3165POPC   C4A41106  32.335  25.323   7.349
 3165POPC   C1B41107  31.973  25.094   6.172
 3165POPC   C2B41108  32.029  24.861   6.551
 3165POPC   C3B41109  31.797  24.857   6.941
 3165POPC   C4B41110  31.874  25.130   7.274
 3166POPC   NC341111  34.058  11.369   5.595
 3166POPC   PO441112  33.558  11.135   5.194
 3166POPC   GL141113  33.653  11.082   5.734
 3166POPC   GL241114  33.860  10.787   5.750
 3166POPC   C1A41115  33.761  11.391   6.182
 3166POPC   D2A41116  33.627  11.465   6.634
 3166POPC   C3A41117  33.859  11.611   6.992
 3166POPC   C4A41118  33.799  11.438   7.404
 3166POPC   C1B41119  33.981  10.942   6.159
 3166POPC   C2B41120  34.127  10.940   6.588
 3166POPC   C3B41121  33.917  11.095   6.938
 3166POPC   C4B41122  33.830  10.929   7.354
 3167POPC   NC341123   0.408   8.955   5.112
 3167POPC   PO441124   0.542   8.399   5.446
 3167POPC   GL141125   0.547   8.779   5.811
 3167POPC   GL241126   0.451   9.139   5.711
 3167POPC   C1A41127   0.393   8.858   6.257
 3167POPC   D2A41128   0.049   8.935   6.556
 3167POPC   C3A41129   0.136   8.854   6.962
 3167POPC   C4A41130   0.462   8.672   7.194
 3167POPC   C1B41131   0.649   9.267   6.109
 3167POPC   C2B41132   0.418   9.338   6.530
 3167POPC   C3B41133   0.478   9.244   6.994
 3167POPC   C4B41134   0.641   9.275   7.447
 3168POPC   NC341135  34.230   4.372   5.070
 3168POPC   PO441136  33.553   4.502   5.151
 3168POPC   GL141137  33.728   4.294   5.594
 3168POPC   GL241138  34.055   4.136   5.716
 3168POPC   C1A41139  33.682   4.114   6.055
 3168POPC   D2A41140  33.823   4.223   6.494
 3168POPC   C3A41141  33.570   4.251   6.877
 3168POPC   C4A41142  33.728   4.179   7.324
 3168POPC   C1B41143  34.160   4.385   6.127
 3168POPC   C2B41144  34.310   4.442   6.557
 3168POPC   C3B41145  34.068   4.412   6.937
 3168POPC   C4B41146  34.114   4.571   7.332
 3169POPC   NC341147  14.951   1.583   5.431
 3169POPC   PO441148  14.950   0.884   5.536
 3169POPC   GL141149  15.167   1.197   5.777
 3169POPC   GL241150  14.902   1.384   5.931
 3169POPC   C1A41151  15.341   1.273   6.196
 3169POPC   D2A41152  15.248   1.053   6.586
 3169POPC   C3A41153  15.222   1.374   6.914
 3169POPC   C4A41154  15.504   1.418   7.269
 3169POPC   C1B41155  14.893   0.969   6.190
 3169POPC   C2B41156  14.714   0.796   6.575
 3169POPC   C3B41157  14.962   0.834   6.957
 3169POPC   C4B41158  15.223   0.980   7.254
 3170POPC   NC341159  44.511  30.868   5.344
 3170POPC   PO441160  44.340  31.524   5.223
 3170POPC   GL141161  44.453  31.446   5.684
 3170POPC   GL241162  44.787  31.403   5.800
 3170POPC   C1A41163  44.487  31.723   6.080
 3170POPC   D2A41164  44.625  31.616   6.519
 3170POPC   C3A41165  44.319  31.568   6.868
 3170POPC   C4A41166  44.378  31.481   7.308
 3170POPC   C1B41167  44.548  31.232   6.177
 3170POPC   C2B41168  44.438  31.119   6.603
 3170POPC   C3B41169  44.642  31.190   6.990
 3170POPC   C4B41170  44.813  30.922   7.295
 3171POPC   NC341171  27.048   1.448   5.495
 3171POPC   PO441172  27.078   0.857   5.126
 3171POPC   GL141173  26.898   0.939   5.637
 3171POPC   GL241174  26.574   1.061   5.750
 3171POPC   C1A41175  26.951   1.183   6.083
 3171POPC   D2A41176  26.788   1.334   6.484
 3171POPC   C3A41177  27.059   1.135   6.811
 3171POPC   C4A41178  27.102   1.211   7.232
 3171POPC   C1B41179  26.498   0.911   6.206
 3171POPC   C2B41180  26.645   0.878   6.655
 3171POPC   C3B41181  26.579   1.162   7.009
 3171POPC   C4B41182  26.558   1.208   7.445
 3172POPC   NC341183  32.537  28.294   5.497
 3172POPC   PO441184  32.105  28.676   5.242
 3172POPC   GL141185  32.094  28.629   5.745
 3172POPC   GL241186  32.173  28.299   5.871
 3172POPC   C1A41187  32.150  28.671   6.254
 3172POPC   D2A41188  32.443  28.581   6.639
 3172POPC   C3A41189  32.238  28.378   7.007
 3172POPC   C4A41190  32.067  28.566   7.437
 3172POPC   C1B41191  32.517  28.314   6.172
 3172POPC   C2B41192  32.727  28.138   6.538
 3172POPC   C3B41193  32.647  28.067   6.988
 3172POPC   C4B41194  32.463  28.222   7.419
 3173POPC   NC341195  33.678  17.184   5.434
 3173POPC   PO441196  33.897  17.927   5.461
 3173POPC   GL141197  33.886  17.604   5.760
 3173POPC   GL241198  33.544  17.515   5.823
 3173POPC   C1A41199  34.100  17.528   6.154
 3173POPC   D2A41200  34.120  17.870   6.462
 3173POPC   C3A41201  34.009  17.781   6.916
 3173POPC   C4A41202  33.937  17.467   7.251
 3173POPC   C1B41203  33.635  17.682   6.239
 3173POPC   C2B41204  33.610  17.577   6.660
 3173POPC   C3B41205  33.532  17.301   7.007
 3173POPC   C4B41206  33.457  17.455   7.442
 3174POPC   NC341207  15.719  10.168   5.430
 3174POPC   PO441208  15.532  10.780   5.447
 3174POPC   GL141209  15.636  10.530   5.849
 3174POPC   GL241210  15.945  10.352   5.857
 3174POPC   C1A41211  15.836  10.576   6.296
 3174POPC   D2A41212  16.046  10.805   6.635
 3174POPC   C3A41213  15.798  10.777   6.990
 3174POPC   C4A41214  15.620  10.392   7.082
 3174POPC   C1B41215  15.777  10.091   6.275
 3174POPC   C2B41216  15.918  10.011   6.699
 3174POPC   C3B41217  16.126  10.343   6.911
 3174POPC   C4B41218  16.284  10.706   7.088
 3175POPC   NC341219  12.559  20.380   5.464
 3175POPC   PO441220  12.199  19.764   5.487
 3175POPC   GL141221  12.075  19.852   5.920
 3175POPC   GL241222  11.691  19.856   5.912
 3175POPC   C1A41223  11.996  19.609   6.322
 3175POPC   D2A41224  11.785  19.727   6.715
 3175POPC   C3A41225  11.966  19.570   7.113
 3175POPC   C4A41226  12.101  19.845   7.490
 3175POPC   C1B41227  11.800  20.093   6.294
 3175POPC   C2B41228  11.757  20.237   6.711
 3175POPC   C3B41229  11.829  20.059   7.114
 3175POPC   C4B41230  11.604  19.790   7.448
 3176POPC   NC341231  41.768  29.678   5.286
 3176POPC   PO441232  41.548  28.982   5.293
 3176POPC   GL141233  41.582  29.192   5.675
 3176POPC   GL241234  41.901  29.333   5.654
 3176POPC   C1A41235  41.523  29.148   6.117
 3176POPC   D2A41236  41.479  29.260   6.549
 3176POPC   C3A41237  41.482  28.962   6.907
 3176POPC   C4A41238  41.209  28.955   7.264
 3176POPC   C1B41239  41.875  29.528   6.059
 3176POPC   C2B41240  41.890  29.553   6.506
 3176POPC   C3B41241  41.852  29.311   6.892
 3176POPC   C4B41242  41.580  29.335   7.272
 3177POPC   NC341243   7.217  19.387   5.434
 3177POPC   PO441244   7.476  18.770   5.342
 3177POPC   GL141245   7.364  18.744   5.771
 3177POPC   GL241246   7.252  19.099   5.855
 3177POPC   C1A41247   7.484  18.789   6.203
 3177POPC   D2A41248   7.267  18.983   6.536
 3177POPC   C3A41249   7.425  18.939   6.951
 3177POPC   C4A41250   7.723  18.713   7.195
 3177POPC   C1B41251   7.512  19.316   6.185
 3177POPC   C2B41252   7.524  19.481   6.622
 3177POPC   C3B41253   7.594  19.394   7.068
 3177POPC   C4B41254   7.717  19.267   7.491
 3178POPC   NC341255  43.694  12.373   5.362
 3178POPC   PO441256  44.169  11.993   5.551
 3178POPC   GL141257  43.912  12.080   5.886
 3178POPC   GL241258  43.624  12.314   5.859
 3178POPC   C1A41259  44.072  12.168   6.288
 3178POPC   D2A41260  44.126  11.947   6.632
 3178POPC   C3A41261  43.763  11.852   6.841
 3178POPC   C4A41262  43.927  12.091   7.155
 3178POPC   C1B41263  43.589  12.206   6.280
 3178POPC   C2B41264  43.729  12.351   6.679
 3178POPC   C3B41265  43.504  12.349   7.061
 3178POPC   C4B41266  43.404  11.932   7.255
 3179POPC   NC341267  16.082   3.915   5.196
 3179POPC   PO441268  15.800   4.483   5.417
 3179POPC   GL141269  16.016   4.426   5.808
 3179POPC   GL241270  16.012   4.085   5.876
 3179POPC   C1A41271  16.159   4.359   6.257
 3179POPC   D2A41272  15.946   4.235   6.635
 3179POPC   C3A41273  16.127   4.244   7.025
 3179POPC   C4A41274  15.988   4.428   7.403
 3179POPC   C1B41275  15.706   4.035   6.231
 3179POPC   C2B41276  15.538   3.867   6.596
 3179POPC   C3B41277  15.762   3.829   6.960
 3179POPC   C4B41278  15.724   4.022   7.338
 3180POPC   NC341279   2.304  17.328   5.197
 3180POPC   PO441280   1.647  17.487   5.364
 3180POPC   GL141281   1.926  17.414   5.751
 3180POPC   GL241282   2.306  17.279   5.742
 3180POPC   C1A41283   2.020  17.536   6.198
 3180POPC   D2A41284   2.027  17.793   6.602
 3180POPC   C3A41285   2.064  17.600   7.015
 3180POPC   C4A41286   1.824  17.435   7.358
 3180POPC   C1B41287   2.265  17.082   6.180
 3180POPC   C2B41288   2.310  17.206   6.605
 3180POPC   C3B41289   2.456  17.273   7.031
 3180POPC   C4B41290   2.267  17.136   7.419
 3181POPC   NC341291  26.642  19.992   5.327
 3181POPC   PO441292  27.255  20.019   5.411
 3181POPC   GL141293  26.924  19.809   5.708
 3181POPC   GL241294  26.796  20.153   5.790
 3181POPC   C1A41295  26.730  19.710   6.163
 3181POPC   D2A41296  26.547  19.882   6.604
 3181POPC   C3A41297  26.596  19.708   7.033
 3181POPC   C4A41298  26.968  19.575   7.290
 3181POPC   C1B41299  27.038  20.142   6.146
 3181POPC   C2B41300  27.056  19.893   6.534
 3181POPC   C3B41301  27.067  19.961   6.967
 3181POPC   C4B41302  26.875  20.065   7.375
 3182POPC   NC341303  29.189   4.084   5.656
 3182POPC   PO441304  29.244   3.512   5.361
 3182POPC   GL141305  29.073   3.598   5.770
 3182POPC   GL241306  29.370   3.711   5.939
 3182POPC   C1A41307  28.977   3.476   6.202
 3182POPC   D2A41308  29.125   3.287   6.586
 3182POPC   C3A41309  28.945   3.556   6.883
 3182POPC   C4A41310  28.874   3.578   7.274
 3182POPC   C1B41311  29.569   3.755   6.324
 3182POPC   C2B41312  29.347   3.791   6.693
 3182POPC   C3B41313  29.408   3.662   7.120
 3182POPC   C4B41314  29.539   3.915   7.459
 3183POPC   NC341315   4.085  17.703   5.555
 3183POPC   PO441316   4.231  17.237   5.129
 3183POPC   GL141317   4.212  17.222   5.642
 3183POPC   GL241318   4.494  17.199   5.897
 3183POPC   C1A41319   4.102  17.421   6.127
 3183POPC   D2A41320   4.197  17.364   6.586
 3183POPC   C3A41321   4.038  17.597   6.952
 3183POPC   C4A41322   3.964  17.733   7.383
 3183POPC   C1B41323   4.559  17.666   6.125
 3183POPC   C2B41324   4.595  17.887   6.573
 3183POPC   C3B41325   4.698  17.776   7.018
 3183POPC   C4B41326   4.429  17.507   7.297
 3184POPC   NC341327  25.489  13.339   5.284
 3184POPC   PO441328  24.935  13.540   5.479
 3184POPC   GL141329  25.051  13.772   5.804
 3184POPC   GL241330  25.389  13.656   5.796
 3184POPC   C1A41331  25.006  13.618   6.228
 3184POPC   D2A41332  24.993  13.347   6.607
 3184POPC   C3A41333  25.034  13.564   7.009
 3184POPC   C4A41334  25.132  13.519   7.457
 3184POPC   C1B41335  25.531  13.594   6.241
 3184POPC   C2B41336  25.362  13.739   6.636
 3184POPC   C3B41337  25.522  13.857   7.043
 3184POPC   C4B41338  25.630  13.508   7.294
 3185POPC   NC341339   6.031  23.458   5.364
 3185POPC   PO441340   5.489  23.749   5.207
 3185POPC   GL141341   5.624  23.646   5.687
 3185POPC   GL241342   5.946  23.726   5.787
 3185POPC   C1A41343   5.660  23.576   6.189
 3185POPC   D2A41344   5.935  23.474   6.587
 3185POPC   C3A41345   5.840  23.500   7.037
 3185POPC   C4A41346   5.607  23.597   7.380
 3185POPC   C1B41347   6.042  23.936   6.178
 3185POPC   C2B41348   5.805  23.977   6.576
 3185POPC   C3B41349   5.901  23.992   7.020
 3185POPC   C4B41350   6.239  23.800   7.232
 3186POPC   NC341351  18.716  35.164   5.398
 3186POPC   PO441352  19.295  34.754   5.376
 3186POPC   GL141353  19.054  34.701   5.764
 3186POPC   GL241354  18.839  34.960   5.845
 3186POPC   C1A41355  18.880  34.442   6.120
 3186POPC   D2A41356  19.004  34.518   6.562
 3186POPC   C3A41357  18.856  34.264   6.912
 3186POPC   C4A41358  19.005  34.337   7.303
 3186POPC   C1B41359  18.996  34.929   6.254
 3186POPC   C2B41360  18.838  35.019   6.659
 3186POPC   C3B41361  18.886  34.763   7.026
 3186POPC   C4B41362  18.679  34.694   7.445
 3187POPC   NC341363  37.950  10.762   5.463
 3187POPC   PO441364  37.384  10.538   5.672
 3187POPC   GL141365  37.619  10.717   5.966
 3187POPC   GL241366  37.911  10.495   5.913
 3187POPC   C1A41367  37.679  10.560   6.407
 3187POPC   D2A41368  37.448  10.184   6.603
 3187POPC   C3A41369  37.490  10.131   7.053
 3187POPC   C4A41370  37.757  10.381   7.281
 3187POPC   C1B41371  38.052  10.872   6.167
 3187POPC   C2B41372  38.016  11.060   6.601
 3187POPC   C3B41373  37.854  10.800   6.949
 3187POPC   C4B41374  37.994  10.824   7.385
 3188POPC   NC341375   5.624  29.721   5.579
 3188POPC   PO441376   6.126  30.178   5.583
 3188POPC   GL141377   5.854  30.018   5.925
 3188POPC   GL241378   5.444  29.963   5.976
 3188POPC   C1A41379   5.997  30.052   6.318
 3188POPC   D2A41380   6.191  29.975   6.677
 3188POPC   C3A41381   5.939  30.190   6.924
 3188POPC   C4A41382   5.951  30.171   7.329
 3188POPC   C1B41383   5.614  29.719   6.300
 3188POPC   C2B41384   5.724  29.759   6.718
 3188POPC   C3B41385   5.645  29.495   7.055
 3188POPC   C4B41386   5.401  29.449   7.417
 3189POPC   NC341387  14.531  14.851   5.231
 3189POPC   PO441388  14.312  15.459   5.513
 3189POPC   GL141389  14.616  15.324   5.841
 3189POPC   GL241390  14.535  14.975   5.770
 3189POPC   C1A41391  14.612  15.420   6.297
 3189POPC   D2A41392  14.211  15.570   6.490
 3189POPC   C3A41393  14.124  15.497   6.946
 3189POPC   C4A41394  14.338  15.358   7.306
 3189POPC   C1B41395  14.296  15.020   6.200
 3189POPC   C2B41396  14.363  15.115   6.661
 3189POPC   C3B41397  14.687  15.148   6.974
 3189POPC   C4B41398  14.896  15.274   7.348
 3190POPC   NC341399  25.775  17.472   5.290
 3190POPC   PO441400  26.310  17.872   5.332
 3190POPC   GL141401  26.127  17.677   5.747
 3190POPC   GL241402  25.810  17.591   5.787
 3190POPC   C1A41403  26.234  17.566   6.176
 3190POPC   D2A41404  26.269  17.367   6.586
 3190POPC   C3A41405  26.035  17.432   6.960
 3190POPC   C4A41406  26.154  17.556   7.363
 3190POPC   C1B41407  25.761  17.394   6.197
 3190POPC   C2B41408  25.647  17.384   6.602
 3190POPC   C3B41409  25.683  17.077   6.888
 3190POPC   C4B41410  25.755  17.100   7.284
 3191POPC   NC341411   4.548   8.460   5.503
 3191POPC   PO441412   4.365   9.129   5.397
 3191POPC   GL141413   4.150   9.093   5.795
 3191POPC   GL241414   4.270   8.785   5.773
 3191POPC   C1A41415   4.143   9.260   6.226
 3191POPC   D2A41416   4.059   9.158   6.668
 3191POPC   C3A41417   4.356   9.051   6.999
 3191POPC   C4A41418   4.480   9.181   7.431
 3191POPC   C1B41419   4.462   8.845   6.167
 3191POPC   C2B41420   4.313   8.627   6.534
 3191POPC   C3B41421   4.229   8.556   6.952
 3191POPC   C4B41422   4.327   8.669   7.368
 3192POPC   NC341423   6.181  14.661   5.317
 3192POPC   PO441424   5.601  15.076   5.402
 3192POPC   GL141425   5.885  15.049   5.731
 3192POPC   GL241426   5.636  15.218   5.914
 3192POPC   C1A41427   6.110  15.196   6.115
 3192POPC   D2A41428   5.901  15.214   6.531
 3192POPC   C3A41429   6.120  15.275   6.926
 3192POPC   C4A41430   6.076  15.497   7.325
 3192POPC   C1B41431   5.499  15.467   6.277
 3192POPC   C2B41432   5.412  15.305   6.671
 3192POPC   C3B41433   5.636  15.109   6.996
 3192POPC   C4B41434   5.460  15.126   7.405
 3193POPC   NC341435  14.726  41.417   5.422
 3193POPC   PO441436  14.278  41.964   5.318
 3193POPC   GL141437  14.338  41.606   5.691
 3193POPC   GL241438  14.616  41.636   5.888
 3193POPC   C1A41439  14.267  41.361   6.115
 3193POPC   D2A41440  14.460  41.485   6.516
 3193POPC   C3A41441  14.199  41.435   6.889
 3193POPC   C4A41442  14.243  41.222   7.246
 3193POPC   C1B41443  14.286  41.864   6.189
 3193POPC   C2B41444  14.093  41.877   6.624
 3193POPC   C3B41445  14.230  41.924   7.075
 3193POPC   C4B41446  14.565  41.625   7.222
 3194POPC   NC341447  42.207   3.310   5.455
 3194POPC   PO441448  41.943   3.940   5.713
 3194POPC   GL141449  42.089   3.554   5.924
 3194POPC   GL241450  42.366   3.280   5.944
 3194POPC   C1A41451  42.197   3.582   6.355
 3194POPC   D2A41452  42.423   3.705   6.738
 3194POPC   C3A41453  42.182   3.538   7.078
 3194POPC   C4A41454  42.006   3.607   7.486
 3194POPC   C1B41455  42.663   3.444   6.253
 3194POPC   C2B41456  42.877   3.298   6.637
 3194POPC   C3B41457  42.661   3.325   7.032
 3194POPC   C4B41458  42.674   3.701   7.251
 3195POPC   NC341459   9.568  21.031   5.193
 3195POPC   PO441460   9.686  21.624   5.485
 3195POPC   GL141461   9.573  21.500   5.877
 3195POPC   GL241462   9.501  21.131   5.833
 3195POPC   C1A41463   9.863  21.309   6.187
 3195POPC   D2A41464   9.982  21.209   6.596
 3195POPC   C3A41465   9.724  21.452   6.882
 3195POPC   C4A41466   9.897  21.722   7.158
 3195POPC   C1B41467   9.373  21.215   6.262
 3195POPC   C2B41468   9.533  20.944   6.558
 3195POPC   C3B41469   9.719  20.937   6.942
 3195POPC   C4B41470   9.483  21.140   7.239
 3196POPC   NC341471  12.216  32.520   5.322
 3196POPC   PO441472  11.700  32.092   5.481
 3196POPC   GL141473  12.050  32.174   5.733
 3196POPC   GL241474  11.998  32.488   5.788
 3196POPC   C1A41475  12.128  32.002   6.151
 3196POPC   D2A41476  11.961  31.921   6.575
 3196POPC   C3A41477  12.153  32.024   6.997
 3196POPC   C4A41478  12.272  32.258   7.364
 3196POPC   C1B41479  12.369  32.441   6.086
 3196POPC   C2B41480  12.364  32.271   6.536
 3196POPC   C3B41481  12.245  32.508   6.902
 3196POPC   C4B41482  12.532  32.701   7.211
 3197POPC   NC341483  10.118   4.572   5.412
 3197POPC   PO441484  10.068   3.984   5.062
 3197POPC   GL141485   9.882   4.149   5.579
 3197POPC   GL241486   9.717   4.519   5.718
 3197POPC   C1A41487   9.901   4.192   6.050
 3197POPC   D2A41488   9.629   4.399   6.396
 3197POPC   C3A41489   9.596   4.223   6.820
 3197POPC   C4A41490   9.814   4.295   7.232
 3197POPC   C1B41491   9.885   4.723   6.092
 3197POPC   C2B41492  10.014   4.722   6.547
 3197POPC   C3B41493   9.790   4.705   6.928
 3197POPC   C4B41494   9.818   4.828   7.370
 3198POPC   NC341495   0.176   1.432   5.574
 3198POPC   PO441496   0.501   0.909   5.314
 3198POPC   GL141497   0.484   1.023   5.750
 3198POPC   GL241498   0.134   0.964   5.804
 3198POPC   C1A41499   0.410   1.204   6.181
 3198POPC   D2A41500   0.667   1.344   6.521
 3198POPC   C3A41501   0.444   1.371   6.914
 3198POPC   C4A41502   0.696   1.462   7.266
 3198POPC   C1B41503  44.960   0.972   6.217
 3198POPC   C2B41504   0.017   1.139   6.622
 3198POPC   C3B41505  44.914   1.012   7.036
 3198POPC   C4B41506   0.207   1.197   7.355
 3199POPC   NC341507  13.986   9.854   5.547
 3199POPC   PO441508  13.409   9.547   5.489
 3199POPC   GL141509  13.551   9.784   5.800
 3199POPC   GL241510  13.602  10.154   5.760
 3199POPC   C1A41511  13.738   9.582   6.150
 3199POPC   D2A41512  13.475   9.541   6.476
 3199POPC   C3A41513  13.686   9.555   6.823
 3199POPC   C4A41514  13.438   9.649   7.182
 3199POPC   C1B41515  13.593  10.083   6.205
 3199POPC   C2B41516  13.454  10.062   6.613
 3199POPC   C3B41517  13.674  10.042   6.996
 3199POPC   C4B41518  13.923   9.790   7.221
 3200POPC   NC341519  34.917   3.654   5.175
 3200POPC   PO441520  34.582   3.358   5.592
 3200POPC   GL141521  34.601   3.607   5.917
 3200POPC   GL241522  34.373   3.427   6.064
 3200POPC   C1A41523  34.825   3.618   6.287
 3200POPC   D2A41524  34.859   3.376   6.637
 3200POPC   C3A41525  34.685   3.696   6.861
 3200POPC   C4A41526  34.693   3.796   7.292
 3200POPC   C1B41527  34.347   3.441   6.498
 3200POPC   C2B41528  34.222   3.491   6.916
 3200POPC   C3B41529  34.336   3.424   7.342
 3200POPC   C4B41530  34.353   3.231   7.746
 3201POPC   NC341531  16.886   3.106   5.092
 3201POPC   PO441532  16.605   3.802   5.360
 3201POPC   GL141533  16.746   3.578   5.706
 3201POPC   GL241534  17.014   3.431   5.606
 3201POPC   C1A41535  16.610   3.518   6.144
 3201POPC   D2A41536  16.469   3.418   6.540
 3201POPC   C3A41537  16.689   3.662   6.895
 3201POPC   C4A41538  16.659   3.485   7.308
 3201POPC   C1B41539  17.110   3.427   6.076
 3201POPC   C2B41540  16.988   3.459   6.505
 3201POPC   C3B41541  17.110   3.368   6.921
 3201POPC   C4B41542  17.022   3.100   7.253
 3202POPC   NC341543  38.173  44.648   5.128
 3202POPC   PO441544  37.518  44.685   5.344
 3202POPC   GL141545  37.729  44.642   5.807
 3202POPC   GL241546  37.981  44.334   5.852
 3202POPC   C1A41547  37.512  44.724   6.210
 3202POPC   D2A41548  37.687  44.900   6.568
 3202POPC   C3A41549  37.623  44.650   6.923
 3202POPC   C4A41550  37.446  44.684   7.283
 3202POPC   C1B41551  37.943  44.462   6.265
 3202POPC   C2B41552  37.644  44.314   6.545
 3202POPC   C3B41553  37.849  44.195   6.893
 3202POPC   C4B41554  37.696  44.251   7.278
 3203POPC   NC341555  37.627  24.313   5.494
 3203POPC   PO441556  37.904  24.920   5.545
 3203POPC   GL141557  37.893  24.577   5.866
 3203POPC   GL241558  37.527  24.506   5.956
 3203POPC   C1A41559  37.870  24.473   6.330
 3203POPC   D2A41560  37.529  24.717   6.538
 3203POPC   C3A41561  37.464  24.758   6.998
 3203POPC   C4A41562  37.854  24.758   7.218
 3203POPC   C1B41563  37.418  24.128   6.221
 3203POPC   C2B41564  37.604  23.989   6.576
 3203POPC   C3B41565  37.618  24.289   6.875
 3203POPC   C4B41566  37.360  24.309   7.247
 3204POPC   NC341567   4.265  39.628   5.188
 3204POPC   PO441568   3.944  40.076   5.471
 3204POPC   GL141569   4.271  40.128   5.835
 3204POPC   GL241570   4.417  40.467   5.887
 3204POPC   C1A41571   4.566  40.160   6.253
 3204POPC   D2A41572   4.580  40.395   6.671
 3204POPC   C3A41573   4.451  40.122   7.036
 3204POPC   C4A41574   4.500  39.663   7.045
 3204POPC   C1B41575   4.152  40.480   6.263
 3204POPC   C2B41576   4.105  40.561   6.713
 3204POPC   C3B41577   3.997  40.397   7.144
 3204POPC   C4B41578   4.160  40.086   7.491
 3205POPC   NC341579  15.041  38.320   5.148
 3205POPC   PO441580  15.451  37.949   5.552
 3205POPC   GL141581  15.192  38.305   5.781
 3205POPC   GL241582  14.836  38.258   5.726
 3205POPC   C1A41583  15.166  38.566   6.216
 3205POPC   D2A41584  14.997  38.695   6.633
 3205POPC   C3A41585  15.272  38.515   6.932
 3205POPC   C4A41586  15.521  38.365   7.263
 3205POPC   C1B41587  14.868  38.144   6.206
 3205POPC   C2B41588  14.990  38.163   6.683
 3205POPC   C3B41589  15.075  38.092   7.159
 3205POPC   C4B41590  14.980  37.903   7.584
 3206POPC   NC341591   5.836  16.390   5.350
 3206POPC   PO441592   6.310  16.833   5.420
 3206POPC   GL141593   6.063  16.868   5.773
 3206POPC   GL241594   5.914  16.548   5.829
 3206POPC   C1A41595   5.923  16.896   6.200
 3206POPC   D2A41596   6.010  16.656   6.595
 3206POPC   C3A41597   5.922  16.918   6.961
 3206POPC   C4A41598   5.921  16.830   7.427
 3206POPC   C1B41599   5.584  16.493   6.162
 3206POPC   C2B41600   5.535  16.364   6.603
 3206POPC   C3B41601   5.658  16.497   7.053
 3206POPC   C4B41602   5.709  16.355   7.482
 3207POPC   NC341603  14.530  22.490   5.524
 3207POPC   PO441604  14.877  23.095   5.683
 3207POPC   GL141605  14.474  23.093   5.891
 3207POPC   GL241606  14.361  22.748   5.933
 3207POPC   C1A41607  14.296  23.092   6.311
 3207POPC   D2A41608  14.467  22.930   6.677
 3207POPC   C3A41609  14.293  23.037   7.054
 3207POPC   C4A41610  14.191  22.794   7.445
 3207POPC   C1B41611  14.111  22.558   6.281
 3207POPC   C2B41612  14.098  22.583   6.743
 3207POPC   C3B41613  14.452  22.556   7.062
 3207POPC   C4B41614  14.666  22.596   7.449
 3208POPC   NC341615   2.628  29.581   5.166
 3208POPC   PO441616   2.819  29.042   5.389
 3208POPC   GL141617   2.675  29.218   5.798
 3208POPC   GL241618   2.622  29.572   5.746
 3208POPC   C1A41619   2.765  29.120   6.264
 3208POPC   D2A41620   2.962  29.014   6.675
 3208POPC   C3A41621   2.754  29.129   7.066
 3208POPC   C4A41622   2.656  28.849   7.389
 3208POPC   C1B41623   2.573  29.589   6.224
 3208POPC   C2B41624   2.553  29.447   6.680
 3208POPC   C3B41625   2.630  29.627   7.119
 3208POPC   C4B41626   2.602  29.547   7.594
 3209POPC   NC341627  26.027  25.954   4.877
 3209POPC   PO441628  26.026  25.957   5.542
 3209POPC   GL141629  26.086  26.143   5.912
 3209POPC   GL241630  26.343  25.896   5.972
 3209POPC   C1A41631  26.043  26.056   6.360
 3209POPC   D2A41632  26.185  25.834   6.719
 3209POPC   C3A41633  25.870  25.944   7.002
 3209POPC   C4A41634  25.692  26.323   7.116
 3209POPC   C1B41635  26.489  26.258   6.197
 3209POPC   C2B41636  26.474  26.343   6.617
 3209POPC   C3B41637  26.352  26.255   7.037
 3209POPC   C4B41638  26.412  25.848   7.190
 3210POPC   NC341639  30.247  12.345   5.582
 3210POPC   PO441640  30.637  12.772   5.241
 3210POPC   GL141641  30.633  12.665   5.736
 3210POPC   GL241642  30.974  12.682   5.834
 3210POPC   C1A41643  30.665  12.972   6.188
 3210POPC   D2A41644  30.549  13.059   6.661
 3210POPC   C3A41645  30.760  13.112   7.083
 3210POPC   C4A41646  30.733  12.806   7.464
 3210POPC   C1B41647  31.147  12.806   6.219
 3210POPC   C2B41648  31.101  13.018   6.626
 3210POPC   C3B41649  31.167  12.841   7.030
 3210POPC   C4B41650  31.198  13.026   7.439
 3211POPC   NC341651  16.923  43.512   5.588
 3211POPC   PO441652  16.987  44.183   5.281
 3211POPC   GL141653  16.723  43.985   5.670
 3211POPC   GL241654  16.693  44.205   5.948
 3211POPC   C1A41655  16.570  43.766   6.118
 3211POPC   D2A41656  16.626  44.040   6.526
 3211POPC   C3A41657  16.507  43.886   6.961
 3211POPC   C4A41658  16.742  43.577   7.215
 3211POPC   C1B41659  17.080  43.955   6.072
 3211POPC   C2B41660  17.239  44.007   6.479
 3211POPC   C3B41661  17.047  44.004   6.879
 3211POPC   C4B41662  16.869  44.125   7.274
 3212POPC   NC341663  38.890  26.475   5.791
 3212POPC   PO441664  38.871  25.950   5.326
 3212POPC   GL141665  38.610  26.026   5.716
 3212POPC   GL241666  38.375  26.347   5.748
 3212POPC   C1A41667  38.463  25.998   6.172
 3212POPC   D2A41668  38.665  26.013   6.603
 3212POPC   C3A41669  38.458  25.924   6.994
 3212POPC   C4A41670  38.676  26.002   7.372
 3212POPC   C1B41671  38.316  26.555   6.164
 3212POPC   C2B41672  38.331  26.408   6.610
 3212POPC   C3B41673  38.564  26.423   7.017
 3212POPC   C4B41674  38.188  26.614   7.120
 3213POPC   NC341675   9.361  36.540   5.443
 3213POPC   PO441676   8.699  36.576   5.321
 3213POPC   GL141677   8.902  36.790   5.704
 3213POPC   GL241678   9.189  36.734   5.881
 3213POPC   C1A41679   8.864  36.945   6.187
 3213POPC   D2A41680   8.671  36.995   6.606
 3213POPC   C3A41681   8.924  36.905   6.956
 3213POPC   C4A41682   9.162  36.909   7.303
 3213POPC   C1B41683   9.237  36.514   6.257
 3213POPC   C2B41684   9.276  36.630   6.686
 3213POPC   C3B41685   9.304  36.431   7.107
 3213POPC   C4B41686   9.415  36.563   7.543
 3214POPC   NC341687  14.568  23.314   5.429
 3214POPC   PO441688  14.116  23.784   5.370
 3214POPC   GL141689  14.357  23.727   5.761
 3214POPC   GL241690  14.696  23.661   5.800
 3214POPC   C1A41691  14.264  23.605   6.193
 3214POPC   D2A41692  14.198  23.811   6.596
 3214POPC   C3A41693  14.248  23.572   6.971
 3214POPC   C4A41694  14.449  23.737   7.299
 3214POPC   C1B41695  14.745  23.448   6.210
 3214POPC   C2B41696  14.597  23.431   6.625
 3214POPC   C3B41697  14.735  23.276   7.033
 3214POPC   C4B41698  14.792  23.405   7.447
 3215POPC   NC341699  18.000  35.169   5.395
 3215POPC   PO441700  18.532  35.631   5.384
 3215POPC   GL141701  18.548  35.434   5.794
 3215POPC   GL241702  18.350  35.140   5.787
 3215POPC   C1A41703  18.610  35.281   6.217
 3215POPC   D2A41704  18.608  35.515   6.605
 3215POPC   C3A41705  18.442  35.380   7.005
 3215POPC   C4A41706  18.697  35.157   7.269
 3215POPC   C1B41707  18.081  35.062   6.162
 3215POPC   C2B41708  17.897  35.055   6.595
 3215POPC   C3B41709  17.920  35.096   7.029
 3215POPC   C4B41710  18.257  34.923   7.211
 3216POPC   NC341711  35.458  23.187   5.359
 3216POPC   PO441712  35.229  22.548   5.635
 3216POPC   GL141713  35.388  22.933   5.795
 3216POPC   GL241714  35.142  23.190   5.767
 3216POPC   C1A41715  35.473  23.078   6.212
 3216POPC   D2A41716  35.488  22.699   6.461
 3216POPC   C3A41717  35.640  22.673   6.852
 3216POPC   C4A41718  35.488  22.819   7.268
 3216POPC   C1B41719  35.048  23.386   6.151
 3216POPC   C2B41720  35.014  23.205   6.549
 3216POPC   C3B41721  35.285  23.054   6.840
 3216POPC   C4B41722  35.367  23.334   7.165
 3217POPC   NC341723  24.384  19.375   5.414
 3217POPC   PO441724  24.210  18.709   5.551
 3217POPC   GL141725  24.385  19.026   5.808
 3217POPC   GL241726  24.237  19.352   5.893
 3217POPC   C1A41727  24.535  19.034   6.217
 3217POPC   D2A41728  24.613  19.262   6.609
 3217POPC   C3A41729  24.455  19.037   6.981
 3217POPC   C4A41730  24.647  18.938   7.357
 3217POPC   C1B41731  24.149  19.359   6.297
 3217POPC   C2B41732  24.119  19.020   6.574
 3217POPC   C3B41733  23.917  19.055   6.966
 3217POPC   C4B41734  24.121  19.352   7.240
 3218POPC   NC341735  15.962  20.185   5.470
 3218POPC   PO441736  16.177  20.782   5.449
 3218POPC   GL141737  15.885  20.612   5.774
 3218POPC   GL241738  15.604  20.864   5.733
 3218POPC   C1A41739  16.022  20.366   6.170
 3218POPC   D2A41740  16.299  20.242   6.529
 3218POPC   C3A41741  16.157  20.457   6.885
 3218POPC   C4A41742  16.081  20.282   7.273
 3218POPC   C1B41743  15.577  20.695   6.180
 3218POPC   C2B41744  15.782  20.729   6.601
 3218POPC   C3B41745  15.712  20.641   7.050
 3218POPC   C4B41746  16.051  20.821   7.266
 3219POPC   NC341747  32.853  23.092   5.474
 3219POPC   PO441748  33.385  22.697   5.520
 3219POPC   GL141749  33.242  23.011   5.808
 3219POPC   GL241750  32.934  22.851   5.916
 3219POPC   C1A41751  33.247  23.209   6.206
 3219POPC   D2A41752  33.285  22.991   6.593
 3219POPC   C3A41753  33.203  23.147   7.006
 3219POPC   C4A41754  32.954  22.881   7.255
 3219POPC   C1B41755  32.738  23.138   6.197
 3219POPC   C2B41756  32.869  23.314   6.595
 3219POPC   C3B41757  32.709  23.271   6.985
 3219POPC   C4B41758  32.477  23.019   7.278
 3220POPC   NC341759  23.765   8.309   5.379
 3220POPC   PO441760  23.527   7.677   5.469
 3220POPC   GL141761  23.835   7.939   5.797
 3220POPC   GL241762  23.931   8.338   5.833
 3220POPC   C1A41763  23.936   8.062   6.255
 3220POPC   D2A41764  23.934   7.900   6.678
 3220POPC   C3A41765  23.556   7.937   6.977
 3220POPC   C4A41766  23.359   7.948   7.397
 3220POPC   C1B41767  23.871   8.574   6.193
 3220POPC   C2B41768  23.998   8.488   6.621
 3220POPC   C3B41769  23.863   8.396   7.057
 3220POPC   C4B41770  23.953   8.621   7.450
 3221POPC   NC341771  30.260  29.298   5.126
 3221POPC   PO441772  29.697  29.042   5.353
 3221POPC   GL141773  29.888  29.029   5.791
 3221POPC   GL241774  29.718  29.312   5.961
 3221POPC   C1A41775  30.091  29.135   6.237
 3221POPC   D2A41776  30.097  29.267   6.684
 3221POPC   C3A41777  30.224  28.977   7.023
 3221POPC   C4A41778  30.063  28.931   7.430
 3221POPC   C1B41779  29.472  29.333   6.310
 3221POPC   C2B41780  29.531  29.097   6.657
 3221POPC   C3B41781  29.647  29.110   7.080
 3221POPC   C4B41782  29.677  29.227   7.500
 3222POPC   NC341783  32.979  10.160   5.439
 3222POPC   PO441784  32.804  10.858   5.439
 3222POPC   GL141785  32.938  10.573   5.725
 3222POPC   GL241786  33.311  10.647   5.708
 3222POPC   C1A41787  33.041  10.482   6.141
 3222POPC   D2A41788  33.098  10.749   6.473
 3222POPC   C3A41789  32.896  10.610   6.828
 3222POPC   C4A41790  33.004  10.761   7.238
 3222POPC   C1B41791  33.536  10.639   6.119
 3222POPC   C2B41792  33.523  10.474   6.549
 3222POPC   C3B41793  33.351  10.427   6.924
 3222POPC   C4B41794  33.483  10.534   7.305
 3223POPC   NC341795   9.254   9.452   5.643
 3223POPC   PO441796   8.975   9.941   5.417
 3223POPC   GL141797   8.750   9.753   5.753
 3223POPC   GL241798   9.027   9.729   5.996
 3223POPC   C1A41799   8.568   9.781   6.170
 3223POPC   D2A41800   8.880   9.783   6.535
 3223POPC   C3A41801   8.779   9.626   6.959
 3223POPC   C4A41802   8.711   9.627   7.428
 3223POPC   C1B41803   9.256   9.456   6.312
 3223POPC   C2B41804   9.421   9.642   6.669
 3223POPC   C3B41805   9.225   9.891   6.979
 3223POPC   C4B41806   9.193   9.576   7.278
 3224POPC   NC341807  22.947  34.209   5.392
 3224POPC   PO441808  23.308  34.745   5.346
 3224POPC   GL141809  23.028  34.749   5.729
 3224POPC   GL241810  22.971  34.412   5.846
 3224POPC   C1A41811  22.815  34.767   6.171
 3224POPC   D2A41812  23.036  34.837   6.577
 3224POPC   C3A41813  22.975  34.649   6.986
 3224POPC   C4A41814  22.848  34.749   7.415
 3224POPC   C1B41815  23.219  34.457   6.204
 3224POPC   C2B41816  23.182  34.298   6.620
 3224POPC   C3B41817  23.469  34.488   6.892
 3224POPC   C4B41818  23.413  34.675   7.281
 3225POPC   NC341819   6.044  30.342   5.157
 3225POPC   PO441820   5.736  30.925   5.254
 3225POPC   GL141821   5.848  30.682   5.641
 3225POPC   GL241822   5.493  30.763   5.710
 3225POPC   C1A41823   6.069  30.586   6.085
 3225POPC   D2A41824   5.844  30.529   6.474
 3225POPC   C3A41825   5.928  30.780   6.824
 3225POPC   C4A41826   6.108  30.624   7.160
 3225POPC   C1B41827   5.589  30.440   6.016
 3225POPC   C2B41828   5.437  30.240   6.392
 3225POPC   C3B41829   5.462  30.393   6.800
 3225POPC   C4B41830   5.600  30.514   7.181
 3226POPC   NC341831  10.677  26.669   4.856
 3226POPC   PO441832  10.500  26.363   5.442
 3226POPC   GL141833  10.590  26.162   5.828
 3226POPC   GL241834  10.351  25.891   5.880
 3226POPC   C1A41835  10.777  26.144   6.250
 3226POPC   D2A41836  10.910  26.030   6.652
 3226POPC   C3A41837  10.565  26.070   6.902
 3226POPC   C4A41838  10.664  26.230   7.298
 3226POPC   C1B41839  10.731  25.689   5.996
 3226POPC   C2B41840  10.745  25.621   6.426
 3226POPC   C3B41841  10.515  25.528   6.796
 3226POPC   C4B41842  10.409  25.691   7.218
 3227POPC   NC341843   4.707  18.434   5.302
 3227POPC   PO441844   4.170  18.036   5.243
 3227POPC   GL141845   4.319  18.163   5.669
 3227POPC   GL241846   4.028  18.363   5.783
 3227POPC   C1A41847   4.393  18.193   6.153
 3227POPC   D2A41848   4.540  18.434   6.530
 3227POPC   C3A41849   4.459  18.303   6.941
 3227POPC   C4A41850   4.328  18.023   7.238
 3227POPC   C1B41851   3.899  18.036   6.108
 3227POPC   C2B41852   4.051  17.929   6.528
 3227POPC   C3B41853   3.920  18.102   6.937
 3227POPC   C4B41854   3.869  18.227   7.363
 3228POPC   NC341855   2.413  34.399   5.268
 3228POPC   PO441856   2.893  34.870   5.433
 3228POPC   GL141857   2.792  34.434   5.674
 3228POPC   GL241858   2.452  34.280   5.760
 3228POPC   C1A41859   2.804  34.287   6.134
 3228POPC   D2A41860   2.766  34.562   6.517
 3228POPC   C3A41861   2.900  34.465   6.962
 3228POPC   C4A41862   2.766  34.246   7.356
 3228POPC   C1B41863   2.411  34.641   6.012
 3228POPC   C2B41864   2.214  34.730   6.415
 3228POPC   C3B41865   2.088  34.765   6.840
 3228POPC   C4B41866   2.331  34.882   7.205
 3229POPC   NC341867  19.638  33.657   5.357
 3229POPC   PO441868  20.075  34.172   5.453
 3229POPC   GL141869  19.928  33.822   5.739
 3229POPC   GL241870  20.132  34.009   5.960
 3229POPC   C1A41871  19.933  33.590   6.147
 3229POPC   D2A41872  19.632  33.492   6.441
 3229POPC   C3A41873  19.735  33.610   6.884
 3229POPC   C4A41874  19.610  33.509   7.307
 3229POPC   C1B41875  19.689  34.043   6.111
 3229POPC   C2B41876  19.687  33.981   6.518
 3229POPC   C3B41877  19.723  34.139   6.905
 3229POPC   C4B41878  19.867  34.025   7.239
 3230POPC   NC341879   4.704  24.617   5.633
 3230POPC   PO441880   5.332  24.427   5.217
 3230POPC   GL141881   5.282  24.539   5.734
 3230POPC   GL241882   5.041  24.363   5.961
 3230POPC   C1A41883   5.289  24.744   6.167
 3230POPC   D2A41884   5.090  24.718   6.609
 3230POPC   C3A41885   5.291  24.735   7.040
 3230POPC   C4A41886   5.114  24.846   7.441
 3230POPC   C1B41887   5.169  24.243   6.379
 3230POPC   C2B41888   5.298  23.919   6.672
 3230POPC   C3B41889   5.381  23.978   7.125
 3230POPC   C4B41890   5.189  24.311   7.385
 3231POPC   NC341891  18.613  39.523   5.549
 3231POPC   PO441892  18.398  38.834   5.384
 3231POPC   GL141893  18.336  39.108   5.773
 3231POPC   GL241894  18.063  38.893   5.812
 3231POPC   C1A41895  18.308  39.377   6.174
 3231POPC   D2A41896  18.191  39.635   6.567
 3231POPC   C3A41897  18.176  39.504   6.976
 3231POPC   C4A41898  17.948  39.252   7.210
 3231POPC   C1B41899  18.260  38.874   6.222
 3231POPC   C2B41900  18.155  39.077   6.599
 3231POPC   C3B41901  18.408  39.055   6.945
 3231POPC   C4B41902  18.289  38.881   7.292
 3232POPC   NC341903  14.144  28.696   5.343
 3232POPC   PO441904  14.184  29.323   5.372
 3232POPC   GL141905  14.191  29.047   5.718
 3232POPC   GL241906  14.445  29.204   5.928
 3232POPC   C1A41907  14.102  28.921   6.152
 3232POPC   D2A41908  14.353  29.154   6.457
 3232POPC   C3A41909  14.243  29.233   6.868
 3232POPC   C4A41910  14.299  29.162   7.284
 3232POPC   C1B41911  14.771  29.009   6.177
 3232POPC   C2B41912  14.807  28.977   6.626
 3232POPC   C3B41913  14.706  29.016   7.027
 3232POPC   C4B41914  14.847  29.043   7.438
 3233POPC   NC341915  37.768  35.140   5.381
 3233POPC   PO441916  37.554  35.810   5.419
 3233POPC   GL141917  37.779  35.546   5.670
 3233POPC   GL241918  37.507  35.347   5.767
 3233POPC   C1A41919  37.861  35.498   6.107
 3233POPC   D2A41920  37.706  35.249   6.436
 3233POPC   C3A41921  37.842  35.413   6.823
 3233POPC   C4A41922  38.025  35.287   7.188
 3233POPC   C1B41923  37.343  35.599   6.095
 3233POPC   C2B41924  37.471  35.702   6.507
 3233POPC   C3B41925  37.357  35.535   6.901
 3233POPC   C4B41926  37.573  35.512   7.269
 3234POPC   NC341927   9.189  17.333   5.447
 3234POPC   PO441928   8.912  17.881   5.105
 3234POPC   GL141929   8.846  17.747   5.563
 3234POPC   GL241930   9.129  17.846   5.775
 3234POPC   C1A41931   8.745  17.579   6.022
 3234POPC   D2A41932   8.775  17.352   6.437
 3234POPC   C3A41933   8.675  17.264   6.883
 3234POPC   C4A41934   9.079  17.231   7.097
 3234POPC   C1B41935   8.849  18.070   6.083
 3234POPC   C2B41936   8.689  17.883   6.456
 3234POPC   C3B41937   8.927  17.714   6.811
 3234POPC   C4B41938   8.836  17.703   7.238
 3235POPC   NC341939  42.560   0.624   5.204
 3235POPC   PO441940  41.967   0.257   5.221
 3235POPC   GL141941  42.256   0.302   5.576
 3235POPC   GL241942  42.335   0.641   5.674
 3235POPC   C1A41943  42.292   0.277   6.044
 3235POPC   D2A41944  42.242   0.553   6.417
 3235POPC   C3A41945  42.256   0.383   6.840
 3235POPC   C4A41946  42.526   0.433   7.189
 3235POPC   C1B41947  42.560   0.743   6.066
 3235POPC   C2B41948  42.609   0.969   6.463
 3235POPC   C3B41949  42.435   0.878   6.882
 3235POPC   C4B41950  42.654   0.899   7.289
 3236POPC   NC341951  35.977  37.429   5.552
 3236POPC   PO441952  36.390  37.922   5.384
 3236POPC   GL141953  36.148  37.885   5.745
 3236POPC   GL241954  36.230  37.626   5.943
 3236POPC   C1A41955  35.786  37.842   6.063
 3236POPC   D2A41956  35.779  37.955   6.500
 3236POPC   C3A41957  35.818  37.743   6.892
 3236POPC   C4A41958  35.801  37.878   7.328
 3236POPC   C1B41959  36.231  37.965   6.244
 3236POPC   C2B41960  36.275  37.912   6.672
 3236POPC   C3B41961  36.270  37.964   7.076
 3236POPC   C4B41962  36.224  37.634   7.295
 3237POPC   NC341963  42.050  10.265   5.187
 3237POPC   PO441964  42.346  10.871   5.289
 3237POPC   GL141965  42.282  10.508   5.570
 3237POPC   GL241966  42.564  10.332   5.720
 3237POPC   C1A41967  42.161  10.491   6.006
 3237POPC   D2A41968  42.387  10.465   6.379
 3237POPC   C3A41969  42.323  10.481   6.819
 3237POPC   C4A41970  42.253  10.628   7.231
 3237POPC   C1B41971  42.719  10.171   6.130
 3237POPC   C2B41972  42.719  10.122   6.572
 3237POPC   C3B41973  42.675   9.975   6.955
 3237POPC   C4B41974  42.478  10.189   7.257
 3238POPC   NC341975   7.741   8.265   5.409
 3238POPC   PO441976   7.051   8.389   5.239
 3238POPC   GL141977   7.316   8.289   5.707
 3238POPC   GL241978   7.581   8.439   5.846
 3238POPC   C1A41979   7.157   8.098   6.135
 3238POPC   D2A41980   7.005   8.013   6.596
 3238POPC   C3A41981   7.228   8.046   7.034
 3238POPC   C4A41982   7.297   8.107   7.528
 3238POPC   C1B41983   7.655   8.172   6.165
 3238POPC   C2B41984   7.539   7.955   6.535
 3238POPC   C3B41985   7.726   7.960   6.925
 3238POPC   C4B41986   7.708   8.263   7.247
 3239POPC   NC341987  17.052  12.101   5.234
 3239POPC   PO441988  16.359  12.086   5.393
 3239POPC   GL141989  16.552  12.023   5.749
 3239POPC   GL241990  16.832  12.182   5.752
 3239POPC   C1A41991  16.636  11.864   6.125
 3239POPC   D2A41992  16.684  12.008   6.502
 3239POPC   C3A41993  16.839  11.709   6.758
 3239POPC   C4A41994  16.599  11.709   7.078
 3239POPC   C1B41995  16.766  12.387   6.154
 3239POPC   C2B41996  16.897  12.471   6.602
 3239POPC   C3B41997  16.855  12.184   6.954
 3239POPC   C4B41998  17.001  12.233   7.352
 3240POPC   NC341999   3.577  16.315   5.573
 3240POPC   PO442000   3.142  15.736   5.482
 3240POPC   GL142001   3.410  15.888   5.798
 3240POPC   GL242002   3.695  15.705   5.951
 3240POPC   C1A42003   3.415  16.030   6.236
 3240POPC   D2A42004   3.596  15.911   6.644
 3240POPC   C3A42005   3.382  15.981   7.041
 3240POPC   C4A42006   3.240  15.588   7.186
 3240POPC   C1B42007   3.934  16.063   6.206
 3240POPC   C2B42008   3.938  16.277   6.614
 3240POPC   C3B42009   3.910  16.110   7.034
 3240POPC   C4B42010   3.788  15.653   7.087
 3241POPC   NC342011  32.722   4.608   5.234
 3241POPC   PO442012  33.239   4.465   5.637
 3241POPC   GL142013  32.962   4.237   5.951
 3241POPC   GL242014  32.749   3.965   5.813
 3241POPC   C1A42015  32.967   4.274   6.440
 3241POPC   D2A42016  33.042   4.463   6.889
 3241POPC   C3A42017  33.214   4.220   7.266
 3241POPC   C4A42018  33.368   4.208   7.719
 3241POPC   C1B42019  32.734   3.847   6.265
 3241POPC   C2B42020  32.683   3.947   6.732
 3241POPC   C3B42021  32.460   4.089   7.126
 3241POPC   C4B42022  32.448   3.984   7.582
 3242POPC   NC342023  36.768  34.432   5.040
 3242POPC   PO442024  36.625  33.717   5.150
 3242POPC   GL142025  36.850  33.609   5.605
 3242POPC   GL242026  36.828  33.901   5.810
 3242POPC   C1A42027  36.953  33.534   6.098
 3242POPC   D2A42028  36.862  33.867   6.434
 3242POPC   C3A42029  37.127  33.892   6.835
 3242POPC   C4A42030  37.156  33.654   7.246
 3242POPC   C1B42031  36.499  34.060   6.063
 3242POPC   C2B42032  36.415  34.138   6.491
 3242POPC   C3B42033  36.584  33.952   6.876
 3242POPC   C4B42034  36.484  33.968   7.299
 3243POPC   NC342035   8.696  25.677   5.464
 3243POPC   PO442036   9.205  25.291   5.549
 3243POPC   GL142037   8.887  25.354   5.881
 3243POPC   GL242038   8.712  25.042   6.011
 3243POPC   C1A42039   8.824  25.476   6.301
 3243POPC   D2A42040   9.122  25.533   6.631
 3243POPC   C3A42041   8.873  25.463   6.972
 3243POPC   C4A42042   8.976  25.470   7.389
 3243POPC   C1B42043   9.031  24.958   6.285
 3243POPC   C2B42044   9.082  25.024   6.710
 3243POPC   C3B42045   8.951  24.950   7.103
 3243POPC   C4B42046   8.686  24.883   7.441
 3244POPC   NC342047  25.480   7.827   5.392
 3244POPC   PO442048  26.125   7.501   5.276
 3244POPC   GL142049  26.215   7.207   5.615
 3244POPC   GL242050  26.175   7.516   5.807
 3244POPC   C1A42051  26.190   7.121   6.098
 3244POPC   D2A42052  26.101   7.346   6.498
 3244POPC   C3A42053  25.819   7.306   6.858
 3244POPC   C4A42054  26.023   7.436   7.249
 3244POPC   C1B42055  25.867   7.615   6.109
 3244POPC   C2B42056  25.719   7.719   6.521
 3244POPC   C3B42057  25.838   7.810   6.926
 3244POPC   C4B42058  25.941   7.929   7.319
 3245POPC   NC342059  34.213  40.025   5.443
 3245POPC   PO442060  34.836  39.910   5.312
 3245POPC   GL142061  34.642  39.941   5.707
 3245POPC   GL242062  34.576  40.313   5.667
 3245POPC   C1A42063  34.403  39.918   6.115
 3245POPC   D2A42064  34.615  39.826   6.516
 3245POPC   C3A42065  34.371  39.775   6.886
 3245POPC   C4A42066  34.523  39.869   7.284
 3245POPC   C1B42067  34.368  40.428   6.046
 3245POPC   C2B42068  34.443  40.308   6.492
 3245POPC   C3B42069  34.640  40.226   6.911
 3245POPC   C4B42070  34.686  40.357   7.361
 3246POPC   NC342071  39.814  31.318   5.380
 3246POPC   PO442072  40.390  31.028   5.358
 3246POPC   GL142073  40.197  31.340   5.723
 3246POPC   GL242074  39.825  31.399   5.870
 3246POPC   C1A42075  40.203  31.548   6.153
 3246POPC   D2A42076  40.216  31.362   6.575
 3246POPC   C3A42077  40.056  31.534   6.941
 3246POPC   C4A42078  40.115  31.180   7.189
 3246POPC   C1B42079  39.853  31.133   6.262
 3246POPC   C2B42080  39.672  31.100   6.691
 3246POPC   C3B42081  39.608  31.305   7.083
 3246POPC   C4B42082  39.635  31.757   7.147
 3247POPC   NC342083   8.446  13.414   5.580
 3247POPC   PO442084   7.899  13.444   5.218
 3247POPC   GL142085   7.975  13.645   5.691
 3247POPC   GL242086   8.296  13.891   5.769
 3247POPC   C1A42087   8.004  13.820   6.162
 3247POPC   D2A42088   8.169  13.865   6.584
 3247POPC   C3A42089   8.075  13.528   6.858
 3247POPC   C4A42090   7.972  13.609   7.281
 3247POPC   C1B42091   8.519  13.692   6.193
 3247POPC   C2B42092   8.582  13.565   6.654
 3247POPC   C3B42093   8.511  13.654   7.081
 3247POPC   C4B42094   8.390  13.333   7.364
 3248POPC   NC342095  25.041   4.639   5.107
 3248POPC   PO442096  25.487   4.221   5.406
 3248POPC   GL142097  25.291   4.418   5.748
 3248POPC   GL242098  24.958   4.504   5.639
 3248POPC   C1A42099  25.408   4.335   6.183
 3248POPC   D2A42100  25.667   4.396   6.551
 3248POPC   C3A42101  25.448   4.531   6.912
 3248POPC   C4A42102  25.323   4.217   7.217
 3248POPC   C1B42103  24.909   4.453   6.107
 3248POPC   C2B42104  25.081   4.528   6.550
 3248POPC   C3B42105  24.934   4.484   7.013
 3248POPC   C4B42106  24.827   4.165   7.326
 3249POPC   NC342107  30.288   2.176   5.459
 3249POPC   PO442108  30.823   1.786   5.392
 3249POPC   GL142109  30.627   1.877   5.771
 3249POPC   GL242110  30.688   2.226   5.783
 3249POPC   C1A42111  30.660   1.687   6.202
 3249POPC   D2A42112  30.759   1.848   6.617
 3249POPC   C3A42113  30.539   1.780   6.985
 3249POPC   C4A42114  30.774   1.638   7.316
 3249POPC   C1B42115  30.676   2.183   6.210
 3249POPC   C2B42116  30.812   2.355   6.569
 3249POPC   C3B42117  30.993   2.265   6.931
 3249POPC   C4B42118  30.836   2.146   7.289
 3250POPC   NC342119  20.092  11.070   5.428
 3250POPC   PO442120  20.036  11.732   5.588
 3250POPC   GL142121  20.185  11.475   5.972
 3250POPC   GL242122  20.126  11.130   5.927
 3250POPC   C1A42123  20.042  11.294   6.405
 3250POPC   D2A42124  19.591  11.285   6.612
 3250POPC   C3A42125  19.539  11.180   7.060
 3250POPC   C4A42126  19.680  11.373   7.448
 3250POPC   C1B42127  19.742  10.968   6.149
 3250POPC   C2B42128  19.785  10.820   6.595
 3250POPC   C3B42129  19.958  10.881   7.020
 3250POPC   C4B42130  20.146  10.667   7.393
 3251POPC   NC342131  19.544  16.110   5.682
 3251POPC   PO442132  19.689  15.591   5.331
 3251POPC   GL142133  19.831  15.668   5.760
 3251POPC   GL242134  19.531  15.650   5.929
 3251POPC   C1A42135  19.884  15.899   6.219
 3251POPC   D2A42136  19.715  15.910   6.672
 3251POPC   C3A42137  19.852  16.155   7.049
 3251POPC   C4A42138  19.882  16.292   7.485
 3251POPC   C1B42139  19.596  15.504   6.359
 3251POPC   C2B42140  19.483  15.450   6.786
 3251POPC   C3B42141  19.571  15.750   7.154
 3251POPC   C4B42142  19.789  15.795   7.560
 3252POPC   NC342143  41.479   3.938   5.567
 3252POPC   PO442144  41.746   3.348   5.426
 3252POPC   GL142145  41.580   3.475   5.847
 3252POPC   GL242146  41.317   3.670   5.949
 3252POPC   C1A42147  41.698   3.626   6.291
 3252POPC   D2A42148  41.879   3.775   6.732
 3252POPC   C3A42149  41.663   3.584   7.095
 3252POPC   C4A42150  41.259   3.357   7.042
 3252POPC   C1B42151  41.161   3.679   6.326
 3252POPC   C2B42152  41.366   3.703   6.673
 3252POPC   C3B42153  41.377   3.972   6.973
 3252POPC   C4B42154  41.200   3.807   7.313
 3253POPC   NC342155  22.517  36.294   5.106
 3253POPC   PO442156  22.166  35.880   5.547
 3253POPC   GL142157  22.046  36.215   5.795
 3253POPC   GL242158  21.850  36.022   6.017
 3253POPC   C1A42159  22.145  36.432   6.179
 3253POPC   D2A42160  22.115  36.400   6.628
 3253POPC   C3A42161  22.446  36.310   6.930
 3253POPC   C4A42162  22.158  36.210   7.233
 3253POPC   C1B42163  22.194  35.958   6.339
 3253POPC   C2B42164  22.186  35.891   6.777
 3253POPC   C3B42165  22.038  35.729   7.154
 3253POPC   C4B42166  21.954  35.762   7.608
 3254POPC   NC342167  40.374  10.810   5.575
 3254POPC   PO442168  40.142  10.300   5.177
 3254POPC   GL142169  40.022  10.431   5.652
 3254POPC   GL242170  40.328  10.423   5.882
 3254POPC   C1A42171  39.861  10.630   6.085
 3254POPC   D2A42172  39.967  10.796   6.506
 3254POPC   C3A42173  39.839  10.607   6.894
 3254POPC   C4A42174  39.820  10.668   7.271
 3254POPC   C1B42175  40.391  10.558   6.331
 3254POPC   C2B42176  40.333  10.584   6.797
 3254POPC   C3B42177  40.194  10.961   7.076
 3254POPC   C4B42178  40.110  11.023   7.544
 3255POPC   NC342179  43.839  40.278   5.549
 3255POPC   PO442180  44.030  39.654   5.479
 3255POPC   GL142181  43.951  39.882   5.848
 3255POPC   GL242182  44.212  40.106   5.887
 3255POPC   C1A42183  43.644  40.017   6.164
 3255POPC   D2A42184  43.627  40.061   6.603
 3255POPC   C3A42185  43.583  39.745   6.891
 3255POPC   C4A42186  43.666  39.942   7.283
 3255POPC   C1B42187  44.118  40.155   6.314
 3255POPC   C2B42188  44.311  40.144   6.719
 3255POPC   C3B42189  44.131  40.055   7.124
 3255POPC   C4B42190  43.983  40.302   7.472
 3256POPC   NC342191   2.279  25.705   5.441
 3256POPC   PO442192   1.636  25.859   5.303
 3256POPC   GL142193   1.828  25.986   5.772
 3256POPC   GL242194   1.906  26.358   5.892
 3256POPC   C1A42195   2.001  25.974   6.244
 3256POPC   D2A42196   2.125  25.739   6.672
 3256POPC   C3A42197   1.866  25.765   7.095
 3256POPC   C4A42198   1.863  25.616   7.557
 3256POPC   C1B42199   2.293  26.399   6.200
 3256POPC   C2B42200   2.418  26.204   6.599
 3256POPC   C3B42201   2.182  26.160   6.980
 3256POPC   C4B42202   2.187  26.420   7.349
 3257POPC   NC342203  41.628  38.098   5.012
 3257POPC   PO442204  41.271  38.585   5.446
 3257POPC   GL142205  41.450  38.466   5.857
 3257POPC   GL242206  41.817  38.376   5.854
 3257POPC   C1A42207  41.256  38.378   6.270
 3257POPC   D2A42208  41.280  38.287   6.709
 3257POPC   C3A42209  41.485  38.655   6.892
 3257POPC   C4A42210  41.591  38.957   7.175
 3257POPC   C1B42211  41.733  38.170   6.277
 3257POPC   C2B42212  41.841  38.356   6.675
 3257POPC   C3B42213  42.044  38.525   7.058
 3257POPC   C4B42214  42.048  38.392   7.525
 3258POPC   NC342215   4.146  20.871   5.491
 3258POPC   PO442216   4.432  20.331   5.225
 3258POPC   GL142217   4.368  20.379   5.707
 3258POPC   GL242218   4.493  20.683   5.802
 3258POPC   C1A42219   4.555  20.334   6.171
 3258POPC   D2A42220   4.525  20.599   6.550
 3258POPC   C3A42221   4.448  20.480   6.991
 3258POPC   C4A42222   4.018  20.449   7.081
 3258POPC   C1B42223   4.285  20.855   6.165
 3258POPC   C2B42224   4.326  21.068   6.554
 3258POPC   C3B42225   4.271  20.974   6.978
 3258POPC   C4B42226   4.619  20.937   7.204
 3259POPC   NC342227  32.674  35.142   5.327
 3259POPC   PO442228  33.324  35.127   5.475
 3259POPC   GL142229  33.099  35.297   5.816
 3259POPC   GL242230  32.734  35.347   5.783
 3259POPC   C1A42231  33.234  35.318   6.240
 3259POPC   D2A42232  33.407  35.584   6.542
 3259POPC   C3A42233  33.217  35.526   6.925
 3259POPC   C4A42234  33.353  35.490   7.322
 3259POPC   C1B42235  32.829  35.639   6.110
 3259POPC   C2B42236  32.844  35.562   6.555
 3259POPC   C3B42237  32.757  35.772   6.959
 3259POPC   C4B42238  32.806  35.613   7.364
 3260POPC   NC342239  20.047  22.231   5.406
 3260POPC   PO442240  19.502  22.566   5.526
 3260POPC   GL142241  19.700  22.253   5.868
 3260POPC   GL242242  19.991  22.010   5.862
 3260POPC   C1A42243  19.827  22.133   6.315
 3260POPC   D2A42244  19.796  22.331   6.723
 3260POPC   C3A42245  19.840  22.095   7.094
 3260POPC   C4A42246  19.857  22.135   7.535
 3260POPC   C1B42247  20.265  21.866   6.223
 3260POPC   C2B42248  20.176  21.863   6.686
 3260POPC   C3B42249  20.290  21.875   7.142
 3260POPC   C4B42250  20.339  21.981   7.565
 3261POPC   NC342251  33.435  21.448   5.464
 3261POPC   PO442252  34.100  21.326   5.416
 3261POPC   GL142253  34.099  21.130   5.822
 3261POPC   GL242254  33.757  21.054   5.733
 3261POPC   C1A42255  34.132  21.244   6.283
 3261POPC   D2A42256  33.951  21.549   6.586
 3261POPC   C3A42257  33.997  21.516   7.020
 3261POPC   C4A42258  34.300  21.301   7.247
 3261POPC   C1B42259  33.648  21.156   6.175
 3261POPC   C2B42260  33.729  21.078   6.650
 3261POPC   C3B42261  33.472  21.302   6.998
 3261POPC   C4B42262  33.377  21.295   7.465
 3262POPC   NC342263  37.846  23.621   5.497
 3262POPC   PO442264  37.274  23.990   5.413
 3262POPC   GL142265  37.509  23.877   5.796
 3262POPC   GL242266  37.484  23.530   5.887
 3262POPC   C1A42267  37.845  23.818   6.151
 3262POPC   D2A42268  37.993  23.649   6.594
 3262POPC   C3A42269  37.842  23.839   7.027
 3262POPC   C4A42270  37.882  24.239   7.297
 3262POPC   C1B42271  37.571  23.435   6.337
 3262POPC   C2B42272  37.550  23.478   6.785
 3262POPC   C3B42273  37.293  23.531   7.136
 3262POPC   C4B42274  37.422  23.522   7.585
 3263POPC   NC342275  37.972  19.456   5.442
 3263POPC   PO442276  37.508  18.910   5.384
 3263POPC   GL142277  37.635  18.858   5.797
 3263POPC   GL242278  37.683  19.227   5.816
 3263POPC   C1A42279  37.470  18.960   6.197
 3263POPC   D2A42280  37.593  19.273   6.477
 3263POPC   C3A42281  37.700  19.089   6.843
 3263POPC   C4A42282  37.477  19.089   7.211
 3263POPC   C1B42283  37.948  19.395   6.116
 3263POPC   C2B42284  38.063  19.449   6.558
 3263POPC   C3B42285  38.177  19.232   6.939
 3263POPC   C4B42286  37.973  19.102   7.312
 3264POPC   NC342287  17.175  38.318   5.449
 3264POPC   PO442288  17.722  38.099   5.413
 3264POPC   GL142289  17.577  38.458   5.736
 3264POPC   GL242290  17.382  38.782   5.622
 3264POPC   C1A42291  17.482  38.337   6.183
 3264POPC   D2A42292  17.752  38.167   6.505
 3264POPC   C3A42293  17.648  38.291   6.936
 3264POPC   C4A42294  17.356  38.057   7.221
 3264POPC   C1B42295  17.331  38.798   6.057
 3264POPC   C2B42296  17.180  38.638   6.464
 3264POPC   C3B42297  17.257  38.683   6.891
 3264POPC   C4B42298  17.189  38.572   7.313
 3265POPC   NC342299  30.572  13.875   5.461
 3265POPC   PO442300  30.553  14.468   5.410
 3265POPC   GL142301  30.647  14.276   5.806
 3265POPC   GL242302  30.424  14.510   5.932
 3265POPC   C1A42303  30.854  14.241   6.214
 3265POPC   D2A42304  30.671  14.167   6.638
 3265POPC   C3A42305  30.872  14.290   7.030
 3265POPC   C4A42306  30.765  14.229   7.477
 3265POPC   C1B42307  30.426  14.495   6.347
 3265POPC   C2B42308  30.470  14.735   6.668
 3265POPC   C3B42309  30.433  14.700   7.093
 3265POPC   C4B42310  30.390  14.984   7.398
 3266POPC   NC342311   4.532  26.266   5.478
 3266POPC   PO442312   4.049  25.776   5.331
 3266POPC   GL142313   4.156  25.979   5.744
 3266POPC   GL242314   4.514  25.899   5.839
 3266POPC   C1A42315   4.179  25.889   6.210
 3266POPC   D2A42316   4.454  25.869   6.592
 3266POPC   C3A42317   4.260  26.125   6.923
 3266POPC   C4A42318   3.980  26.181   7.292
 3266POPC   C1B42319   4.598  26.197   6.193
 3266POPC   C2B42320   4.675  26.421   6.611
 3266POPC   C3B42321   4.692  26.390   7.068
 3266POPC   C4B42322   4.616  25.999   7.266
 3267POPC   NC342323  33.250   9.572   5.379
 3267POPC   PO442324  32.764   9.921   5.096
 3267POPC   GL142325  32.834   9.735   5.631
 3267POPC   GL242326  32.936   9.429   5.762
 3267POPC   C1A42327  32.911   9.966   6.074
 3267POPC   D2A42328  33.175  10.080   6.463
 3267POPC   C3A42329  32.982  10.085   6.890
 3267POPC   C4A42330  33.215   9.959   7.247
 3267POPC   C1B42331  32.784   9.488   6.177
 3267POPC   C2B42332  32.763   9.726   6.562
 3267POPC   C3B42333  32.878   9.599   6.981
 3267POPC   C4B42334  32.997   9.517   7.361
 3268POPC   NC342335   0.935   8.533   5.620
 3268POPC   PO442336   1.497   8.107   5.392
 3268POPC   GL142337   1.267   8.217   5.795
 3268POPC   GL242338   1.374   8.574   5.874
 3268POPC   C1A42339   1.013   8.041   6.181
 3268POPC   D2A42340   0.922   8.249   6.621
 3268POPC   C3A42341   1.008   8.042   7.016
 3268POPC   C4A42342   1.120   8.178   7.446
 3268POPC   C1B42343   1.265   8.472   6.286
 3268POPC   C2B42344   1.233   8.665   6.684
 3268POPC   C3B42345   1.119   8.541   7.098
 3268POPC   C4B42346   1.320   8.683   7.498
 3269POPC   NC342347   2.327   4.199   5.038
 3269POPC   PO442348   1.941   3.755   5.404
 3269POPC   GL142349   1.996   4.025   5.781
 3269POPC   GL242350   2.371   3.971   5.770
 3269POPC   C1A42351   1.940   4.251   6.211
 3269POPC   D2A42352   2.060   4.596   6.521
 3269POPC   C3A42353   2.045   4.544   6.976
 3269POPC   C4A42354   1.822   4.370   7.313
 3269POPC   C1B42355   2.238   3.831   6.188
 3269POPC   C2B42356   2.173   3.943   6.616
 3269POPC   C3B42357   2.192   4.064   7.047
 3269POPC   C4B42358   2.304   4.221   7.483
 3270POPC   NC342359  39.693  36.000   5.397
 3270POPC   PO442360  40.256  36.358   5.404
 3270POPC   GL142361  40.191  36.028   5.729
 3270POPC   GL242362  39.849  35.953   5.879
 3270POPC   C1A42363  40.233  36.028   6.196
 3270POPC   D2A42364  39.980  36.032   6.573
 3270POPC   C3A42365  40.169  36.150   6.962
 3270POPC   C4A42366  40.442  35.877   7.153
 3270POPC   C1B42367  39.780  35.653   6.199
 3270POPC   C2B42368  39.653  35.663   6.618
 3270POPC   C3B42369  39.746  35.866   7.031
 3270POPC   C4B42370  39.627  35.795   7.455
 3271POPC   NC342371   0.232  39.328   5.473
 3271POPC   PO442372   0.778  38.960   5.601
 3271POPC   GL142373   0.470  39.140   5.897
 3271POPC   GL242374   0.281  38.864   5.979
 3271POPC   C1A42375   0.312  39.217   6.366
 3271POPC   D2A42376   0.415  39.447   6.765
 3271POPC   C3A42377   0.741  39.465   7.149
 3271POPC   C4A42378   0.654  39.546   7.657
 3271POPC   C1B42379   0.616  38.817   6.286
 3271POPC   C2B42380   0.539  38.908   6.712
 3271POPC   C3B42381   0.227  38.950   6.970
 3271POPC   C4B42382   0.274  39.324   7.237
 3272POPC   NC342383   2.385  18.920   5.367
 3272POPC   PO442384   3.009  19.046   5.357
 3272POPC   GL142385   2.803  18.879   5.726
 3272POPC   GL242386   2.548  19.124   5.799
 3272POPC   C1A42387   2.929  18.982   6.158
 3272POPC   D2A42388   3.243  18.981   6.468
 3272POPC   C3A42389   3.072  18.816   6.824
 3272POPC   C4A42390   2.966  18.999   7.222
 3272POPC   C1B42391   2.425  18.901   6.154
 3272POPC   C2B42392   2.629  18.764   6.519
 3272POPC   C3B42393   2.568  18.874   6.913
 3272POPC   C4B42394   2.467  19.054   7.272
 3273POPC   NC342395  35.758  26.629   5.100
 3273POPC   PO442396  35.308  26.794   5.577
 3273POPC   GL142397  35.410  26.963   5.942
 3273POPC   GL242398  35.553  27.258   5.901
 3273POPC   C1A42399  35.384  26.805   6.339
 3273POPC   D2A42400  35.149  26.761   6.701
 3273POPC   C3A42401  35.332  26.582   7.076
 3273POPC   C4A42402  35.180  26.502   7.498
 3273POPC   C1B42403  35.412  27.335   6.319
 3273POPC   C2B42404  35.488  27.138   6.729
 3273POPC   C3B42405  35.243  27.083   7.086
 3273POPC   C4B42406  35.413  26.991   7.460
 3274POPC   NC342407  40.300  28.825   5.589
 3274POPC   PO442408  39.871  28.251   5.491
 3274POPC   GL142409  40.020  28.459   5.835
 3274POPC   GL242410  40.346  28.329   5.876
 3274POPC   C1A42411  40.021  28.602   6.248
 3274POPC   D2A42412  39.787  28.589   6.633
 3274POPC   C3A42413  40.040  28.490   6.965
 3274POPC   C4A42414  39.911  28.318   7.306
 3274POPC   C1B42415  40.107  28.074   6.170
 3274POPC   C2B42416  39.969  28.107   6.575
 3274POPC   C3B42417  40.135  27.963   6.925
 3274POPC   C4B42418  40.356  28.058   7.278
 3275POPC   NC342419  23.541  23.358   5.399
 3275POPC   PO442420  23.909  22.729   5.569
 3275POPC   GL142421  23.798  22.914   5.928
 3275POPC   GL242422  23.450  22.804   5.983
 3275POPC   C1A42423  23.967  23.002   6.320
 3275POPC   D2A42424  23.751  23.101   6.699
 3275POPC   C3A42425  23.956  23.125   7.088
 3275POPC   C4A42426  23.839  23.169   7.523
 3275POPC   C1B42427  23.320  23.040   6.378
 3275POPC   C2B42428  23.262  23.105   6.845
 3275POPC   C3B42429  23.414  23.017   7.245
 3275POPC   C4B42430  23.340  23.181   7.668
 3276POPC   NC342431   9.696  33.759   5.379
 3276POPC   PO442432   9.842  34.401   5.312
 3276POPC   GL142433   9.634  34.123   5.737
 3276POPC   GL242434   9.885  33.923   5.844
 3276POPC   C1A42435   9.486  33.933   6.169
 3276POPC   D2A42436   9.584  33.719   6.587
 3276POPC   C3A42437   9.507  33.893   6.979
 3276POPC   C4A42438   9.721  33.847   7.357
 3276POPC   C1B42439  10.061  33.863   6.223
 3276POPC   C2B42440  10.110  33.612   6.570
 3276POPC   C3B42441   9.944  33.593   6.964
 3276POPC   C4B42442  10.125  33.523   7.373
 3277POPC   NC342443  17.406  35.973   5.375
 3277POPC   PO442444  16.932  36.195   5.559
 3277POPC   GL142445  17.270  36.019   5.870
 3277POPC   GL242446  17.590  35.799   5.826
 3277POPC   C1A42447  17.526  36.142   6.247
 3277POPC   D2A42448  17.585  36.386   6.654
 3277POPC   C3A42449  17.553  36.177   7.049
 3277POPC   C4A42450  17.596  36.181   7.495
 3277POPC   C1B42451  17.868  35.749   6.222
 3277POPC   C2B42452  17.818  35.776   6.716
 3277POPC   C3B42453  17.824  35.776   7.208
 3277POPC   C4B42454  17.736  35.718   7.668
 3278POPC   NC342455  43.574   1.820   5.446
 3278POPC   PO442456  44.132   2.258   5.401
 3278POPC   GL142457  43.843   2.155   5.738
 3278POPC   GL242458  43.991   1.826   5.810
 3278POPC   C1A42459  43.636   2.256   6.136
 3278POPC   D2A42460  43.776   2.140   6.557
 3278POPC   C3A42461  43.648   2.302   6.957
 3278POPC   C4A42462  43.703   2.138   7.383
 3278POPC   C1B42463  43.692   1.750   6.147
 3278POPC   C2B42464  43.522   1.691   6.567
 3278POPC   C3B42465  43.652   1.778   6.970
 3278POPC   C4B42466  43.353   1.777   7.237
 3279POPC   NC342467  44.858  18.389   5.309
 3279POPC   PO442468  44.325  18.404   5.633
 3279POPC   GL142469  44.566  18.218   5.879
 3279POPC   GL242470  44.829  18.476   5.834
 3279POPC   C1A42471  44.431  18.217   6.291
 3279POPC   D2A42472  44.654  18.233   6.654
 3279POPC   C3A42473  44.466  18.405   7.011
 3279POPC   C4A42474  44.690  18.210   7.317
 3279POPC   C1B42475  44.730  18.637   6.260
 3279POPC   C2B42476  44.870  18.711   6.694
 3279POPC   C3B42477  44.882  18.660   7.153
 3279POPC   C4B42478   0.001  18.829   7.563
 3280POPC   NC342479   7.249  21.112   5.115
 3280POPC   PO442480   7.779  21.495   5.397
 3280POPC   GL142481   7.567  21.310   5.761
 3280POPC   GL242482   7.293  21.526   5.847
 3280POPC   C1A42483   7.516  21.220   6.208
 3280POPC   D2A42484   7.701  21.472   6.538
 3280POPC   C3A42485   7.592  21.366   6.921
 3280POPC   C4A42486   7.182  21.363   7.112
 3280POPC   C1B42487   7.253  21.676   6.279
 3280POPC   C2B42488   7.237  21.734   6.718
 3280POPC   C3B42489   7.417  21.804   7.103
 3280POPC   C4B42490   7.429  21.817   7.530
 3281POPC   NC342491  14.326  25.101   5.290
 3281POPC   PO442492  14.504  25.730   5.412
 3281POPC   GL142493  14.391  25.421   5.741
 3281POPC   GL242494  14.468  25.058   5.792
 3281POPC   C1A42495  14.471  25.344   6.198
 3281POPC   D2A42496  14.239  25.349   6.564
 3281POPC   C3A42497  14.447  25.202   6.934
 3281POPC   C4A42498  14.238  25.015   7.255
 3281POPC   C1B42499  14.761  24.890   6.130
 3281POPC   C2B42500  14.936  24.845   6.548
 3281POPC   C3B42501  14.892  24.674   6.952
 3281POPC   C4B42502  14.725  24.787   7.358
 3282POPC   NC342503  22.162  13.195   5.040
 3282POPC   PO442504  22.288  12.621   5.336
 3282POPC   GL142505  22.081  12.778   5.705
 3282POPC   GL242506  22.114  13.144   5.706
 3282POPC   C1A42507  22.119  12.655   6.158
 3282POPC   D2A42508  22.326  12.815   6.550
 3282POPC   C3A42509  22.136  12.705   6.942
 3282POPC   C4A42510  22.244  12.541   7.313
 3282POPC   C1B42511  22.224  13.147   6.147
 3282POPC   C2B42512  22.015  13.221   6.562
 3282POPC   C3B42513  22.227  13.203   6.955
 3282POPC   C4B42514  22.154  13.073   7.380
 3283POPC   NC342515  25.087  37.014   5.126
 3283POPC   PO442516  25.459  36.459   5.385
 3283POPC   GL142517  25.190  36.726   5.670
 3283POPC   GL242518  24.893  36.603   5.830
 3283POPC   C1A42519  25.216  36.979   6.072
 3283POPC   D2A42520  25.542  37.061   6.407
 3283POPC   C3A42521  25.406  37.033   6.843
 3283POPC   C4A42522  25.153  36.844   7.182
 3283POPC   C1B42523  25.028  36.529   6.271
 3283POPC   C2B42524  25.035  36.648   6.703
 3283POPC   C3B42525  24.822  36.485   7.081
 3283POPC   C4B42526  24.920  36.339   7.501
 3284POPC   NC342527  25.728  39.146   5.487
 3284POPC   PO442528  26.361  39.403   5.474
 3284POPC   GL142529  26.106  39.180   5.836
 3284POPC   GL242530  25.860  38.899   5.907
 3284POPC   C1A42531  25.917  39.269   6.254
 3284POPC   D2A42532  26.086  39.494   6.625
 3284POPC   C3A42533  26.299  39.268   6.969
 3284POPC   C4A42534  26.053  39.258   7.332
 3284POPC   C1B42535  26.152  38.806   6.192
 3284POPC   C2B42536  26.147  38.946   6.597
 3284POPC   C3B42537  25.828  39.005   6.912
 3284POPC   C4B42538  25.819  38.807   7.296
 3285POPC   NC342539  38.791  17.891   5.399
 3285POPC   PO442540  38.341  18.358   5.409
 3285POPC   GL142541  38.353  18.082   5.738
 3285POPC   GL242542  38.565  18.349   5.888
 3285POPC   C1A42543  38.366  17.944   6.153
 3285POPC   D2A42544  38.543  18.154   6.521
 3285POPC   C3A42545  38.400  18.267   6.958
 3285POPC   C4A42546  38.244  18.044   7.307
 3285POPC   C1B42547  38.582  18.713   6.199
 3285POPC   C2B42548  38.563  18.648   6.641
 3285POPC   C3B42549  38.566  18.775   7.050
 3285POPC   C4B42550  38.683  18.660   7.493
 3286POPC   NC342551  12.982  35.868   5.640
 3286POPC   PO442552  12.558  36.361   5.500
 3286POPC   GL142553  12.694  36.207   5.915
 3286POPC   GL242554  12.983  36.401   6.044
 3286POPC   C1A42555  12.691  36.092   6.365
 3286POPC   D2A42556  12.535  36.253   6.763
 3286POPC   C3A42557  12.687  36.046   7.128
 3286POPC   C4A42558  12.728  36.187   7.568
 3286POPC   C1B42559  13.196  36.105   6.307
 3286POPC   C2B42560  13.029  35.958   6.720
 3286POPC   C3B42561  13.208  35.988   7.106
 3286POPC   C4B42562  13.225  36.255   7.449
 3287POPC   NC342563  11.712  33.334   5.446
 3287POPC   PO442564  11.041  33.279   5.437
 3287POPC   GL142565  11.356  33.003   5.646
 3287POPC   GL242566  11.183  32.734   5.792
 3287POPC   C1A42567  11.555  33.085   6.064
 3287POPC   D2A42568  11.378  33.322   6.427
 3287POPC   C3A42569  11.559  33.304   6.839
 3287POPC   C4A42570  11.428  33.088   7.195
 3287POPC   C1B42571  11.398  32.593   6.167
 3287POPC   C2B42572  11.302  32.614   6.606
 3287POPC   C3B42573  11.276  32.623   7.040
 3287POPC   C4B42574  11.620  32.633   7.312
 3288POPC   NC342575   9.349   4.741   5.413
 3288POPC   PO442576   8.887   5.232   5.372
 3288POPC   GL142577   8.869   5.186   5.792
 3288POPC   GL242578   9.215   5.082   5.789
 3288POPC   C1A42579   8.967   5.206   6.227
 3288POPC   D2A42580   8.747   5.068   6.559
 3288POPC   C3A42581   8.989   5.020   6.891
 3288POPC   C4A42582   8.852   5.101   7.260
 3288POPC   C1B42583   9.233   4.751   6.109
 3288POPC   C2B42584   9.055   4.654   6.513
 3288POPC   C3B42585   9.278   4.610   6.901
 3288POPC   C4B42586   9.314   4.824   7.284
 3289POPC   NC342587  18.243  20.756   5.061
 3289POPC   PO442588  18.034  21.459   5.306
 3289POPC   GL142589  18.146  21.360   5.784
 3289POPC   GL242590  18.511  21.266   5.825
 3289POPC   C1A42591  18.324  21.582   6.188
 3289POPC   D2A42592  18.413  21.838   6.569
 3289POPC   C3A42593  18.492  21.656   6.971
 3289POPC   C4A42594  18.400  21.255   7.120
 3289POPC   C1B42595  18.431  21.097   6.214
 3289POPC   C2B42596  18.307  21.101   6.629
 3289POPC   C3B42597  18.646  20.893   6.837
 3289POPC   C4B42598  18.757  20.912   7.272
 3290POPC   NC342599  26.440  34.836   5.447
 3290POPC   PO442600  25.755  34.564   5.300
 3290POPC   GL142601  25.913  34.511   5.727
 3290POPC   GL242602  26.231  34.508   5.768
 3290POPC   C1A42603  25.980  34.313   6.159
 3290POPC   D2A42604  26.155  34.194   6.551
 3290POPC   C3A42605  26.015  34.359   6.916
 3290POPC   C4A42606  26.093  34.467   7.347
 3290POPC   C1B42607  26.289  34.720   6.160
 3290POPC   C2B42608  26.114  34.719   6.566
 3290POPC   C3B42609  26.257  34.815   7.000
 3290POPC   C4B42610  26.466  34.787   7.445
 3291POPC   NC342611   4.640  14.183   5.390
 3291POPC   PO442612   5.115  14.684   5.303
 3291POPC   GL142613   5.146  14.555   5.729
 3291POPC   GL242614   5.453  14.708   5.870
 3291POPC   C1A42615   4.978  14.623   6.141
 3291POPC   D2A42616   4.982  14.409   6.536
 3291POPC   C3A42617   5.030  14.494   6.954
 3291POPC   C4A42618   4.736  14.677   7.172
 3291POPC   C1B42619   5.447  14.456   6.275
 3291POPC   C2B42620   5.438  14.637   6.697
 3291POPC   C3B42621   5.532  14.639   7.158
 3291POPC   C4B42622   5.575  14.662   7.637
 3292POPC   NC342623  43.335  27.591   5.407
 3292POPC   PO442624  42.716  27.801   5.439
 3292POPC   GL142625  42.870  27.592   5.788
 3292POPC   GL242626  43.201  27.755   5.876
 3292POPC   C1A42627  42.892  27.568   6.235
 3292POPC   D2A42628  43.076  27.400   6.603
 3292POPC   C3A42629  43.067  27.685   6.938
 3292POPC   C4A42630  42.857  27.726   7.352
 3292POPC   C1B42631  43.332  27.364   6.114
 3292POPC   C2B42632  43.609  27.307   6.494
 3292POPC   C3B42633  43.573  27.413   6.937
 3292POPC   C4B42634  43.301  27.460   7.325
 3293POPC   NC342635  36.499  36.548   5.485
 3293POPC   PO442636  36.036  36.989   5.446
 3293POPC   GL142637  36.139  36.760   5.810
 3293POPC   GL242638  36.489  36.786   5.950
 3293POPC   C1A42639  36.067  36.676   6.237
 3293POPC   D2A42640  36.027  36.511   6.627
 3293POPC   C3A42641  36.105  36.765   6.988
 3293POPC   C4A42642  35.852  37.015   7.262
 3293POPC   C1B42643  36.274  37.164   6.155
 3293POPC   C2B42644  36.052  37.462   6.456
 3293POPC   C3B42645  36.043  37.299   6.893
 3293POPC   C4B42646  36.350  37.159   7.225
 3294POPC   NC342647  35.694  24.941   5.423
 3294POPC   PO442648  36.350  24.668   5.409
 3294POPC   GL142649  36.262  24.620   5.803
 3294POPC   GL242650  36.542  24.352   5.830
 3294POPC   C1A42651  36.108  24.447   6.185
 3294POPC   D2A42652  36.159  24.346   6.618
 3294POPC   C3A42653  35.879  24.584   6.869
 3294POPC   C4A42654  35.999  24.767   7.264
 3294POPC   C1B42655  36.587  24.654   6.174
 3294POPC   C2B42656  36.341  24.802   6.524
 3294POPC   C3B42657  36.393  24.687   6.950
 3294POPC   C4B42658  36.611  24.806   7.313
 3295POPC   NC342659  42.392  21.560   5.354
 3295POPC   PO442660  42.048  21.014   5.589
 3295POPC   GL142661  42.212  21.432   5.816
 3295POPC   GL242662  42.539  21.334   5.789
 3295POPC   C1A42663  42.493  21.593   6.213
 3295POPC   D2A42664  42.789  21.464   6.582
 3295POPC   C3A42665  42.634  21.583   6.995
 3295POPC   C4A42666  42.169  21.586   7.073
 3295POPC   C1B42667  42.346  21.102   6.166
 3295POPC   C2B42668  42.294  20.905   6.543
 3295POPC   C3B42669  42.179  21.049   6.945
 3295POPC   C4B42670  42.317  21.169   7.347
 3296POPC   NC342671   5.604  20.246   5.383
 3296POPC   PO442672   5.599  20.939   5.365
 3296POPC   GL142673   5.761  20.814   5.779
 3296POPC   GL242674   5.849  20.434   5.787
 3296POPC   C1A42675   5.914  20.719   6.213
 3296POPC   D2A42676   6.194  20.531   6.531
 3296POPC   C3A42677   5.993  20.595   6.913
 3296POPC   C4A42678   5.963  20.515   7.354
 3296POPC   C1B42679   5.847  20.194   6.193
 3296POPC   C2B42680   5.791  20.201   6.627
 3296POPC   C3B42681   5.724  20.184   7.056
 3296POPC   C4B42682   5.484  20.566   7.171
 3297POPC   NC342683   4.958  43.536   5.550
 3297POPC   PO442684   5.272  44.038   5.186
 3297POPC   GL142685   5.349  43.886   5.628
 3297POPC   GL242686   5.449  43.563   5.710
 3297POPC   C1A42687   5.222  43.923   6.065
 3297POPC   D2A42688   4.960  43.877   6.418
 3297POPC   C3A42689   5.034  43.831   6.851
 3297POPC   C4A42690   5.088  43.909   7.279
 3297POPC   C1B42691   5.493  43.525   6.165
 3297POPC   C2B42692   5.461  43.682   6.614
 3297POPC   C3B42693   5.431  43.567   7.102
 3297POPC   C4B42694   5.548  43.517   7.605
 3298POPC   NC342695   3.179  26.945   5.434
 3298POPC   PO442696   2.641  26.550   5.287
 3298POPC   GL142697   2.741  26.520   5.712
 3298POPC   GL242698   2.645  26.875   5.759
 3298POPC   C1A42699   2.928  26.639   6.116
 3298POPC   D2A42700   2.744  26.641   6.516
 3298POPC   C3A42701   2.909  26.413   6.849
 3298POPC   C4A42702   2.904  26.465   7.311
 3298POPC   C1B42703   2.428  26.902   6.172
 3298POPC   C2B42704   2.253  26.745   6.569
 3298POPC   C3B42705   2.442  26.609   6.947
 3298POPC   C4B42706   2.537  26.838   7.305
 3299POPC   NC342707   2.598  20.050   5.574
 3299POPC   PO442708   3.163  19.810   5.468
 3299POPC   GL142709   2.894  19.694   5.828
 3299POPC   GL242710   2.518  19.626   5.837
 3299POPC   C1A42711   2.772  19.863   6.242
 3299POPC   D2A42712   2.888  19.777   6.670
 3299POPC   C3A42713   2.617  19.868   7.046
 3299POPC   C4A42714   2.628  20.032   7.457
 3299POPC   C1B42715   2.599  19.390   6.235
 3299POPC   C2B42716   2.820  19.256   6.613
 3299POPC   C3B42717   2.792  19.407   7.030
 3299POPC   C4B42718   2.574  19.523   7.453
 3300POPC   NC342719   7.367  40.300   5.393
 3300POPC   PO442720   7.161  39.634   5.302
 3300POPC   GL142721   7.483  39.796   5.604
 3300POPC   GL242722   7.186  39.892   5.771
 3300POPC   C1A42723   7.700  39.707   6.029
 3300POPC   D2A42724   7.638  39.910   6.445
 3300POPC   C3A42725   7.778  39.780   6.817
 3300POPC   C4A42726   7.660  39.833   7.231
 3300POPC   C1B42727   7.351  40.117   6.105
 3300POPC   C2B42728   7.218  40.220   6.533
 3300POPC   C3B42729   7.359  40.096   6.921
 3300POPC   C4B42730   7.143  40.116   7.321
 3301POPC   NC342731  12.921  43.480   5.491
 3301POPC   PO442732  12.564  42.884   5.259
 3301POPC   GL142733  12.678  43.059   5.682
 3301POPC   GL242734  13.011  42.943   5.746
 3301POPC   C1A42735  12.678  43.240   6.126
 3301POPC   D2A42736  12.538  43.103   6.548
 3301POPC   C3A42737  12.765  43.078   6.970
 3301POPC   C4A42738  12.622  43.345   7.329
 3301POPC   C1B42739  13.126  43.009   6.188
 3301POPC   C2B42740  13.050  43.276   6.560
 3301POPC   C3B42741  13.148  43.414   6.990
 3301POPC   C4B42742  13.127  43.195   7.367
 3302POPC   NC342743   7.417  20.209   5.531
 3302POPC   PO442744   7.367  20.887   5.493
 3302POPC   GL142745   7.534  20.788   5.891
 3302POPC   GL242746   7.751  20.511   5.849
 3302POPC   C1A42747   7.357  20.532   6.252
 3302POPC   D2A42748   7.104  20.478   6.652
 3302POPC   C3A42749   7.145  20.848   6.897
 3302POPC   C4A42750   7.458  20.933   7.142
 3302POPC   C1B42751   7.860  20.686   6.283
 3302POPC   C2B42752   7.612  20.683   6.694
 3302POPC   C3B42753   7.517  20.429   7.065
 3302POPC   C4B42754   7.729  20.161   7.333
 3303POPC   NC342755  40.671  36.100   5.385
 3303POPC   PO442756  41.226  36.334   5.658
 3303POPC   GL142757  40.866  36.105   5.863
 3303POPC   GL242758  40.665  35.786   5.788
 3303POPC   C1A42759  40.775  36.003   6.288
 3303POPC   D2A42760  41.029  36.094   6.646
 3303POPC   C3A42761  40.813  36.199   7.014
 3303POPC   C4A42762  40.683  36.584   7.128
 3303POPC   C1B42763  40.985  35.609   6.049
 3303POPC   C2B42764  41.101  35.605   6.511
 3303POPC   C3B42765  41.056  35.711   6.997
 3303POPC   C4B42766  40.963  35.922   7.415
 3304POPC   NC342767   1.269   6.986   5.467
 3304POPC   PO442768   1.244   6.350   5.421
 3304POPC   GL142769   1.249   6.589   5.773
 3304POPC   GL242770   0.883   6.592   5.746
 3304POPC   C1A42771   1.446   6.714   6.171
 3304POPC   D2A42772   1.586   6.896   6.592
 3304POPC   C3A42773   1.370   6.718   6.934
 3304POPC   C4A42774   0.922   6.708   7.035
 3304POPC   C1B42775   0.982   6.383   6.151
 3304POPC   C2B42776   0.919   6.305   6.596
 3304POPC   C3B42777   1.029   6.205   7.016
 3304POPC   C4B42778   0.865   6.327   7.416
 3305POPC   NC342779  34.176  36.280   5.619
 3305POPC   PO442780  33.648  35.941   5.346
 3305POPC   GL142781  33.661  36.125   5.778
 3305POPC   GL242782  33.756  36.469   5.873
 3305POPC   C1A42783  33.765  35.931   6.185
 3305POPC   D2A42784  33.889  35.750   6.587
 3305POPC   C3A42785  33.622  35.891   6.949
 3305POPC   C4A42786  33.615  35.923   7.401
 3305POPC   C1B42787  33.845  36.421   6.347
 3305POPC   C2B42788  34.010  36.473   6.789
 3305POPC   C3B42789  34.041  36.540   7.243
 3305POPC   C4B42790  34.157  36.632   7.730
 3306POPC   NC342791   7.796  23.619   5.423
 3306POPC   PO442792   7.150  23.569   5.172
 3306POPC   GL142793   7.309  23.472   5.624
 3306POPC   GL242794   7.618  23.448   5.867
 3306POPC   C1A42795   7.143  23.474   6.073
 3306POPC   D2A42796   6.967  23.581   6.505
 3306POPC   C3A42797   7.258  23.605   6.883
 3306POPC   C4A42798   7.211  23.954   7.182
 3306POPC   C1B42799   7.612  23.643   6.318
 3306POPC   C2B42800   7.742  23.799   6.759
 3306POPC   C3B42801   7.788  23.822   7.223
 3306POPC   C4B42802   7.924  23.797   7.671
 3307POPC   NC342803  29.442   8.521   5.235
 3307POPC   PO442804  28.964   9.051   5.091
 3307POPC   GL142805  29.196   9.014   5.522
 3307POPC   GL242806  29.303   8.707   5.713
 3307POPC   C1A42807  29.206   9.158   5.978
 3307POPC   D2A42808  29.132   9.020   6.403
 3307POPC   C3A42809  29.137   9.013   6.861
 3307POPC   C4A42810  28.873   9.173   7.169
 3307POPC   C1B42811  29.329   8.579   6.174
 3307POPC   C2B42812  29.486   8.694   6.615
 3307POPC   C3B42813  29.351   8.563   7.031
 3307POPC   C4B42814  29.451   8.460   7.470
 3308POPC   NC342815  25.162  13.917   5.313
 3308POPC   PO442816  25.103  14.612   5.356
 3308POPC   GL142817  25.202  14.409   5.761
 3308POPC   GL242818  25.450  14.166   5.748
 3308POPC   C1A42819  25.452  14.488   6.167
 3308POPC   D2A42820  25.517  14.248   6.557
 3308POPC   C3A42821  25.443  14.427   6.964
 3308POPC   C4A42822  25.495  14.714   7.319
 3308POPC   C1B42823  25.264  14.037   6.167
 3308POPC   C2B42824  25.007  14.076   6.559
 3308POPC   C3B42825  25.066  14.080   7.020
 3308POPC   C4B42826  25.084  14.417   7.307
 3309POPC   NC342827  32.238  41.229   5.342
 3309POPC   PO442828  31.826  40.733   5.378
 3309POPC   GL142829  32.098  40.557   5.681
 3309POPC   GL242830  32.264  40.842   5.796
 3309POPC   C1A42831  32.161  40.444   6.124
 3309POPC   D2A42832  32.022  40.589   6.525
 3309POPC   C3A42833  32.175  40.501   6.950
 3309POPC   C4A42834  32.242  40.697   7.349
 3309POPC   C1B42835  32.233  40.992   6.243
 3309POPC   C2B42836  32.286  41.004   6.707
 3309POPC   C3B42837  32.039  41.095   7.075
 3309POPC   C4B42838  32.024  41.149   7.542
 3310POPC   NC342839  44.220  18.810   5.438
 3310POPC   PO442840  43.767  19.236   5.252
 3310POPC   GL142841  43.798  19.181   5.697
 3310POPC   GL242842  44.115  19.076   5.853
 3310POPC   C1A42843  43.712  19.150   6.149
 3310POPC   D2A42844  43.983  19.089   6.517
 3310POPC   C3A42845  43.705  19.107   6.847
 3310POPC   C4A42846  43.799  19.183   7.254
 3310POPC   C1B42847  44.081  18.711   6.166
 3310POPC   C2B42848  44.287  18.654   6.579
 3310POPC   C3B42849  44.127  18.816   6.981
 3310POPC   C4B42850  44.090  18.736   7.420
 3311POPC   NC342851  19.376  10.739   5.388
 3311POPC   PO442852  18.696  10.624   5.410
 3311POPC   GL142853  19.011  10.677   5.743
 3311POPC   GL242854  19.215  10.373   5.760
 3311POPC   C1A42855  19.259  10.723   6.133
 3311POPC   D2A42856  19.001  10.722   6.502
 3311POPC   C3A42857  19.161  10.853   6.872
 3311POPC   C4A42858  19.178  10.716   7.313
 3311POPC   C1B42859  18.901  10.345   6.127
 3311POPC   C2B42860  18.968  10.214   6.553
 3311POPC   C3B42861  19.067  10.337   6.952
 3311POPC   C4B42862  19.064  10.193   7.363
 3312POPC   NC342863   9.144   3.200   5.448
 3312POPC   PO442864   8.590   3.675   5.459
 3312POPC   GL142865   8.904   3.572   5.754
 3312POPC   GL242866   8.867   3.235   5.888
 3312POPC   C1A42867   9.075   3.762   6.134
 3312POPC   D2A42868   8.925   3.747   6.557
 3312POPC   C3A42869   9.118   3.736   6.946
 3312POPC   C4A42870   8.734   3.661   7.159
 3312POPC   C1B42871   8.976   3.283   6.335
 3312POPC   C2B42872   8.929   3.275   6.798
 3312POPC   C3B42873   9.137   3.291   7.207
 3312POPC   C4B42874   9.041   3.171   7.637
 3313POPC   NC342875  44.132  27.269   5.180
 3313POPC   PO442876  43.931  26.583   5.354
 3313POPC   GL142877  43.874  26.787   5.738
 3313POPC   GL242878  44.130  27.066   5.679
 3313POPC   C1A42879  43.883  26.639   6.191
 3313POPC   D2A42880  43.779  26.802   6.619
 3313POPC   C3A42881  43.913  26.677   7.041
 3313POPC   C4A42882  43.731  26.694   7.484
 3313POPC   C1B42883  44.252  26.983   6.134
 3313POPC   C2B42884  44.120  27.162   6.518
 3313POPC   C3B42885  44.058  27.148   6.947
 3313POPC   C4B42886  44.255  27.248   7.321
 3314POPC   NC342887  39.559  10.741   5.490
 3314POPC   PO442888  39.222  10.156   5.541
 3314POPC   GL142889  39.188  10.315   5.907
 3314POPC   GL242890  39.212  10.665   5.882
 3314POPC   C1A42891  39.376  10.260   6.287
 3314POPC   D2A42892  39.461  10.551   6.578
 3314POPC   C3A42893  39.318  10.458   6.990
 3314POPC   C4A42894  39.414  10.432   7.447
 3314POPC   C1B42895  39.075  10.761   6.299
 3314POPC   C2B42896  39.097  10.863   6.747
 3314POPC   C3B42897  38.941  10.762   7.181
 3314POPC   C4B42898  39.024  10.705   7.642
 3315POPC   NC342899  11.101  33.735   5.379
 3315POPC   PO442900  11.787  33.781   5.401
 3315POPC   GL142901  11.489  33.801   5.740
 3315POPC   GL242902  11.347  33.497   5.791
 3315POPC   C1A42903  11.534  33.912   6.180
 3315POPC   D2A42904  11.591  34.098   6.585
 3315POPC   C3A42905  11.443  33.890   6.919
 3315POPC   C4A42906  11.242  33.884   7.267
 3315POPC   C1B42907  11.102  33.645   6.121
 3315POPC   C2B42908  11.147  33.788   6.530
 3315POPC   C3B42909  11.085  33.520   6.913
 3315POPC   C4B42910  10.821  33.562   7.262
 3316POPC   NC342911   4.870  29.312   5.601
 3316POPC   PO442912   5.244  28.753   5.430
 3316POPC   GL142913   5.252  29.039   5.824
 3316POPC   GL242914   4.930  29.049   6.029
 3316POPC   C1A42915   5.303  29.317   6.222
 3316POPC   D2A42916   5.196  29.422   6.677
 3316POPC   C3A42917   5.277  29.141   6.999
 3316POPC   C4A42918   5.165  29.002   7.418
 3316POPC   C1B42919   4.793  29.333   6.357
 3316POPC   C2B42920   4.629  29.226   6.778
 3316POPC   C3B42921   4.834  29.321   7.175
 3316POPC   C4B42922   4.907  29.508   7.544
 3317POPC   NC342923  36.250  38.315   5.177
 3317POPC   PO442924  35.829  38.732   5.554
 3317POPC   GL142925  36.106  38.426   5.696
 3317POPC   GL242926  35.800  38.243   5.753
 3317POPC   C1A42927  36.381  38.414   6.055
 3317POPC   D2A42928  36.535  38.300   6.476
 3317POPC   C3A42929  36.360  38.418   6.884
 3317POPC   C4A42930  36.496  38.402   7.310
 3317POPC   C1B42931  35.868  38.403   6.167
 3317POPC   C2B42932  35.793  38.471   6.578
 3317POPC   C3B42933  35.818  38.246   6.934
 3317POPC   C4B42934  35.987  38.369   7.274
 3318POPC   NC342935  41.683  36.279   5.517
 3318POPC   PO442936  41.099  36.077   5.229
 3318POPC   GL142937  41.306  35.864   5.737
 3318POPC   GL242938  41.666  35.814   5.790
 3318POPC   C1A42939  41.339  36.006   6.225
 3318POPC   D2A42940  41.511  36.278   6.624
 3318POPC   C3A42941  41.329  36.168   7.064
 3318POPC   C4A42942  41.433  36.107   7.515
 3318POPC   C1B42943  41.849  35.899   6.228
 3318POPC   C2B42944  41.832  35.873   6.698
 3318POPC   C3B42945  41.841  36.077   7.120
 3318POPC   C4B42946  41.893  35.889   7.548
 3319POPC   NC342947   7.194  36.085   5.330
 3319POPC   PO442948   6.609  35.898   5.068
 3319POPC   GL142949   6.709  35.971   5.617
 3319POPC   GL242950   6.748  35.718   5.874
 3319POPC   C1A42951   6.737  36.228   6.068
 3319POPC   D2A42952   6.951  36.317   6.504
 3319POPC   C3A42953   6.860  36.549   6.894
 3319POPC   C4A42954   6.507  36.471   7.167
 3319POPC   C1B42955   6.779  35.763   6.348
 3319POPC   C2B42956   6.816  35.858   6.773
 3319POPC   C3B42957   6.503  35.946   7.103
 3319POPC   C4B42958   6.377  35.728   7.513
 3320POPC   NC342959  44.997   3.636   5.476
 3320POPC   PO442960  44.414   3.875   5.225
 3320POPC   GL142961  44.541   3.765   5.700
 3320POPC   GL242962  44.631   3.408   5.808
 3320POPC   C1A42963  44.748   3.781   6.151
 3320POPC   D2A42964  44.763   3.883   6.608
 3320POPC   C3A42965  44.411   3.812   6.876
 3320POPC   C4A42966  44.515   3.527   7.176
 3320POPC   C1B42967  44.635   3.255   6.253
 3320POPC   C2B42968  44.745   3.363   6.714
 3320POPC   C3B42969  44.941   3.232   7.129
 3320POPC   C4B42970  44.906   3.160   7.598
 3321POPC   NC342971  16.722  27.351   5.379
 3321POPC   PO442972  16.655  27.985   5.329
 3321POPC   GL142973  16.428  27.677   5.671
 3321POPC   GL242974  16.633  27.390   5.880
 3321POPC   C1A42975  16.337  27.721   6.125
 3321POPC   D2A42976  16.582  27.714   6.522
 3321POPC   C3A42977  17.067  27.695   6.585
 3321POPC   C4A42978  17.211  27.741   7.005
 3321POPC   C1B42979  16.849  27.329   6.304
 3321POPC   C2B42980  16.794  27.309   6.781
 3321POPC   C3B42981  16.733  27.311   7.223
 3321POPC   C4B42982  16.556  27.255   7.635
 3322POPC   NC342983   3.551  15.500   5.416
 3322POPC   PO442984   3.777  14.841   5.502
 3322POPC   GL142985   3.580  15.178   5.821
 3322POPC   GL242986   3.268  15.375   5.817
 3322POPC   C1A42987   3.469  15.361   6.266
 3322POPC   D2A42988   3.694  15.393   6.638
 3322POPC   C3A42989   3.646  15.021   6.873
 3322POPC   C4A42990   3.536  15.188   7.243
 3322POPC   C1B42991   3.168  14.974   6.041
 3322POPC   C2B42992   3.239  14.927   6.487
 3322POPC   C3B42993   3.158  15.163   6.860
 3322POPC   C4B42994   3.033  14.985   7.239
 3323POPC   NC342995  11.181   7.805   5.045
 3323POPC   PO442996  11.440   7.284   5.445
 3323POPC   GL142997  11.535   7.364   5.864
 3323POPC   GL242998  11.413   7.687   5.880
 3323POPC   C1A42999  11.626   7.150   6.263
 3323POPC   D2A43000  11.728   7.246   6.707
 3323POPC   C3A43001  11.434   7.410   7.019
 3323POPC   C4A43002  11.506   7.309   7.440
 3323POPC   C1B43003  11.227   7.510   6.246
 3323POPC   C2B43004  11.101   7.599   6.653
 3323POPC   C3B43005  10.946   7.715   7.041
 3323POPC   C4B43006  11.202   7.734   7.384
 3324POPC   NC343007  11.461  44.478   5.244
 3324POPC   PO443008  11.088   0.010   5.126
 3324POPC   GL143009  11.095  44.785   5.587
 3324POPC   GL243010  11.295  44.459   5.729
 3324POPC   C1A43011  11.126  44.784   6.074
 3324POPC   D2A43012  10.947  44.556   6.447
 3324POPC   C3A43013  11.121  44.569   6.853
 3324POPC   C4A43014  11.235  44.479   7.283
 3324POPC   C1B43015  11.555  44.469   6.125
 3324POPC   C2B43016  11.623  44.643   6.552
 3324POPC   C3B43017  11.626  44.474   6.973
 3324POPC   C4B43018  11.656  44.755   7.385
 3325POPC   NC343019  24.232  28.550   5.226
 3325POPC   PO443020  24.789  28.303   5.555
 3325POPC   GL143021  24.656  28.628   5.829
 3325POPC   GL243022  24.458  28.385   5.970
 3325POPC   C1A43023  24.522  28.778   6.252
 3325POPC   D2A43024  24.290  28.497   6.514
 3325POPC   C3A43025  24.447  28.421   6.912
 3325POPC   C4A43026  24.478  28.613   7.280
 3325POPC   C1B43027  24.494  28.012   6.196
 3325POPC   C2B43028  24.683  28.063   6.584
 3325POPC   C3B43029  24.855  28.025   6.948
 3325POPC   C4B43030  24.723  28.164   7.348
 3326POPC   NC343031  24.209  23.082   5.639
 3326POPC   PO443032  24.718  22.826   5.329
 3326POPC   GL143033  24.619  22.835   5.796
 3326POPC   GL243034  24.296  22.650   5.916
 3326POPC   C1A43035  24.606  22.998   6.244
 3326POPC   D2A43036  24.808  22.894   6.671
 3326POPC   C3A43037  24.639  23.123   7.006
 3326POPC   C4A43038  24.387  23.320   7.296
 3326POPC   C1B43039  24.301  22.607   6.369
 3326POPC   C2B43040  24.281  22.861   6.729
 3326POPC   C3B43041  24.298  22.750   7.151
 3326POPC   C4B43042  24.263  22.880   7.546
 3327POPC   NC343043   6.121  43.409   5.419
 3327POPC   PO443044   5.516  43.135   5.171
 3327POPC   GL143045   5.698  43.114   5.674
 3327POPC   GL243046   6.023  43.086   5.857
 3327POPC   C1A43047   5.625  43.029   6.152
 3327POPC   D2A43048   5.379  43.174   6.519
 3327POPC   C3A43049   5.535  43.079   6.918
 3327POPC   C4A43050   5.718  43.147   7.309
 3327POPC   C1B43051   6.105  42.814   6.232
 3327POPC   C2B43052   5.992  42.783   6.685
 3327POPC   C3B43053   6.284  42.726   7.043
 3327POPC   C4B43054   6.295  42.986   7.436
 3328POPC   NC343055  14.873  15.448   5.407
 3328POPC   PO443056  15.128  14.832   5.242
 3328POPC   GL143057  15.047  15.045   5.656
 3328POPC   GL243058  15.043  14.780   5.850
 3328POPC   C1A43059  15.257  15.215   6.067
 3328POPC   D2A43060  15.500  15.283   6.485
 3328POPC   C3A43061  15.299  15.278   6.912
 3328POPC   C4A43062  15.419  15.305   7.343
 3328POPC   C1B43063  14.822  14.956   6.175
 3328POPC   C2B43064  14.967  15.091   6.544
 3328POPC   C3B43065  15.071  14.794   6.870
 3328POPC   C4B43066  15.196  14.855   7.293
 3329POPC   NC343067   3.792   7.051   5.626
 3329POPC   PO443068   4.322   7.246   5.333
 3329POPC   GL143069   4.225   7.318   5.794
 3329POPC   GL243070   4.204   7.025   5.955
 3329POPC   C1A43071   4.232   7.551   6.222
 3329POPC   D2A43072   4.568   7.619   6.573
 3329POPC   C3A43073   4.464   7.377   6.949
 3329POPC   C4A43074   4.231   7.613   7.263
 3329POPC   C1B43075   3.900   7.165   6.277
 3329POPC   C2B43076   3.952   7.276   6.731
 3329POPC   C3B43077   4.063   7.115   7.150
 3329POPC   C4B43078   3.950   6.945   7.571
 3330POPC   NC343079  32.503  10.481   5.333
 3330POPC   PO443080  32.062  10.942   5.427
 3330POPC   GL143081  32.177  10.614   5.728
 3330POPC   GL243082  32.135  10.264   5.854
 3330POPC   C1A43083  32.105  10.649   6.186
 3330POPC   D2A43084  32.365  10.634   6.542
 3330POPC   C3A43085  32.125  10.665   6.873
 3330POPC   C4A43086  32.006  10.415   7.189
 3330POPC   C1B43087  32.531  10.384   6.084
 3330POPC   C2B43088  32.688  10.251   6.485
 3330POPC   C3B43089  32.491  10.268   6.892
 3330POPC   C4B43090  32.604  10.423   7.271
 3331POPC   NC343091  30.052  19.170   5.144
 3331POPC   PO443092  29.472  18.900   5.364
 3331POPC   GL143093  29.689  18.839   5.816
 3331POPC   GL243094  29.523  18.573   5.926
 3331POPC   C1A43095  29.855  18.863   6.311
 3331POPC   D2A43096  29.919  18.825   6.810
 3331POPC   C3A43097  30.014  19.236   7.108
 3331POPC   C4A43098  30.210  19.577   7.436
 3331POPC   C1B43099  29.356  18.830   6.242
 3331POPC   C2B43100  29.443  18.950   6.633
 3331POPC   C3B43101  29.425  18.728   7.014
 3331POPC   C4B43102  29.744  18.824   7.283
 3332POPC   NC343103  38.100  27.334   5.359
 3332POPC   PO443104  38.733  27.617   5.480
 3332POPC   GL143105  38.454  27.490   5.799
 3332POPC   GL243106  38.136  27.713   5.759
 3332POPC   C1A43107  38.607  27.539   6.222
 3332POPC   D2A43108  38.808  27.767   6.558
 3332POPC   C3A43109  38.623  27.728   6.947
 3332POPC   C4A43110  38.466  27.374   7.162
 3332POPC   C1B43111  38.106  27.557   6.197
 3332POPC   C2B43112  38.274  27.468   6.625
 3332POPC   C3B43113  38.052  27.629   6.982
 3332POPC   C4B43114  37.916  28.052   7.047
 3333POPC   NC343115  42.406  41.894   5.580
 3333POPC   PO443116  42.657  42.552   5.433
 3333POPC   GL143117  42.517  42.382   5.765
 3333POPC   GL243118  42.727  42.172   5.896
 3333POPC   C1A43119  42.340  42.355   6.175
 3333POPC   D2A43120  42.480  42.410   6.592
 3333POPC   C3A43121  42.222  42.185   6.842
 3333POPC   C4A43122  42.190  42.239   7.259
 3333POPC   C1B43123  42.780  42.100   6.310
 3333POPC   C2B43124  42.878  42.052   6.736
 3333POPC   C3B43125  42.618  41.973   7.082
 3333POPC   C4B43126  42.486  41.925   7.511
 3334POPC   NC343127  33.222  18.895   5.328
 3334POPC   PO443128  32.642  19.094   5.589
 3334POPC   GL143129  32.979  18.921   5.880
 3334POPC   GL243130  33.384  18.903   5.807
 3334POPC   C1A43131  32.899  18.823   6.362
 3334POPC   D2A43132  32.782  18.616   6.774
 3334POPC   C3A43133  32.925  18.894   7.111
 3334POPC   C4A43134  32.715  19.258   7.341
 3334POPC   C1B43135  33.512  18.910   6.241
 3334POPC   C2B43136  33.316  18.978   6.658
 3334POPC   C3B43137  33.421  19.070   7.083
 3334POPC   C4B43138  33.356  18.791   7.413
 3335POPC   NC343139   2.316  18.053   5.358
 3335POPC   PO443140   1.782  18.394   5.416
 3335POPC   GL143141   1.890  18.492   5.831
 3335POPC   GL243142   2.065  18.187   5.839
 3335POPC   C1A43143   1.728  18.357   6.245
 3335POPC   D2A43144   1.495  18.473   6.616
 3335POPC   C3A43145   1.735  18.442   7.024
 3335POPC   C4A43146   2.046  18.101   7.135
 3335POPC   C1B43147   2.285  18.405   6.167
 3335POPC   C2B43148   2.546  18.261   6.498
 3335POPC   C3B43149   2.471  18.350   6.910
 3335POPC   C4B43150   2.233  18.583   7.168
 3336POPC   NC343151  35.883  20.847   5.240
 3336POPC   PO443152  36.455  20.616   5.430
 3336POPC   GL143153  36.368  20.515   5.859
 3336POPC   GL243154  36.010  20.588   5.791
 3336POPC   C1A43155  36.242  20.634   6.298
 3336POPC   D2A43156  36.394  20.815   6.693
 3336POPC   C3A43157  36.382  20.523   6.993
 3336POPC   C4A43158  36.093  20.384   7.240
 3336POPC   C1B43159  35.747  20.801   6.104
 3336POPC   C2B43160  35.585  20.858   6.525
 3336POPC   C3B43161  35.877  20.724   6.848
 3336POPC   C4B43162  36.030  20.896   7.233
 3337POPC   NC343163  42.848  23.473   5.462
 3337POPC   PO443164  43.335  23.961   5.368
 3337POPC   GL143165  43.196  23.820   5.750
 3337POPC   GL243166  43.310  23.486   5.725
 3337POPC   C1A43167  43.106  23.809   6.184
 3337POPC   D2A43168  43.079  23.735   6.604
 3337POPC   C3A43169  43.263  23.952   6.927
 3337POPC   C4A43170  43.068  23.755   7.249
 3337POPC   C1B43171  43.232  23.304   6.133
 3337POPC   C2B43172  43.302  23.153   6.548
 3337POPC   C3B43173  43.231  23.358   6.925
 3337POPC   C4B43174  43.396  23.350   7.327
 3338POPC   NC343175  12.277  21.812   5.541
 3338POPC   PO443176  12.006  22.389   5.432
 3338POPC   GL143177  11.892  22.284   5.867
 3338POPC   GL243178  12.003  21.965   5.965
 3338POPC   C1A43179  11.901  22.317   6.339
 3338POPC   D2A43180  12.247  22.374   6.665
 3338POPC   C3A43181  12.131  22.230   7.091
 3338POPC   C4A43182  12.170  21.878   7.407
 3338POPC   C1B43183  12.064  21.792   6.376
 3338POPC   C2B43184  12.088  21.754   6.839
 3338POPC   C3B43185  11.817  21.610   7.172
 3338POPC   C4B43186  11.736  21.703   7.649
 3339POPC   NC343187  38.882  23.038   5.605
 3339POPC   PO443188  39.515  22.784   5.523
 3339POPC   GL143189  39.363  22.866   5.907
 3339POPC   GL243190  39.286  23.212   5.867
 3339POPC   C1A43191  39.560  23.043   6.298
 3339POPC   D2A43192  39.425  22.765   6.625
 3339POPC   C3A43193  39.077  22.720   6.903
 3339POPC   C4A43194  39.230  22.746   7.339
 3339POPC   C1B43195  39.062  23.104   6.267
 3339POPC   C2B43196  39.160  23.191   6.701
 3339POPC   C3B43197  39.053  23.183   7.140
 3339POPC   C4B43198  38.879  23.120   7.527
 3340POPC   NC343199  16.277  21.853   5.318
 3340POPC   PO443200  15.711  22.292   5.439
 3340POPC   GL143201  15.798  22.076   5.809
 3340POPC   GL243202  16.161  22.055   5.808
 3340POPC   C1A43203  15.910  21.863   6.214
 3340POPC   D2A43204  16.137  22.037   6.595
 3340POPC   C3A43205  15.863  22.238   6.899
 3340POPC   C4A43206  15.664  22.463   7.290
 3340POPC   C1B43207  16.140  22.358   6.179
 3340POPC   C2B43208  16.219  22.547   6.595
 3340POPC   C3B43209  16.342  22.547   7.017
 3340POPC   C4B43210  16.141  22.318   7.306
 3341POPC   NC343211  19.373   9.343   5.497
 3341POPC   PO443212  18.999   8.914   5.280
 3341POPC   GL143213  18.886   8.960   5.757
 3341POPC   GL243214  19.006   9.284   5.936
 3341POPC   C1A43215  18.697   8.962   6.177
 3341POPC   D2A43216  18.825   8.769   6.554
 3341POPC   C3A43217  19.007   9.025   6.857
 3341POPC   C4A43218  18.965   8.821   7.234
 3341POPC   C1B43219  19.204   8.945   6.227
 3341POPC   C2B43220  19.368   8.734   6.633
 3341POPC   C3B43221  19.460   8.808   7.094
 3341POPC   C4B43222  19.729   8.943   7.454
 3342POPC   NC343223  30.086   6.386   5.634
 3342POPC   PO443224  29.475   6.608   5.518
 3342POPC   GL143225  29.651   6.508   5.909
 3342POPC   GL243226  29.643   6.859   5.968
 3342POPC   C1A43227  29.863   6.478   6.342
 3342POPC   D2A43228  30.227   6.483   6.674
 3342POPC   C3A43229  30.026   6.396   7.077
 3342POPC   C4A43230  29.643   6.686   7.104
 3342POPC   C1B43231  29.873   6.996   6.316
 3342POPC   C2B43232  29.811   7.127   6.718
 3342POPC   C3B43233  30.101   7.160   7.016
 3342POPC   C4B43234  30.160   6.855   7.279
 3343POPC   NC343235  37.303  27.708   5.286
 3343POPC   PO443236  36.866  27.216   5.108
 3343POPC   GL143237  36.917  27.371   5.613
 3343POPC   GL243238  36.732  27.619   5.862
 3343POPC   C1A43239  37.023  27.281   6.089
 3343POPC   D2A43240  36.730  27.466   6.432
 3343POPC   C3A43241  36.868  27.586   6.864
 3343POPC   C4A43242  37.176  27.392   7.175
 3343POPC   C1B43243  36.443  27.834   6.168
 3343POPC   C2B43244  36.477  27.953   6.614
 3343POPC   C3B43245  36.359  27.705   6.992
 3343POPC   C4B43246  36.622  27.623   7.349
 3344POPC   NC343247  18.742  41.948   5.408
 3344POPC   PO443248  18.555  41.299   5.270
 3344POPC   GL143249  18.337  41.333   5.699
 3344POPC   GL243250  18.372  41.694   5.754
 3344POPC   C1A43251  18.125  41.303   6.135
 3344POPC   D2A43252  18.231  41.542   6.525
 3344POPC   C3A43253  18.189  41.405   6.952
 3344POPC   C4A43254  17.954  41.638   7.268
 3344POPC   C1B43255  18.596  41.920   6.090
 3344POPC   C2B43256  18.681  42.065   6.517
 3344POPC   C3B43257  18.649  41.832   6.903
 3344POPC   C4B43258  18.469  41.724   7.288
 3345POPC   NC343259  21.135  12.198   5.482
 3345POPC   PO443260  21.701  11.815   5.263
 3345POPC   GL143261  21.543  11.982   5.689
 3345POPC   GL243262  21.263  11.804   5.840
 3345POPC   C1A43263  21.394  12.249   6.088
 3345POPC   D2A43264  21.589  12.260   6.519
 3345POPC   C3A43265  21.389  12.195   6.937
 3345POPC   C4A43266  21.066  12.163   7.256
 3345POPC   C1B43267  21.641  11.823   6.173
 3345POPC   C2B43268  21.881  11.826   6.569
 3345POPC   C3B43269  21.749  11.828   6.980
 3345POPC   C4B43270  21.642  11.686   7.384
 3346POPC   NC343271  16.233   2.406   5.384
 3346POPC   PO443272  15.772   2.833   5.111
 3346POPC   GL143273  15.877   2.782   5.560
 3346POPC   GL243274  16.224   2.846   5.653
 3346POPC   C1A43275  15.809   2.888   5.993
 3346POPC   D2A43276  15.737   2.679   6.401
 3346POPC   C3A43277  15.857   2.750   6.820
 3346POPC   C4A43278  15.729   2.693   7.245
 3346POPC   C1B43279  16.274   2.687   6.087
 3346POPC   C2B43280  16.294   2.868   6.506
 3346POPC   C3B43281  16.403   2.693   6.876
 3346POPC   C4B43282  16.208   2.566   7.219
 3347POPC   NC343283  28.701   8.807   5.390
 3347POPC   PO443284  28.018   8.899   5.379
 3347POPC   GL143285  28.240   8.749   5.764
 3347POPC   GL243286  28.521   8.516   5.781
 3347POPC   C1A43287  28.404   8.921   6.177
 3347POPC   D2A43288  28.623   8.999   6.577
 3347POPC   C3A43289  28.359   9.092   6.970
 3347POPC   C4A43290  27.992   9.277   7.205
 3347POPC   C1B43291  28.819   8.641   6.156
 3347POPC   C2B43292  28.957   8.587   6.605
 3347POPC   C3B43293  28.714   8.726   6.988
 3347POPC   C4B43294  28.502   8.834   7.396
 3348POPC   NC343295   6.758   0.272   5.492
 3348POPC   PO443296   6.527   0.873   5.536
 3348POPC   GL143297   6.670   0.600   5.875
 3348POPC   GL243298   7.048   0.480   5.862
 3348POPC   C1A43299   6.760   0.542   6.294
 3348POPC   D2A43300   6.924   0.686   6.653
 3348POPC   C3A43301   6.624   0.524   6.932
 3348POPC   C4A43302   6.624   0.546   7.379
 3348POPC   C1B43303   7.077   0.158   6.204
 3348POPC   C2B43304   6.970   0.132   6.676
 3348POPC   C3B43305   7.019   0.274   7.131
 3348POPC   C4B43306   6.899   0.179   7.576
 3349POPC   NC343307  26.327  38.186   5.415
 3349POPC   PO443308  26.052  38.813   5.443
 3349POPC   GL143309  26.025  38.443   5.774
 3349POPC   GL243310  26.223  38.145   5.899
 3349POPC   C1A43311  25.844  38.374   6.187
 3349POPC   D2A43312  25.704  38.647   6.529
 3349POPC   C3A43313  25.700  38.477   6.933
 3349POPC   C4A43314  25.942  38.122   7.106
 3349POPC   C1B43315  26.274  38.065   6.319
 3349POPC   C2B43316  26.077  38.293   6.638
 3349POPC   C3B43317  26.196  38.580   6.960
 3349POPC   C4B43318  26.321  38.833   7.278
 3350POPC   NC343319   1.283   8.491   5.252
 3350POPC   PO443320   0.812   8.955   5.396
 3350POPC   GL143321   1.025   8.993   5.856
 3350POPC   GL243322   1.365   9.183   5.879
 3350POPC   C1A43323   0.919   8.880   6.310
 3350POPC   D2A43324   0.679   8.828   6.711
 3350POPC   C3A43325   0.885   8.977   7.100
 3350POPC   C4A43326   0.827   8.805   7.532
 3350POPC   C1B43327   1.412   8.971   6.250
 3350POPC   C2B43328   1.397   9.171   6.653
 3350POPC   C3B43329   1.402   8.980   7.065
 3350POPC   C4B43330   1.633   9.087   7.422
 3351POPC   NC343331  17.206  32.875   5.472
 3351POPC   PO443332  17.797  33.211   5.504
 3351POPC   GL143333  17.677  32.878   5.839
 3351POPC   GL243334  17.311  32.864   5.960
 3351POPC   C1A43335  17.687  32.813   6.311
 3351POPC   D2A43336  17.426  32.875   6.647
 3351POPC   C3A43337  17.600  32.781   7.064
 3351POPC   C4A43338  17.394  32.773   7.465
 3351POPC   C1B43339  17.135  33.181   6.236
 3351POPC   C2B43340  17.024  33.240   6.660
 3351POPC   C3B43341  17.119  33.005   7.038
 3351POPC   C4B43342  17.175  33.220   7.400
 3352POPC   NC343343   5.235  34.837   5.350
 3352POPC   PO443344   5.325  34.176   5.401
 3352POPC   GL143345   5.054  34.468   5.701
 3352POPC   GL243346   4.991  34.843   5.797
 3352POPC   C1A43347   4.890  34.390   6.123
 3352POPC   D2A43348   4.773  34.485   6.548
 3352POPC   C3A43349   4.976  34.365   6.917
 3352POPC   C4A43350   4.822  34.473   7.325
 3352POPC   C1B43351   5.298  34.732   6.093
 3352POPC   C2B43352   5.297  34.573   6.487
 3352POPC   C3B43353   5.377  34.777   6.869
 3352POPC   C4B43354   5.289  34.661   7.252
 3353POPC   NC343355   3.069  30.325   5.386
 3353POPC   PO443356   3.612  29.837   5.350
 3353POPC   GL143357   3.431  29.928   5.723
 3353POPC   GL243358   3.459  30.277   5.708
 3353POPC   C1A43359   3.471  29.757   6.139
 3353POPC   D2A43360   3.409  29.897   6.559
 3353POPC   C3A43361   3.662  29.687   6.851
 3353POPC   C4A43362   3.531  29.763   7.237
 3353POPC   C1B43363   3.358  30.267   6.142
 3353POPC   C2B43364   3.516  30.408   6.556
 3353POPC   C3B43365   3.512  30.217   6.973
 3353POPC   C4B43366   3.321  30.203   7.362
 3354POPC   NC343367  30.962  12.461   5.367
 3354POPC   PO443368  30.474  11.952   5.509
 3354POPC   GL143369  30.559  12.101   5.904
 3354POPC   GL243370  30.833  12.196   5.829
 3354POPC   C1A43371  30.512  12.035   6.345
 3354POPC   D2A43372  30.598  12.169   6.758
 3354POPC   C3A43373  30.740  11.872   7.037
 3354POPC   C4A43374  30.587  11.818   7.441
 3354POPC   C1B43375  30.688  12.477   6.201
 3354POPC   C2B43376  30.862  12.579   6.591
 3354POPC   C3B43377  30.683  12.620   6.989
 3354POPC   C4B43378  30.642  12.314   7.322
 3355POPC   NC343379  41.005  27.484   5.145
 3355POPC   PO443380  40.870  26.737   5.287
 3355POPC   GL143381  40.705  26.662   5.700
 3355POPC   GL243382  40.602  26.984   5.846
 3355POPC   C1A43383  40.921  26.581   6.098
 3355POPC   D2A43384  40.947  26.845   6.489
 3355POPC   C3A43385  40.907  26.643   6.892
 3355POPC   C4A43386  41.132  26.528   7.252
 3355POPC   C1B43387  40.477  26.794   6.244
 3355POPC   C2B43388  40.338  26.726   6.651
 3355POPC   C3B43389  40.443  26.780   7.059
 3355POPC   C4B43390  40.621  26.873   7.460
 3356POPC   NC343391  25.143  22.671   5.477
 3356POPC   PO443392  25.005  23.350   5.517
 3356POPC   GL143393  25.086  23.061   5.846
 3356POPC   GL243394  25.460  23.028   5.843
 3356POPC   C1A43395  25.117  22.899   6.267
 3356POPC   D2A43396  25.330  23.002   6.676
 3356POPC   C3A43397  25.135  23.244   6.999
 3356POPC   C4A43398  24.984  23.254   7.398
 3356POPC   C1B43399  25.630  22.850   6.241
 3356POPC   C2B43400  25.422  22.534   6.502
 3356POPC   C3B43401  25.224  22.545   6.905
 3356POPC   C4B43402  25.282  22.846   7.244
 3357POPC   NC343403  18.154  38.133   5.279
 3357POPC   PO443404  18.042  37.444   5.421
 3357POPC   GL143405  18.240  37.753   5.692
 3357POPC   GL243406  18.593  37.670   5.668
 3357POPC   C1A43407  18.447  37.858   6.122
 3357POPC   D2A43408  18.271  37.990   6.526
 3357POPC   C3A43409  18.249  37.729   6.884
 3357POPC   C4A43410  18.273  37.922   7.211
 3357POPC   C1B43411  18.866  37.579   6.010
 3357POPC   C2B43412  18.866  37.599   6.437
 3357POPC   C3B43413  18.747  37.726   6.838
 3357POPC   C4B43414  18.606  37.535   7.240
 3358POPC   NC343415  30.651  15.136   5.381
 3358POPC   PO443416  30.043  15.358   5.721
 3358POPC   GL143417  30.494  15.306   5.846
 3358POPC   GL243418  30.681  14.968   5.855
 3358POPC   C1A43419  30.813  15.344   6.180
 3358POPC   D2A43420  30.866  15.125   6.570
 3358POPC   C3A43421  30.646  15.136   6.939
 3358POPC   C4A43422  30.610  15.428   7.233
 3358POPC   C1B43423  30.838  14.768   6.209
 3358POPC   C2B43424  30.978  14.612   6.615
 3358POPC   C3B43425  31.029  14.778   7.051
 3358POPC   C4B43426  30.892  15.030   7.376
 3359POPC   NC343427  25.737  25.606   5.456
 3359POPC   PO443428  26.360  25.516   5.251
 3359POPC   GL143429  26.244  25.472   5.697
 3359POPC   GL243430  25.946  25.284   5.802
 3359POPC   C1A43431  26.369  25.314   6.135
 3359POPC   D2A43432  26.356  24.946   6.474
 3359POPC   C3A43433  26.218  25.092   6.906
 3359POPC   C4A43434  26.032  25.469   7.097
 3359POPC   C1B43435  25.883  25.614   6.129
 3359POPC   C2B43436  25.680  25.705   6.544
 3359POPC   C3B43437  25.538  25.531   6.948
 3359POPC   C4B43438  25.601  25.180   7.251
 3360POPC   NC343439  23.060  24.233   5.338
 3360POPC   PO443440  23.178  24.866   5.525
 3360POPC   GL143441  22.778  24.635   5.641
 3360POPC   GL243442  22.730  24.260   5.748
 3360POPC   C1A43443  22.642  24.647   6.082
 3360POPC   D2A43444  22.764  24.434   6.468
 3360POPC   C3A43445  22.793  24.716   6.830
 3360POPC   C4A43446  22.633  24.844   7.248
 3360POPC   C1B43447  22.911  23.995   6.083
 3360POPC   C2B43448  22.880  23.921   6.521
 3360POPC   C3B43449  23.044  24.141   6.883
 3360POPC   C4B43450  22.968  24.419   7.215
 3361POPC   NC343451   6.625  38.590   5.125
 3361POPC   PO443452   7.049  38.231   5.557
 3361POPC   GL143453   6.796  38.361   6.016
 3361POPC   GL243454   6.633  38.767   6.061
 3361POPC   C1A43455   6.689  38.196   6.402
 3361POPC   D2A43456   6.849  38.192   6.784
 3361POPC   C3A43457   6.568  38.317   7.036
 3361POPC   C4A43458   6.401  38.635   7.208
 3361POPC   C1B43459   6.821  38.705   6.425
 3361POPC   C2B43460   6.808  38.801   6.824
 3361POPC   C3B43461   6.928  38.627   7.178
 3361POPC   C4B43462   6.821  38.510   7.550
 3362POPC   NC343463   8.728  43.995   5.492
 3362POPC   PO443464   9.157  43.547   5.214
 3362POPC   GL143465   9.022  43.582   5.665
 3362POPC   GL243466   8.653  43.534   5.797
 3362POPC   C1A43467   9.018  43.669   6.124
 3362POPC   D2A43468   8.822  43.681   6.544
 3362POPC   C3A43469   9.142  43.698   6.870
 3362POPC   C4A43470   9.205  43.769   7.296
 3362POPC   C1B43471   8.525  43.871   6.124
 3362POPC   C2B43472   8.616  44.174   6.461
 3362POPC   C3B43473   8.820  44.116   6.859
 3362POPC   C4B43474   8.715  44.008   7.261
 3363POPC   NC343475  14.301   9.241   5.209
 3363POPC   PO443476  14.864   8.850   5.122
 3363POPC   GL143477  14.672   9.179   5.554
 3363POPC   GL243478  14.294   9.051   5.679
 3363POPC   C1A43479  14.578   9.189   6.076
 3363POPC   D2A43480  14.454   8.966   6.487
 3363POPC   C3A43481  14.564   9.031   6.943
 3363POPC   C4A43482  14.841   9.171   7.282
 3363POPC   C1B43483  14.049   9.112   6.072
 3363POPC   C2B43484  14.035   9.289   6.497
 3363POPC   C3B43485  14.018   9.119   6.902
 3363POPC   C4B43486  13.809   9.287   7.237
 3364POPC   NC343487  13.831  15.538   5.427
 3364POPC   PO443488  13.486  14.899   5.453
 3364POPC   GL143489  13.440  14.953   5.882
 3364POPC   GL243490  13.504  15.311   5.822
 3364POPC   C1A43491  13.619  14.917   6.294
 3364POPC   D2A43492  13.611  14.865   6.732
 3364POPC   C3A43493  13.971  14.984   6.987
 3364POPC   C4A43494  13.712  14.771   7.264
 3364POPC   C1B43495  13.749  15.426   6.195
 3364POPC   C2B43496  13.799  15.305   6.602
 3364POPC   C3B43497  13.602  15.320   7.000
 3364POPC   C4B43498  13.813  15.279   7.391
 3365POPC   NC343499   1.594  34.965   5.364
 3365POPC   PO443500   1.322  35.638   5.394
 3365POPC   GL143501   1.093  35.516   5.789
 3365POPC   GL243502   1.070  35.157   5.822
 3365POPC   C1A43503   1.180  35.593   6.202
 3365POPC   D2A43504   1.577  35.582   6.446
 3365POPC   C3A43505   1.502  35.652   6.881
 3365POPC   C4A43506   1.602  35.786   7.288
 3365POPC   C1B43507   0.899  35.164   6.218
 3365POPC   C2B43508   0.789  35.463   6.528
 3365POPC   C3B43509   0.874  35.391   6.933
 3365POPC   C4B43510   1.114  35.578   7.248
 3366POPC   NC343511  36.027  30.542   5.302
 3366POPC   PO443512  36.141  31.117   5.589
 3366POPC   GL143513  35.998  30.800   5.847
 3366POPC   GL243514  36.121  30.456   5.806
 3366POPC   C1A43515  36.050  30.812   6.300
 3366POPC   D2A43516  35.939  30.592   6.675
 3366POPC   C3A43517  36.081  30.792   7.037
 3366POPC   C4A43518  35.979  31.169   7.163
 3366POPC   C1B43519  36.008  30.306   6.239
 3366POPC   C2B43520  35.989  30.080   6.646
 3366POPC   C3B43521  36.069  30.283   7.063
 3366POPC   C4B43522  36.002  30.502   7.479
 3367POPC   NC343523  11.482  36.667   5.387
 3367POPC   PO443524  11.277  37.264   5.472
 3367POPC   GL143525  11.234  36.899   5.785
 3367POPC   GL243526  10.899  36.687   5.770
 3367POPC   C1A43527  11.449  36.891   6.187
 3367POPC   D2A43528  11.804  36.927   6.487
 3367POPC   C3A43529  11.655  36.795   6.871
 3367POPC   C4A43530  11.608  36.994   7.267
 3367POPC   C1B43531  10.944  36.825   6.203
 3367POPC   C2B43532  11.164  36.692   6.586
 3367POPC   C3B43533  11.146  36.833   7.014
 3367POPC   C4B43534  11.036  36.515   7.320
 3368POPC   NC343535  17.835  13.604   5.630
 3368POPC   PO443536  17.211  13.501   5.396
 3368POPC   GL143537  17.325  13.698   5.794
 3368POPC   GL243538  17.445  13.368   5.888
 3368POPC   C1A43539  17.471  13.853   6.216
 3368POPC   D2A43540  17.374  14.070   6.633
 3368POPC   C3A43541  17.566  13.846   6.951
 3368POPC   C4A43542  17.305  13.569   7.178
 3368POPC   C1B43543  17.557  13.312   6.322
 3368POPC   C2B43544  17.636  13.215   6.774
 3368POPC   C3B43545  17.753  13.298   7.236
 3368POPC   C4B43546  17.865  13.253   7.707
 3369POPC   NC343547  30.763  42.477   5.363
 3369POPC   PO443548  30.521  41.860   5.413
 3369POPC   GL143549  30.638  42.201   5.791
 3369POPC   GL243550  30.974  42.408   5.830
 3369POPC   C1A43551  30.545  42.302   6.262
 3369POPC   D2A43552  30.362  42.187   6.693
 3369POPC   C3A43553  30.523  42.338   7.097
 3369POPC   C4A43554  30.647  42.490   7.502
 3369POPC   C1B43555  30.960  42.608   6.254
 3369POPC   C2B43556  30.699  42.615   6.679
 3369POPC   C3B43557  30.886  42.719   7.089
 3369POPC   C4B43558  30.853  42.964   7.495
 3370POPC   NC343559  24.681  24.096   5.484
 3370POPC   PO443560  24.884  24.770   5.449
 3370POPC   GL143561  24.653  24.628   5.810
 3370POPC   GL243562  24.278  24.615   5.792
 3370POPC   C1A43563  24.565  24.657   6.261
 3370POPC   D2A43564  24.419  24.606   6.724
 3370POPC   C3A43565  24.589  24.244   6.986
 3370POPC   C4A43566  24.709  24.222   7.446
 3370POPC   C1B43567  24.169  24.334   6.171
 3370POPC   C2B43568  24.244  24.087   6.575
 3370POPC   C3B43569  24.057  24.108   6.980
 3370POPC   C4B43570  24.205  24.373   7.325
 3371POPC   NC343571  17.889  42.398   5.307
 3371POPC   PO443572  17.208  42.422   5.284
 3371POPC   GL143573  17.376  42.549   5.726
 3371POPC   GL243574  17.769  42.586   5.797
 3371POPC   C1A43575  17.354  42.452   6.185
 3371POPC   D2A43576  17.362  42.669   6.607
 3371POPC   C3A43577  17.397  42.481   7.035
 3371POPC   C4A43578  17.053  42.549   7.345
 3371POPC   C1B43579  17.850  42.369   6.212
 3371POPC   C2B43580  17.743  42.327   6.641
 3371POPC   C3B43581  17.947  42.436   6.991
 3371POPC   C4B43582  17.820  42.505   7.398
 3372POPC   NC343583  17.933   9.627   5.533
 3372POPC   PO443584  18.442  10.021   5.281
 3372POPC   GL143585  18.471   9.876   5.750
 3372POPC   GL243586  18.550   9.525   5.784
 3372POPC   C1A43587  18.350  10.021   6.198
 3372POPC   D2A43588  18.510  10.049   6.646
 3372POPC   C3A43589  18.406  10.111   7.083
 3372POPC   C4A43590  18.100   9.903   7.363
 3372POPC   C1B43591  18.472   9.497   6.202
 3372POPC   C2B43592  18.239   9.605   6.588
 3372POPC   C3B43593  18.391   9.600   7.023
 3372POPC   C4B43594  18.586   9.746   7.424
 3373POPC   NC343595  39.457  30.064   5.363
 3373POPC   PO443596  39.055  29.497   5.461
 3373POPC   GL143597  39.276  29.632   5.801
 3373POPC   GL243598  39.173  29.954   5.771
 3373POPC   C1A43599  39.126  29.672   6.237
 3373POPC   D2A43600  39.305  29.508   6.585
 3373POPC   C3A43601  39.256  29.770   6.894
 3373POPC   C4A43602  39.365  29.948   7.261
 3373POPC   C1B43603  39.391  30.080   6.105
 3373POPC   C2B43604  39.222  30.229   6.473
 3373POPC   C3B43605  39.159  30.298   6.895
 3373POPC   C4B43606  38.960  30.451   7.250
 3374POPC   NC343607   1.528   4.007   5.528
 3374POPC   PO443608   1.484   4.636   5.528
 3374POPC   GL143609   1.219   4.364   5.818
 3374POPC   GL243610   1.473   4.154   6.004
 3374POPC   C1A43611   1.046   4.228   6.255
 3374POPC   D2A43612   1.096   4.026   6.687
 3374POPC   C3A43613   1.186   4.282   7.069
 3374POPC   C4A43614   0.999   4.214   7.487
 3374POPC   C1B43615   1.494   4.537   6.246
 3374POPC   C2B43616   1.478   4.594   6.676
 3374POPC   C3B43617   1.531   4.735   7.079
 3374POPC   C4B43618   1.339   4.596   7.481
 3375POPC   NC343619  19.526  42.361   5.088
 3375POPC   PO443620  18.992  42.353   5.449
 3375POPC   GL143621  18.755  42.366   5.802
 3375POPC   GL243622  19.013  42.204   5.969
 3375POPC   C1A43623  18.759  42.638   6.172
 3375POPC   D2A43624  18.824  42.613   6.612
 3375POPC   C3A43625  19.172  42.399   6.827
 3375POPC   C4A43626  19.001  42.121   7.134
 3375POPC   C1B43627  19.173  42.138   6.372
 3375POPC   C2B43628  19.169  41.853   6.724
 3375POPC   C3B43629  19.445  41.803   7.069
 3375POPC   C4B43630  19.474  42.178   7.280
 3376POPC   NC343631  20.806  44.768   5.470
 3376POPC   PO443632  20.154  44.662   5.574
 3376POPC   GL143633  20.254  44.683   5.957
 3376POPC   GL243634  20.591  44.573   5.902
 3376POPC   C1A43635  20.422  44.787   6.339
 3376POPC   D2A43636  20.438  44.638   6.731
 3376POPC   C3A43637  20.561  44.853   7.061
 3376POPC   C4A43638  20.362  44.551   7.271
 3376POPC   C1B43639  20.699  44.351   6.288
 3376POPC   C2B43640  20.892  44.412   6.681
 3376POPC   C3B43641  20.825  44.323   7.115
 3376POPC   C4B43642  21.061  44.106   7.457
 3377POPC   NC343643   2.685  39.917   5.675
 3377POPC   PO443644   3.049  40.318   5.352
 3377POPC   GL143645   2.895  40.386   5.775
 3377POPC   GL243646   2.534  40.399   5.777
 3377POPC   C1A43647   2.808  40.253   6.227
 3377POPC   D2A43648   2.942  40.170   6.654
 3377POPC   C3A43649   2.875  40.116   7.097
 3377POPC   C4A43650   2.603  39.834   7.339
 3377POPC   C1B43651   2.324  40.348   6.164
 3377POPC   C2B43652   2.429  40.416   6.617
 3377POPC   C3B43653   2.400  40.265   7.058
 3377POPC   C4B43654   2.492  40.285   7.544
 3378POPC   NC343655  37.329   0.104   5.407
 3378POPC   PO443656  37.732   0.650   5.427
 3378POPC   GL143657  37.702   0.474   5.862
 3378POPC   GL243658  37.652   0.136   5.862
 3378POPC   C1A43659  37.930   0.308   6.280
 3378POPC   D2A43660  38.014   0.273   6.754
 3378POPC   C3A43661  37.820   0.491   7.106
 3378POPC   C4A43662  37.449   0.545   7.358
 3378POPC   C1B43663  37.427   0.263   6.258
 3378POPC   C2B43664  37.241   0.204   6.634
 3378POPC   C3B43665  37.482   0.143   6.995
 3378POPC   C4B43666  37.855   0.011   7.211
 3379POPC   NC343667  12.666   1.733   5.156
 3379POPC   PO443668  11.983   1.798   5.443
 3379POPC   GL143669  12.020   1.946   5.858
 3379POPC   GL243670  12.342   2.164   5.854
 3379POPC   C1A43671  11.779   1.891   6.268
 3379POPC   D2A43672  11.669   1.870   6.713
 3379POPC   C3A43673  11.971   1.865   7.059
 3379POPC   C4A43674  11.938   1.631   7.455
 3379POPC   C1B43675  12.352   1.937   6.254
 3379POPC   C2B43676  12.429   1.928   6.675
 3379POPC   C3B43677  12.593   1.862   7.056
 3379POPC   C4B43678  12.402   1.818   7.445
 3380POPC   NC343679  38.982  31.644   5.186
 3380POPC   PO443680  39.423  31.191   5.161
 3380POPC   GL143681  39.341  31.414   5.623
 3380POPC   GL243682  39.019  31.602   5.707
 3380POPC   C1A43683  39.208  31.247   6.075
 3380POPC   D2A43684  38.962  31.105   6.447
 3380POPC   C3A43685  39.160  31.215   6.837
 3380POPC   C4A43686  39.136  31.347   7.298
 3380POPC   C1B43687  39.226  31.757   6.098
 3380POPC   C2B43688  39.310  31.578   6.522
 3380POPC   C3B43689  39.143  31.708   6.945
 3380POPC   C4B43690  39.193  31.849   7.357
 3381POPC   NC343691  11.007  34.712   5.188
 3381POPC   PO443692  11.408  34.155   5.333
 3381POPC   GL143693  11.323  34.345   5.736
 3381POPC   GL243694  11.218  34.701   5.660
 3381POPC   C1A43695  11.255  34.337   6.199
 3381POPC   D2A43696  11.106  34.462   6.603
 3381POPC   C3A43697  11.254  34.354   7.021
 3381POPC   C4A43698  11.185  34.342   7.474
 3381POPC   C1B43699  11.326  34.838   6.087
 3381POPC   C2B43700  11.399  35.012   6.498
 3381POPC   C3B43701  11.299  34.857   6.908
 3381POPC   C4B43702  11.175  34.804   7.288
 3382POPC   NC343703  15.960  21.184   5.439
 3382POPC   PO443704  15.824  21.803   5.332
 3382POPC   GL143705  15.963  21.607   5.696
 3382POPC   GL243706  15.642  21.558   5.808
 3382POPC   C1A43707  16.059  21.372   6.078
 3382POPC   D2A43708  15.972  21.256   6.522
 3382POPC   C3A43709  15.977  21.611   6.806
 3382POPC   C4A43710  16.110  21.805   7.217
 3382POPC   C1B43711  15.551  21.224   6.108
 3382POPC   C2B43712  15.440  21.202   6.530
 3382POPC   C3B43713  15.629  21.136   6.919
 3382POPC   C4B43714  15.916  21.321   7.207
 3383POPC   NC343715  18.417   1.069   5.658
 3383POPC   PO443716  17.969   1.458   5.421
 3383POPC   GL143717  17.954   1.165   5.808
 3383POPC   GL243718  18.163   1.376   5.963
 3383POPC   C1A43719  18.116   0.931   6.228
 3383POPC   D2A43720  18.095   1.043   6.662
 3383POPC   C3A43721  18.297   1.097   6.993
 3383POPC   C4A43722  18.244   0.986   7.394
 3383POPC   C1B43723  18.128   1.442   6.356
 3383POPC   C2B43724  18.091   1.693   6.673
 3383POPC   C3B43725  18.043   1.740   7.077
 3383POPC   C4B43726  18.287   1.500   7.318
 3384POPC   NC343727  44.746   6.378   5.028
 3384POPC   PO443728  44.395   6.939   5.259
 3384POPC   GL143729  44.394   6.765   5.756
 3384POPC   GL243730  44.516   6.432   5.890
 3384POPC   C1A43731  44.415   6.756   6.251
 3384POPC   D2A43732  44.758   6.963   6.497
 3384POPC   C3A43733  44.670   7.034   6.907
 3384POPC   C4A43734  44.575   6.642   7.124
 3384POPC   C1B43735  44.742   6.317   6.294
 3384POPC   C2B43736  44.785   6.177   6.758
 3384POPC   C3B43737   0.021   6.379   7.114
 3384POPC   C4B43738   0.272   6.215   7.445
 3385POPC   NC343739  11.043  20.239   5.201
 3385POPC   PO443740  11.493  20.801   5.252
 3385POPC   GL143741  11.330  20.835   5.709
 3385POPC   GL243742  11.210  20.496   5.906
 3385POPC   C1A43743  11.452  20.843   6.150
 3385POPC   D2A43744  11.413  20.490   6.429
 3385POPC   C3A43745  11.379  20.531   6.878
 3385POPC   C4A43746  11.419  20.884   7.117
 3385POPC   C1B43747  10.911  20.523   6.293
 3385POPC   C2B43748  10.892  20.517   6.760
 3385POPC   C3B43749  10.998  20.269   7.139
 3385POPC   C4B43750  11.028  20.241   7.593
 3386POPC   NC343751  41.967  23.946   5.453
 3386POPC   PO443752  42.439  23.530   5.261
 3386POPC   GL143753  42.402  23.551   5.727
 3386POPC   GL243754  42.641  23.833   5.840
 3386POPC   C1A43755  42.491  23.491   6.188
 3386POPC   D2A43756  42.564  23.792   6.547
 3386POPC   C3A43757  42.673  23.616   6.959
 3386POPC   C4A43758  42.584  23.639   7.410
 3386POPC   C1B43759  42.244  23.956   6.106
 3386POPC   C2B43760  42.093  24.043   6.548
 3386POPC   C3B43761  42.210  23.907   6.991
 3386POPC   C4B43762  42.099  23.781   7.426
 3387POPC   NC343763  16.072  39.737   5.465
 3387POPC   PO443764  15.432  40.142   5.361
 3387POPC   GL143765  15.645  40.211   5.782
 3387POPC   GL243766  15.956  39.991   5.902
 3387POPC   C1A43767  15.796  40.393   6.178
 3387POPC   D2A43768  15.997  40.175   6.534
 3387POPC   C3A43769  15.917  40.168   6.996
 3387POPC   C4A43770  16.252  40.051   7.295
 3387POPC   C1B43771  15.643  39.882   6.260
 3387POPC   C2B43772  15.635  39.796   6.725
 3387POPC   C3B43773  15.733  39.705   7.167
 3387POPC   C4B43774  15.770  39.549   7.582
 3388POPC   NC343775   6.039  10.493   5.156
 3388POPC   PO443776   6.100  10.716   5.731
 3388POPC   GL143777   6.029  10.539   6.068
 3388POPC   GL243778   5.979  10.210   5.889
 3388POPC   C1A43779   5.786  10.774   6.399
 3388POPC   D2A43780   5.651  11.025   6.786
 3388POPC   C3A43781   5.833  10.928   7.201
 3388POPC   C4A43782   5.779  10.559   7.498
 3388POPC   C1B43783   5.745  10.196   6.282
 3388POPC   C2B43784   5.830  10.349   6.691
 3388POPC   C3B43785   5.654  10.248   7.067
 3388POPC   C4B43786   5.509   9.833   7.156
 3389POPC   NC343787   8.040  41.616   5.465
 3389POPC   PO443788   8.312  41.065   5.228
 3389POPC   GL143789   8.422  41.324   5.741
 3389POPC   GL243790   8.315  41.706   5.873
 3389POPC   C1A43791   8.263  41.347   6.195
 3389POPC   D2A43792   8.383  41.228   6.553
 3389POPC   C3A43793   8.419  41.475   6.886
 3389POPC   C4A43794   8.361  41.416   7.298
 3389POPC   C1B43795   8.085  41.869   6.221
 3389POPC   C2B43796   8.124  41.799   6.661
 3389POPC   C3B43797   8.048  41.782   7.117
 3389POPC   C4B43798   7.936  41.655   7.550
 3390POPC   NC343799  36.439  29.290   5.666
 3390POPC   PO443800  35.863  29.128   5.346
 3390POPC   GL143801  35.905  28.984   5.771
 3390POPC   GL243802  36.223  28.966   5.970
 3390POPC   C1A43803  35.785  29.107   6.166
 3390POPC   D2A43804  35.945  29.391   6.464
 3390POPC   C3A43805  35.861  29.198   6.802
 3390POPC   C4A43806  35.943  29.205   7.175
 3390POPC   C1B43807  36.481  28.829   6.305
 3390POPC   C2B43808  36.369  29.016   6.684
 3390POPC   C3B43809  36.388  29.324   6.981
 3390POPC   C4B43810  36.392  29.065   7.356
 3391POPC   NC343811  19.312  43.068   5.487
 3391POPC   PO443812  18.664  43.107   5.341
 3391POPC   GL143813  18.871  42.950   5.755
 3391POPC   GL243814  19.143  42.703   5.822
 3391POPC   C1A43815  19.034  43.091   6.184
 3391POPC   D2A43816  18.794  43.130   6.583
 3391POPC   C3A43817  18.952  43.336   6.947
 3391POPC   C4A43818  18.917  43.290   7.398
 3391POPC   C1B43819  19.258  42.639   6.283
 3391POPC   C2B43820  19.253  42.906   6.667
 3391POPC   C3B43821  19.236  42.882   7.121
 3391POPC   C4B43822  19.543  42.668   7.384
 3392POPC   NC343823  27.408  27.411   5.266
 3392POPC   PO443824  27.739  27.933   5.398
 3392POPC   GL143825  27.641  27.640   5.834
 3392POPC   GL243826  27.426  27.341   5.790
 3392POPC   C1A43827  27.756  27.395   6.225
 3392POPC   D2A43828  27.703  27.597   6.640
 3392POPC   C3A43829  27.744  27.383   7.040
 3392POPC   C4A43830  27.834  27.630   7.396
 3392POPC   C1B43831  27.266  27.471   6.221
 3392POPC   C2B43832  27.190  27.476   6.665
 3392POPC   C3B43833  27.317  27.641   7.048
 3392POPC   C4B43834  27.307  27.449   7.444
 3393POPC   NC343835  29.045  23.951   5.482
 3393POPC   PO443836  29.488  23.457   5.372
 3393POPC   GL143837  29.357  23.711   5.805
 3393POPC   GL243838  29.013  23.920   5.963
 3393POPC   C1A43839  29.220  23.570   6.223
 3393POPC   D2A43840  29.001  23.606   6.594
 3393POPC   C3A43841  29.272  23.527   6.933
 3393POPC   C4A43842  28.983  23.479   7.225
 3393POPC   C1B43843  29.368  24.075   6.197
 3393POPC   C2B43844  29.404  23.937   6.663
 3393POPC   C3B43845  29.042  23.963   7.007
 3393POPC   C4B43846  28.989  23.958   7.463
 3394POPC   NC343847  43.055  16.667   5.331
 3394POPC   PO443848  43.066  15.955   5.406
 3394POPC   GL143849  43.055  16.016   5.838
 3394POPC   GL243850  43.261  16.287   5.976
 3394POPC   C1A43851  43.051  15.788   6.243
 3394POPC   D2A43852  43.239  15.791   6.669
 3394POPC   C3A43853  42.936  15.749   7.024
 3394POPC   C4A43854  43.198  15.753   7.365
 3394POPC   C1B43855  42.870  16.263   6.241
 3394POPC   C2B43856  42.848  16.102   6.655
 3394POPC   C3B43857  43.168  16.192   7.033
 3394POPC   C4B43858  43.416  16.528   7.237
 3395POPC   NC343859  42.971   0.887   5.587
 3395POPC   PO443860  43.263   1.447   5.321
 3395POPC   GL143861  43.197   1.353   5.784
 3395POPC   GL243862  42.945   1.123   6.026
 3395POPC   C1A43863  43.315   1.395   6.213
 3395POPC   D2A43864  43.154   1.135   6.555
 3395POPC   C3A43865  43.260   1.352   6.904
 3395POPC   C4A43866  43.067   1.198   7.208
 3395POPC   C1B43867  43.371   0.888   6.155
 3395POPC   C2B43868  43.611   0.891   6.561
 3395POPC   C3B43869  43.447   0.864   6.985
 3395POPC   C4B43870  43.427   0.898   7.423
 3396POPC   NC343871  41.392  17.140   5.350
 3396POPC   PO443872  41.561  17.807   5.310
 3396POPC   GL143873  41.588  17.560   5.656
 3396POPC   GL243874  41.270  17.724   5.762
 3396POPC   C1A43875  41.830  17.568   6.052
 3396POPC   D2A43876  41.880  17.538   6.497
 3396POPC   C3A43877  41.971  17.787   6.895
 3396POPC   C4A43878  41.874  17.601   7.271
 3396POPC   C1B43879  41.322  17.430   6.089
 3396POPC   C2B43880  41.341  17.498   6.511
 3396POPC   C3B43881  41.559  17.446   6.884
 3396POPC   C4B43882  41.435  17.365   7.268
 3397POPC   NC343883  32.123  35.002   5.672
 3397POPC   PO443884  32.408  35.525   5.421
 3397POPC   GL143885  32.240  35.502   5.865
 3397POPC   GL243886  31.961  35.300   6.046
 3397POPC   C1A43887  32.384  35.478   6.297
 3397POPC   D2A43888  32.350  35.574   6.739
 3397POPC   C3A43889  32.519  35.291   7.049
 3397POPC   C4A43890  32.456  35.280   7.494
 3397POPC   C1B43891  32.181  35.014   6.370
 3397POPC   C2B43892  32.258  34.878   6.818
 3397POPC   C3B43893  32.161  34.928   7.258
 3397POPC   C4B43894  32.149  34.954   7.745
 3398POPC   NC343895  16.343  14.179   5.267
 3398POPC   PO443896  15.697  14.395   5.422
 3398POPC   GL143897  15.977  14.270   5.801
 3398POPC   GL243898  16.212  13.971   5.740
 3398POPC   C1A43899  16.062  14.493   6.213
 3398POPC   D2A43900  15.853  14.441   6.600
 3398POPC   C3A43901  16.020  14.593   6.953
 3398POPC   C4A43902  16.074  14.508   7.339
 3398POPC   C1B43903  16.327  14.056   6.182
 3398POPC   C2B43904  16.334  14.237   6.631
 3398POPC   C3B43905  16.227  14.098   7.078
 3398POPC   C4B43906  16.234  14.088   7.595
 3399POPC   NC343907  37.778  28.800   5.429
 3399POPC   PO443908  37.435  29.381   5.494
 3399POPC   GL143909  37.658  29.202   5.807
 3399POPC   GL243910  37.416  28.956   5.826
 3399POPC   C1A43911  37.922  29.365   6.143
 3399POPC   D2A43912  37.843  29.610   6.504
 3399POPC   C3A43913  37.720  29.378   6.847
 3399POPC   C4A43914  37.689  29.168   7.210
 3399POPC   C1B43915  37.543  28.996   6.266
 3399POPC   C2B43916  37.403  28.986   6.690
 3399POPC   C3B43917  37.284  28.869   7.088
 3399POPC   C4B43918  37.449  28.797   7.462
 3400POPC   NC343919  25.052  29.408   5.354
 3400POPC   PO443920  25.547  28.951   5.482
 3400POPC   GL143921  25.383  29.237   5.774
 3400POPC   GL243922  25.035  29.135   5.807
 3400POPC   C1A43923  25.418  29.218   6.239
 3400POPC   D2A43924  25.573  29.144   6.668
 3400POPC   C3A43925  25.309  29.374   6.955
 3400POPC   C4A43926  24.885  29.453   6.978
 3400POPC   C1B43927  25.000  28.920   6.205
 3400POPC   C2B43928  25.069  29.028   6.640
 3400POPC   C3B43929  25.289  28.862   6.984
 3400POPC   C4B43930  25.405  28.844   7.400
 3401POPC   NC343931  20.441  34.817   5.453
 3401POPC   PO443932  20.982  34.538   5.660
 3401POPC   GL143933  20.634  34.691   5.902
 3401POPC   GL243934  20.366  34.457   5.830
 3401POPC   C1A43935  20.603  34.774   6.319
 3401POPC   D2A43936  20.962  34.716   6.576
 3401POPC   C3A43937  20.869  34.592   7.006
 3401POPC   C4A43938  20.505  34.648   7.255
 3401POPC   C1B43939  20.451  34.288   6.251
 3401POPC   C2B43940  20.542  34.352   6.679
 3401POPC   C3B43941  20.298  34.219   7.033
 3401POPC   C4B43942  20.276  34.148   7.494
 3402POPC   NC343943   0.250   3.066   5.237
 3402POPC   PO443944   0.627   2.518   5.407
 3402POPC   GL143945   0.809   2.676   5.814
 3402POPC   GL243946   0.769   3.029   5.933
 3402POPC   C1A43947   0.824   2.650   6.293
 3402POPC   D2A43948   0.476   2.612   6.602
 3402POPC   C3A43949   0.610   2.472   7.017
 3402POPC   C4A43950   0.681   2.640   7.414
 3402POPC   C1B43951   0.455   3.072   6.261
 3402POPC   C2B43952   0.193   3.073   6.627
 3402POPC   C3B43953   0.330   2.906   7.005
 3402POPC   C4B43954   0.247   2.864   7.405
 3403POPC   NC343955  32.532  12.091   5.580
 3403POPC   PO443956  31.914  12.268   5.555
 3403POPC   GL143957  32.111  11.976   5.849
 3403POPC   GL243958  31.821  11.963   6.019
 3403POPC   C1A43959  32.263  11.923   6.302
 3403POPC   D2A43960  32.097  12.111   6.714
 3403POPC   C3A43961  32.253  12.064   7.159
 3403POPC   C4A43962  32.385  11.747   7.488
 3403POPC   C1B43963  32.022  12.359   6.199
 3403POPC   C2B43964  31.939  12.585   6.570
 3403POPC   C3B43965  31.958  12.524   7.014
 3403POPC   C4B43966  31.963  12.436   7.447
 3404POPC   NC343967   4.613  12.525   5.469
 3404POPC   PO443968   4.075  12.934   5.444
 3404POPC   GL143969   4.298  12.766   5.802
 3404POPC   GL243970   4.620  12.946   5.862
 3404POPC   C1A43971   4.410  12.548   6.201
 3404POPC   D2A43972   4.548  12.311   6.580
 3404POPC   C3A43973   4.386  12.538   6.924
 3404POPC   C4A43974   4.307  12.963   7.067
 3404POPC   C1B43975   4.332  13.090   6.203
 3404POPC   C2B43976   4.326  13.283   6.610
 3404POPC   C3B43977   4.696  13.224   6.826
 3404POPC   C4B43978   4.809  13.080   7.210
 3405POPC   NC343979  29.223  29.045   5.343
 3405POPC   PO443980  29.529  29.625   5.573
 3405POPC   GL143981  29.244  29.339   5.780
 3405POPC   GL243982  29.364  28.975   5.811
 3405POPC   C1A43983  28.994  29.459   6.127
 3405POPC   D2A43984  28.989  29.343   6.547
 3405POPC   C3A43985  29.236  29.429   6.941
 3405POPC   C4A43986  29.196  29.336   7.393
 3405POPC   C1B43987  29.139  28.963   6.177
 3405POPC   C2B43988  29.082  28.848   6.584
 3405POPC   C3B43989  29.265  28.770   6.954
 3405POPC   C4B43990  29.145  28.852   7.314
 3406POPC   NC343991  24.175   9.949   5.378
 3406POPC   PO443992  24.767   9.672   5.448
 3406POPC   GL143993  24.391   9.598   5.741
 3406POPC   GL243994  24.181   9.271   5.737
 3406POPC   C1A43995  24.330   9.742   6.181
 3406POPC   D2A43996  24.307   9.978   6.590
 3406POPC   C3A43997  24.435   9.821   7.014
 3406POPC   C4A43998  24.826   9.928   7.243
 3406POPC   C1B43999  24.440   9.246   6.124
 3406POPC   C2B44000  24.473   9.391   6.556
 3406POPC   C3B44001  24.504   9.295   6.986
 3406POPC   C4B44002  24.570   9.493   7.408
 3407POPC   NC344003  31.132  25.488   5.583
 3407POPC   PO444004  31.765  25.707   5.447
 3407POPC   GL144005  31.655  25.427   5.808
 3407POPC   GL244006  31.379  25.130   5.869
 3407POPC   C1A44007  31.579  25.414   6.247
 3407POPC   D2A44008  31.582  25.134   6.561
 3407POPC   C3A44009  31.557  25.346   6.929
 3407POPC   C4A44010  31.518  25.514   7.367
 3407POPC   C1B44011  31.133  25.160   6.283
 3407POPC   C2B44012  31.089  25.069   6.736
 3407POPC   C3B44013  31.169  25.173   7.178
 3407POPC   C4B44014  31.159  25.239   7.643
 3408POPC   NC344015  12.164   4.351   5.193
 3408POPC   PO444016  12.160   3.819   5.601
 3408POPC   GL144017  12.027   4.108   5.893
 3408POPC   GL244018  11.832   4.382   5.719
 3408POPC   C1A44019  12.201   4.183   6.306
 3408POPC   D2A44020  12.129   4.477   6.646
 3408POPC   C3A44021  12.256   4.340   7.053
 3408POPC   C4A44022  12.149   4.026   7.351
 3408POPC   C1B44023  11.738   4.393   6.204
 3408POPC   C2B44024  11.677   4.210   6.653
 3408POPC   C3B44025  11.750   4.435   7.080
 3408POPC   C4B44026  11.758   4.309   7.543
 3409POPC   NC344027  18.435  27.757   5.175
 3409POPC   PO444028  17.877  27.362   5.361
 3409POPC   GL144029  18.051  27.617   5.705
 3409POPC   GL244030  18.395  27.766   5.699
 3409POPC   C1A44031  18.030  27.453   6.129
 3409POPC   D2A44032  18.158  27.612   6.531
 3409POPC   C3A44033  18.074  27.477   6.973
 3409POPC   C4A44034  18.052  27.290   7.375
 3409POPC   C1B44035  18.532  27.648   6.126
 3409POPC   C2B44036  18.683  27.556   6.539
 3409POPC   C3B44037  18.560  27.673   6.936
 3409POPC   C4B44038  18.553  27.551   7.341
 3410POPC   NC344039  20.370  33.821   5.507
 3410POPC   PO444040  21.013  33.735   5.464
 3410POPC   GL144041  20.749  33.668   5.848
 3410POPC   GL244042  20.657  34.017   5.887
 3410POPC   C1A44043  20.445  33.678   6.251
 3410POPC   D2A44044  20.218  33.847   6.665
 3410POPC   C3A44045  20.398  33.676   7.103
 3410POPC   C4A44046  20.865  33.589   7.264
 3410POPC   C1B44047  20.909  33.903   6.267
 3410POPC   C2B44048  20.931  33.724   6.654
 3410POPC   C3B44049  20.777  33.979   6.955
 3410POPC   C4B44050  20.738  34.181   7.315
 3411POPC   NC344051  27.968   5.267   5.613
 3411POPC   PO444052  27.461   4.819   5.518
 3411POPC   GL144053  27.657   4.977   5.878
 3411POPC   GL244054  27.463   5.246   5.832
 3411POPC   C1A44055  27.888   5.034   6.270
 3411POPC   D2A44056  27.657   4.972   6.648
 3411POPC   C3A44057  27.862   5.082   7.022
 3411POPC   C4A44058  27.873   5.177   7.453
 3411POPC   C1B44059  27.489   5.352   6.277
 3411POPC   C2B44060  27.413   5.421   6.732
 3411POPC   C3B44061  27.319   5.124   7.056
 3411POPC   C4B44062  27.111   4.737   7.139
 3412POPC   NC344063  15.243   8.981   5.424
 3412POPC   PO444064  14.663   8.697   5.619
 3412POPC   GL144065  14.999   8.929   5.898
 3412POPC   GL244066  15.320   9.146   5.916
 3412POPC   C1A44067  15.185   8.820   6.314
 3412POPC   D2A44068  14.990   8.753   6.736
 3412POPC   C3A44069  15.232   8.821   7.129
 3412POPC   C4A44070  15.111   8.858   7.578
 3412POPC   C1B44071  15.169   9.342   6.322
 3412POPC   C2B44072  15.106   9.285   6.789
 3412POPC   C3B44073  15.381   9.303   7.162
 3412POPC   C4B44074  15.388   9.288   7.630
 3413POPC   NC344075   2.156   8.937   5.449
 3413POPC   PO444076   1.410   8.883   5.472
 3413POPC   GL144077   1.804   8.900   5.840
 3413POPC   GL244078   2.223   8.947   5.929
 3413POPC   C1A44079   1.907   9.024   6.286
 3413POPC   D2A44080   1.768   8.844   6.645
 3413POPC   C3A44081   1.877   9.110   6.958
 3413POPC   C4A44082   2.022   8.814   7.262
 3413POPC   C1B44083   2.379   9.276   6.185
 3413POPC   C2B44084   2.387   9.345   6.604
 3413POPC   C3B44085   2.388   9.062   6.979
 3413POPC   C4B44086   2.488   8.936   7.424
 3414POPC   NC344087  25.349  20.960   5.511
 3414POPC   PO444088  25.127  20.390   5.478
 3414POPC   GL144089  25.246  20.579   5.857
 3414POPC   GL244090  25.065  20.881   5.946
 3414POPC   C1A44091  25.426  20.455   6.248
 3414POPC   D2A44092  25.678  20.350   6.629
 3414POPC   C3A44093  25.388  20.286   6.956
 3414POPC   C4A44094  24.981  20.297   7.129
 3414POPC   C1B44095  25.396  20.966   6.245
 3414POPC   C2B44096  25.342  20.759   6.652
 3414POPC   C3B44097  25.140  20.788   7.035
 3414POPC   C4B44098  25.287  20.931   7.428
 3415POPC   NC344099  37.407  15.139   5.511
 3415POPC   PO444100  37.954  15.559   5.641
 3415POPC   GL144101  37.747  15.261   5.883
 3415POPC   GL244102  37.808  14.930   5.820
 3415POPC   C1A44103  37.592  15.239   6.275
 3415POPC   D2A44104  37.877  15.346   6.585
 3415POPC   C3A44105  37.693  15.327   7.005
 3415POPC   C4A44106  37.443  15.367   7.388
 3415POPC   C1B44107  37.849  14.816   6.283
 3415POPC   C2B44108  37.760  14.835   6.729
 3415POPC   C3B44109  37.894  14.784   7.157
 3415POPC   C4B44110  37.880  15.124   7.455
 3416POPC   NC344111   6.081  22.072   5.313
 3416POPC   PO444112   5.653  22.436   5.532
 3416POPC   GL144113   5.937  22.250   5.814
 3416POPC   GL244114   5.863  21.911   5.798
 3416POPC   C1A44115   6.106  22.122   6.224
 3416POPC   D2A44116   5.924  21.996   6.580
 3416POPC   C3A44117   5.967  22.187   6.945
 3416POPC   C4A44118   6.030  22.242   7.333
 3416POPC   C1B44119   5.793  21.677   6.174
 3416POPC   C2B44120   5.654  21.563   6.585
 3416POPC   C3B44121   5.772  21.718   7.005
 3416POPC   C4B44122   5.799  21.786   7.450
 3417POPC   NC344123   3.311  19.392   5.332
 3417POPC   PO444124   3.685  18.794   5.425
 3417POPC   GL144125   3.554  19.131   5.710
 3417POPC   GL244126   3.188  19.229   5.803
 3417POPC   C1A44127   3.574  19.215   6.148
 3417POPC   D2A44128   3.754  19.175   6.572
 3417POPC   C3A44129   3.612  18.813   6.813
 3417POPC   C4A44130   3.414  18.791   7.203
 3417POPC   C1B44131   3.119  19.456   6.206
 3417POPC   C2B44132   3.337  19.507   6.564
 3417POPC   C3B44133   3.334  19.256   6.924
 3417POPC   C4B44134   3.358  19.338   7.350
 3418POPC   NC344135  28.562  37.391   5.329
 3418POPC   PO444136  28.061  37.769   5.450
 3418POPC   GL144137  28.142  37.693   5.854
 3418POPC   GL244138  28.492  37.710   5.751
 3418POPC   C1A44139  28.271  37.429   6.215
 3418POPC   D2A44140  28.477  37.350   6.630
 3418POPC   C3A44141  28.281  37.517   6.994
 3418POPC   C4A44142  28.396  37.329   7.366
 3418POPC   C1B44143  28.540  37.855   6.156
 3418POPC   C2B44144  28.416  37.865   6.583
 3418POPC   C3B44145  28.633  37.894   6.973
 3418POPC   C4B44146  28.464  37.838   7.384
 3419POPC   NC344147  24.467  44.800   5.341
 3419POPC   PO444148  24.220  44.243   5.684
 3419POPC   GL144149  24.555  44.523   5.804
 3419POPC   GL244150  24.530  44.897   5.826
 3419POPC   C1A44151  24.479  44.634   6.247
 3419POPC   D2A44152  24.585  44.520   6.634
 3419POPC   C3A44153  24.219  44.474   6.858
 3419POPC   C4A44154  24.339  44.476   7.268
 3419POPC   C1B44155  24.547   0.142   6.223
 3419POPC   C2B44156  24.733   0.029   6.587
 3419POPC   C3B44157  24.586  44.901   6.994
 3419POPC   C4B44158  24.531  44.933   7.421
 3420POPC   NC344159  37.063  33.788   5.185
 3420POPC   PO444160  37.645  33.966   5.373
 3420POPC   GL144161  37.874  33.808   5.735
 3420POPC   GL244162  38.057  34.111   5.751
 3420POPC   C1A44163  37.793  33.644   6.153
 3420POPC   D2A44164  37.528  33.596   6.540
 3420POPC   C3A44165  37.642  33.764   6.922
 3420POPC   C4A44166  37.489  34.054   7.209
 3420POPC   C1B44167  37.826  34.181   6.149
 3420POPC   C2B44168  37.615  34.160   6.566
 3420POPC   C3B44169  37.895  34.222   6.921
 3420POPC   C4B44170  38.021  33.925   7.241
 3421POPC   NC344171   0.893  44.451   5.470
 3421POPC   PO444172   1.506  44.648   5.399
 3421POPC   GL144173   1.487  44.641   5.830
 3421POPC   GL244174   1.146  44.756   5.863
 3421POPC   C1A44175   1.532  44.548   6.241
 3421POPC   D2A44176   1.312  44.525   6.598
 3421POPC   C3A44177   1.498  44.618   6.968
 3421POPC   C4A44178   1.293  44.444   7.320
 3421POPC   C1B44179   1.249  44.994   6.248
 3421POPC   C2B44180   1.134   0.001   6.693
 3421POPC   C3B44181   0.971  44.776   7.083
 3421POPC   C4B44182   1.014  44.801   7.573
 3422POPC   NC344183  30.458   1.486   5.333
 3422POPC   PO444184  30.891   1.062   5.093
 3422POPC   GL144185  30.841   1.203   5.616
 3422POPC   GL244186  30.611   1.364   5.799
 3422POPC   C1A44187  31.069   1.438   5.985
 3422POPC   D2A44188  31.125   1.505   6.454
 3422POPC   C3A44189  30.891   1.387   6.833
 3422POPC   C4A44190  30.838   1.166   7.203
 3422POPC   C1B44191  30.479   1.216   6.195
 3422POPC   C2B44192  30.454   1.371   6.579
 3422POPC   C3B44193  30.394   1.247   6.966
 3422POPC   C4B44194  30.311   1.019   7.320
 3423POPC   NC344195  33.721  39.320   5.213
 3423POPC   PO444196  33.400  38.865   5.584
 3423POPC   GL144197  33.604  39.195   5.867
 3423POPC   GL244198  33.932  39.366   5.775
 3423POPC   C1A44199  33.779  39.367   6.259
 3423POPC   D2A44200  33.989  39.585   6.591
 3423POPC   C3A44201  33.999  39.368   6.984
 3423POPC   C4A44202  33.646  39.253   7.258
 3423POPC   C1B44203  34.235  39.206   6.112
 3423POPC   C2B44204  34.189  39.076   6.559
 3423POPC   C3B44205  34.379  39.034   6.958
 3423POPC   C4B44206  34.472  39.380   7.205
 3424POPC   NC344207  16.775   1.120   5.259
 3424POPC   PO444208  16.214   1.278   5.516
 3424POPC   GL144209  16.515   1.018   5.714
 3424POPC   GL244210  16.825   0.840   5.718
 3424POPC   C1A44211  16.653   1.154   6.104
 3424POPC   D2A44212  16.755   1.293   6.510
 3424POPC   C3A44213  16.451   1.126   6.795
 3424POPC   C4A44214  16.380   1.212   7.199
 3424POPC   C1B44215  17.001   0.770   6.152
 3424POPC   C2B44216  17.198   0.951   6.528
 3424POPC   C3B44217  17.006   1.089   6.908
 3424POPC   C4B44218  16.830   0.959   7.279
 3425POPC   NC344219  26.409   5.551   5.393
 3425POPC   PO444220  26.232   4.873   5.443
 3425POPC   GL144221  26.240   5.192   5.791
 3425POPC   GL244222  25.931   5.374   5.829
 3425POPC   C1A44223  26.253   5.157   6.249
 3425POPC   D2A44224  26.321   4.981   6.645
 3425POPC   C3A44225  26.182   5.201   7.015
 3425POPC   C4A44226  25.942   5.027   7.346
 3425POPC   C1B44227  25.748   5.323   6.230
 3425POPC   C2B44228  25.890   5.396   6.676
 3425POPC   C3B44229  25.800   5.517   7.163
 3425POPC   C4B44230  25.911   5.416   7.644
 3426POPC   NC344231   1.715   3.282   5.429
 3426POPC   PO444232   1.177   3.680   5.509
 3426POPC   GL144233   1.346   3.659   5.886
 3426POPC   GL244234   1.376   3.318   5.845
 3426POPC   C1A44235   1.152   3.677   6.285
 3426POPC   D2A44236   0.772   3.557   6.533
 3426POPC   C3A44237   0.934   3.507   6.955
 3426POPC   C4A44238   1.137   3.789   7.213
 3426POPC   C1B44239   1.587   3.250   6.203
 3426POPC   C2B44240   1.517   3.437   6.586
 3426POPC   C3B44241   1.322   3.178   6.846
 3426POPC   C4B44242   1.255   3.171   7.240
 3427POPC   NC344243  40.387  26.952   5.362
 3427POPC   PO444244  39.706  26.713   5.228
 3427POPC   GL144245  39.790  26.786   5.669
 3427POPC   GL244246  40.142  26.656   5.784
 3427POPC   C1A44247  39.651  26.731   6.093
 3427POPC   D2A44248  39.835  26.692   6.497
 3427POPC   C3A44249  39.557  26.644   6.854
 3427POPC   C4A44250  39.721  26.660   7.262
 3427POPC   C1B44251  40.070  27.032   6.066
 3427POPC   C2B44252  40.093  27.153   6.512
 3427POPC   C3B44253  39.981  26.978   6.929
 3427POPC   C4B44254  40.121  27.056   7.329
 3428POPC   NC344255  35.351   5.225   5.416
 3428POPC   PO444256  34.736   5.056   5.495
 3428POPC   GL144257  35.028   4.923   5.772
 3428POPC   GL244258  35.246   5.172   5.900
 3428POPC   C1A44259  35.219   4.756   6.162
 3428POPC   D2A44260  35.360   4.909   6.517
 3428POPC   C3A44261  35.249   4.770   6.911
 3428POPC   C4A44262  35.399   4.939   7.297
 3428POPC   C1B44263  35.217   5.425   6.257
 3428POPC   C2B44264  35.372   5.429   6.649
 3428POPC   C3B44265  35.288   5.437   7.074
 3428POPC   C4B44266  35.048   5.682   7.338
 3429POPC   NC344267  12.780  28.004   5.520
 3429POPC   PO444268  12.315  27.474   5.392
 3429POPC   GL144269  12.554  27.611   5.790
 3429POPC   GL244270  12.934  27.522   5.798
 3429POPC   C1A44271  12.661  27.427   6.216
 3429POPC   D2A44272  12.673  27.186   6.590
 3429POPC   C3A44273  12.661  27.413   6.996
 3429POPC   C4A44274  12.424  27.563   7.359
 3429POPC   C1B44275  13.060  27.741   6.191
 3429POPC   C2B44276  12.901  27.698   6.628
 3429POPC   C3B44277  13.112  27.657   7.086
 3429POPC   C4B44278  13.325  27.407   7.470
 3430POPC   NC344279   3.665  10.928   5.406
 3430POPC   PO444280   3.330  10.497   5.658
 3430POPC   GL144281   3.562  10.682   5.953
 3430POPC   GL244282   3.866  10.614   5.755
 3430POPC   C1A44283   3.478  10.432   6.334
 3430POPC   D2A44284   3.581  10.296   6.724
 3430POPC   C3A44285   3.499  10.674   6.965
 3430POPC   C4A44286   3.210  10.609   7.262
 3430POPC   C1B44287   3.959  10.403   6.125
 3430POPC   C2B44288   3.993  10.572   6.509
 3430POPC   C3B44289   3.981  10.534   6.910
 3430POPC   C4B44290   3.729  10.324   7.229
 3431POPC   NC344291  38.184  25.733   5.497
 3431POPC   PO444292  37.544  25.596   5.456
 3431POPC   GL144293  37.791  25.446   5.780
 3431POPC   GL244294  38.122  25.313   5.775
 3431POPC   C1A44295  37.739  25.213   6.141
 3431POPC   D2A44296  37.526  25.265   6.502
 3431POPC   C3A44297  37.732  25.177   6.893
 3431POPC   C4A44298  37.681  25.423   7.255
 3431POPC   C1B44299  38.140  25.558   6.164
 3431POPC   C2B44300  37.999  25.458   6.562
 3431POPC   C3B44301  38.077  25.560   6.989
 3431POPC   C4B44302  38.134  25.200   7.292
 3432POPC   NC344303  39.727  25.517   5.376
 3432POPC   PO444304  40.267  25.118   5.456
 3432POPC   GL144305  39.915  25.166   5.747
 3432POPC   GL244306  40.028  25.505   5.802
 3432POPC   C1A44307  39.802  25.291   6.191
 3432POPC   D2A44308  40.013  25.226   6.561
 3432POPC   C3A44309  39.858  25.443   6.904
 3432POPC   C4A44310  39.740  25.169   7.215
 3432POPC   C1B44311  40.168  25.805   6.100
 3432POPC   C2B44312  40.127  25.729   6.506
 3432POPC   C3B44313  40.256  25.798   6.893
 3432POPC   C4B44314  40.156  25.624   7.291
 3433POPC   NC344315  40.588  39.858   5.452
 3433POPC   PO444316  41.198  40.158   5.344
 3433POPC   GL144317  41.131  40.061   5.766
 3433POPC   GL244318  41.147  39.729   5.815
 3433POPC   C1A44319  40.834  40.070   6.128
 3433POPC   D2A44320  40.630  40.009   6.531
 3433POPC   C3A44321  40.832  40.051   6.916
 3433POPC   C4A44322  40.652  40.018   7.316
 3433POPC   C1B44323  41.004  39.604   6.197
 3433POPC   C2B44324  40.912  39.497   6.618
 3433POPC   C3B44325  40.932  39.571   7.066
 3433POPC   C4B44326  41.134  39.802   7.344
 3434POPC   NC344327  23.917  41.486   5.387
 3434POPC   PO444328  23.446  41.971   5.498
 3434POPC   GL144329  23.467  41.585   5.767
 3434POPC   GL244330  23.803  41.436   5.877
 3434POPC   C1A44331  23.470  41.549   6.226
 3434POPC   D2A44332  23.709  41.517   6.570
 3434POPC   C3A44333  23.551  41.650   6.987
 3434POPC   C4A44334  23.755  41.751   7.384
 3434POPC   C1B44335  24.019  41.265   6.254
 3434POPC   C2B44336  24.301  41.153   6.632
 3434POPC   C3B44337  24.248  41.083   7.111
 3434POPC   C4B44338  24.101  41.156   7.606
 3435POPC   NC344339   8.650  37.224   5.603
 3435POPC   PO444340   9.024  37.831   5.517
 3435POPC   GL144341   8.957  37.631   5.886
 3435POPC   GL244342   9.259  37.816   5.994
 3435POPC   C1A44343   8.789  37.466   6.300
 3435POPC   D2A44344   8.519  37.466   6.693
 3435POPC   C3A44345   8.783  37.563   6.987
 3435POPC   C4A44346   8.949  37.375   7.303
 3435POPC   C1B44347   8.921  38.025   6.233
 3435POPC   C2B44348   8.766  37.924   6.616
 3435POPC   C3B44349   8.825  38.075   7.019
 3435POPC   C4B44350   9.208  37.850   7.129
 3436POPC   NC344351   1.958  12.642   5.441
 3436POPC   PO444352   1.843  11.979   5.584
 3436POPC   GL144353   2.104  12.098   5.897
 3436POPC   GL244354   2.298  12.412   5.800
 3436POPC   C1A44355   2.213  11.816   6.238
 3436POPC   D2A44356   1.987  11.752   6.615
 3436POPC   C3A44357   2.250  11.823   6.974
 3436POPC   C4A44358   2.179  12.007   7.369
 3436POPC   C1B44359   2.456  12.274   6.211
 3436POPC   C2B44360   2.263  12.180   6.599
 3436POPC   C3B44361   2.202  12.364   6.979
 3436POPC   C4B44362   2.446  12.428   7.327
 3437POPC   NC344363  13.112  23.202   5.420
 3437POPC   PO444364  12.653  22.768   5.458
 3437POPC   GL144365  12.827  22.987   5.822
 3437POPC   GL244366  12.557  23.218   5.738
 3437POPC   C1A44367  12.958  22.909   6.280
 3437POPC   D2A44368  13.221  22.790   6.642
 3437POPC   C3A44369  12.985  22.858   7.001
 3437POPC   C4A44370  12.813  22.488   7.148
 3437POPC   C1B44371  12.509  23.195   6.183
 3437POPC   C2B44372  12.489  22.947   6.546
 3437POPC   C3B44373  12.468  22.801   6.966
 3437POPC   C4B44374  12.592  22.957   7.414
 3438POPC   NC344375  20.866  40.931   5.373
 3438POPC   PO444376  20.397  40.352   5.324
 3438POPC   GL144377  20.692  40.515   5.675
 3438POPC   GL244378  21.050  40.502   5.774
 3438POPC   C1A44379  20.714  40.783   6.076
 3438POPC   D2A44380  20.629  40.659   6.511
 3438POPC   C3A44381  20.393  40.854   6.868
 3438POPC   C4A44382  20.667  40.983   7.211
 3438POPC   C1B44383  20.996  40.376   6.244
 3438POPC   C2B44384  21.050  40.457   6.709
 3438POPC   C3B44385  20.953  40.559   7.163
 3438POPC   C4B44386  20.683  40.461   7.569
 3439POPC   NC344387   6.319  42.491   5.474
 3439POPC   PO444388   6.986  42.401   5.340
 3439POPC   GL144389   6.905  42.497   5.766
 3439POPC   GL244390   6.767  42.815   5.669
 3439POPC   C1A44391   6.590  42.341   6.129
 3439POPC   D2A44392   6.371  42.448   6.555
 3439POPC   C3A44393   6.478  42.207   6.933
 3439POPC   C4A44394   6.657  42.157   7.318
 3439POPC   C1B44395   6.700  42.832   6.101
 3439POPC   C2B44396   6.866  42.628   6.468
 3439POPC   C3B44397   6.791  42.611   6.903
 3439POPC   C4B44398   6.703  42.693   7.335
 3440POPC   NC344399  33.770  44.132   5.432
 3440POPC   PO444400  33.520  43.473   5.466
 3440POPC   GL144401  33.798  43.666   5.865
 3440POPC   GL244402  33.897  44.039   5.927
 3440POPC   C1A44403  33.951  43.656   6.295
 3440POPC   D2A44404  34.104  43.645   6.734
 3440POPC   C3A44405  33.799  43.740   7.056
 3440POPC   C4A44406  33.846  43.848   7.476
 3440POPC   C1B44407  34.094  44.122   6.346
 3440POPC   C2B44408  33.775  44.055   6.662
 3440POPC   C3B44409  33.755  44.253   7.065
 3440POPC   C4B44410  34.088  44.526   7.180
 3441POPC   NC344411  44.875  17.168   5.440
 3441POPC   PO444412  44.806  17.862   5.327
 3441POPC   GL144413  44.608  17.693   5.744
 3441POPC   GL244414  44.439  17.331   5.775
 3441POPC   C1A44415  44.660  17.765   6.198
 3441POPC   D2A44416  44.498  17.603   6.592
 3441POPC   C3A44417  44.554  17.840   6.987
 3441POPC   C4A44418  44.470  17.793   7.470
 3441POPC   C1B44419  44.810  17.293   6.067
 3441POPC   C2B44420  44.981  17.273   6.467
 3441POPC   C3B44421  44.803  17.291   6.860
 3441POPC   C4B44422  44.789  17.467   7.237
 3442POPC   NC344423  36.821  39.623   5.412
 3442POPC   PO444424  37.290  39.118   5.240
 3442POPC   GL144425  37.167  39.213   5.691
 3442POPC   GL244426  36.858  39.378   5.850
 3442POPC   C1A44427  37.137  39.044   6.151
 3442POPC   D2A44428  36.873  39.140   6.529
 3442POPC   C3A44429  37.107  39.125   6.896
 3442POPC   C4A44430  37.237  39.069   7.284
 3442POPC   C1B44431  37.242  39.532   6.060
 3442POPC   C2B44432  37.268  39.461   6.483
 3442POPC   C3B44433  37.005  39.612   6.799
 3442POPC   C4B44434  37.007  39.568   7.226
 3443POPC   NC344435  44.438  10.287   5.424
 3443POPC   PO444436  44.833  10.802   5.457
 3443POPC   GL144437  44.970  10.602   5.812
 3443POPC   GL244438  44.712  10.375   5.830
 3443POPC   C1A44439  44.755  10.745   6.176
 3443POPC   D2A44440  44.567  10.594   6.540
 3443POPC   C3A44441  44.812  10.706   6.893
 3443POPC   C4A44442  44.661  10.673   7.280
 3443POPC   C1B44443  44.367  10.307   6.135
 3443POPC   C2B44444  44.263  10.163   6.559
 3443POPC   C3B44445  44.463  10.280   6.943
 3443POPC   C4B44446  44.482  10.212   7.356
 3444POPC   NC344447  18.090  32.851   5.492
 3444POPC   PO444448  18.577  33.261   5.423
 3444POPC   GL144449  18.432  33.377   5.846
 3444POPC   GL244450  18.094  33.266   5.914
 3444POPC   C1A44451  18.553  33.210   6.284
 3444POPC   D2A44452  18.447  33.051   6.714
 3444POPC   C3A44453  18.558  33.173   7.155
 3444POPC   C4A44454  18.739  32.990   7.551
 3444POPC   C1B44455  18.063  33.146   6.348
 3444POPC   C2B44456  17.933  33.006   6.730
 3444POPC   C3B44457  18.029  33.120   7.139
 3444POPC   C4B44458  17.859  33.002   7.528
 3445POPC   NC344459  11.789  34.089   5.064
 3445POPC   PO444460  12.324  33.755   5.337
 3445POPC   GL144461  12.163  33.835   5.730
 3445POPC   GL244462  12.315  34.165   5.742
 3445POPC   C1A44463  11.937  33.619   6.048
 3445POPC   D2A44464  11.956  33.778   6.449
 3445POPC   C3A44465  11.894  33.683   6.847
 3445POPC   C4A44466  11.823  33.872   7.251
 3445POPC   C1B44467  12.133  34.168   6.168
 3445POPC   C2B44468  12.350  34.077   6.549
 3445POPC   C3B44469  12.160  34.102   6.915
 3445POPC   C4B44470  12.305  34.076   7.282
 3446POPC   NC344471  14.039  25.805   5.385
 3446POPC   PO444472  13.410  26.052   5.410
 3446POPC   GL144473  13.728  26.081   5.702
 3446POPC   GL244474  13.711  25.748   5.841
 3446POPC   C1A44475  13.864  26.207   6.105
 3446POPC   D2A44476  13.641  26.251   6.535
 3446POPC   C3A44477  13.787  26.323   6.979
 3446POPC   C4A44478  13.744  26.214   7.413
 3446POPC   C1B44479  13.671  25.778   6.307
 3446POPC   C2B44480  13.952  25.776   6.680
 3446POPC   C3B44481  13.909  25.834   7.082
 3446POPC   C4B44482  13.474  25.830   7.173
 3447POPC   NC344483   6.897  20.863   5.649
 3447POPC   PO444484   6.881  20.158   5.532
 3447POPC   GL144485   6.594  20.453   5.815
 3447POPC   GL244486   6.307  20.312   5.993
 3447POPC   C1A44487   6.473  20.778   6.167
 3447POPC   D2A44488   6.718  20.825   6.580
 3447POPC   C3A44489   6.697  20.638   7.011
 3447POPC   C4A44490   6.372  20.777   7.218
 3447POPC   C1B44491   6.624  20.316   6.326
 3447POPC   C2B44492   6.651  20.236   6.740
 3447POPC   C3B44493   6.336  20.235   7.074
 3447POPC   C4B44494   6.316  20.177   7.516
 3448POPC   NC344495   0.259   4.720   5.444
 3448POPC   PO444496   0.723   5.203   5.455
 3448POPC   GL144497   0.636   4.907   5.805
 3448POPC   GL244498   0.299   4.951   5.910
 3448POPC   C1A44499   0.638   4.999   6.273
 3448POPC   D2A44500   0.623   5.259   6.630
 3448POPC   C3A44501   0.580   5.008   6.994
 3448POPC   C4A44502   0.296   4.680   7.094
 3448POPC   C1B44503   0.212   5.284   6.254
 3448POPC   C2B44504   0.065   5.247   6.699
 3448POPC   C3B44505   0.112   5.213   7.160
 3448POPC   C4B44506  44.920   4.982   7.512
 3449POPC   NC344507  35.613  15.278   5.473
 3449POPC   PO444508  36.324  15.121   5.344
 3449POPC   GL144509  36.082  15.312   5.690
 3449POPC   GL244510  36.147  15.032   5.917
 3449POPC   C1A44511  35.919  15.425   6.140
 3449POPC   D2A44512  36.030  15.133   6.493
 3449POPC   C3A44513  36.215  15.263   6.881
 3449POPC   C4A44514  36.281  15.352   7.311
 3449POPC   C1B44515  36.374  14.823   6.271
 3449POPC   C2B44516  36.246  14.724   6.712
 3449POPC   C3B44517  36.271  14.813   7.157
 3449POPC   C4B44518  36.189  14.915   7.623
 3450POPC   NC344519  36.564  42.295   5.530
 3450POPC   PO444520  37.088  42.070   5.698
 3450POPC   GL144521  36.928  42.450   5.873
 3450POPC   GL244522  36.620  42.680   5.869
 3450POPC   C1A44523  37.059  42.546   6.238
 3450POPC   D2A44524  36.880  42.532   6.592
 3450POPC   C3A44525  36.956  42.215   6.885
 3450POPC   C4A44526  37.022  42.361   7.278
 3450POPC   C1B44527  36.558  42.338   6.215
 3450POPC   C2B44528  36.475  42.271   6.670
 3450POPC   C3B44529  36.615  42.556   7.051
 3450POPC   C4B44530  36.541  42.436   7.509
 3451POPC   NC344531   7.971  27.325   5.061
 3451POPC   PO444532   8.435  27.689   5.511
 3451POPC   GL144533   8.319  27.717   5.886
 3451POPC   GL244534   7.967  27.666   5.806
 3451POPC   C1A44535   8.520  27.648   6.250
 3451POPC   D2A44536   8.532  27.405   6.640
 3451POPC   C3A44537   8.549  27.658   7.014
 3451POPC   C4A44538   8.358  27.456   7.392
 3451POPC   C1B44539   7.967  27.917   6.186
 3451POPC   C2B44540   8.085  27.689   6.552
 3451POPC   C3B44541   8.055  27.609   6.983
 3451POPC   C4B44542   7.976  27.939   7.311
 3452POPC   NC344543  17.217   2.933   5.682
 3452POPC   PO444544  16.698   2.577   5.387
 3452POPC   GL144545  16.745   2.688   5.796
 3452POPC   GL244546  16.695   3.048   5.729
 3452POPC   C1A44547  16.974   2.598   6.199
 3452POPC   D2A44548  17.188   2.558   6.584
 3452POPC   C3A44549  16.935   2.663   6.946
 3452POPC   C4A44550  16.708   2.488   7.270
 3452POPC   C1B44551  16.674   3.024   6.173
 3452POPC   C2B44552  16.810   2.978   6.569
 3452POPC   C3B44553  16.634   3.140   6.924
 3452POPC   C4B44554  16.535   2.969   7.295
 3453POPC   NC344555   8.750  20.324   5.532
 3453POPC   PO444556   9.188  19.834   5.427
 3453POPC   GL144557   9.012  19.973   5.801
 3453POPC   GL244558   9.178  20.278   5.809
 3453POPC   C1A44559   8.836  19.939   6.209
 3453POPC   D2A44560   8.452  19.909   6.410
 3453POPC   C3A44561   8.621  19.862   6.782
 3453POPC   C4A44562   8.740  19.639   7.088
 3453POPC   C1B44563   9.271  20.207   6.231
 3453POPC   C2B44564   9.151  20.047   6.662
 3453POPC   C3B44565   9.150  20.136   7.126
 3453POPC   C4B44566   9.131  19.976   7.601
 3454POPC   NC344567   7.217  24.924   5.270
 3454POPC   PO444568   7.645  25.472   5.066
 3454POPC   GL144569   7.479  25.185   5.600
 3454POPC   GL244570   7.757  25.073   5.806
 3454POPC   C1A44571   7.379  25.303   6.120
 3454POPC   D2A44572   7.587  25.506   6.549
 3454POPC   C3A44573   7.633  25.341   6.978
 3454POPC   C4A44574   7.302  25.105   7.134
 3454POPC   C1B44575   7.832  25.161   6.257
 3454POPC   C2B44576   7.590  24.987   6.608
 3454POPC   C3B44577   7.747  24.818   7.017
 3454POPC   C4B44578   7.749  25.024   7.433
 3455POPC   NC344579  26.189  20.909   5.615
 3455POPC   PO444580  26.304  20.324   5.358
 3455POPC   GL144581  25.979  20.403   5.741
 3455POPC   GL244582  25.750  20.703   5.849
 3455POPC   C1A44583  25.992  20.439   6.212
 3455POPC   D2A44584  26.323  20.548   6.571
 3455POPC   C3A44585  26.217  20.674   7.011
 3455POPC   C4A44586  25.801  20.514   7.172
 3455POPC   C1B44587  25.934  20.930   6.233
 3455POPC   C2B44588  25.854  20.824   6.657
 3455POPC   C3B44589  25.649  20.966   7.028
 3455POPC   C4B44590  25.938  21.021   7.328
 3456POPC   NC344591   5.470  12.946   5.252
 3456POPC   PO444592   4.802  12.924   5.346
 3456POPC   GL144593   5.089  12.945   5.659
 3456POPC   GL244594   5.068  13.302   5.651
 3456POPC   C1A44595   5.126  12.811   6.108
 3456POPC   D2A44596   4.766  12.824   6.437
 3456POPC   C3A44597   4.874  12.712   6.870
 3456POPC   C4A44598   5.071  12.633   7.297
 3456POPC   C1B44599   5.015  13.291   6.094
 3456POPC   C2B44600   5.135  13.156   6.535
 3456POPC   C3B44601   5.298  13.032   6.969
 3456POPC   C4B44602   5.264  13.109   7.411
 3457POPC   NC344603  36.716   3.666   5.439
 3457POPC   PO444604  37.240   3.245   5.473
 3457POPC   GL144605  37.083   3.575   5.794
 3457POPC   GL244606  36.737   3.484   5.907
 3457POPC   C1A44607  36.972   3.824   6.194
 3457POPC   D2A44608  36.709   3.830   6.573
 3457POPC   C3A44609  36.786   3.679   6.990
 3457POPC   C4A44610  37.018   3.730   7.381
 3457POPC   C1B44611  36.557   3.402   6.314
 3457POPC   C2B44612  36.342   3.515   6.708
 3457POPC   C3B44613  36.322   3.483   7.120
 3457POPC   C4B44614  36.618   3.404   7.419
 3458POPC   NC344615   3.914   8.952   5.354
 3458POPC   PO444616   3.286   8.742   5.507
 3458POPC   GL144617   3.554   9.022   5.722
 3458POPC   GL244618   3.760   8.738   5.802
 3458POPC   C1A44619   3.625   9.162   6.150
 3458POPC   D2A44620   3.425   9.323   6.532
 3458POPC   C3A44621   3.638   9.329   6.927
 3458POPC   C4A44622   3.464   9.097   7.245
 3458POPC   C1B44623   3.948   8.750   6.182
 3458POPC   C2B44624   3.725   8.793   6.554
 3458POPC   C3B44625   3.812   8.836   6.995
 3458POPC   C4B44626   3.981   9.025   7.359
 3459POPC   NC344627  26.126  22.430   5.451
 3459POPC   PO444628  25.886  21.810   5.336
 3459POPC   GL144629  26.019  21.992   5.738
 3459POPC   GL244630  26.280  21.829   5.908
 3459POPC   C1A44631  26.136  22.264   6.104
 3459POPC   D2A44632  26.383  22.146   6.481
 3459POPC   C3A44633  26.221  22.276   6.902
 3459POPC   C4A44634  26.136  22.594   7.209
 3459POPC   C1B44635  26.049  21.789   6.287
 3459POPC   C2B44636  26.064  21.817   6.746
 3459POPC   C3B44637  25.957  21.923   7.183
 3459POPC   C4B44638  25.892  21.867   7.615
 3460POPC   NC344639   2.567  20.801   5.686
 3460POPC   PO444640   3.151  20.585   5.484
 3460POPC   GL144641   3.026  20.567   5.875
 3460POPC   GL244642   2.995  20.212   5.890
 3460POPC   C1A44643   3.128  20.894   6.172
 3460POPC   D2A44644   3.239  20.898   6.605
 3460POPC   C3A44645   2.879  20.701   6.820
 3460POPC   C4A44646   2.869  20.686   7.250
 3460POPC   C1B44647   2.939  20.332   6.355
 3460POPC   C2B44648   2.607  20.242   6.674
 3460POPC   C3B44649   2.475  20.385   7.093
 3460POPC   C4B44650   2.510  20.509   7.539
 3461POPC   NC344651  25.030  41.928   5.373
 3461POPC   PO444652  24.358  41.670   5.286
 3461POPC   GL144653  24.343  41.535   5.707
 3461POPC   GL244654  24.145  41.810   5.763
 3461POPC   C1A44655  24.500  41.482   6.145
 3461POPC   D2A44656  24.710  41.643   6.519
 3461POPC   C3A44657  24.554  41.507   6.916
 3461POPC   C4A44658  24.690  41.679   7.293
 3461POPC   C1B44659  24.005  41.807   6.184
 3461POPC   C2B44660  24.194  41.664   6.561
 3461POPC   C3B44661  24.045  41.512   6.939
 3461POPC   C4B44662  24.203  41.561   7.307
 3462POPC   NC344663  11.097  10.395   5.392
 3462POPC   PO444664  10.493  10.537   5.187
 3462POPC   GL144665  10.533  10.456   5.647
 3462POPC   GL244666  10.779  10.234   5.736
 3462POPC   C1A44667  10.351  10.470   6.070
 3462POPC   D2A44668  10.352  10.738   6.428
 3462POPC   C3A44669  10.424  10.588   6.843
 3462POPC   C4A44670  10.221  10.697   7.240
 3462POPC   C1B44671  10.856  10.441   6.096
 3462POPC   C2B44672  10.785  10.307   6.509
 3462POPC   C3B44673  10.835  10.172   6.914
 3462POPC   C4B44674  10.606  10.334   7.245
 3463POPC   NC344675  22.586  22.112   5.422
 3463POPC   PO444676  23.215  22.130   5.373
 3463POPC   GL144677  23.232  22.273   5.826
 3463POPC   GL244678  22.893  22.249   5.873
 3463POPC   C1A44679  23.185  22.087   6.260
 3463POPC   D2A44680  22.995  22.156   6.654
 3463POPC   C3A44681  23.168  21.961   7.020
 3463POPC   C4A44682  23.061  21.979   7.451
 3463POPC   C1B44683  22.649  22.089   6.216
 3463POPC   C2B44684  22.481  21.995   6.647
 3463POPC   C3B44685  22.623  22.087   7.071
 3463POPC   C4B44686  22.606  21.771   7.387
 3464POPC   NC344687  43.851  36.904   4.942
 3464POPC   PO444688  44.287  36.985   5.456
 3464POPC   GL144689  44.025  36.897   5.785
 3464POPC   GL244690  43.850  37.208   5.873
 3464POPC   C1A44691  44.118  36.881   6.222
 3464POPC   D2A44692  44.000  37.094   6.601
 3464POPC   C3A44693  43.999  36.862   6.997
 3464POPC   C4A44694  44.249  36.902   7.357
 3464POPC   C1B44695  43.628  37.018   6.189
 3464POPC   C2B44696  43.424  37.164   6.539
 3464POPC   C3B44697  43.591  37.177   6.931
 3464POPC   C4B44698  43.793  37.235   7.306
 3465POPC   NC344699  10.717  12.693   5.446
 3465POPC   PO444700  10.153  12.913   5.649
 3465POPC   GL144701  10.550  13.014   5.887
 3465POPC   GL244702  10.805  12.742   5.949
 3465POPC   C1A44703  10.730  13.040   6.338
 3465POPC   D2A44704  10.814  12.659   6.606
 3465POPC   C3A44705  10.709  12.733   7.051
 3465POPC   C4A44706  10.654  13.005   7.419
 3465POPC   C1B44707  10.401  12.647   6.212
 3465POPC   C2B44708  10.136  12.815   6.573
 3465POPC   C3B44709  10.161  12.815   7.044
 3465POPC   C4B44710  10.134  12.937   7.482
 3466POPC   NC344711  35.016  26.411   5.515
 3466POPC   PO444712  35.623  26.169   5.237
 3466POPC   GL144713  35.567  26.163   5.697
 3466POPC   GL244714  35.250  25.982   5.744
 3466POPC   C1A44715  35.577  26.345   6.152
 3466POPC   D2A44716  35.603  26.438   6.643
 3466POPC   C3A44717  35.429  26.086   6.933
 3466POPC   C4A44718  35.666  25.698   7.149
 3466POPC   C1B44719  35.030  26.115   6.127
 3466POPC   C2B44720  35.066  26.295   6.543
 3466POPC   C3B44721  34.888  26.374   6.961
 3466POPC   C4B44722  34.973  26.092   7.248
 3467POPC   NC344723  44.394  36.527   5.499
 3467POPC   PO444724  43.979  36.123   5.098
 3467POPC   GL144725  44.092  36.055   5.566
 3467POPC   GL244726  43.957  36.360   5.722
 3467POPC   C1A44727  44.011  35.957   6.047
 3467POPC   D2A44728  43.854  36.083   6.485
 3467POPC   C3A44729  44.151  36.136   6.830
 3467POPC   C4A44730  44.240  35.770   7.074
 3467POPC   C1B44731  43.754  36.485   6.108
 3467POPC   C2B44732  43.779  36.622   6.534
 3467POPC   C3B44733  43.715  36.411   6.903
 3467POPC   C4B44734  43.726  35.996   7.096
 3468POPC   NC344735  12.799   2.712   5.312
 3468POPC   PO444736  12.768   3.425   5.328
 3468POPC   GL144737  12.836   3.109   5.709
 3468POPC   GL244738  12.584   2.873   5.750
 3468POPC   C1A44739  12.867   2.903   6.164
 3468POPC   D2A44740  12.931   2.649   6.524
 3468POPC   C3A44741  13.132   2.720   6.908
 3468POPC   C4A44742  12.897   2.964   7.187
 3468POPC   C1B44743  12.437   2.620   6.136
 3468POPC   C2B44744  12.472   2.461   6.580
 3468POPC   C3B44745  12.470   2.747   6.954
 3468POPC   C4B44746  12.504   2.745   7.432
 3469POPC   NC344747  13.262  35.232   5.103
 3469POPC   PO444748  12.740  35.501   5.448
 3469POPC   GL144749  12.667  35.380   5.862
 3469POPC   GL244750  12.885  35.104   5.893
 3469POPC   C1A44751  12.442  35.202   6.235
 3469POPC   D2A44752  12.458  34.993   6.657
 3469POPC   C3A44753  12.731  35.161   6.990
 3469POPC   C4A44754  12.963  35.549   7.051
 3469POPC   C1B44755  12.926  35.043   6.343
 3469POPC   C2B44756  13.016  34.808   6.724
 3469POPC   C3B44757  13.186  34.955   7.111
 3469POPC   C4B44758  13.065  34.920   7.539
 3470POPC   NC344759  10.108   5.393   5.414
 3470POPC   PO444760   9.768   4.893   5.349
 3470POPC   GL144761   9.719   5.126   5.703
 3470POPC   GL244762  10.018   5.152   5.842
 3470POPC   C1A44763   9.581   5.147   6.152
 3470POPC   D2A44764   9.515   4.904   6.530
 3470POPC   C3A44765   9.499   5.139   6.918
 3470POPC   C4A44766   9.292   5.345   7.249
 3470POPC   C1B44767  10.098   5.165   6.257
 3470POPC   C2B44768   9.917   5.226   6.629
 3470POPC   C3B44769  10.006   5.159   7.037
 3470POPC   C4B44770  10.018   5.307   7.443
 3471POPC   NC344771  15.561   5.873   5.546
 3471POPC   PO444772  16.219   6.035   5.542
 3471POPC   GL144773  16.050   6.055   5.896
 3471POPC   GL244774  15.754   6.242   5.836
 3471POPC   C1A44775  16.167   5.810   6.248
 3471POPC   D2A44776  16.142   5.617   6.635
 3471POPC   C3A44777  15.963   5.743   7.002
 3471POPC   C4A44778  16.110   5.771   7.417
 3471POPC   C1B44779  15.759   6.114   6.309
 3471POPC   C2B44780  15.915   6.180   6.735
 3471POPC   C3B44781  15.740   6.189   7.185
 3471POPC   C4B44782  15.579   6.126   7.629
 3472POPC   NC344783  27.848  37.365   5.495
 3472POPC   PO444784  27.151  37.365   5.361
 3472POPC   GL144785  27.414  37.443   5.753
 3472POPC   GL244786  27.572  37.770   5.751
 3472POPC   C1A44787  27.661  37.403   6.162
 3472POPC   D2A44788  27.897  37.500   6.553
 3472POPC   C3A44789  27.787  37.349   6.948
 3472POPC   C4A44790  27.779  37.631   7.256
 3472POPC   C1B44791  27.240  37.782   6.103
 3472POPC   C2B44792  27.382  37.713   6.538
 3472POPC   C3B44793  27.314  37.565   6.960
 3472POPC   C4B44794  27.216  37.711   7.376
 3473POPC   NC344795  13.690  22.888   5.212
 3473POPC   PO444796  14.303  22.892   5.396
 3473POPC   GL144797  13.908  22.747   5.659
 3473POPC   GL244798  13.509  22.872   5.691
 3473POPC   C1A44799  13.850  22.945   6.056
 3473POPC   D2A44800  13.702  22.834   6.450
 3473POPC   C3A44801  13.873  23.080   6.739
 3473POPC   C4A44802  13.813  22.939   7.121
 3473POPC   C1B44803  13.354  23.112   6.043
 3473POPC   C2B44804  13.390  23.239   6.477
 3473POPC   C3B44805  13.347  23.254   6.925
 3473POPC   C4B44806  13.360  23.039   7.314
 3474POPC   NC344807  29.703  17.697   5.389
 3474POPC   PO444808  30.104  17.120   5.324
 3474POPC   GL144809  29.896  17.317   5.701
 3474POPC   GL244810  30.076  17.635   5.726
 3474POPC   C1A44811  29.801  17.458   6.136
 3474POPC   D2A44812  29.978  17.337   6.544
 3474POPC   C3A44813  29.920  17.186   6.938
 3474POPC   C4A44814  29.726  17.387   7.287
 3474POPC   C1B44815  30.114  17.884   6.083
 3474POPC   C2B44816  29.846  17.911   6.466
 3474POPC   C3B44817  29.877  17.737   6.886
 3474POPC   C4B44818  29.908  17.932   7.287
 3475POPC   NC344819  31.717  33.819   5.454
 3475POPC   PO444820  31.031  33.594   5.534
 3475POPC   GL144821  31.375  33.687   5.798
 3475POPC   GL244822  31.656  33.424   5.803
 3475POPC   C1A44823  31.657  33.905   6.103
 3475POPC   D2A44824  31.706  34.158   6.491
 3475POPC   C3A44825  31.608  33.906   6.848
 3475POPC   C4A44826  31.317  33.919   7.172
 3475POPC   C1B44827  31.424  33.441   6.229
 3475POPC   C2B44828  31.235  33.616   6.603
 3475POPC   C3B44829  31.307  33.442   6.999
 3475POPC   C4B44830  31.732  33.353   7.147
 3476POPC   NC344831  13.362  30.047   5.494
 3476POPC   PO444832  13.890  29.936   5.191
 3476POPC   GL144833  13.740  29.830   5.732
 3476POPC   GL244834  13.398  29.779   5.930
 3476POPC   C1A44835  13.806  29.878   6.189
 3476POPC   D2A44836  13.502  29.650   6.463
 3476POPC   C3A44837  13.572  29.729   6.883
 3476POPC   C4A44838  13.718  30.062   7.127
 3476POPC   C1B44839  13.308  30.086   6.262
 3476POPC   C2B44840  13.458  30.182   6.674
 3476POPC   C3B44841  13.202  30.105   7.035
 3476POPC   C4B44842  13.291  29.972   7.454
 3477POPC   NC344843  31.972   4.308   5.369
 3477POPC   PO444844  32.622   4.158   5.273
 3477POPC   GL144845  32.463   4.377   5.680
 3477POPC   GL244846  32.122   4.464   5.836
 3477POPC   C1A44847  32.544   4.497   6.139
 3477POPC   D2A44848  32.468   4.364   6.574
 3477POPC   C3A44849  32.537   4.577   6.985
 3477POPC   C4A44850  32.341   4.524   7.414
 3477POPC   C1B44851  32.020   4.445   6.310
 3477POPC   C2B44852  32.005   4.218   6.740
 3477POPC   C3B44853  31.938   4.309   7.188
 3477POPC   C4B44854  31.993   4.229   7.648
 3478POPC   NC344855  18.993  16.467   5.310
 3478POPC   PO444856  19.125  17.025   5.512
 3478POPC   GL144857  18.930  16.716   5.772
 3478POPC   GL244858  19.047  16.369   5.871
 3478POPC   C1A44859  18.852  16.763   6.215
 3478POPC   D2A44860  18.887  16.874   6.664
 3478POPC   C3A44861  19.052  16.705   7.038
 3478POPC   C4A44862  19.348  16.973   7.288
 3478POPC   C1B44863  19.231  16.439   6.339
 3478POPC   C2B44864  19.404  16.323   6.763
 3478POPC   C3B44865  19.515  16.509   7.178
 3478POPC   C4B44866  19.533  16.630   7.647
 3479POPC   NC344867  23.905  31.085   5.108
 3479POPC   PO444868  23.929  30.554   5.492
 3479POPC   GL144869  23.891  30.788   5.861
 3479POPC   GL244870  23.539  30.714   5.917
 3479POPC   C1A44871  23.904  30.723   6.329
 3479POPC   D2A44872  23.864  30.380   6.668
 3479POPC   C3A44873  23.964  30.544   7.073
 3479POPC   C4A44874  23.836  30.859   7.429
 3479POPC   C1B44875  23.463  30.482   6.324
 3479POPC   C2B44876  23.421  30.631   6.765
 3479POPC   C3B44877  23.472  30.606   7.207
 3479POPC   C4B44878  23.355  30.464   7.658
 3480POPC   NC344879  12.568  10.451   4.921
 3480POPC   PO444880  12.010  10.547   5.311
 3480POPC   GL144881  12.211  10.537   5.728
 3480POPC   GL244882  12.297  10.905   5.758
 3480POPC   C1A44883  12.269  10.357   6.169
 3480POPC   D2A44884  12.298  10.048   6.514
 3480POPC   C3A44885  12.223  10.214   6.917
 3480POPC   C4A44886  11.992  10.246   7.279
 3480POPC   C1B44887  12.011  10.832   6.086
 3480POPC   C2B44888  11.998  10.758   6.503
 3480POPC   C3B44889  12.042  10.938   6.914
 3480POPC   C4B44890  12.286  10.685   7.194
 3481POPC   NC344891   9.915  14.053   5.277
 3481POPC   PO444892   9.782  14.756   5.306
 3481POPC   GL144893   9.725  14.620   5.758
 3481POPC   GL244894   9.939  14.320   5.802
 3481POPC   C1A44895   9.603  14.508   6.205
 3481POPC   D2A44896   9.746  14.392   6.657
 3481POPC   C3A44897   9.547  14.575   7.048
 3481POPC   C4A44898   9.471  14.631   7.506
 3481POPC   C1B44899  10.070  14.301   6.230
 3481POPC   C2B44900  10.201  14.606   6.534
 3481POPC   C3B44901  10.125  14.801   6.908
 3481POPC   C4B44902  10.164  14.635   7.288
 3482POPC   NC344903   6.467  29.877   5.467
 3482POPC   PO444904   7.116  29.918   5.612
 3482POPC   GL144905   6.772  29.964   5.881
 3482POPC   GL244906   6.716  29.627   5.883
 3482POPC   C1A44907   6.524  29.987   6.275
 3482POPC   D2A44908   6.676  30.187   6.672
 3482POPC   C3A44909   6.458  30.219   7.068
 3482POPC   C4A44910   6.626  30.045   7.476
 3482POPC   C1B44911   6.758  29.546   6.331
 3482POPC   C2B44912   6.597  29.663   6.730
 3482POPC   C3B44913   6.820  29.798   7.093
 3482POPC   C4B44914   7.028  29.749   7.541
 3483POPC   NC344915  32.065  36.953   5.396
 3483POPC   PO444916  32.719  37.242   5.220
 3483POPC   GL144917  32.483  37.122   5.646
 3483POPC   GL244918  32.610  37.209   5.924
 3483POPC   C1A44919  32.272  36.853   6.040
 3483POPC   D2A44920  32.085  36.949   6.481
 3483POPC   C3A44921  31.902  36.686   6.833
 3483POPC   C4A44922  31.761  36.757   7.272
 3483POPC   C1B44923  32.649  37.024   6.335
 3483POPC   C2B44924  32.544  36.728   6.610
 3483POPC   C3B44925  32.354  36.871   6.984
 3483POPC   C4B44926  32.253  36.790   7.420
 3484POPC   NC344927  43.578   9.973   5.510
 3484POPC   PO444928  43.990   9.456   5.456
 3484POPC   GL144929  43.910   9.690   5.789
 3484POPC   GL244930  43.578   9.553   5.811
 3484POPC   C1A44931  44.096   9.846   6.164
 3484POPC   D2A44932  43.960   9.712   6.562
 3484POPC   C3A44933  44.096   9.551   6.963
 3484POPC   C4A44934  44.091   9.968   7.127
 3484POPC   C1B44935  43.573   9.737   6.197
 3484POPC   C2B44936  43.455   9.655   6.603
 3484POPC   C3B44937  43.632   9.770   6.977
 3484POPC   C4B44938  43.401   9.632   7.304
 3485POPC   NC344939  17.790  21.074   5.367
 3485POPC   PO444940  17.098  21.169   5.506
 3485POPC   GL144941  17.439  21.357   5.725
 3485POPC   GL244942  17.674  21.110   5.855
 3485POPC   C1A44943  17.499  21.468   6.167
 3485POPC   D2A44944  17.461  21.154   6.465
 3485POPC   C3A44945  17.495  21.225   6.890
 3485POPC   C4A44946  17.299  20.959   7.170
 3485POPC   C1B44947  17.925  21.176   6.231
 3485POPC   C2B44948  17.948  21.481   6.543
 3485POPC   C3B44949  17.967  21.515   6.974
 3485POPC   C4B44950  17.866  21.229   7.294
 3486POPC   NC344951  36.370  34.068   5.355
 3486POPC   PO444952  35.868  33.718   5.469
 3486POPC   GL144953  36.044  33.645   5.845
 3486POPC   GL244954  36.362  33.692   5.738
 3486POPC   C1A44955  36.018  33.906   6.205
 3486POPC   D2A44956  35.781  33.951   6.582
 3486POPC   C3A44957  36.070  34.054   6.913
 3486POPC   C4A44958  35.997  33.993   7.327
 3486POPC   C1B44959  36.427  33.579   6.205
 3486POPC   C2B44960  36.237  33.663   6.606
 3486POPC   C3B44961  36.234  33.561   7.035
 3486POPC   C4B44962  36.414  33.482   7.437
 3487POPC   NC344963  33.418  15.122   5.346
 3487POPC   PO444964  32.822  15.513   5.354
 3487POPC   GL144965  32.946  15.273   5.755
 3487POPC   GL244966  33.282  15.087   5.827
 3487POPC   C1A44967  33.067  15.381   6.188
 3487POPC   D2A44968  33.259  15.310   6.584
 3487POPC   C3A44969  33.038  15.401   6.962
 3487POPC   C4A44970  33.118  15.276   7.399
 3487POPC   C1B44971  33.288  14.912   6.235
 3487POPC   C2B44972  33.207  14.784   6.637
 3487POPC   C3B44973  33.049  14.867   7.048
 3487POPC   C4B44974  33.142  14.783   7.484
 3488POPC   NC344975  36.596  21.088   5.406
 3488POPC   PO444976  36.740  21.673   5.595
 3488POPC   GL144977  36.996  21.480   5.878
 3488POPC   GL244978  37.192  21.783   5.905
 3488POPC   C1A44979  36.919  21.295   6.250
 3488POPC   D2A44980  36.570  21.245   6.496
 3488POPC   C3A44981  36.736  21.235   6.900
 3488POPC   C4A44982  37.087  21.169   7.159
 3488POPC   C1B44983  36.882  21.833   6.244
 3488POPC   C2B44984  36.842  21.670   6.640
 3488POPC   C3B44985  37.008  21.661   7.047
 3488POPC   C4B44986  37.116  21.776   7.497
 3489POPC   NC344987  28.897  30.763   5.327
 3489POPC   PO444988  29.460  30.800   5.323
 3489POPC   GL144989  29.272  30.890   5.727
 3489POPC   GL244990  29.231  30.558   5.776
 3489POPC   C1A44991  29.338  30.852   6.223
 3489POPC   D2A44992  29.441  30.669   6.686
 3489POPC   C3A44993  29.173  30.894   7.065
 3489POPC   C4A44994  29.016  31.186   7.431
 3489POPC   C1B44995  29.305  30.342   6.189
 3489POPC   C2B44996  29.115  30.248   6.616
 3489POPC   C3B44997  29.186  30.377   7.026
 3489POPC   C4B44998  29.594  30.399   7.127
 3490POPC   NC344999  30.615  33.465   5.357
 3490POPC   PO445000  30.959  32.841   5.406
 3490POPC   GL145001  30.823  32.903   5.826
 3490POPC   GL245002  30.518  32.718   5.839
 3490POPC   C1A45003  30.894  33.153   6.241
 3490POPC   D2A45004  30.813  33.342   6.664
 3490POPC   C3A45005  30.899  33.126   7.072
 3490POPC   C4A45006  30.830  32.937   7.480
 3490POPC   C1B45007  30.755  32.637   6.244
 3490POPC   C2B45008  30.715  32.831   6.660
 3490POPC   C3B45009  30.703  32.645   7.068
 3490POPC   C4B45010  31.031  32.497   7.306
 3491POPC   NC345011  14.576  42.976   5.471
 3491POPC   PO445012  14.084  43.428   5.597
 3491POPC   GL145013  14.318  43.162   5.880
 3491POPC   GL245014  14.158  42.847   5.940
 3491POPC   C1A45015  14.567  43.010   6.238
 3491POPC   D2A45016  14.480  43.210   6.636
 3491POPC   C3A45017  14.568  43.023   7.033
 3491POPC   C4A45018  14.960  43.054   7.246
 3491POPC   C1B45019  14.072  42.951   6.363
 3491POPC   C2B45020  13.967  42.877   6.788
 3491POPC   C3B45021  14.012  42.959   7.199
 3491POPC   C4B45022  14.252  42.917   7.543
 3492POPC   NC345023  22.370  34.602   5.357
 3492POPC   PO445024  21.754  34.399   5.365
 3492POPC   GL145025  22.014  34.479   5.768
 3492POPC   GL245026  22.336  34.586   5.858
 3492POPC   C1A45027  21.968  34.579   6.237
 3492POPC   D2A45028  22.094  34.545   6.684
 3492POPC   C3A45029  21.855  34.837   7.001
 3492POPC   C4A45030  21.884  34.777   7.475
 3492POPC   C1B45031  22.461  34.364   6.197
 3492POPC   C2B45032  22.657  34.493   6.584
 3492POPC   C3B45033  22.499  34.794   6.876
 3492POPC   C4B45034  22.254  34.594   7.183
 3493POPC   NC345035   0.777  42.155   5.495
 3493POPC   PO445036   1.492  42.157   5.340
 3493POPC   GL145037   1.277  42.245   5.744
 3493POPC   GL245038   1.068  42.532   5.752
 3493POPC   C1A45039   1.439  42.139   6.156
 3493POPC   D2A45040   1.363  41.936   6.564
 3493POPC   C3A45041   1.293  42.114   6.977
 3493POPC   C4A45042   1.105  41.997   7.342
 3493POPC   C1B45043   1.033  42.464   6.190
 3493POPC   C2B45044   1.007  42.371   6.646
 3493POPC   C3B45045   0.918  42.443   7.121
 3493POPC   C4B45046   1.172  42.490   7.467
 3494POPC   NC345047   6.614   7.207   5.464
 3494POPC   PO445048   6.563   6.545   5.323
 3494POPC   GL145049   6.502   6.588   5.736
 3494POPC   GL245050   6.780   6.797   5.805
 3494POPC   C1A45051   6.654   6.427   6.131
 3494POPC   D2A45052   6.525   6.618   6.488
 3494POPC   C3A45053   6.639   6.393   6.819
 3494POPC   C4A45054   6.476   6.542   7.185
 3494POPC   C1B45055   6.954   6.857   6.253
 3494POPC   C2B45056   6.823   7.023   6.660
 3494POPC   C3B45057   6.914   6.807   7.035
 3494POPC   C4B45058   6.987   6.416   7.191
 3495POPC   NC345059  30.966  34.042   5.417
 3495POPC   PO445060  30.354  33.824   5.216
 3495POPC   GL145061  30.556  33.866   5.686
 3495POPC   GL245062  30.681  34.205   5.826
 3495POPC   C1A45063  30.709  33.813   6.163
 3495POPC   D2A45064  30.681  34.031   6.612
 3495POPC   C3A45065  30.841  33.766   6.963
 3495POPC   C4A45066  30.541  33.465   7.087
 3495POPC   C1B45067  30.946  34.268   6.221
 3495POPC   C2B45068  31.170  34.132   6.623
 3495POPC   C3B45069  30.971  34.244   7.031
 3495POPC   C4B45070  30.541  34.259   7.153
 3496POPC   NC345071  36.153  24.233   5.471
 3496POPC   PO445072  35.867  23.575   5.424
 3496POPC   GL145073  36.144  23.573   5.775
 3496POPC   GL245074  36.272  23.904   5.908
 3496POPC   C1A45075  36.072  23.532   6.209
 3496POPC   D2A45076  36.199  23.863   6.470
 3496POPC   C3A45077  36.331  23.759   6.852
 3496POPC   C4A45078  36.123  23.512   7.126
 3496POPC   C1B45079  35.848  24.004   6.127
 3496POPC   C2B45080  35.727  24.079   6.591
 3496POPC   C3B45081  35.966  24.081   7.013
 3496POPC   C4B45082  35.820  23.837   7.406
 3497POPC   NC345083   0.626  16.752   5.135
 3497POPC   PO445084   0.740  16.227   5.530
 3497POPC   GL145085   0.357  16.476   5.825
 3497POPC   GL245086   0.214  16.798   5.660
 3497POPC   C1A45087   0.498  16.510   6.230
 3497POPC   D2A45088   0.720  16.691   6.562
 3497POPC   C3A45089   0.495  16.496   6.895
 3497POPC   C4A45090   0.349  16.609   7.281
 3497POPC   C1B45091   0.181  16.912   6.082
 3497POPC   C2B45092   0.220  16.826   6.515
 3497POPC   C3B45093   0.396  17.002   6.876
 3497POPC   C4B45094   0.136  17.080   7.197
 3498POPC   NC345095  13.011  31.190   5.592
 3498POPC   PO445096  13.523  31.534   5.283
 3498POPC   GL145097  13.718  31.401   5.695
 3498POPC   GL245098  13.495  31.157   5.778
 3498POPC   C1A45099  13.648  31.522   6.151
 3498POPC   D2A45100  13.868  31.659   6.532
 3498POPC   C3A45101  13.724  31.460   6.889
 3498POPC   C4A45102  13.801  31.448   7.322
 3498POPC   C1B45103  13.321  31.114   6.201
 3498POPC   C2B45104  13.299  31.311   6.612
 3498POPC   C3B45105  13.389  31.093   7.004
 3498POPC   C4B45106  13.360  31.198   7.461
 3499POPC   NC345107  31.390  34.754   5.485
 3499POPC   PO445108  31.706  34.221   5.243
 3499POPC   GL145109  31.617  34.306   5.686
 3499POPC   GL245110  31.761  34.625   5.793
 3499POPC   C1A45111  31.431  34.384   6.115
 3499POPC   D2A45112  31.351  34.596   6.531
 3499POPC   C3A45113  31.457  34.411   6.932
 3499POPC   C4A45114  31.337  34.391   7.386
 3499POPC   C1B45115  31.745  34.779   6.208
 3499POPC   C2B45116  31.779  34.827   6.637
 3499POPC   C3B45117  31.584  34.927   6.984
 3499POPC   C4B45118  31.735  34.675   7.259
 3500POPC   NC345119   1.449  26.259   5.498
 3500POPC   PO445120   1.382  25.723   5.830
 3500POPC   GL145121   1.231  26.125   5.942
 3500POPC   GL245122   0.856  26.157   5.913
 3500POPC   C1A45123   1.454  26.240   6.313
 3500POPC   D2A45124   1.619  25.934   6.628
 3500POPC   C3A45125   1.374  25.927   7.008
 3500POPC   C4A45126   1.402  25.812   7.426
 3500POPC   C1B45127   0.897  26.289   6.291
 3500POPC   C2B45128   1.003  26.160   6.686
 3500POPC   C3B45129   0.857  26.317   7.069
 3500POPC   C4B45130   0.931  25.963   7.294
 3501POPC   NC345131  15.348  22.261   5.109
 3501POPC   PO445132  14.952  21.791   5.515
 3501POPC   GL145133  15.008  22.077   5.841
 3501POPC   GL245134  15.295  21.923   5.981
 3501POPC   C1A45135  15.079  22.306   6.245
 3501POPC   D2A45136  15.198  22.232   6.676
 3501POPC   C3A45137  14.953  22.374   7.034
 3501POPC   C4A45138  15.170  22.450   7.397
 3501POPC   C1B45139  15.390  21.678   6.318
 3501POPC   C2B45140  15.507  21.806   6.730
 3501POPC   C3B45141  15.430  22.058   7.108
 3501POPC   C4B45142  15.304  21.921   7.507
 3502POPC   NC345143  18.519   6.923   5.517
 3502POPC   PO445144  18.318   6.241   5.406
 3502POPC   GL145145  18.282   6.496   5.766
 3502POPC   GL245146  18.588   6.563   5.892
 3502POPC   C1A45147  18.082   6.622   6.167
 3502POPC   D2A45148  18.059   6.866   6.572
 3502POPC   C3A45149  18.205   6.659   6.959
 3502POPC   C4A45150  18.172   6.604   7.398
 3502POPC   C1B45151  18.499   6.914   6.182
 3502POPC   C2B45152  18.622   7.071   6.587
 3502POPC   C3B45153  18.641   6.979   7.012
 3502POPC   C4B45154  18.579   6.894   7.460
 3503POPC   NC345155  43.547  10.736   5.356
 3503POPC   PO445156  43.985  10.239   5.475
 3503POPC   GL145157  43.732  10.328   5.852
 3503POPC   GL245158  43.648  10.714   5.904
 3503POPC   C1A45159  43.806  10.287   6.283
 3503POPC   D2A45160  44.028  10.604   6.533
 3503POPC   C3A45161  43.987  10.464   6.962
 3503POPC   C4A45162  44.145  10.625   7.329
 3503POPC   C1B45163  43.547  10.725   6.381
 3503POPC   C2B45164  43.633  10.800   6.790
 3503POPC   C3B45165  43.666  10.809   7.225
 3503POPC   C4B45166  43.464  10.987   7.589
 3504POPC   NC345167  37.477  25.112   5.439
 3504POPC   PO445168  36.888  25.511   5.396
 3504POPC   GL145169  36.994  25.168   5.722
 3504POPC   GL245170  37.278  25.348   5.833
 3504POPC   C1A45171  37.029  25.064   6.216
 3504POPC   D2A45172  37.135  24.999   6.684
 3504POPC   C3A45173  36.955  25.101   7.100
 3504POPC   C4A45174  36.989  25.164   7.582
 3504POPC   C1B45175  37.206  25.553   6.178
 3504POPC   C2B45176  37.063  25.503   6.566
 3504POPC   C3B45177  37.275  25.449   6.915
 3504POPC   C4B45178  37.198  25.534   7.286
 3505POPC   NC345179  32.215  43.273   5.358
 3505POPC   PO445180  32.200  42.570   5.165
 3505POPC   GL145181  32.305  42.811   5.613
 3505POPC   GL245182  32.064  42.743   5.905
 3505POPC   C1A45183  32.350  43.149   5.995
 3505POPC   D2A45184  32.386  43.361   6.426
 3505POPC   C3A45185  32.256  43.358   6.876
 3505POPC   C4A45186  32.497  43.452   7.246
 3505POPC   C1B45187  32.008  42.913   6.319
 3505POPC   C2B45188  31.857  43.083   6.694
 3505POPC   C3B45189  31.951  42.943   7.095
 3505POPC   C4B45190  32.276  42.780   7.362
 3506POPC   NC345191   2.316  32.532   5.086
 3506POPC   PO445192   2.869  32.130   5.301
 3506POPC   GL145193   2.915  32.249   5.723
 3506POPC   GL245194   3.161  32.504   5.628
 3506POPC   C1A45195   2.857  31.981   6.111
 3506POPC   D2A45196   2.738  31.862   6.562
 3506POPC   C3A45197   2.668  32.244   6.828
 3506POPC   C4A45198   2.557  32.272   7.267
 3506POPC   C1B45199   3.320  32.357   6.056
 3506POPC   C2B45200   3.098  32.283   6.458
 3506POPC   C3B45201   3.204  32.155   6.863
 3506POPC   C4B45202   3.116  32.258   7.266
 3507POPC   NC345203  27.356  44.622   5.537
 3507POPC   PO445204  28.057  44.432   5.609
 3507POPC   GL145205  27.756  44.660   5.870
 3507POPC   GL245206  27.407  44.615   6.031
 3507POPC   C1A45207  27.869  44.670   6.287
 3507POPC   D2A45208  27.941  44.312   6.546
 3507POPC   C3A45209  27.868  44.517   6.911
 3507POPC   C4A45210  27.827  44.863   7.140
 3507POPC   C1B45211  27.411  44.493   6.454
 3507POPC   C2B45212  27.247  44.659   6.800
 3507POPC   C3B45213  27.374  44.613   7.190
 3507POPC   C4B45214  27.244  44.248   7.349
 3508POPC   NC345215  40.834  21.629   5.243
 3508POPC   PO445216  40.655  20.988   5.235
 3508POPC   GL145217  40.694  21.370   5.676
 3508POPC   GL245218  40.899  21.601   5.885
 3508POPC   C1A45219  40.533  21.436   6.171
 3508POPC   D2A45220  40.449  21.325   6.581
 3508POPC   C3A45221  40.645  21.543   6.899
 3508POPC   C4A45222  40.638  21.297   7.245
 3508POPC   C1B45223  40.984  21.247   6.170
 3508POPC   C2B45224  40.951  21.218   6.616
 3508POPC   C3B45225  41.112  21.370   7.025
 3508POPC   C4B45226  41.092  21.273   7.473
 3509POPC   NC345227   2.158  16.231   5.069
 3509POPC   PO445228   1.694  15.932   5.474
 3509POPC   GL145229   1.895  15.744   5.820
 3509POPC   GL245230   2.226  15.690   5.660
 3509POPC   C1A45231   1.920  15.915   6.264
 3509POPC   D2A45232   2.006  16.244   6.586
 3509POPC   C3A45233   1.988  16.090   7.007
 3509POPC   C4A45234   1.941  16.164   7.473
 3509POPC   C1B45235   2.344  15.641   6.097
 3509POPC   C2B45236   2.205  15.580   6.539
 3509POPC   C3B45237   2.344  15.713   6.917
 3509POPC   C4B45238   2.327  15.552   7.328
 3510POPC   NC345239  22.136  24.923   5.304
 3510POPC   PO445240  22.409  24.256   5.336
 3510POPC   GL145241  22.181  24.318   5.709
 3510POPC   GL245242  22.258  24.612   5.740
 3510POPC   C1A45243  22.315  24.258   6.140
 3510POPC   D2A45244  22.245  24.433   6.542
 3510POPC   C3A45245  22.199  24.304   6.961
 3510POPC   C4A45246  22.469  24.265   7.351
 3510POPC   C1B45247  22.119  24.757   6.141
 3510POPC   C2B45248  22.011  24.870   6.555
 3510POPC   C3B45249  22.239  24.834   6.933
 3510POPC   C4B45250  22.154  24.975   7.371
 3511POPC   NC345251   6.957   8.026   5.508
 3511POPC   PO445252   6.397   8.416   5.462
 3511POPC   GL145253   6.589   8.233   5.789
 3511POPC   GL245254   6.838   8.464   5.758
 3511POPC   C1A45255   6.648   7.964   6.163
 3511POPC   D2A45256   6.389   7.886   6.539
 3511POPC   C3A45257   6.554   8.063   6.913
 3511POPC   C4A45258   6.773   8.213   7.256
 3511POPC   C1B45259   6.693   8.517   6.175
 3511POPC   C2B45260   6.631   8.359   6.520
 3511POPC   C3B45261   6.909   8.484   6.847
 3511POPC   C4B45262   6.793   8.737   7.220
 3512POPC   NC345263   9.022   8.705   5.419
 3512POPC   PO445264   9.031   7.971   5.406
 3512POPC   GL145265   8.917   8.170   5.816
 3512POPC   GL245266   8.575   8.277   5.835
 3512POPC   C1A45267   9.044   8.308   6.262
 3512POPC   D2A45268   8.947   8.341   6.715
 3512POPC   C3A45269   9.212   8.221   7.058
 3512POPC   C4A45270   9.222   8.276   7.511
 3512POPC   C1B45271   8.597   8.039   6.250
 3512POPC   C2B45272   8.698   7.870   6.680
 3512POPC   C3B45273   8.734   8.012   7.122
 3512POPC   C4B45274   8.589   7.913   7.551
 3513POPC   NC345275  43.535   4.816   5.405
 3513POPC   PO445276  44.093   5.186   5.468
 3513POPC   GL145277  43.972   5.143   5.868
 3513POPC   GL245278  43.650   5.097   5.822
 3513POPC   C1A45279  43.856   4.869   6.216
 3513POPC   D2A45280  43.819   4.990   6.623
 3513POPC   C3A45281  43.809   4.662   6.887
 3513POPC   C4A45282  43.930   4.843   7.245
 3513POPC   C1B45283  43.609   5.310   6.255
 3513POPC   C2B45284  43.383   5.220   6.688
 3513POPC   C3B45285  43.571   5.225   7.144
 3513POPC   C4B45286  43.534   5.457   7.587
 3514POPC   NC345287  11.375   3.737   5.165
 3514POPC   PO445288  11.412   3.157   5.550
 3514POPC   GL145289  11.404   3.449   5.874
 3514POPC   GL245290  11.078   3.538   5.962
 3514POPC   C1A45291  11.473   3.414   6.327
 3514POPC   D2A45292  11.653   3.360   6.727
 3514POPC   C3A45293  11.494   3.707   6.905
 3514POPC   C4A45294  11.654   3.957   7.195
 3514POPC   C1B45295  10.982   3.329   6.337
 3514POPC   C2B45296  11.159   3.149   6.680
 3514POPC   C3B45297  11.194   3.315   7.044
 3514POPC   C4B45298  10.995   3.714   7.125
 3515POPC   NC345299  27.693   9.226   5.274
 3515POPC   PO445300  27.356   8.684   5.496
 3515POPC   GL145301  27.501   8.939   5.842
 3515POPC   GL245302  27.797   9.106   5.788
 3515POPC   C1A45303  27.497   9.071   6.295
 3515POPC   D2A45304  27.522   8.800   6.671
 3515POPC   C3A45305  27.477   8.926   7.114
 3515POPC   C4A45306  27.181   8.867   7.453
 3515POPC   C1B45307  27.912   8.828   6.158
 3515POPC   C2B45308  28.023   8.947   6.573
 3515POPC   C3B45309  27.942   8.791   6.981
 3515POPC   C4B45310  28.001   8.835   7.447
 3516POPC   NC345311  23.343  35.869   5.446
 3516POPC   PO445312  23.854  36.289   5.440
 3516POPC   GL145313  23.722  36.009   5.757
 3516POPC   GL245314  23.426  36.167   5.863
 3516POPC   C1A45315  23.762  35.953   6.204
 3516POPC   D2A45316  23.904  36.163   6.600
 3516POPC   C3A45317  24.044  35.959   6.998
 3516POPC   C4A45318  23.979  36.160   7.420
 3516POPC   C1B45319  23.282  36.111   6.314
 3516POPC   C2B45320  23.396  36.284   6.717
 3516POPC   C3B45321  23.547  36.110   7.099
 3516POPC   C4B45322  23.495  36.089   7.561
 3517POPC   NC345323   8.212  42.496   5.343
 3517POPC   PO445324   8.728  42.285   5.381
 3517POPC   GL145325   8.505  42.165   5.748
 3517POPC   GL245326   8.119  42.202   5.778
 3517POPC   C1A45327   8.456  42.215   6.195
 3517POPC   D2A45328   8.180  42.295   6.544
 3517POPC   C3A45329   8.317  42.202   6.972
 3517POPC   C4A45330   8.090  42.255   7.367
 3517POPC   C1B45331   7.877  42.426   6.113
 3517POPC   C2B45332   7.750  42.581   6.515
 3517POPC   C3B45333   7.839  42.434   6.934
 3517POPC   C4B45334   7.622  42.522   7.314
 3518POPC   NC345335  31.648  15.194   5.439
 3518POPC   PO445336  31.061  14.899   5.509
 3518POPC   GL145337  31.334  15.036   5.837
 3518POPC   GL245338  31.668  14.870   5.833
 3518POPC   C1A45339  31.318  15.125   6.279
 3518POPC   D2A45340  31.328  15.062   6.735
 3518POPC   C3A45341  31.111  15.324   7.017
 3518POPC   C4A45342  31.372  15.145   7.313
 3518POPC   C1B45343  31.836  14.964   6.224
 3518POPC   C2B45344  31.770  15.264   6.561
 3518POPC   C3B45345  31.766  15.117   6.987
 3518POPC   C4B45346  31.840  15.300   7.413
 3519POPC   NC345347  26.918  44.501   5.228
 3519POPC   PO445348  27.113   0.012   5.661
 3519POPC   GL145349  26.924  44.765   5.945
 3519POPC   GL245350  26.935  44.424   5.855
 3519POPC   C1A45351  26.918  44.644   6.349
 3519POPC   D2A45352  26.691  44.705   6.690
 3519POPC   C3A45353  26.890  44.999   6.951
 3519POPC   C4A45354  27.002  44.925   7.358
 3519POPC   C1B45355  27.067  44.167   6.233
 3519POPC   C2B45356  26.985  44.229   6.709
 3519POPC   C3B45357  26.839  44.455   7.118
 3519POPC   C4B45358  26.798  44.431   7.597
 3520POPC   NC345359   1.421   0.091   5.588
 3520POPC   PO445360   1.264   0.757   5.555
 3520POPC   GL145361   1.139   0.628   5.922
 3520POPC   GL245362   1.039   0.293   5.865
 3520POPC   C1A45363   1.280   0.579   6.309
 3520POPC   D2A45364   1.417   0.452   6.688
 3520POPC   C3A45365   1.218   0.654   7.036
 3520POPC   C4A45366   1.421   0.590   7.417
 3520POPC   C1B45367   0.825   0.334   6.253
 3520POPC   C2B45368   0.868   0.488   6.662
 3520POPC   C3B45369   0.866   0.277   7.049
 3520POPC   C4B45370   0.942   0.298   7.486
 3521POPC   NC345371  23.811   9.170   5.330
 3521POPC   PO445372  23.484   8.675   5.429
 3521POPC   GL145373  23.783   8.903   5.762
 3521POPC   GL245374  23.650   9.258   5.812
 3521POPC   C1A45375  23.921   9.091   6.196
 3521POPC   D2A45376  23.691   8.913   6.575
 3521POPC   C3A45377  23.788   8.924   7.040
 3521POPC   C4A45378  23.600   8.965   7.483
 3521POPC   C1B45379  23.462   9.316   6.246
 3521POPC   C2B45380  23.631   9.415   6.677
 3521POPC   C3B45381  23.521   9.359   7.134
 3521POPC   C4B45382  23.214   9.285   7.497
 3522POPC   NC345383  11.851  25.567   5.594
 3522POPC   PO445384  12.219  25.000   5.319
 3522POPC   GL145385  12.241  25.016   5.750
 3522POPC   GL245386  12.192  25.335   5.893
 3522POPC   C1A45387  12.140  24.894   6.168
 3522POPC   D2A45388  12.242  25.095   6.548
 3522POPC   C3A45389  12.357  24.925   6.899
 3522POPC   C4A45390  12.010  25.009   7.145
 3522POPC   C1B45391  11.900  25.357   6.270
 3522POPC   C2B45392  11.823  25.338   6.756
 3522POPC   C3B45393  11.981  25.541   7.171
 3522POPC   C4B45394  11.928  25.633   7.645
 3523POPC   NC345395   0.566  11.702   5.495
 3523POPC   PO445396   0.342  11.119   5.262
 3523POPC   GL145397   0.376  11.270   5.700
 3523POPC   GL245398   0.753  11.337   5.791
 3523POPC   C1A45399   0.148  11.321   6.102
 3523POPC   D2A45400   0.080  11.474   6.532
 3523POPC   C3A45401   0.130  11.207   6.911
 3523POPC   C4A45402  44.900  11.146   7.282
 3523POPC   C1B45403   0.609  11.543   6.177
 3523POPC   C2B45404   0.670  11.586   6.623
 3523POPC   C3B45405   0.772  11.636   7.044
 3523POPC   C4B45406   0.564  11.394   7.338
 3524POPC   NC345407  10.360  37.414   5.366
 3524POPC   PO445408  10.477  37.967   5.655
 3524POPC   GL145409  10.470  37.748   5.980
 3524POPC   GL245410  10.647  37.511   5.876
 3524POPC   C1A45411  10.412  37.782   6.401
 3524POPC   D2A45412  10.124  37.734   6.737
 3524POPC   C3A45413  10.282  37.698   7.111
 3524POPC   C4A45414  10.448  38.028   7.238
 3524POPC   C1B45415  10.698  37.333   6.279
 3524POPC   C2B45416  10.768  37.532   6.665
 3524POPC   C3B45417  10.973  37.397   6.982
 3524POPC   C4B45418  10.791  37.179   7.268
 3525POPC   NC345419   9.634  11.208   5.371
 3525POPC   PO445420  10.152  10.838   5.583
 3525POPC   GL145421   9.840  11.097   5.822
 3525POPC   GL245422   9.946  11.450   5.793
 3525POPC   C1A45423   9.480  11.034   6.120
 3525POPC   D2A45424   9.599  11.024   6.547
 3525POPC   C3A45425   9.547  11.089   6.979
 3525POPC   C4A45426   9.947  11.122   7.197
 3525POPC   C1B45427   9.797  11.426   6.232
 3525POPC   C2B45428   9.605  11.557   6.615
 3525POPC   C3B45429   9.780  11.566   6.997
 3525POPC   C4B45430   9.596  11.654   7.349
 3526POPC   NC345431   1.689   0.849   5.384
 3526POPC   PO445432   1.963   1.484   5.425
 3526POPC   GL145433   1.880   1.195   5.734
 3526POPC   GL245434   2.128   0.929   5.735
 3526POPC   C1A45435   1.893   1.246   6.173
 3526POPC   D2A45436   2.048   1.476   6.528
 3526POPC   C3A45437   1.890   1.419   6.958
 3526POPC   C4A45438   2.110   1.495   7.380
 3526POPC   C1B45439   2.088   0.774   6.175
 3526POPC   C2B45440   1.713   0.850   6.468
 3526POPC   C3B45441   1.587   0.982   6.881
 3526POPC   C4B45442   1.811   1.036   7.273
 3527POPC   NC345443  31.709   9.207   5.396
 3527POPC   PO445444  31.277   8.723   5.506
 3527POPC   GL145445  31.542   8.839   5.865
 3527POPC   GL245446  31.416   9.177   5.814
 3527POPC   C1A45447  31.683   8.766   6.336
 3527POPC   D2A45448  31.860   8.597   6.736
 3527POPC   C3A45449  31.568   8.578   7.065
 3527POPC   C4A45450  31.140   8.740   7.157
 3527POPC   C1B45451  31.398   9.416   6.184
 3527POPC   C2B45452  31.299   9.332   6.601
 3527POPC   C3B45453  31.463   9.078   6.913
 3527POPC   C4B45454  31.589   9.282   7.261
 3528POPC   NC345455  12.162   6.192   5.434
 3528POPC   PO445456  11.863   5.603   5.512
 3528POPC   GL145457  12.074   5.794   5.842
 3528POPC   GL245458  12.351   5.594   5.836
 3528POPC   C1A45459  12.075   5.854   6.315
 3528POPC   D2A45460  11.903   6.164   6.639
 3528POPC   C3A45461  11.893   6.067   7.089
 3528POPC   C4A45462  12.154   5.746   7.347
 3528POPC   C1B45463  12.543   5.915   6.075
 3528POPC   C2B45464  12.532   6.086   6.478
 3528POPC   C3B45465  12.367   5.984   6.870
 3528POPC   C4B45466  12.356   6.225   7.227
 3529POPC   NC345467  33.302   4.020   5.463
 3529POPC   PO445468  32.730   3.556   5.501
 3529POPC   GL145469  32.871   3.460   5.887
 3529POPC   GL245470  33.174   3.640   5.825
 3529POPC   C1A45471  33.020   3.410   6.303
 3529POPC   D2A45472  33.278   3.195   6.608
 3529POPC   C3A45473  33.139   3.363   6.986
 3529POPC   C4A45474  32.912   3.745   7.152
 3529POPC   C1B45475  33.237   3.877   6.201
 3529POPC   C2B45476  33.189   3.776   6.650
 3529POPC   C3B45477  33.423   3.795   7.046
 3529POPC   C4B45478  33.437   3.778   7.474
 3530POPC   NC345479   9.744  32.826   5.488
 3530POPC   PO445480   9.945  32.151   5.396
 3530POPC   GL145481   9.802  32.178   5.830
 3530POPC   GL245482   9.956  32.513   5.905
 3530POPC   C1A45483   9.755  31.976   6.253
 3530POPC   D2A45484   9.616  32.135   6.662
 3530POPC   C3A45485   9.619  31.922   7.043
 3530POPC   C4A45486   9.893  32.018   7.360
 3530POPC   C1B45487   9.715  32.510   6.293
 3530POPC   C2B45488   9.669  32.644   6.726
 3530POPC   C3B45489   9.549  32.446   7.090
 3530POPC   C4B45490   9.233  32.703   7.170
 3531POPC   NC345491  25.824  29.328   5.457
 3531POPC   PO445492  26.287  28.855   5.316
 3531POPC   GL145493  26.333  29.056   5.704
 3531POPC   GL245494  25.979  28.962   5.784
 3531POPC   C1A45495  26.249  29.210   6.129
 3531POPC   D2A45496  26.038  29.092   6.496
 3531POPC   C3A45497  26.115  29.344   6.860
 3531POPC   C4A45498  26.219  29.062   7.187
 3531POPC   C1B45499  25.769  28.816   6.162
 3531POPC   C2B45500  25.747  28.620   6.588
 3531POPC   C3B45501  25.784  28.752   7.004
 3531POPC   C4B45502  25.727  29.170   7.161
 3532POPC   NC345503  41.986  43.642   5.173
 3532POPC   PO445504  42.329  44.242   5.255
 3532POPC   GL145505  42.258  44.156   5.731
 3532POPC   GL245506  42.398  44.396   5.946
 3532POPC   C1A45507  42.130  44.010   6.209
 3532POPC   D2A45508  41.960  43.969   6.682
 3532POPC   C3A45509  42.170  43.711   7.027
 3532POPC   C4A45510  42.473  43.644   7.373
 3532POPC   C1B45511  42.650  44.029   6.084
 3532POPC   C2B45512  42.787  43.971   6.530
 3532POPC   C3B45513  42.611  44.007   6.946
 3532POPC   C4B45514  42.665  44.116   7.366
 3533POPC   NC345515  13.340   9.139   5.281
 3533POPC   PO445516  13.955   8.930   5.269
 3533POPC   GL145517  13.703   8.909   5.669
 3533POPC   GL245518  13.910   8.639   5.750
 3533POPC   C1A45519  13.503   9.075   6.103
 3533POPC   D2A45520  13.562   9.048   6.583
 3533POPC   C3A45521  13.342   9.189   6.968
 3533POPC   C4A45522  13.311   9.229   7.424
 3533POPC   C1B45523  13.801   8.649   6.156
 3533POPC   C2B45524  13.985   8.768   6.522
 3533POPC   C3B45525  13.740   8.665   6.876
 3533POPC   C4B45526  13.589   8.817   7.254
 3534POPC   NC345527  16.630   9.720   5.166
 3534POPC   PO445528  16.539   9.257   5.662
 3534POPC   GL145529  16.474   9.613   5.943
 3534POPC   GL245530  16.551   9.988   5.852
 3534POPC   C1A45531  16.706   9.704   6.296
 3534POPC   D2A45532  16.604   9.582   6.686
 3534POPC   C3A45533  16.771   9.751   7.003
 3534POPC   C4A45534  16.621   9.569   7.377
 3534POPC   C1B45535  16.801  10.206   6.206
 3534POPC   C2B45536  17.035  10.199   6.630
 3534POPC   C3B45537  17.152  10.110   7.056
 3534POPC   C4B45538  17.011   9.883   7.435
 3535POPC   NC345539  12.648  38.849   5.552
 3535POPC   PO445540  12.601  39.529   5.463
 3535POPC   GL145541  12.521  39.337   5.831
 3535POPC   GL245542  12.837  39.210   5.914
 3535POPC   C1A45543  12.565  39.446   6.280
 3535POPC   D2A45544  12.795  39.291   6.636
 3535POPC   C3A45545  12.743  39.427   7.075
 3535POPC   C4A45546  13.062  39.561   7.330
 3535POPC   C1B45547  12.621  38.930   6.234
 3535POPC   C2B45548  12.649  38.797   6.673
 3535POPC   C3B45549  12.871  38.933   7.007
 3535POPC   C4B45550  12.607  38.803   7.293
 3536POPC   NC345551  44.347  26.318   5.401
 3536POPC   PO445552  44.447  25.762   5.601
 3536POPC   GL145553  44.413  26.053   5.889
 3536POPC   GL245554  44.734  26.165   5.900
 3536POPC   C1A45555  44.474  25.981   6.330
 3536POPC   D2A45556  44.605  26.219   6.658
 3536POPC   C3A45557  44.573  26.070   7.076
 3536POPC   C4A45558  44.631  26.348   7.445
 3536POPC   C1B45559  44.961  26.252   6.261
 3536POPC   C2B45560   0.105  26.047   6.641
 3536POPC   C3B45561   0.050  25.863   7.048
 3536POPC   C4B45562  44.871  25.913   7.461
 3537POPC   NC345563  12.645  37.540   5.660
 3537POPC   PO445564  12.894  38.037   5.242
 3537POPC   GL145565  12.909  37.980   5.751
 3537POPC   GL245566  13.048  37.660   5.937
 3537POPC   C1A45567  12.799  37.987   6.224
 3537POPC   D2A45568  12.982  38.041   6.672
 3537POPC   C3A45569  12.844  37.906   7.101
 3537POPC   C4A45570  12.976  37.702   7.515
 3537POPC   C1B45571  12.741  37.486   6.294
 3537POPC   C2B45572  12.763  37.428   6.758
 3537POPC   C3B45573  12.688  37.416   7.208
 3537POPC   C4B45574  12.742  37.156   7.585
 3538POPC   NC345575  40.548  11.749   5.644
 3538POPC   PO445576  40.591  11.186   5.227
 3538POPC   GL145577  40.672  11.236   5.694
 3538POPC   GL245578  41.021  11.179   5.768
 3538POPC   C1A45579  40.716  11.334   6.171
 3538POPC   D2A45580  40.932  11.205   6.571
 3538POPC   C3A45581  40.743  11.207   6.995
 3538POPC   C4A45582  41.032  11.362   7.256
 3538POPC   C1B45583  41.188  11.514   6.057
 3538POPC   C2B45584  41.061  11.698   6.473
 3538POPC   C3B45585  40.973  11.832   6.893
 3538POPC   C4B45586  41.161  11.863   7.290
 3539POPC   NC345587  28.041  18.848   5.298
 3539POPC   PO445588  28.573  19.326   5.399
 3539POPC   GL145589  28.469  18.983   5.761
 3539POPC   GL245590  28.097  18.885   5.813
 3539POPC   C1A45591  28.370  18.974   6.255
 3539POPC   D2A45592  28.223  19.224   6.645
 3539POPC   C3A45593  28.550  19.292   6.986
 3539POPC   C4A45594  28.580  18.985   7.325
 3539POPC   C1B45595  27.999  18.621   6.174
 3539POPC   C2B45596  28.075  18.677   6.608
 3539POPC   C3B45597  28.212  18.841   6.993
 3539POPC   C4B45598  28.102  19.215   7.188
 3540POPC   NC345599   1.936  41.877   5.461
 3540POPC   PO445600   1.949  42.531   5.273
 3540POPC   GL145601   1.959  42.333   5.711
 3540POPC   GL245602   2.282  42.125   5.758
 3540POPC   C1A45603   1.943  42.331   6.188
 3540POPC   D2A45604   1.649  42.379   6.565
 3540POPC   C3A45605   1.769  42.238   6.980
 3540POPC   C4A45606   1.684  42.462   7.318
 3540POPC   C1B45607   2.366  41.897   6.158
 3540POPC   C2B45608   2.277  42.022   6.577
 3540POPC   C3B45609   2.173  42.383   6.729
 3540POPC   C4B45610   2.209  42.452   7.161
 3541POPC   NC345611   6.815  38.636   5.622
 3541POPC   PO445612   6.281  38.903   5.385
 3541POPC   GL145613   6.456  39.151   5.747
 3541POPC   GL245614   6.779  39.169   5.737
 3541POPC   C1A45615   6.462  39.302   6.169
 3541POPC   D2A45616   6.460  39.081   6.537
 3541POPC   C3A45617   6.491  39.333   6.919
 3541POPC   C4A45618   6.461  39.118   7.262
 3541POPC   C1B45619   6.958  39.151   6.167
 3541POPC   C2B45620   6.907  39.301   6.614
 3541POPC   C3B45621   6.968  39.223   7.077
 3541POPC   C4B45622   6.760  39.469   7.407
 3542POPC   NC345623  32.205   1.006   5.403
 3542POPC   PO445624  32.531   1.554   5.295
 3542POPC   GL145625  32.326   1.436   5.711
 3542POPC   GL245626  32.030   1.605   5.873
 3542POPC   C1A45627  32.434   1.213   6.110
 3542POPC   D2A45628  32.503   1.118   6.564
 3542POPC   C3A45629  32.307   1.104   6.949
 3542POPC   C4A45630  32.477   1.354   7.250
 3542POPC   C1B45631  32.076   1.501   6.329
 3542POPC   C2B45632  31.952   1.157   6.558
 3542POPC   C3B45633  31.775   1.128   6.942
 3542POPC   C4B45634  31.921   1.242   7.302
 3543POPC   NC345635   7.073  44.666   5.120
 3543POPC   PO445636   6.418  44.599   5.302
 3543POPC   GL145637   6.363  44.685   5.763
 3543POPC   GL245638   6.714  44.822   5.761
 3543POPC   C1A45639   6.231  44.502   6.202
 3543POPC   D2A45640   6.395  44.218   6.533
 3543POPC   C3A45641   6.717  44.424   6.763
 3543POPC   C4A45642   6.521  44.466   7.158
 3543POPC   C1B45643   6.550   0.063   6.106
 3543POPC   C2B45644   6.526  44.851   6.476
 3543POPC   C3B45645   6.542  44.915   6.874
 3543POPC   C4B45646   6.488   0.097   7.216
 3544POPC   NC345647  17.985   1.925   5.373
 3544POPC   PO445648  18.594   1.600   5.504
 3544POPC   GL145649  18.281   1.827   5.777
 3544POPC   GL245650  18.270   2.179   5.725
 3544POPC   C1A45651  18.248   1.925   6.216
 3544POPC   D2A45652  18.545   1.949   6.544
 3544POPC   C3A45653  18.541   1.834   6.987
 3544POPC   C4A45654  18.360   2.031   7.341
 3544POPC   C1B45655  18.032   2.359   6.041
 3544POPC   C2B45656  18.137   2.455   6.446
 3544POPC   C3B45657  18.126   2.190   6.794
 3544POPC   C4B45658  17.878   2.212   7.137
 3545POPC   NC345659  30.644  16.089   5.076
 3545POPC   PO445660  31.015  15.547   5.378
 3545POPC   GL145661  30.939  15.908   5.683
 3545POPC   GL245662  30.692  16.188   5.741
 3545POPC   C1A45663  31.009  15.978   6.121
 3545POPC   D2A45664  31.005  16.113   6.546
 3545POPC   C3A45665  30.889  15.817   6.879
 3545POPC   C4A45666  31.087  15.897   7.250
 3545POPC   C1B45667  30.547  16.202   6.200
 3545POPC   C2B45668  30.500  16.127   6.672
 3545POPC   C3B45669  30.566  16.179   7.148
 3545POPC   C4B45670  30.264  16.134   7.533
 3546POPC   NC345671   5.624  35.755   5.283
 3546POPC   PO445672   5.147  35.293   5.348
 3546POPC   GL145673   5.113  35.348   5.775
 3546POPC   GL245674   4.796  35.348   5.900
 3546POPC   C1A45675   5.380  35.570   6.079
 3546POPC   D2A45676   5.491  35.663   6.517
 3546POPC   C3A45677   5.185  35.440   6.803
 3546POPC   C4A45678   5.294  35.203   7.157
 3546POPC   C1B45679   4.996  35.284   6.292
 3546POPC   C2B45680   5.003  34.979   6.569
 3546POPC   C3B45681   4.876  34.850   6.933
 3546POPC   C4B45682   4.857  35.001   7.288
 3547POPC   NC345683  13.299  25.570   5.442
 3547POPC   PO445684  13.902  25.325   5.317
 3547POPC   GL145685  13.822  25.229   5.730
 3547POPC   GL245686  13.532  25.008   5.706
 3547POPC   C1A45687  13.919  25.353   6.150
 3547POPC   D2A45688  13.699  25.322   6.559
 3547POPC   C3A45689  13.924  25.331   6.957
 3547POPC   C4A45690  13.763  25.303   7.332
 3547POPC   C1B45691  13.438  25.124   6.128
 3547POPC   C2B45692  13.384  24.908   6.525
 3547POPC   C3B45693  13.253  24.987   6.933
 3547POPC   C4B45694  13.339  25.017   7.361
 3548POPC   NC345695  18.348  20.337   5.566
 3548POPC   PO445696  18.277  21.002   5.442
 3548POPC   GL145697  18.371  20.772   5.826
 3548POPC   GL245698  18.084  20.799   5.948
 3548POPC   C1A45699  18.426  20.603   6.287
 3548POPC   D2A45700  18.067  20.668   6.579
 3548POPC   C3A45701  18.251  20.606   6.986
 3548POPC   C4A45702  18.186  20.834   7.345
 3548POPC   C1B45703  18.011  20.401   6.140
 3548POPC   C2B45704  17.772  20.265   6.460
 3548POPC   C3B45705  17.826  20.247   6.884
 3548POPC   C4B45706  17.932  20.344   7.277
 3549POPC   NC345707  36.311  35.663   5.433
 3549POPC   PO445708  36.064  36.333   5.482
 3549POPC   GL145709  36.241  36.262   5.877
 3549POPC   GL245710  36.549  36.133   5.799
 3549POPC   C1A45711  36.243  36.175   6.317
 3549POPC   D2A45712  36.084  35.998   6.704
 3549POPC   C3A45713  36.184  36.261   7.032
 3549POPC   C4A45714  36.218  36.440   7.417
 3549POPC   C1B45715  36.438  35.776   6.077
 3549POPC   C2B45716  36.510  35.743   6.521
 3549POPC   C3B45717  36.566  35.961   6.904
 3549POPC   C4B45718  36.503  36.019   7.335
 3550POPC   NC345719  17.428  31.860   5.589
 3550POPC   PO445720  17.296  31.174   5.500
 3550POPC   GL145721  17.437  31.159   5.908
 3550POPC   GL245722  17.610  31.466   5.869
 3550POPC   C1A45723  17.479  31.289   6.365
 3550POPC   D2A45724  17.363  31.562   6.763
 3550POPC   C3A45725  17.476  31.439   7.212
 3550POPC   C4A45726  17.436  31.199   7.606
 3550POPC   C1B45727  17.912  31.526   6.164
 3550POPC   C2B45728  17.846  31.593   6.565
 3550POPC   C3B45729  17.828  31.802   6.892
 3550POPC   C4B45730  18.038  31.848   7.220
 3551POPC   NC345731   8.074  28.825   5.397
 3551POPC   PO445732   8.371  29.446   5.430
 3551POPC   GL145733   8.168  29.221   5.757
 3551POPC   GL245734   8.355  28.927   5.830
 3551POPC   C1A45735   8.126  29.298   6.213
 3551POPC   D2A45736   8.219  29.164   6.651
 3551POPC   C3A45737   7.917  29.051   6.943
 3551POPC   C4A45738   7.806  29.323   7.296
 3551POPC   C1B45739   8.237  28.799   6.259
 3551POPC   C2B45740   8.254  28.617   6.661
 3551POPC   C3B45741   8.308  28.741   7.072
 3551POPC   C4B45742   8.059  28.879   7.410
 3552POPC   NC345743  30.799  35.906   5.353
 3552POPC   PO445744  30.522  35.309   5.378
 3552POPC   GL145745  30.621  35.269   5.860
 3552POPC   GL245746  30.773  35.589   5.983
 3552POPC   C1A45747  30.650  35.194   6.314
 3552POPC   D2A45748  30.697  35.442   6.674
 3552POPC   C3A45749  30.780  35.261   7.063
 3552POPC   C4A45750  31.085  35.405   7.372
 3552POPC   C1B45751  30.369  35.605   6.202
 3552POPC   C2B45752  30.201  35.424   6.585
 3552POPC   C3B45753  30.309  35.534   7.013
 3552POPC   C4B45754  30.600  35.573   7.421
 3553POPC   NC345755   9.587  31.839   5.463
 3553POPC   PO445756  10.023  31.265   5.547
 3553POPC   GL145757   9.818  31.366   5.935
 3553POPC   GL245758   9.506  31.435   5.787
 3553POPC   C1A45759   9.862  31.466   6.383
 3553POPC   D2A45760  10.014  31.795   6.691
 3553POPC   C3A45761  10.049  31.597   7.091
 3553POPC   C4A45762   9.876  31.184   7.114
 3553POPC   C1B45763   9.371  31.589   6.190
 3553POPC   C2B45764   9.445  31.656   6.629
 3553POPC   C3B45765   9.291  31.500   7.023
 3553POPC   C4B45766   9.134  31.704   7.389
 3554POPC   NC345767  28.927  28.201   4.897
 3554POPC   PO445768  29.236  28.588   5.421
 3554POPC   GL145769  29.131  28.425   5.808
 3554POPC   GL245770  28.771  28.303   5.813
 3554POPC   C1A45771  29.312  28.476   6.203
 3554POPC   D2A45772  29.516  28.537   6.573
 3554POPC   C3A45773  29.470  28.292   6.902
 3554POPC   C4A45774  29.258  28.359   7.275
 3554POPC   C1B45775  28.939  28.111   6.203
 3554POPC   C2B45776  29.011  28.353   6.592
 3554POPC   C3B45777  28.839  28.427   6.979
 3554POPC   C4B45778  28.845  28.070   7.231
 3555POPC   NC345779  11.472  16.758   5.111
 3555POPC   PO445780  11.130  17.013   5.595
 3555POPC   GL145781  11.325  16.733   5.830
 3555POPC   GL245782  11.500  16.492   5.623
 3555POPC   C1A45783  11.467  16.818   6.223
 3555POPC   D2A45784  11.310  16.762   6.608
 3555POPC   C3A45785  11.577  16.887   6.874
 3555POPC   C4A45786  11.294  16.859   7.190
 3555POPC   C1B45787  11.695  16.389   6.046
 3555POPC   C2B45788  11.674  16.426   6.528
 3555POPC   C3B45789  11.414  16.403   6.958
 3555POPC   C4B45790  11.344  16.399   7.455
 3556POPC   NC345791   8.673  22.313   5.543
 3556POPC   PO445792   8.063  22.141   5.380
 3556POPC   GL145793   8.012  22.103   5.802
 3556POPC   GL245794   8.095  22.460   5.862
 3556POPC   C1A45795   8.140  22.099   6.242
 3556POPC   D2A45796   8.258  22.199   6.677
 3556POPC   C3A45797   8.425  21.896   6.979
 3556POPC   C4A45798   8.334  21.881   7.417
 3556POPC   C1B45799   8.482  22.460   6.159
 3556POPC   C2B45800   8.608  22.597   6.584
 3556POPC   C3B45801   8.471  22.630   7.012
 3556POPC   C4B45802   8.544  22.325   7.306
 3557POPC   NC345803  22.138   5.889   5.182
 3557POPC   PO445804  22.693   5.992   5.548
 3557POPC   GL145805  22.295   5.784   5.699
 3557POPC   GL245806  22.420   5.540   5.928
 3557POPC   C1A45807  21.946   5.729   6.019
 3557POPC   D2A45808  21.821   5.837   6.460
 3557POPC   C3A45809  21.953   5.765   6.880
 3557POPC   C4A45810  21.949   5.941   7.323
 3557POPC   C1B45811  22.552   5.472   6.358
 3557POPC   C2B45812  22.481   5.739   6.729
 3557POPC   C3B45813  22.395   5.743   7.177
 3557POPC   C4B45814  22.385   5.751   7.653
 3558POPC   NC345815   8.034   1.858   5.422
 3558POPC   PO445816   8.661   1.971   5.131
 3558POPC   GL145817   8.542   1.977   5.624
 3558POPC   GL245818   8.606   2.283   5.837
 3558POPC   C1A45819   8.319   1.892   6.024
 3558POPC   D2A45820   8.422   1.820   6.445
 3558POPC   C3A45821   8.122   1.760   6.762
 3558POPC   C4A45822   8.122   2.001   7.126
 3558POPC   C1B45823   8.581   2.299   6.297
 3558POPC   C2B45824   8.492   2.277   6.754
 3558POPC   C3B45825   8.576   2.209   7.199
 3558POPC   C4B45826   8.705   2.322   7.595
 3559POPC   NC345827  36.037  18.338   5.307
 3559POPC   PO445828  36.675  18.412   5.345
 3559POPC   GL145829  36.376  18.364   5.711
 3559POPC   GL245830  36.030  18.522   5.782
 3559POPC   C1A45831  36.218  18.190   6.127
 3559POPC   D2A45832  36.009  18.138   6.531
 3559POPC   C3A45833  36.157  18.322   6.914
 3559POPC   C4A45834  35.993  18.192   7.286
 3559POPC   C1B45835  35.939  18.716   6.189
 3559POPC   C2B45836  35.817  18.634   6.626
 3559POPC   C3B45837  35.756  18.631   7.090
 3559POPC   C4B45838  36.101  18.683   7.395
 3560POPC   NC345839  40.331  13.944   5.365
 3560POPC   PO445840  40.978  13.655   5.324
 3560POPC   GL145841  40.677  13.679   5.668
 3560POPC   GL245842  40.960  13.689   5.894
 3560POPC   C1A45843  40.525  13.624   6.122
 3560POPC   D2A45844  40.343  13.754   6.533
 3560POPC   C3A45845  40.594  13.901   6.877
 3560POPC   C4A45846  40.492  13.578   7.144
 3560POPC   C1B45847  41.025  13.823   6.319
 3560POPC   C2B45848  41.134  13.590   6.694
 3560POPC   C3B45849  40.993  13.546   7.112
 3560POPC   C4B45850  40.833  13.902   7.353
 3561POPC   NC345851   0.033  37.663   5.116
 3561POPC   PO445852  44.462  37.615   5.372
 3561POPC   GL145853  44.583  37.523   5.775
 3561POPC   GL245854  44.364  37.298   5.840
 3561POPC   C1A45855  44.740  37.510   6.196
 3561POPC   D2A45856  44.811  37.698   6.595
 3561POPC   C3A45857  44.915  37.454   6.932
 3561POPC   C4A45858  44.985  37.598   7.327
 3561POPC   C1B45859  44.182  37.438   6.214
 3561POPC   C2B45860  44.285  37.676   6.580
 3561POPC   C3B45861  44.440  37.609   6.981
 3561POPC   C4B45862  44.465  37.750   7.413
 3562POPC   NC345863  39.355  14.132   5.467
 3562POPC   PO445864  39.351  14.795   5.648
 3562POPC   GL145865  39.145  14.468   5.820
 3562POPC   GL245866  39.441  14.337   5.980
 3562POPC   C1A45867  38.985  14.361   6.241
 3562POPC   D2A45868  38.964  14.425   6.707
 3562POPC   C3A45869  39.350  14.415   6.929
 3562POPC   C4A45870  39.494  14.684   7.251
 3562POPC   C1B45871  39.388  14.038   6.347
 3562POPC   C2B45872  39.170  13.837   6.688
 3562POPC   C3B45873  38.969  13.979   7.032
 3562POPC   C4B45874  39.122  14.205   7.363
 3563POPC   NC345875  37.308   4.471   5.398
 3563POPC   PO445876  37.859   3.947   5.380
 3563POPC   GL145877  37.629   4.176   5.696
 3563POPC   GL245878  37.306   4.072   5.865
 3563POPC   C1A45879  37.718   4.277   6.125
 3563POPC   D2A45880  37.496   4.028   6.392
 3563POPC   C3A45881  37.577   4.087   6.832
 3563POPC   C4A45882  37.790   4.335   7.134
 3563POPC   C1B45883  37.218   4.442   6.132
 3563POPC   C2B45884  37.201   4.658   6.532
 3563POPC   C3B45885  37.335   4.531   6.911
 3563POPC   C4B45886  37.489   4.718   7.255
 3564POPC   NC345887  21.770   4.109   5.316
 3564POPC   PO445888  22.035   4.688   5.182
 3564POPC   GL145889  22.176   4.572   5.627
 3564POPC   GL245890  22.146   4.195   5.723
 3564POPC   C1A45891  22.276   4.564   6.091
 3564POPC   D2A45892  22.413   4.302   6.441
 3564POPC   C3A45893  22.350   4.563   6.794
 3564POPC   C4A45894  22.147   4.547   7.168
 3564POPC   C1B45895  22.151   3.891   6.084
 3564POPC   C2B45896  22.021   3.923   6.510
 3564POPC   C3B45897  22.111   4.104   6.904
 3564POPC   C4B45898  22.199   3.940   7.300
 3565POPC   NC345899  36.256  17.205   5.386
 3565POPC   PO445900  36.203  17.904   5.386
 3565POPC   GL145901  36.262  17.597   5.815
 3565POPC   GL245902  36.431  17.249   5.858
 3565POPC   C1A45903  36.056  17.445   6.274
 3565POPC   D2A45904  35.812  17.395   6.720
 3565POPC   C3A45905  35.941  17.629   7.102
 3565POPC   C4A45906  36.328  17.847   7.090
 3565POPC   C1B45907  36.577  17.466   6.229
 3565POPC   C2B45908  36.644  17.353   6.653
 3565POPC   C3B45909  36.314  17.224   6.937
 3565POPC   C4B45910  35.932  17.103   7.133
 3566POPC   NC345911   5.566  14.617   5.383
 3566POPC   PO445912   5.751  14.056   5.588
 3566POPC   GL145913   6.034  14.201   5.870
 3566POPC   GL245914   5.986  14.561   5.818
 3566POPC   C1A45915   5.982  14.322   6.298
 3566POPC   D2A45916   5.775  14.209   6.655
 3566POPC   C3A45917   5.978  14.289   7.057
 3566POPC   C4A45918   5.711  14.230   7.410
 3566POPC   C1B45919   5.825  14.794   6.218
 3566POPC   C2B45920   5.931  14.708   6.677
 3566POPC   C3B45921   6.066  14.797   7.096
 3566POPC   C4B45922   5.941  15.033   7.476
 3567POPC   NC345923   0.340  28.567   5.376
 3567POPC   PO445924   0.664  27.944   5.435
 3567POPC   GL145925   0.574  28.271   5.736
 3567POPC   GL245926   0.905  28.481   5.795
 3567POPC   C1A45927   0.238  28.312   6.090
 3567POPC   D2A45928   0.400  28.393   6.528
 3567POPC   C3A45929   0.192  28.382   6.901
 3567POPC   C4A45930   0.280  28.158   7.252
 3567POPC   C1B45931   0.804  28.363   6.203
 3567POPC   C2B45932   0.823  28.128   6.575
 3567POPC   C3B45933   0.718  28.347   6.953
 3567POPC   C4B45934   0.713  28.432   7.377
 3568POPC   NC345935  34.108  40.850   5.503
 3568POPC   PO445936  34.689  41.051   5.377
 3568POPC   GL145937  34.660  40.821   5.798
 3568POPC   GL245938  34.380  40.964   5.914
 3568POPC   C1A45939  34.737  40.705   6.257
 3568POPC   D2A45940  34.708  40.707   6.726
 3568POPC   C3A45941  34.406  40.680   7.060
 3568POPC   C4A45942  34.445  40.789   7.490
 3568POPC   C1B45943  34.386  41.085   6.315
 3568POPC   C2B45944  34.383  41.101   6.732
 3568POPC   C3B45945  34.603  41.177   7.093
 3568POPC   C4B45946  34.328  41.266   7.425
 3569POPC   NC345947  29.362  36.155   5.350
 3569POPC   PO445948  28.690  36.002   5.586
 3569POPC   GL145949  28.957  36.187   5.895
 3569POPC   GL245950  29.298  36.228   5.860
 3569POPC   C1A45951  29.029  36.197   6.346
 3569POPC   D2A45952  28.945  36.408   6.701
 3569POPC   C3A45953  28.829  36.212   7.116
 3569POPC   C4A45954  28.940  36.228   7.579
 3569POPC   C1B45955  29.551  36.121   6.200
 3569POPC   C2B45956  29.449  35.917   6.546
 3569POPC   C3B45957  29.304  36.091   6.893
 3569POPC   C4B45958  29.257  35.960   7.279
 3570POPC   NC345959  42.755  19.964   5.285
 3570POPC   PO445960  43.216  20.454   5.187
 3570POPC   GL145961  43.272  20.071   5.596
 3570POPC   GL245962  42.967  19.860   5.763
 3570POPC   C1A45963  43.454  19.859   6.060
 3570POPC   D2A45964  43.321  19.806   6.519
 3570POPC   C3A45965  43.409  19.527   6.875
 3570POPC   C4A45966  43.341  19.612   7.307
 3570POPC   C1B45967  42.745  19.883   6.184
 3570POPC   C2B45968  42.822  19.663   6.588
 3570POPC   C3B45969  42.980  19.870   6.969
 3570POPC   C4B45970  42.908  19.892   7.408
 3571POPC   NC345971  31.733   0.431   5.462
 3571POPC   PO445972  31.203   0.800   5.522
 3571POPC   GL145973  31.379   0.675   5.899
 3571POPC   GL245974  31.407   0.316   5.842
 3571POPC   C1A45975  31.293   0.508   6.314
 3571POPC   D2A45976  31.085   0.477   6.708
 3571POPC   C3A45977  31.200   0.562   7.128
 3571POPC   C4A45978  31.544   0.809   7.270
 3571POPC   C1B45979  31.696   0.186   6.190
 3571POPC   C2B45980  31.763   0.429   6.574
 3571POPC   C3B45981  31.671   0.367   6.998
 3571POPC   C4B45982  31.800  44.998   7.225
 3572POPC   NC345983  34.733  23.465   5.454
 3572POPC   PO445984  34.716  24.168   5.551
 3572POPC   GL145985  34.518  23.888   5.882
 3572POPC   GL245986  34.598  23.542   5.939
 3572POPC   C1A45987  34.443  23.869   6.334
 3572POPC   D2A45988  34.681  23.750   6.699
 3572POPC   C3A45989  34.444  23.625   7.083
 3572POPC   C4A45990  34.401  23.866   7.449
 3572POPC   C1B45991  34.565  23.349   6.341
 3572POPC   C2B45992  34.551  23.256   6.755
 3572POPC   C3B45993  34.861  23.353   7.018
 3572POPC   C4B45994  34.869  23.448   7.428
 3573POPC   NC345995  29.473  44.482   5.390
 3573POPC   PO445996  30.199  44.470   5.436
 3573POPC   GL145997  30.071  44.699   5.813
 3573POPC   GL245998  29.699  44.709   5.801
 3573POPC   C1A45999  30.030  44.748   6.271
 3573POPC   D2A46000  29.930  44.444   6.640
 3573POPC   C3A46001  29.978  44.613   7.049
 3573POPC   C4A46002  29.772  44.922   7.286
 3573POPC   C1B46003  29.637  44.446   6.175
 3573POPC   C2B46004  29.416  44.491   6.579
 3573POPC   C3B46005  29.526  44.375   7.043
 3573POPC   C4B46006  29.624  44.492   7.525
 3574POPC   NC346007  39.770  23.114   5.328
 3574POPC   PO446008  40.313  22.829   5.277
 3574POPC   GL146009  40.115  22.945   5.691
 3574POPC   GL246010  39.809  23.103   5.826
 3574POPC   C1A46011  40.106  22.836   6.142
 3574POPC   D2A46012  39.963  22.790   6.552
 3574POPC   C3A46013  40.320  22.827   6.816
 3574POPC   C4A46014  40.379  23.100   7.168
 3574POPC   C1B46015  40.001  23.361   6.121
 3574POPC   C2B46016  40.147  23.296   6.519
 3574POPC   C3B46017  39.948  23.219   6.901
 3574POPC   C4B46018  39.542  23.079   7.037
 3575POPC   NC346019  38.735  28.089   5.524
 3575POPC   PO446020  38.105  28.439   5.541
 3575POPC   GL146021  38.278  28.373   5.930
 3575POPC   GL246022  38.648  28.430   5.934
 3575POPC   C1A46023  38.131  28.075   6.241
 3575POPC   D2A46024  38.271  27.991   6.660
 3575POPC   C3A46025  38.245  28.395   6.875
 3575POPC   C4A46026  38.286  28.735   7.143
 3575POPC   C1B46027  38.653  28.165   6.281
 3575POPC   C2B46028  38.729  28.235   6.724
 3575POPC   C3B46029  38.649  28.217   7.168
 3575POPC   C4B46030  38.654  28.126   7.628
 3576POPC   NC346031  34.721  39.420   5.151
 3576POPC   PO446032  34.146  39.201   5.345
 3576POPC   GL146033  34.469  39.380   5.671
 3576POPC   GL246034  34.711  39.132   5.758
 3576POPC   C1A46035  34.678  39.475   6.117
 3576POPC   D2A46036  34.663  39.289   6.555
 3576POPC   C3A46037  34.844  39.535   6.890
 3576POPC   C4A46038  34.971  39.480   7.304
 3576POPC   C1B46039  34.718  38.936   6.169
 3576POPC   C2B46040  35.015  38.855   6.522
 3576POPC   C3B46041  35.078  38.790   6.960
 3576POPC   C4B46042  34.840  39.018   7.209
 3577POPC   NC346043  41.075   9.355   5.592
 3577POPC   PO446044  40.896   8.688   5.541
 3577POPC   GL146045  41.105   8.931   5.892
 3577POPC   GL246046  40.800   9.148   5.959
 3577POPC   C1A46047  41.081   9.035   6.369
 3577POPC   D2A46048  40.864   8.943   6.784
 3577POPC   C3A46049  41.033   8.672   7.150
 3577POPC   C4A46050  41.096   8.510   7.617
 3577POPC   C1B46051  40.607   9.318   6.334
 3577POPC   C2B46052  40.699   9.447   6.762
 3577POPC   C3B46053  40.617   9.197   7.162
 3577POPC   C4B46054  40.523   9.345   7.605
 3578POPC   NC346055  39.606  34.083   5.649
 3578POPC   PO446056  40.179  34.126   5.360
 3578POPC   GL146057  40.072  33.793   5.730
 3578POPC   GL246058  39.747  33.676   5.924
 3578POPC   C1A46059  40.172  33.491   6.128
 3578POPC   D2A46060  40.424  33.449   6.521
 3578POPC   C3A46061  40.213  33.570   6.909
 3578POPC   C4A46062  39.866  33.486   7.159
 3578POPC   C1B46063  39.966  33.958   6.216
 3578POPC   C2B46064  40.238  33.981   6.564
 3578POPC   C3B46065  40.079  34.131   6.926
 3578POPC   C4B46066  39.858  33.988   7.247
 3579POPC   NC346067  27.181  39.508   5.335
 3579POPC   PO446068  27.587  38.999   5.273
 3579POPC   GL146069  27.463  39.122   5.694
 3579POPC   GL246070  27.794  39.221   5.843
 3579POPC   C1A46071  27.365  39.301   6.132
 3579POPC   D2A46072  27.162  39.121   6.538
 3579POPC   C3A46073  27.248  39.199   6.984
 3579POPC   C4A46074  27.550  39.487   7.226
 3579POPC   C1B46075  27.823  39.145   6.298
 3579POPC   C2B46076  27.678  39.300   6.701
 3579POPC   C3B46077  27.729  39.036   7.105
 3579POPC   C4B46078  27.434  38.974   7.423
 3580POPC   NC346079  29.713  23.902   5.390
 3580POPC   PO446080  30.198  23.520   5.623
 3580POPC   GL146081  29.867  23.673   5.871
 3580POPC   GL246082  29.775  24.031   5.873
 3580POPC   C1A46083  29.718  23.725   6.293
 3580POPC   D2A46084  29.752  23.526   6.675
 3580POPC   C3A46085  29.772  23.547   7.099
 3580POPC   C4A46086  29.852  23.325   7.480
 3580POPC   C1B46087  30.072  24.081   6.204
 3580POPC   C2B46088  30.033  23.977   6.608
 3580POPC   C3B46089  29.819  24.051   6.953
 3580POPC   C4B46090  30.034  23.943   7.289
 3581POPC   NC346091  31.665  11.012   5.211
 3581POPC   PO446092  31.696  10.437   5.601
 3581POPC   GL146093  31.313  10.574   5.843
 3581POPC   GL246094  31.116  10.271   5.881
 3581POPC   C1A46095  31.300  10.800   6.254
 3581POPC   D2A46096  31.673  10.626   6.509
 3581POPC   C3A46097  31.621  10.673   6.938
 3581POPC   C4A46098  31.542  10.489   7.337
 3581POPC   C1B46099  31.269  10.303   6.340
 3581POPC   C2B46100  31.277  10.307   6.785
 3581POPC   C3B46101  31.130  10.225   7.203
 3581POPC   C4B46102  31.302  10.220   7.676
 3582POPC   NC346103   3.807  18.350   5.256
 3582POPC   PO446104   3.178  18.157   5.291
 3582POPC   GL146105   3.416  18.053   5.674
 3582POPC   GL246106   3.513  18.386   5.780
 3582POPC   C1A46107   3.380  18.043   6.145
 3582POPC   D2A46108   3.565  18.184   6.563
 3582POPC   C3A46109   3.437  18.309   7.002
 3582POPC   C4A46110   3.387  18.357   7.464
 3582POPC   C1B46111   3.696  18.520   6.186
 3582POPC   C2B46112   4.009  18.463   6.534
 3582POPC   C3B46113   4.082  18.643   6.945
 3582POPC   C4B46114   3.893  18.713   7.338
 3583POPC   NC346115  26.696   2.052   5.534
 3583POPC   PO446116  26.095   2.220   5.246
 3583POPC   GL146117  26.135   1.951   5.640
 3583POPC   GL246118  25.849   1.717   5.669
 3583POPC   C1A46119  26.217   1.908   6.127
 3583POPC   D2A46120  26.354   1.784   6.572
 3583POPC   C3A46121  26.112   1.983   6.924
 3583POPC   C4A46122  25.797   2.249   7.105
 3583POPC   C1B46123  25.801   1.578   6.088
 3583POPC   C2B46124  25.832   1.707   6.549
 3583POPC   C3B46125  25.669   1.770   6.984
 3583POPC   C4B46126  25.878   1.785   7.404
 3584POPC   NC346127  28.341   7.026   5.323
 3584POPC   PO446128  28.686   7.508   5.345
 3584POPC   GL146129  28.540   7.416   5.741
 3584POPC   GL246130  28.233   7.343   5.730
 3584POPC   C1A46131  28.567   7.370   6.181
 3584POPC   D2A46132  28.562   7.661   6.544
 3584POPC   C3A46133  28.484   7.507   6.936
 3584POPC   C4A46134  28.247   7.617   7.266
 3584POPC   C1B46135  28.067   7.283   6.139
 3584POPC   C2B46136  28.235   7.237   6.568
 3584POPC   C3B46137  28.034   7.255   6.978
 3584POPC   C4B46138  28.113   7.193   7.453
 3585POPC   NC346139  21.637  13.103   5.558
 3585POPC   PO446140  21.248  12.646   5.517
 3585POPC   GL146141  21.369  12.807   5.895
 3585POPC   GL246142  21.325  13.158   5.951
 3585POPC   C1A46143  21.308  12.705   6.319
 3585POPC   D2A46144  21.001  12.725   6.611
 3585POPC   C3A46145  21.133  12.637   7.011
 3585POPC   C4A46146  21.367  12.542   7.398
 3585POPC   C1B46147  21.721  12.998   6.197
 3585POPC   C2B46148  21.778  12.753   6.568
 3585POPC   C3B46149  21.634  12.745   6.997
 3585POPC   C4B46150  21.451  13.034   7.287
 3586POPC   NC346151  11.064   8.616   5.372
 3586POPC   PO446152  11.280   7.985   5.470
 3586POPC   GL146153  11.240   8.169   5.832
 3586POPC   GL246154  10.975   8.381   5.802
 3586POPC   C1A46155  11.274   8.028   6.246
 3586POPC   D2A46156  11.381   8.223   6.609
 3586POPC   C3A46157  11.356   8.002   6.951
 3586POPC   C4A46158  11.352   8.218   7.317
 3586POPC   C1B46159  11.182   8.530   6.180
 3586POPC   C2B46160  10.997   8.563   6.564
 3586POPC   C3B46161  10.958   8.751   6.941
 3586POPC   C4B46162  11.026   8.621   7.348
 3587POPC   NC346163   2.471  42.725   5.382
 3587POPC   PO446164   2.914  42.287   5.133
 3587POPC   GL146165   2.732  42.305   5.538
 3587POPC   GL246166   2.795  41.988   5.680
 3587POPC   C1A46167   2.677  42.397   5.993
 3587POPC   D2A46168   2.668  42.327   6.439
 3587POPC   C3A46169   2.618  42.601   6.793
 3587POPC   C4A46170   2.767  42.468   7.171
 3587POPC   C1B46171   2.889  41.947   6.125
 3587POPC   C2B46172   2.729  41.801   6.523
 3587POPC   C3B46173   2.691  42.045   6.903
 3587POPC   C4B46174   2.518  42.027   7.333
 3588POPC   NC346175  16.791  31.194   5.483
 3588POPC   PO446176  16.913  31.885   5.494
 3588POPC   GL146177  16.982  31.580   5.815
 3588POPC   GL246178  16.599  31.539   5.850
 3588POPC   C1A46179  16.930  31.488   6.279
 3588POPC   D2A46180  16.542  31.495   6.553
 3588POPC   C3A46181  16.565  31.613   6.997
 3588POPC   C4A46182  16.992  31.554   7.133
 3588POPC   C1B46183  16.566  31.145   6.117
 3588POPC   C2B46184  16.641  30.945   6.532
 3588POPC   C3B46185  16.653  31.101   6.959
 3588POPC   C4B46186  16.676  30.891   7.355
 3589POPC   NC346187   7.794  15.211   5.481
 3589POPC   PO446188   7.271  14.950   5.589
 3589POPC   GL146189   7.496  14.881   5.959
 3589POPC   GL246190   7.575  15.219   5.954
 3589POPC   C1A46191   7.533  14.978   6.406
 3589POPC   D2A46192   7.669  14.853   6.801
 3589POPC   C3A46193   7.714  15.114   7.174
 3589POPC   C4A46194   7.764  14.991   7.628
 3589POPC   C1B46195   7.396  15.445   6.275
 3589POPC   C2B46196   7.256  15.471   6.652
 3589POPC   C3B46197   7.463  15.557   7.041
 3589POPC   C4B46198   7.676  15.804   7.331
 3590POPC   NC346199  28.830   7.082   5.478
 3590POPC   PO446200  28.214   6.598   5.288
 3590POPC   GL146201  28.222   6.741   5.744
 3590POPC   GL246202  28.536   6.875   5.822
 3590POPC   C1A46203  28.220   6.810   6.216
 3590POPC   D2A46204  27.956   6.809   6.579
 3590POPC   C3A46205  28.146   6.749   6.961
 3590POPC   C4A46206  27.975   6.529   7.307
 3590POPC   C1B46207  28.607   6.491   6.106
 3590POPC   C2B46208  28.447   6.393   6.546
 3590POPC   C3B46209  28.599   6.478   6.978
 3590POPC   C4B46210  28.476   6.302   7.364
 3591POPC   NC346211  22.393  42.649   5.507
 3591POPC   PO446212  21.862  43.082   5.437
 3591POPC   GL146213  21.976  42.884   5.783
 3591POPC   GL246214  22.306  42.940   5.918
 3591POPC   C1A46215  21.765  42.947   6.143
 3591POPC   D2A46216  21.622  43.176   6.470
 3591POPC   C3A46217  21.924  43.153   6.813
 3591POPC   C4A46218  21.995  42.939   7.213
 3591POPC   C1B46219  22.298  42.977   6.363
 3591POPC   C2B46220  22.546  42.855   6.713
 3591POPC   C3B46221  22.517  42.900   7.150
 3591POPC   C4B46222  22.631  43.228   7.421
 3592POPC   NC346223  22.254  26.109   5.270
 3592POPC   PO446224  22.355  25.554   5.670
 3592POPC   GL146225  22.217  25.990   5.773
 3592POPC   GL246226  22.524  26.186   5.719
 3592POPC   C1A46227  21.989  26.100   6.163
 3592POPC   D2A46228  21.857  25.885   6.552
 3592POPC   C3A46229  21.910  26.077   6.978
 3592POPC   C4A46230  22.251  25.907   7.259
 3592POPC   C1B46231  22.460  26.259   6.164
 3592POPC   C2B46232  22.231  26.298   6.571
 3592POPC   C3B46233  22.413  26.293   6.976
 3592POPC   C4B46234  22.620  26.260   7.360
 3593POPC   NC346235  35.433  25.706   5.306
 3593POPC   PO446236  35.162  25.038   5.339
 3593POPC   GL146237  35.236  25.293   5.672
 3593POPC   GL246238  34.974  25.545   5.718
 3593POPC   C1A46239  35.348  25.104   6.060
 3593POPC   D2A46240  35.281  24.958   6.480
 3593POPC   C3A46241  35.387  25.216   6.824
 3593POPC   C4A46242  35.426  25.248   7.265
 3593POPC   C1B46243  35.175  25.595   6.125
 3593POPC   C2B46244  35.051  25.553   6.584
 3593POPC   C3B46245  35.168  25.643   7.015
 3593POPC   C4B46246  35.143  25.672   7.454
 3594POPC   NC346247  22.145  44.710   5.205
 3594POPC   PO446248  22.337   0.258   5.575
 3594POPC   GL146249  22.215   0.538   5.880
 3594POPC   GL246250  22.572   0.675   5.905
 3594POPC   C1A46251  21.929   0.416   6.229
 3594POPC   D2A46252  21.879   0.130   6.570
 3594POPC   C3A46253  21.861   0.360   6.935
 3594POPC   C4A46254  21.826   0.418   7.360
 3594POPC   C1B46255  22.418   0.759   6.303
 3594POPC   C2B46256  22.196   0.651   6.661
 3594POPC   C3B46257  22.311   0.517   7.073
 3594POPC   C4B46258  22.329   0.248   7.415
 3595POPC   NC346259  11.900  29.340   5.440
 3595POPC   PO446260  12.569  29.077   5.332
 3595POPC   GL146261  12.217  29.014   5.699
 3595POPC   GL246262  12.121  29.318   5.914
 3595POPC   C1A46263  12.068  28.867   6.142
 3595POPC   D2A46264  12.070  29.081   6.565
 3595POPC   C3A46265  12.283  28.925   6.960
 3595POPC   C4A46266  12.291  28.923   7.424
 3595POPC   C1B46267  11.817  29.553   6.167
 3595POPC   C2B46268  11.633  29.464   6.548
 3595POPC   C3B46269  11.701  29.224   6.900
 3595POPC   C4B46270  12.030  29.300   7.181
 3596POPC   NC346271  10.373   9.566   5.347
 3596POPC   PO446272  11.000   9.728   5.336
 3596POPC   GL146273  10.677   9.717   5.742
 3596POPC   GL246274  10.358   9.967   5.758
 3596POPC   C1A46275  10.685   9.493   6.183
 3596POPC   D2A46276  10.848   9.350   6.626
 3596POPC   C3A46277  10.794   9.669   6.968
 3596POPC   C4A46278  10.793   9.874   7.358
 3596POPC   C1B46279  10.531  10.004   6.173
 3596POPC   C2B46280  10.496   9.799   6.564
 3596POPC   C3B46281  10.268   9.765   6.914
 3596POPC   C4B46282  10.228   9.756   7.307
 3597POPC   NC346283  36.438   6.807   5.441
 3597POPC   PO446284  35.967   6.314   5.452
 3597POPC   GL146285  35.960   6.489   5.854
 3597POPC   GL246286  36.046   6.805   5.839
 3597POPC   C1A46287  36.061   6.510   6.292
 3597POPC   D2A46288  36.288   6.459   6.687
 3597POPC   C3A46289  36.021   6.595   7.029
 3597POPC   C4A46290  36.148   6.609   7.446
 3597POPC   C1B46291  36.109   7.027   6.198
 3597POPC   C2B46292  36.105   6.934   6.628
 3597POPC   C3B46293  36.137   7.094   7.037
 3597POPC   C4B46294  36.358   7.051   7.424
 3598POPC   NC346295  42.669  33.661   5.483
 3598POPC   PO446296  41.994  33.389   5.475
 3598POPC   GL146297  42.058  33.641   5.839
 3598POPC   GL246298  42.404  33.756   5.895
 3598POPC   C1A46299  42.075  33.783   6.266
 3598POPC   D2A46300  42.088  34.018   6.624
 3598POPC   C3A46301  42.063  33.736   6.963
 3598POPC   C4A46302  42.267  33.764   7.371
 3598POPC   C1B46303  42.595  33.663   6.311
 3598POPC   C2B46304  42.548  33.744   6.745
 3598POPC   C3B46305  42.732  33.824   7.148
 3598POPC   C4B46306  42.737  33.666   7.577
 3599POPC   NC346307  20.250   4.537   5.711
 3599POPC   PO446308  19.742   4.319   5.365
 3599POPC   GL146309  19.779   4.255   5.833
 3599POPC   GL246310  20.072   4.082   5.914
 3599POPC   C1A46311  19.907   4.375   6.278
 3599POPC   D2A46312  19.714   4.473   6.642
 3599POPC   C3A46313  19.709   4.278   7.073
 3599POPC   C4A46314  19.791   4.314   7.537
 3599POPC   C1B46315  20.192   3.920   6.314
 3599POPC   C2B46316  20.034   4.058   6.701
 3599POPC   C3B46317  20.217   4.136   7.089
 3599POPC   C4B46318  20.529   3.880   7.250
 3600POPC   NC346319   6.014  37.798   5.124
 3600POPC   PO446320   5.865  37.197   5.204
 3600POPC   GL146321   6.042  37.407   5.621
 3600POPC   GL246322   6.113  37.785   5.690
 3600POPC   C1A46323   6.156  37.466   6.091
 3600POPC   D2A46324   5.958  37.457   6.511
 3600POPC   C3A46325   6.081  37.545   6.941
 3600POPC   C4A46326   5.839  37.654   7.286
 3600POPC   C1B46327   6.032  37.994   6.157
 3600POPC   C2B46328   5.934  37.963   6.654
 3600POPC   C3B46329   5.676  38.094   7.061
 3600POPC   C4B46330   5.638  38.045   7.532
 3601POPC   NC346331  42.956  42.893   5.399
 3601POPC   PO446332  43.485  43.226   5.539
 3601POPC   GL146333  43.255  43.111   5.868
 3601POPC   GL246334  42.920  43.217   5.818
 3601POPC   C1A46335  43.330  43.304   6.249
 3601POPC   D2A46336  43.157  43.295   6.650
 3601POPC   C3A46337  43.413  43.479   6.970
 3601POPC   C4A46338  43.524  43.271   7.344
 3601POPC   C1B46339  42.844  43.094   6.249
 3601POPC   C2B46340  42.718  42.964   6.676
 3601POPC   C3B46341  43.026  42.949   7.025
 3601POPC   C4B46342  42.864  42.840   7.414
 3602POPC   NC346343  14.299  29.763   5.295
 3602POPC   PO446344  13.941  30.262   5.615
 3602POPC   GL146345  14.216  29.985   5.842
 3602POPC   GL246346  14.212  29.630   5.781
 3602POPC   C1A46347  14.524  30.039   6.158
 3602POPC   D2A46348  14.651  29.924   6.578
 3602POPC   C3A46349  14.614  30.213   6.894
 3602POPC   C4A46350  14.429  30.229   7.268
 3602POPC   C1B46351  14.268  29.602   6.224
 3602POPC   C2B46352  14.025  29.632   6.613
 3602POPC   C3B46353  14.201  29.865   6.947
 3602POPC   C4B46354  14.521  29.714   7.225
 3603POPC   NC346355  18.892  35.927   5.399
 3603POPC   PO446356  19.111  35.347   5.546
 3603POPC   GL146357  19.064  35.406   5.941
 3603POPC   GL246358  19.326  35.161   5.963
 3603POPC   C1A46359  19.094  35.417   6.366
 3603POPC   D2A46360  19.336  35.443   6.705
 3603POPC   C3A46361  19.110  35.304   7.012
 3603POPC   C4A46362  19.069  35.457   7.430
 3603POPC   C1B46363  19.522  34.948   6.274
 3603POPC   C2B46364  19.355  34.921   6.667
 3603POPC   C3B46365  19.511  34.993   7.059
 3603POPC   C4B46366  19.207  34.969   7.381
 3604POPC   NC346367  35.893  13.599   5.582
 3604POPC   PO446368  35.279  13.989   5.509
 3604POPC   GL146369  35.485  13.813   5.834
 3604POPC   GL246370  35.267  13.537   5.787
 3604POPC   C1A46371  35.417  13.812   6.264
 3604POPC   D2A46372  35.126  13.789   6.560
 3604POPC   C3A46373  35.290  13.794   6.951
 3604POPC   C4A46374  35.093  13.921   7.296
 3604POPC   C1B46375  35.225  13.348   6.172
 3604POPC   C2B46376  35.028  13.278   6.545
 3604POPC   C3B46377  35.124  13.297   6.941
 3604POPC   C4B46378  35.169  13.426   7.336
 3605POPC   NC346379  19.528   5.732   5.325
 3605POPC   PO446380  19.927   6.251   5.438
 3605POPC   GL146381  19.660   5.989   5.770
 3605POPC   GL246382  19.856   5.666   5.814
 3605POPC   C1A46383  19.625   5.838   6.225
 3605POPC   D2A46384  19.938   5.774   6.567
 3605POPC   C3A46385  19.777   5.819   6.953
 3605POPC   C4A46386  19.621   6.196   6.929
 3605POPC   C1B46387  20.107   5.983   6.095
 3605POPC   C2B46388  20.286   6.137   6.520
 3605POPC   C3B46389  20.152   6.169   6.976
 3605POPC   C4B46390  20.166   5.953   7.383
 3606POPC   NC346391  24.162  21.467   5.381
 3606POPC   PO446392  23.581  21.161   5.206
 3606POPC   GL146393  23.666  21.279   5.693
 3606POPC   GL246394  23.408  21.500   5.823
 3606POPC   C1A46395  23.815  21.471   6.143
 3606POPC   D2A46396  23.947  21.658   6.560
 3606POPC   C3A46397  24.067  21.403   6.921
 3606POPC   C4A46398  23.854  21.331   7.306
 3606POPC   C1B46399  23.316  21.587   6.217
 3606POPC   C2B46400  23.387  21.720   6.604
 3606POPC   C3B46401  23.606  21.660   6.978
 3606POPC   C4B46402  23.525  21.758   7.425
 3607POPC   NC346403  35.087   3.151   5.672
 3607POPC   PO446404  35.430   3.768   5.409
 3607POPC   GL146405  35.454   3.534   5.787
 3607POPC   GL246406  35.742   3.668   5.929
 3607POPC   C1A46407  35.344   3.559   6.253
 3607POPC   D2A46408  35.225   3.788   6.624
 3607POPC   C3A46409  35.168   3.566   7.018
 3607POPC   C4A46410  34.814   3.316   7.167
 3607POPC   C1B46411  35.700   3.222   6.127
 3607POPC   C2B46412  35.454   3.069   6.501
 3607POPC   C3B46413  35.541   3.121   6.957
 3607POPC   C4B46414  35.761   3.300   7.304
 3608POPC   NC346415  16.912  39.791   5.413
 3608POPC   PO446416  16.316  40.192   5.482
 3608POPC   GL146417  16.548  40.241   5.873
 3608POPC   GL246418  16.866  40.047   5.861
 3608POPC   C1A46419  16.598  40.034   6.297
 3608POPC   D2A46420  16.886  40.054   6.656
 3608POPC   C3A46421  16.611  40.232   6.978
 3608POPC   C4A46422  16.681  40.360   7.399
 3608POPC   C1B46423  16.941  39.671   6.138
 3608POPC   C2B46424  16.815  39.479   6.560
 3608POPC   C3B46425  16.733  39.618   6.990
 3608POPC   C4B46426  16.925  39.523   7.379
 3609POPC   NC346427   3.362   5.296   5.227
 3609POPC   PO446428   3.913   4.995   5.398
 3609POPC   GL146429   3.506   4.964   5.650
 3609POPC   GL246430   3.731   4.867   5.889
 3609POPC   C1A46431   3.327   5.051   6.122
 3609POPC   D2A46432   3.485   5.032   6.556
 3609POPC   C3A46433   3.356   5.200   6.935
 3609POPC   C4A46434   3.482   5.382   7.307
 3609POPC   C1B46435   3.913   4.932   6.279
 3609POPC   C2B46436   3.958   4.850   6.708
 3609POPC   C3B46437   3.913   4.919   7.126
 3609POPC   C4B46438   3.659   4.934   7.469
 3610POPC   NC346439  35.084  15.073   5.347
 3610POPC   PO446440  35.707  14.875   5.688
 3610POPC   GL146441  35.537  15.111   5.979
 3610POPC   GL246442  35.231  15.207   5.849
 3610POPC   C1A46443  35.539  15.118   6.428
 3610POPC   D2A46444  35.665  15.330   6.804
 3610POPC   C3A46445  35.802  14.988   7.036
 3610POPC   C4A46446  35.452  14.725   7.099
 3610POPC   C1B46447  35.082  15.064   6.252
 3610POPC   C2B46448  35.147  14.849   6.661
 3610POPC   C3B46449  35.068  15.083   7.071
 3610POPC   C4B46450  35.206  15.498   7.203
 3611POPC   NC346451  21.475  37.194   5.038
 3611POPC   PO446452  21.512  36.683   5.457
 3611POPC   GL146453  21.371  36.949   5.807
 3611POPC   GL246454  21.667  37.138   5.922
 3611POPC   C1A46455  21.232  36.768   6.230
 3611POPC   D2A46456  21.417  36.485   6.567
 3611POPC   C3A46457  21.329  36.615   6.966
 3611POPC   C4A46458  21.288  37.001   7.210
 3611POPC   C1B46459  21.477  37.240   6.302
 3611POPC   C2B46460  21.455  37.152   6.742
 3611POPC   C3B46461  21.651  37.383   7.082
 3611POPC   C4B46462  21.633  37.261   7.518
 3612POPC   NC346463   7.732   2.579   5.559
 3612POPC   PO446464   7.022   2.468   5.518
 3612POPC   GL146465   7.287   2.711   5.784
 3612POPC   GL246466   7.026   2.674   5.990
 3612POPC   C1A46467   7.424   2.933   6.151
 3612POPC   D2A46468   7.211   2.915   6.538
 3612POPC   C3A46469   7.386   2.966   6.947
 3612POPC   C4A46470   7.245   2.893   7.380
 3612POPC   C1B46471   7.311   2.449   6.274
 3612POPC   C2B46472   7.415   2.428   6.703
 3612POPC   C3B46473   7.424   2.480   7.131
 3612POPC   C4B46474   7.736   2.761   7.289
 3613POPC   NC346475  28.558  22.465   5.380
 3613POPC   PO446476  28.264  23.044   5.287
 3613POPC   GL146477  28.248  22.845   5.696
 3613POPC   GL246478  28.332  23.165   5.852
 3613POPC   C1A46479  28.374  22.767   6.170
 3613POPC   D2A46480  28.645  22.563   6.521
 3613POPC   C3A46481  28.531  22.618   6.980
 3613POPC   C4A46482  28.162  22.553   7.272
 3613POPC   C1B46483  28.430  23.284   6.290
 3613POPC   C2B46484  28.361  22.988   6.643
 3613POPC   C3B46485  28.207  23.021   7.072
 3613POPC   C4B46486  28.098  23.330   7.398
 3614POPC   NC346487  36.006  42.076   5.069
 3614POPC   PO446488  36.219  42.594   5.520
 3614POPC   GL146489  36.077  42.424   5.905
 3614POPC   GL246490  35.981  42.077   5.891
 3614POPC   C1A46491  36.107  42.557   6.335
 3614POPC   D2A46492  36.413  42.771   6.607
 3614POPC   C3A46493  36.147  42.672   6.932
 3614POPC   C4A46494  35.749  42.726   6.896
 3614POPC   C1B46495  36.125  42.057   6.323
 3614POPC   C2B46496  35.987  42.178   6.742
 3614POPC   C3B46497  36.257  42.206   7.126
 3614POPC   C4B46498  36.118  42.143   7.565
 3615POPC   NC346499  39.759   3.730   5.489
 3615POPC   PO446500  40.223   3.472   5.044
 3615POPC   GL146501  40.149   3.387   5.640
 3615POPC   GL246502  39.821   3.361   5.817
 3615POPC   C1A46503  40.231   3.478   6.136
 3615POPC   D2A46504  40.392   3.369   6.599
 3615POPC   C3A46505  40.286   3.540   6.995
 3615POPC   C4A46506  39.914   3.768   7.050
 3615POPC   C1B46507  40.022   3.035   5.993
 3615POPC   C2B46508  40.050   3.059   6.411
 3615POPC   C3B46509  39.844   3.307   6.756
 3615POPC   C4B46510  39.842   3.301   7.227
 3616POPC   NC346511   5.537  24.813   5.382
 3616POPC   PO446512   5.856  25.416   5.282
 3616POPC   GL146513   6.051  25.313   5.686
 3616POPC   GL246514   6.066  24.928   5.667
 3616POPC   C1A46515   6.037  25.317   6.156
 3616POPC   D2A46516   5.783  25.394   6.545
 3616POPC   C3A46517   5.995  25.351   6.938
 3616POPC   C4A46518   5.777  25.261   7.297
 3616POPC   C1B46519   5.786  24.870   6.049
 3616POPC   C2B46520   5.936  24.903   6.486
 3616POPC   C3B46521   5.777  24.867   6.905
 3616POPC   C4B46522   6.033  24.815   7.247
 3617POPC   NC346523  16.942  30.140   5.399
 3617POPC   PO446524  16.440  29.628   5.316
 3617POPC   GL146525  16.732  29.719   5.633
 3617POPC   GL246526  16.403  29.703   5.821
 3617POPC   C1A46527  16.937  29.776   6.053
 3617POPC   D2A46528  16.842  30.044   6.432
 3617POPC   C3A46529  16.958  29.990   6.848
 3617POPC   C4A46530  16.861  29.717   7.203
 3617POPC   C1B46531  16.482  30.069   6.042
 3617POPC   C2B46532  16.382  30.272   6.411
 3617POPC   C3B46533  16.507  30.218   6.816
 3617POPC   C4B46534  16.385  29.968   7.183
 3618POPC   NC346535  21.371  15.437   5.529
 3618POPC   PO446536  21.363  14.816   5.286
 3618POPC   GL146537  21.471  14.898   5.691
 3618POPC   GL246538  21.135  14.933   5.763
 3618POPC   C1A46539  21.531  14.930   6.137
 3618POPC   D2A46540  21.738  14.792   6.523
 3618POPC   C3A46541  21.638  14.915   6.919
 3618POPC   C4A46542  21.709  15.228   7.178
 3618POPC   C1B46543  21.115  15.241   6.105
 3618POPC   C2B46544  21.056  15.144   6.548
 3618POPC   C3B46545  21.205  15.220   6.989
 3618POPC   C4B46546  20.974  15.256   7.398
 3619POPC   NC346547  31.688  41.908   5.409
 3619POPC   PO446548  31.204  41.374   5.510
 3619POPC   GL146549  31.396  41.259   5.844
 3619POPC   GL246550  31.549  41.565   5.823
 3619POPC   C1A46551  31.359  41.177   6.255
 3619POPC   D2A46552  31.479  41.398   6.620
 3619POPC   C3A46553  31.526  41.205   6.991
 3619POPC   C4A46554  31.487  41.147   7.418
 3619POPC   C1B46555  31.417  41.719   6.220
 3619POPC   C2B46556  31.144  41.752   6.578
 3619POPC   C3B46557  31.115  41.598   6.960
 3619POPC   C4B46558  31.367  41.732   7.232
 3620POPC   NC346559  40.082  24.703   5.382
 3620POPC   PO446560  39.640  24.228   5.339
 3620POPC   GL146561  39.934  24.314   5.711
 3620POPC   GL246562  40.038  24.661   5.870
 3620POPC   C1A46563  39.944  24.287   6.178
 3620POPC   D2A46564  40.244  24.378   6.476
 3620POPC   C3A46565  40.128  24.203   6.838
 3620POPC   C4A46566  39.928  24.319   7.203
 3620POPC   C1B46567  39.909  24.784   6.277
 3620POPC   C2B46568  39.823  24.616   6.672
 3620POPC   C3B46569  40.064  24.784   7.003
 3620POPC   C4B46570  40.057  24.839   7.453
 3621POPC   NC346571   2.672   4.672   5.260
 3621POPC   PO446572   2.653   3.957   5.265
 3621POPC   GL146573   2.839   4.223   5.579
 3621POPC   GL246574   3.038   4.542   5.610
 3621POPC   C1A46575   2.835   4.131   6.015
 3621POPC   D2A46576   2.719   3.900   6.394
 3621POPC   C3A46577   2.684   4.058   6.838
 3621POPC   C4A46578   2.993   4.005   7.172
 3621POPC   C1B46579   3.057   4.610   6.061
 3621POPC   C2B46580   2.987   4.835   6.477
 3621POPC   C3B46581   2.963   4.703   6.941
 3621POPC   C4B46582   2.990   4.488   7.380
 3622POPC   NC346583   3.059  44.420   5.410
 3622POPC   PO446584   3.594  44.746   5.133
 3622POPC   GL146585   3.502  44.633   5.610
 3622POPC   GL246586   3.245  44.857   5.764
 3622POPC   C1A46587   3.576  44.607   6.115
 3622POPC   D2A46588   3.653  44.756   6.595
 3622POPC   C3A46589   3.569  44.484   6.992
 3622POPC   C4A46590   3.697  44.386   7.441
 3622POPC   C1B46591   3.301   0.054   6.174
 3622POPC   C2B46592   3.183  44.976   6.610
 3622POPC   C3B46593   3.394  44.984   7.035
 3622POPC   C4B46594   3.850  44.880   7.187
 3623POPC   NC346595  19.032  37.830   5.377
 3623POPC   PO446596  19.641  37.446   5.517
 3623POPC   GL146597  19.368  37.616   5.812
 3623POPC   GL246598  19.294  37.978   5.786
 3623POPC   C1A46599  19.325  37.399   6.226
 3623POPC   D2A46600  19.281  37.154   6.604
 3623POPC   C3A46601  19.391  37.383   6.960
 3623POPC   C4A46602  19.109  37.658   7.190
 3623POPC   C1B46603  18.961  38.092   6.074
 3623POPC   C2B46604  18.907  38.143   6.517
 3623POPC   C3B46605  19.048  38.146   6.950
 3623POPC   C4B46606  18.778  38.030   7.273
 3624POPC   NC346607  25.605  22.143   5.139
 3624POPC   PO446608  24.959  22.186   5.360
 3624POPC   GL146609  25.174  22.218   5.755
 3624POPC   GL246610  25.509  22.097   5.662
 3624POPC   C1A46611  25.075  22.104   6.200
 3624POPC   D2A46612  25.226  22.074   6.625
 3624POPC   C3A46613  25.055  22.079   7.057
 3624POPC   C4A46614  25.145  22.392   7.400
 3624POPC   C1B46615  25.628  22.335   6.046
 3624POPC   C2B46616  25.795  22.200   6.469
 3624POPC   C3B46617  25.661  22.203   6.873
 3624POPC   C4B46618  25.641  22.393   7.249
 3625POPC   NC346619  12.996  12.137   5.288
 3625POPC   PO446620  12.814  12.812   5.319
 3625POPC   GL146621  12.844  12.830   5.784
 3625POPC   GL246622  13.154  12.714   5.946
 3625POPC   C1A46623  12.728  12.915   6.224
 3625POPC   D2A46624  12.851  12.798   6.657
 3625POPC   C3A46625  12.603  12.828   7.031
 3625POPC   C4A46626  12.578  13.218   7.233
 3625POPC   C1B46627  13.237  13.062   6.230
 3625POPC   C2B46628  13.206  13.184   6.655
 3625POPC   C3B46629  13.060  13.124   7.060
 3625POPC   C4B46630  13.072  13.201   7.493
 3626POPC   NC346631  25.791  17.048   5.656
 3626POPC   PO446632  26.003  16.321   5.451
 3626POPC   GL146633  25.919  16.576   5.782
 3626POPC   GL246634  26.212  16.804   5.769
 3626POPC   C1A46635  26.010  16.559   6.223
 3626POPC   D2A46636  26.354  16.503   6.541
 3626POPC   C3A46637  26.199  16.380   6.945
 3626POPC   C4A46638  25.873  16.600   7.208
 3626POPC   C1B46639  26.209  17.041   6.165
 3626POPC   C2B46640  26.031  16.940   6.547
 3626POPC   C3B46641  26.176  16.915   6.939
 3626POPC   C4B46642  26.250  17.069   7.317
 3627POPC   NC346643  17.501  10.993   4.968
 3627POPC   PO446644  17.671  11.630   5.329
 3627POPC   GL146645  17.550  11.299   5.668
 3627POPC   GL246646  17.711  10.989   5.786
 3627POPC   C1A46647  17.420  11.302   6.106
 3627POPC   D2A46648  17.463  11.633   6.399
 3627POPC   C3A46649  17.325  11.537   6.801
 3627POPC   C4A46650  17.400  11.276   7.147
 3627POPC   C1B46651  17.610  10.838   6.202
 3627POPC   C2B46652  17.399  10.983   6.571
 3627POPC   C3B46653  17.669  10.910   6.892
 3627POPC   C4B46654  17.846  10.816   7.238
 3628POPC   NC346655  40.272  35.188   5.322
 3628POPC   PO446656  39.651  35.534   5.347
 3628POPC   GL146657  40.006  35.542   5.613
 3628POPC   GL246658  39.955  35.220   5.736
 3628POPC   C1A46659  40.249  35.548   6.008
 3628POPC   D2A46660  40.153  35.377   6.441
 3628POPC   C3A46661  40.107  35.575   6.842
 3628POPC   C4A46662  40.051  35.551   7.292
 3628POPC   C1B46663  40.204  35.024   6.046
 3628POPC   C2B46664  40.088  34.867   6.433
 3628POPC   C3B46665  40.125  35.041   6.868
 3628POPC   C4B46666  39.951  35.031   7.253
 3629POPC   NC346667  13.078  41.800   5.383
 3629POPC   PO446668  12.554  41.269   5.327
 3629POPC   GL146669  12.779  41.431   5.703
 3629POPC   GL246670  12.675  41.753   5.764
 3629POPC   C1A46671  13.081  41.557   6.074
 3629POPC   D2A46672  13.321  41.444   6.471
 3629POPC   C3A46673  13.127  41.523   6.915
 3629POPC   C4A46674  13.015  41.306   7.325
 3629POPC   C1B46675  12.635  41.766   6.198
 3629POPC   C2B46676  12.752  41.743   6.596
 3629POPC   C3B46677  12.629  41.904   6.944
 3629POPC   C4B46678  12.677  41.684   7.264
 3630POPC   NC346679  11.878   6.907   5.424
 3630POPC   PO446680  12.444   6.572   5.373
 3630POPC   GL146681  12.141   6.581   5.748
 3630POPC   GL246682  12.218   6.863   5.882
 3630POPC   C1A46683  12.196   6.369   6.173
 3630POPC   D2A46684  12.264   6.524   6.608
 3630POPC   C3A46685  12.034   6.559   6.983
 3630POPC   C4A46686  11.761   6.911   7.119
 3630POPC   C1B46687  12.136   6.950   6.318
 3630POPC   C2B46688  12.197   7.032   6.757
 3630POPC   C3B46689  12.274   6.962   7.188
 3630POPC   C4B46690  12.452   6.941   7.609
 3631POPC   NC346691  26.293  15.071   5.218
 3631POPC   PO446692  27.028  15.139   5.294
 3631POPC   GL146693  26.806  15.175   5.781
 3631POPC   GL246694  26.689  15.556   5.907
 3631POPC   C1A46695  26.807  14.863   6.169
 3631POPC   D2A46696  26.623  14.921   6.598
 3631POPC   C3A46697  26.813  14.855   6.999
 3631POPC   C4A46698  26.704  15.097   7.350
 3631POPC   C1B46699  26.673  15.347   6.279
 3631POPC   C2B46700  26.870  15.431   6.654
 3631POPC   C3B46701  26.726  15.501   7.040
 3631POPC   C4B46702  26.932  15.554   7.404
 3632POPC   NC346703  40.217  37.602   5.567
 3632POPC   PO446704  39.688  37.926   5.347
 3632POPC   GL146705  39.712  37.585   5.696
 3632POPC   GL246706  39.950  37.290   5.878
 3632POPC   C1A46707  39.830  37.719   6.098
 3632POPC   D2A46708  39.891  37.715   6.512
 3632POPC   C3A46709  39.850  38.081   6.770
 3632POPC   C4A46710  39.918  37.937   7.195
 3632POPC   C1B46711  40.245  37.437   6.234
 3632POPC   C2B46712  40.297  37.404   6.643
 3632POPC   C3B46713  40.031  37.465   6.971
 3632POPC   C4B46714  40.119  37.356   7.357
 3633POPC   NC346715  35.128  42.518   5.266
 3633POPC   PO446716  35.766  42.222   5.429
 3633POPC   GL146717  35.506  42.315   5.835
 3633POPC   GL246718  35.613  42.621   6.063
 3633POPC   C1A46719  35.178  42.362   6.197
 3633POPC   D2A46720  35.199  42.653   6.569
 3633POPC   C3A46721  35.345  42.439   6.930
 3633POPC   C4A46722  35.300  42.290   7.347
 3633POPC   C1B46723  35.656  42.237   6.317
 3633POPC   C2B46724  35.421  41.938   6.574
 3633POPC   C3B46725  35.557  41.971   6.996
 3633POPC   C4B46726  35.781  42.308   7.200
 3634POPC   NC346727   3.406  21.809   5.617
 3634POPC   PO446728   3.880  21.269   5.440
 3634POPC   GL146729   3.670  21.382   5.808
 3634POPC   GL246730   3.886  21.645   5.805
 3634POPC   C1A46731   3.420  21.346   6.208
 3634POPC   D2A46732   3.553  21.392   6.612
 3634POPC   C3A46733   3.399  21.232   6.989
 3634POPC   C4A46734   3.211  21.539   7.220
 3634POPC   C1B46735   4.020  21.829   6.204
 3634POPC   C2B46736   3.790  21.854   6.598
 3634POPC   C3B46737   3.676  21.705   7.010
 3634POPC   C4B46738   3.971  21.761   7.293
 3635POPC   NC346739  13.221  44.465   5.915
 3635POPC   PO446740  12.716  44.787   5.494
 3635POPC   GL146741  12.672  44.725   5.895
 3635POPC   GL246742  12.372  44.835   6.024
 3635POPC   C1A46743  12.847  44.960   6.209
 3635POPC   D2A46744  13.106  44.769   6.500
 3635POPC   C3A46745  13.057  44.953   6.885
 3635POPC   C4A46746  12.945  44.829   7.274
 3635POPC   C1B46747  12.500  44.660   6.430
 3635POPC   C2B46748  12.503  44.801   6.875
 3635POPC   C3B46749  12.540  44.546   7.245
 3635POPC   C4B46750  12.571  44.622   7.696
 3636POPC   NC346751   4.812  31.840   5.420
 3636POPC   PO446752   5.236  31.396   5.103
 3636POPC   GL146753   5.299  31.354   5.579
 3636POPC   GL246754   5.224  31.662   5.770
 3636POPC   C1A46755   5.245  31.162   6.004
 3636POPC   D2A46756   5.065  31.151   6.456
 3636POPC   C3A46757   5.004  31.246   6.924
 3636POPC   C4A46758   4.889  31.579   7.242
 3636POPC   C1B46759   5.130  31.624   6.224
 3636POPC   C2B46760   5.181  31.654   6.680
 3636POPC   C3B46761   5.374  31.619   7.109
 3636POPC   C4B46762   5.494  31.703   7.624
 3637POPC   NC346763  41.711  37.920   5.613
 3637POPC   PO446764  41.111  37.906   5.392
 3637POPC   GL146765  41.309  37.529   5.635
 3637POPC   GL246766  41.663  37.354   5.699
 3637POPC   C1A46767  41.383  37.555   6.088
 3637POPC   D2A46768  41.311  37.842   6.424
 3637POPC   C3A46769  41.285  37.613   6.801
 3637POPC   C4A46770  41.459  37.678   7.221
 3637POPC   C1B46771  41.899  37.401   6.094
 3637POPC   C2B46772  41.783  37.631   6.463
 3637POPC   C3B46773  41.700  37.896   6.813
 3637POPC   C4B46774  41.965  38.037   7.161
 3638POPC   NC346775  16.912  11.113   5.162
 3638POPC   PO446776  16.886  11.746   5.471
 3638POPC   GL146777  16.872  11.508   5.832
 3638POPC   GL246778  16.868  11.151   5.700
 3638POPC   C1A46779  16.966  11.504   6.294
 3638POPC   D2A46780  16.943  11.205   6.643
 3638POPC   C3A46781  16.903  11.299   7.086
 3638POPC   C4A46782  16.742  11.470   7.515
 3638POPC   C1B46783  16.506  11.116   6.008
 3638POPC   C2B46784  16.509  10.967   6.450
 3638POPC   C3B46785  16.452  11.180   6.859
 3638POPC   C4B46786  16.483  11.111   7.294
 3639POPC   NC346787  13.043  10.944   5.650
 3639POPC   PO446788  12.936  10.384   5.213
 3639POPC   GL146789  13.057  10.414   5.700
 3639POPC   GL246790  12.747  10.588   5.888
 3639POPC   C1A46791  13.164  10.396   6.190
 3639POPC   D2A46792  13.014  10.547   6.616
 3639POPC   C3A46793  13.240  10.600   7.053
 3639POPC   C4A46794  13.277  10.571   7.543
 3639POPC   C1B46795  12.514  10.796   6.240
 3639POPC   C2B46796  12.461  10.585   6.642
 3639POPC   C3B46797  12.700  10.430   6.993
 3639POPC   C4B46798  12.773  10.622   7.362
 3640POPC   NC346799   4.010  29.564   5.331
 3640POPC   PO446800   4.493  28.970   5.467
 3640POPC   GL146801   4.439  29.117   5.884
 3640POPC   GL246802   4.481  28.776   5.973
 3640POPC   C1A46803   4.289  29.320   6.298
 3640POPC   D2A46804   4.172  29.521   6.704
 3640POPC   C3A46805   4.396  29.542   7.122
 3640POPC   C4A46806   4.414  29.462   7.594
 3640POPC   C1B46807   4.535  28.872   6.393
 3640POPC   C2B46808   4.181  28.946   6.659
 3640POPC   C3B46809   4.121  29.132   7.039
 3640POPC   C4B46810   4.397  29.046   7.324
 3641POPC   NC346811   8.047   6.963   5.495
 3641POPC   PO446812   8.464   6.486   5.567
 3641POPC   GL146813   8.153   6.589   5.853
 3641POPC   GL246814   8.277   6.889   5.930
 3641POPC   C1A46815   7.934   6.680   6.250
 3641POPC   D2A46816   7.986   6.422   6.622
 3641POPC   C3A46817   8.001   6.612   7.020
 3641POPC   C4A46818   7.786   6.943   7.179
 3641POPC   C1B46819   8.447   6.641   6.284
 3641POPC   C2B46820   8.438   6.675   6.735
 3641POPC   C3B46821   8.506   6.578   7.174
 3641POPC   C4B46822   8.563   6.481   7.601
 3642POPC   NC346823  12.519  40.032   5.365
 3642POPC   PO446824  11.876  39.732   5.301
 3642POPC   GL146825  12.115  39.873   5.627
 3642POPC   GL246826  12.080  40.192   5.640
 3642POPC   C1A46827  12.136  39.772   6.045
 3642POPC   D2A46828  12.085  39.600   6.450
 3642POPC   C3A46829  11.923  39.881   6.760
 3642POPC   C4A46830  11.892  39.989   7.201
 3642POPC   C1B46831  12.378  40.300   5.986
 3642POPC   C2B46832  12.350  40.414   6.434
 3642POPC   C3B46833  12.328  40.207   6.818
 3642POPC   C4B46834  12.272  40.341   7.215
 3643POPC   NC346835  12.962  36.578   5.579
 3643POPC   PO446836  12.693  37.102   5.535
 3643POPC   GL146837  12.760  36.935   5.943
 3643POPC   GL246838  12.527  36.690   5.926
 3643POPC   C1A46839  12.852  37.005   6.409
 3643POPC   D2A46840  12.618  36.880   6.800
 3643POPC   C3A46841  12.902  36.953   7.148
 3643POPC   C4A46842  13.191  37.261   7.354
 3643POPC   C1B46843  12.603  36.586   6.341
 3643POPC   C2B46844  12.970  36.484   6.603
 3643POPC   C3B46845  12.970  36.458   7.045
 3643POPC   C4B46846  12.562  36.552   7.236
 3644POPC   NC346847  17.334  27.078   5.424
 3644POPC   PO446848  17.718  26.631   5.590
 3644POPC   GL146849  17.344  26.730   5.803
 3644POPC   GL246850  17.242  27.048   5.939
 3644POPC   C1A46851  17.247  26.649   6.236
 3644POPC   D2A46852  17.486  26.752   6.615
 3644POPC   C3A46853  17.320  26.734   7.045
 3644POPC   C4A46854  17.326  26.611   7.495
 3644POPC   C1B46855  17.669  27.006   6.137
 3644POPC   C2B46856  17.852  27.159   6.516
 3644POPC   C3B46857  17.727  27.091   6.929
 3644POPC   C4B46858  17.746  26.877   7.318
 3645POPC   NC346859  23.912  15.826   5.392
 3645POPC   PO446860  23.292  15.902   5.625
 3645POPC   GL146861  23.659  16.064   5.828
 3645POPC   GL246862  23.549  16.374   5.808
 3645POPC   C1A46863  23.843  16.142   6.261
 3645POPC   D2A46864  23.898  15.758   6.565
 3645POPC   C3A46865  23.741  15.706   7.002
 3645POPC   C4A46866  24.002  15.820   7.365
 3645POPC   C1B46867  23.341  16.160   6.225
 3645POPC   C2B46868  23.484  16.062   6.639
 3645POPC   C3B46869  23.743  16.222   6.956
 3645POPC   C4B46870  23.519  16.105   7.334
 3646POPC   NC346871  37.591   1.772   5.452
 3646POPC   PO446872  37.699   2.386   5.701
 3646POPC   GL146873  37.701   2.016   5.908
 3646POPC   GL246874  37.356   1.907   5.862
 3646POPC   C1A46875  37.870   2.028   6.320
 3646POPC   D2A46876  37.926   2.306   6.660
 3646POPC   C3A46877  37.750   2.149   7.003
 3646POPC   C4A46878  37.964   1.849   7.226
 3646POPC   C1B46879  37.393   1.784   6.255
 3646POPC   C2B46880  37.541   1.760   6.653
 3646POPC   C3B46881  37.349   1.839   7.055
 3646POPC   C4B46882  37.477   1.769   7.470
 3647POPC   NC346883   6.378  33.644   5.085
 3647POPC   PO446884   6.888  33.957   5.506
 3647POPC   GL146885   6.896  33.796   5.935
 3647POPC   GL246886   6.737  33.465   5.988
 3647POPC   C1A46887   6.647  34.022   6.243
 3647POPC   D2A46888   6.664  34.305   6.593
 3647POPC   C3A46889   6.866  34.157   6.984
 3647POPC   C4A46890   6.761  33.747   7.189
 3647POPC   C1B46891   6.616  33.516   6.408
 3647POPC   C2B46892   6.503  33.780   6.728
 3647POPC   C3B46893   6.282  33.633   7.071
 3647POPC   C4B46894   6.438  33.447   7.472
 3648POPC   NC346895   1.974  20.526   5.384
 3648POPC   PO446896   2.442  20.389   5.848
 3648POPC   GL146897   2.106  20.685   5.878
 3648POPC   GL246898   1.827  20.883   5.732
 3648POPC   C1A46899   2.143  20.881   6.269
 3648POPC   D2A46900   2.324  20.729   6.668
 3648POPC   C3A46901   2.005  20.493   6.904
 3648POPC   C4A46902   2.007  20.353   7.336
 3648POPC   C1B46903   1.677  20.685   6.141
 3648POPC   C2B46904   1.712  20.843   6.556
 3648POPC   C3B46905   1.945  21.016   6.863
 3648POPC   C4B46906   1.976  20.864   7.271
 3649POPC   NC346907  26.561  41.444   5.179
 3649POPC   PO446908  26.092  41.824   5.385
 3649POPC   GL146909  26.063  41.763   5.798
 3649POPC   GL246910  26.024  41.425   5.798
 3649POPC   C1A46911  26.002  41.669   6.245
 3649POPC   D2A46912  25.906  41.350   6.526
 3649POPC   C3A46913  25.895  41.542   6.903
 3649POPC   C4A46914  25.683  41.422   7.238
 3649POPC   C1B46915  26.298  41.248   6.105
 3649POPC   C2B46916  26.414  41.401   6.484
 3649POPC   C3B46917  26.344  41.257   6.867
 3649POPC   C4B46918  26.244  41.396   7.261
 3650POPC   NC346919  16.086   0.840   5.470
 3650POPC   PO446920  15.554   1.312   5.431
 3650POPC   GL146921  15.803   1.308   5.818
 3650POPC   GL246922  16.058   1.046   5.941
 3650POPC   C1A46923  15.846   1.473   6.236
 3650POPC   D2A46924  15.663   1.373   6.642
 3650POPC   C3A46925  15.952   1.425   6.979
 3650POPC   C4A46926  15.970   1.396   7.441
 3650POPC   C1B46927  15.705   0.915   6.143
 3650POPC   C2B46928  15.742   0.854   6.570
 3650POPC   C3B46929  15.948   0.920   6.963
 3650POPC   C4B46930  15.711   0.945   7.340
 3651POPC   NC346931  41.255   1.661   5.491
 3651POPC   PO446932  41.585   1.017   5.536
 3651POPC   GL146933  41.421   1.198   5.866
 3651POPC   GL246934  41.282   0.900   6.011
 3651POPC   C1A46935  41.365   1.318   6.297
 3651POPC   D2A46936  41.458   1.102   6.689
 3651POPC   C3A46937  41.563   1.384   7.010
 3651POPC   C4A46938  41.258   1.610   7.282
 3651POPC   C1B46939  41.669   0.870   6.266
 3651POPC   C2B46940  41.900   0.828   6.685
 3651POPC   C3B46941  41.698   0.859   7.095
 3651POPC   C4B46942  41.658   1.116   7.451
 3652POPC   NC346943  39.190  35.621   5.280
 3652POPC   PO446944  39.003  34.975   5.450
 3652POPC   GL146945  39.155  35.294   5.809
 3652POPC   GL246946  39.493  35.453   5.816
 3652POPC   C1A46947  39.253  35.490   6.260
 3652POPC   D2A46948  39.157  35.700   6.673
 3652POPC   C3A46949  38.969  35.379   6.918
 3652POPC   C4A46950  38.911  35.116   7.268
 3652POPC   C1B46951  39.646  35.142   6.146
 3652POPC   C2B46952  39.694  35.160   6.601
 3652POPC   C3B46953  39.622  35.345   7.016
 3652POPC   C4B46954  39.415  35.026   7.216
 3653POPC   NC346955  32.040   1.726   5.368
 3653POPC   PO446956  32.304   2.296   5.522
 3653POPC   GL146957  32.165   2.113   5.839
 3653POPC   GL246958  32.454   2.269   6.020
 3653POPC   C1A46959  32.061   1.996   6.229
 3653POPC   D2A46960  32.200   1.915   6.634
 3653POPC   C3A46961  32.112   1.586   6.899
 3653POPC   C4A46962  32.118   1.895   7.265
 3653POPC   C1B46963  32.599   2.148   6.429
 3653POPC   C2B46964  32.523   2.264   6.851
 3653POPC   C3B46965  32.491   2.303   7.259
 3653POPC   C4B46966  32.721   2.467   7.597
 3654POPC   NC346967  30.137  14.308   5.259
 3654POPC   PO446968  29.563  14.497   5.553
 3654POPC   GL146969  29.821  14.247   5.820
 3654POPC   GL246970  30.163  14.106   5.763
 3654POPC   C1A46971  29.956  14.350   6.208
 3654POPC   D2A46972  29.963  14.673   6.485
 3654POPC   C3A46973  29.917  14.581   6.903
 3654POPC   C4A46974  29.866  14.278   7.216
 3654POPC   C1B46975  30.344  14.016   6.198
 3654POPC   C2B46976  30.169  14.044   6.657
 3654POPC   C3B46977  30.363  14.195   7.086
 3654POPC   C4B46978  30.270  14.428   7.503
 3655POPC   NC346979  31.278   8.329   5.266
 3655POPC   PO446980  30.792   7.909   5.300
 3655POPC   GL146981  30.807   8.050   5.803
 3655POPC   GL246982  31.021   8.320   5.758
 3655POPC   C1A46983  30.499   8.016   6.204
 3655POPC   D2A46984  30.418   7.997   6.673
 3655POPC   C3A46985  30.811   7.898   6.912
 3655POPC   C4A46986  30.977   8.011   7.350
 3655POPC   C1B46987  30.832   8.393   6.190
 3655POPC   C2B46988  30.906   8.300   6.598
 3655POPC   C3B46989  30.745   8.392   7.009
 3655POPC   C4B46990  30.771   8.503   7.435
 3656POPC   NC346991  36.251  38.832   5.392
 3656POPC   PO446992  36.382  39.529   5.310
 3656POPC   GL146993  36.336  39.516   5.760
 3656POPC   GL246994  36.353  39.150   5.798
 3656POPC   C1A46995  36.087  39.411   6.161
 3656POPC   D2A46996  35.875  39.155   6.483
 3656POPC   C3A46997  35.808  39.286   6.935
 3656POPC   C4A46998  35.984  39.094   7.320
 3656POPC   C1B46999  36.137  38.877   6.108
 3656POPC   C2B47000  36.232  38.738   6.513
 3656POPC   C3B47001  36.320  38.935   6.924
 3656POPC   C4B47002  36.628  39.268   7.044
 3657POPC   NC347003  11.133  11.517   5.305
 3657POPC   PO447004  11.527  11.006   5.130
 3657POPC   GL147005  11.481  11.269   5.558
 3657POPC   GL247006  11.540  11.038   5.785
 3657POPC   C1A47007  11.372  11.453   6.017
 3657POPC   D2A47008  11.279  11.241   6.441
 3657POPC   C3A47009  11.213  11.358   6.879
 3657POPC   C4A47010  11.364  11.585   7.232
 3657POPC   C1B47011  11.513  10.849   6.168
 3657POPC   C2B47012  11.482  10.704   6.553
 3657POPC   C3B47013  11.498  10.924   6.920
 3657POPC   C4B47014  11.201  11.016   7.251
 3658POPC   NC347015   5.283  32.639   5.562
 3658POPC   PO447016   5.044  33.107   5.125
 3658POPC   GL147017   4.896  32.948   5.630
 3658POPC   GL247018   4.850  32.681   5.850
 3658POPC   C1A47019   5.195  33.063   6.039
 3658POPC   D2A47020   5.260  33.357   6.376
 3658POPC   C3A47021   5.151  33.220   6.775
 3658POPC   C4A47022   5.296  33.260   7.185
 3658POPC   C1B47023   4.913  32.772   6.307
 3658POPC   C2B47024   5.316  32.796   6.523
 3658POPC   C3B47025   5.297  32.743   6.967
 3658POPC   C4B47026   5.016  32.491   7.224
 3659POPC   NC347027  44.314   3.376   5.405
 3659POPC   PO447028  43.648   3.263   5.423
 3659POPC   GL147029  43.680   3.475   5.798
 3659POPC   GL247030  43.399   3.728   5.781
 3659POPC   C1A47031  43.998   3.401   6.148
 3659POPC   D2A47032  44.258   3.493   6.516
 3659POPC   C3A47033  44.078   3.381   6.929
 3659POPC   C4A47034  44.009   3.489   7.365
 3659POPC   C1B47035  43.663   3.818   6.170
 3659POPC   C2B47036  43.762   3.659   6.578
 3659POPC   C3B47037  43.707   3.775   7.002
 3659POPC   C4B47038  43.519   3.669   7.393
 3660POPC   NC347039  41.273  41.829   5.496
 3660POPC   PO447040  41.944  41.865   5.638
 3660POPC   GL147041  41.610  41.655   5.914
 3660POPC   GL247042  41.246  41.602   5.935
 3660POPC   C1A47043  41.610  41.652   6.363
 3660POPC   D2A47044  41.774  41.923   6.698
 3660POPC   C3A47045  41.553  41.851   7.069
 3660POPC   C4A47046  41.652  41.511   7.375
 3660POPC   C1B47047  41.158  41.252   6.147
 3660POPC   C2B47048  41.452  41.164   6.445
 3660POPC   C3B47049  41.482  41.356   6.842
 3660POPC   C4B47050  41.392  41.109   7.201
 3661POPC   NC347051  38.985  41.728   5.462
 3661POPC   PO447052  39.447  41.171   5.526
 3661POPC   GL147053  39.355  41.487   5.801
 3661POPC   GL247054  39.018  41.353   5.869
 3661POPC   C1A47055  39.468  41.527   6.229
 3661POPC   D2A47056  39.246  41.415   6.595
 3661POPC   C3A47057  39.481  41.462   6.965
 3661POPC   C4A47058  39.346  41.284   7.335
 3661POPC   C1B47059  38.831  41.487   6.257
 3661POPC   C2B47060  38.708  41.548   6.662
 3661POPC   C3B47061  38.945  41.411   7.033
 3661POPC   C4B47062  38.857  41.460   7.476
 3662POPC   NC347063  44.740  13.968   5.331
 3662POPC   PO447064  44.431  13.275   5.448
 3662POPC   GL147065  44.637  13.431   5.845
 3662POPC   GL247066  44.710  13.775   5.799
 3662POPC   C1A47067  44.567  13.646   6.274
 3662POPC   D2A47068  44.703  13.669   6.736
 3662POPC   C3A47069  44.506  13.494   7.091
 3662POPC   C4A47070  44.281  13.701   7.384
 3662POPC   C1B47071  44.928  13.993   6.100
 3662POPC   C2B47072  44.761  14.119   6.493
 3662POPC   C3B47073  44.902  14.157   6.902
 3662POPC   C4B47074   0.061  13.940   7.241
 3663POPC   NC347075  36.579  40.637   5.668
 3663POPC   PO447076  37.167  40.637   5.396
 3663POPC   GL147077  37.082  40.785   5.864
 3663POPC   GL247078  36.759  40.791   6.101
 3663POPC   C1A47079  37.211  40.749   6.322
 3663POPC   D2A47080  37.024  40.948   6.642
 3663POPC   C3A47081  36.844  40.767   6.953
 3663POPC   C4A47082  37.099  40.707   7.288
 3663POPC   C1B47083  36.955  41.174   6.191
 3663POPC   C2B47084  36.882  41.429   6.524
 3663POPC   C3B47085  36.829  41.315   6.943
 3663POPC   C4B47086  36.825  41.152   7.352
 3664POPC   NC347087  24.932  35.263   5.487
 3664POPC   PO447088  25.536  35.267   5.195
 3664POPC   GL147089  25.469  35.411   5.700
 3664POPC   GL247090  25.125  35.410   5.929
 3664POPC   C1A47091  25.561  35.482   6.154
 3664POPC   D2A47092  25.273  35.633   6.504
 3664POPC   C3A47093  25.250  35.525   6.952
 3664POPC   C4A47094  25.324  35.649   7.388
 3664POPC   C1B47095  25.208  35.135   6.304
 3664POPC   C2B47096  25.528  35.152   6.571
 3664POPC   C3B47097  25.382  35.040   6.927
 3664POPC   C4B47098  25.448  35.141   7.305
 3665POPC   NC347099  30.782   7.101   5.579
 3665POPC   PO447100  30.471   6.547   5.449
 3665POPC   GL147101  30.675   6.594   5.832
 3665POPC   GL247102  31.006   6.425   5.772
 3665POPC   C1A47103  30.523   6.694   6.281
 3665POPC   D2A47104  30.402   7.050   6.602
 3665POPC   C3A47105  30.593   6.965   7.019
 3665POPC   C4A47106  30.530   6.525   7.180
 3665POPC   C1B47107  31.040   6.622   6.182
 3665POPC   C2B47108  30.908   6.482   6.589
 3665POPC   C3B47109  30.979   6.403   7.003
 3665POPC   C4B47110  31.017   6.681   7.344
 3666POPC   NC347111  15.084  26.815   5.345
 3666POPC   PO447112  15.677  26.586   5.352
 3666POPC   GL147113  15.379  26.621   5.696
 3666POPC   GL247114  15.387  26.934   5.792
 3666POPC   C1A47115  15.091  26.585   6.052
 3666POPC   D2A47116  15.185  26.501   6.477
 3666POPC   C3A47117  14.968  26.606   6.854
 3666POPC   C4A47118  15.105  26.522   7.241
 3666POPC   C1B47119  15.094  27.087   6.106
 3666POPC   C2B47120  14.977  27.016   6.528
 3666POPC   C3B47121  15.148  27.076   6.931
 3666POPC   C4B47122  14.979  27.142   7.344
 3667POPC   NC347123  43.209  22.747   5.373
 3667POPC   PO447124  42.679  23.075   5.628
 3667POPC   GL147125  43.005  22.892   5.864
 3667POPC   GL247126  43.380  22.947   5.803
 3667POPC   C1A47127  42.919  22.939   6.303
 3667POPC   D2A47128  42.807  23.284   6.553
 3667POPC   C3A47129  42.780  23.106   6.935
 3667POPC   C4A47130  42.914  23.253   7.318
 3667POPC   C1B47131  43.414  22.734   6.195
 3667POPC   C2B47132  43.245  22.609   6.575
 3667POPC   C3B47133  43.216  22.832   6.945
 3667POPC   C4B47134  43.283  22.853   7.353
 3668POPC   NC347135  18.869  33.633   5.395
 3668POPC   PO447136  19.331  34.089   5.316
 3668POPC   GL147137  19.337  33.847   5.725
 3668POPC   GL247138  19.098  33.576   5.846
 3668POPC   C1A47139  19.160  34.008   6.107
 3668POPC   D2A47140  18.923  34.018   6.474
 3668POPC   C3A47141  19.248  33.977   6.788
 3668POPC   C4A47142  19.332  33.936   7.224
 3668POPC   C1B47143  18.765  33.648   6.148
 3668POPC   C2B47144  18.655  33.596   6.598
 3668POPC   C3B47145  18.895  33.642   6.963
 3668POPC   C4B47146  19.037  33.356   7.268
 3669POPC   NC347147  30.085  41.769   5.562
 3669POPC   PO447148  29.496  41.442   5.457
 3669POPC   GL147149  29.710  41.461   5.845
 3669POPC   GL247150  29.665  41.784   5.880
 3669POPC   C1A47151  29.944  41.499   6.241
 3669POPC   D2A47152  30.225  41.595   6.577
 3669POPC   C3A47153  30.122  41.408   6.965
 3669POPC   C4A47154  29.763  41.526   7.168
 3669POPC   C1B47155  29.603  41.888   6.287
 3669POPC   C2B47156  29.756  41.765   6.677
 3669POPC   C3B47157  29.515  41.916   6.982
 3669POPC   C4B47158  29.486  41.893   7.415
 3670POPC   NC347159  39.955   4.487   5.424
 3670POPC   PO447160  40.275   3.819   5.445
 3670POPC   GL147161  40.048   3.929   5.839
 3670POPC   GL247162  39.909   4.256   5.930
 3670POPC   C1A47163  39.879   3.828   6.236
 3670POPC   D2A47164  40.145   3.842   6.592
 3670POPC   C3A47165  40.056   4.211   6.852
 3670POPC   C4A47166  39.801   4.253   7.227
 3670POPC   C1B47167  39.841   4.313   6.399
 3670POPC   C2B47168  39.665   4.527   6.787
 3670POPC   C3B47169  39.729   4.768   7.192
 3670POPC   C4B47170  39.654   5.027   7.587
 3671POPC   NC347171   8.009  37.914   5.212
 3671POPC   PO447172   8.526  37.536   5.291
 3671POPC   GL147173   8.413  37.629   5.775
 3671POPC   GL247174   8.414  37.971   5.916
 3671POPC   C1A47175   8.319  37.631   6.261
 3671POPC   D2A47176   8.268  37.922   6.669
 3671POPC   C3A47177   8.179  37.705   7.061
 3671POPC   C4A47178   8.400  37.365   7.262
 3671POPC   C1B47179   7.984  37.989   6.258
 3671POPC   C2B47180   7.758  37.954   6.682
 3671POPC   C3B47181   7.744  38.035   7.133
 3671POPC   C4B47182   7.759  37.878   7.562
 3672POPC   NC347183  10.600  43.979   5.338
 3672POPC   PO447184   9.929  43.787   5.414
 3672POPC   GL147185  10.276  43.847   5.710
 3672POPC   GL247186  10.410  44.196   5.786
 3672POPC   C1A47187  10.498  43.802   6.113
 3672POPC   D2A47188  10.424  43.776   6.546
 3672POPC   C3A47189  10.753  43.648   6.799
 3672POPC   C4A47190  10.729  43.762   7.211
 3672POPC   C1B47191  10.776  44.244   6.058
 3672POPC   C2B47192  10.844  44.057   6.477
 3672POPC   C3B47193  10.653  44.162   6.858
 3672POPC   C4B47194  10.788  44.276   7.272
 3673POPC   NC347195  37.070  23.520   5.336
 3673POPC   PO447196  36.526  23.954   5.453
 3673POPC   GL147197  36.658  23.592   5.646
 3673POPC   GL247198  36.972  23.731   5.780
 3673POPC   C1A47199  36.630  23.442   6.061
 3673POPC   D2A47200  36.660  23.619   6.473
 3673POPC   C3A47201  36.794  23.472   6.889
 3673POPC   C4A47202  36.665  23.728   7.231
 3673POPC   C1B47203  37.103  23.625   6.194
 3673POPC   C2B47204  37.148  23.753   6.612
 3673POPC   C3B47205  37.045  23.983   6.986
 3673POPC   C4B47206  37.096  23.897   7.436
 3674POPC   NC347207  39.810  32.364   5.452
 3674POPC   PO447208  39.951  31.771   5.459
 3674POPC   GL147209  40.100  32.028   5.820
 3674POPC   GL247210  40.128  32.391   5.846
 3674POPC   C1A47211  40.031  32.044   6.250
 3674POPC   D2A47212  39.752  32.116   6.578
 3674POPC   C3A47213  39.981  32.061   6.926
 3674POPC   C4A47214  39.789  32.287   7.229
 3674POPC   C1B47215  40.357  32.440   6.205
 3674POPC   C2B47216  40.287  32.346   6.615
 3674POPC   C3B47217  40.210  32.504   7.037
 3674POPC   C4B47218  40.200  32.402   7.502
 3675POPC   NC347219  27.629  29.716   5.419
 3675POPC   PO447220  28.004  30.047   5.790
 3675POPC   GL147221  27.604  29.980   5.962
 3675POPC   GL247222  27.506  29.678   5.909
 3675POPC   C1A47223  27.370  29.891   6.361
 3675POPC   D2A47224  27.490  29.755   6.777
 3675POPC   C3A47225  27.458  30.092   7.075
 3675POPC   C4A47226  27.416  30.251   7.476
 3675POPC   C1B47227  27.726  29.547   6.292
 3675POPC   C2B47228  28.004  29.660   6.631
 3675POPC   C3B47229  27.964  29.892   7.003
 3675POPC   C4B47230  27.691  29.672   7.259
 3676POPC   NC347231  37.178  13.962   5.269
 3676POPC   PO447232  36.704  14.408   5.278
 3676POPC   GL147233  36.828  14.304   5.729
 3676POPC   GL247234  36.604  14.040   5.901
 3676POPC   C1A47235  36.797  14.550   6.118
 3676POPC   D2A47236  36.677  14.499   6.554
 3676POPC   C3A47237  36.749  14.814   6.852
 3676POPC   C4A47238  36.936  14.572   7.133
 3676POPC   C1B47239  36.788  14.065   6.303
 3676POPC   C2B47240  37.068  14.120   6.630
 3676POPC   C3B47241  37.098  14.026   7.049
 3676POPC   C4B47242  36.783  14.131   7.325
 3677POPC   NC347243   9.690   3.812   5.267
 3677POPC   PO447244  10.106   3.357   5.504
 3677POPC   GL147245   9.783   3.637   5.769
 3677POPC   GL247246   9.422   3.611   5.697
 3677POPC   C1A47247   9.678   3.787   6.231
 3677POPC   D2A47248   9.905   3.655   6.603
 3677POPC   C3A47249   9.898   3.857   6.979
 3677POPC   C4A47250   9.503   3.882   7.267
 3677POPC   C1B47251   9.421   3.384   6.106
 3677POPC   C2B47252   9.393   3.470   6.578
 3677POPC   C3B47253   9.596   3.437   7.001
 3677POPC   C4B47254   9.749   3.072   7.248
 3678POPC   NC347255  32.384   6.752   5.374
 3678POPC   PO447256  31.941   6.280   5.491
 3678POPC   GL147257  32.263   6.474   5.810
 3678POPC   GL247258  32.238   6.868   5.844
 3678POPC   C1A47259  32.416   6.608   6.247
 3678POPC   D2A47260  32.191   6.857   6.570
 3678POPC   C3A47261  32.071   6.687   6.957
 3678POPC   C4A47262  31.901   6.656   7.356
 3678POPC   C1B47263  32.402   7.127   6.168
 3678POPC   C2B47264  32.575   7.201   6.552
 3678POPC   C3B47265  32.592   6.922   6.921
 3678POPC   C4B47266  32.428   6.766   7.314
 3679POPC   NC347267  37.882   9.634   5.199
 3679POPC   PO447268  37.443  10.150   5.196
 3679POPC   GL147269  37.659  10.052   5.647
 3679POPC   GL247270  37.873   9.731   5.721
 3679POPC   C1A47271  37.520   9.910   6.100
 3679POPC   D2A47272  37.530   9.685   6.520
 3679POPC   C3A47273  37.849   9.852   6.789
 3679POPC   C4A47274  37.961   9.905   7.216
 3679POPC   C1B47275  37.890   9.533   6.157
 3679POPC   C2B47276  38.046   9.404   6.584
 3679POPC   C3B47277  37.866   9.389   7.007
 3679POPC   C4B47278  37.507   9.623   7.166
 3680POPC   NC347279  31.427  26.087   5.355
 3680POPC   PO447280  31.994  26.454   5.497
 3680POPC   GL147281  31.727  26.151   5.820
 3680POPC   GL247282  31.420  25.896   5.826
 3680POPC   C1A47283  31.518  26.137   6.269
 3680POPC   D2A47284  31.473  26.403   6.655
 3680POPC   C3A47285  31.609  26.186   7.042
 3680POPC   C4A47286  31.779  25.993   7.443
 3680POPC   C1B47287  31.176  25.720   6.182
 3680POPC   C2B47288  31.209  25.570   6.597
 3680POPC   C3B47289  31.257  25.785   6.982
 3680POPC   C4B47290  31.049  25.673   7.342
 3681POPC   NC347291  20.704  24.410   5.396
 3681POPC   PO447292  20.927  24.974   5.454
 3681POPC   GL147293  20.942  24.635   5.802
 3681POPC   GL247294  20.942  24.236   5.833
 3681POPC   C1A47295  20.742  24.549   6.205
 3681POPC   D2A47296  20.820  24.198   6.479
 3681POPC   C3A47297  20.729  24.338   6.871
 3681POPC   C4A47298  20.833  24.355   7.269
 3681POPC   C1B47299  20.514  24.111   6.077
 3681POPC   C2B47300  20.314  24.174   6.548
 3681POPC   C3B47301  20.257  24.246   7.046
 3681POPC   C4B47302  20.372  24.408   7.499
 3682POPC   NC347303  29.382  27.643   5.350
 3682POPC   PO447304  28.764  27.503   5.202
 3682POPC   GL147305  28.926  27.589   5.665
 3682POPC   GL247306  29.084  27.906   5.696
 3682POPC   C1A47307  29.123  27.610   6.118
 3682POPC   D2A47308  29.232  27.480   6.529
 3682POPC   C3A47309  29.032  27.456   6.944
 3682POPC   C4A47310  29.502  27.433   6.999
 3682POPC   C1B47311  29.417  28.016   5.999
 3682POPC   C2B47312  29.397  28.010   6.450
 3682POPC   C3B47313  29.147  27.922   6.820
 3682POPC   C4B47314  29.346  27.852   7.222
 3683POPC   NC347315  29.208  43.020   5.437
 3683POPC   PO447316  28.674  43.464   5.385
 3683POPC   GL147317  28.929  43.292   5.759
 3683POPC   GL247318  28.885  42.915   5.839
 3683POPC   C1A47319  28.953  43.229   6.225
 3683POPC   D2A47320  28.789  43.043   6.608
 3683POPC   C3A47321  28.914  43.286   6.960
 3683POPC   C4A47322  29.017  43.226   7.383
 3683POPC   C1B47323  29.306  42.896   6.141
 3683POPC   C2B47324  29.303  43.059   6.624
 3683POPC   C3B47325  29.185  42.861   7.061
 3683POPC   C4B47326  29.300  42.729   7.506
 3684POPC   NC347327   6.736  23.458   5.386
 3684POPC   PO447328   6.225  23.917   5.326
 3684POPC   GL147329   6.450  23.793   5.715
 3684POPC   GL247330   6.370  23.431   5.748
 3684POPC   C1A47331   6.573  23.708   6.163
 3684POPC   D2A47332   6.360  23.820   6.577
 3684POPC   C3A47333   6.639  23.672   6.912
 3684POPC   C4A47334   6.892  23.554   7.241
 3684POPC   C1B47335   6.178  23.410   6.144
 3684POPC   C2B47336   6.436  23.316   6.518
 3684POPC   C3B47337   6.293  23.297   6.934
 3684POPC   C4B47338   6.442  23.344   7.358
 3685POPC   NC347339  37.736  28.078   5.508
 3685POPC   PO447340  37.342  28.546   5.176
 3685POPC   GL147341  37.456  28.449   5.688
 3685POPC   GL247342  37.763  28.587   5.889
 3685POPC   C1A47343  37.560  28.226   6.153
 3685POPC   D2A47344  37.749  28.345   6.581
 3685POPC   C3A47345  37.425  28.419   6.897
 3685POPC   C4A47346  37.397  28.243   7.320
 3685POPC   C1B47347  38.045  28.854   6.128
 3685POPC   C2B47348  38.005  29.037   6.552
 3685POPC   C3B47349  37.834  28.801   6.896
 3685POPC   C4B47350  37.806  28.520   7.227
 3686POPC   NC347351  34.022  18.720   5.241
 3686POPC   PO447352  33.567  19.248   5.243
 3686POPC   GL147353  33.834  19.177   5.643
 3686POPC   GL247354  33.911  18.814   5.763
 3686POPC   C1A47355  33.910  19.331   6.098
 3686POPC   D2A47356  33.697  19.336   6.515
 3686POPC   C3A47357  33.887  19.189   6.892
 3686POPC   C4A47358  34.028  19.403   7.257
 3686POPC   C1B47359  34.218  18.908   6.098
 3686POPC   C2B47360  34.205  19.024   6.515
 3686POPC   C3B47361  34.222  18.780   6.900
 3686POPC   C4B47362  34.092  18.909   7.283
 3687POPC   NC347363  36.826  34.826   5.499
 3687POPC   PO447364  36.833  34.136   5.374
 3687POPC   GL147365  36.791  34.410   5.793
 3687POPC   GL247366  37.080  34.653   5.900
 3687POPC   C1A47367  36.848  34.387   6.269
 3687POPC   D2A47368  37.150  34.434   6.604
 3687POPC   C3A47369  36.908  34.357   6.960
 3687POPC   C4A47370  36.961  34.121   7.304
 3687POPC   C1B47371  36.807  34.898   6.207
 3687POPC   C2B47372  36.840  34.842   6.654
 3687POPC   C3B47373  36.993  34.839   7.067
 3687POPC   C4B47374  36.635  34.731   7.261
 3688POPC   NC347375  20.531  26.261   5.446
 3688POPC   PO447376  21.259  26.070   5.589
 3688POPC   GL147377  20.866  26.046   5.810
 3688POPC   GL247378  20.597  26.280   5.943
 3688POPC   C1A47379  20.732  25.851   6.200
 3688POPC   D2A47380  20.905  25.952   6.599
 3688POPC   C3A47381  20.781  25.867   6.965
 3688POPC   C4A47382  20.927  26.116   7.281
 3688POPC   C1B47383  20.593  26.301   6.379
 3688POPC   C2B47384  20.410  26.133   6.725
 3688POPC   C3B47385  20.455  26.239   7.132
 3688POPC   C4B47386  20.232  26.247   7.512
 3689POPC   NC347387  43.693  44.300   5.376
 3689POPC   PO447388  44.188  44.771   5.526
 3689POPC   GL147389  43.855  44.702   5.830
 3689POPC   GL247390  43.623   0.011   5.818
 3689POPC   C1A47391  44.021  44.650   6.265
 3689POPC   D2A47392  44.083  44.953   6.598
 3689POPC   C3A47393  44.108  44.718   6.976
 3689POPC   C4A47394  43.746  44.418   7.061
 3689POPC   C1B47395  43.576  44.890   6.260
 3689POPC   C2B47396  43.567  44.813   6.715
 3689POPC   C3B47397  43.676  44.924   7.144
 3689POPC   C4B47398  44.000   0.072   7.431
 3690POPC   NC347399  30.163  40.166   5.597
 3690POPC   PO447400  29.729  39.824   5.285
 3690POPC   GL147401  29.720  39.954   5.740
 3690POPC   GL247402  29.600  40.303   5.788
 3690POPC   C1A47403  29.996  39.863   6.130
 3690POPC   D2A47404  29.931  39.721   6.543
 3690POPC   C3A47405  30.139  39.827   6.933
 3690POPC   C4A47406  29.928  39.704   7.298
 3690POPC   C1B47407  29.859  40.393   6.143
 3690POPC   C2B47408  29.974  40.245   6.513
 3690POPC   C3B47409  29.900  40.314   6.902
 3690POPC   C4B47410  29.993  40.223   7.281
 3691POPC   NC347411  12.682   7.894   5.506
 3691POPC   PO447412  13.069   8.499   5.443
 3691POPC   GL147413  12.871   8.325   5.741
 3691POPC   GL247414  13.080   8.058   5.831
 3691POPC   C1A47415  12.738   8.286   6.151
 3691POPC   D2A47416  12.996   8.249   6.501
 3691POPC   C3A47417  12.869   8.292   6.918
 3691POPC   C4A47418  12.640   8.263   7.299
 3691POPC   C1B47419  13.186   7.870   6.219
 3691POPC   C2B47420  13.177   7.797   6.666
 3691POPC   C3B47421  13.162   7.906   7.108
 3691POPC   C4B47422  13.035   7.953   7.546
 3692POPC   NC347423  27.964  18.072   5.410
 3692POPC   PO447424  28.431  18.563   5.248
 3692POPC   GL147425  28.364  18.458   5.728
 3692POPC   GL247426  28.144  18.199   5.882
 3692POPC   C1A47427  28.479  18.466   6.200
 3692POPC   D2A47428  28.556  18.515   6.669
 3692POPC   C3A47429  28.668  18.146   6.975
 3692POPC   C4A47430  28.694  17.874   7.356
 3692POPC   C1B47431  27.915  18.140   6.300
 3692POPC   C2B47432  27.889  18.227   6.758
 3692POPC   C3B47433  28.063  18.386   7.155
 3692POPC   C4B47434  28.078  18.252   7.614
 3693POPC   NC347435  20.203  14.370   5.614
 3693POPC   PO447436  20.808  14.430   5.299
 3693POPC   GL147437  20.675  14.573   5.753
 3693POPC   GL247438  20.327  14.757   5.908
 3693POPC   C1A47439  20.644  14.396   6.196
 3693POPC   D2A47440  20.871  14.218   6.559
 3693POPC   C3A47441  20.633  14.078   6.916
 3693POPC   C4A47442  20.648  13.986   7.326
 3693POPC   C1B47443  20.162  14.604   6.314
 3693POPC   C2B47444  20.330  14.412   6.678
 3693POPC   C3B47445  20.457  14.533   7.095
 3693POPC   C4B47446  20.280  14.634   7.482
 3694POPC   NC347447  14.705  42.252   5.361
 3694POPC   PO447448  14.155  42.653   5.462
 3694POPC   GL147449  14.222  42.352   5.820
 3694POPC   GL247450  14.460  42.111   5.777
 3694POPC   C1A47451  14.375  42.394   6.271
 3694POPC   D2A47452  14.437  42.686   6.631
 3694POPC   C3A47453  14.334  42.566   7.050
 3694POPC   C4A47454  14.362  42.420   7.458
 3694POPC   C1B47455  14.764  42.086   6.105
 3694POPC   C2B47456  14.696  42.003   6.520
 3694POPC   C3B47457  14.720  42.293   6.848
 3694POPC   C4B47458  14.706  42.124   7.247
 3695POPC   NC347459  34.757  44.003   5.525
 3695POPC   PO447460  34.132  43.809   5.521
 3695POPC   GL147461  34.355  43.792   5.935
 3695POPC   GL247462  34.675  44.017   6.017
 3695POPC   C1A47463  34.454  43.751   6.369
 3695POPC   D2A47464  34.622  44.061   6.614
 3695POPC   C3A47465  34.267  44.155   6.847
 3695POPC   C4A47466  34.236  44.051   7.260
 3695POPC   C1B47467  34.941  43.696   6.248
 3695POPC   C2B47468  34.842  43.605   6.688
 3695POPC   C3B47469  34.573  43.730   7.033
 3695POPC   C4B47470  34.666  43.873   7.484
 3696POPC   NC347471  44.307  29.889   5.360
 3696POPC   PO447472  43.677  29.695   5.321
 3696POPC   GL147473  43.767  29.883   5.744
 3696POPC   GL247474  44.067  30.122   5.753
 3696POPC   C1A47475  43.855  29.667   6.147
 3696POPC   D2A47476  43.723  29.461   6.528
 3696POPC   C3A47477  43.800  29.678   6.902
 3696POPC   C4A47478  43.649  29.453   7.248
 3696POPC   C1B47479  44.090  30.129   6.198
 3696POPC   C2B47480  44.319  29.910   6.546
 3696POPC   C3B47481  44.317  29.777   6.962
 3696POPC   C4B47482  44.085  29.763   7.335
 3697POPC   NC347483   8.391  14.409   5.505
 3697POPC   PO447484   7.817  14.119   5.588
 3697POPC   GL147485   7.973  14.418   5.897
 3697POPC   GL247486   8.312  14.567   5.978
 3697POPC   C1A47487   7.903  14.552   6.319
 3697POPC   D2A47488   8.144  14.678   6.700
 3697POPC   C3A47489   7.947  14.476   7.062
 3697POPC   C4A47490   8.138  14.101   7.251
 3697POPC   C1B47491   8.392  14.195   6.215
 3697POPC   C2B47492   8.634  14.073   6.589
 3697POPC   C3B47493   8.583  14.180   7.001
 3697POPC   C4B47494   8.459  14.604   7.146
 3698POPC   NC347495   2.769  32.759   5.337
 3698POPC   PO447496   2.428  33.293   5.630
 3698POPC   GL147497   2.594  33.125   5.960
 3698POPC   GL247498   2.816  32.905   5.815
 3698POPC   C1A47499   2.745  33.142   6.346
 3698POPC   D2A47500   2.661  33.055   6.755
 3698POPC   C3A47501   2.798  33.301   7.069
 3698POPC   C4A47502   2.669  33.254   7.500
 3698POPC   C1B47503   2.973  32.714   6.168
 3698POPC   C2B47504   3.092  32.785   6.603
 3698POPC   C3B47505   2.921  32.686   7.014
 3698POPC   C4B47506   3.048  32.943   7.359
 3699POPC   NC347507  15.231  20.808   5.215
 3699POPC   PO447508  15.386  20.175   5.392
 3699POPC   GL147509  15.348  20.414   5.782
 3699POPC   GL247510  15.112  20.683   5.811
 3699POPC   C1A47511  15.168  20.343   6.216
 3699POPC   D2A47512  14.980  20.335   6.615
 3699POPC   C3A47513  15.294  20.364   6.963
 3699POPC   C4A47514  15.338  20.520   7.413
 3699POPC   C1B47515  15.081  20.841   6.245
 3699POPC   C2B47516  15.279  20.743   6.643
 3699POPC   C3B47517  15.208  20.881   7.081
 3699POPC   C4B47518  14.864  21.127   7.285
 3700POPC   NC347519  10.394  41.244   5.526
 3700POPC   PO447520  10.168  41.898   5.468
 3700POPC   GL147521  10.241  41.635   5.827
 3700POPC   GL247522  10.585  41.559   5.885
 3700POPC   C1A47523  10.232  41.341   6.194
 3700POPC   D2A47524  10.392  41.323   6.629
 3700POPC   C3A47525  10.246  41.581   6.955
 3700POPC   C4A47526  10.294  41.351   7.314
 3700POPC   C1B47527  10.751  41.311   6.241
 3700POPC   C2B47528  10.868  41.551   6.653
 3700POPC   C3B47529  10.779  41.583   7.118
 3700POPC   C4B47530  10.870  41.554   7.577
 3701POPC   NC347531  34.263   3.702   5.542
 3701POPC   PO447532  33.610   3.553   5.460
 3701POPC   GL147533  33.649   3.450   5.850
 3701POPC   GL247534  33.907   3.646   5.917
 3701POPC   C1A47535  33.541   3.476   6.254
 3701POPC   D2A47536  33.830   3.588   6.536
 3701POPC   C3A47537  33.702   3.412   6.888
 3701POPC   C4A47538  33.831   3.519   7.284
 3701POPC   C1B47539  34.127   3.863   6.196
 3701POPC   C2B47540  34.230   3.931   6.595
 3701POPC   C3B47541  33.955   3.912   6.939
 3701POPC   C4B47542  34.181   3.926   7.307
 3702POPC   NC347543  41.184  14.048   5.624
 3702POPC   PO447544  41.001  14.617   5.357
 3702POPC   GL147545  40.946  14.508   5.791
 3702POPC   GL247546  40.723  14.186   5.838
 3702POPC   C1A47547  41.037  14.352   6.204
 3702POPC   D2A47548  40.824  14.246   6.556
 3702POPC   C3A47549  40.991  14.520   6.841
 3702POPC   C4A47550  40.913  14.387   7.219
 3702POPC   C1B47551  40.543  14.530   6.124
 3702POPC   C2B47552  40.586  14.702   6.550
 3702POPC   C3B47553  40.489  14.496   6.954
 3702POPC   C4B47554  40.435  14.212   7.310
 3703POPC   NC347555   9.240   5.586   5.350
 3703POPC   PO447556   8.916   6.224   5.383
 3703POPC   GL147557   8.929   6.250   5.825
 3703POPC   GL247558   8.588   6.232   5.994
 3703POPC   C1A47559   9.227   6.091   6.159
 3703POPC   D2A47560   9.355   6.168   6.591
 3703POPC   C3A47561   9.099   6.034   6.940
 3703POPC   C4A47562   9.232   5.929   7.355
 3703POPC   C1B47563   8.789   5.832   6.127
 3703POPC   C2B47564   9.015   5.682   6.494
 3703POPC   C3B47565   8.924   5.523   6.906
 3703POPC   C4B47566   8.841   5.599   7.325
 3704POPC   NC347567  38.275  40.250   5.523
 3704POPC   PO447568  38.665  39.729   5.395
 3704POPC   GL147569  38.563  39.887   5.774
 3704POPC   GL247570  38.265  39.779   5.897
 3704POPC   C1A47571  38.698  39.866   6.197
 3704POPC   D2A47572  38.613  40.158   6.532
 3704POPC   C3A47573  38.857  40.229   6.857
 3704POPC   C4A47574  38.763  39.973   7.205
 3704POPC   C1B47575  38.262  40.168   6.167
 3704POPC   C2B47576  38.153  40.360   6.607
 3704POPC   C3B47577  38.299  40.132   6.992
 3704POPC   C4B47578  38.368  40.285   7.428
 3705POPC   NC347579  35.579  10.146   5.437
 3705POPC   PO447580  35.096  10.556   5.487
 3705POPC   GL147581  35.282  10.637   5.876
 3705POPC   GL247582  35.616  10.494   5.810
 3705POPC   C1A47583  35.129  10.566   6.298
 3705POPC   D2A47584  34.983  10.361   6.673
 3705POPC   C3A47585  35.014  10.621   7.028
 3705POPC   C4A47586  35.235  10.590   7.434
 3705POPC   C1B47587  35.670  10.631   6.227
 3705POPC   C2B47588  35.525  10.451   6.623
 3705POPC   C3B47589  35.537  10.573   7.031
 3705POPC   C4B47590  35.676  10.334   7.380
 3706POPC   NC347591  26.737  29.456   5.366
 3706POPC   PO447592  26.996  28.877   5.478
 3706POPC   GL147593  26.877  29.042   5.867
 3706POPC   GL247594  27.155  28.893   6.070
 3706POPC   C1A47595  26.749  29.245   6.251
 3706POPC   D2A47596  26.528  29.126   6.600
 3706POPC   C3A47597  26.787  29.186   6.933
 3706POPC   C4A47598  26.871  29.198   7.398
 3706POPC   C1B47599  26.807  28.715   6.293
 3706POPC   C2B47600  26.769  28.695   6.730
 3706POPC   C3B47601  26.645  28.776   7.173
 3706POPC   C4B47602  26.406  28.816   7.600
 3707POPC   NC347603  14.386  18.612   5.192
 3707POPC   PO447604  14.781  18.120   5.461
 3707POPC   GL147605  14.446  18.363   5.693
 3707POPC   GL247606  14.329  18.100   5.920
 3707POPC   C1A47607  14.253  18.573   6.090
 3707POPC   D2A47608  14.334  18.354   6.503
 3707POPC   C3A47609  14.103  18.387   6.918
 3707POPC   C4A47610  14.117  18.571   7.369
 3707POPC   C1B47611  14.601  17.962   6.233
 3707POPC   C2B47612  14.791  18.114   6.590
 3707POPC   C3B47613  14.597  18.204   6.969
 3707POPC   C4B47614  14.881  18.080   7.293
 3708POPC   NC347615  39.906  41.342   5.503
 3708POPC   PO447616  40.089  41.941   5.456
 3708POPC   GL147617  40.225  41.695   5.828
 3708POPC   GL247618  39.868  41.652   5.895
 3708POPC   C1A47619  40.166  41.398   6.221
 3708POPC   D2A47620  39.860  41.393   6.588
 3708POPC   C3A47621  40.099  41.424   6.981
 3708POPC   C4A47622  40.228  41.750   7.264
 3708POPC   C1B47623  39.920  41.838   6.285
 3708POPC   C2B47624  40.163  41.818   6.647
 3708POPC   C3B47625  39.870  41.867   6.944
 3708POPC   C4B47626  39.724  41.710   7.361
 3709POPC   NC347627  27.155   2.924   5.363
 3709POPC   PO447628  27.748   2.575   5.290
 3709POPC   GL147629  27.742   2.760   5.734
 3709POPC   GL247630  27.809   3.132   5.781
 3709POPC   C1A47631  27.438   2.649   6.097
 3709POPC   D2A47632  27.132   2.839   6.410
 3709POPC   C3A47633  27.259   2.767   6.873
 3709POPC   C4A47634  27.259   3.050   7.242
 3709POPC   C1B47635  27.641   3.140   6.212
 3709POPC   C2B47636  27.649   2.853   6.529
 3709POPC   C3B47637  27.777   2.870   6.924
 3709POPC   C4B47638  28.031   2.603   7.130
 3710POPC   NC347639  15.314  23.090   5.481
 3710POPC   PO447640  15.010  22.378   5.417
 3710POPC   GL147641  14.902  22.598   5.853
 3710POPC   GL247642  15.202  22.798   5.962
 3710POPC   C1A47643  14.783  22.798   6.273
 3710POPC   D2A47644  14.974  23.005   6.647
 3710POPC   C3A47645  15.191  22.843   7.012
 3710POPC   C4A47646  15.010  22.942   7.390
 3710POPC   C1B47647  15.202  23.196   6.228
 3710POPC   C2B47648  15.106  23.487   6.590
 3710POPC   C3B47649  15.244  23.369   7.009
 3710POPC   C4B47650  15.621  23.131   7.200
 3711POPC   NC347651  29.070  41.200   5.396
 3711POPC   PO447652  29.517  40.718   5.463
 3711POPC   GL147653  29.176  40.765   5.752
 3711POPC   GL247654  29.067  40.415   5.824
 3711POPC   C1A47655  28.861  40.801   6.093
 3711POPC   D2A47656  28.795  40.660   6.521
 3711POPC   C3A47657  29.089  40.832   6.810
 3711POPC   C4A47658  29.112  40.915   7.236
 3711POPC   C1B47659  29.324  40.490   6.205
 3711POPC   C2B47660  29.566  40.627   6.581
 3711POPC   C3B47661  29.484  40.573   7.036
 3711POPC   C4B47662  29.546  40.460   7.462
 3712POPC   NC347663  24.536   6.125   5.417
 3712POPC   PO447664  24.468   5.521   5.592
 3712POPC   GL147665  24.655   5.826   5.875
 3712POPC   GL247666  24.388   6.061   5.932
 3712POPC   C1A47667  24.670   5.848   6.334
 3712POPC   D2A47668  24.411   5.822   6.682
 3712POPC   C3A47669  24.695   5.808   7.020
 3712POPC   C4A47670  24.770   6.152   7.294
 3712POPC   C1B47671  24.237   5.648   6.201
 3712POPC   C2B47672  24.049   5.454   6.568
 3712POPC   C3B47673  24.012   5.689   6.956
 3712POPC   C4B47674  24.251   6.047   7.146
 3713POPC   NC347675  12.291   3.368   5.324
 3713POPC   PO447676  11.829   3.739   5.189
 3713POPC   GL147677  11.872   3.371   5.603
 3713POPC   GL247678  12.126   3.141   5.725
 3713POPC   C1A47679  11.920   3.403   6.095
 3713POPC   D2A47680  11.869   3.770   6.412
 3713POPC   C3A47681  12.026   3.740   6.857
 3713POPC   C4A47682  11.870   3.481   7.214
 3713POPC   C1B47683  12.386   3.139   6.113
 3713POPC   C2B47684  12.489   3.066   6.522
 3713POPC   C3B47685  12.166   3.193   6.821
 3713POPC   C4B47686  12.242   3.121   7.230
 3714POPC   NC347687  44.611  11.976   5.380
 3714POPC   PO447688  44.540  12.609   5.367
 3714POPC   GL147689  44.549  12.328   5.755
 3714POPC   GL247690  44.886  12.150   5.810
 3714POPC   C1A47691  44.557  12.183   6.203
 3714POPC   D2A47692  44.440  12.341   6.626
 3714POPC   C3A47693  44.490  12.144   7.064
 3714POPC   C4A47694  44.685  12.303   7.515
 3714POPC   C1B47695  44.906  11.819   6.177
 3714POPC   C2B47696  44.815  11.982   6.600
 3714POPC   C3B47697   0.024  12.173   6.918
 3714POPC   C4B47698  44.918  11.957   7.264
 3715POPC   NC347699  41.386  31.496   5.449
 3715POPC   PO447700  42.002  31.351   5.533
 3715POPC   GL147701  41.717  31.356   5.863
 3715POPC   GL247702  41.413  31.141   5.884
 3715POPC   C1A47703  41.631  31.437   6.293
 3715POPC   D2A47704  41.742  31.703   6.623
 3715POPC   C3A47705  41.916  31.500   6.964
 3715POPC   C4A47706  41.760  31.551   7.410
 3715POPC   C1B47707  41.297  31.044   6.355
 3715POPC   C2B47708  41.427  31.238   6.749
 3715POPC   C3B47709  41.427  31.591   7.013
 3715POPC   C4B47710  41.291  31.761   7.394
 3716POPC   NC347711  15.479  14.797   5.537
 3716POPC   PO447712  16.019  15.243   5.436
 3716POPC   GL147713  15.954  15.344   5.837
 3716POPC   GL247714  16.138  15.648   5.907
 3716POPC   C1A47715  15.901  15.091   6.206
 3716POPC   D2A47716  16.098  14.946   6.583
 3716POPC   C3A47717  15.839  15.084   6.941
 3716POPC   C4A47718  15.795  14.958   7.358
 3716POPC   C1B47719  15.869  15.625   6.243
 3716POPC   C2B47720  16.009  15.454   6.598
 3716POPC   C3B47721  15.935  15.598   6.993
 3716POPC   C4B47722  16.021  15.428   7.368
 3717POPC   NC347723  35.981  25.898   5.452
 3717POPC   PO447724  36.121  26.572   5.396
 3717POPC   GL147725  36.063  26.347   5.808
 3717POPC   GL247726  36.207  26.007   5.893
 3717POPC   C1A47727  36.190  26.406   6.269
 3717POPC   D2A47728  36.428  26.555   6.680
 3717POPC   C3A47729  36.157  26.511   7.038
 3717POPC   C4A47730  35.886  26.176   7.139
 3717POPC   C1B47731  36.190  25.868   6.316
 3717POPC   C2B47732  36.180  26.103   6.696
 3717POPC   C3B47733  36.393  26.039   7.056
 3717POPC   C4B47734  36.249  25.653   7.219
 3718POPC   NC347735  41.115  32.292   5.557
 3718POPC   PO447736  40.401  32.287   5.434
 3718POPC   GL147737  40.612  32.201   5.814
 3718POPC   GL247738  40.836  32.447   5.956
 3718POPC   C1A47739  40.546  31.936   6.175
 3718POPC   D2A47740  40.443  31.841   6.606
 3718POPC   C3A47741  40.693  32.159   6.841
 3718POPC   C4A47742  40.641  32.303   7.256
 3718POPC   C1B47743  40.882  32.377   6.408
 3718POPC   C2B47744  41.097  32.471   6.818
 3718POPC   C3B47745  41.119  32.176   7.165
 3718POPC   C4B47746  41.013  32.150   7.599
 3719POPC   NC347747  25.071   3.008   5.490
 3719POPC   PO447748  25.602   2.620   5.374
 3719POPC   GL147749  25.415   2.674   5.790
 3719POPC   GL247750  25.029   2.639   5.851
 3719POPC   C1A47751  25.401   2.538   6.238
 3719POPC   D2A47752  25.382   2.749   6.641
 3719POPC   C3A47753  25.407   2.562   7.034
 3719POPC   C4A47754  25.059   2.534   7.273
 3719POPC   C1B47755  24.937   2.905   6.233
 3719POPC   C2B47756  24.856   2.940   6.689
 3719POPC   C3B47757  25.118   2.997   7.057
 3719POPC   C4B47758  25.118   3.223   7.451
 3720POPC   NC347759  12.345  38.447   5.010
 3720POPC   PO447760  12.634  38.383   5.598
 3720POPC   GL147761  12.781  38.536   5.968
 3720POPC   GL247762  13.059  38.772   6.017
 3720POPC   C1A47763  12.857  38.453   6.360
 3720POPC   D2A47764  12.552  38.307   6.614
 3720POPC   C3A47765  12.656  38.383   7.015
 3720POPC   C4A47766  12.727  38.307   7.447
 3720POPC   C1B47767  13.101  38.876   6.471
 3720POPC   C2B47768  13.124  38.538   6.799
 3720POPC   C3B47769  13.104  38.549   7.241
 3720POPC   C4B47770  12.950  38.703   7.665
 3721POPC   NC347771  44.189  22.945   5.338
 3721POPC   PO447772  43.551  23.189   5.340
 3721POPC   GL147773  43.777  23.276   5.773
 3721POPC   GL247774  44.044  23.030   5.822
 3721POPC   C1A47775  43.729  23.158   6.250
 3721POPC   D2A47776  43.717  22.860   6.634
 3721POPC   C3A47777  43.687  23.046   7.065
 3721POPC   C4A47778  43.709  22.997   7.580
 3721POPC   C1B47779  44.236  23.149   6.209
 3721POPC   C2B47780  44.140  23.190   6.649
 3721POPC   C3B47781  44.160  23.243   7.091
 3721POPC   C4B47782  44.113  22.879   7.313
 3722POPC   NC347783  26.548  44.683   5.624
 3722POPC   PO447784  25.900  44.815   5.475
 3722POPC   GL147785  26.076  44.606   5.860
 3722POPC   GL247786  26.388  44.419   6.020
 3722POPC   C1A47787  25.900  44.529   6.268
 3722POPC   D2A47788  25.649  44.711   6.612
 3722POPC   C3A47789  25.852  44.497   6.971
 3722POPC   C4A47790  26.195  44.497   7.299
 3722POPC   C1B47791  26.323  44.835   6.253
 3722POPC   C2B47792  26.327   0.064   6.652
 3722POPC   C3B47793  26.401  44.917   7.088
 3722POPC   C4B47794  26.508  44.848   7.535
 3723POPC   NC347795   2.589  24.008   5.438
 3723POPC   PO447796   2.542  24.653   5.263
 3723POPC   GL147797   2.738  24.492   5.639
 3723POPC   GL247798   3.033  24.266   5.650
 3723POPC   C1A47799   2.771  24.588   6.075
 3723POPC   D2A47800   2.668  24.820   6.432
 3723POPC   C3A47801   2.719  24.568   6.766
 3723POPC   C4A47802   2.753  24.678   7.178
 3723POPC   C1B47803   3.170  24.244   6.101
 3723POPC   C2B47804   3.244  24.152   6.550
 3723POPC   C3B47805   3.090  24.275   6.954
 3723POPC   C4B47806   2.953  24.241   7.371
 3724POPC   NC347807   9.212  13.353   5.398
 3724POPC   PO447808   8.762  13.848   5.520
 3724POPC   GL147809   9.095  13.674   5.771
 3724POPC   GL247810   8.873  13.399   5.889
 3724POPC   C1A47811   9.253  13.550   6.173
 3724POPC   D2A47812   8.995  13.759   6.441
 3724POPC   C3A47813   9.008  13.836   6.902
 3724POPC   C4A47814   8.881  13.894   7.343
 3724POPC   C1B47815   8.845  13.238   6.325
 3724POPC   C2B47816   9.049  13.334   6.726
 3724POPC   C3B47817   8.938  13.370   7.158
 3724POPC   C4B47818   8.823  13.448   7.605
 3725POPC   NC347819  40.568   3.412   5.355
 3725POPC   PO447820  41.099   3.666   5.487
 3725POPC   GL147821  40.906   3.426   5.758
 3725POPC   GL247822  41.114   3.179   5.909
 3725POPC   C1A47823  40.732   3.488   6.147
 3725POPC   D2A47824  40.680   3.765   6.505
 3725POPC   C3A47825  40.887   3.695   6.893
 3725POPC   C4A47826  40.688   3.709   7.276
 3725POPC   C1B47827  41.101   3.146   6.361
 3725POPC   C2B47828  40.855   3.205   6.727
 3725POPC   C3B47829  40.780   3.213   7.179
 3725POPC   C4B47830  41.034   3.361   7.521
 3726POPC   NC347831  36.479  25.176   5.431
 3726POPC   PO447832  35.768  25.425   5.459
 3726POPC   GL147833  36.061  25.193   5.729
 3726POPC   GL247834  36.309  25.447   5.872
 3726POPC   C1A47835  36.049  25.017   6.152
 3726POPC   D2A47836  36.147  25.275   6.550
 3726POPC   C3A47837  35.906  25.166   6.941
 3726POPC   C4A47838  35.937  25.288   7.378
 3726POPC   C1B47839  36.533  25.172   6.169
 3726POPC   C2B47840  36.658  25.189   6.626
 3726POPC   C3B47841  36.421  25.193   7.026
 3726POPC   C4B47842  36.480  25.273   7.487
 3727POPC   NC347843  40.510  42.123   5.347
 3727POPC   PO447844  41.144  42.344   5.471
 3727POPC   GL147845  40.797  42.369   5.757
 3727POPC   GL247846  40.495  42.176   5.840
 3727POPC   C1A47847  40.768  42.442   6.194
 3727POPC   D2A47848  40.598  42.613   6.545
 3727POPC   C3A47849  40.795  42.475   6.857
 3727POPC   C4A47850  40.634  42.480   7.221
 3727POPC   C1B47851  40.413  42.005   6.220
 3727POPC   C2B47852  40.655  42.057   6.584
 3727POPC   C3B47853  40.599  42.010   7.035
 3727POPC   C4B47854  40.522  42.059   7.528
 3728POPC   NC347855  18.589  42.644   5.380
 3728POPC   PO447856  18.242  42.056   5.306
 3728POPC   GL147857  18.260  42.343   5.668
 3728POPC   GL247858  18.030  42.124   5.790
 3728POPC   C1A47859  18.343  42.364   6.135
 3728POPC   D2A47860  18.288  42.531   6.572
 3728POPC   C3A47861  18.497  42.346   6.932
 3728POPC   C4A47862  18.807  42.589   7.138
 3728POPC   C1B47863  18.059  41.870   6.146
 3728POPC   C2B47864  18.155  42.042   6.529
 3728POPC   C3B47865  18.151  41.964   6.943
 3728POPC   C4B47866  18.173  42.131   7.359
 3729POPC   NC347867  10.753   5.406   5.408
 3729POPC   PO447868  10.393   4.920   5.553
 3729POPC   GL147869  10.519   5.119   5.951
 3729POPC   GL247870  10.800   5.308   5.926
 3729POPC   C1A47871  10.577   5.207   6.425
 3729POPC   D2A47872  10.423   4.968   6.797
 3729POPC   C3A47873  10.475   5.060   7.258
 3729POPC   C4A47874  10.249   4.923   7.637
 3729POPC   C1B47875  10.892   4.882   6.191
 3729POPC   C2B47876  10.933   4.868   6.634
 3729POPC   C3B47877  10.987   5.109   7.020
 3729POPC   C4B47878  10.898   5.281   7.416
 3730POPC   NC347879  13.327  26.507   5.392
 3730POPC   PO447880  13.745  26.999   5.451
 3730POPC   GL147881  13.724  26.823   5.880
 3730POPC   GL247882  13.517  26.533   5.863
 3730POPC   C1A47883  13.836  26.671   6.320
 3730POPC   D2A47884  14.067  26.662   6.730
 3730POPC   C3A47885  13.976  26.906   7.123
 3730POPC   C4A47886  13.726  27.070   7.489
 3730POPC   C1B47887  13.329  26.674   6.238
 3730POPC   C2B47888  13.481  26.937   6.567
 3730POPC   C3B47889  13.482  26.944   6.998
 3730POPC   C4B47890  13.508  26.649   7.300
 3731POPC   NC347891   0.577  29.285   5.408
 3731POPC   PO447892   0.801  28.666   5.334
 3731POPC   GL147893   0.568  28.888   5.722
 3731POPC   GL247894   0.208  28.832   5.818
 3731POPC   C1A47895   0.498  29.240   6.073
 3731POPC   D2A47896   0.217  29.353   6.454
 3731POPC   C3A47897   0.387  29.309   6.873
 3731POPC   C4A47898   0.691  29.240   7.201
 3731POPC   C1B47899   0.438  28.760   6.190
 3731POPC   C2B47900   0.582  28.927   6.573
 3731POPC   C3B47901   0.482  28.809   7.005
 3731POPC   C4B47902   0.273  28.664   7.332
 3732POPC   NC347903  18.332  15.027   5.434
 3732POPC   PO447904  18.327  15.710   5.456
 3732POPC   GL147905  18.355  15.334   5.841
 3732POPC   GL247906  18.400  14.929   5.916
 3732POPC   C1A47907  18.235  15.228   6.288
 3732POPC   D2A47908  17.944  15.360   6.641
 3732POPC   C3A47909  18.079  15.206   7.069
 3732POPC   C4A47910  18.431  15.316   7.371
 3732POPC   C1B47911  18.042  14.744   6.173
 3732POPC   C2B47912  18.054  14.853   6.601
 3732POPC   C3B47913  18.424  14.971   6.789
 3732POPC   C4B47914  18.431  14.841   7.209
 3733POPC   NC347915   4.757  41.905   5.468
 3733POPC   PO447916   4.065  41.836   5.521
 3733POPC   GL147917   4.358  41.884   5.852
 3733POPC   GL247918   4.245  41.576   5.937
 3733POPC   C1A47919   4.497  41.810   6.310
 3733POPC   D2A47920   4.467  41.781   6.742
 3733POPC   C3A47921   4.304  41.410   6.918
 3733POPC   C4A47922   4.529  41.260   7.205
 3733POPC   C1B47923   3.986  41.829   6.217
 3733POPC   C2B47924   3.984  41.660   6.627
 3733POPC   C3B47925   4.010  41.825   7.040
 3733POPC   C4B47926   4.351  41.771   7.303
 3734POPC   NC347927  33.871   5.774   5.465
 3734POPC   PO447928  33.500   6.329   5.553
 3734POPC   GL147929  33.676   6.070   5.889
 3734POPC   GL247930  34.031   5.961   5.914
 3734POPC   C1A47931  33.648   5.939   6.339
 3734POPC   D2A47932  33.392   5.758   6.680
 3734POPC   C3A47933  33.586   5.700   7.108
 3734POPC   C4A47934  33.533   5.756   7.562
 3734POPC   C1B47935  34.289   6.040   6.283
 3734POPC   C2B47936  34.135   6.174   6.693
 3734POPC   C3B47937  34.089   5.908   7.061
 3734POPC   C4B47938  34.049   5.443   7.152
 3735POPC   NC347939  41.855  30.864   5.497
 3735POPC   PO447940  42.613  30.883   5.447
 3735POPC   GL147941  42.317  30.881   5.749
 3735POPC   GL247942  42.245  30.519   5.708
 3735POPC   C1A47943  42.259  30.805   6.163
 3735POPC   D2A47944  42.133  30.556   6.497
 3735POPC   C3A47945  42.295  30.770   6.849
 3735POPC   C4A47946  42.244  30.742   7.273
 3735POPC   C1B47947  42.576  30.442   6.019
 3735POPC   C2B47948  42.679  30.593   6.448
 3735POPC   C3B47949  42.717  30.472   6.891
 3735POPC   C4B47950  42.816  30.313   7.295
 3736POPC   NC347951   2.511  44.278   5.078
 3736POPC   PO447952   3.032  43.950   5.359
 3736POPC   GL147953   2.879  43.936   5.768
 3736POPC   GL247954   3.087  44.198   5.879
 3736POPC   C1A47955   2.598  43.805   6.121
 3736POPC   D2A47956   2.503  43.593   6.514
 3736POPC   C3A47957   2.774  43.694   6.865
 3736POPC   C4A47958   2.737  43.636   7.300
 3736POPC   C1B47959   3.003  44.072   6.321
 3736POPC   C2B47960   2.761  44.213   6.709
 3736POPC   C3B47961   2.726  44.239   7.171
 3736POPC   C4B47962   2.966  44.038   7.515
 3737POPC   NC347963  29.295  41.909   5.401
 3737POPC   PO447964  29.042  42.593   5.470
 3737POPC   GL147965  29.077  42.426   5.926
 3737POPC   GL247966  29.249  42.085   5.893
 3737POPC   C1A47967  29.048  42.546   6.404
 3737POPC   D2A47968  29.447  42.577   6.670
 3737POPC   C3A47969  29.453  42.418   7.084
 3737POPC   C4A47970  29.050  42.356   7.265
 3737POPC   C1B47971  29.106  42.051   6.314
 3737POPC   C2B47972  29.097  42.129   6.779
 3737POPC   C3B47973  29.041  41.845   7.162
 3737POPC   C4B47974  29.043  41.690   7.635
 3738POPC   NC347975  38.657  23.381   5.164
 3738POPC   PO447976  38.549  22.751   5.421
 3738POPC   GL147977  38.380  22.980   5.806
 3738POPC   GL247978  38.073  22.794   5.950
 3738POPC   C1A47979  38.533  23.101   6.198
 3738POPC   D2A47980  38.695  22.898   6.569
 3738POPC   C3A47981  38.606  23.004   6.982
 3738POPC   C4A47982  38.724  22.677   7.291
 3738POPC   C1B47983  38.161  22.755   6.381
 3738POPC   C2B47984  38.269  22.619   6.792
 3738POPC   C3B47985  38.230  22.737   7.220
 3738POPC   C4B47986  38.028  22.932   7.518
 3739POPC   NC347987   5.859  12.134   5.410
 3739POPC   PO447988   6.068  11.604   5.160
 3739POPC   GL147989   6.001  11.682   5.709
 3739POPC   GL247990   5.760  11.898   5.877
 3739POPC   C1A47991   6.146  11.785   6.186
 3739POPC   D2A47992   6.230  11.980   6.612
 3739POPC   C3A47993   6.105  11.772   7.007
 3739POPC   C4A47994   5.918  11.888   7.396
 3739POPC   C1B47995   5.589  12.225   6.123
 3739POPC   C2B47996   5.579  12.135   6.528
 3739POPC   C3B47997   5.825  12.195   6.894
 3739POPC   C4B47998   5.612  12.261   7.252
 3740POPC   NC347999  29.505   7.814   5.384
 3740POPC   PO448000  30.147   7.534   5.386
 3740POPC   GL148001  30.009   7.668   5.819
 3740POPC   GL248002  29.843   7.348   5.917
 3740POPC   C1A48003  30.018   7.869   6.259
 3740POPC   D2A48004  29.785   7.875   6.674
 3740POPC   C3A48005  30.035   7.820   7.066
 3740POPC   C4A48006  30.075   7.500   7.395
 3740POPC   C1B48007  29.712   7.483   6.339
 3740POPC   C2B48008  29.444   7.503   6.703
 3740POPC   C3B48009  29.671   7.463   7.079
 3740POPC   C4B48010  29.732   7.123   7.364
 3741POPC   NC348011  13.901  43.030   5.513
 3741POPC   PO448012  13.326  43.245   5.435
 3741POPC   GL148013  13.509  43.056   5.823
 3741POPC   GL248014  13.808  43.233   5.958
 3741POPC   C1A48015  13.607  42.843   6.199
 3741POPC   D2A48016  13.512  42.992   6.575
 3741POPC   C3A48017  13.262  42.895   6.909
 3741POPC   C4A48018  13.505  42.843   7.291
 3741POPC   C1B48019  14.042  43.461   6.258
 3741POPC   C2B48020  14.009  43.375   6.670
 3741POPC   C3B48021  14.183  43.427   7.068
 3741POPC   C4B48022  14.045  43.555   7.477
 3742POPC   NC348023   6.226  13.062   5.356
 3742POPC   PO448024   5.742  12.582   5.323
 3742POPC   GL148025   5.825  12.892   5.655
 3742POPC   GL248026   5.557  13.106   5.739
 3742POPC   C1A48027   5.900  12.878   6.117
 3742POPC   D2A48028   5.821  12.597   6.489
 3742POPC   C3A48029   5.739  12.731   6.918
 3742POPC   C4A48030   5.982  12.907   7.245
 3742POPC   C1B48031   5.516  13.204   6.137
 3742POPC   C2B48032   5.669  13.132   6.544
 3742POPC   C3B48033   5.807  13.259   6.926
 3742POPC   C4B48034   5.652  13.417   7.287
 3743POPC   NC348035  23.050  38.805   5.427
 3743POPC   PO448036  22.629  38.237   5.412
 3743POPC   GL148037  22.966  38.416   5.784
 3743POPC   GL248038  23.185  38.752   5.905
 3743POPC   C1A48039  23.114  38.389   6.235
 3743POPC   D2A48040  22.815  38.445   6.568
 3743POPC   C3A48041  22.740  38.353   7.003
 3743POPC   C4A48042  22.467  38.589   7.284
 3743POPC   C1B48043  22.817  38.799   6.172
 3743POPC   C2B48044  22.883  38.957   6.564
 3743POPC   C3B48045  22.750  38.896   6.983
 3743POPC   C4B48046  23.074  38.713   7.241
 3744POPC   NC348047   7.276  23.034   5.273
 3744POPC   PO448048   7.940  23.133   5.361
 3744POPC   GL148049   7.812  22.940   5.759
 3744POPC   GL248050   7.453  22.955   5.758
 3744POPC   C1A48051   7.722  22.929   6.224
 3744POPC   D2A48052   7.674  23.220   6.606
 3744POPC   C3A48053   7.554  23.065   7.032
 3744POPC   C4A48054   7.483  22.733   7.404
 3744POPC   C1B48055   7.197  22.902   6.152
 3744POPC   C2B48056   7.125  22.684   6.572
 3744POPC   C3B48057   7.097  22.723   7.046
 3744POPC   C4B48058   7.160  23.111   7.338
 3745POPC   NC348059  32.727  17.486   5.509
 3745POPC   PO448060  33.235  17.206   5.257
 3745POPC   GL148061  33.093  17.223   5.768
 3745POPC   GL248062  32.703  17.130   5.873
 3745POPC   C1A48063  33.199  17.430   6.212
 3745POPC   D2A48064  33.138  17.374   6.666
 3745POPC   C3A48065  33.078  17.533   7.071
 3745POPC   C4A48066  32.893  17.316   7.410
 3745POPC   C1B48067  32.717  17.409   6.270
 3745POPC   C2B48068  32.682  17.607   6.681
 3745POPC   C3B48069  32.567  17.529   7.100
 3745POPC   C4B48070  32.450  17.565   7.550
 3746POPC   NC348071  40.543  17.302   5.285
 3746POPC   PO448072  40.681  17.996   5.306
 3746POPC   GL148073  40.722  17.623   5.623
 3746POPC   GL248074  40.938  17.342   5.730
 3746POPC   C1A48075  40.618  17.575   6.071
 3746POPC   D2A48076  40.768  17.512   6.500
 3746POPC   C3A48077  40.554  17.540   6.871
 3746POPC   C4A48078  40.378  17.392   7.220
 3746POPC   C1B48079  40.894  17.147   6.145
 3746POPC   C2B48080  41.041  17.084   6.561
 3746POPC   C3B48081  41.047  17.340   6.928
 3746POPC   C4B48082  40.996  17.118   7.309
 3747POPC   NC348083  43.861   5.622   5.405
 3747POPC   PO448084  44.149   6.177   5.589
 3747POPC   GL148085  43.860   6.014   5.897
 3747POPC   GL248086  43.745   5.644   5.885
 3747POPC   C1A48087  43.882   5.935   6.338
 3747POPC   D2A48088  43.853   6.004   6.769
 3747POPC   C3A48089  43.876   5.701   7.087
 3747POPC   C4A48090  43.967   5.764   7.496
 3747POPC   C1B48091  43.447   5.792   6.139
 3747POPC   C2B48092  43.461   5.695   6.547
 3747POPC   C3B48093  43.383   5.847   6.896
 3747POPC   C4B48094  43.421   5.830   7.287
 3748POPC   NC348095  35.623  36.462   5.529
 3748POPC   PO448096  35.152  35.929   5.421
 3748POPC   GL148097  35.272  36.177   5.780
 3748POPC   GL248098  35.629  36.024   5.806
 3748POPC   C1A48099  35.162  36.274   6.215
 3748POPC   D2A48100  35.154  36.017   6.594
 3748POPC   C3A48101  35.104  36.203   6.978
 3748POPC   C4A48102  35.318  36.374   7.346
 3748POPC   C1B48103  35.714  36.274   6.180
 3748POPC   C2B48104  35.531  36.390   6.579
 3748POPC   C3B48105  35.672  36.369   6.977
 3748POPC   C4B48106  35.781  36.115   7.288
 3749POPC   NC348107  25.935  12.457   5.437
 3749POPC   PO448108  25.849  13.057   5.373
 3749POPC   GL148109  26.041  13.053   5.801
 3749POPC   GL248110  26.035  12.717   5.912
 3749POPC   C1A48111  26.076  13.098   6.261
 3749POPC   D2A48112  25.808  13.271   6.609
 3749POPC   C3A48113  25.814  12.967   6.954
 3749POPC   C4A48114  26.154  12.876   7.223
 3749POPC   C1B48115  26.175  12.548   6.336
 3749POPC   C2B48116  26.138  12.578   6.787
 3749POPC   C3B48117  25.873  12.463   7.141
 3749POPC   C4B48118  25.879  12.584   7.564
 3750POPC   NC348119  31.790  40.267   5.338
 3750POPC   PO448120  31.553  39.765   5.735
 3750POPC   GL148121  31.414  40.074   5.948
 3750POPC   GL248122  31.243  39.793   6.131
 3750POPC   C1A48123  31.695  40.245   6.266
 3750POPC   D2A48124  31.711  39.958   6.645
 3750POPC   C3A48125  31.795  40.132   7.070
 3750POPC   C4A48126  31.665  39.926   7.453
 3750POPC   C1B48127  31.213  40.130   6.405
 3750POPC   C2B48128  31.428  40.373   6.686
 3750POPC   C3B48129  31.296  40.125   6.970
 3750POPC   C4B48130  31.291  40.242   7.344
 3751POPC   NC348131  32.183   8.356   5.170
 3751POPC   PO448132  32.602   7.976   5.578
 3751POPC   GL148133  32.388   8.291   5.785
 3751POPC   GL248134  32.040   8.337   5.696
 3751POPC   C1A48135  32.392   8.223   6.227
 3751POPC   D2A48136  32.594   8.405   6.571
 3751POPC   C3A48137  32.509   8.187   6.951
 3751POPC   C4A48138  32.454   8.386   7.334
 3751POPC   C1B48139  31.900   8.345   6.141
 3751POPC   C2B48140  31.934   8.111   6.517
 3751POPC   C3B48141  31.771   8.101   6.913
 3751POPC   C4B48142  31.985   8.202   7.255
 3752POPC   NC348143  33.326  42.441   5.488
 3752POPC   PO448144  32.946  41.952   5.325
 3752POPC   GL148145  33.082  42.065   5.762
 3752POPC   GL248146  33.053  42.438   5.911
 3752POPC   C1A48147  33.104  41.997   6.218
 3752POPC   D2A48148  33.205  42.153   6.679
 3752POPC   C3A48149  32.852  42.212   6.926
 3752POPC   C4A48150  32.664  41.879   7.146
 3752POPC   C1B48151  33.091  42.774   6.271
 3752POPC   C2B48152  33.037  42.671   6.723
 3752POPC   C3B48153  33.248  42.496   7.117
 3752POPC   C4B48154  33.211  42.721   7.522
 3753POPC   NC348155  16.502  17.324   5.420
 3753POPC   PO448156  17.200  17.501   5.472
 3753POPC   GL148157  16.981  17.441   5.837
 3753POPC   GL248158  16.667  17.640   5.861
 3753POPC   C1A48159  16.965  17.515   6.263
 3753POPC   D2A48160  16.757  17.639   6.618
 3753POPC   C3A48161  16.672  17.262   6.834
 3753POPC   C4A48162  16.864  17.264   7.216
 3753POPC   C1B48163  16.470  17.877   6.235
 3753POPC   C2B48164  16.272  17.805   6.686
 3753POPC   C3B48165  16.476  17.666   7.078
 3753POPC   C4B48166  16.639  17.617   7.512
 3754POPC   NC348167   6.355   4.566   5.265
 3754POPC   PO448168   6.880   4.204   5.555
 3754POPC   GL148169   6.860   4.236   5.945
 3754POPC   GL248170   7.100   4.479   5.973
 3754POPC   C1A48171   6.598   4.173   6.274
 3754POPC   D2A48172   6.420   4.510   6.464
 3754POPC   C3A48173   6.356   4.465   6.865
 3754POPC   C4A48174   6.597   4.487   7.234
 3754POPC   C1B48175   7.032   4.444   6.397
 3754POPC   C2B48176   6.846   4.400   6.776
 3754POPC   C3B48177   6.980   4.139   7.109
 3754POPC   C4B48178   6.928   4.172   7.556
 3755POPC   NC348179  17.634  37.656   5.508
 3755POPC   PO448180  17.023  37.889   5.505
 3755POPC   GL148181  17.379  37.986   5.825
 3755POPC   GL248182  17.782  38.010   5.900
 3755POPC   C1A48183  17.442  37.829   6.268
 3755POPC   D2A48184  17.364  37.892   6.734
 3755POPC   C3A48185  17.291  37.535   7.048
 3755POPC   C4A48186  17.189  37.144   7.325
 3755POPC   C1B48187  17.953  37.736   6.205
 3755POPC   C2B48188  17.819  37.670   6.636
 3755POPC   C3B48189  17.773  37.717   7.106
 3755POPC   C4B48190  17.648  37.371   7.422
 3756POPC   NC348191   5.211  27.734   5.422
 3756POPC   PO448192   5.856  27.776   5.325
 3756POPC   GL148193   5.661  27.542   5.694
 3756POPC   GL248194   5.840  27.236   5.737
 3756POPC   C1A48195   5.647  27.614   6.170
 3756POPC   D2A48196   5.709  27.912   6.519
 3756POPC   C3A48197   5.817  27.787   6.935
 3756POPC   C4A48198   5.936  27.914   7.391
 3756POPC   C1B48199   5.997  27.246   6.167
 3756POPC   C2B48200   5.798  27.306   6.581
 3756POPC   C3B48201   6.019  27.317   6.974
 3756POPC   C4B48202   5.867  27.417   7.355
 3757POPC   NC348203  24.155  31.833   5.722
 3757POPC   PO448204  23.758  31.502   5.218
 3757POPC   GL148205  23.661  31.554   5.662
 3757POPC   GL248206  23.935  31.330   5.749
 3757POPC   C1A48207  23.631  31.725   6.120
 3757POPC   D2A48208  23.946  31.766   6.488
 3757POPC   C3A48209  23.815  31.622   6.899
 3757POPC   C4A48210  23.903  31.329   7.213
 3757POPC   C1B48211  23.677  31.205   6.073
 3757POPC   C2B48212  23.808  31.216   6.501
 3757POPC   C3B48213  23.777  30.982   6.871
 3757POPC   C4B48214  23.434  31.132   7.125
 3758POPC   NC348215  44.903  19.362   5.537
 3758POPC   PO448216  44.681  18.831   5.236
 3758POPC   GL148217  44.613  18.969   5.768
 3758POPC   GL248218  44.628  19.342   5.947
 3758POPC   C1A48219  44.429  19.047   6.251
 3758POPC   D2A48220  44.472  19.371   6.541
 3758POPC   C3A48221  44.549  19.084   6.864
 3758POPC   C4A48222  44.511  19.011   7.291
 3758POPC   C1B48223  44.938  19.142   6.235
 3758POPC   C2B48224  44.976  19.307   6.645
 3758POPC   C3B48225  44.861  19.439   7.038
 3758POPC   C4B48226  44.881  19.326   7.457
 3759POPC   NC348227  15.924  12.258   5.338
 3759POPC   PO448228  15.896  11.614   5.411
 3759POPC   GL148229  15.944  11.914   5.750
 3759POPC   GL248230  16.163  11.776   5.982
 3759POPC   C1A48231  15.779  12.058   6.182
 3759POPC   D2A48232  16.028  12.087   6.567
 3759POPC   C3A48233  15.783  12.128   6.983
 3759POPC   C4A48234  15.445  12.184   7.283
 3759POPC   C1B48235  16.264  12.225   6.116
 3759POPC   C2B48236  16.389  12.441   6.502
 3759POPC   C3B48237  16.320  12.299   6.935
 3759POPC   C4B48238  16.451  12.120   7.336
 3760POPC   NC348239  40.727  24.056   5.333
 3760POPC   PO448240  40.975  23.501   5.515
 3760POPC   GL148241  40.763  23.689   5.862
 3760POPC   GL248242  40.803  24.049   5.831
 3760POPC   C1A48243  40.613  23.590   6.296
 3760POPC   D2A48244  40.632  23.308   6.646
 3760POPC   C3A48245  40.700  23.520   7.016
 3760POPC   C4A48246  40.503  23.535   7.379
 3760POPC   C1B48247  40.854  24.052   6.258
 3760POPC   C2B48248  40.611  24.028   6.620
 3760POPC   C3B48249  40.760  24.037   7.010
 3760POPC   C4B48250  40.877  23.873   7.368
 3761POPC   NC348251  33.730  14.179   5.459
 3761POPC   PO448252  33.870  13.424   5.343
 3761POPC   GL148253  33.720  13.629   5.736
 3761POPC   GL248254  33.981  13.842   5.792
 3761POPC   C1A48255  33.763  13.696   6.234
 3761POPC   D2A48256  33.599  13.536   6.635
 3761POPC   C3A48257  33.727  13.744   6.997
 3761POPC   C4A48258  33.655  13.596   7.377
 3761POPC   C1B48259  34.116  13.398   6.026
 3761POPC   C2B48260  34.102  13.323   6.521
 3761POPC   C3B48261  34.079  13.336   7.026
 3761POPC   C4B48262  33.925  13.197   7.519
 3762POPC   NC348263  36.001  39.790   5.254
 3762POPC   PO448264  36.369  40.331   5.388
 3762POPC   GL148265  36.358  40.102   5.741
 3762POPC   GL248266  36.209  40.372   5.921
 3762POPC   C1A48267  36.039  39.899   5.996
 3762POPC   D2A48268  35.898  39.854   6.411
 3762POPC   C3A48269  36.136  39.975   6.761
 3762POPC   C4A48270  36.014  39.880   7.194
 3762POPC   C1B48271  36.413  40.205   6.283
 3762POPC   C2B48272  36.510  40.460   6.664
 3762POPC   C3B48273  36.317  40.354   7.054
 3762POPC   C4B48274  36.402  40.180   7.415
 3763POPC   NC348275  14.614   6.193   5.531
 3763POPC   PO448276  14.310   5.583   5.535
 3763POPC   GL148277  14.320   5.848   5.842
 3763POPC   GL248278  14.673   5.789   5.857
 3763POPC   C1A48279  14.347   5.751   6.274
 3763POPC   D2A48280  14.424   5.919   6.685
 3763POPC   C3A48281  14.201   5.770   7.048
 3763POPC   C4A48282  14.159   6.078   7.370
 3763POPC   C1B48283  14.761   6.083   6.194
 3763POPC   C2B48284  14.867   6.189   6.628
 3763POPC   C3B48285  14.711   6.193   7.039
 3763POPC   C4B48286  14.717   5.770   7.133
 3764POPC   NC348287  34.768  41.589   5.349
 3764POPC   PO448288  34.195  41.911   5.250
 3764POPC   GL148289  34.380  41.579   5.674
 3764POPC   GL248290  34.699  41.351   5.784
 3764POPC   C1A48291  34.492  41.603   6.156
 3764POPC   D2A48292  34.206  41.526   6.507
 3764POPC   C3A48293  34.278  41.570   6.944
 3764POPC   C4A48294  34.614  41.816   7.082
 3764POPC   C1B48295  34.877  41.222   6.179
 3764POPC   C2B48296  34.761  41.397   6.562
 3764POPC   C3B48297  34.974  41.517   6.899
 3764POPC   C4B48298  35.125  41.281   7.227
 3765POPC   NC348299  22.355  15.544   5.674
 3765POPC   PO448300  21.768  15.253   5.396
 3765POPC   GL148301  21.993  15.102   5.776
 3765POPC   GL248302  22.321  14.884   5.851
 3765POPC   C1A48303  22.037  15.109   6.227
 3765POPC   D2A48304  22.312  15.353   6.497
 3765POPC   C3A48305  22.148  15.357   6.892
 3765POPC   C4A48306  22.200  15.382   7.294
 3765POPC   C1B48307  22.488  14.887   6.299
 3765POPC   C2B48308  22.223  14.876   6.685
 3765POPC   C3B48309  22.151  14.899   7.142
 3765POPC   C4B48310  22.408  14.876   7.524
 3766POPC   NC348311   8.588  26.545   5.167
 3766POPC   PO448312   8.120  26.060   5.287
 3766POPC   GL148313   7.989  25.953   5.716
 3766POPC   GL248314   8.334  25.886   5.780
 3766POPC   C1A48315   8.025  26.144   6.148
 3766POPC   D2A48316   7.882  26.380   6.506
 3766POPC   C3A48317   7.819  26.141   6.888
 3766POPC   C4A48318   7.928  26.332   7.269
 3766POPC   C1B48319   8.446  25.858   6.219
 3766POPC   C2B48320   8.370  26.180   6.540
 3766POPC   C3B48321   8.341  26.088   6.973
 3766POPC   C4B48322   8.628  25.833   7.262
 3767POPC   NC348323  37.438  33.570   5.547
 3767POPC   PO448324  36.911  33.140   5.396
 3767POPC   GL148325  36.895  33.049   5.817
 3767POPC   GL248326  36.602  33.240   5.868
 3767POPC   C1A48327  37.023  32.749   6.169
 3767POPC   D2A48328  36.991  32.523   6.596
 3767POPC   C3A48329  37.075  32.733   6.996
 3767POPC   C4A48330  36.782  32.794   7.327
 3767POPC   C1B48331  36.696  33.140   6.294
 3767POPC   C2B48332  36.704  33.417   6.665
 3767POPC   C3B48333  36.669  33.241   7.078
 3767POPC   C4B48334  36.904  33.268   7.481
 3768POPC   NC348335  44.832  27.945   4.952
 3768POPC   PO448336  44.562  28.395   5.457
 3768POPC   GL148337  44.527  28.533   5.868
 3768POPC   GL248338  44.223  28.722   5.944
 3768POPC   C1A48339  44.580  28.307   6.232
 3768POPC   D2A48340  44.895  28.226   6.515
 3768POPC   C3A48341  44.729  28.159   6.942
 3768POPC   C4A48342  44.847  28.415   7.308
 3768POPC   C1B48343  44.382  28.791   6.336
 3768POPC   C2B48344  44.616  28.630   6.678
 3768POPC   C3B48345  44.447  28.589   7.057
 3768POPC   C4B48346  44.279  28.895   7.260
 3769POPC   NC348347  43.610   7.761   5.360
 3769POPC   PO448348  43.019   7.388   5.317
 3769POPC   GL148349  43.054   7.245   5.735
 3769POPC   GL248350  42.815   7.002   5.738
 3769POPC   C1A48351  43.179   7.274   6.172
 3769POPC   D2A48352  43.313   7.558   6.534
 3769POPC   C3A48353  43.105   7.425   6.887
 3769POPC   C4A48354  43.192   7.273   7.307
 3769POPC   C1B48355  42.699   7.009   6.174
 3769POPC   C2B48356  42.920   6.997   6.552
 3769POPC   C3B48357  42.807   7.005   6.936
 3769POPC   C4B48358  42.831   6.906   7.323
 3770POPC   NC348359   6.579   2.333   5.408
 3770POPC   PO448360   6.733   1.710   5.617
 3770POPC   GL148361   6.783   2.058   5.852
 3770POPC   GL248362   6.525   2.299   5.920
 3770POPC   C1A48363   6.664   1.887   6.272
 3770POPC   D2A48364   6.629   2.046   6.670
 3770POPC   C3A48365   6.809   1.765   6.947
 3770POPC   C4A48366   6.484   1.711   7.225
 3770POPC   C1B48367   6.816   2.356   6.288
 3770POPC   C2B48368   6.909   2.494   6.701
 3770POPC   C3B48369   6.972   2.236   7.075
 3770POPC   C4B48370   6.992   2.355   7.520
 3771POPC   NC348371  29.768   1.030   5.559
 3771POPC   PO448372  30.380   1.048   5.459
 3771POPC   GL148373  30.133   1.207   5.832
 3771POPC   GL248374  29.833   1.472   5.787
 3771POPC   C1A48375  29.963   1.017   6.210
 3771POPC   D2A48376  29.995   1.137   6.648
 3771POPC   C3A48377  29.811   0.915   7.010
 3771POPC   C4A48378  29.769   0.861   7.500
 3771POPC   C1B48379  29.931   1.552   6.204
 3771POPC   C2B48380  29.790   1.721   6.579
 3771POPC   C3B48381  29.970   1.560   6.963
 3771POPC   C4B48382  29.811   1.332   7.288
 3772POPC   NC348383  41.464   0.136   5.224
 3772POPC   PO448384  41.775  44.656   5.468
 3772POPC   GL148385  41.595  44.660   5.822
 3772POPC   GL248386  41.342  44.876   5.680
 3772POPC   C1A48387  41.535  44.544   6.246
 3772POPC   D2A48388  41.369  44.433   6.634
 3772POPC   C3A48389  41.641  44.632   6.906
 3772POPC   C4A48390  41.885  44.652   7.247
 3772POPC   C1B48391  41.437   0.021   6.110
 3772POPC   C2B48392  41.412  44.968   6.547
 3772POPC   C3B48393  41.318   0.072   6.950
 3772POPC   C4B48394  41.529   0.001   7.270
 3773POPC   NC348395  34.273  23.075   5.192
 3773POPC   PO448396  34.799  22.979   5.466
 3773POPC   GL148397  34.499  23.056   5.742
 3773POPC   GL248398  34.719  23.029   5.991
 3773POPC   C1A48399  34.258  22.903   6.116
 3773POPC   D2A48400  34.502  22.835   6.477
 3773POPC   C3A48401  34.308  22.830   6.893
 3773POPC   C4A48402  34.455  23.091   7.257
 3773POPC   C1B48403  35.031  22.833   6.212
 3773POPC   C2B48404  34.981  22.687   6.589
 3773POPC   C3B48405  34.806  22.834   6.937
 3773POPC   C4B48406  35.007  22.957   7.277
 3774POPC   NC348407  39.363  37.328   5.366
 3774POPC   PO448408  38.766  36.948   5.350
 3774POPC   GL148409  38.972  37.007   5.756
 3774POPC   GL248410  39.069  37.347   5.812
 3774POPC   C1A48411  39.252  36.888   6.108
 3774POPC   D2A48412  39.347  36.610   6.468
 3774POPC   C3A48413  39.466  36.818   6.869
 3774POPC   C4A48414  39.348  36.718   7.294
 3774POPC   C1B48415  38.936  37.297   6.252
 3774POPC   C2B48416  39.043  37.032   6.632
 3774POPC   C3B48417  39.095  37.149   7.085
 3774POPC   C4B48418  38.788  37.390   7.331
 3775POPC   NC348419  20.321  12.042   5.378
 3775POPC   PO448420  20.991  11.745   5.295
 3775POPC   GL148421  20.769  11.895   5.697
 3775POPC   GL248422  20.436  11.927   5.863
 3775POPC   C1A48423  20.881  12.096   6.104
 3775POPC   D2A48424  21.052  12.208   6.513
 3775POPC   C3A48425  20.826  11.980   6.842
 3775POPC   C4A48426  20.584  12.214   7.137
 3775POPC   C1B48427  20.388  12.148   6.259
 3775POPC   C2B48428  20.321  12.005   6.686
 3775POPC   C3B48429  20.276  11.812   7.073
 3775POPC   C4B48430  20.118  12.095   7.323
 3776POPC   NC348431  44.854  27.070   5.474
 3776POPC   PO448432  44.804  26.396   5.450
 3776POPC   GL148433  44.671  26.674   5.769
 3776POPC   GL248434  44.342  26.598   5.811
 3776POPC   C1A48435  44.746  26.793   6.191
 3776POPC   D2A48436  44.929  26.646   6.587
 3776POPC   C3A48437  44.840  26.860   6.964
 3776POPC   C4A48438  44.924  26.782   7.409
 3776POPC   C1B48439  44.370  26.463   6.212
 3776POPC   C2B48440  44.378  26.701   6.578
 3776POPC   C3B48441  44.422  26.575   6.986
 3776POPC   C4B48442  44.418  26.791   7.339
 3777POPC   NC348443  38.187  41.042   5.328
 3777POPC   PO448444  38.673  40.520   5.464
 3777POPC   GL148445  38.393  40.680   5.769
 3777POPC   GL248446  38.559  40.960   5.730
 3777POPC   C1A48447  38.244  40.687   6.205
 3777POPC   D2A48448  38.552  40.678   6.555
 3777POPC   C3A48449  38.476  40.611   6.999
 3777POPC   C4A48450  38.802  40.489   7.283
 3777POPC   C1B48451  38.534  41.095   6.121
 3777POPC   C2B48452  38.382  41.163   6.515
 3777POPC   C3B48453  38.559  41.102   6.888
 3777POPC   C4B48454  38.728  41.000   7.279
 3778POPC   NC348455  27.962  13.361   5.356
 3778POPC   PO448456  27.360  13.655   5.214
 3778POPC   GL148457  27.522  13.502   5.639
 3778POPC   GL248458  27.792  13.708   5.709
 3778POPC   C1A48459  27.501  13.534   6.145
 3778POPC   D2A48460  27.467  13.739   6.585
 3778POPC   C3A48461  27.513  13.522   7.018
 3778POPC   C4A48462  27.331  13.499   7.454
 3778POPC   C1B48463  27.898  13.875   6.116
 3778POPC   C2B48464  28.002  13.942   6.524
 3778POPC   C3B48465  27.834  13.918   6.908
 3778POPC   C4B48466  27.942  13.685   7.219
 3779POPC   NC348467  43.315  31.855   5.561
 3779POPC   PO448468  42.879  31.631   5.143
 3779POPC   GL148469  42.996  31.358   5.542
 3779POPC   GL248470  42.880  31.586   5.748
 3779POPC   C1A48471  43.219  31.233   5.987
 3779POPC   D2A48472  43.381  31.394   6.427
 3779POPC   C3A48473  43.261  31.274   6.867
 3779POPC   C4A48474  43.479  31.104   7.236
 3779POPC   C1B48475  42.973  31.615   6.202
 3779POPC   C2B48476  42.859  31.526   6.652
 3779POPC   C3B48477  42.940  31.687   7.048
 3779POPC   C4B48478  42.956  31.591   7.451
 3780POPC   NC348479  22.961  19.009   5.256
 3780POPC   PO448480  23.284  18.493   5.509
 3780POPC   GL148481  23.369  18.821   5.839
 3780POPC   GL248482  23.065  19.057   5.863
 3780POPC   C1A48483  23.297  18.943   6.301
 3780POPC   D2A48484  23.077  18.823   6.678
 3780POPC   C3A48485  23.078  18.997   7.100
 3780POPC   C4A48486  23.064  19.217   7.504
 3780POPC   C1B48487  22.807  19.112   6.311
 3780POPC   C2B48488  22.670  19.114   6.790
 3780POPC   C3B48489  22.706  19.360   7.165
 3780POPC   C4B48490  22.790  19.646   7.522
 3781POPC   NC348491  24.645   9.234   5.474
 3781POPC   PO448492  24.198   8.851   5.405
 3781POPC   GL148493  24.281   8.745   5.830
 3781POPC   GL248494  24.604   8.856   5.843
 3781POPC   C1A48495  24.310   8.793   6.291
 3781POPC   D2A48496  24.193   8.970   6.665
 3781POPC   C3A48497  24.278   8.759   7.045
 3781POPC   C4A48498  24.205   9.090   7.346
 3781POPC   C1B48499  24.800   8.722   6.205
 3781POPC   C2B48500  24.699   8.873   6.607
 3781POPC   C3B48501  24.785   8.767   6.999
 3781POPC   C4B48502  24.721   9.009   7.338
 3782POPC   NC348503  24.636  43.512   5.616
 3782POPC   PO448504  24.521  44.041   5.273
 3782POPC   GL148505  24.642  43.990   5.752
 3782POPC   GL248506  24.338  43.796   5.924
 3782POPC   C1A48507  24.638  44.146   6.178
 3782POPC   D2A48508  24.373  44.058   6.521
 3782POPC   C3A48509  24.516  44.080   6.931
 3782POPC   C4A48510  24.230  43.989   7.230
 3782POPC   C1B48511  24.464  43.574   6.319
 3782POPC   C2B48512  24.449  43.584   6.784
 3782POPC   C3B48513  24.605  43.644   7.213
 3782POPC   C4B48514  24.601  43.659   7.687
 3783POPC   NC348515  21.083  41.783   5.430
 3783POPC   PO448516  21.757  41.564   5.515
 3783POPC   GL148517  21.482  41.585   5.822
 3783POPC   GL248518  21.164  41.419   5.779
 3783POPC   C1A48519  21.544  41.594   6.242
 3783POPC   D2A48520  21.341  41.480   6.583
 3783POPC   C3A48521  21.496  41.478   6.974
 3783POPC   C4A48522  21.707  41.414   7.293
 3783POPC   C1B48523  21.014  41.559   6.180
 3783POPC   C2B48524  20.866  41.629   6.604
 3783POPC   C3B48525  21.006  41.347   6.940
 3783POPC   C4B48526  21.054  41.584   7.256
 3784POPC   NC348527   8.051  33.330   5.354
 3784POPC   PO448528   8.449  32.747   5.440
 3784POPC   GL148529   8.390  33.088   5.709
 3784POPC   GL248530   8.052  32.993   5.731
 3784POPC   C1A48531   8.382  33.177   6.150
 3784POPC   D2A48532   8.224  33.350   6.520
 3784POPC   C3A48533   8.402  33.213   6.891
 3784POPC   C4A48534   8.191  33.109   7.242
 3784POPC   C1B48535   7.965  32.835   6.099
 3784POPC   C2B48536   7.811  33.061   6.441
 3784POPC   C3B48537   7.897  32.993   6.838
 3784POPC   C4B48538   7.831  32.687   7.154
 3785POPC   NC348539   9.416  20.256   5.346
 3785POPC   PO448540   9.947  20.731   5.275
 3785POPC   GL148541   9.686  20.648   5.668
 3785POPC   GL248542   9.693  20.300   5.786
 3785POPC   C1A48543   9.809  20.769   6.118
 3785POPC   D2A48544   9.964  20.660   6.551
 3785POPC   C3A48545   9.612  20.453   6.814
 3785POPC   C4A48546   9.298  20.658   7.103
 3785POPC   C1B48547   9.803  20.259   6.239
 3785POPC   C2B48548  10.019  20.159   6.653
 3785POPC   C3B48549  10.067  20.453   7.046
 3785POPC   C4B48550  10.002  20.364   7.498
 3786POPC   NC348551  27.234  21.068   5.504
 3786POPC   PO448552  27.624  21.538   5.234
 3786POPC   GL148553  27.590  21.537   5.723
 3786POPC   GL248554  27.747  21.273   5.847
 3786POPC   C1A48555  27.701  21.579   6.240
 3786POPC   D2A48556  27.500  21.683   6.682
 3786POPC   C3A48557  27.779  21.515   7.001
 3786POPC   C4A48558  28.072  21.216   6.834
 3786POPC   C1B48559  27.388  21.193   6.138
 3786POPC   C2B48560  27.354  20.949   6.505
 3786POPC   C3B48561  27.256  20.977   6.906
 3786POPC   C4B48562  27.299  21.364   7.085
 3787POPC   NC348563  44.916   6.995   5.478
 3787POPC   PO448564   0.034   7.676   5.481
 3787POPC   GL148565  44.748   7.532   5.776
 3787POPC   GL248566  44.503   7.269   5.669
 3787POPC   C1A48567  44.631   7.693   6.207
 3787POPC   D2A48568  44.763   7.481   6.588
 3787POPC   C3A48569  44.655   7.626   6.952
 3787POPC   C4A48570  44.650   7.380   7.296
 3787POPC   C1B48571  44.560   7.210   6.101
 3787POPC   C2B48572  44.326   7.311   6.464
 3787POPC   C3B48573  44.248   7.334   6.903
 3787POPC   C4B48574  44.235   7.043   7.239
 3788POPC   NC348575  39.361  20.461   5.349
 3788POPC   PO448576  38.852  20.919   5.469
 3788POPC   GL148577  39.128  20.705   5.780
 3788POPC   GL248578  39.092  20.353   5.803
 3788POPC   C1A48579  39.102  20.641   6.238
 3788POPC   D2A48580  38.909  20.734   6.650
 3788POPC   C3A48581  39.144  20.849   7.007
 3788POPC   C4A48582  39.021  20.580   7.307
 3788POPC   C1B48583  39.445  20.274   6.069
 3788POPC   C2B48584  39.481  20.408   6.511
 3788POPC   C3B48585  39.309  20.327   6.930
 3788POPC   C4B48586  39.479  20.110   7.307
 3789POPC   NC348587   1.887  43.503   5.177
 3789POPC   PO448588   2.335  43.172   5.385
 3789POPC   GL148589   2.095  43.273   5.711
 3789POPC   GL248590   1.873  43.010   5.582
 3789POPC   C1A48591   2.229  43.306   6.151
 3789POPC   D2A48592   2.458  43.045   6.475
 3789POPC   C3A48593   2.302  42.987   6.896
 3789POPC   C4A48594   2.431  43.181   7.268
 3789POPC   C1B48595   1.962  42.835   6.000
 3789POPC   C2B48596   1.975  42.790   6.464
 3789POPC   C3B48597   1.844  42.753   6.907
 3789POPC   C4B48598   1.973  42.889   7.321
 3790POPC   NC348599  13.407  33.600   5.216
 3790POPC   PO448600  13.921  34.071   5.125
 3790POPC   GL148601  13.844  33.750   5.551
 3790POPC   GL248602  13.530  33.519   5.697
 3790POPC   C1A48603  13.795  33.754   6.051
 3790POPC   D2A48604  13.534  33.895   6.428
 3790POPC   C3A48605  13.657  33.702   6.821
 3790POPC   C4A48606  13.689  33.828   7.202
 3790POPC   C1B48607  13.299  33.561   6.091
 3790POPC   C2B48608  13.259  33.466   6.538
 3790POPC   C3B48609  13.207  33.298   6.964
 3790POPC   C4B48610  13.386  33.415   7.374
 3791POPC   NC348611   6.940  15.273   5.537
 3791POPC   PO448612   6.303  15.090   5.384
 3791POPC   GL148613   6.427  14.887   5.771
 3791POPC   GL248614   6.806  14.807   5.800
 3791POPC   C1A48615   6.548  14.958   6.208
 3791POPC   D2A48616   6.364  14.946   6.579
 3791POPC   C3A48617   6.595  15.059   6.905
 3791POPC   C4A48618   6.436  15.085   7.322
 3791POPC   C1B48619   7.042  15.036   6.177
 3791POPC   C2B48620   7.049  14.942   6.601
 3791POPC   C3B48621   7.197  15.105   6.979
 3791POPC   C4B48622   6.889  15.326   7.236
 3792POPC   NC348623  21.868   4.987   5.518
 3792POPC   PO448624  21.240   5.263   5.377
 3792POPC   GL148625  21.137   5.161   5.825
 3792POPC   GL248626  21.471   5.270   5.862
 3792POPC   C1A48627  21.230   5.025   6.282
 3792POPC   D2A48628  21.399   4.763   6.648
 3792POPC   C3A48629  21.270   4.847   7.083
 3792POPC   C4A48630  21.299   4.898   7.547
 3792POPC   C1B48631  21.582   5.422   6.248
 3792POPC   C2B48632  21.681   5.340   6.652
 3792POPC   C3B48633  21.473   5.414   7.008
 3792POPC   C4B48634  21.505   5.643   7.375
 3793POPC   NC348635   3.859  26.309   5.410
 3793POPC   PO448636   3.297  25.927   5.572
 3793POPC   GL148637   3.394  26.109   5.957
 3793POPC   GL248638   3.707  26.267   5.900
 3793POPC   C1A48639   3.662  25.939   6.278
 3793POPC   D2A48640   3.874  25.945   6.639
 3793POPC   C3A48641   3.620  25.890   6.989
 3793POPC   C4A48642   3.820  25.634   7.259
 3793POPC   C1B48643   3.586  26.455   6.319
 3793POPC   C2B48644   3.593  26.380   6.783
 3793POPC   C3B48645   3.393  26.354   7.210
 3793POPC   C4B48646   3.309  26.389   7.700
 3794POPC   NC348647  32.221  44.230   5.409
 3794POPC   PO448648  32.556  43.605   5.413
 3794POPC   GL148649  32.406  43.884   5.781
 3794POPC   GL248650  32.031  43.946   5.824
 3794POPC   C1A48651  32.333  43.869   6.240
 3794POPC   D2A48652  32.101  43.789   6.625
 3794POPC   C3A48653  32.344  43.942   6.940
 3794POPC   C4A48654  32.332  44.318   7.152
 3794POPC   C1B48655  31.819  44.018   6.249
 3794POPC   C2B48656  31.677  44.157   6.683
 3794POPC   C3B48657  31.852  44.071   7.086
 3794POPC   C4B48658  32.028  43.664   7.231
 3795POPC   NC348659   1.866  39.774   5.291
 3795POPC   PO448660   1.354  40.267   5.456
 3795POPC   GL148661   1.217  40.015   5.815
 3795POPC   GL248662   0.942  39.772   5.745
 3795POPC   C1A48663   1.244  40.170   6.233
 3795POPC   D2A48664   1.026  40.191   6.631
 3795POPC   C3A48665   1.229  40.201   7.039
 3795POPC   C4A48666   1.536  40.527   7.194
 3795POPC   C1B48667   0.802  39.923   6.141
 3795POPC   C2B48668   0.719  39.789   6.541
 3795POPC   C3B48669   0.698  39.950   6.953
 3795POPC   C4B48670   0.699  40.261   7.289
 3796POPC   NC348671   2.150  29.203   5.383
 3796POPC   PO448672   1.583  29.162   5.711
 3796POPC   GL148673   1.858  29.097   6.012
 3796POPC   GL248674   2.173  29.275   5.898
 3796POPC   C1A48675   1.776  28.940   6.428
 3796POPC   D2A48676   2.027  28.854   6.769
 3796POPC   C3A48677   1.828  29.107   7.067
 3796POPC   C4A48678   1.801  29.114   7.501
 3796POPC   C1B48679   2.243  29.184   6.333
 3796POPC   C2B48680   2.012  29.385   6.654
 3796POPC   C3B48681   2.153  29.494   7.045
 3796POPC   C4B48682   2.292  29.218   7.388
 3797POPC   NC348683  41.944   5.365   5.535
 3797POPC   PO448684  41.365   5.003   5.349
 3797POPC   GL148685  41.492   5.128   5.818
 3797POPC   GL248686  41.810   5.306   6.016
 3797POPC   C1A48687  41.458   4.979   6.262
 3797POPC   D2A48688  41.715   4.942   6.647
 3797POPC   C3A48689  41.506   4.978   7.008
 3797POPC   C4A48690  41.161   4.770   7.150
 3797POPC   C1B48691  41.509   5.486   6.253
 3797POPC   C2B48692  41.382   5.365   6.651
 3797POPC   C3B48693  41.196   5.390   7.059
 3797POPC   C4B48694  41.296   5.633   7.412
 3798POPC   NC348695   0.249  20.900   5.519
 3798POPC   PO448696   0.729  20.403   5.395
 3798POPC   GL148697   0.575  20.483   5.820
 3798POPC   GL248698   0.227  20.396   5.807
 3798POPC   C1A48699   0.591  20.499   6.299
 3798POPC   D2A48700   0.840  20.681   6.645
 3798POPC   C3A48701   0.782  20.555   7.080
 3798POPC   C4A48702   0.810  20.365   7.471
 3798POPC   C1B48703   0.144  20.688   6.153
 3798POPC   C2B48704   0.276  20.931   6.492
 3798POPC   C3B48705   0.142  20.764   6.871
 3798POPC   C4B48706   0.299  20.588   7.236
 3799POPC   NC348707  27.889  27.039   5.639
 3799POPC   PO448708  28.451  26.902   5.249
 3799POPC   GL148709  28.447  26.978   5.754
 3799POPC   GL248710  28.739  27.091   5.954
 3799POPC   C1A48711  28.429  26.718   6.193
 3799POPC   D2A48712  28.489  26.851   6.597
 3799POPC   C3A48713  28.426  26.625   6.963
 3799POPC   C4A48714  28.430  26.777   7.357
 3799POPC   C1B48715  28.344  27.211   6.235
 3799POPC   C2B48716  28.102  27.239   6.626
 3799POPC   C3B48717  28.079  27.006   7.028
 3799POPC   C4B48718  28.210  27.245   7.400
 3800POPC   NC348719   6.972  18.685   5.427
 3800POPC   PO448720   6.651  19.291   5.167
 3800POPC   GL148721   6.644  19.005   5.636
 3800POPC   GL248722   6.364  19.141   5.798
 3800POPC   C1A48723   6.839  18.923   6.079
 3800POPC   D2A48724   6.736  18.833   6.522
 3800POPC   C3A48725   6.895  19.016   6.914
 3800POPC   C4A48726   6.687  19.327   7.181
 3800POPC   C1B48727   6.452  19.279   6.232
 3800POPC   C2B48728   6.533  19.312   6.667
 3800POPC   C3B48729   6.228  19.303   6.992
 3800POPC   C4B48730   5.968  19.376   7.334
 3801POPC   NC348731   6.986   9.769   5.402
 3801POPC   PO448732   7.628   9.541   5.473
 3801POPC   GL148733   7.480   9.807   5.782
 3801POPC   GL248734   7.154   9.699   5.871
 3801POPC   C1A48735   7.507   9.954   6.228
 3801POPC   D2A48736   7.786   9.839   6.601
 3801POPC   C3A48737   7.655   9.959   7.014
 3801POPC   C4A48738   7.272   9.824   7.187
 3801POPC   C1B48739   7.092   9.560   6.293
 3801POPC   C2B48740   7.274   9.709   6.672
 3801POPC   C3B48741   7.531   9.460   6.945
 3801POPC   C4B48742   7.399   9.350   7.395
 3802POPC   NC348743   3.828  28.715   5.068
 3802POPC   PO448744   3.427  28.289   5.358
 3802POPC   GL148745   3.605  28.143   5.772
 3802POPC   GL248746   3.916  27.924   5.743
 3802POPC   C1A48747   3.370  28.184   6.189
 3802POPC   D2A48748   3.155  28.315   6.583
 3802POPC   C3A48749   3.366  28.189   6.935
 3802POPC   C4A48750   3.470  28.525   7.210
 3802POPC   C1B48751   3.906  28.068   6.197
 3802POPC   C2B48752   3.764  28.302   6.551
 3802POPC   C3B48753   3.889  28.352   6.953
 3802POPC   C4B48754   3.830  28.194   7.331
 3803POPC   NC348755  31.401  40.950   5.402
 3803POPC   PO448756  31.336  40.270   5.433
 3803POPC   GL148757  31.570  40.525   5.766
 3803POPC   GL248758  31.312  40.740   5.857
 3803POPC   C1A48759  31.774  40.807   6.092
 3803POPC   D2A48760  31.740  40.983   6.537
 3803POPC   C3A48761  31.715  40.724   6.923
 3803POPC   C4A48762  31.736  40.693   7.378
 3803POPC   C1B48763  31.320  40.672   6.292
 3803POPC   C2B48764  31.259  40.873   6.688
 3803POPC   C3B48765  31.228  40.677   7.076
 3803POPC   C4B48766  31.244  40.705   7.513
 3804POPC   NC348767  38.892  16.618   5.493
 3804POPC   PO448768  39.478  16.936   5.459
 3804POPC   GL148769  39.366  16.975   5.859
 3804POPC   GL248770  39.115  16.715   5.940
 3804POPC   C1A48771  39.511  17.081   6.266
 3804POPC   D2A48772  39.564  16.812   6.613
 3804POPC   C3A48773  39.527  16.936   7.056
 3804POPC   C4A48774  39.398  16.631   7.373
 3804POPC   C1B48775  39.031  16.910   6.339
 3804POPC   C2B48776  39.085  16.863   6.768
 3804POPC   C3B48777  39.228  16.483   6.925
 3804POPC   C4B48778  39.005  16.295   7.256
 3805POPC   NC348779  44.500   5.007   5.587
 3805POPC   PO448780   0.065   5.151   5.487
 3805POPC   GL148781  44.841   5.216   5.897
 3805POPC   GL248782  44.452   5.273   6.003
 3805POPC   C1A48783  44.761   5.046   6.303
 3805POPC   D2A48784  44.440   5.141   6.575
 3805POPC   C3A48785  44.611   5.149   6.979
 3805POPC   C4A48786  44.416   4.953   7.350
 3805POPC   C1B48787  44.123   5.486   6.225
 3805POPC   C2B48788  43.943   5.487   6.623
 3805POPC   C3B48789  44.112   5.264   6.975
 3805POPC   C4B48790  44.397   5.515   7.256
 3806POPC   NC348791   1.024   2.257   5.414
 3806POPC   PO448792   1.400   2.918   5.477
 3806POPC   GL148793   1.318   2.587   5.743
 3806POPC   GL248794   1.248   2.852   6.010
 3806POPC   C1A48795   1.508   2.430   6.115
 3806POPC   D2A48796   1.518   2.760   6.430
 3806POPC   C3A48797   1.177   2.713   6.702
 3806POPC   C4A48798   1.080   2.708   7.112
 3806POPC   C1B48799   1.075   3.118   6.366
 3806POPC   C2B48800   0.774   3.050   6.739
 3806POPC   C3B48801   0.749   3.098   7.209
 3806POPC   C4B48802   0.904   3.381   7.512
 3807POPC   NC348803  11.188  25.418   5.351
 3807POPC   PO448804  11.754  25.096   5.554
 3807POPC   GL148805  11.447  25.141   5.857
 3807POPC   GL248806  11.104  25.233   5.808
 3807POPC   C1A48807  11.389  25.237   6.287
 3807POPC   D2A48808  11.397  24.994   6.652
 3807POPC   C3A48809  11.430  25.185   7.040
 3807POPC   C4A48810  11.589  25.340   7.409
 3807POPC   C1B48811  10.887  25.214   6.167
 3807POPC   C2B48812  10.948  25.207   6.610
 3807POPC   C3B48813  10.982  25.422   6.971
 3807POPC   C4B48814  10.910  25.797   7.167
 3808POPC   NC348815  38.439   9.325   5.422
 3808POPC   PO448816  38.776   8.818   5.635
 3808POPC   GL148817  38.335   8.980   5.789
 3808POPC   GL248818  38.121   8.721   5.952
 3808POPC   C1A48819  38.331   9.263   6.162
 3808POPC   D2A48820  38.466   9.084   6.579
 3808POPC   C3A48821  38.436   9.159   7.012
 3808POPC   C4A48822  38.736   9.353   7.329
 3808POPC   C1B48823  38.011   8.925   6.374
 3808POPC   C2B48824  38.005   8.922   6.816
 3808POPC   C3B48825  38.252   8.674   7.101
 3808POPC   C4B48826  38.542   8.795   7.421
 3809POPC   NC348827  25.651  34.970   5.528
 3809POPC   PO448828  26.273  35.298   5.409
 3809POPC   GL148829  26.042  35.362   5.783
 3809POPC   GL248830  26.076  35.007   5.806
 3809POPC   C1A48831  26.059  35.589   6.216
 3809POPC   D2A48832  25.785  35.648   6.596
 3809POPC   C3A48833  26.012  35.691   7.005
 3809POPC   C4A48834  25.818  35.511   7.404
 3809POPC   C1B48835  25.916  35.088   6.212
 3809POPC   C2B48836  26.044  35.217   6.607
 3809POPC   C3B48837  25.890  35.197   6.992
 3809POPC   C4B48838  26.211  35.228   7.283
 3810POPC   NC348839  43.474  36.137   5.461
 3810POPC   PO448840  43.052  36.547   5.513
 3810POPC   GL148841  42.952  36.294   5.872
 3810POPC   GL248842  43.236  36.069   5.930
 3810POPC   C1A48843  43.067  36.382   6.292
 3810POPC   D2A48844  43.361  36.205   6.560
 3810POPC   C3A48845  43.195  36.096   6.944
 3810POPC   C4A48846  43.363  36.322   7.266
 3810POPC   C1B48847  43.467  35.804   6.239
 3810POPC   C2B48848  43.499  35.712   6.700
 3810POPC   C3B48849  43.346  35.653   7.146
 3810POPC   C4B48850  42.924  35.778   7.306
 3811POPC   NC348851  40.625  33.837   5.345
 3811POPC   PO448852  40.328  33.236   5.491
 3811POPC   GL148853  40.530  33.572   5.769
 3811POPC   GL248854  40.881  33.706   5.807
 3811POPC   C1A48855  40.562  33.808   6.177
 3811POPC   D2A48856  40.869  33.701   6.506
 3811POPC   C3A48857  40.704  33.727   6.874
 3811POPC   C4A48858  40.490  33.946   7.142
 3811POPC   C1B48859  41.203  33.713   6.136
 3811POPC   C2B48860  41.312  33.443   6.533
 3811POPC   C3B48861  41.150  33.484   6.984
 3811POPC   C4B48862  41.015  33.850   7.260
 3812POPC   NC348863  42.292  24.943   5.347
 3812POPC   PO448864  41.841  24.397   5.423
 3812POPC   GL148865  42.107  24.377   5.773
 3812POPC   GL248866  42.378  24.637   5.778
 3812POPC   C1A48867  42.122  24.467   6.200
 3812POPC   D2A48868  42.338  24.587   6.535
 3812POPC   C3A48869  42.208  24.423   6.899
 3812POPC   C4A48870  42.467  24.286   7.240
 3812POPC   C1B48871  42.691  24.703   6.131
 3812POPC   C2B48872  42.850  24.734   6.572
 3812POPC   C3B48873  42.931  24.736   7.008
 3812POPC   C4B48874  42.702  24.730   7.394
 3813POPC   NC348875   2.596  40.457   5.278
 3813POPC   PO448876   2.825  41.104   5.399
 3813POPC   GL148877   2.746  40.889   5.791
 3813POPC   GL248878   2.974  41.055   5.997
 3813POPC   C1A48879   2.606  40.785   6.231
 3813POPC   D2A48880   2.376  40.984   6.596
 3813POPC   C3A48881   2.487  40.900   7.011
 3813POPC   C4A48882   2.743  40.604   7.226
 3813POPC   C1B48883   3.324  41.065   6.301
 3813POPC   C2B48884   3.203  41.041   6.687
 3813POPC   C3B48885   2.981  41.039   7.070
 3813POPC   C4B48886   3.155  40.907   7.443
 3814POPC   NC348887  28.586  39.820   5.317
 3814POPC   PO448888  28.105  40.274   5.413
 3814POPC   GL148889  28.301  40.011   5.754
 3814POPC   GL248890  28.141  39.670   5.763
 3814POPC   C1A48891  28.369  39.864   6.194
 3814POPC   D2A48892  28.573  39.794   6.603
 3814POPC   C3A48893  28.355  40.024   6.898
 3814POPC   C4A48894  28.284  40.086   7.314
 3814POPC   C1B48895  27.880  39.704   6.161
 3814POPC   C2B48896  28.040  39.697   6.599
 3814POPC   C3B48897  27.930  39.799   7.052
 3814POPC   C4B48898  28.023  39.679   7.502
 3815POPC   NC348899   5.802  34.187   5.451
 3815POPC   PO448900   5.723  34.850   5.451
 3815POPC   GL148901   5.782  34.587   5.800
 3815POPC   GL248902   5.528  34.339   5.850
 3815POPC   C1A48903   5.953  34.609   6.207
 3815POPC   D2A48904   5.798  34.752   6.571
 3815POPC   C3A48905   5.914  34.568   6.934
 3815POPC   C4A48906   6.076  34.766   7.292
 3815POPC   C1B48907   5.781  34.135   6.134
 3815POPC   C2B48908   5.696  34.249   6.529
 3815POPC   C3B48909   5.476  34.292   6.874
 3815POPC   C4B48910   5.636  34.285   7.258
 3816POPC   NC348911  28.868  17.567   5.132
 3816POPC   PO448912  29.430  17.283   5.447
 3816POPC   GL148913  29.361  17.519   5.796
 3816POPC   GL248914  29.313  17.247   5.980
 3816POPC   C1A48915  29.349  17.666   6.258
 3816POPC   D2A48916  29.034  17.553   6.598
 3816POPC   C3A48917  29.041  17.741   6.999
 3816POPC   C4A48918  29.438  17.790   7.171
 3816POPC   C1B48919  29.436  17.190   6.418
 3816POPC   C2B48920  29.483  17.410   6.797
 3816POPC   C3B48921  29.233  17.285   7.136
 3816POPC   C4B48922  28.787  17.319   7.167
 3817POPC   NC348923  37.792  17.849   5.423
 3817POPC   PO448924  37.536  17.187   5.521
 3817POPC   GL148925  37.778  17.411   5.859
 3817POPC   GL248926  37.957  17.740   5.885
 3817POPC   C1A48927  37.719  17.490   6.327
 3817POPC   D2A48928  37.587  17.726   6.741
 3817POPC   C3A48929  37.558  17.415   7.121
 3817POPC   C4A48930  37.909  17.131   7.234
 3817POPC   C1B48931  37.886  17.971   6.300
 3817POPC   C2B48932  38.115  17.864   6.668
 3817POPC   C3B48933  38.002  17.673   7.045
 3817POPC   C4B48934  37.978  17.628   7.482
 3818POPC   NC348935  32.534  24.527   5.407
 3818POPC   PO448936  33.152  24.159   5.390
 3818POPC   GL148937  33.113  24.312   5.815
 3818POPC   GL248938  32.765  24.405   5.849
 3818POPC   C1A48939  33.061  24.176   6.236
 3818POPC   D2A48940  32.758  24.208   6.587
 3818POPC   C3A48941  32.931  24.247   6.992
 3818POPC   C4A48942  33.228  24.479   7.167
 3818POPC   C1B48943  32.900  24.663   6.198
 3818POPC   C2B48944  33.022  24.654   6.631
 3818POPC   C3B48945  32.819  24.784   6.965
 3818POPC   C4B48946  32.742  25.180   7.111
 3819POPC   NC348947  40.613   2.427   5.520
 3819POPC   PO448948  40.823   3.030   5.423
 3819POPC   GL148949  40.551   3.054   5.798
 3819POPC   GL248950  40.771   2.784   5.893
 3819POPC   C1A48951  40.567   3.025   6.273
 3819POPC   D2A48952  40.792   2.723   6.525
 3819POPC   C3A48953  40.652   2.776   6.941
 3819POPC   C4A48954  40.477   2.701   7.350
 3819POPC   C1B48955  41.149   2.671   6.143
 3819POPC   C2B48956  41.254   2.517   6.567
 3819POPC   C3B48957  41.168   2.809   6.921
 3819POPC   C4B48958  40.995   2.758   7.348
 3820POPC   NC348959  40.252  11.499   5.115
 3820POPC   PO448960  39.924  11.057   5.516
 3820POPC   GL148961  39.933  11.288   5.879
 3820POPC   GL248962  40.237  11.460   5.934
 3820POPC   C1A48963  39.746  11.443   6.238
 3820POPC   D2A48964  39.956  11.368   6.596
 3820POPC   C3A48965  39.833  11.588   6.972
 3820POPC   C4A48966  39.735  11.289   7.302
 3820POPC   C1B48967  40.277  11.062   6.188
 3820POPC   C2B48968  40.416  11.087   6.605
 3820POPC   C3B48969  40.363  11.490   6.866
 3820POPC   C4B48970  40.219  11.455   7.281
 3821POPC   NC348971  12.689  29.529   5.480
 3821POPC   PO448972  12.976  30.088   5.251
 3821POPC   GL148973  12.885  29.962   5.688
 3821POPC   GL248974  13.037  30.220   5.842
 3821POPC   C1A48975  12.911  29.789   6.117
 3821POPC   D2A48976  12.922  29.940   6.557
 3821POPC   C3A48977  12.677  29.785   6.886
 3821POPC   C4A48978  12.893  29.722   7.252
 3821POPC   C1B48979  12.736  30.287   6.162
 3821POPC   C2B48980  12.552  30.303   6.566
 3821POPC   C3B48981  12.708  30.291   6.961
 3821POPC   C4B48982  12.581  30.136   7.328
 3822POPC   NC348983  42.854  26.752   5.433
 3822POPC   PO448984  42.205  27.054   5.252
 3822POPC   GL148985  42.161  26.850   5.643
 3822POPC   GL248986  42.487  26.774   5.795
 3822POPC   C1A48987  42.051  26.948   6.068
 3822POPC   D2A48988  42.246  26.871   6.461
 3822POPC   C3A48989  42.280  27.051   6.841
 3822POPC   C4A48990  42.538  26.854   7.168
 3822POPC   C1B48991  42.381  26.503   6.151
 3822POPC   C2B48992  42.253  26.346   6.582
 3822POPC   C3B48993  42.151  26.427   7.055
 3822POPC   C4B48994  42.281  26.510   7.509
 3823POPC   NC348995  30.829  26.991   5.605
 3823POPC   PO448996  30.209  26.618   5.468
 3823POPC   GL148997  30.402  26.764   5.822
 3823POPC   GL248998  30.163  26.977   5.904
 3823POPC   C1A48999  30.669  26.650   6.188
 3823POPC   D2A49000  30.949  26.574   6.538
 3823POPC   C3A49001  30.722  26.646   6.882
 3823POPC   C4A49002  30.679  26.843   7.245
 3823POPC   C1B49003  30.416  27.104   6.235
 3823POPC   C2B49004  30.560  27.055   6.633
 3823POPC   C3B49005  30.487  27.267   7.017
 3823POPC   C4B49006  30.293  27.147   7.414
 3824POPC   NC349007  39.632  12.143   5.564
 3824POPC   PO449008  40.254  11.913   5.335
 3824POPC   GL149009  40.118  12.041   5.794
 3824POPC   GL249010  39.840  11.816   5.901
 3824POPC   C1A49011  39.953  12.242   6.217
 3824POPC   D2A49012  39.795  12.084   6.644
 3824POPC   C3A49013  39.878  12.328   6.999
 3824POPC   C4A49014  39.941  12.050   7.313
 3824POPC   C1B49015  39.542  11.928   6.242
 3824POPC   C2B49016  39.307  11.866   6.630
 3824POPC   C3B49017  39.451  11.958   7.042
 3824POPC   C4B49018  39.541  11.759   7.393
 3825POPC   NC349019  18.451  43.520   5.417
 3825POPC   PO449020  18.121  42.813   5.389
 3825POPC   GL149021  18.348  42.886   5.759
 3825POPC   GL249022  18.083  43.052   5.895
 3825POPC   C1A49023  18.514  43.097   6.140
 3825POPC   D2A49024  18.283  43.131   6.527
 3825POPC   C3A49025  18.411  43.354   6.879
 3825POPC   C4A49026  18.562  43.044   7.136
 3825POPC   C1B49027  18.055  42.816   6.199
 3825POPC   C2B49028  17.874  42.823   6.597
 3825POPC   C3B49029  18.087  42.917   6.977
 3825POPC   C4B49030  17.943  43.013   7.406
 3826POPC   NC349031  38.165   0.637   5.277
 3826POPC   PO449032  38.677   0.920   5.612
 3826POPC   GL149033  38.562   0.454   5.708
 3826POPC   GL249034  38.198   0.307   5.701
 3826POPC   C1A49035  38.560   0.206   6.116
 3826POPC   D2A49036  38.707   0.058   6.559
 3826POPC   C3A49037  38.522   0.312   6.900
 3826POPC   C4A49038  38.615   0.646   7.200
 3826POPC   C1B49039  38.166   0.671   5.998
 3826POPC   C2B49040  38.203   0.733   6.468
 3826POPC   C3B49041  38.209   0.762   6.931
 3826POPC   C4B49042  38.122   0.767   7.402
 3827POPC   NC349043  25.466  18.926   5.426
 3827POPC   PO449044  24.758  19.093   5.415
 3827POPC   GL149045  24.905  19.165   5.834
 3827POPC   GL249046  25.288  19.212   5.841
 3827POPC   C1A49047  25.032  19.149   6.276
 3827POPC   D2A49048  25.264  18.961   6.626
 3827POPC   C3A49049  24.990  19.035   6.961
 3827POPC   C4A49050  24.979  19.347   7.239
 3827POPC   C1B49051  25.552  19.239   6.251
 3827POPC   C2B49052  25.703  19.233   6.700
 3827POPC   C3B49053  25.463  19.244   7.059
 3827POPC   C4B49054  25.434  18.828   7.150
 3828POPC   NC349055  16.693  40.498   5.437
 3828POPC   PO449056  17.082  41.044   5.548
 3828POPC   GL149057  16.862  40.817   5.833
 3828POPC   GL249058  17.042  40.537   5.810
 3828POPC   C1A49059  16.704  40.948   6.233
 3828POPC   D2A49060  16.473  41.199   6.554
 3828POPC   C3A49061  16.459  40.995   6.952
 3828POPC   C4A49062  16.730  40.838   7.250
 3828POPC   C1B49063  16.894  40.439   6.201
 3828POPC   C2B49064  16.720  40.561   6.579
 3828POPC   C3B49065  16.990  40.573   6.905
 3828POPC   C4B49066  17.246  40.441   7.207
 3829POPC   NC349067   6.859   5.377   5.420
 3829POPC   PO449068   7.492   4.994   5.518
 3829POPC   GL149069   7.337   4.941   5.897
 3829POPC   GL249070   7.024   4.987   5.787
 3829POPC   C1A49071   7.327   4.909   6.322
 3829POPC   D2A49072   7.551   5.143   6.623
 3829POPC   C3A49073   7.720   4.868   6.879
 3829POPC   C4A49074   7.466   4.924   7.218
 3829POPC   C1B49075   6.935   5.239   6.166
 3829POPC   C2B49076   7.058   5.383   6.598
 3829POPC   C3B49077   7.061   5.228   7.032
 3829POPC   C4B49078   7.107   5.194   7.487
 3830POPC   NC349079  31.248  16.811   5.338
 3830POPC   PO449080  31.830  16.617   5.312
 3830POPC   GL149081  31.687  16.654   5.711
 3830POPC   GL249082  31.562  16.985   5.716
 3830POPC   C1A49083  31.420  16.622   6.075
 3830POPC   D2A49084  31.264  16.561   6.492
 3830POPC   C3A49085  31.624  16.503   6.745
 3830POPC   C4A49086  31.712  16.542   7.167
 3830POPC   C1B49087  31.402  17.117   6.131
 3830POPC   C2B49088  31.486  17.013   6.558
 3830POPC   C3B49089  31.310  16.874   6.947
 3830POPC   C4B49090  31.096  17.077   7.288
 3831POPC   NC349091   8.107   3.924   5.392
 3831POPC   PO449092   8.513   4.518   5.432
 3831POPC   GL149093   8.433   4.406   5.851
 3831POPC   GL249094   8.398   4.047   5.828
 3831POPC   C1A49095   8.149   4.658   6.135
 3831POPC   D2A49096   7.881   4.572   6.501
 3831POPC   C3A49097   8.136   4.506   6.885
 3831POPC   C4A49098   8.311   4.671   7.274
 3831POPC   C1B49099   8.552   3.910   6.230
 3831POPC   C2B49100   8.496   4.050   6.653
 3831POPC   C3B49101   8.515   4.169   7.079
 3831POPC   C4B49102   8.194   4.142   7.323
 3832POPC   NC349103  41.293  34.172   5.294
 3832POPC   PO449104  41.767  34.644   5.500
 3832POPC   GL149105  41.413  34.429   5.744
 3832POPC   GL249106  41.190  34.136   5.816
 3832POPC   C1A49107  41.177  34.634   6.047
 3832POPC   D2A49108  41.373  34.762   6.396
 3832POPC   C3A49109  41.297  34.586   6.782
 3832POPC   C4A49110  41.541  34.701   7.128
 3832POPC   C1B49111  41.290  34.223   6.301
 3832POPC   C2B49112  41.695  34.360   6.486
 3832POPC   C3B49113  41.752  34.304   6.914
 3832POPC   C4B49114  41.341  34.238   7.175
 3833POPC   NC349115  12.426  16.508   5.404
 3833POPC   PO449116  11.851  16.856   5.353
 3833POPC   GL149117  11.842  16.854   5.814
 3833POPC   GL249118  12.146  17.026   5.820
 3833POPC   C1A49119  11.996  16.756   6.234
 3833POPC   D2A49120  12.058  16.873   6.648
 3833POPC   C3A49121  11.964  16.536   6.942
 3833POPC   C4A49122  11.754  16.633   7.311
 3833POPC   C1B49123  12.409  17.100   6.191
 3833POPC   C2B49124  12.595  16.937   6.586
 3833POPC   C3B49125  12.427  16.833   7.005
 3833POPC   C4B49126  12.404  17.015   7.436
 3834POPC   NC349127  16.997  32.223   5.198
 3834POPC   PO449128  17.571  32.303   5.456
 3834POPC   GL149129  17.504  32.282   5.887
 3834POPC   GL249130  17.772  31.992   5.945
 3834POPC   C1A49131  17.349  32.464   6.269
 3834POPC   D2A49132  17.241  32.298   6.625
 3834POPC   C3A49133  17.289  32.373   7.031
 3834POPC   C4A49134  17.427  31.945   7.174
 3834POPC   C1B49135  17.852  32.302   6.277
 3834POPC   C2B49136  17.747  32.446   6.687
 3834POPC   C3B49137  17.791  32.290   7.093
 3834POPC   C4B49138  17.850  32.515   7.422
 3835POPC   NC349139  14.007  17.084   5.627
 3835POPC   PO449140  13.489  16.821   5.261
 3835POPC   GL149141  13.650  16.678   5.692
 3835POPC   GL249142  13.412  16.866   5.883
 3835POPC   C1A49143  13.683  16.532   6.169
 3835POPC   D2A49144  13.542  16.345   6.594
 3835POPC   C3A49145  13.588  16.666   6.888
 3835POPC   C4A49146  13.802  16.674   7.237
 3835POPC   C1B49147  13.353  17.188   6.227
 3835POPC   C2B49148  13.541  17.205   6.648
 3835POPC   C3B49149  13.403  17.118   7.069
 3835POPC   C4B49150  13.350  16.869   7.411
 3836POPC   NC349151  29.424  14.048   5.544
 3836POPC   PO449152  29.086  13.395   5.445
 3836POPC   GL149153  29.129  13.687   5.761
 3836POPC   GL249154  28.780  13.739   5.765
 3836POPC   C1A49155  29.348  13.687   6.165
 3836POPC   D2A49156  29.211  13.868   6.593
 3836POPC   C3A49157  29.236  13.599   6.961
 3836POPC   C4A49158  29.146  13.662   7.402
 3836POPC   C1B49159  28.840  13.602   6.188
 3836POPC   C2B49160  28.675  13.336   6.529
 3836POPC   C3B49161  28.753  13.379   6.963
 3836POPC   C4B49162  28.700  13.749   7.186
 3837POPC   NC349163   3.165   1.536   5.629
 3837POPC   PO449164   3.367   0.907   5.653
 3837POPC   GL149165   3.683   1.031   5.879
 3837POPC   GL249166   3.524   1.329   5.915
 3837POPC   C1A49167   3.672   0.955   6.290
 3837POPC   D2A49168   3.483   0.872   6.656
 3837POPC   C3A49169   3.819   0.915   6.933
 3837POPC   C4A49170   3.717   1.048   7.322
 3837POPC   C1B49171   3.424   1.539   6.288
 3837POPC   C2B49172   3.360   1.660   6.720
 3837POPC   C3B49173   3.414   1.414   7.077
 3837POPC   C4B49174   3.477   1.529   7.494
 3838POPC   NC349175   4.173  15.056   5.372
 3838POPC   PO449176   4.658  15.445   5.022
 3838POPC   GL149177   4.384  15.472   5.518
 3838POPC   GL249178   4.029  15.407   5.693
 3838POPC   C1A49179   4.439  15.297   5.972
 3838POPC   D2A49180   4.471  15.319   6.447
 3838POPC   C3A49181   4.572  15.045   6.818
 3838POPC   C4A49182   4.440  15.063   7.277
 3838POPC   C1B49183   3.967  15.291   6.156
 3838POPC   C2B49184   4.063  15.051   6.552
 3838POPC   C3B49185   4.092  15.225   6.966
 3838POPC   C4B49186   3.950  14.940   7.318
 3839POPC   NC349187  24.938  15.045   5.430
 3839POPC   PO449188  24.321  15.141   5.528
 3839POPC   GL149189  24.648  15.096   5.838
 3839POPC   GL249190  24.820  14.764   5.819
 3839POPC   C1A49191  24.848  15.272   6.211
 3839POPC   D2A49192  24.791  15.152   6.643
 3839POPC   C3A49193  24.397  15.323   6.760
 3839POPC   C4A49194  24.350  15.403   7.160
 3839POPC   C1B49195  24.612  14.802   6.241
 3839POPC   C2B49196  24.400  14.796   6.612
 3839POPC   C3B49197  24.504  14.891   7.002
 3839POPC   C4B49198  24.702  14.728   7.313
 3840POPC   NC349199  12.468  13.246   5.295
 3840POPC   PO449200  12.792  13.810   5.378
 3840POPC   GL149201  12.843  13.974   5.790
 3840POPC   GL249202  13.187  14.014   5.929
 3840POPC   C1A49203  12.695  13.745   6.156
 3840POPC   D2A49204  12.770  13.381   6.437
 3840POPC   C3A49205  12.806  13.513   6.862
 3840POPC   C4A49206  12.732  13.691   7.266
 3840POPC   C1B49207  13.183  13.667   6.256
 3840POPC   C2B49208  13.293  13.675   6.709
 3840POPC   C3B49209  13.234  13.611   7.174
 3840POPC   C4B49210  13.150  13.697   7.619
 3841POPC   NC349211   0.186   8.114   5.411
 3841POPC   PO449212   0.897   7.967   5.474
 3841POPC   GL149213   0.582   8.063   5.839
 3841POPC   GL249214   0.301   8.334   5.868
 3841POPC   C1A49215   0.553   8.243   6.273
 3841POPC   D2A49216   0.472   8.000   6.620
 3841POPC   C3A49217   0.523   8.189   7.014
 3841POPC   C4A49218   0.584   7.883   7.322
 3841POPC   C1B49219   0.082   8.464   6.226
 3841POPC   C2B49220   0.221   8.451   6.644
 3841POPC   C3B49221   0.027   8.354   7.023
 3841POPC   C4B49222   0.178   8.288   7.431
 3842POPC   NC349223  23.978   7.572   5.449
 3842POPC   PO449224  24.604   7.226   5.354
 3842POPC   GL149225  24.337   7.286   5.704
 3842POPC   GL249226  24.350   7.634   5.784
 3842POPC   C1A49227  24.315   7.193   6.159
 3842POPC   D2A49228  24.447   7.081   6.617
 3842POPC   C3A49229  24.385   7.438   6.937
 3842POPC   C4A49230  24.215   7.463   7.366
 3842POPC   C1B49231  24.650   7.633   6.120
 3842POPC   C2B49232  24.729   7.513   6.549
 3842POPC   C3B49233  24.852   7.676   6.968
 3842POPC   C4B49234  24.541   7.842   7.242
 3843POPC   NC349235   9.326  15.821   5.658
 3843POPC   PO449236   9.980  15.875   5.501
 3843POPC   GL149237   9.907  15.985   5.897
 3843POPC   GL249238  10.107  16.269   5.939
 3843POPC   C1A49239   9.987  15.934   6.352
 3843POPC   D2A49240   9.692  15.784   6.658
 3843POPC   C3A49241   9.828  15.763   7.067
 3843POPC   C4A49242   9.645  15.949   7.455
 3843POPC   C1B49243   9.713  16.354   6.210
 3843POPC   C2B49244   9.650  16.296   6.656
 3843POPC   C3B49245   9.774  16.276   7.077
 3843POPC   C4B49246  10.156  16.079   7.274
 3844POPC   NC349247  19.970   4.838   5.251
 3844POPC   PO449248  19.520   5.278   5.319
 3844POPC   GL149249  19.625   5.082   5.733
 3844POPC   GL249250  19.683   4.735   5.702
 3844POPC   C1A49251  19.887   5.062   6.141
 3844POPC   D2A49252  19.995   5.284   6.534
 3844POPC   C3A49253  19.823   5.317   6.967
 3844POPC   C4A49254  19.880   5.115   7.401
 3844POPC   C1B49255  19.496   4.732   6.149
 3844POPC   C2B49256  19.568   4.960   6.560
 3844POPC   C3B49257  19.723   4.830   6.987
 3844POPC   C4B49258  19.540   4.709   7.355
 3845POPC   NC349259  28.047  26.615   5.263
 3845POPC   PO449260  27.463  26.972   5.416
 3845POPC   GL149261  27.482  26.757   5.796
 3845POPC   GL249262  27.766  26.511   5.715
 3845POPC   C1A49263  27.456  26.963   6.208
 3845POPC   D2A49264  27.587  27.106   6.621
 3845POPC   C3A49265  27.589  26.813   6.950
 3845POPC   C4A49266  27.528  26.737   7.377
 3845POPC   C1B49267  27.898  26.652   6.141
 3845POPC   C2B49268  27.984  26.746   6.549
 3845POPC   C3B49269  27.960  26.466   6.855
 3845POPC   C4B49270  27.994  26.509   7.265
 3846POPC   NC349271  22.472  41.052   5.327
 3846POPC   PO449272  22.015  40.624   5.387
 3846POPC   GL149273  22.256  40.663   5.756
 3846POPC   GL249274  22.085  40.953   5.806
 3846POPC   C1A49275  22.172  40.547   6.193
 3846POPC   D2A49276  22.015  40.701   6.580
 3846POPC   C3A49277  22.117  40.613   6.996
 3846POPC   C4A49278  22.280  40.991   7.152
 3846POPC   C1B49279  21.827  40.935   6.157
 3846POPC   C2B49280  21.690  41.123   6.515
 3846POPC   C3B49281  21.830  41.085   6.906
 3846POPC   C4B49282  21.770  40.907   7.289
 3847POPC   NC349283  17.656   0.717   5.507
 3847POPC   PO449284  17.391   0.078   5.472
 3847POPC   GL149285  17.521   0.282   5.821
 3847POPC   GL249286  17.281   0.539   5.802
 3847POPC   C1A49287  17.748   0.247   6.218
 3847POPC   D2A49288  17.862   0.232   6.659
 3847POPC   C3A49289  17.565   0.401   6.954
 3847POPC   C4A49290  17.262   0.204   7.196
 3847POPC   C1B49291  17.521   0.713   6.155
 3847POPC   C2B49292  17.688   0.759   6.571
 3847POPC   C3B49293  17.503   0.915   6.955
 3847POPC   C4B49294  17.310   0.718   7.300
 3848POPC   NC349295   7.792  35.731   5.655
 3848POPC   PO449296   7.470  36.430   5.467
 3848POPC   GL149297   7.522  36.146   5.799
 3848POPC   GL249298   7.284  35.837   5.765
 3848POPC   C1A49299   7.698  36.111   6.256
 3848POPC   D2A49300   7.677  36.353   6.671
 3848POPC   C3A49301   7.707  36.188   7.087
 3848POPC   C4A49302   7.477  36.203   7.492
 3848POPC   C1B49303   7.190  36.005   6.157
 3848POPC   C2B49304   7.308  35.948   6.578
 3848POPC   C3B49305   7.223  36.104   6.975
 3848POPC   C4B49306   6.937  36.215   7.264
 3849POPC   NC349307  23.801  20.746   5.247
 3849POPC   PO449308  23.663  20.071   5.235
 3849POPC   GL149309  23.696  20.417   5.661
 3849POPC   GL249310  23.708  20.781   5.742
 3849POPC   C1A49311  23.686  20.495   6.145
 3849POPC   D2A49312  23.570  20.699   6.565
 3849POPC   C3A49313  23.608  20.556   7.029
 3849POPC   C4A49314  23.815  20.505   7.467
 3849POPC   C1B49315  23.615  21.006   6.142
 3849POPC   C2B49316  23.581  21.234   6.540
 3849POPC   C3B49317  23.639  21.062   6.942
 3849POPC   C4B49318  23.556  20.923   7.372
 3850POPC   NC349319   0.966  36.369   5.543
 3850POPC   PO449320   1.607  36.344   5.285
 3850POPC   GL149321   1.407  36.078   5.677
 3850POPC   GL249322   1.082  36.022   5.885
 3850POPC   C1A49323   1.520  35.983   6.138
 3850POPC   D2A49324   1.239  35.956   6.546
 3850POPC   C3A49325   1.290  36.154   6.939
 3850POPC   C4A49326   1.077  36.102   7.330
 3850POPC   C1B49327   1.167  36.334   6.217
 3850POPC   C2B49328   0.939  36.447   6.593
 3850POPC   C3B49329   0.846  36.456   7.006
 3850POPC   C4B49330   1.186  36.624   7.270
 3851POPC   NC349331   9.937  22.442   5.544
 3851POPC   PO449332   9.554  22.964   5.456
 3851POPC   GL149333   9.731  22.871   5.855
 3851POPC   GL249334   9.427  22.716   5.936
 3851POPC   C1A49335   9.899  22.838   6.297
 3851POPC   D2A49336  10.179  22.871   6.677
 3851POPC   C3A49337   9.911  22.893   7.020
 3851POPC   C4A49338   9.693  23.004   7.385
 3851POPC   C1B49339   9.350  22.834   6.335
 3851POPC   C2B49340   9.453  22.977   6.737
 3851POPC   C3B49341   9.630  23.316   6.930
 3851POPC   C4B49342   9.478  23.483   7.275
 3852POPC   NC349343  32.158   7.843   5.605
 3852POPC   PO449344  32.472   7.196   5.440
 3852POPC   GL149345  32.413   7.455   5.805
 3852POPC   GL249346  32.043   7.411   5.873
 3852POPC   C1A49347  32.445   7.674   6.216
 3852POPC   D2A49348  32.634   7.751   6.628
 3852POPC   C3A49349  32.473   7.490   6.979
 3852POPC   C4A49350  32.194   7.169   7.097
 3852POPC   C1B49351  31.931   7.698   6.213
 3852POPC   C2B49352  32.094   7.614   6.636
 3852POPC   C3B49353  31.977   7.659   7.066
 3852POPC   C4B49354  31.960   7.751   7.494
 3853POPC   NC349355   6.071  18.258   5.346
 3853POPC   PO449356   5.415  18.159   5.493
 3853POPC   GL149357   5.721  18.360   5.778
 3853POPC   GL249358   5.997  18.124   5.855
 3853POPC   C1A49359   5.933  18.478   6.203
 3853POPC   D2A49360   6.046  18.202   6.580
 3853POPC   C3A49361   6.115  18.351   7.018
 3853POPC   C4A49362   5.835  18.577   7.300
 3853POPC   C1B49363   5.677  18.028   6.225
 3853POPC   C2B49364   5.554  18.074   6.686
 3853POPC   C3B49365   5.664  18.111   7.143
 3853POPC   C4B49366   5.597  17.925   7.556
 3854POPC   NC349367  41.295  23.056   5.563
 3854POPC   PO449368  41.839  22.563   5.441
 3854POPC   GL149369  41.639  22.748   5.805
 3854POPC   GL249370  41.735  23.100   5.856
 3854POPC   C1A49371  41.403  22.810   6.197
 3854POPC   D2A49372  41.466  22.918   6.659
 3854POPC   C3A49373  41.604  22.788   7.079
 3854POPC   C4A49374  41.248  22.821   7.196
 3854POPC   C1B49375  41.609  23.260   6.273
 3854POPC   C2B49376  41.474  23.440   6.658
 3854POPC   C3B49377  41.531  23.292   7.059
 3854POPC   C4B49378  41.825  23.371   7.332
 3855POPC   NC349379  13.968  10.798   5.366
 3855POPC   PO449380  14.648  10.650   5.219
 3855POPC   GL149381  14.424  10.660   5.640
 3855POPC   GL249382  14.646  10.438   5.825
 3855POPC   C1A49383  14.308  10.714   6.114
 3855POPC   D2A49384  14.283  10.519   6.546
 3855POPC   C3A49385  14.230  10.731   6.949
 3855POPC   C4A49386  14.231  10.527   7.387
 3855POPC   C1B49387  14.743  10.211   6.227
 3855POPC   C2B49388  14.776  10.343   6.664
 3855POPC   C3B49389  14.641  10.439   7.092
 3855POPC   C4B49390  14.605  10.853   7.314
 3856POPC   NC349391  27.408  28.765   5.634
 3856POPC   PO449392  27.996  29.073   5.440
 3856POPC   GL149393  27.700  29.151   5.812
 3856POPC   GL249394  27.336  29.248   5.739
 3856POPC   C1A49395  27.642  29.045   6.251
 3856POPC   D2A49396  27.368  29.040   6.628
 3856POPC   C3A49397  27.626  29.044   7.018
 3856POPC   C4A49398  27.872  29.167   7.345
 3856POPC   C1B49399  27.244  29.372   6.205
 3856POPC   C2B49400  27.083  29.478   6.640
 3856POPC   C3B49401  27.243  29.406   7.085
 3856POPC   C4B49402  27.415  29.301   7.504
 3857POPC   NC349403  18.059   8.636   5.493
 3857POPC   PO449404  18.405   8.113   5.207
 3857POPC   GL149405  18.303   8.123   5.684
 3857POPC   GL249406  18.012   8.244   5.813
 3857POPC   C1A49407  18.367   8.236   6.153
 3857POPC   D2A49408  18.658   8.289   6.446
 3857POPC   C3A49409  18.520   8.428   6.839
 3857POPC   C4A49410  18.292   8.184   7.140
 3857POPC   C1B49411  17.922   8.458   6.234
 3857POPC   C2B49412  17.892   8.334   6.718
 3857POPC   C3B49413  17.848   7.967   7.086
 3857POPC   C4B49414  17.844   7.984   7.591
 3858POPC   NC349415  39.894  38.981   5.309
 3858POPC   PO449416  40.330  39.472   5.439
 3858POPC   GL149417  40.090  39.360   5.775
 3858POPC   GL249418  40.160  39.016   5.764
 3858POPC   C1A49419  39.987  39.456   6.207
 3858POPC   D2A49420  39.704  39.501   6.527
 3858POPC   C3A49421  39.971  39.481   6.873
 3858POPC   C4A49422  39.886  39.479   7.283
 3858POPC   C1B49423  40.279  39.033   6.190
 3858POPC   C2B49424  40.084  39.007   6.636
 3858POPC   C3B49425  40.143  39.044   7.110
 3858POPC   C4B49426  40.359  39.100   7.534
 3859POPC   NC349427   5.745   9.467   5.233
 3859POPC   PO449428   5.862  10.119   5.377
 3859POPC   GL149429   5.752   9.771   5.728
 3859POPC   GL249430   6.060   9.678   5.953
 3859POPC   C1A49431   5.630   9.696   6.188
 3859POPC   D2A49432   5.799   9.801   6.614
 3859POPC   C3A49433   5.809   9.476   6.917
 3859POPC   C4A49434   6.011   9.490   7.306
 3859POPC   C1B49435   6.214   9.940   6.276
 3859POPC   C2B49436   6.264  10.046   6.715
 3859POPC   C3B49437   6.051   9.945   7.071
 3859POPC   C4B49438   6.061  10.109   7.469
 3860POPC   NC349439  39.010  26.399   5.244
 3860POPC   PO449440  39.351  25.792   5.383
 3860POPC   GL149441  39.225  26.102   5.682
 3860POPC   GL249442  39.181  25.862   5.887
 3860POPC   C1A49443  39.383  26.244   6.143
 3860POPC   D2A49444  39.241  26.098   6.578
 3860POPC   C3A49445  39.111  26.269   6.973
 3860POPC   C4A49446  39.392  26.252   7.330
 3860POPC   C1B49447  38.976  25.846   6.224
 3860POPC   C2B49448  39.014  25.620   6.618
 3860POPC   C3B49449  38.943  25.757   7.000
 3860POPC   C4B49450  39.144  25.809   7.375
 3861POPC   NC349451  36.685  31.750   5.233
 3861POPC   PO449452  37.072  31.217   5.359
 3861POPC   GL149453  36.997  31.426   5.767
 3861POPC   GL249454  37.033  31.794   5.835
 3861POPC   C1A49455  37.108  31.417   6.211
 3861POPC   D2A49456  36.976  31.200   6.588
 3861POPC   C3A49457  37.009  31.384   7.008
 3861POPC   C4A49458  36.756  31.179   7.335
 3861POPC   C1B49459  36.800  31.820   6.238
 3861POPC   C2B49460  36.696  31.645   6.607
 3861POPC   C3B49461  36.665  31.810   7.002
 3861POPC   C4B49462  36.798  31.685   7.413
 3862POPC   NC349463  10.447  28.794   5.403
 3862POPC   PO449464  10.724  29.434   5.411
 3862POPC   GL149465  10.645  29.159   5.732
 3862POPC   GL249466  10.953  28.950   5.718
 3862POPC   C1A49467  10.401  29.121   6.134
 3862POPC   D2A49468  10.231  29.344   6.509
 3862POPC   C3A49469  10.341  29.118   6.884
 3862POPC   C4A49470  10.470  29.225   7.297
 3862POPC   C1B49471  10.970  29.168   6.127
 3862POPC   C2B49472  10.742  29.176   6.516
 3862POPC   C3B49473  10.812  29.295   6.934
 3862POPC   C4B49474  10.981  29.177   7.349
 3863POPC   NC349475  37.107  18.594   5.331
 3863POPC   PO449476  36.727  19.213   5.332
 3863POPC   GL149477  36.841  19.151   5.743
 3863POPC   GL249478  37.182  19.104   5.762
 3863POPC   C1A49479  36.835  19.195   6.181
 3863POPC   D2A49480  36.734  18.930   6.529
 3863POPC   C3A49481  36.871  19.101   6.922
 3863POPC   C4A49482  36.941  18.874   7.296
 3863POPC   C1B49483  37.283  19.442   6.087
 3863POPC   C2B49484  37.123  19.486   6.523
 3863POPC   C3B49485  37.227  19.484   6.980
 3863POPC   C4B49486  37.175  19.442   7.433
 3864POPC   NC349487  41.134  10.160   5.574
 3864POPC   PO449488  40.694   9.663   5.372
 3864POPC   GL149489  40.678   9.667   5.846
 3864POPC   GL249490  40.709  10.000   5.840
 3864POPC   C1A49491  40.843   9.758   6.306
 3864POPC   D2A49492  41.151   9.776   6.623
 3864POPC   C3A49493  40.915   9.903   6.971
 3864POPC   C4A49494  40.684   9.671   7.253
 3864POPC   C1B49495  40.474  10.073   6.203
 3864POPC   C2B49496  40.604  10.166   6.623
 3864POPC   C3B49497  40.439  10.075   7.011
 3864POPC   C4B49498  40.634  10.136   7.405
 3865POPC   NC349499  31.741  28.932   5.104
 3865POPC   PO449500  31.329  29.258   5.486
 3865POPC   GL149501  31.433  29.020   5.865
 3865POPC   GL249502  31.333  28.657   5.860
 3865POPC   C1A49503  31.468  29.180   6.306
 3865POPC   D2A49504  31.217  29.425   6.610
 3865POPC   C3A49505  31.296  29.229   6.990
 3865POPC   C4A49506  31.738  29.204   7.070
 3865POPC   C1B49507  31.529  28.657   6.291
 3865POPC   C2B49508  31.566  28.832   6.732
 3865POPC   C3B49509  31.271  28.709   7.070
 3865POPC   C4B49510  31.120  28.862   7.466
 3866POPC   NC349511  27.550  20.389   5.460
 3866POPC   PO449512  27.854  19.743   5.518
 3866POPC   GL149513  27.687  19.668   5.921
 3866POPC   GL249514  27.374  19.804   5.933
 3866POPC   C1A49515  27.648  19.480   6.350
 3866POPC   D2A49516  27.468  19.654   6.750
 3866POPC   C3A49517  27.731  19.552   7.114
 3866POPC   C4A49518  27.901  19.707   7.477
 3866POPC   C1B49519  27.500  19.969   6.321
 3866POPC   C2B49520  27.681  20.118   6.688
 3866POPC   C3B49521  27.585  20.035   7.084
 3866POPC   C4B49522  27.343  20.233   7.322
 3867POPC   NC349523  17.426   7.312   5.438
 3867POPC   PO449524  17.831   7.843   5.522
 3867POPC   GL149525  17.719   7.508   5.811
 3867POPC   GL249526  17.358   7.518   5.876
 3867POPC   C1A49527  17.690   7.479   6.262
 3867POPC   D2A49528  17.417   7.442   6.610
 3867POPC   C3A49529  17.691   7.472   6.963
 3867POPC   C4A49530  17.740   7.525   7.387
 3867POPC   C1B49531  17.266   7.185   6.156
 3867POPC   C2B49532  17.202   6.974   6.562
 3867POPC   C3B49533  17.288   7.127   7.006
 3867POPC   C4B49534  17.310   7.248   7.450
 3868POPC   NC349535  34.783   9.817   5.413
 3868POPC   PO449536  35.487   9.699   5.334
 3868POPC   GL149537  35.385   9.815   5.774
 3868POPC   GL249538  35.203  10.132   5.798
 3868POPC   C1A49539  35.351   9.660   6.189
 3868POPC   D2A49540  35.601   9.519   6.538
 3868POPC   C3A49541  35.405   9.530   6.928
 3868POPC   C4A49542  35.455   9.251   7.260
 3868POPC   C1B49543  35.444  10.156   6.191
 3868POPC   C2B49544  35.326   9.971   6.609
 3868POPC   C3B49545  35.401  10.060   7.043
 3868POPC   C4B49546  35.558   9.773   7.355
 3869POPC   NC349547  43.989  11.633   5.328
 3869POPC   PO449548  43.645  11.141   5.556
 3869POPC   GL149549  43.935  11.229   5.870
 3869POPC   GL249550  44.013  11.581   5.849
 3869POPC   C1A49551  43.861  11.117   6.292
 3869POPC   D2A49552  43.561  11.284   6.597
 3869POPC   C3A49553  43.708  11.370   7.015
 3869POPC   C4A49554  44.027  11.146   7.193
 3869POPC   C1B49555  43.837  11.650   6.277
 3869POPC   C2B49556  44.053  11.446   6.625
 3869POPC   C3B49557  44.242  11.582   6.965
 3869POPC   C4B49558  44.068  11.633   7.294
 3870POPC   NC349559  42.685  14.555   5.534
 3870POPC   PO449560  43.368  14.427   5.448
 3870POPC   GL149561  43.177  14.508   5.799
 3870POPC   GL249562  42.935  14.243   5.884
 3870POPC   C1A49563  43.141  14.649   6.197
 3870POPC   D2A49564  42.981  14.416   6.529
 3870POPC   C3A49565  43.144  14.414   6.946
 3870POPC   C4A49566  42.977  14.513   7.324
 3870POPC   C1B49567  42.932  13.962   6.273
 3870POPC   C2B49568  42.933  13.967   6.757
 3870POPC   C3B49569  42.958  14.004   7.198
 3870POPC   C4B49570  42.844  14.067   7.605
 3871POPC   NC349571  34.392  35.423   5.417
 3871POPC   PO449572  34.806  34.993   5.354
 3871POPC   GL149573  34.811  35.320   5.698
 3871POPC   GL249574  34.484  35.388   5.896
 3871POPC   C1A49575  34.952  35.512   6.066
 3871POPC   D2A49576  34.927  35.394   6.482
 3871POPC   C3A49577  34.928  35.616   6.854
 3871POPC   C4A49578  34.680  35.380   7.162
 3871POPC   C1B49579  34.330  35.537   6.265
 3871POPC   C2B49580  34.442  35.529   6.673
 3871POPC   C3B49581  34.230  35.574   7.028
 3871POPC   C4B49582  34.356  35.666   7.468
 3872POPC   NC349583  19.497  13.602   5.549
 3872POPC   PO449584  20.050  13.947   5.499
 3872POPC   GL149585  19.947  13.667   5.844
 3872POPC   GL249586  19.613  13.757   6.014
 3872POPC   C1A49587  19.990  13.598   6.304
 3872POPC   D2A49588  19.657  13.777   6.585
 3872POPC   C3A49589  19.751  13.809   7.036
 3872POPC   C4A49590  19.760  13.884   7.488
 3872POPC   C1B49591  19.548  13.366   6.262
 3872POPC   C2B49592  19.678  13.268   6.696
 3872POPC   C3B49593  19.589  13.329   7.139
 3872POPC   C4B49594  19.581  13.401   7.586
 3873POPC   NC349595  20.184   3.704   5.610
 3873POPC   PO449596  20.783   3.483   5.405
 3873POPC   GL149597  20.589   3.469   5.805
 3873POPC   GL249598  20.294   3.241   5.785
 3873POPC   C1A49599  20.628   3.635   6.243
 3873POPC   D2A49600  20.598   3.840   6.665
 3873POPC   C3A49601  20.802   3.544   6.975
 3873POPC   C4A49602  20.835   3.530   7.437
 3873POPC   C1B49603  20.169   3.407   6.178
 3873POPC   C2B49604  20.257   3.460   6.585
 3873POPC   C3B49605  20.254   3.550   6.995
 3873POPC   C4B49606  20.448   3.232   7.257
 3874POPC   NC349607  42.002  20.616   5.377
 3874POPC   PO449608  42.519  20.352   5.164
 3874POPC   GL149609  42.416  20.520   5.633
 3874POPC   GL249610  42.135  20.373   5.828
 3874POPC   C1A49611  42.556  20.667   6.035
 3874POPC   D2A49612  42.663  20.560   6.459
 3874POPC   C3A49613  42.499  20.587   6.891
 3874POPC   C4A49614  42.618  20.284   7.193
 3874POPC   C1B49615  42.158  20.462   6.276
 3874POPC   C2B49616  42.087  20.331   6.675
 3874POPC   C3B49617  41.994  20.433   7.037
 3874POPC   C4B49618  42.143  20.677   7.291
 3875POPC   NC349619   8.962  42.710   5.363
 3875POPC   PO449620   9.389  42.248   5.252
 3875POPC   GL149621   9.065  42.404   5.734
 3875POPC   GL249622   8.787  42.588   5.829
 3875POPC   C1A49623   8.963  42.207   6.188
 3875POPC   D2A49624   9.123  42.268   6.629
 3875POPC   C3A49625   8.838  42.308   6.965
 3875POPC   C4A49626   8.944  42.125   7.338
 3875POPC   C1B49627   9.131  42.689   6.138
 3875POPC   C2B49628   9.020  42.782   6.526
 3875POPC   C3B49629   9.092  42.758   6.919
 3875POPC   C4B49630   8.966  42.718   7.335
 3876POPC   NC349631   6.039  39.297   5.521
 3876POPC   PO449632   5.505  38.966   5.396
 3876POPC   GL149633   5.709  38.997   5.772
 3876POPC   GL249634   5.524  39.305   5.838
 3876POPC   C1A49635   6.071  38.959   6.080
 3876POPC   D2A49636   5.986  38.892   6.499
 3876POPC   C3A49637   6.104  38.995   6.924
 3876POPC   C4A49638   6.007  38.935   7.377
 3876POPC   C1B49639   5.568  39.115   6.262
 3876POPC   C2B49640   5.616  39.162   6.716
 3876POPC   C3B49641   5.656  39.218   7.134
 3876POPC   C4B49642   5.413  39.441   7.412
 3877POPC   NC349643   7.035  26.128   5.526
 3877POPC   PO449644   6.386  25.883   5.334
 3877POPC   GL149645   6.392  26.109   5.724
 3877POPC   GL249646   6.694  26.070   5.921
 3877POPC   C1A49647   6.226  26.227   6.122
 3877POPC   D2A49648   6.359  26.049   6.486
 3877POPC   C3A49649   6.288  26.273   6.847
 3877POPC   C4A49650   6.497  26.164   7.216
 3877POPC   C1B49651   6.905  25.657   6.061
 3877POPC   C2B49652   7.070  25.547   6.474
 3877POPC   C3B49653   6.986  25.662   6.898
 3877POPC   C4B49654   6.975  25.958   7.238
 3878POPC   NC349655  35.909  31.517   5.488
 3878POPC   PO449656  36.418  31.372   5.130
 3878POPC   GL149657  36.484  31.488   5.646
 3878POPC   GL249658  36.224  31.581   5.867
 3878POPC   C1A49659  36.598  31.352   6.108
 3878POPC   D2A49660  36.379  31.227   6.505
 3878POPC   C3A49661  36.213  31.540   6.822
 3878POPC   C4A49662  36.352  31.505   7.256
 3878POPC   C1B49663  35.877  31.648   6.148
 3878POPC   C2B49664  35.781  31.813   6.529
 3878POPC   C3B49665  35.873  31.934   6.928
 3878POPC   C4B49666  35.879  31.677   7.279
 3879POPC   NC349667  20.034  26.826   5.354
 3879POPC   PO449668  19.934  27.521   5.394
 3879POPC   GL149669  19.882  27.106   5.773
 3879POPC   GL249670  20.118  26.781   5.855
 3879POPC   C1A49671  19.737  26.875   6.209
 3879POPC   D2A49672  19.521  26.722   6.634
 3879POPC   C3A49673  19.638  26.819   7.061
 3879POPC   C4A49674  20.020  27.042   7.132
 3879POPC   C1B49675  20.120  26.515   6.244
 3879POPC   C2B49676  19.955  26.404   6.672
 3879POPC   C3B49677  20.017  26.487   7.106
 3879POPC   C4B49678  19.780  26.473   7.505
 3880POPC   NC349679  33.066  29.828   5.405
 3880POPC   PO449680  32.510  30.218   5.403
 3880POPC   GL149681  32.831  30.103   5.788
 3880POPC   GL249682  32.958  29.725   5.875
 3880POPC   C1A49683  32.877  30.030   6.268
 3880POPC   D2A49684  32.692  29.892   6.664
 3880POPC   C3A49685  32.863  29.945   7.072
 3880POPC   C4A49686  32.728  30.283   7.309
 3880POPC   C1B49687  33.143  29.547   6.254
 3880POPC   C2B49688  33.147  29.619   6.691
 3880POPC   C3B49689  33.199  29.558   7.132
 3880POPC   C4B49690  33.286  29.651   7.604
 3881POPC   NC349691  38.483  28.740   5.573
 3881POPC   PO449692  38.064  29.164   5.487
 3881POPC   GL149693  38.386  29.168   5.881
 3881POPC   GL249694  38.778  29.221   5.859
 3881POPC   C1A49695  38.594  28.886   6.232
 3881POPC   D2A49696  38.732  28.754   6.686
 3881POPC   C3A49697  38.615  29.080   6.973
 3881POPC   C4A49698  38.179  29.234   7.025
 3881POPC   C1B49699  38.674  29.418   6.295
 3881POPC   C2B49700  38.790  29.532   6.750
 3881POPC   C3B49701  38.562  29.545   7.184
 3881POPC   C4B49702  38.526  29.530   7.655
 3882POPC   NC349703  37.193  25.848   5.569
 3882POPC   PO449704  37.917  26.193   5.501
 3882POPC   GL149705  37.843  26.249   5.890
 3882POPC   GL249706  37.602  25.964   5.880
 3882POPC   C1A49707  37.966  26.184   6.285
 3882POPC   D2A49708  38.137  25.932   6.584
 3882POPC   C3A49709  37.961  26.083   6.945
 3882POPC   C4A49710  37.748  26.319   7.257
 3882POPC   C1B49711  37.671  25.752   6.268
 3882POPC   C2B49712  37.604  25.772   6.706
 3882POPC   C3B49713  37.510  25.897   7.128
 3882POPC   C4B49714  37.797  25.857   7.487
 3883POPC   NC349715  12.976  19.475   5.378
 3883POPC   PO449716  13.088  20.132   5.334
 3883POPC   GL149717  12.921  20.072   5.752
 3883POPC   GL249718  12.630  19.830   5.793
 3883POPC   C1A49719  12.830  20.157   6.186
 3883POPC   D2A49720  12.752  20.247   6.604
 3883POPC   C3A49721  13.029  20.004   6.872
 3883POPC   C4A49722  12.938  19.951   7.298
 3883POPC   C1B49723  12.461  19.815   6.235
 3883POPC   C2B49724  12.587  19.758   6.667
 3883POPC   C3B49725  12.474  19.831   7.095
 3883POPC   C4B49726  12.565  19.676   7.517
 3884POPC   NC349727  39.610  44.872   5.527
 3884POPC   PO449728  40.011  44.353   5.411
 3884POPC   GL149729  40.056  44.650   5.774
 3884POPC   GL249730  39.740  44.593   5.932
 3884POPC   C1A49731  40.077  44.826   6.214
 3884POPC   D2A49732  39.887  44.648   6.606
 3884POPC   C3A49733  40.137  44.770   6.960
 3884POPC   C4A49734  40.035   0.004   7.300
 3884POPC   C1B49735  39.578  44.895   6.267
 3884POPC   C2B49736  39.481   0.004   6.708
 3884POPC   C3B49737  39.550  44.848   7.135
 3884POPC   C4B49738  39.807  44.515   7.268
 3885POPC   NC349739  10.068  24.292   5.418
 3885POPC   PO449740   9.853  24.888   5.136
 3885POPC   GL149741   9.695  24.701   5.595
 3885POPC   GL249742   9.536  24.358   5.677
 3885POPC   C1A49743   9.720  24.645   6.093
 3885POPC   D2A49744   9.906  24.468   6.504
 3885POPC   C3A49745   9.870  24.725   6.896
 3885POPC   C4A49746   9.527  24.802   7.193
 3885POPC   C1B49747   9.656  24.139   6.077
 3885POPC   C2B49748   9.497  24.154   6.512
 3885POPC   C3B49749   9.656  24.256   6.940
 3885POPC   C4B49750   9.545  24.315   7.392
 3886POPC   NC349751  40.409  44.592   5.410
 3886POPC   PO449752  41.064  44.834   5.150
 3886POPC   GL149753  40.904  44.648   5.587
 3886POPC   GL249754  40.650  44.461   5.809
 3886POPC   C1A49755  41.072  44.594   6.031
 3886POPC   D2A49756  40.890  44.450   6.437
 3886POPC   C3A49757  40.963  44.746   6.759
 3886POPC   C4A49758  41.199  44.616   7.130
 3886POPC   C1B49759  40.562  44.710   6.142
 3886POPC   C2B49760  40.393  44.575   6.532
 3886POPC   C3B49761  40.550  44.459   6.906
 3886POPC   C4B49762  40.711  44.673   7.206
 3887POPC   NC349763  12.194  22.805   5.449
 3887POPC   PO449764  11.867  23.385   5.412
 3887POPC   GL149765  11.868  23.127   5.762
 3887POPC   GL249766  11.785  22.775   5.739
 3887POPC   C1A49767  11.897  23.239   6.181
 3887POPC   D2A49768  12.131  23.356   6.511
 3887POPC   C3A49769  12.077  23.123   6.869
 3887POPC   C4A49770  12.072  22.894   7.250
 3887POPC   C1B49771  12.100  22.763   6.086
 3887POPC   C2B49772  12.012  22.805   6.489
 3887POPC   C3B49773  11.831  22.622   6.842
 3887POPC   C4B49774  11.706  22.547   7.245
 3888POPC   NC349775  25.353  34.017   5.472
 3888POPC   PO449776  25.432  33.355   5.623
 3888POPC   GL149777  25.379  33.721   5.919
 3888POPC   GL249778  25.128  33.975   5.917
 3888POPC   C1A49779  25.343  33.863   6.378
 3888POPC   D2A49780  25.283  33.635   6.773
 3888POPC   C3A49781  25.539  33.701   7.137
 3888POPC   C4A49782  25.425  33.501   7.533
 3888POPC   C1B49783  24.875  34.035   6.261
 3888POPC   C2B49784  24.940  34.191   6.672
 3888POPC   C3B49785  25.059  34.046   7.059
 3888POPC   C4B49786  25.054  33.831   7.409
 3889POPC   NC349787  44.337  14.691   5.656
 3889POPC   PO449788  44.309  14.108   5.495
 3889POPC   GL149789  44.583  14.286   5.849
 3889POPC   GL249790  44.811  14.597   5.808
 3889POPC   C1A49791  44.520  14.509   6.260
 3889POPC   D2A49792  44.320  14.435   6.648
 3889POPC   C3A49793  44.563  14.551   6.987
 3889POPC   C4A49794  44.804  14.868   7.130
 3889POPC   C1B49795   0.024  14.486   6.174
 3889POPC   C2B49796  44.927  14.598   6.583
 3889POPC   C3B49797   0.170  14.610   6.918
 3889POPC   C4B49798   0.101  14.468   7.294
 3890POPC   NC349799  16.346  19.263   5.525
 3890POPC   PO449800  15.852  19.092   5.168
 3890POPC   GL149801  15.893  19.119   5.708
 3890POPC   GL249802  15.937  19.410   5.805
 3890POPC   C1A49803  15.710  19.097   6.151
 3890POPC   D2A49804  15.695  19.089   6.593
 3890POPC   C3A49805  15.890  18.875   6.929
 3890POPC   C4A49806  15.700  19.225   7.172
 3890POPC   C1B49807  16.182  19.300   6.172
 3890POPC   C2B49808  16.226  19.171   6.595
 3890POPC   C3B49809  16.176  19.308   7.006
 3890POPC   C4B49810  16.124  19.052   7.389
 3891POPC   NC349811  33.914  16.339   5.642
 3891POPC   PO449812  34.092  15.823   5.311
 3891POPC   GL149813  34.057  16.014   5.958
 3891POPC   GL249814  33.734  16.164   6.101
 3891POPC   C1A49815  34.043  15.806   6.356
 3891POPC   D2A49816  33.875  15.992   6.725
 3891POPC   C3A49817  33.828  15.737   7.079
 3891POPC   C4A49818  34.021  15.736   7.453
 3891POPC   C1B49819  33.517  15.821   6.335
 3891POPC   C2B49820  33.371  15.795   6.753
 3891POPC   C3B49821  33.471  16.144   7.043
 3891POPC   C4B49822  33.894  16.238   7.189
 3892POPC   NC349823  19.321  13.920   4.974
 3892POPC   PO449824  19.071  13.435   5.391
 3892POPC   GL149825  19.048  13.535   5.807
 3892POPC   GL249826  18.905  13.814   5.751
 3892POPC   C1A49827  19.155  13.681   6.203
 3892POPC   D2A49828  19.159  13.523   6.610
 3892POPC   C3A49829  19.232  13.830   6.913
 3892POPC   C4A49830  19.299  13.728   7.328
 3892POPC   C1B49831  18.792  14.037   6.103
 3892POPC   C2B49832  18.894  13.989   6.516
 3892POPC   C3B49833  18.813  14.170   6.878
 3892POPC   C4B49834  18.896  14.040   7.269
 3893POPC   NC349835   2.700  22.383   5.203
 3893POPC   PO449836   3.155  21.922   5.220
 3893POPC   GL149837   2.967  22.069   5.659
 3893POPC   GL249838   2.623  22.053   5.713
 3893POPC   C1A49839   3.047  22.247   6.118
 3893POPC   D2A49840   3.125  22.321   6.591
 3893POPC   C3A49841   2.859  22.215   6.963
 3893POPC   C4A49842   2.914  22.076   7.407
 3893POPC   C1B49843   2.562  22.391   6.016
 3893POPC   C2B49844   2.456  22.399   6.468
 3893POPC   C3B49845   2.329  22.322   6.893
 3893POPC   C4B49846   2.485  22.368   7.306
 3894POPC   NC349847  29.140  35.362   5.351
 3894POPC   PO449848  29.033  35.929   5.090
 3894POPC   GL149849  29.152  35.782   5.626
 3894POPC   GL249850  29.309  35.454   5.801
 3894POPC   C1A49851  29.162  35.765   6.134
 3894POPC   D2A49852  29.154  35.500   6.551
 3894POPC   C3A49853  28.987  35.513   6.995
 3894POPC   C4A49854  28.892  35.195   7.383
 3894POPC   C1B49855  29.207  35.170   6.152
 3894POPC   C2B49856  29.349  35.013   6.578
 3894POPC   C3B49857  29.222  35.039   7.023
 3894POPC   C4B49858  29.419  35.002   7.438
 3895POPC   NC349859  30.208   4.513   5.301
 3895POPC   PO449860  30.807   4.132   5.295
 3895POPC   GL149861  30.497   4.216   5.617
 3895POPC   GL249862  30.631   4.546   5.644
 3895POPC   C1A49863  30.402   4.102   6.064
 3895POPC   D2A49864  30.639   4.167   6.461
 3895POPC   C3A49865  30.546   4.030   6.884
 3895POPC   C4A49866  30.864   4.161   7.123
 3895POPC   C1B49867  30.727   4.576   6.077
 3895POPC   C2B49868  30.768   4.670   6.519
 3895POPC   C3B49869  30.542   4.555   6.873
 3895POPC   C4B49870  30.594   4.612   7.291
 3896POPC   NC349871  31.208  33.173   5.624
 3896POPC   PO449872  31.682  32.932   5.305
 3896POPC   GL149873  31.624  32.873   5.730
 3896POPC   GL249874  31.301  32.702   5.775
 3896POPC   C1A49875  31.711  33.021   6.141
 3896POPC   D2A49876  31.574  33.082   6.593
 3896POPC   C3A49877  31.783  32.813   6.910
 3896POPC   C4A49878  31.790  32.877   7.354
 3896POPC   C1B49879  31.255  32.791   6.222
 3896POPC   C2B49880  31.214  32.717   6.682
 3896POPC   C3B49881  31.322  32.870   7.096
 3896POPC   C4B49882  31.316  33.157   7.427
 3897POPC   NC349883  13.887  32.562   5.424
 3897POPC   PO449884  13.635  33.208   5.313
 3897POPC   GL149885  13.619  32.919   5.717
 3897POPC   GL249886  13.306  33.071   5.895
 3897POPC   C1A49887  13.563  32.740   6.175
 3897POPC   D2A49888  13.399  32.951   6.580
 3897POPC   C3A49889  13.459  32.772   7.008
 3897POPC   C4A49890  13.529  32.933   7.430
 3897POPC   C1B49891  13.685  33.236   6.113
 3897POPC   C2B49892  13.782  33.312   6.525
 3897POPC   C3B49893  13.721  33.209   6.979
 3897POPC   C4B49894  13.907  33.395   7.341
 3898POPC   NC349895  12.630  11.449   4.912
 3898POPC   PO449896  13.001  11.356   5.441
 3898POPC   GL149897  12.857  11.361   5.888
 3898POPC   GL249898  12.490  11.381   5.869
 3898POPC   C1A49899  12.866  11.166   6.314
 3898POPC   D2A49900  13.260  11.025   6.571
 3898POPC   C3A49901  13.230  11.167   6.989
 3898POPC   C4A49902  13.024  11.067   7.366
 3898POPC   C1B49903  12.329  11.324   6.286
 3898POPC   C2B49904  12.455  11.136   6.663
 3898POPC   C3B49905  12.712  11.296   6.988
 3898POPC   C4B49906  12.580  11.589   7.256
 3899POPC   NC349907  44.480  42.493   5.573
 3899POPC   PO449908  44.658  41.864   5.492
 3899POPC   GL149909  44.725  42.153   5.868
 3899POPC   GL249910  44.948  42.469   5.868
 3899POPC   C1A49911  44.456  42.326   6.235
 3899POPC   D2A49912  44.221  42.382   6.657
 3899POPC   C3A49913  44.449  42.368   7.078
 3899POPC   C4A49914  44.844  42.330   7.329
 3899POPC   C1B49915  44.728  42.765   6.192
 3899POPC   C2B49916  44.625  42.745   6.643
 3899POPC   C3B49917  44.729  42.809   7.084
 3899POPC   C4B49918  44.519  42.722   7.470
 3900POPC   NC349919   1.318   7.678   5.355
 3900POPC   PO449920   0.951   7.292   5.586
 3900POPC   GL149921   1.070   7.640   5.846
 3900POPC   GL249922   1.428   7.754   5.835
 3900POPC   C1A49923   1.243   7.578   6.272
 3900POPC   D2A49924   1.450   7.428   6.646
 3900POPC   C3A49925   1.134   7.317   6.944
 3900POPC   C4A49926   1.022   7.593   7.245
 3900POPC   C1B49927   1.523   8.010   6.199
 3900POPC   C2B49928   1.338   7.949   6.624
 3900POPC   C3B49929   1.458   7.782   7.041
 3900POPC   C4B49930   1.416   7.782   7.507
 3901POPC   NC349931  14.630  29.213   5.444
 3901POPC   PO449932  15.261  29.033   5.566
 3901POPC   GL149933  15.172  29.204   5.933
 3901POPC   GL249934  14.905  29.404   5.854
 3901POPC   C1A49935  15.222  29.138   6.372
 3901POPC   D2A49936  15.213  29.272   6.789
 3901POPC   C3A49937  15.249  28.980   7.134
 3901POPC   C4A49938  15.246  28.728   7.526
 3901POPC   C1B49939  14.786  29.503   6.301
 3901POPC   C2B49940  14.720  29.468   6.780
 3901POPC   C3B49941  14.992  29.511   7.167
 3901POPC   C4B49942  15.444  29.662   7.179
 3902POPC   NC349943   0.200  41.857   5.295
 3902POPC   PO449944   0.212  41.202   5.559
 3902POPC   GL149945   0.495  41.476   5.816
 3902POPC   GL249946   0.396  41.846   5.800
 3902POPC   C1A49947   0.538  41.651   6.247
 3902POPC   D2A49948   0.425  41.431   6.610
 3902POPC   C3A49949   0.396  41.604   6.990
 3902POPC   C4A49950   0.691  41.699   7.284
 3902POPC   C1B49951   0.154  42.018   6.155
 3902POPC   C2B49952   0.236  41.983   6.598
 3902POPC   C3B49953   0.024  41.954   6.980
 3902POPC   C4B49954   0.218  41.987   7.341
 3903POPC   NC349955  22.936  42.886   5.277
 3903POPC   PO449956  22.650  42.220   5.338
 3903POPC   GL149957  22.948  42.329   5.705
 3903POPC   GL249958  22.878  42.684   5.799
 3903POPC   C1A49959  22.981  42.256   6.176
 3903POPC   D2A49960  22.897  42.483   6.574
 3903POPC   C3A49961  22.758  42.421   7.001
 3903POPC   C4A49962  22.660  42.280   7.416
 3903POPC   C1B49963  23.226  42.681   6.134
 3903POPC   C2B49964  23.399  42.483   6.477
 3903POPC   C3B49965  23.286  42.510   6.937
 3903POPC   C4B49966  23.534  42.617   7.327
 3904POPC   NC349967  12.731  40.811   5.305
 3904POPC   PO449968  13.349  40.724   5.474
 3904POPC   GL149969  12.974  40.642   5.766
 3904POPC   GL249970  12.693  40.912   5.795
 3904POPC   C1A49971  12.769  40.590   6.191
 3904POPC   D2A49972  12.897  40.745   6.616
 3904POPC   C3A49973  12.716  40.526   6.996
 3904POPC   C4A49974  12.816  40.450   7.441
 3904POPC   C1B49975  12.954  41.057   6.125
 3904POPC   C2B49976  12.833  41.264   6.492
 3904POPC   C3B49977  12.652  41.294   6.906
 3904POPC   C4B49978  12.605  40.990   7.257
 3905POPC   NC349979   6.792  19.731   5.301
 3905POPC   PO449980   7.492  19.767   5.423
 3905POPC   GL149981   7.551  19.782   5.839
 3905POPC   GL249982   7.196  19.761   5.839
 3905POPC   C1A49983   7.574  20.053   6.199
 3905POPC   D2A49984   7.525  20.183   6.610
 3905POPC   C3A49985   7.549  19.896   6.913
 3905POPC   C4A49986   7.378  19.805   7.262
 3905POPC   C1B49987   7.191  19.706   6.254
 3905POPC   C2B49988   7.021  19.423   6.543
 3905POPC   C3B49989   7.110  19.482   6.952
 3905POPC   C4B49990   7.167  19.348   7.379
 3906POPC   NC349991   5.933  25.860   5.365
 3906POPC   PO449992   5.481  26.296   5.438
 3906POPC   GL149993   5.814  26.224   5.742
 3906POPC   GL249994   5.936  25.874   5.863
 3906POPC   C1A49995   5.661  26.226   6.161
 3906POPC   D2A49996   5.866  26.296   6.531
 3906POPC   C3A49997   5.676  26.202   6.921
 3906POPC   C4A49998   5.943  26.431   7.191
 3906POPC   C1B49999   5.938  25.815   6.298
 3906POPC   C2B50000   5.975  25.828   6.739
 3906POPC   C3B50001   6.060  25.905   7.152
 3906POPC   C4B50002   6.027  25.648   7.503
 3907POPC   NC350003  35.049  13.318   5.137
 3907POPC   PO450004  34.548  12.871   5.382
 3907POPC   GL150005  34.692  12.902   5.765
 3907POPC   GL250006  34.795  13.255   5.742
 3907POPC   C1A50007  34.552  12.710   6.170
 3907POPC   D2A50008  34.501  12.498   6.586
 3907POPC   C3A50009  34.529  12.732   6.979
 3907POPC   C4A50010  34.514  12.689   7.409
 3907POPC   C1B50011  34.676  13.219   6.166
 3907POPC   C2B50012  34.542  13.065   6.569
 3907POPC   C3B50013  34.596  13.234   6.970
 3907POPC   C4B50014  34.406  13.172   7.376
 3908POPC   NC350015  35.303  17.674   5.437
 3908POPC   PO450016  35.624  17.235   5.625
 3908POPC   GL150017  35.406  17.454   5.898
 3908POPC   GL250018  35.445  17.833   5.905
 3908POPC   C1A50019  35.508  17.363   6.304
 3908POPC   D2A50020  35.380  17.132   6.619
 3908POPC   C3A50021  35.278  17.253   6.994
 3908POPC   C4A50022  35.512  17.277   7.335
 3908POPC   C1B50023  35.516  17.858   6.343
 3908POPC   C2B50024  35.365  17.682   6.694
 3908POPC   C3B50025  35.432  17.725   7.107
 3908POPC   C4B50026  35.259  17.748   7.503
 3909POPC   NC350027  17.398   8.068   5.495
 3909POPC   PO450028  17.601   8.675   5.400
 3909POPC   GL150029  17.541   8.405   5.856
 3909POPC   GL250030  17.580   7.987   5.943
 3909POPC   C1A50031  17.492   8.245   6.328
 3909POPC   D2A50032  17.598   7.925   6.613
 3909POPC   C3A50033  17.419   8.181   6.920
 3909POPC   C4A50034  17.673   8.450   7.179
 3909POPC   C1B50035  17.251   7.809   6.249
 3909POPC   C2B50036  17.087   7.837   6.671
 3909POPC   C3B50037  17.231   7.684   7.073
 3909POPC   C4B50038  17.393   7.955   7.377
 3910POPC   NC350039  28.727   4.615   5.590
 3910POPC   PO450040  29.403   4.474   5.585
 3910POPC   GL150041  29.409   4.529   5.992
 3910POPC   GL250042  29.394   4.205   6.118
 3910POPC   C1A50043  29.035   4.571   6.248
 3910POPC   D2A50044  28.827   4.748   6.613
 3910POPC   C3A50045  29.055   4.563   6.949
 3910POPC   C4A50046  28.988   4.444   7.411
 3910POPC   C1B50047  29.023   4.003   6.315
 3910POPC   C2B50048  28.834   4.064   6.737
 3910POPC   C3B50049  29.084   4.057   7.092
 3910POPC   C4B50050  29.446   4.343   7.183
 3911POPC   NC350051  15.424  44.162   5.232
 3911POPC   PO450052  14.945  43.588   5.362
 3911POPC   GL150053  15.107  43.673   5.771
 3911POPC   GL250054  15.200  44.039   5.804
 3911POPC   C1A50055  15.098  43.754   6.210
 3911POPC   D2A50056  15.196  44.128   6.450
 3911POPC   C3A50057  15.464  44.036   6.794
 3911POPC   C4A50058  15.334  43.892   7.180
 3911POPC   C1B50059  14.809  44.152   6.066
 3911POPC   C2B50060  14.683  44.112   6.520
 3911POPC   C3B50061  14.841  44.035   6.961
 3911POPC   C4B50062  14.959  44.129   7.406
 3912POPC   NC350063  21.356  11.559   5.059
 3912POPC   PO450064  21.310  11.042   5.553
 3912POPC   GL150065  21.458  11.110   5.916
 3912POPC   GL250066  21.597  11.415   5.885
 3912POPC   C1A50067  21.629  11.091   6.311
 3912POPC   D2A50068  21.630  11.381   6.630
 3912POPC   C3A50069  21.294  11.263   6.898
 3912POPC   C4A50070  21.427  11.226   7.326
 3912POPC   C1B50071  21.285  11.478   6.239
 3912POPC   C2B50072  21.277  11.751   6.643
 3912POPC   C3B50073  21.212  11.710   7.114
 3912POPC   C4B50074  21.073  11.736   7.579
 3913POPC   NC350075  35.509  10.908   5.484
 3913POPC   PO450076  35.206  11.504   5.399
 3913POPC   GL150077  35.220  11.241   5.755
 3913POPC   GL250078  35.325  11.540   5.903
 3913POPC   C1A50079  35.347  11.085   6.170
 3913POPC   D2A50080  35.233  11.278   6.566
 3913POPC   C3A50081  35.272  11.043   6.931
 3913POPC   C4A50082  35.022  11.051   7.311
 3913POPC   C1B50083  35.542  11.590   6.265
 3913POPC   C2B50084  35.655  11.548   6.679
 3913POPC   C3B50085  35.420  11.520   7.052
 3913POPC   C4B50086  35.488  11.568   7.468
 3914POPC   NC350087  16.305   0.258   5.218
 3914POPC   PO450088  15.727   0.538   5.518
 3914POPC   GL150089  15.944   0.422   5.829
 3914POPC   GL250090  15.709   0.174   5.892
 3914POPC   C1A50091  16.009   0.510   6.247
 3914POPC   D2A50092  16.232   0.659   6.576
 3914POPC   C3A50093  16.062   0.410   6.873
 3914POPC   C4A50094  15.957   0.497   7.241
 3914POPC   C1B50095  15.883   0.011   6.233
 3914POPC   C2B50096  15.778  44.861   6.649
 3914POPC   C3B50097  15.726   0.066   7.072
 3914POPC   C4B50098  15.806   0.109   7.529
 3915POPC   NC350099  42.323  29.183   5.376
 3915POPC   PO450100  42.187  29.729   5.477
 3915POPC   GL150101  42.378  29.474   5.832
 3915POPC   GL250102  42.482  29.092   5.841
 3915POPC   C1A50103  42.316  29.335   6.269
 3915POPC   D2A50104  42.417  28.947   6.490
 3915POPC   C3A50105  42.525  29.001   6.912
 3915POPC   C4A50106  42.310  29.241   7.212
 3915POPC   C1B50107  42.040  28.990   6.007
 3915POPC   C2B50108  41.909  28.994   6.444
 3915POPC   C3B50109  42.025  28.801   6.847
 3915POPC   C4B50110  41.897  28.954   7.249
 3916POPC   NC350111  44.467  44.352   5.462
 3916POPC   PO450112  44.941  44.908   5.470
 3916POPC   GL150113  44.883  44.547   5.783
 3916POPC   GL250114  44.917  44.184   5.900
 3916POPC   C1A50115  44.764  44.562   6.231
 3916POPC   D2A50116  44.560  44.795   6.553
 3916POPC   C3A50117  44.803  44.904   6.902
 3916POPC   C4A50118  44.894  44.858   7.327
 3916POPC   C1B50119  44.496  44.132   6.101
 3916POPC   C2B50120  44.382  44.309   6.477
 3916POPC   C3B50121  44.641  44.383   6.855
 3916POPC   C4B50122  44.472  44.461   7.253
 3917POPC   NC350123   7.901  29.624   5.402
 3917POPC   PO450124   8.234  30.218   5.454
 3917POPC   GL150125   8.023  30.094   5.807
 3917POPC   GL250126   8.061  29.721   5.877
 3917POPC   C1A50127   7.906  30.042   6.245
 3917POPC   D2A50128   8.080  29.735   6.575
 3917POPC   C3A50129   7.998  29.886   7.023
 3917POPC   C4A50130   8.382  30.146   7.194
 3917POPC   C1B50131   8.441  29.696   6.128
 3917POPC   C2B50132   8.576  29.529   6.538
 3917POPC   C3B50133   8.454  29.665   6.961
 3917POPC   C4B50134   8.278  29.689   7.410
 3918POPC   NC350135  37.918  15.998   5.487
 3918POPC   PO450136  37.577  15.447   5.198
 3918POPC   GL150137  37.444  15.629   5.684
 3918POPC   GL250138  37.452  15.997   5.707
 3918POPC   C1A50139  37.604  15.757   6.137
 3918POPC   D2A50140  37.911  15.984   6.408
 3918POPC   C3A50141  37.839  15.807   6.808
 3918POPC   C4A50142  37.775  15.917   7.230
 3918POPC   C1B50143  37.554  16.261   6.087
 3918POPC   C2B50144  37.435  16.122   6.509
 3918POPC   C3B50145  37.394  16.070   6.933
 3918POPC   C4B50146  37.441  16.320   7.314
 3919POPC   NC350147  11.142   6.923   5.515
 3919POPC   PO450148  11.668   6.406   5.484
 3919POPC   GL150149  11.408   6.550   5.784
 3919POPC   GL250150  11.568   6.861   5.822
 3919POPC   C1A50151  11.256   6.595   6.213
 3919POPC   D2A50152  10.938   6.497   6.531
 3919POPC   C3A50153  11.029   6.699   6.903
 3919POPC   C4A50154  11.056   6.439   7.237
 3919POPC   C1B50155  11.771   6.645   6.143
 3919POPC   C2B50156  11.740   6.692   6.584
 3919POPC   C3B50157  11.517   6.519   6.944
 3919POPC   C4B50158  11.641   6.446   7.354
 3920POPC   NC350159   0.117  35.853   5.653
 3920POPC   PO450160   0.524  36.332   5.358
 3920POPC   GL150161   0.549  36.120   5.763
 3920POPC   GL250162   0.676  35.793   5.654
 3920POPC   C1A50163   0.295  36.156   6.183
 3920POPC   D2A50164   0.289  36.461   6.523
 3920POPC   C3A50165   0.273  36.227   6.883
 3920POPC   C4A50166   0.491  36.156   7.244
 3920POPC   C1B50167   0.690  35.753   6.101
 3920POPC   C2B50168   0.726  36.000   6.468
 3920POPC   C3B50169   0.812  35.913   6.908
 3920POPC   C4B50170   0.603  35.683   7.260
 3921POPC   NC350171  18.899  19.943   5.157
 3921POPC   PO450172  18.531  19.503   5.412
 3921POPC   GL150173  18.813  19.779   5.691
 3921POPC   GL250174  18.753  20.137   5.819
 3921POPC   C1A50175  18.792  19.773   6.172
 3921POPC   D2A50176  18.745  20.029   6.564
 3921POPC   C3A50177  18.802  19.791   6.928
 3921POPC   C4A50178  18.808  19.824   7.358
 3921POPC   C1B50179  19.068  20.216   6.183
 3921POPC   C2B50180  19.250  20.038   6.605
 3921POPC   C3B50181  19.227  20.061   7.078
 3921POPC   C4B50182  19.487  20.174   7.455
 3922POPC   NC350183  35.467  43.340   5.285
 3922POPC   PO450184  35.267  42.772   5.637
 3922POPC   GL150185  35.309  43.060   5.934
 3922POPC   GL250186  35.554  43.261   5.793
 3922POPC   C1A50187  35.486  43.053   6.341
 3922POPC   D2A50188  35.552  43.164   6.761
 3922POPC   C3A50189  35.289  42.952   7.014
 3922POPC   C4A50190  35.001  42.693   7.223
 3922POPC   C1B50191  35.827  43.375   6.146
 3922POPC   C2B50192  35.887  43.569   6.561
 3922POPC   C3B50193  35.719  43.629   6.984
 3922POPC   C4B50194  35.614  43.269   7.260
 3923POPC   NC350195  14.842  19.227   5.435
 3923POPC   PO450196  15.439  18.962   5.559
 3923POPC   GL150197  15.222  19.206   5.827
 3923POPC   GL250198  15.005  18.945   5.857
 3923POPC   C1A50199  15.103  19.294   6.255
 3923POPC   D2A50200  15.318  19.433   6.610
 3923POPC   C3A50201  15.191  19.331   7.046
 3923POPC   C4A50202  15.317  19.177   7.507
 3923POPC   C1B50203  15.251  18.820   6.196
 3923POPC   C2B50204  15.203  18.925   6.616
 3923POPC   C3B50205  15.375  18.869   6.996
 3923POPC   C4B50206  15.233  18.701   7.333
 3924POPC   NC350207  32.343   3.837   5.441
 3924POPC   PO450208  32.194   3.223   5.609
 3924POPC   GL150209  32.363   3.556   5.890
 3924POPC   GL250210  32.236   3.935   5.923
 3924POPC   C1A50211  32.474   3.405   6.308
 3924POPC   D2A50212  32.709   3.446   6.709
 3924POPC   C3A50213  32.426   3.586   7.037
 3924POPC   C4A50214  32.091   3.326   7.133
 3924POPC   C1B50215  32.243   3.898   6.374
 3924POPC   C2B50216  32.051   3.629   6.671
 3924POPC   C3B50217  31.833   3.798   7.014
 3924POPC   C4B50218  32.050   3.821   7.337
 3925POPC   NC350219   6.017   5.426   5.649
 3925POPC   PO450220   5.569   5.007   5.420
 3925POPC   GL150221   5.730   4.817   5.772
 3925POPC   GL250222   6.067   4.908   5.760
 3925POPC   C1A50223   5.763   5.007   6.181
 3925POPC   D2A50224   5.831   5.324   6.466
 3925POPC   C3A50225   5.909   5.241   6.898
 3925POPC   C4A50226   5.695   5.058   7.229
 3925POPC   C1B50227   6.249   4.930   6.209
 3925POPC   C2B50228   6.073   4.835   6.649
 3925POPC   C3B50229   6.144   4.831   7.137
 3925POPC   C4B50230   6.273   4.725   7.577
 3926POPC   NC350231   2.117  13.848   5.355
 3926POPC   PO450232   1.550  13.970   5.690
 3926POPC   GL150233   1.916  13.761   5.895
 3926POPC   GL250234   1.861  13.410   6.040
 3926POPC   C1A50235   2.173  13.708   6.293
 3926POPC   D2A50236   2.079  13.492   6.669
 3926POPC   C3A50237   2.304  13.691   6.986
 3926POPC   C4A50238   2.303  13.844   7.434
 3926POPC   C1B50239   1.556  13.159   6.300
 3926POPC   C2B50240   1.434  13.288   6.725
 3926POPC   C3B50241   1.584  13.662   6.895
 3926POPC   C4B50242   1.854  13.757   7.221
 3927POPC   NC350243  37.543  41.052   5.261
 3927POPC   PO450244  37.930  40.566   5.547
 3927POPC   GL150245  37.621  40.760   5.819
 3927POPC   GL250246  37.487  40.470   6.012
 3927POPC   C1A50247  37.455  41.130   6.049
 3927POPC   D2A50248  37.393  41.286   6.496
 3927POPC   C3A50249  37.511  40.973   6.835
 3927POPC   C4A50250  37.596  40.813   7.265
 3927POPC   C1B50251  37.710  40.645   6.380
 3927POPC   C2B50252  37.686  40.465   6.805
 3927POPC   C3B50253  37.973  40.501   7.155
 3927POPC   C4B50254  37.899  40.496   7.624
 3928POPC   NC350255  24.059  20.129   5.485
 3928POPC   PO450256  24.612  19.760   5.292
 3928POPC   GL150257  24.566  19.719   5.747
 3928POPC   GL250258  24.302  19.911   5.914
 3928POPC   C1A50259  24.655  19.571   6.173
 3928POPC   D2A50260  24.847  19.849   6.506
 3928POPC   C3A50261  24.593  20.056   6.855
 3928POPC   C4A50262  24.490  20.276   7.251
 3928POPC   C1B50263  24.191  20.014   6.357
 3928POPC   C2B50264  24.096  19.868   6.796
 3928POPC   C3B50265  24.196  19.865   7.259
 3928POPC   C4B50266  24.072  20.116   7.647
 3929POPC   NC350267  18.931  12.383   5.410
 3929POPC   PO450268  19.108  11.738   5.482
 3929POPC   GL150269  19.244  12.070   5.744
 3929POPC   GL250270  18.951  12.254   5.887
 3929POPC   C1A50271  19.236  11.969   6.176
 3929POPC   D2A50272  19.036  12.182   6.509
 3929POPC   C3A50273  19.111  11.977   6.883
 3929POPC   C4A50274  19.243  12.121   7.234
 3929POPC   C1B50275  18.634  12.460   6.116
 3929POPC   C2B50276  18.529  12.251   6.456
 3929POPC   C3B50277  18.641  12.318   6.885
 3929POPC   C4B50278  18.763  12.266   7.291
 3930POPC   NC350279  17.391  19.353   5.366
 3930POPC   PO450280  17.267  18.690   5.501
 3930POPC   GL150281  17.424  18.939   5.861
 3930POPC   GL250282  17.273  19.291   5.847
 3930POPC   C1A50283  17.592  18.884   6.269
 3930POPC   D2A50284  17.705  19.102   6.658
 3930POPC   C3A50285  17.516  18.993   7.057
 3930POPC   C4A50286  17.751  18.775   7.398
 3930POPC   C1B50287  17.495  19.364   6.227
 3930POPC   C2B50288  17.354  19.450   6.589
 3930POPC   C3B50289  17.163  19.376   6.945
 3930POPC   C4B50290  17.288  19.513   7.322
 3931POPC   NC350291   6.345  36.194   5.323
 3931POPC   PO450292   5.634  36.225   5.203
 3931POPC   GL150293   5.887  36.076   5.604
 3931POPC   GL250294   6.212  35.928   5.756
 3931POPC   C1A50295   5.854  36.113   6.075
 3931POPC   D2A50296   5.945  35.970   6.512
 3931POPC   C3A50297   5.661  36.085   6.833
 3931POPC   C4A50298   5.487  36.199   7.222
 3931POPC   C1B50299   6.334  35.950   6.184
 3931POPC   C2B50300   6.452  36.173   6.575
 3931POPC   C3B50301   6.143  36.269   6.889
 3931POPC   C4B50302   6.062  36.119   7.312
 3932POPC   NC350303  24.977  26.241   5.313
 3932POPC   PO450304  25.552  25.873   5.127
 3932POPC   GL150305  25.457  26.038   5.575
 3932POPC   GL250306  25.162  26.127   5.774
 3932POPC   C1A50307  25.593  26.060   6.056
 3932POPC   D2A50308  25.551  26.208   6.498
 3932POPC   C3A50309  25.281  25.969   6.777
 3932POPC   C4A50310  25.316  25.974   7.219
 3932POPC   C1B50311  24.867  26.148   6.141
 3932POPC   C2B50312  24.779  26.147   6.586
 3932POPC   C3B50313  24.765  25.961   7.015
 3932POPC   C4B50314  24.862  25.900   7.445
 3933POPC   NC350315  15.659  11.221   5.412
 3933POPC   PO450316  14.969  11.498   5.354
 3933POPC   GL150317  14.955  11.182   5.706
 3933POPC   GL250318  15.303  11.134   5.793
 3933POPC   C1A50319  14.829  11.008   6.123
 3933POPC   D2A50320  14.999  10.950   6.549
 3933POPC   C3A50321  15.026  11.268   6.880
 3933POPC   C4A50322  15.042  11.149   7.312
 3933POPC   C1B50323  15.250  11.321   6.234
 3933POPC   C2B50324  15.482  11.222   6.625
 3933POPC   C3B50325  15.503  11.224   7.085
 3933POPC   C4B50326  15.518  11.295   7.541
 3934POPC   NC350327  43.597  43.660   5.418
 3934POPC   PO450328  44.109  44.098   5.246
 3934POPC   GL150329  44.079  44.014   5.695
 3934POPC   GL250330  43.887  43.723   5.817
 3934POPC   C1A50331  43.981  44.127   6.143
 3934POPC   D2A50332  43.869  44.206   6.586
 3934POPC   C3A50333  44.173  44.178   6.919
 3934POPC   C4A50334  44.067  44.108   7.315
 3934POPC   C1B50335  43.657  43.711   6.177
 3934POPC   C2B50336  43.828  43.681   6.566
 3934POPC   C3B50337  43.864  43.772   6.963
 3934POPC   C4B50338  43.680  43.759   7.360
 3935POPC   NC350339   7.907  22.630   5.329
 3935POPC   PO450340   8.573  22.804   5.344
 3935POPC   GL150341   8.327  22.891   5.664
 3935POPC   GL250342   8.579  23.121   5.775
 3935POPC   C1A50343   8.241  22.907   6.095
 3935POPC   D2A50344   8.380  23.043   6.495
 3935POPC   C3A50345   8.095  22.945   6.802
 3935POPC   C4A50346   7.966  22.838   7.213
 3935POPC   C1B50347   8.532  23.367   6.120
 3935POPC   C2B50348   8.710  23.439   6.514
 3935POPC   C3B50349   8.517  23.370   6.892
 3935POPC   C4B50350   8.389  23.126   7.223
 3936POPC   NC350351  24.213  16.839   5.321
 3936POPC   PO450352  23.627  16.839   5.328
 3936POPC   GL150353  23.680  16.874   5.810
 3936POPC   GL250354  24.058  16.883   5.818
 3936POPC   C1A50355  23.559  16.623   6.230
 3936POPC   D2A50356  23.361  16.684   6.630
 3936POPC   C3A50357  23.605  16.757   7.021
 3936POPC   C4A50358  23.793  16.518   7.374
 3936POPC   C1B50359  23.988  16.866   6.247
 3936POPC   C2B50360  23.917  16.619   6.608
 3936POPC   C3B50361  24.104  16.654   6.999
 3936POPC   C4B50362  24.060  16.933   7.420
 3937POPC   NC350363  35.796  26.871   5.585
 3937POPC   PO450364  36.450  27.162   5.715
 3937POPC   GL150365  36.218  26.840   5.931
 3937POPC   GL250366  35.875  26.763   6.059
 3937POPC   C1A50367  36.318  26.912   6.343
 3937POPC   D2A50368  36.376  27.206   6.701
 3937POPC   C3A50369  36.438  26.936   7.051
 3937POPC   C4A50370  36.365  26.860   7.490
 3937POPC   C1B50371  35.840  27.058   6.354
 3937POPC   C2B50372  35.963  26.910   6.747
 3937POPC   C3B50373  35.779  26.866   7.125
 3937POPC   C4B50374  35.677  26.542   7.444
 3938POPC   NC350375  42.573  27.386   5.318
 3938POPC   PO450376  42.178  27.961   5.387
 3938POPC   GL150377  42.322  27.714   5.749
 3938POPC   GL250378  42.275  27.341   5.760
 3938POPC   C1A50379  42.417  27.718   6.176
 3938POPC   D2A50380  42.634  27.939   6.510
 3938POPC   C3A50381  42.393  27.842   6.869
 3938POPC   C4A50382  42.379  27.859   7.301
 3938POPC   C1B50383  42.493  27.218   6.144
 3938POPC   C2B50384  42.543  27.406   6.567
 3938POPC   C3B50385  42.645  27.385   6.992
 3938POPC   C4B50386  42.331  27.327   7.301
 3939POPC   NC350387  38.762  11.201   5.428
 3939POPC   PO450388  38.143  11.214   5.525
 3939POPC   GL150389  38.442  11.165   5.888
 3939POPC   GL250390  38.799  10.987   5.879
 3939POPC   C1A50391  38.322  11.339   6.291
 3939POPC   D2A50392  38.270  11.571   6.683
 3939POPC   C3A50393  38.309  11.279   7.040
 3939POPC   C4A50394  38.221  11.257   7.500
 3939POPC   C1B50395  38.817  11.191   6.258
 3939POPC   C2B50396  38.640  11.096   6.646
 3939POPC   C3B50397  38.852  11.234   6.992
 3939POPC   C4B50398  38.711  11.272   7.378
 3940POPC   NC350399   0.378  44.764   5.474
 3940POPC   PO450400   0.623  44.260   5.132
 3940POPC   GL150401   0.439  44.301   5.668
 3940POPC   GL250402   0.649  44.569   5.881
 3940POPC   C1A50403   0.258  44.453   6.139
 3940POPC   D2A50404   0.205  44.597   6.569
 3940POPC   C3A50405   0.465  44.426   6.910
 3940POPC   C4A50406   0.196  44.443   7.254
 3940POPC   C1B50407   0.764  44.812   6.243
 3940POPC   C2B50408   0.616  44.940   6.652
 3940POPC   C3B50409   0.324  44.899   6.998
 3940POPC   C4B50410   0.520  44.827   7.349
 3941POPC   NC350411  11.956   8.436   5.083
 3941POPC   PO450412  12.221   7.905   5.489
 3941POPC   GL150413  12.051   8.164   5.819
 3941POPC   GL250414  11.728   8.341   5.755
 3941POPC   C1A50415  12.224   8.188   6.240
 3941POPC   D2A50416  12.462   8.414   6.561
 3941POPC   C3A50417  12.309   8.263   6.923
 3941POPC   C4A50418  12.200   7.944   7.211
 3941POPC   C1B50419  11.699   8.351   6.223
 3941POPC   C2B50420  11.885   8.223   6.631
 3941POPC   C3B50421  11.811   8.259   7.083
 3941POPC   C4B50422  11.771   8.392   7.529
 3942POPC   NC350423  28.596  25.979   5.326
 3942POPC   PO450424  28.335  26.521   5.607
 3942POPC   GL150425  28.341  26.072   5.776
 3942POPC   GL250426  28.677  25.870   5.829
 3942POPC   C1A50427  28.334  26.068   6.212
 3942POPC   D2A50428  28.333  26.326   6.545
 3942POPC   C3A50429  28.344  26.106   6.930
 3942POPC   C4A50430  28.420  26.230   7.341
 3942POPC   C1B50431  28.636  25.667   6.246
 3942POPC   C2B50432  28.709  25.796   6.685
 3942POPC   C3B50433  28.634  25.739   7.155
 3942POPC   C4B50434  28.830  25.929   7.497
 3943POPC   NC350435  15.647  33.351   5.744
 3943POPC   PO450436  16.212  33.293   5.494
 3943POPC   GL150437  16.258  33.040   5.845
 3943POPC   GL250438  15.936  32.873   5.799
 3943POPC   C1A50439  16.092  33.038   6.255
 3943POPC   D2A50440  15.978  32.834   6.639
 3943POPC   C3A50441  16.026  33.108   7.017
 3943POPC   C4A50442  16.086  33.156   7.481
 3943POPC   C1B50443  15.722  32.662   6.150
 3943POPC   C2B50444  15.562  32.523   6.555
 3943POPC   C3B50445  15.624  32.691   6.972
 3943POPC   C4B50446  15.870  32.729   7.316
 3944POPC   NC350447  15.028  20.157   5.115
 3944POPC   PO450448  15.091  19.623   5.541
 3944POPC   GL150449  14.979  19.664   5.949
 3944POPC   GL250450  15.320  19.683   6.045
 3944POPC   C1A50451  14.968  19.861   6.369
 3944POPC   D2A50452  15.270  19.928   6.678
 3944POPC   C3A50453  15.106  19.908   7.099
 3944POPC   C4A50454  14.928  20.263   7.286
 3944POPC   C1B50455  15.738  19.613   6.243
 3944POPC   C2B50456  15.867  19.598   6.679
 3944POPC   C3B50457  15.552  19.673   7.000
 3944POPC   C4B50458  15.424  19.658   7.434
 3945POPC   NC350459   8.395  38.786   5.267
 3945POPC   PO450460   7.956  39.354   5.217
 3945POPC   GL150461   8.190  39.446   5.650
 3945POPC   GL250462   8.583  39.434   5.645
 3945POPC   C1A50463   8.142  39.408   6.153
 3945POPC   D2A50464   8.262  39.241   6.592
 3945POPC   C3A50465   8.032  39.317   6.979
 3945POPC   C4A50466   7.801  38.955   7.102
 3945POPC   C1B50467   8.694  39.496   6.087
 3945POPC   C2B50468   8.556  39.636   6.481
 3945POPC   C3B50469   8.544  39.541   6.916
 3945POPC   C4B50470   8.458  39.411   7.337
 3946POPC   NC350471  34.743  22.581   5.709
 3946POPC   PO450472  34.768  21.980   5.430
 3946POPC   GL150473  34.567  22.078   5.801
 3946POPC   GL250474  34.199  22.016   5.798
 3946POPC   C1A50475  34.745  22.014   6.229
 3946POPC   D2A50476  34.778  22.216   6.635
 3946POPC   C3A50477  34.905  22.046   7.032
 3946POPC   C4A50478  34.685  22.067   7.449
 3946POPC   C1B50479  34.288  22.244   6.182
 3946POPC   C2B50480  34.310  22.388   6.594
 3946POPC   C3B50481  34.399  22.295   7.016
 3946POPC   C4B50482  34.098  21.998   7.150
 3947POPC   NC350483  16.303   5.588   5.496
 3947POPC   PO450484  16.829   6.004   5.249
 3947POPC   GL150485  16.706   5.919   5.703
 3947POPC   GL250486  17.026   5.993   5.776
 3947POPC   C1A50487  16.703   5.772   6.189
 3947POPC   D2A50488  16.664   5.591   6.647
 3947POPC   C3A50489  16.490   5.699   7.037
 3947POPC   C4A50490  16.647   5.812   7.432
 3947POPC   C1B50491  17.085   6.141   6.195
 3947POPC   C2B50492  16.991   6.000   6.616
 3947POPC   C3B50493  16.785   6.128   6.988
 3947POPC   C4B50494  16.983   6.243   7.333
 3948POPC   NC350495  26.776   3.227   5.576
 3948POPC   PO450496  26.751   2.518   5.320
 3948POPC   GL150497  26.631   2.536   5.757
 3948POPC   GL250498  26.916   2.748   5.843
 3948POPC   C1A50499  26.714   2.434   6.214
 3948POPC   D2A50500  26.648   2.708   6.571
 3948POPC   C3A50501  26.764   2.601   6.975
 3948POPC   C4A50502  27.042   2.589   7.320
 3948POPC   C1B50503  26.607   2.946   6.123
 3948POPC   C2B50504  26.710   3.250   6.434
 3948POPC   C3B50505  26.889   3.111   6.811
 3948POPC   C4B50506  26.746   3.057   7.222
 3949POPC   NC350507  16.310  30.762   5.356
 3949POPC   PO450508  15.783  30.381   5.262
 3949POPC   GL150509  15.837  30.563   5.708
 3949POPC   GL250510  16.035  30.871   5.775
 3949POPC   C1A50511  15.755  30.704   6.163
 3949POPC   D2A50512  15.716  30.940   6.562
 3949POPC   C3A50513  15.773  30.736   6.948
 3949POPC   C4A50514  15.916  30.953   7.329
 3949POPC   C1B50515  16.266  30.721   6.159
 3949POPC   C2B50516  16.184  30.686   6.615
 3949POPC   C3B50517  16.289  30.735   7.017
 3949POPC   C4B50518  16.426  30.458   7.250
 3950POPC   NC350519  29.314  10.400   5.332
 3950POPC   PO450520  28.872  10.868   5.169
 3950POPC   GL150521  29.069  10.742   5.620
 3950POPC   GL250522  29.056  10.366   5.777
 3950POPC   C1A50523  29.317  10.707   6.029
 3950POPC   D2A50524  29.166  10.707   6.443
 3950POPC   C3A50525  29.394  10.464   6.712
 3950POPC   C4A50526  29.305  10.318   7.129
 3950POPC   C1B50527  29.177  10.220   6.241
 3950POPC   C2B50528  28.999  10.140   6.713
 3950POPC   C3B50529  28.801  10.219   7.154
 3950POPC   C4B50530  28.698  10.393   7.569
 3951POPC   NC350531  42.822  10.928   5.287
 3951POPC   PO450532  43.148  10.265   5.322
 3951POPC   GL150533  43.260  10.432   5.667
 3951POPC   GL250534  42.985  10.631   5.723
 3951POPC   C1A50535  43.274  10.426   6.098
 3951POPC   D2A50536  43.053  10.495   6.469
 3951POPC   C3A50537  43.195  10.539   6.896
 3951POPC   C4A50538  43.213  10.621   7.334
 3951POPC   C1B50539  42.744  10.689   6.110
 3951POPC   C2B50540  42.672  10.803   6.605
 3951POPC   C3B50541  42.739  10.695   7.077
 3951POPC   C4B50542  42.721  10.564   7.539
 3952POPC   NC350543   6.228   7.953   5.558
 3952POPC   PO450544   5.577   8.213   5.579
 3952POPC   GL150545   5.966   8.326   5.789
 3952POPC   GL250546   5.867   7.986   5.962
 3952POPC   C1A50547   6.231   8.264   6.163
 3952POPC   D2A50548   5.928   8.090   6.455
 3952POPC   C3A50549   6.013   8.080   6.862
 3952POPC   C4A50550   6.122   8.217   7.243
 3952POPC   C1B50551   5.530   7.818   6.295
 3952POPC   C2B50552   5.495   7.971   6.745
 3952POPC   C3B50553   5.568   8.022   7.219
 3952POPC   C4B50554   5.568   7.755   7.616
 3953POPC   NC350555  37.279  27.137   5.354
 3953POPC   PO450556  37.749  27.642   5.302
 3953POPC   GL150557  37.608  27.547   5.698
 3953POPC   GL250558  37.834  27.301   5.799
 3953POPC   C1A50559  37.621  27.690   6.134
 3953POPC   D2A50560  37.789  27.812   6.547
 3953POPC   C3A50561  37.467  27.896   6.853
 3953POPC   C4A50562  37.561  27.734   7.239
 3953POPC   C1B50563  37.634  27.160   6.140
 3953POPC   C2B50564  37.803  27.268   6.515
 3953POPC   C3B50565  37.615  27.361   6.885
 3953POPC   C4B50566  37.635  27.211   7.290
 3954POPC   NC350567  40.215  30.599   5.412
 3954POPC   PO450568  39.706  30.935   5.644
 3954POPC   GL150569  40.032  30.726   5.859
 3954POPC   GL250570  40.193  30.336   5.847
 3954POPC   C1A50571  40.046  30.629   6.240
 3954POPC   D2A50572  40.022  30.461   6.599
 3954POPC   C3A50573  40.022  30.779   6.876
 3954POPC   C4A50574  39.878  30.750   7.293
 3954POPC   C1B50575  40.426  30.289   6.290
 3954POPC   C2B50576  40.510  30.413   6.761
 3954POPC   C3B50577  40.342  30.552   7.182
 3954POPC   C4B50578  40.212  30.413   7.590
 3955POPC   NC350579  34.912  24.623   5.431
 3955POPC   PO450580  35.644  24.424   5.417
 3955POPC   GL150581  35.369  24.631   5.735
 3955POPC   GL250582  35.101  24.380   5.849
 3955POPC   C1A50583  35.500  24.604   6.177
 3955POPC   D2A50584  35.345  24.447   6.586
 3955POPC   C3A50585  35.261  24.718   6.945
 3955POPC   C4A50586  35.529  24.582   7.253
 3955POPC   C1B50587  34.981  24.703   6.144
 3955POPC   C2B50588  34.852  24.599   6.569
 3955POPC   C3B50589  34.940  24.313   6.922
 3955POPC   C4B50590  35.102  24.294   7.357
 3956POPC   NC350591  42.599  18.634   5.543
 3956POPC   PO450592  42.414  17.965   5.574
 3956POPC   GL150593  42.337  18.278   5.882
 3956POPC   GL250594  42.057  18.507   5.739
 3956POPC   C1A50595  42.424  18.222   6.346
 3956POPC   D2A50596  42.514  18.327   6.790
 3956POPC   C3A50597  42.389  18.082   7.158
 3956POPC   C4A50598  42.363  18.042   7.606
 3956POPC   C1B50599  42.088  18.592   6.192
 3956POPC   C2B50600  42.005  18.400   6.608
 3956POPC   C3B50601  42.113  18.540   7.025
 3956POPC   C4B50602  41.955  18.771   7.368
 3957POPC   NC350603  17.750   3.778   5.360
 3957POPC   PO450604  17.391   3.204   5.352
 3957POPC   GL150605  17.506   3.494   5.724
 3957POPC   GL250606  17.311   3.822   5.808
 3957POPC   C1A50607  17.633   3.582   6.158
 3957POPC   D2A50608  17.503   3.515   6.593
 3957POPC   C3A50609  17.590   3.665   7.019
 3957POPC   C4A50610  17.533   3.537   7.457
 3957POPC   C1B50611  17.239   3.875   6.300
 3957POPC   C2B50612  17.157   3.879   6.774
 3957POPC   C3B50613  17.090   3.779   7.228
 3957POPC   C4B50614  17.229   3.961   7.635
 3958POPC   NC350615  34.322  44.901   5.347
 3958POPC   PO450616  34.897  44.452   5.494
 3958POPC   GL150617  34.664  44.528   5.878
 3958POPC   GL250618  34.480  44.821   5.842
 3958POPC   C1A50619  34.565  44.490   6.331
 3958POPC   D2A50620  34.773  44.545   6.748
 3958POPC   C3A50621  34.675  44.314   7.108
 3958POPC   C4A50622  34.503  44.453   7.488
 3958POPC   C1B50623  34.658  44.996   6.218
 3958POPC   C2B50624  34.467  44.975   6.629
 3958POPC   C3B50625  34.469  44.843   7.069
 3958POPC   C4B50626  34.481  44.995   7.505
 3959POPC   NC350627  21.076  22.765   5.560
 3959POPC   PO450628  20.905  23.164   5.046
 3959POPC   GL150629  21.342  23.195   5.392
 3959POPC   GL250630  21.572  22.882   5.573
 3959POPC   C1A50631  21.435  23.247   5.885
 3959POPC   D2A50632  21.301  23.141   6.322
 3959POPC   C3A50633  21.412  23.173   6.738
 3959POPC   C4A50634  21.342  23.186   7.156
 3959POPC   C1B50635  21.569  22.792   6.054
 3959POPC   C2B50636  21.663  22.764   6.518
 3959POPC   C3B50637  21.585  22.725   6.981
 3959POPC   C4B50638  21.802  23.008   7.278
 3960POPC   NC350639   5.153  15.048   5.571
 3960POPC   PO450640   4.844  15.626   5.575
 3960POPC   GL150641   5.147  15.408   5.908
 3960POPC   GL250642   4.906  15.131   6.005
 3960POPC   C1A50643   5.309  15.012   6.250
 3960POPC   D2A50644   5.020  14.919   6.581
 3960POPC   C3A50645   5.138  14.988   6.999
 3960POPC   C4A50646   4.945  15.205   7.315
 3960POPC   C1B50647   4.981  15.415   6.375
 3960POPC   C2B50648   4.936  15.424   6.809
 3960POPC   C3B50649   4.604  15.487   7.075
 3960POPC   C4B50650   4.577  15.455   7.566
 3961POPC   NC350651  38.626  10.015   4.951
 3961POPC   PO450652  38.349  10.515   5.409
 3961POPC   GL150653  38.408  10.653   5.809
 3961POPC   GL250654  38.704  10.481   5.866
 3961POPC   C1A50655  38.526  10.759   6.251
 3961POPC   D2A50656  38.259  10.612   6.583
 3961POPC   C3A50657  38.380  10.743   6.989
 3961POPC   C4A50658  38.286  10.442   7.310
 3961POPC   C1B50659  38.818  10.332   6.253
 3961POPC   C2B50660  38.753  10.515   6.648
 3961POPC   C3B50661  38.717  10.345   7.021
 3961POPC   C4B50662  38.975  10.215   7.309
 3962POPC   NC350663  25.917  36.451   5.443
 3962POPC   PO450664  26.113  37.096   5.407
 3962POPC   GL150665  26.219  36.846   5.757
 3962POPC   GL250666  26.440  36.598   5.690
 3962POPC   C1A50667  26.071  36.822   6.175
 3962POPC   D2A50668  26.054  37.079   6.552
 3962POPC   C3A50669  25.941  36.854   6.913
 3962POPC   C4A50670  25.659  36.803   7.226
 3962POPC   C1B50671  26.528  36.563   6.153
 3962POPC   C2B50672  26.300  36.546   6.569
 3962POPC   C3B50673  26.453  36.417   6.957
 3962POPC   C4B50674  26.265  36.643   7.273
 3963POPC   NC350675  26.159   0.186   5.245
 3963POPC   PO450676  26.026   0.806   5.448
 3963POPC   GL150677  26.176   0.541   5.799
 3963POPC   GL250678  26.074   0.187   5.780
 3963POPC   C1A50679  26.257   0.389   6.234
 3963POPC   D2A50680  26.242   0.579   6.644
 3963POPC   C3A50681  26.065   0.353   6.986
 3963POPC   C4A50682  26.189   0.256   7.400
 3963POPC   C1B50683  25.844   0.051   6.153
 3963POPC   C2B50684  25.795   0.230   6.564
 3963POPC   C3B50685  25.596   0.125   6.940
 3963POPC   C4B50686  25.866  44.923   7.219
 3964POPC   NC350687   3.835  30.470   5.337
 3964POPC   PO450688   4.317  29.948   5.353
 3964POPC   GL150689   4.267  29.797   5.792
 3964POPC   GL250690   4.286  30.129   5.942
 3964POPC   C1A50691   4.068  29.793   6.248
 3964POPC   D2A50692   4.225  30.028   6.622
 3964POPC   C3A50693   4.105  29.938   7.011
 3964POPC   C4A50694   4.309  29.945   7.429
 3964POPC   C1B50695   4.462  30.343   6.319
 3964POPC   C2B50696   4.463  30.484   6.774
 3964POPC   C3B50697   4.378  30.419   7.226
 3964POPC   C4B50698   4.519  30.328   7.672
 3965POPC   NC350699   8.688  36.111   5.423
 3965POPC   PO450700   9.229  35.703   5.483
 3965POPC   GL150701   9.049  35.929   5.826
 3965POPC   GL250702   9.048  36.263   5.749
 3965POPC   C1A50703   9.043  36.041   6.274
 3965POPC   D2A50704   9.380  36.139   6.601
 3965POPC   C3A50705   9.270  35.905   6.949
 3965POPC   C4A50706   8.875  35.876   7.155
 3965POPC   C1B50707   8.774  36.443   6.055
 3965POPC   C2B50708   8.781  36.502   6.502
 3965POPC   C3B50709   8.756  36.336   6.907
 3965POPC   C4B50710   8.845  36.499   7.300
 3966POPC   NC350711  42.996  32.802   5.536
 3966POPC   PO450712  43.537  33.004   5.209
 3966POPC   GL150713  43.391  33.085   5.669
 3966POPC   GL250714  43.323  33.416   5.765
 3966POPC   C1A50715  43.221  33.003   6.130
 3966POPC   D2A50716  43.392  32.964   6.557
 3966POPC   C3A50717  43.217  32.957   6.982
 3966POPC   C4A50718  43.174  32.810   7.406
 3966POPC   C1B50719  43.588  33.466   6.138
 3966POPC   C2B50720  43.708  33.347   6.514
 3966POPC   C3B50721  43.435  33.399   6.888
 3966POPC   C4B50722  43.445  33.262   7.327
 3967POPC   NC350723   4.177   7.762   5.545
 3967POPC   PO450724   4.014   8.457   5.448
 3967POPC   GL150725   4.133   8.277   5.852
 3967POPC   GL250726   4.455   8.365   6.002
 3967POPC   C1A50727   4.171   8.060   6.277
 3967POPC   D2A50728   4.383   8.122   6.669
 3967POPC   C3A50729   4.156   8.075   7.072
 3967POPC   C4A50730   4.239   8.200   7.494
 3967POPC   C1B50731   4.769   8.443   6.320
 3967POPC   C2B50732   4.811   8.576   6.748
 3967POPC   C3B50733   4.662   8.304   7.068
 3967POPC   C4B50734   4.613   7.858   7.058
 3968POPC   NC350735  38.660  43.333   5.675
 3968POPC   PO450736  38.208  43.331   5.225
 3968POPC   GL150737  38.240  43.040   5.684
 3968POPC   GL250738  38.221  43.270   5.953
 3968POPC   C1A50739  38.466  42.921   6.177
 3968POPC   D2A50740  38.351  43.012   6.609
 3968POPC   C3A50741  38.644  43.142   6.925
 3968POPC   C4A50742  38.578  42.985   7.325
 3968POPC   C1B50743  38.461  43.438   6.334
 3968POPC   C2B50744  38.334  43.524   6.772
 3968POPC   C3B50745  38.319  43.420   7.220
 3968POPC   C4B50746  38.638  43.401   7.596
 3969POPC   NC350747  37.036  32.671   5.373
 3969POPC   PO450748  36.627  32.221   5.121
 3969POPC   GL150749  36.732  32.419   5.674
 3969POPC   GL250750  37.066  32.324   5.816
 3969POPC   C1A50751  36.725  32.333   6.196
 3969POPC   D2A50752  36.588  32.189   6.632
 3969POPC   C3A50753  36.695  32.336   7.066
 3969POPC   C4A50754  36.672  32.161   7.505
 3969POPC   C1B50755  37.194  32.146   6.251
 3969POPC   C2B50756  37.076  32.010   6.700
 3969POPC   C3B50757  37.089  32.034   7.166
 3969POPC   C4B50758  37.128  32.431   7.422
 3970POPC   NC350759  42.122  20.038   5.018
 3970POPC   PO450760  42.417  20.013   5.595
 3970POPC   GL150761  42.289  19.824   5.914
 3970POPC   GL250762  42.543  19.559   5.834
 3970POPC   C1A50763  42.258  19.966   6.351
 3970POPC   D2A50764  42.508  20.054   6.714
 3970POPC   C3A50765  42.236  19.973   7.049
 3970POPC   C4A50766  42.366  19.940   7.463
 3970POPC   C1B50767  42.422  19.504   6.273
 3970POPC   C2B50768  42.310  19.545   6.714
 3970POPC   C3B50769  42.434  19.509   7.153
 3970POPC   C4B50770  42.379  19.476   7.626
 3971POPC   NC350771  12.220  44.958   5.553
 3971POPC   PO450772  11.914  44.426   5.237
 3971POPC   GL150773  11.904  44.580   5.702
 3971POPC   GL250774  12.259  44.440   5.712
 3971POPC   C1A50775  11.883  44.854   6.145
 3971POPC   D2A50776  12.086  44.921   6.550
 3971POPC   C3A50777  11.953  44.856   6.950
 3971POPC   C4A50778  12.197  44.904   7.309
 3971POPC   C1B50779  12.096  44.384   6.138
 3971POPC   C2B50780  11.912  44.228   6.509
 3971POPC   C3B50781  12.135  44.396   6.832
 3971POPC   C4B50782  12.048  44.428   7.247
 3972POPC   NC350783  24.139  32.746   5.641
 3972POPC   PO450784  23.592  33.009   5.321
 3972POPC   GL150785  23.580  33.148   5.755
 3972POPC   GL250786  23.834  32.970   5.976
 3972POPC   C1A50787  23.431  33.170   6.203
 3972POPC   D2A50788  23.624  32.971   6.594
 3972POPC   C3A50789  23.520  33.214   6.980
 3972POPC   C4A50790  23.497  33.201   7.468
 3972POPC   C1B50791  23.990  32.671   6.308
 3972POPC   C2B50792  24.205  32.814   6.668
 3972POPC   C3B50793  24.053  33.145   6.883
 3972POPC   C4B50794  23.861  32.944   7.223
 3973POPC   NC350795  36.820  28.465   5.617
 3973POPC   PO450796  37.131  27.895   5.656
 3973POPC   GL150797  37.061  28.223   5.994
 3973POPC   GL250798  37.107  28.597   6.015
 3973POPC   C1A50799  36.813  28.321   6.353
 3973POPC   D2A50800  36.957  28.189   6.742
 3973POPC   C3A50801  36.730  28.060   7.080
 3973POPC   C4A50802  37.072  27.868   7.242
 3973POPC   C1B50803  37.259  28.572   6.415
 3973POPC   C2B50804  36.968  28.697   6.718
 3973POPC   C3B50805  36.860  28.547   7.111
 3973POPC   C4B50806  36.469  28.557   7.341
 3974POPC   NC350807   9.381  34.389   5.405
 3974POPC   PO450808   8.823  34.792   5.408
 3974POPC   GL150809   8.925  34.627   5.853
 3974POPC   GL250810   9.124  34.323   5.836
 3974POPC   C1A50811   8.805  34.458   6.238
 3974POPC   D2A50812   8.989  34.448   6.609
 3974POPC   C3A50813   8.722  34.527   6.902
 3974POPC   C4A50814   8.865  34.432   7.269
 3974POPC   C1B50815   9.336  34.446   6.208
 3974POPC   C2B50816   9.450  34.253   6.605
 3974POPC   C3B50817   9.353  34.404   7.028
 3974POPC   C4B50818   9.295  34.140   7.404
 3975POPC   NC350819  32.097  16.308   5.504
 3975POPC   PO450820  31.835  15.629   5.466
 3975POPC   GL150821  32.196  15.729   5.727
 3975POPC   GL250822  32.490  15.953   5.619
 3975POPC   C1A50823  32.168  15.877   6.151
 3975POPC   D2A50824  32.131  15.693   6.565
 3975POPC   C3A50825  32.114  15.954   6.906
 3975POPC   C4A50826  31.935  15.767   7.236
 3975POPC   C1B50827  32.614  16.126   6.048
 3975POPC   C2B50828  32.497  16.070   6.508
 3975POPC   C3B50829  32.558  16.217   6.956
 3975POPC   C4B50830  32.499  16.420   7.358
 3976POPC   NC350831  23.374   4.750   5.590
 3976POPC   PO450832  23.735   4.160   5.486
 3976POPC   GL150833  23.724   4.429   5.843
 3976POPC   GL250834  24.039   4.320   5.956
 3976POPC   C1A50835  23.454   4.398   6.240
 3976POPC   D2A50836  23.437   4.118   6.635
 3976POPC   C3A50837  23.358   4.364   6.996
 3976POPC   C4A50838  23.278   4.781   6.956
 3976POPC   C1B50839  23.925   4.270   6.362
 3976POPC   C2B50840  23.795   4.483   6.750
 3976POPC   C3B50841  23.917   4.291   7.155
 3976POPC   C4B50842  24.030   4.441   7.564
 3977POPC   NC350843  40.202  36.869   4.952
 3977POPC   PO450844  39.787  37.101   5.432
 3977POPC   GL150845  39.693  36.814   5.790
 3977POPC   GL250846  39.873  36.464   5.785
 3977POPC   C1A50847  39.752  36.879   6.228
 3977POPC   D2A50848  39.854  37.182   6.529
 3977POPC   C3A50849  40.037  36.969   6.859
 3977POPC   C4A50850  39.847  36.899   7.248
 3977POPC   C1B50851  39.768  36.362   6.238
 3977POPC   C2B50852  39.835  36.507   6.696
 3977POPC   C3B50853  39.738  36.397   7.152
 3977POPC   C4B50854  39.750  36.568   7.637
 3978POPC   NC350855  42.282  23.118   5.415
 3978POPC   PO450856  42.755  22.583   5.332
 3978POPC   GL150857  42.541  22.609   5.775
 3978POPC   GL250858  42.176  22.750   5.793
 3978POPC   C1A50859  42.455  22.722   6.212
 3978POPC   D2A50860  42.414  22.921   6.614
 3978POPC   C3A50861  42.463  22.674   6.999
 3978POPC   C4A50862  42.782  22.754   7.313
 3978POPC   C1B50863  41.938  22.785   6.227
 3978POPC   C2B50864  41.938  22.758   6.694
 3978POPC   C3B50865  42.066  22.978   7.080
 3978POPC   C4B50866  42.401  23.184   7.273
 3979POPC   NC350867  10.072   2.898   5.464
 3979POPC   PO450868   9.532   3.335   5.237
 3979POPC   GL150869   9.630   3.139   5.681
 3979POPC   GL250870   9.641   2.798   5.746
 3979POPC   C1A50871   9.800   3.046   6.147
 3979POPC   D2A50872   9.781   3.125   6.598
 3979POPC   C3A50873   9.853   2.760   6.870
 3979POPC   C4A50874  10.084   2.485   7.124
 3979POPC   C1B50875   9.513   2.520   6.096
 3979POPC   C2B50876   9.612   2.422   6.498
 3979POPC   C3B50877   9.431   2.474   6.873
 3979POPC   C4B50878   9.618   2.410   7.231
 3980POPC   NC350879  44.657  24.925   5.432
 3980POPC   PO450880  44.832  24.280   5.439
 3980POPC   GL150881  44.782  24.409   5.844
 3980POPC   GL250882  44.428  24.497   5.720
 3980POPC   C1A50883  44.868  24.501   6.325
 3980POPC   D2A50884  44.812  24.747   6.740
 3980POPC   C3A50885  44.649  24.523   7.108
 3980POPC   C4A50886  44.778  24.212   7.430
 3980POPC   C1B50887  44.486  24.753   6.077
 3980POPC   C2B50888  44.366  24.662   6.485
 3980POPC   C3B50889  44.304  24.882   6.855
 3980POPC   C4B50890  44.548  25.023   7.219
 3981POPC   NC350891   7.854  11.855   5.294
 3981POPC   PO450892   7.138  11.879   5.373
 3981POPC   GL150893   7.290  12.090   5.778
 3981POPC   GL250894   7.665  12.160   5.798
 3981POPC   C1A50895   7.423  11.990   6.221
 3981POPC   D2A50896   7.366  12.032   6.664
 3981POPC   C3A50897   7.130  11.736   6.915
 3981POPC   C4A50898   7.350  11.775   7.291
 3981POPC   C1B50899   7.930  12.112   6.202
 3981POPC   C2B50900   7.885  11.945   6.648
 3981POPC   C3B50901   7.707  12.088   7.084
 3981POPC   C4B50902   7.686  12.309   7.542
 3982POPC   NC350903  44.566  23.954   5.247
 3982POPC   PO450904  44.475  23.312   5.350
 3982POPC   GL150905  44.693  23.634   5.642
 3982POPC   GL250906  44.502  23.975   5.744
 3982POPC   C1A50907  44.708  23.683   6.095
 3982POPC   D2A50908  44.549  23.464   6.453
 3982POPC   C3A50909  44.645  23.637   6.807
 3982POPC   C4A50910  44.569  23.547   7.224
 3982POPC   C1B50911  44.449  24.186   6.169
 3982POPC   C2B50912  44.312  24.125   6.621
 3982POPC   C3B50913  44.418  24.065   7.080
 3982POPC   C4B50914  44.285  24.219   7.505
 3983POPC   NC350915  40.542  22.450   5.440
 3983POPC   PO450916  41.045  22.032   5.146
 3983POPC   GL150917  40.810  22.025   5.614
 3983POPC   GL250918  40.980  22.279   5.842
 3983POPC   C1A50919  40.598  22.043   6.091
 3983POPC   D2A50920  40.793  22.237   6.503
 3983POPC   C3A50921  40.608  22.329   6.906
 3983POPC   C4A50922  40.402  22.012   7.151
 3983POPC   C1B50923  41.104  21.966   6.167
 3983POPC   C2B50924  40.996  21.746   6.574
 3983POPC   C3B50925  40.940  21.948   6.993
 3983POPC   C4B50926  41.072  22.366   7.091
 3984POPC   NC350927  40.916   4.758   5.463
 3984POPC   PO450928  40.811   5.426   5.442
 3984POPC   GL150929  40.972   5.187   5.834
 3984POPC   GL250930  41.012   4.818   5.975
 3984POPC   C1A50931  40.999   5.229   6.308
 3984POPC   D2A50932  41.034   4.994   6.714
 3984POPC   C3A50933  40.759   5.101   7.082
 3984POPC   C4A50934  40.455   5.395   7.300
 3984POPC   C1B50935  40.710   4.790   6.363
 3984POPC   C2B50936  40.620   4.649   6.816
 3984POPC   C3B50937  40.681   4.633   7.272
 3984POPC   C4B50938  40.976   4.787   7.600
 3985POPC   NC350939  32.389  15.363   5.363
 3985POPC   PO450940  32.025  14.904   5.410
 3985POPC   GL150941  32.066  15.210   5.749
 3985POPC   GL250942  32.417  15.153   5.816
 3985POPC   C1A50943  32.146  15.366   6.176
 3985POPC   D2A50944  32.274  15.184   6.581
 3985POPC   C3A50945  32.192  15.386   6.997
 3985POPC   C4A50946  32.186  14.984   7.232
 3985POPC   C1B50947  32.659  15.062   6.165
 3985POPC   C2B50948  32.793  15.061   6.582
 3985POPC   C3B50949  32.616  15.116   6.972
 3985POPC   C4B50950  32.607  15.313   7.359
 3986POPC   NC350951  19.734  14.514   4.976
 3986POPC   PO450952  19.880  14.700   5.556
 3986POPC   GL150953  19.798  14.565   5.943
 3986POPC   GL250954  19.716  14.227   5.836
 3986POPC   C1A50955  19.619  14.589   6.359
 3986POPC   D2A50956  19.604  14.751   6.776
 3986POPC   C3A50957  19.930  14.648   7.055
 3986POPC   C4A50958  19.834  14.412   7.400
 3986POPC   C1B50959  19.878  14.145   6.267
 3986POPC   C2B50960  19.843  14.248   6.730
 3986POPC   C3B50961  20.135  14.140   7.094
 3986POPC   C4B50962  20.205  14.124   7.546
 3987POPC   NC350963   2.202   5.681   5.475
 3987POPC   PO450964   1.679   5.952   5.226
 3987POPC   GL150965   1.800   5.991   5.704
 3987POPC   GL250966   1.613   5.720   5.881
 3987POPC   C1A50967   1.947   6.143   6.153
 3987POPC   D2A50968   1.833   5.928   6.557
 3987POPC   C3A50969   1.960   6.053   6.964
 3987POPC   C4A50970   1.808   5.959   7.409
 3987POPC   C1B50971   1.980   5.645   6.145
 3987POPC   C2B50972   2.119   5.489   6.515
 3987POPC   C3B50973   1.978   5.540   6.895
 3987POPC   C4B50974   2.177   5.668   7.244
 3988POPC   NC350975  44.696  37.201   5.387
 3988POPC   PO450976  44.871  36.485   5.386
 3988POPC   GL150977  44.782  36.703   5.791
 3988POPC   GL250978  44.864  37.072   5.841
 3988POPC   C1A50979  44.739  36.530   6.213
 3988POPC   D2A50980  44.793  36.752   6.582
 3988POPC   C3A50981  44.891  36.581   6.940
 3988POPC   C4A50982  44.803  36.798   7.314
 3988POPC   C1B50983  44.604  37.023   6.184
 3988POPC   C2B50984  44.516  37.204   6.563
 3988POPC   C3B50985  44.523  37.046   6.948
 3988POPC   C4B50986  44.607  37.264   7.319
 3989POPC   NC350987  21.918  25.532   5.511
 3989POPC   PO450988  22.449  25.245   5.194
 3989POPC   GL150989  22.443  25.070   5.683
 3989POPC   GL250990  22.079  25.105   5.778
 3989POPC   C1A50991  22.456  25.138   6.169
 3989POPC   D2A50992  22.546  25.143   6.633
 3989POPC   C3A50993  22.429  25.462   6.957
 3989POPC   C4A50994  22.515  25.357   7.398
 3989POPC   C1B50995  21.929  25.257   6.168
 3989POPC   C2B50996  22.054  25.372   6.569
 3989POPC   C3B50997  21.966  25.262   6.975
 3989POPC   C4B50998  21.851  25.591   7.235
 3990POPC   NC350999   9.597   9.589   5.031
 3990POPC   PO451000  10.011   9.864   5.402
 3990POPC   GL151001   9.880   9.743   5.793
 3990POPC   GL251002  10.158   9.502   5.797
 3990POPC   C1A51003   9.615   9.835   6.192
 3990POPC   D2A51004   9.657  10.106   6.603
 3990POPC   C3A51005   9.741   9.895   7.002
 3990POPC   C4A51006   9.533   9.921   7.411
 3990POPC   C1B51007  10.169   9.642   6.198
 3990POPC   C2B51008   9.933   9.653   6.549
 3990POPC   C3B51009   9.890   9.403   6.906
 3990POPC   C4B51010   9.767   9.492   7.330
 3991POPC   NC351011  12.570  27.135   5.571
 3991POPC   PO451012  12.869  26.603   5.468
 3991POPC   GL151013  12.988  26.751   5.845
 3991POPC   GL251014  13.224  27.013   5.859
 3991POPC   C1A51015  12.811  26.836   6.239
 3991POPC   D2A51016  13.006  26.781   6.643
 3991POPC   C3A51017  12.848  26.628   7.022
 3991POPC   C4A51018  12.901  26.634   7.472
 3991POPC   C1B51019  13.153  27.229   6.293
 3991POPC   C2B51020  13.133  27.251   6.777
 3991POPC   C3B51021  13.026  27.093   7.192
 3991POPC   C4B51022  12.810  27.147   7.593
 3992POPC   NC351023  35.673   4.216   5.512
 3992POPC   PO451024  35.335   4.756   5.293
 3992POPC   GL151025  35.307   4.506   5.715
 3992POPC   GL251026  35.636   4.570   5.870
 3992POPC   C1A51027  35.203   4.254   6.144
 3992POPC   D2A51028  35.267   4.315   6.618
 3992POPC   C3A51029  35.023   4.112   6.957
 3992POPC   C4A51030  35.124   4.322   7.256
 3992POPC   C1B51031  35.655   4.502   6.323
 3992POPC   C2B51032  35.725   4.626   6.751
 3992POPC   C3B51033  35.584   4.435   7.108
 3992POPC   C4B51034  35.494   3.968   7.072
 3993POPC   NC351035  42.803   2.452   5.523
 3993POPC   PO451036  43.207   2.909   5.340
 3993POPC   GL151037  43.222   2.703   5.765
 3993POPC   GL251038  43.095   2.408   5.944
 3993POPC   C1A51039  43.114   2.835   6.226
 3993POPC   D2A51040  43.246   2.491   6.501
 3993POPC   C3A51041  43.242   2.644   6.921
 3993POPC   C4A51042  42.991   2.944   7.141
 3993POPC   C1B51043  42.758   2.467   6.247
 3993POPC   C2B51044  42.733   2.589   6.713
 3993POPC   C3B51045  42.778   2.472   7.168
 3993POPC   C4B51046  42.602   2.540   7.626
 3994POPC   NC351047  18.319  10.471   5.159
 3994POPC   PO451048  17.696  10.634   5.407
 3994POPC   GL151049  18.127  10.687   5.653
 3994POPC   GL251050  18.328  10.376   5.717
 3994POPC   C1A51051  18.461  10.770   6.028
 3994POPC   D2A51052  18.511  10.544   6.451
 3994POPC   C3A51053  18.635  10.745   6.862
 3994POPC   C4A51054  18.690  10.537   7.252
 3994POPC   C1B51055  18.068  10.466   6.131
 3994POPC   C2B51056  17.971  10.631   6.550
 3994POPC   C3B51057  18.165  10.557   6.949
 3994POPC   C4B51058  18.108  10.412   7.384
 3995POPC   NC351059  12.045  14.067   5.419
 3995POPC   PO451060  12.027  13.349   5.415
 3995POPC   GL151061  11.971  13.435   5.861
 3995POPC   GL251062  11.839  13.802   5.855
 3995POPC   C1A51063  12.171  13.626   6.244
 3995POPC   D2A51064  12.422  13.732   6.605
 3995POPC   C3A51065  12.266  13.603   7.031
 3995POPC   C4A51066  11.891  13.535   7.308
 3995POPC   C1B51067  11.878  14.041   6.257
 3995POPC   C2B51068  11.911  13.879   6.701
 3995POPC   C3B51069  11.918  14.037   7.118
 3995POPC   C4B51070  11.818  13.985   7.554
 3996POPC   NC351071   5.130  25.509   5.479
 3996POPC   PO451072   5.059  24.904   5.463
 3996POPC   GL151073   4.974  24.991   5.851
 3996POPC   GL251074   5.265  25.199   5.894
 3996POPC   C1A51075   4.922  25.115   6.267
 3996POPC   D2A51076   5.329  25.187   6.453
 3996POPC   C3A51077   5.405  25.229   6.896
 3996POPC   C4A51078   5.268  25.315   7.307
 3996POPC   C1B51079   5.542  25.518   6.084
 3996POPC   C2B51080   5.441  25.814   6.416
 3996POPC   C3B51081   5.401  25.742   6.831
 3996POPC   C4B51082   5.577  25.759   7.219
 3997POPC   NC351083  10.956  15.212   5.195
 3997POPC   PO451084  10.319  15.106   5.478
 3997POPC   GL151085  10.510  14.903   5.827
 3997POPC   GL251086  10.188  14.808   6.015
 3997POPC   C1A51087  10.633  15.011   6.215
 3997POPC   D2A51088  10.400  15.086   6.573
 3997POPC   C3A51089  10.625  15.080   6.941
 3997POPC   C4A51090  10.764  15.206   7.391
 3997POPC   C1B51091  10.172  15.257   6.132
 3997POPC   C2B51092  10.002  15.407   6.517
 3997POPC   C3B51093  10.112  15.351   6.928
 3997POPC   C4B51094  10.257  15.151   7.281
 3998POPC   NC351095   6.320  30.864   5.533
 3998POPC   PO451096   6.502  30.283   5.221
 3998POPC   GL151097   6.596  30.425   5.684
 3998POPC   GL251098   6.819  30.731   5.772
 3998POPC   C1A51099   6.604  30.484   6.172
 3998POPC   D2A51100   6.345  30.567   6.577
 3998POPC   C3A51101   6.530  30.773   6.955
 3998POPC   C4A51102   6.754  30.567   7.297
 3998POPC   C1B51103   6.963  30.951   6.170
 3998POPC   C2B51104   6.926  30.883   6.635
 3998POPC   C3B51105   6.969  30.984   7.098
 3998POPC   C4B51106   6.716  31.062   7.484
 3999POPC   NC351107  25.206  25.613   5.298
 3999POPC   PO451108  25.709  25.147   5.361
 3999POPC   GL151109  25.416  25.271   5.688
 3999POPC   GL251110  25.432  25.616   5.858
 3999POPC   C1A51111  25.467  25.209   6.144
 3999POPC   D2A51112  25.277  25.315   6.531
 3999POPC   C3A51113  25.270  25.038   6.867
 3999POPC   C4A51114  24.996  25.034   7.190
 3999POPC   C1B51115  25.233  25.767   6.263
 3999POPC   C2B51116  24.903  25.658   6.553
 3999POPC   C3B51117  25.030  25.525   6.948
 3999POPC   C4B51118  25.188  25.491   7.345
 4000POPC   NC351119  33.550  33.833   5.481
 4000POPC   PO451120  32.900  33.970   5.315
 4000POPC   GL151121  33.103  34.022   5.705
 4000POPC   GL251122  33.111  33.730   5.758
 4000POPC   C1A51123  33.123  34.091   6.140
 4000POPC   D2A51124  32.914  34.093   6.526
 4000POPC   C3A51125  33.177  34.047   6.872
 4000POPC   C4A51126  33.068  33.947   7.293
 4000POPC   C1B51127  33.260  33.596   6.141
 4000POPC   C2B51128  33.153  33.620   6.555
 4000POPC   C3B51129  33.358  33.575   6.929
 4000POPC   C4B51130  33.170  33.424   7.261
 4001POPC   NC351131  12.370  42.448   5.325
 4001POPC   PO451132  11.753  42.211   5.439
 4001POPC   GL151133  12.026  42.336   5.785
 4001POPC   GL251134  12.310  42.124   5.728
 4001POPC   C1A51135  11.998  42.354   6.238
 4001POPC   D2A51136  11.760  42.407   6.627
 4001POPC   C3A51137  11.816  42.145   7.001
 4001POPC   C4A51138  11.988  42.426   7.330
 4001POPC   C1B51139  12.484  42.244   6.106
 4001POPC   C2B51140  12.385  42.097   6.512
 4001POPC   C3B51141  12.284  42.267   6.887
 4001POPC   C4B51142  12.508  42.367   7.259
 4002POPC   NC351143  37.121  35.504   5.457
 4002POPC   PO451144  36.485  35.137   5.485
 4002POPC   GL151145  36.722  35.349   5.770
 4002POPC   GL251146  37.035  35.164   5.826
 4002POPC   C1A51147  36.830  35.470   6.168
 4002POPC   D2A51148  37.060  35.383   6.498
 4002POPC   C3A51149  36.901  35.317   6.899
 4002POPC   C4A51150  36.615  35.525   7.163
 4002POPC   C1B51151  37.300  35.070   6.178
 4002POPC   C2B51152  37.317  34.989   6.651
 4002POPC   C3B51153  37.466  35.053   7.068
 4002POPC   C4B51154  37.149  35.222   7.382
 4003POPC   NC351155  34.749  11.541   5.328
 4003POPC   PO451156  34.360  10.998   5.570
 4003POPC   GL151157  34.477  11.292   5.876
 4003POPC   GL251158  34.767  11.474   5.822
 4003POPC   C1A51159  34.349  11.294   6.282
 4003POPC   D2A51160  34.154  11.556   6.560
 4003POPC   C3A51161  34.355  11.437   6.918
 4003POPC   C4A51162  34.254  11.254   7.271
 4003POPC   C1B51163  34.876  11.332   6.196
 4003POPC   C2B51164  34.759  11.516   6.562
 4003POPC   C3B51165  34.892  11.412   6.943
 4003POPC   C4B51166  34.731  11.513   7.310
 4004POPC   NC351167  43.321  21.246   5.444
 4004POPC   PO451168  43.962  21.104   5.336
 4004POPC   GL151169  43.823  21.336   5.731
 4004POPC   GL251170  43.838  21.694   5.902
 4004POPC   C1A51171  43.830  21.275   6.192
 4004POPC   D2A51172  43.854  21.127   6.624
 4004POPC   C3A51173  44.249  21.145   6.860
 4004POPC   C4A51174  44.124  21.383   7.207
 4004POPC   C1B51175  43.629  21.750   6.296
 4004POPC   C2B51176  43.652  21.637   6.742
 4004POPC   C3B51177  43.648  21.576   7.193
 4004POPC   C4B51178  43.926  21.679   7.585
 4005POPC   NC351179  38.697  19.712   5.344
 4005POPC   PO451180  38.130  19.928   5.377
 4005POPC   GL151181  38.199  19.786   5.777
 4005POPC   GL251182  38.555  19.777   5.850
 4005POPC   C1A51183  38.171  19.848   6.204
 4005POPC   D2A51184  38.428  19.935   6.556
 4005POPC   C3A51185  38.201  19.799   6.902
 4005POPC   C4A51186  38.182  19.579   7.311
 4005POPC   C1B51187  38.725  20.133   6.120
 4005POPC   C2B51188  38.945  20.231   6.528
 4005POPC   C3B51189  38.796  20.232   6.961
 4005POPC   C4B51190  38.593  19.873   7.205
 4006POPC   NC351191   6.576  16.189   5.369
 4006POPC   PO451192   7.067  15.729   5.470
 4006POPC   GL151193   6.919  16.046   5.750
 4006POPC   GL251194   6.599  15.869   5.787
 4006POPC   C1A51195   6.713  16.190   6.160
 4006POPC   D2A51196   6.625  15.896   6.495
 4006POPC   C3A51197   6.544  16.079   6.910
 4006POPC   C4A51198   6.803  16.146   7.284
 4006POPC   C1B51199   6.689  15.507   6.098
 4006POPC   C2B51200   6.754  15.375   6.522
 4006POPC   C3B51201   6.543  15.555   6.880
 4006POPC   C4B51202   6.542  15.704   7.280
 4007POPC   NC351203   9.115  23.994   5.363
 4007POPC   PO451204   8.919  23.328   5.305
 4007POPC   GL151205   9.011  23.588   5.716
 4007POPC   GL251206   9.233  23.916   5.833
 4007POPC   C1A51207   8.865  23.754   6.137
 4007POPC   D2A51208   9.035  23.906   6.520
 4007POPC   C3A51209   8.841  23.784   6.896
 4007POPC   C4A51210   8.690  23.921   7.283
 4007POPC   C1B51211   9.398  23.714   6.182
 4007POPC   C2B51212   9.630  23.679   6.561
 4007POPC   C3B51213   9.389  23.793   6.890
 4007POPC   C4B51214   9.198  23.996   7.218
 4008POPC   NC351215  13.600   4.044   5.564
 4008POPC   PO451216  13.410   4.712   5.503
 4008POPC   GL151217  13.738   4.473   5.835
 4008POPC   GL251218  13.968   4.115   5.886
 4008POPC   C1A51219  13.601   4.258   6.240
 4008POPC   D2A51220  13.481   3.945   6.586
 4008POPC   C3A51221  13.262   4.084   6.978
 4008POPC   C4A51222  13.515   4.165   7.328
 4008POPC   C1B51223  14.026   3.941   6.259
 4008POPC   C2B51224  13.978   4.216   6.592
 4008POPC   C3B51225  13.845   4.122   6.954
 4008POPC   C4B51226  14.009   4.063   7.350
 4009POPC   NC351227  34.717  29.902   5.364
 4009POPC   PO451228  34.229  29.551   5.575
 4009POPC   GL151229  34.621  29.700   5.833
 4009POPC   GL251230  34.717  30.070   5.849
 4009POPC   C1A51231  34.634  29.800   6.298
 4009POPC   D2A51232  34.352  29.795   6.665
 4009POPC   C3A51233  34.516  29.940   7.063
 4009POPC   C4A51234  34.852  29.968   7.326
 4009POPC   C1B51235  34.579  30.298   6.210
 4009POPC   C2B51236  34.665  30.221   6.645
 4009POPC   C3B51237  34.712  30.413   7.030
 4009POPC   C4B51238  34.392  30.383   7.312
 4010POPC   NC351239  33.999   9.728   5.691
 4010POPC   PO451240  33.434  10.131   5.545
 4010POPC   GL151241  33.466   9.812   5.850
 4010POPC   GL251242  33.762   9.669   6.112
 4010POPC   C1A51243  33.285   9.599   6.203
 4010POPC   D2A51244  33.554   9.481   6.552
 4010POPC   C3A51245  33.394   9.626   6.914
 4010POPC   C4A51246  33.654   9.629   7.257
 4010POPC   C1B51247  34.124   9.380   6.210
 4010POPC   C2B51248  34.255   9.247   6.591
 4010POPC   C3B51249  34.057   9.490   6.902
 4010POPC   C4B51250  34.203   9.480   7.297
 4011POPC   NC351251  13.252   3.357   5.512
 4011POPC   PO451252  13.842   3.685   5.409
 4011POPC   GL151253  13.758   3.636   5.849
 4011POPC   GL251254  13.682   3.298   5.851
 4011POPC   C1A51255  13.697   3.571   6.295
 4011POPC   D2A51256  13.903   3.638   6.700
 4011POPC   C3A51257  13.595   3.680   7.041
 4011POPC   C4A51258  13.369   3.683   7.409
 4011POPC   C1B51259  13.830   3.077   6.232
 4011POPC   C2B51260  13.989   3.120   6.657
 4011POPC   C3B51261  13.843   3.239   7.061
 4011POPC   C4B51262  13.649   3.254   7.456
 4012POPC   NC351263  37.908   3.490   5.474
 4012POPC   PO451264  38.569   3.508   5.443
 4012POPC   GL151265  38.543   3.379   5.870
 4012POPC   GL251266  38.207   3.536   5.913
 4012POPC   C1A51267  38.514   3.386   6.311
 4012POPC   D2A51268  38.240   3.609   6.583
 4012POPC   C3A51269  38.424   3.577   6.951
 4012POPC   C4A51270  38.372   3.350   7.298
 4012POPC   C1B51271  38.000   3.852   6.176
 4012POPC   C2B51272  38.018   4.082   6.570
 4012POPC   C3B51273  38.112   3.974   7.017
 4012POPC   C4B51274  38.113   4.116   7.469
 4013POPC   NC351275  42.389  17.065   5.377
 4013POPC   PO451276  42.668  16.509   5.127
 4013POPC   GL151277  42.491  16.534   5.613
 4013POPC   GL251278  42.169  16.726   5.718
 4013POPC   C1A51279  42.484  16.580   6.088
 4013POPC   D2A51280  42.614  16.748   6.477
 4013POPC   C3A51281  42.509  16.635   6.902
 4013POPC   C4A51282  42.377  16.972   7.171
 4013POPC   C1B51283  41.994  16.760   6.169
 4013POPC   C2B51284  42.110  16.575   6.544
 4013POPC   C3B51285  41.982  16.712   6.915
 4013POPC   C4B51286  41.814  16.572   7.266
 4014POPC   NC351287  11.271   0.263   5.474
 4014POPC   PO451288  11.566   0.892   5.369
 4014POPC   GL151289  11.489   0.728   5.768
 4014POPC   GL251290  11.138   0.640   5.817
 4014POPC   C1A51291  11.403   0.808   6.205
 4014POPC   D2A51292  11.199   0.666   6.546
 4014POPC   C3A51293  11.426   0.484   6.859
 4014POPC   C4A51294  11.439   0.641   7.246
 4014POPC   C1B51295  11.317   0.308   6.133
 4014POPC   C2B51296  11.276   0.031   6.515
 4014POPC   C3B51297  11.439  44.961   6.927
 4014POPC   C4B51298  11.252   0.132   7.259
 4015POPC   NC351299   6.877  41.167   5.493
 4015POPC   PO451300   6.275  41.333   5.201
 4015POPC   GL151301   6.364  41.647   5.653
 4015POPC   GL251302   6.697  41.591   5.857
 4015POPC   C1A51303   6.271  41.739   6.151
 4015POPC   D2A51304   6.186  41.441   6.549
 4015POPC   C3A51305   6.551  41.354   6.868
 4015POPC   C4A51306   6.715  41.648   7.215
 4015POPC   C1B51307   6.702  41.512   6.330
 4015POPC   C2B51308   6.674  41.813   6.670
 4015POPC   C3B51309   6.972  42.070   6.901
 4015POPC   C4B51310   7.151  41.915   7.276
 4016POPC   NC351311   4.221  27.839   5.323
 4016POPC   PO451312   4.779  27.672   5.669
 4016POPC   GL151313   4.313  27.545   5.747
 4016POPC   GL251314   4.128  27.206   5.797
 4016POPC   C1A51315   4.071  27.597   6.116
 4016POPC   D2A51316   4.243  27.668   6.523
 4016POPC   C3A51317   3.972  27.853   6.821
 4016POPC   C4A51318   4.034  27.751   7.221
 4016POPC   C1B51319   4.366  27.170   6.196
 4016POPC   C2B51320   4.386  27.135   6.635
 4016POPC   C3B51321   4.410  27.395   6.964
 4016POPC   C4B51322   4.262  27.325   7.317
 4017POPC   NC351323  41.798  28.539   5.277
 4017POPC   PO451324  41.229  28.108   5.209
 4017POPC   GL151325  41.459  28.271   5.608
 4017POPC   GL251326  41.340  28.132   5.915
 4017POPC   C1A51327  41.685  28.507   5.995
 4017POPC   D2A51328  41.841  28.479   6.443
 4017POPC   C3A51329  41.596  28.460   6.829
 4017POPC   C4A51330  41.824  28.463   7.218
 4017POPC   C1B51331  41.651  28.033   6.230
 4017POPC   C2B51332  41.479  27.939   6.620
 4017POPC   C3B51333  41.147  28.032   6.899
 4017POPC   C4B51334  41.385  27.930   7.229
 4018POPC   NC351335  37.152  10.167   5.559
 4018POPC   PO451336  36.948   9.581   5.275
 4018POPC   GL151337  36.767   9.594   5.723
 4018POPC   GL251338  36.683   9.930   5.726
 4018POPC   C1A51339  36.867   9.524   6.197
 4018POPC   D2A51340  37.092   9.403   6.637
 4018POPC   C3A51341  37.009   9.504   7.105
 4018POPC   C4A51342  37.199   9.457   7.567
 4018POPC   C1B51343  36.834  10.041   6.129
 4018POPC   C2B51344  37.010   9.919   6.531
 4018POPC   C3B51345  37.000  10.149   6.911
 4018POPC   C4B51346  36.701  10.012   7.154
 4019POPC   NC351347  32.318  29.719   5.323
 4019POPC   PO451348  31.830  30.076   5.408
 4019POPC   GL151349  32.051  29.929   5.742
 4019POPC   GL251350  32.199  30.236   5.833
 4019POPC   C1A51351  32.087  29.625   6.097
 4019POPC   D2A51352  32.273  29.645   6.515
 4019POPC   C3A51353  32.131  29.555   6.938
 4019POPC   C4A51354  32.415  29.722   7.228
 4019POPC   C1B51355  32.327  30.087   6.215
 4019POPC   C2B51356  32.281  30.305   6.579
 4019POPC   C3B51357  32.345  30.157   6.973
 4019POPC   C4B51358  32.244  30.384   7.344
 4020POPC   NC351359  32.852  25.333   5.352
 4020POPC   PO451360  33.537  25.080   5.332
 4020POPC   GL151361  33.197  25.067   5.661
 4020POPC   GL251362  33.103  25.426   5.780
 4020POPC   C1A51363  33.222  25.074   6.129
 4020POPC   D2A51364  33.318  25.375   6.477
 4020POPC   C3A51365  33.181  25.144   6.845
 4020POPC   C4A51366  33.183  24.993   7.283
 4020POPC   C1B51367  32.895  25.499   6.192
 4020POPC   C2B51368  32.846  25.499   6.652
 4020POPC   C3B51369  33.009  25.604   7.058
 4020POPC   C4B51370  32.754  25.606   7.449
 4021POPC   NC351371   5.329   1.241   5.364
 4021POPC   PO451372   5.974   1.266   5.340
 4021POPC   GL151373   5.762   1.138   5.700
 4021POPC   GL251374   6.114   1.097   5.852
 4021POPC   C1A51375   5.686   1.150   6.149
 4021POPC   D2A51376   5.960   1.294   6.508
 4021POPC   C3A51377   5.753   1.495   6.865
 4021POPC   C4A51378   5.797   1.309   7.253
 4021POPC   C1B51379   6.338   0.927   6.206
 4021POPC   C2B51380   6.283   0.872   6.666
 4021POPC   C3B51381   6.262   0.831   7.120
 4021POPC   C4B51382   6.233   0.781   7.572
 4022POPC   NC351383  16.662   7.958   5.440
 4022POPC   PO451384  17.097   8.441   5.509
 4022POPC   GL151385  17.049   8.277   5.885
 4022POPC   GL251386  16.712   8.273   5.844
 4022POPC   C1A51387  16.990   8.254   6.318
 4022POPC   D2A51388  16.750   8.233   6.662
 4022POPC   C3A51389  16.923   8.158   7.050
 4022POPC   C4A51390  16.735   7.805   7.186
 4022POPC   C1B51391  16.485   8.264   6.200
 4022POPC   C2B51392  16.339   8.518   6.537
 4022POPC   C3B51393  16.314   8.329   6.901
 4022POPC   C4B51394  16.459   8.233   7.267
 4023POPC   NC351395  24.228  10.791   5.313
 4023POPC   PO451396  24.251  11.431   5.342
 4023POPC   GL151397  24.384  11.314   5.731
 4023POPC   GL251398  24.154  11.505   5.881
 4023POPC   C1A51399  24.381  11.161   6.179
 4023POPC   D2A51400  24.236  11.248   6.610
 4023POPC   C3A51401  24.528  11.115   6.994
 4023POPC   C4A51402  24.833  11.021   7.353
 4023POPC   C1B51403  24.344  11.673   6.264
 4023POPC   C2B51404  24.421  11.755   6.706
 4023POPC   C3B51405  24.200  11.498   7.040
 4023POPC   C4B51406  24.233  11.317   7.456
 4024POPC   NC351407  34.177  42.385   5.218
 4024POPC   PO451408  34.777  42.213   5.279
 4024POPC   GL151409  34.519  42.103   5.704
 4024POPC   GL251410  34.137  42.002   5.777
 4024POPC   C1A51411  34.599  42.164   6.193
 4024POPC   D2A51412  34.715  42.412   6.615
 4024POPC   C3A51413  34.624  42.344   7.089
 4024POPC   C4A51414  34.668  42.487   7.558
 4024POPC   C1B51415  34.136  41.949   6.243
 4024POPC   C2B51416  34.342  42.032   6.660
 4024POPC   C3B51417  34.178  42.061   7.097
 4024POPC   C4B51418  34.436  42.056   7.514
 4025POPC   NC351419  27.441  41.133   5.541
 4025POPC   PO451420  27.691  40.665   5.143
 4025POPC   GL151421  27.686  40.621   5.669
 4025POPC   GL251422  27.448  40.759   5.945
 4025POPC   C1A51423  27.916  40.732   6.080
 4025POPC   D2A51424  27.682  40.608   6.455
 4025POPC   C3A51425  27.755  40.792   6.866
 4025POPC   C4A51426  27.739  41.184   7.103
 4025POPC   C1B51427  27.193  40.496   6.214
 4025POPC   C2B51428  27.262  40.360   6.625
 4025POPC   C3B51429  27.286  40.632   6.996
 4025POPC   C4B51430  27.566  40.769   7.354
 4026POPC   NC351431   7.960  34.029   5.263
 4026POPC   PO451432   8.603  33.722   5.282
 4026POPC   GL151433   8.280  33.698   5.645
 4026POPC   GL251434   8.149  34.020   5.788
 4026POPC   C1A51435   8.116  33.605   6.076
 4026POPC   D2A51436   8.015  33.826   6.472
 4026POPC   C3A51437   8.183  33.713   6.873
 4026POPC   C4A51438   8.291  33.627   7.294
 4026POPC   C1B51439   8.448  33.992   6.164
 4026POPC   C2B51440   8.617  34.048   6.581
 4026POPC   C3B51441   8.508  34.075   7.007
 4026POPC   C4B51442   8.444  34.117   7.406
 4027POPC   NC351443   5.540  19.589   5.472
 4027POPC   PO451444   6.026  20.026   5.430
 4027POPC   GL151445   5.877  19.873   5.798
 4027POPC   GL251446   5.537  19.993   5.828
 4027POPC   C1A51447   5.896  19.543   6.118
 4027POPC   D2A51448   6.068  19.510   6.554
 4027POPC   C3A51449   5.994  19.760   6.976
 4027POPC   C4A51450   5.903  19.876   7.434
 4027POPC   C1B51451   5.458  19.782   6.229
 4027POPC   C2B51452   5.569  19.753   6.690
 4027POPC   C3B51453   5.515  19.647   7.151
 4027POPC   C4B51454   5.409  19.800   7.577
 4028POPC   NC351455   2.895  41.594   5.351
 4028POPC   PO451456   2.302  41.602   5.529
 4028POPC   GL151457   2.616  41.450   5.827
 4028POPC   GL251458   2.959  41.529   5.833
 4028POPC   C1A51459   2.621  41.335   6.254
 4028POPC   D2A51460   2.774  41.301   6.669
 4028POPC   C3A51461   2.609  41.551   7.001
 4028POPC   C4A51462   2.489  41.481   7.394
 4028POPC   C1B51463   3.104  41.500   6.224
 4028POPC   C2B51464   3.189  41.619   6.593
 4028POPC   C3B51465   3.125  41.527   7.006
 4028POPC   C4B51466   3.038  41.876   7.286
 4029POPC   NC351467  31.720  11.840   5.529
 4029POPC   PO451468  31.107  12.029   5.429
 4029POPC   GL151469  31.266  11.905   5.812
 4029POPC   GL251470  31.379  12.241   5.841
 4029POPC   C1A51471  31.395  11.818   6.228
 4029POPC   D2A51472  31.635  12.074   6.490
 4029POPC   C3A51473  31.550  12.068   6.912
 4029POPC   C4A51474  31.760  11.982   7.278
 4029POPC   C1B51475  31.128  12.244   6.220
 4029POPC   C2B51476  31.092  12.092   6.605
 4029POPC   C3B51477  31.063  12.268   6.994
 4029POPC   C4B51478  31.196  11.999   7.309
 4030POPC   NC351479  26.610  20.661   5.233
 4030POPC   PO451480  27.231  20.675   5.221
 4030POPC   GL151481  27.104  20.585   5.675
 4030POPC   GL251482  26.744  20.696   5.733
 4030POPC   C1A51483  27.080  20.767   6.114
 4030POPC   D2A51484  26.836  20.884   6.508
 4030POPC   C3A51485  26.782  20.758   6.934
 4030POPC   C4A51486  27.089  20.648   7.257
 4030POPC   C1B51487  26.645  20.517   6.152
 4030POPC   C2B51488  26.810  20.356   6.562
 4030POPC   C3B51489  26.639  20.277   6.973
 4030POPC   C4B51490  26.638  20.514   7.400
 4031POPC   NC351491  44.493   2.560   5.480
 4031POPC   PO451492  44.820   3.204   5.360
 4031POPC   GL151493  44.780   2.910   5.759
 4031POPC   GL251494  44.490   2.769   5.968
 4031POPC   C1A51495  44.934   2.817   6.206
 4031POPC   D2A51496  44.698   2.858   6.587
 4031POPC   C3A51497  44.868   2.711   6.950
 4031POPC   C4A51498  44.719   2.775   7.347
 4031POPC   C1B51499  44.522   2.459   6.304
 4031POPC   C2B51500  44.359   2.491   6.735
 4031POPC   C3B51501  44.534   2.354   7.116
 4031POPC   C4B51502  44.611   2.311   7.546
 4032POPC   NC351503  24.537   2.145   5.454
 4032POPC   PO451504  24.482   1.544   5.156
 4032POPC   GL151505  24.588   1.694   5.687
 4032POPC   GL251506  24.880   1.548   5.845
 4032POPC   C1A51507  24.481   1.911   6.101
 4032POPC   D2A51508  24.352   1.923   6.521
 4032POPC   C3A51509  24.284   2.169   6.885
 4032POPC   C4A51510  24.336   1.988   7.277
 4032POPC   C1B51511  24.970   1.830   6.173
 4032POPC   C2B51512  24.853   1.764   6.578
 4032POPC   C3B51513  24.668   1.817   6.943
 4032POPC   C4B51514  24.837   2.090   7.217
 4033POPC   NC351515  24.020   2.807   5.305
 4033POPC   PO451516  24.643   2.817   5.454
 4033POPC   GL151517  24.492   2.890   5.874
 4033POPC   GL251518  24.201   2.690   5.829
 4033POPC   C1A51519  24.426   2.738   6.308
 4033POPC   D2A51520  24.614   2.384   6.539
 4033POPC   C3A51521  24.669   2.506   6.957
 4033POPC   C4A51522  24.642   2.874   7.212
 4033POPC   C1B51523  23.989   2.449   6.173
 4033POPC   C2B51524  23.898   2.632   6.593
 4033POPC   C3B51525  24.190   2.730   6.917
 4033POPC   C4B51526  24.257   2.491   7.289
 4034POPC   NC351527  20.081  36.355   5.436
 4034POPC   PO451528  19.379  36.490   5.652
 4034POPC   GL151529  19.676  36.296   5.907
 4034POPC   GL251530  19.901  36.043   5.811
 4034POPC   C1A51531  19.663  36.057   6.293
 4034POPC   D2A51532  19.837  36.173   6.697
 4034POPC   C3A51533  19.650  36.077   7.119
 4034POPC   C4A51534  19.707  36.182   7.572
 4034POPC   C1B51535  20.161  36.000   6.181
 4034POPC   C2B51536  20.230  35.853   6.601
 4034POPC   C3B51537  20.148  35.938   7.038
 4034POPC   C4B51538  20.208  36.148   7.442
 4035POPC   NC351539   2.200  23.087   5.463
 4035POPC   PO451540   1.654  22.688   5.273
 4035POPC   GL151541   1.850  22.739   5.704
 4035POPC   GL251542   2.211  22.659   5.731
 4035POPC   C1A51543   1.781  23.006   6.108
 4035POPC   D2A51544   1.694  22.870   6.542
 4035POPC   C3A51545   1.557  23.163   6.839
 4035POPC   C4A51546   1.692  23.007   7.235
 4035POPC   C1B51547   2.123  22.644   6.161
 4035POPC   C2B51548   2.233  22.889   6.526
 4035POPC   C3B51549   2.217  22.824   6.947
 4035POPC   C4B51550   2.112  22.706   7.330
 4036POPC   NC351551   4.216  34.275   5.308
 4036POPC   PO451552   4.732  34.734   5.378
 4036POPC   GL151553   4.521  34.448   5.736
 4036POPC   GL251554   4.141  34.527   5.775
 4036POPC   C1A51555   4.373  34.449   6.205
 4036POPC   D2A51556   4.166  34.524   6.612
 4036POPC   C3A51557   4.414  34.444   6.991
 4036POPC   C4A51558   4.311  34.257   7.423
 4036POPC   C1B51559   4.129  34.880   6.143
 4036POPC   C2B51560   3.986  35.002   6.561
 4036POPC   C3B51561   3.888  34.882   6.986
 4036POPC   C4B51562   3.997  35.065   7.395
 4037POPC   NC351563   6.139  34.965   5.615
 4037POPC   PO451564   6.091  35.622   5.378
 4037POPC   GL151565   5.849  35.540   5.719
 4037POPC   GL251566   5.605  35.308   5.644
 4037POPC   C1A51567   5.897  35.596   6.147
 4037POPC   D2A51568   5.946  35.378   6.533
 4037POPC   C3A51569   5.882  35.623   6.906
 4037POPC   C4A51570   5.909  35.606   7.347
 4037POPC   C1B51571   5.639  35.127   6.086
 4037POPC   C2B51572   5.495  35.144   6.528
 4037POPC   C3B51573   5.760  35.112   6.957
 4037POPC   C4B51574   5.728  35.103   7.436
 4038POPC   NC351575  14.984  20.072   5.643
 4038POPC   PO451576  14.372  19.855   5.336
 4038POPC   GL151577  14.507  19.746   5.741
 4038POPC   GL251578  14.195  19.636   5.883
 4038POPC   C1A51579  14.541  19.622   6.228
 4038POPC   D2A51580  14.515  19.650   6.663
 4038POPC   C3A51581  14.654  20.022   6.863
 4038POPC   C4A51582  14.570  19.916   7.275
 4038POPC   C1B51583  14.287  20.076   6.076
 4038POPC   C2B51584  14.297  20.255   6.524
 4038POPC   C3B51585  14.161  20.130   6.980
 4038POPC   C4B51586  14.161  20.140   7.459
 4039POPC   NC351587  28.504  44.335   5.556
 4039POPC   PO451588  28.102  43.878   5.238
 4039POPC   GL151589  28.043  43.853   5.675
 4039POPC   GL251590  28.394  43.771   5.717
 4039POPC   C1A51591  28.166  44.019   6.113
 4039POPC   D2A51592  28.330  43.877   6.488
 4039POPC   C3A51593  28.123  43.928   6.850
 4039POPC   C4A51594  28.293  43.925   7.242
 4039POPC   C1B51595  28.696  43.631   6.046
 4039POPC   C2B51596  28.714  43.559   6.500
 4039POPC   C3B51597  28.585  43.667   6.908
 4039POPC   C4B51598  28.746  43.680   7.347
 4040POPC   NC351599  15.399   0.849   5.454
 4040POPC   PO451600  14.917   0.283   5.325
 4040POPC   GL151601  15.004   0.419   5.747
 4040POPC   GL251602  15.316   0.507   5.823
 4040POPC   C1A51603  15.000   0.299   6.193
 4040POPC   D2A51604  15.126   0.493   6.603
 4040POPC   C3A51605  15.053   0.312   7.032
 4040POPC   C4A51606  14.999   0.545   7.455
 4040POPC   C1B51607  15.489   0.453   6.231
 4040POPC   C2B51608  15.637   0.355   6.608
 4040POPC   C3B51609  15.517   0.596   6.952
 4040POPC   C4B51610  15.468   0.470   7.326
 4041POPC   NC351611  41.449  39.763   5.427
 4041POPC   PO451612  41.699  40.388   5.138
 4041POPC   GL151613  41.571  40.342   5.647
 4041POPC   GL251614  41.668  40.038   5.799
 4041POPC   C1A51615  41.399  40.313   6.124
 4041POPC   D2A51616  41.151  40.250   6.521
 4041POPC   C3A51617  41.333  40.206   6.962
 4041POPC   C4A51618  41.194  40.300   7.398
 4041POPC   C1B51619  41.537  39.784   6.138
 4041POPC   C2B51620  41.364  39.749   6.541
 4041POPC   C3B51621  41.476  39.588   6.924
 4041POPC   C4B51622  41.618  39.833   7.235
 4042POPC   NC351623  36.721  14.868   5.284
 4042POPC   PO451624  36.978  15.424   5.468
 4042POPC   GL151625  36.776  15.149   5.746
 4042POPC   GL251626  37.002  14.866   5.736
 4042POPC   C1A51627  36.834  15.070   6.206
 4042POPC   D2A51628  36.999  15.257   6.593
 4042POPC   C3A51629  36.732  15.328   6.946
 4042POPC   C4A51630  36.801  15.517   7.317
 4042POPC   C1B51631  37.288  14.839   6.110
 4042POPC   C2B51632  37.166  14.759   6.521
 4042POPC   C3B51633  37.297  14.967   6.886
 4042POPC   C4B51634  37.095  15.064   7.216
 4043POPC   NC351635  19.913   1.193   5.207
 4043POPC   PO451636  19.969   0.556   5.403
 4043POPC   GL151637  19.933   0.700   5.808
 4043POPC   GL251638  19.732   0.408   5.917
 4043POPC   C1A51639  19.740   0.812   6.220
 4043POPC   D2A51640  19.746   0.439   6.505
 4043POPC   C3A51641  19.915   0.488   6.931
 4043POPC   C4A51642  19.614   0.543   7.264
 4043POPC   C1B51643  19.468   0.122   6.163
 4043POPC   C2B51644  19.483  44.949   6.569
 4043POPC   C3B51645  19.568   0.121   6.912
 4043POPC   C4B51646  19.621   0.020   7.283
 4044POPC   NC351647   5.371  22.050   5.480
 4044POPC   PO451648   4.983  22.610   5.502
 4044POPC   GL151649   5.038  22.266   5.821
 4044POPC   GL251650   5.407  22.184   5.955
 4044POPC   C1A51651   5.027  22.344   6.268
 4044POPC   D2A51652   4.974  22.053   6.589
 4044POPC   C3A51653   4.798  22.162   6.943
 4044POPC   C4A51654   4.999  22.328   7.285
 4044POPC   C1B51655   5.456  22.033   6.372
 4044POPC   C2B51656   5.465  22.149   6.805
 4044POPC   C3B51657   5.462  22.095   7.248
 4044POPC   C4B51658   5.236  22.079   7.656
 4045POPC   NC351659  13.873   4.821   5.449
 4045POPC   PO451660  13.607   5.468   5.326
 4045POPC   GL151661  13.582   5.183   5.674
 4045POPC   GL251662  13.889   5.337   5.788
 4045POPC   C1A51663  13.583   4.961   6.092
 4045POPC   D2A51664  13.309   4.833   6.455
 4045POPC   C3A51665  13.505   4.894   6.858
 4045POPC   C4A51666  13.544   4.649   7.211
 4045POPC   C1B51667  14.018   5.339   6.222
 4045POPC   C2B51668  14.128   5.359   6.663
 4045POPC   C3B51669  13.987   5.083   7.033
 4045POPC   C4B51670  13.857   4.947   7.472
 4046POPC   NC351671  10.778   6.190   5.501
 4046POPC   PO451672  10.373   5.752   5.266
 4046POPC   GL151673  10.400   5.886   5.691
 4046POPC   GL251674  10.358   5.586   5.829
 4046POPC   C1A51675  10.542   6.079   6.114
 4046POPC   D2A51676  10.432   6.131   6.574
 4046POPC   C3A51677  10.696   5.956   6.935
 4046POPC   C4A51678  10.631   5.720   7.340
 4046POPC   C1B51679  10.321   5.642   6.270
 4046POPC   C2B51680  10.115   5.695   6.667
 4046POPC   C3B51681  10.211   5.620   7.099
 4046POPC   C4B51682  10.127   5.804   7.529
 4047POPC   NC351683  37.828  34.466   5.449
 4047POPC   PO451684  37.336  34.973   5.430
 4047POPC   GL151685  37.579  34.823   5.803
 4047POPC   GL251686  37.892  35.019   5.867
 4047POPC   C1A51687  37.496  34.599   6.225
 4047POPC   D2A51688  37.670  34.656   6.638
 4047POPC   C3A51689  37.471  34.536   7.013
 4047POPC   C4A51690  37.761  34.473   7.357
 4047POPC   C1B51691  37.989  34.743   6.218
 4047POPC   C2B51692  38.154  34.574   6.635
 4047POPC   C3B51693  38.010  34.788   7.032
 4047POPC   C4B51694  38.019  34.887   7.514
 4048POPC   NC351695  19.419  36.931   5.487
 4048POPC   PO451696  18.919  37.365   5.396
 4048POPC   GL151697  19.106  37.167   5.809
 4048POPC   GL251698  19.026  36.802   5.848
 4048POPC   C1A51699  18.899  37.113   6.239
 4048POPC   D2A51700  18.819  36.918   6.636
 4048POPC   C3A51701  18.910  37.181   6.985
 4048POPC   C4A51702  18.704  37.035   7.328
 4048POPC   C1B51703  19.162  36.670   6.273
 4048POPC   C2B51704  19.320  36.640   6.695
 4048POPC   C3B51705  19.288  36.842   7.089
 4048POPC   C4B51706  19.144  36.827   7.508
 4049POPC   NC351707   0.600  24.122   5.126
 4049POPC   PO451708   0.195  23.685   5.399
 4049POPC   GL151709   0.188  23.640   5.842
 4049POPC   GL251710   0.532  23.677   5.954
 4049POPC   C1A51711   0.182  23.781   6.289
 4049POPC   D2A51712   0.457  23.661   6.606
 4049POPC   C3A51713   0.272  23.565   6.975
 4049POPC   C4A51714  44.965  23.876   7.106
 4049POPC   C1B51715   0.768  23.916   6.272
 4049POPC   C2B51716   0.555  24.168   6.597
 4049POPC   C3B51717   0.469  24.041   7.011
 4049POPC   C4B51718   0.299  24.123   7.411
 4050POPC   NC351719  39.067  38.956   5.329
 4050POPC   PO451720  39.579  39.327   5.337
 4050POPC   GL151721  39.572  39.306   5.792
 4050POPC   GL251722  39.642  38.935   5.758
 4050POPC   C1A51723  39.281  39.181   6.161
 4050POPC   D2A51724  39.049  39.040   6.544
 4050POPC   C3A51725  39.085  39.235   6.957
 4050POPC   C4A51726  38.999  38.994   7.342
 4050POPC   C1B51727  39.770  39.011   6.171
 4050POPC   C2B51728  39.564  39.002   6.568
 4050POPC   C3B51729  39.641  39.096   6.975
 4050POPC   C4B51730  39.454  39.233   7.324
 4051POPC   NC351731  16.072  24.491   5.307
 4051POPC   PO451732  15.420  24.658   5.375
 4051POPC   GL151733  15.658  24.646   5.763
 4051POPC   GL251734  15.702  24.299   5.801
 4051POPC   C1A51735  15.811  24.661   6.218
 4051POPC   D2A51736  16.140  24.466   6.512
 4051POPC   C3A51737  16.110  24.291   6.948
 4051POPC   C4A51738  16.077  24.522   7.344
 4051POPC   C1B51739  15.508  24.252   6.229
 4051POPC   C2B51740  15.655  24.349   6.686
 4051POPC   C3B51741  15.631  24.312   7.146
 4051POPC   C4B51742  15.715  24.255   7.603
 4052POPC   NC351743   9.619  44.095   5.262
 4052POPC   PO451744   9.130  44.146   5.646
 4052POPC   GL151745   9.581  43.990   5.810
 4052POPC   GL251746   9.893  44.219   5.702
 4052POPC   C1A51747   9.681  43.687   6.221
 4052POPC   D2A51748   9.681  43.577   6.711
 4052POPC   C3A51749   9.619  43.934   7.028
 4052POPC   C4A51750   9.487  44.213   7.372
 4052POPC   C1B51751  10.025  44.058   6.113
 4052POPC   C2B51752   9.960  43.999   6.557
 4052POPC   C3B51753  10.122  43.905   6.951
 4052POPC   C4B51754  10.325  44.080   7.252
 4053POPC   NC351755  25.917  42.208   5.212
 4053POPC   PO451756  26.489  42.341   5.306
 4053POPC   GL151757  26.158  42.281   5.658
 4053POPC   GL251758  25.840  42.520   5.601
 4053POPC   C1A51759  26.165  42.158   6.118
 4053POPC   D2A51760  26.283  42.344   6.522
 4053POPC   C3A51761  26.183  42.079   6.885
 4053POPC   C4A51762  26.203  42.266   7.288
 4053POPC   C1B51763  25.848  42.559   6.037
 4053POPC   C2B51764  25.787  42.423   6.466
 4053POPC   C3B51765  25.958  42.548   6.890
 4053POPC   C4B51766  25.782  42.577   7.325
 4054POPC   NC351767  40.983  11.442   5.254
 4054POPC   PO451768  41.571  11.204   5.425
 4054POPC   GL151769  41.539  11.140   5.852
 4054POPC   GL251770  41.891  11.254   5.924
 4054POPC   C1A51771  41.332  11.047   6.235
 4054POPC   D2A51772  41.434  11.354   6.513
 4054POPC   C3A51773  41.396  11.276   6.909
 4054POPC   C4A51774  41.520  11.499   7.264
 4054POPC   C1B51775  41.924  11.366   6.373
 4054POPC   C2B51776  41.925  11.391   6.849
 4054POPC   C3B51777  41.914  11.096   7.187
 4054POPC   C4B51778  41.541  10.977   7.293
 4055POPC   NC351779  40.517   1.509   5.040
 4055POPC   PO451780  40.789   2.032   5.373
 4055POPC   GL151781  40.791   1.964   5.818
 4055POPC   GL251782  40.853   2.287   5.968
 4055POPC   C1A51783  40.958   1.889   6.252
 4055POPC   D2A51784  40.989   2.089   6.612
 4055POPC   C3A51785  40.929   1.841   6.952
 4055POPC   C4A51786  40.585   1.923   7.211
 4055POPC   C1B51787  40.558   2.219   6.320
 4055POPC   C2B51788  40.527   2.222   6.774
 4055POPC   C3B51789  40.836   2.341   7.070
 4055POPC   C4B51790  40.767   2.310   7.517
 4056POPC   NC351791   0.597  38.517   5.559
 4056POPC   PO451792   0.107  37.998   5.420
 4056POPC   GL151793   0.272  38.176   5.787
 4056POPC   GL251794   0.612  38.143   5.900
 4056POPC   C1A51795   0.287  38.399   6.167
 4056POPC   D2A51796   0.180  38.613   6.506
 4056POPC   C3A51797   0.432  38.426   6.821
 4056POPC   C4A51798   0.346  38.488   7.217
 4056POPC   C1B51799   0.587  37.963   6.298
 4056POPC   C2B51800   0.732  37.887   6.732
 4056POPC   C3B51801   0.707  38.082   7.134
 4056POPC   C4B51802   0.679  38.300   7.531
 4057POPC   NC351803  27.077  34.472   5.483
 4057POPC   PO451804  26.514  34.369   5.372
 4057POPC   GL151805  26.672  34.261   5.824
 4057POPC   GL251806  27.012  34.286   5.958
 4057POPC   C1A51807  26.593  34.333   6.301
 4057POPC   D2A51808  26.628  34.742   6.593
 4057POPC   C3A51809  26.736  34.644   7.007
 4057POPC   C4A51810  26.489  34.262   7.072
 4057POPC   C1B51811  26.989  34.649   6.250
 4057POPC   C2B51812  27.153  34.626   6.660
 4057POPC   C3B51813  27.152  34.341   7.004
 4057POPC   C4B51814  27.256  34.333   7.419
 4058POPC   NC351815  14.106  41.551   5.245
 4058POPC   PO451816  13.500  41.558   5.413
 4058POPC   GL151817  13.826  41.557   5.695
 4058POPC   GL251818  13.940  41.903   5.794
 4058POPC   C1A51819  13.747  41.492   6.119
 4058POPC   D2A51820  13.888  41.408   6.494
 4058POPC   C3A51821  13.661  41.511   6.847
 4058POPC   C4A51822  13.823  41.612   7.209
 4058POPC   C1B51823  13.562  41.978   6.046
 4058POPC   C2B51824  13.571  41.914   6.495
 4058POPC   C3B51825  13.664  42.020   6.920
 4058POPC   C4B51826  13.392  41.902   7.252
 4059POPC   NC351827   9.709  41.968   5.443
 4059POPC   PO451828   9.212  41.447   5.437
 4059POPC   GL151829   9.561  41.431   5.779
 4059POPC   GL251830   9.741  41.741   5.911
 4059POPC   C1A51831   9.725  41.334   6.203
 4059POPC   D2A51832   9.910  41.597   6.532
 4059POPC   C3A51833   9.717  41.569   6.930
 4059POPC   C4A51834   9.792  41.222   7.225
 4059POPC   C1B51835   9.483  41.780   6.301
 4059POPC   C2B51836   9.212  41.757   6.646
 4059POPC   C3B51837   9.323  41.909   7.071
 4059POPC   C4B51838   9.546  42.050   7.469
 4060POPC   NC351839  24.152  17.797   5.464
 4060POPC   PO451840  23.406  17.583   5.545
 4060POPC   GL151841  23.721  17.613   5.848
 4060POPC   GL251842  23.924  17.368   5.720
 4060POPC   C1A51843  23.654  17.282   6.173
 4060POPC   D2A51844  23.660  17.094   6.581
 4060POPC   C3A51845  23.533  17.378   6.926
 4060POPC   C4A51846  23.337  17.417   7.329
 4060POPC   C1B51847  24.143  17.339   6.127
 4060POPC   C2B51848  24.166  17.214   6.563
 4060POPC   C3B51849  23.984  17.160   6.977
 4060POPC   C4B51850  23.855  17.392   7.360
 4061POPC   NC351851  20.983  20.447   5.315
 4061POPC   PO451852  21.546  20.723   5.305
 4061POPC   GL151853  21.383  20.589   5.710
 4061POPC   GL251854  21.684  20.415   5.785
 4061POPC   C1A51855  21.150  20.648   6.138
 4061POPC   D2A51856  21.182  20.903   6.542
 4061POPC   C3A51857  21.094  20.717   6.963
 4061POPC   C4A51858  21.305  20.661   7.366
 4061POPC   C1B51859  21.604  20.425   6.230
 4061POPC   C2B51860  21.354  20.414   6.626
 4061POPC   C3B51861  21.477  20.302   7.052
 4061POPC   C4B51862  21.568  20.127   7.465
 4062POPC   NC351863   8.553  35.149   5.368
 4062POPC   PO451864   7.895  35.244   5.467
 4062POPC   GL151865   8.020  35.217   5.840
 4062POPC   GL251866   8.303  35.402   5.813
 4062POPC   C1A51867   8.070  35.300   6.262
 4062POPC   D2A51868   8.257  35.409   6.618
 4062POPC   C3A51869   8.073  35.198   6.916
 4062POPC   C4A51870   8.218  35.323   7.262
 4062POPC   C1B51871   8.574  35.330   6.202
 4062POPC   C2B51872   8.793  35.321   6.584
 4062POPC   C3B51873   8.639  35.304   6.985
 4062POPC   C4B51874   8.695  35.466   7.394
 4063POPC   NC351875  26.220  18.367   5.259
 4063POPC   PO451876  25.521  18.481   5.251
 4063POPC   GL151877  25.789  18.495   5.637
 4063POPC   GL251878  25.982  18.175   5.719
 4063POPC   C1A51879  25.939  18.544   6.090
 4063POPC   D2A51880  26.129  18.307   6.443
 4063POPC   C3A51881  26.041  18.322   6.891
 4063POPC   C4A51882  26.377  18.411   7.176
 4063POPC   C1B51883  25.895  17.953   6.148
 4063POPC   C2B51884  26.046  17.823   6.591
 4063POPC   C3B51885  26.294  17.889   6.989
 4063POPC   C4B51886  26.134  18.042   7.418
 4064POPC   NC351887  43.642  25.341   5.304
 4064POPC   PO451888  44.199  24.976   5.390
 4064POPC   GL151889  43.994  25.083   5.768
 4064POPC   GL251890  44.116  25.418   5.842
 4064POPC   C1A51891  44.097  25.050   6.216
 4064POPC   D2A51892  43.856  24.980   6.567
 4064POPC   C3A51893  43.872  25.266   6.908
 4064POPC   C4A51894  44.017  25.133   7.289
 4064POPC   C1B51895  44.173  25.562   6.292
 4064POPC   C2B51896  44.119  25.794   6.687
 4064POPC   C3B51897  44.121  25.717   7.140
 4064POPC   C4B51898  43.993  25.572   7.543
 4065POPC   NC351899  29.406   7.054   5.452
 4065POPC   PO451900  28.819   6.634   5.427
 4065POPC   GL151901  29.031   6.601   5.812
 4065POPC   GL251902  29.138   6.921   5.850
 4065POPC   C1A51903  29.271   6.610   6.215
 4065POPC   D2A51904  29.423   6.802   6.579
 4065POPC   C3A51905  29.086   6.683   6.843
 4065POPC   C4A51906  29.139   6.352   7.116
 4065POPC   C1B51907  28.866   6.944   6.198
 4065POPC   C2B51908  28.617   6.880   6.556
 4065POPC   C3B51909  28.643   7.005   6.974
 4065POPC   C4B51910  28.891   6.829   7.302
 4066POPC   NC351911  16.946   2.172   5.444
 4066POPC   PO451912  16.311   1.956   5.324
 4066POPC   GL151913  16.424   1.966   5.771
 4066POPC   GL251914  16.235   1.651   5.884
 4066POPC   C1A51915  16.590   2.255   6.127
 4066POPC   D2A51916  16.687   2.360   6.592
 4066POPC   C3A51917  16.444   2.177   6.962
 4066POPC   C4A51918  16.405   2.123   7.444
 4066POPC   C1B51919  16.478   1.672   6.264
 4066POPC   C2B51920  16.370   1.710   6.715
 4066POPC   C3B51921  16.570   1.703   7.129
 4066POPC   C4B51922  16.422   1.593   7.526
 4067POPC   NC351923  14.862  17.242   5.253
 4067POPC   PO451924  15.171  16.725   5.394
 4067POPC   GL151925  15.287  16.907   5.765
 4067POPC   GL251926  14.974  16.868   5.869
 4067POPC   C1A51927  15.525  16.778   6.135
 4067POPC   D2A51928  15.435  16.592   6.538
 4067POPC   C3A51929  15.303  16.749   6.936
 4067POPC   C4A51930  15.449  16.656   7.310
 4067POPC   C1B51931  15.034  16.611   6.200
 4067POPC   C2B51932  14.917  16.762   6.593
 4067POPC   C3B51933  14.776  16.770   6.993
 4067POPC   C4B51934  14.949  16.695   7.345
 4068POPC   NC351935  32.883   0.442   5.498
 4068POPC   PO451936  32.190   0.532   5.359
 4068POPC   GL151937  32.390   0.384   5.772
 4068POPC   GL251938  32.360   0.721   5.899
 4068POPC   C1A51939  32.269   0.255   6.237
 4068POPC   D2A51940  32.104   0.039   6.651
 4068POPC   C3A51941  32.189   0.295   7.028
 4068POPC   C4A51942  32.041   0.716   7.157
 4068POPC   C1B51943  32.546   0.688   6.320
 4068POPC   C2B51944  32.480   0.631   6.762
 4068POPC   C3B51945  32.563   0.644   7.192
 4068POPC   C4B51946  32.735   0.620   7.587
 4069POPC   NC351947  22.337  31.380   5.317
 4069POPC   PO451948  21.854  31.576   5.663
 4069POPC   GL151949  22.243  31.379   5.832
 4069POPC   GL251950  22.508  31.640   5.754
 4069POPC   C1A51951  22.268  31.202   6.272
 4069POPC   D2A51952  22.151  31.406   6.675
 4069POPC   C3A51953  22.044  31.264   7.104
 4069POPC   C4A51954  21.754  31.238   7.506
 4069POPC   C1B51955  22.396  31.735   6.207
 4069POPC   C2B51956  22.382  31.853   6.671
 4069POPC   C3B51957  22.098  31.787   7.026
 4069POPC   C4B51958  21.687  31.718   7.233
 4070POPC   NC351959  40.111  12.982   5.527
 4070POPC   PO451960  39.504  12.566   5.445
 4070POPC   GL151961  39.792  12.560   5.828
 4070POPC   GL251962  40.193  12.566   5.860
 4070POPC   C1A51963  39.853  12.761   6.226
 4070POPC   D2A51964  40.002  12.652   6.617
 4070POPC   C3A51965  40.013  12.938   6.965
 4070POPC   C4A51966  39.856  12.762   7.326
 4070POPC   C1B51967  40.383  12.746   6.278
 4070POPC   C2B51968  40.470  12.753   6.749
 4070POPC   C3B51969  40.351  12.599   7.165
 4070POPC   C4B51970  40.302  12.896   7.551
 4071POPC   NC351971   1.965   7.956   5.476
 4071POPC   PO451972   2.321   8.526   5.661
 4071POPC   GL151973   2.127   8.216   5.892
 4071POPC   GL251974   1.780   8.260   5.828
 4071POPC   C1A51975   2.098   7.882   6.184
 4071POPC   D2A51976   1.825   7.816   6.554
 4071POPC   C3A51977   1.923   7.995   6.974
 4071POPC   C4A51978   2.258   7.805   7.210
 4071POPC   C1B51979   1.775   8.497   6.207
 4071POPC   C2B51980   1.657   8.346   6.624
 4071POPC   C3B51981   1.630   8.483   7.065
 4071POPC   C4B51982   1.627   8.270   7.476
 4072POPC   NC351983  10.262  40.513   5.534
 4072POPC   PO451984  10.725  40.930   5.571
 4072POPC   GL151985  10.449  40.925   5.938
 4072POPC   GL251986  10.191  40.642   6.012
 4072POPC   C1A51987  10.426  40.895   6.370
 4072POPC   D2A51988  10.404  40.651   6.726
 4072POPC   C3A51989  10.674  40.764   7.070
 4072POPC   C4A51990  10.757  41.093   7.401
 4072POPC   C1B51991   9.922  40.882   6.304
 4072POPC   C2B51992   9.970  40.998   6.756
 4072POPC   C3B51993  10.170  40.871   7.174
 4072POPC   C4B51994  10.101  40.975   7.626
 4073POPC   NC351995  31.192   4.371   5.402
 4073POPC   PO451996  31.720   4.099   5.701
 4073POPC   GL151997  31.581   4.515   5.888
 4073POPC   GL251998  31.211   4.634   5.859
 4073POPC   C1A51999  31.495   4.579   6.345
 4073POPC   D2A52000  31.628   4.570   6.787
 4073POPC   C3A52001  31.455   4.229   7.038
 4073POPC   C4A52002  31.525   4.090   7.458
 4073POPC   C1B52003  31.124   4.931   6.207
 4073POPC   C2B52004  31.213   4.881   6.658
 4073POPC   C3B52005  31.076   4.587   6.968
 4073POPC   C4B52006  31.158   4.451   7.406
 4074POPC   NC352007   4.703  27.145   5.600
 4074POPC   PO452008   4.210  26.628   5.389
 4074POPC   GL152009   4.160  26.503   5.779
 4074POPC   GL252010   4.366  26.747   5.901
 4074POPC   C1A52011   4.108  26.396   6.193
 4074POPC   D2A52012   4.284  26.688   6.429
 4074POPC   C3A52013   4.267  26.652   6.857
 4074POPC   C4A52014   4.055  26.914   7.116
 4074POPC   C1B52015   4.728  26.701   6.174
 4074POPC   C2B52016   4.871  26.896   6.519
 4074POPC   C3B52017   4.828  27.083   6.892
 4074POPC   C4B52018   4.558  26.904   7.207
 4075POPC   NC352019  34.608  10.561   5.472
 4075POPC   PO452020  34.403   9.938   5.638
 4075POPC   GL152021  34.547  10.170   5.956
 4075POPC   GL252022  34.793  10.425   5.931
 4075POPC   C1A52023  34.534  10.308   6.376
 4075POPC   D2A52024  34.475  10.569   6.709
 4075POPC   C3A52025  34.595  10.338   7.040
 4075POPC   C4A52026  34.932  10.202   7.296
 4075POPC   C1B52027  34.612  10.790   6.191
 4075POPC   C2B52028  34.717  11.013   6.584
 4075POPC   C3B52029  34.617  10.982   7.011
 4075POPC   C4B52030  34.305  10.752   7.174
 4076POPC   NC352031   0.814   0.663   5.529
 4076POPC   PO452032   0.789  44.957   5.554
 4076POPC   GL152033   0.529   0.194   5.827
 4076POPC   GL252034   0.344   0.494   5.710
 4076POPC   C1A52035   0.337   0.110   6.208
 4076POPC   D2A52036   0.129   0.137   6.586
 4076POPC   C3A52037   0.395   0.372   6.844
 4076POPC   C4A52038   0.423   0.318   7.285
 4076POPC   C1B52039   0.441   0.667   6.134
 4076POPC   C2B52040   0.459   0.844   6.560
 4076POPC   C3B52041   0.385   0.844   7.006
 4076POPC   C4B52042   0.697   0.726   7.296
 4077POPC   NC352043  16.135  18.123   5.678
 4077POPC   PO452044  16.281  18.799   5.601
 4077POPC   GL152045  16.049  18.697   5.957
 4077POPC   GL252046  15.675  18.657   5.924
 4077POPC   C1A52047  16.026  18.734   6.400
 4077POPC   D2A52048  16.056  18.372   6.668
 4077POPC   C3A52049  15.978  18.354   7.102
 4077POPC   C4A52050  16.120  17.960   7.293
 4077POPC   C1B52051  15.759  18.327   6.207
 4077POPC   C2B52052  15.625  18.039   6.491
 4077POPC   C3B52053  15.793  17.952   6.841
 4077POPC   C4B52054  15.628  17.902   7.197
 4078POPC   NC352055  10.255  25.058   5.337
 4078POPC   PO452056  10.994  24.969   5.364
 4078POPC   GL152057  10.677  24.929   5.699
 4078POPC   GL252058  10.534  25.244   5.784
 4078POPC   C1A52059  10.613  24.786   6.131
 4078POPC   D2A52060  10.466  25.087   6.460
 4078POPC   C3A52061  10.545  24.997   6.873
 4078POPC   C4A52062  10.594  25.221   7.212
 4078POPC   C1B52063  10.309  25.455   6.145
 4078POPC   C2B52064  10.050  25.424   6.512
 4078POPC   C3B52065  10.088  25.224   6.896
 4078POPC   C4B52066  10.096  25.292   7.312
 4079POPC   NC352067  40.121   0.731   5.527
 4079POPC   PO452068  40.259   0.053   5.474
 4079POPC   GL152069  39.951   0.182   5.824
 4079POPC   GL252070  39.784   0.534   5.839
 4079POPC   C1A52071  40.030   0.329   6.253
 4079POPC   D2A52072  39.966   0.147   6.640
 4079POPC   C3A52073  40.181   0.325   6.964
 4079POPC   C4A52074  40.450   0.542   7.268
 4079POPC   C1B52075  39.880   0.820   6.200
 4079POPC   C2B52076  40.110   0.751   6.566
 4079POPC   C3B52077  40.069   0.816   6.963
 4079POPC   C4B52078  39.964   0.654   7.335
 4080POPC   NC352079   7.080  37.803   5.355
 4080POPC   PO452080   6.847  37.209   5.396
 4080POPC   GL152081   6.561  37.384   5.746
 4080POPC   GL252082   6.778  37.577   5.885
 4080POPC   C1A52083   6.600  37.252   6.239
 4080POPC   D2A52084   6.465  37.332   6.675
 4080POPC   C3A52085   6.536  37.781   6.855
 4080POPC   C4A52086   6.784  37.930   7.235
 4080POPC   C1B52087   7.084  37.430   6.215
 4080POPC   C2B52088   6.965  37.499   6.654
 4080POPC   C3B52089   6.824  37.440   7.089
 4080POPC   C4B52090   6.872  37.541   7.544
 4081POPC   NC352091  31.163  24.635   5.433
 4081POPC   PO452092  31.758  24.417   5.356
 4081POPC   GL152093  31.546  24.483   5.780
 4081POPC   GL252094  31.208  24.333   5.829
 4081POPC   C1A52095  31.620  24.333   6.233
 4081POPC   D2A52096  31.801  24.400   6.671
 4081POPC   C3A52097  31.586  24.419   7.096
 4081POPC   C4A52098  31.470  24.793   7.368
 4081POPC   C1B52099  31.227  24.652   6.169
 4081POPC   C2B52100  31.339  24.634   6.633
 4081POPC   C3B52101  31.121  24.651   7.041
 4081POPC   C4B52102  30.966  24.810   7.448
 4082POPC   NC352103  27.784   8.565   5.594
 4082POPC   PO452104  27.643   7.975   5.310
 4082POPC   GL152105  27.543   8.119   5.741
 4082POPC   GL252106  27.284   7.880   5.778
 4082POPC   C1A52107  27.727   8.237   6.167
 4082POPC   D2A52108  27.861   8.456   6.510
 4082POPC   C3A52109  27.860   8.273   6.886
 4082POPC   C4A52110  27.791   8.389   7.281
 4082POPC   C1B52111  27.355   7.866   6.202
 4082POPC   C2B52112  27.221   7.779   6.616
 4082POPC   C3B52113  27.356   7.892   7.055
 4082POPC   C4B52114  27.293   7.818   7.538
 4083POPC   NC352115  31.450   3.473   5.416
 4083POPC   PO452116  31.845   3.895   5.181
 4083POPC   GL152117  31.898   3.623   5.633
 4083POPC   GL252118  31.730   3.265   5.761
 4083POPC   C1A52119  31.911   3.553   6.137
 4083POPC   D2A52120  31.579   3.642   6.453
 4083POPC   C3A52121  31.452   3.513   6.867
 4083POPC   C4A52122  31.284   3.755   7.192
 4083POPC   C1B52123  31.460   3.247   6.111
 4083POPC   C2B52124  31.431   3.118   6.536
 4083POPC   C3B52125  31.160   3.109   6.895
 4083POPC   C4B52126  31.087   3.306   7.289
 4084POPC   NC352127  19.452  32.076   5.507
 4084POPC   PO452128  18.824  31.671   5.422
 4084POPC   GL152129  18.858  31.714   5.856
 4084POPC   GL252130  19.191  31.786   5.832
 4084POPC   C1A52131  18.792  31.565   6.296
 4084POPC   D2A52132  18.956  31.706   6.706
 4084POPC   C3A52133  18.924  31.473   7.109
 4084POPC   C4A52134  18.778  31.145   7.421
 4084POPC   C1B52135  19.251  31.786   6.258
 4084POPC   C2B52136  19.461  31.823   6.638
 4084POPC   C3B52137  19.314  31.903   7.038
 4084POPC   C4B52138  19.297  31.650   7.425
 4085POPC   NC352139  30.233   2.899   5.297
 4085POPC   PO452140  29.626   2.595   5.244
 4085POPC   GL152141  29.911   2.548   5.577
 4085POPC   GL252142  29.864   2.892   5.668
 4085POPC   C1A52143  29.909   2.523   6.051
 4085POPC   D2A52144  29.983   2.750   6.478
 4085POPC   C3A52145  30.007   2.587   6.893
 4085POPC   C4A52146  29.869   2.625   7.292
 4085POPC   C1B52147  29.946   3.073   6.081
 4085POPC   C2B52148  30.120   3.252   6.480
 4085POPC   C3B52149  30.193   3.066   6.874
 4085POPC   C4B52150  30.074   3.109   7.283
 4086POPC   NC352151  21.468  38.640   5.365
 4086POPC   PO452152  21.011  38.243   5.272
 4086POPC   GL152153  21.175  38.387   5.725
 4086POPC   GL252154  21.540  38.447   5.822
 4086POPC   C1A52155  21.287  38.190   6.164
 4086POPC   D2A52156  21.329  38.371   6.574
 4086POPC   C3A52157  21.596  38.397   6.940
 4086POPC   C4A52158  21.532  38.237   7.375
 4086POPC   C1B52159  21.796  38.776   6.038
 4086POPC   C2B52160  21.849  38.770   6.497
 4086POPC   C3B52161  21.739  38.926   6.919
 4086POPC   C4B52162  21.537  38.768   7.310
 4087POPC   NC352163  34.198  13.729   5.332
 4087POPC   PO452164  34.801  13.709   5.086
 4087POPC   GL152165  34.805  13.747   5.613
 4087POPC   GL252166  34.476  13.697   5.785
 4087POPC   C1A52167  34.858  13.725   6.113
 4087POPC   D2A52168  34.615  13.585   6.513
 4087POPC   C3A52169  34.770  13.718   6.921
 4087POPC   C4A52170  34.681  13.595   7.329
 4087POPC   C1B52171  34.272  13.845   6.204
 4087POPC   C2B52172  34.111  13.822   6.627
 4087POPC   C3B52173  34.275  13.809   7.047
 4087POPC   C4B52174  34.162  13.633   7.456
 4088POPC   NC352175   9.928  39.714   5.376
 4088POPC   PO452176   9.292  39.830   5.671
 4088POPC   GL152177   9.696  39.906   5.884
 4088POPC   GL252178   9.909  40.223   5.829
 4088POPC   C1A52179   9.734  39.929   6.336
 4088POPC   D2A52180   9.574  40.109   6.694
 4088POPC   C3A52181   9.444  39.876   7.055
 4088POPC   C4A52182   9.334  39.895   7.520
 4088POPC   C1B52183  10.154  40.185   6.219
 4088POPC   C2B52184  10.329  40.137   6.640
 4088POPC   C3B52185  10.017  39.989   6.923
 4088POPC   C4B52186   9.877  39.634   7.152
 4089POPC   NC352187  27.556  20.625   4.911
 4089POPC   PO452188  27.617  20.839   5.611
 4089POPC   GL152189  27.547  20.599   5.969
 4089POPC   GL252190  27.642  20.263   5.943
 4089POPC   C1A52191  27.373  20.455   6.391
 4089POPC   D2A52192  27.276  20.425   6.830
 4089POPC   C3A52193  27.613  20.588   7.104
 4089POPC   C4A52194  27.700  21.022   7.163
 4089POPC   C1B52195  27.877  20.409   6.316
 4089POPC   C2B52196  28.113  20.387   6.703
 4089POPC   C3B52197  28.059  20.219   7.095
 4089POPC   C4B52198  27.839  20.233   7.487
 4090POPC   NC352199  10.856   7.875   5.624
 4090POPC   PO452200  10.335   7.404   5.566
 4090POPC   GL152201  10.378   7.470   5.974
 4090POPC   GL252202  10.730   7.599   6.069
 4090POPC   C1A52203  10.433   7.260   6.348
 4090POPC   D2A52204  10.605   7.418   6.714
 4090POPC   C3A52205  10.892   7.219   6.971
 4090POPC   C4A52206  10.603   7.389   7.265
 4090POPC   C1B52207  10.474   7.810   6.394
 4090POPC   C2B52208  10.460   7.895   6.841
 4090POPC   C3B52209  10.532   7.894   7.275
 4090POPC   C4B52210  10.782   7.691   7.651
 4091POPC   NC352211  43.641  26.204   5.361
 4091POPC   PO452212  43.928  25.689   5.192
 4091POPC   GL152213  43.917  25.859   5.660
 4091POPC   GL252214  43.947  26.238   5.764
 4091POPC   C1A52215  43.719  25.702   6.075
 4091POPC   D2A52216  43.527  25.924   6.454
 4091POPC   C3A52217  43.651  25.995   6.877
 4091POPC   C4A52218  43.628  25.670   7.181
 4091POPC   C1B52219  43.979  26.121   6.202
 4091POPC   C2B52220  44.025  26.310   6.607
 4091POPC   C3B52221  44.083  26.202   7.032
 4091POPC   C4B52222  44.133  26.390   7.408
 4092POPC   NC352223  39.606   1.492   5.451
 4092POPC   PO452224  39.046   1.176   5.266
 4092POPC   GL152225  39.275   1.213   5.722
 4092POPC   GL252226  39.400   0.874   5.933
 4092POPC   C1A52227  39.203   1.286   6.143
 4092POPC   D2A52228  38.941   1.135   6.480
 4092POPC   C3A52229  39.153   1.040   6.882
 4092POPC   C4A52230  39.275   1.321   7.212
 4092POPC   C1B52231  39.405   0.898   6.395
 4092POPC   C2B52232  39.655   1.059   6.733
 4092POPC   C3B52233  39.603   0.947   7.150
 4092POPC   C4B52234  39.452   0.999   7.591
 4093POPC   NC352235  27.330  26.210   5.657
 4093POPC   PO452236  27.847  26.106   5.218
 4093POPC   GL152237  27.807  25.964   5.695
 4093POPC   GL252238  27.520  25.753   5.819
 4093POPC   C1A52239  27.815  25.981   6.184
 4093POPC   D2A52240  28.007  25.787   6.582
 4093POPC   C3A52241  27.850  25.954   6.999
 4093POPC   C4A52242  27.562  26.302   7.108
 4093POPC   C1B52243  27.300  25.856   6.219
 4093POPC   C2B52244  27.466  25.817   6.647
 4093POPC   C3B52245  27.341  25.854   7.093
 4093POPC   C4B52246  27.273  25.762   7.550
 4094POPC   NC352247  14.858  21.069   5.600
 4094POPC   PO452248  14.286  21.315   5.358
 4094POPC   GL152249  14.314  21.447   5.787
 4094POPC   GL252250  14.433  21.148   5.862
 4094POPC   C1A52251  14.437  21.504   6.233
 4094POPC   D2A52252  14.471  21.707   6.612
 4094POPC   C3A52253  14.636  21.497   6.963
 4094POPC   C4A52254  14.426  21.436   7.326
 4094POPC   C1B52255  14.571  21.025   6.239
 4094POPC   C2B52256  14.444  21.159   6.645
 4094POPC   C3B52257  14.428  21.001   7.053
 4094POPC   C4B52258  14.414  20.954   7.487
 4095POPC   NC352259   1.551  42.619   5.501
 4095POPC   PO452260   0.993  42.984   5.529
 4095POPC   GL152261   1.356  43.004   5.780
 4095POPC   GL252262   1.484  43.343   5.663
 4095POPC   C1A52263   1.467  42.754   6.162
 4095POPC   D2A52264   1.254  42.815   6.548
 4095POPC   C3A52265   1.348  42.648   6.948
 4095POPC   C4A52266   1.445  42.903   7.300
 4095POPC   C1B52267   1.321  43.404   6.100
 4095POPC   C2B52268   1.081  43.351   6.506
 4095POPC   C3B52269   1.210  43.203   6.918
 4095POPC   C4B52270   1.244  43.371   7.341
 4096POPC   NC352271   3.978  44.625   5.366
 4096POPC   PO452272   4.575  44.915   5.230
 4096POPC   GL152273   4.479  44.755   5.640
 4096POPC   GL252274   4.576  44.398   5.698
 4096POPC   C1A52275   4.480  44.704   6.107
 4096POPC   D2A52276   4.539  44.946   6.499
 4096POPC   C3A52277   4.237  44.900   6.820
 4096POPC   C4A52278   4.396  44.905   7.242
 4096POPC   C1B52279   4.781  44.276   6.111
 4096POPC   C2B52280   4.808  44.346   6.550
 4096POPC   C3B52281   4.626  44.558   6.883
 4096POPC   C4B52282   4.706  44.468   7.310
 4097POPC   NC352283  23.371   6.043   5.205
 4097POPC   PO452284  23.269   6.703   5.325
 4097POPC   GL152285  23.312   6.575   5.806
 4097POPC   GL252286  23.465   6.901   5.888
 4097POPC   C1A52287  23.144   6.494   6.214
 4097POPC   D2A52288  22.764   6.626   6.414
 4097POPC   C3A52289  22.770   6.625   6.864
 4097POPC   C4A52290  23.153   6.581   7.109
 4097POPC   C1B52291  23.157   6.995   6.237
 4097POPC   C2B52292  23.157   6.888   6.689
 4097POPC   C3B52293  22.957   7.061   7.119
 4097POPC   C4B52294  22.831   7.011   7.586
 4098POPC   NC352295  40.505  25.583   5.494
 4098POPC   PO452296  41.124  25.095   5.416
 4098POPC   GL152297  40.999  25.035   5.838
 4098POPC   GL252298  40.736  25.270   5.823
 4098POPC   C1A52299  40.912  25.139   6.299
 4098POPC   D2A52300  41.024  25.502   6.573
 4098POPC   C3A52301  41.025  25.377   7.009
 4098POPC   C4A52302  40.985  25.070   7.313
 4098POPC   C1B52303  40.553  25.484   6.181
 4098POPC   C2B52304  40.512  25.392   6.608
 4098POPC   C3B52305  40.340  25.278   6.973
 4098POPC   C4B52306  40.606  25.394   7.309
 4099POPC   NC352307  23.481   2.137   5.389
 4099POPC   PO452308  24.122   1.973   5.577
 4099POPC   GL152309  23.724   2.011   5.844
 4099POPC   GL252310  23.513   1.703   5.808
 4099POPC   C1A52311  23.557   2.134   6.272
 4099POPC   D2A52312  23.866   2.128   6.598
 4099POPC   C3A52313  23.818   1.973   7.026
 4099POPC   C4A52314  23.885   2.112   7.444
 4099POPC   C1B52315  23.577   1.629   6.246
 4099POPC   C2B52316  23.489   1.779   6.672
 4099POPC   C3B52317  23.299   1.590   7.009
 4099POPC   C4B52318  23.652   1.529   7.236
 4100POPC   NC352319  26.932  42.372   5.194
 4100POPC   PO452320  26.921  41.733   5.225
 4100POPC   GL152321  26.974  42.063   5.671
 4100POPC   GL252322  27.069  42.454   5.694
 4100POPC   C1A52323  26.709  42.248   6.095
 4100POPC   D2A52324  26.760  42.544   6.518
 4100POPC   C3A52325  26.596  42.460   6.949
 4100POPC   C4A52326  26.724  42.300   7.359
 4100POPC   C1B52327  27.215  42.256   6.094
 4100POPC   C2B52328  27.010  42.105   6.496
 4100POPC   C3B52329  27.127  42.233   6.901
 4100POPC   C4B52330  27.088  41.967   7.268
 4101POPC   NC352331  21.921  22.149   5.097
 4101POPC   PO452332  22.262  21.816   5.534
 4101POPC   GL152333  22.265  22.137   5.843
 4101POPC   GL252334  22.437  22.437   5.795
 4101POPC   C1A52335  22.152  22.171   6.259
 4101POPC   D2A52336  22.078  22.416   6.610
 4101POPC   C3A52337  22.112  22.235   6.996
 4101POPC   C4A52338  22.066  22.589   7.239
 4101POPC   C1B52339  22.561  22.598   6.157
 4101POPC   C2B52340  22.601  22.475   6.550
 4101POPC   C3B52341  22.493  22.602   6.928
 4101POPC   C4B52342  22.592  22.584   7.337
 4102POPC   NC352343  16.278  16.386   5.550
 4102POPC   PO452344  16.736  16.862   5.290
 4102POPC   GL152345  16.762  16.988   5.720
 4102POPC   GL252346  16.511  16.759   5.831
 4102POPC   C1A52347  16.768  17.025   6.181
 4102POPC   D2A52348  16.493  16.869   6.521
 4102POPC   C3A52349  16.750  16.736   6.864
 4102POPC   C4A52350  16.641  16.804   7.289
 4102POPC   C1B52351  16.461  16.474   6.187
 4102POPC   C2B52352  16.431  16.324   6.614
 4102POPC   C3B52353  16.321  16.525   6.995
 4102POPC   C4B52354  16.386  16.360   7.395
 4103POPC   NC352355  40.929  28.481   5.159
 4103POPC   PO452356  40.632  28.049   5.527
 4103POPC   GL152357  40.857  28.284   5.798
 4103POPC   GL252358  40.765  28.623   5.744
 4103POPC   C1A52359  40.777  28.243   6.233
 4103POPC   D2A52360  40.491  28.086   6.542
 4103POPC   C3A52361  40.645  28.235   6.911
 4103POPC   C4A52362  40.846  28.218   7.306
 4103POPC   C1B52363  40.553  28.705   6.175
 4103POPC   C2B52364  40.393  28.581   6.597
 4103POPC   C3B52365  40.510  28.719   7.028
 4103POPC   C4B52366  40.782  28.717   7.427
 4104POPC   NC352367   4.860   2.113   5.443
 4104POPC   PO452368   5.478   2.397   5.344
 4104POPC   GL152369   5.257   2.163   5.745
 4104POPC   GL252370   4.970   2.342   5.887
 4104POPC   C1A52371   5.196   1.875   6.131
 4104POPC   D2A52372   5.288   1.596   6.518
 4104POPC   C3A52373   5.150   1.805   6.890
 4104POPC   C4A52374   5.230   2.069   7.220
 4104POPC   C1B52375   5.150   2.365   6.272
 4104POPC   C2B52376   5.028   2.270   6.685
 4104POPC   C3B52377   4.877   2.378   7.092
 4104POPC   C4B52378   4.869   2.196   7.554
 4105POPC   NC352379  37.616  44.271   5.512
 4105POPC   PO452380  37.487  43.686   5.301
 4105POPC   GL152381  37.657  43.808   5.718
 4105POPC   GL252382  37.877  43.592   5.803
 4105POPC   C1A52383  37.644  43.949   6.174
 4105POPC   D2A52384  37.366  43.827   6.582
 4105POPC   C3A52385  37.508  43.811   7.051
 4105POPC   C4A52386  37.973  43.835   7.217
 4105POPC   C1B52387  37.959  43.574   6.275
 4105POPC   C2B52388  37.852  43.679   6.709
 4105POPC   C3B52389  37.817  43.385   7.097
 4105POPC   C4B52390  37.867  43.467   7.564
 4106POPC   NC352391  11.742  36.086   5.633
 4106POPC   PO452392  11.140  36.348   5.425
 4106POPC   GL152393  11.108  36.224   5.825
 4106POPC   GL252394  11.060  35.880   5.764
 4106POPC   C1A52395  11.263  36.365   6.197
 4106POPC   D2A52396  11.399  36.102   6.543
 4106POPC   C3A52397  11.340  36.331   6.903
 4106POPC   C4A52398  11.526  36.487   7.249
 4106POPC   C1B52399  11.024  35.892   6.217
 4106POPC   C2B52400  10.879  36.025   6.616
 4106POPC   C3B52401  10.973  35.762   6.951
 4106POPC   C4B52402  11.193  36.012   7.265
 4107POPC   NC352403  37.418  41.868   5.449
 4107POPC   PO452404  37.887  41.392   5.460
 4107POPC   GL152405  37.958  41.411   5.837
 4107POPC   GL252406  38.074  41.077   5.842
 4107POPC   C1A52407  37.752  41.585   6.209
 4107POPC   D2A52408  37.577  41.825   6.552
 4107POPC   C3A52409  37.624  41.649   6.963
 4107POPC   C4A52410  37.325  41.321   7.184
 4107POPC   C1B52411  37.932  41.099   6.237
 4107POPC   C2B52412  37.891  41.249   6.610
 4107POPC   C3B52413  38.037  41.014   6.945
 4107POPC   C4B52414  37.838  41.271   7.213
 4108POPC   NC352415  30.569  38.198   5.281
 4108POPC   PO452416  30.970  38.687   5.197
 4108POPC   GL152417  30.530  38.547   5.634
 4108POPC   GL252418  30.569  38.220   5.819
 4108POPC   C1A52419  30.340  38.565   6.115
 4108POPC   D2A52420  30.387  38.441   6.578
 4108POPC   C3A52421  30.624  38.592   6.942
 4108POPC   C4A52422  30.527  38.378   7.328
 4108POPC   C1B52423  30.781  38.367   6.245
 4108POPC   C2B52424  31.082  38.246   6.541
 4108POPC   C3B52425  31.231  38.365   6.920
 4108POPC   C4B52426  31.021  38.453   7.283
 4109POPC   NC352427  36.007  34.782   5.587
 4109POPC   PO452428  35.871  35.378   5.259
 4109POPC   GL152429  35.972  35.336   5.709
 4109POPC   GL252430  35.815  35.096   5.947
 4109POPC   C1A52431  35.907  35.579   6.119
 4109POPC   D2A52432  36.045  35.469   6.543
 4109POPC   C3A52433  35.855  35.468   6.956
 4109POPC   C4A52434  36.123  35.746   7.157
 4109POPC   C1B52435  36.277  35.184   6.127
 4109POPC   C2B52436  36.534  35.236   6.513
 4109POPC   C3B52437  36.452  35.072   6.923
 4109POPC   C4B52438  36.216  35.216   7.261
 4110POPC   NC352439   0.600   7.595   5.525
 4110POPC   PO452440   0.373   6.888   5.458
 4110POPC   GL152441   0.409   7.242   5.852
 4110POPC   GL252442   0.280   7.619   5.897
 4110POPC   C1A52443   0.668   7.536   6.202
 4110POPC   D2A52444   0.871   7.691   6.615
 4110POPC   C3A52445   0.604   7.538   6.958
 4110POPC   C4A52446   0.540   7.116   7.134
 4110POPC   C1B52447   0.076   7.451   6.189
 4110POPC   C2B52448   0.264   7.475   6.580
 4110POPC   C3B52449   0.098   7.349   6.972
 4110POPC   C4B52450   0.193   7.499   7.367
 4111POPC   NC352451  39.017  21.390   5.378
 4111POPC   PO452452  39.701  21.278   5.310
 4111POPC   GL152453  39.485  21.437   5.698
 4111POPC   GL252454  39.235  21.756   5.679
 4111POPC   C1A52455  39.371  21.131   6.033
 4111POPC   D2A52456  39.212  21.099   6.451
 4111POPC   C3A52457  39.404  21.252   6.810
 4111POPC   C4A52458  39.276  21.358   7.224
 4111POPC   C1B52459  39.113  21.591   6.092
 4111POPC   C2B52460  39.236  21.648   6.524
 4111POPC   C3B52461  39.059  21.745   6.922
 4111POPC   C4B52462  39.045  21.821   7.364
 4112POPC   NC352463  44.101  15.209   5.132
 4112POPC   PO452464  44.569  15.070   5.571
 4112POPC   GL152465  44.750  15.279   5.870
 4112POPC   GL252466  44.950  15.558   5.732
 4112POPC   C1A52467  44.638  15.216   6.296
 4112POPC   D2A52468  44.539  14.940   6.617
 4112POPC   C3A52469  44.528  15.230   6.923
 4112POPC   C4A52470  44.400  15.189   7.341
 4112POPC   C1B52471   0.038  15.537   6.194
 4112POPC   C2B52472  44.920  15.579   6.638
 4112POPC   C3B52473  44.863  15.575   7.089
 4112POPC   C4B52474  44.896  15.275   7.414
 4113POPC   NC352475   7.331   7.291   5.160
 4113POPC   PO452476   7.387   7.951   5.319
 4113POPC   GL152477   7.366   7.776   5.713
 4113POPC   GL252478   7.695   7.837   5.774
 4113POPC   C1A52479   7.311   7.547   6.088
 4113POPC   D2A52480   7.151   7.346   6.441
 4113POPC   C3A52481   7.258   7.587   6.781
 4113POPC   C4A52482   7.342   7.518   7.155
 4113POPC   C1B52483   7.805   7.670   6.192
 4113POPC   C2B52484   7.691   7.420   6.577
 4113POPC   C3B52485   7.823   7.467   7.029
 4113POPC   C4B52486   7.685   7.762   7.420
 4114POPC   NC352487  30.549  37.301   5.308
 4114POPC   PO452488  31.053  36.954   5.487
 4114POPC   GL152489  30.837  37.066   5.814
 4114POPC   GL252490  30.554  36.943   5.703
 4114POPC   C1A52491  30.744  36.894   6.223
 4114POPC   D2A52492  30.967  36.823   6.621
 4114POPC   C3A52493  30.758  36.722   7.043
 4114POPC   C4A52494  30.514  37.020   7.304
 4114POPC   C1B52495  30.354  37.155   6.000
 4114POPC   C2B52496  30.336  37.135   6.431
 4114POPC   C3B52497  30.425  37.187   6.836
 4114POPC   C4B52498  30.250  37.459   7.133
 4115POPC   NC352499  14.068  13.255   5.345
 4115POPC   PO452500  14.650  13.541   5.495
 4115POPC   GL152501  14.331  13.554   5.809
 4115POPC   GL252502  14.060  13.297   5.852
 4115POPC   C1A52503  14.461  13.635   6.215
 4115POPC   D2A52504  14.300  13.657   6.595
 4115POPC   C3A52505  14.559  13.602   6.926
 4115POPC   C4A52506  14.447  13.612   7.344
 4115POPC   C1B52507  14.106  13.272   6.280
 4115POPC   C2B52508  14.258  13.157   6.671
 4115POPC   C3B52509  14.131  13.354   7.021
 4115POPC   C4B52510  14.021  13.215   7.401
 4116POPC   NC352511  18.548  16.028   5.711
 4116POPC   PO452512  19.151  16.027   5.445
 4116POPC   GL152513  19.041  15.830   5.827
 4116POPC   GL252514  18.791  15.581   5.702
 4116POPC   C1A52515  19.191  15.929   6.267
 4116POPC   D2A52516  19.202  15.855   6.740
 4116POPC   C3A52517  19.155  16.081   7.140
 4116POPC   C4A52518  19.414  16.124   7.511
 4116POPC   C1B52519  18.693  15.575   6.153
 4116POPC   C2B52520  18.751  15.813   6.512
 4116POPC   C3B52521  18.727  15.876   6.922
 4116POPC   C4B52522  18.714  15.716   7.251
 4117POPC   NC352523   0.821  31.686   5.537
 4117POPC   PO452524   1.481  31.753   5.291
 4117POPC   GL152525   1.329  31.715   5.747
 4117POPC   GL252526   1.085  31.449   5.909
 4117POPC   C1A52527   1.441  31.706   6.189
 4117POPC   D2A52528   1.304  31.331   6.396
 4117POPC   C3A52529   1.354  31.323   6.820
 4117POPC   C4A52530   1.242  31.511   7.191
 4117POPC   C1B52531   0.928  31.672   6.312
 4117POPC   C2B52532   0.933  31.631   6.794
 4117POPC   C3B52533   0.783  31.676   7.261
 4117POPC   C4B52534   0.993  31.649   7.697
 4118POPC   NC352535  13.664  23.875   5.373
 4118POPC   PO452536  13.450  23.268   5.119
 4118POPC   GL152537  13.572  23.383   5.630
 4118POPC   GL252538  13.876  23.537   5.759
 4118POPC   C1A52539  13.479  23.615   6.107
 4118POPC   D2A52540  13.356  23.726   6.577
 4118POPC   C3A52541  13.736  23.579   6.811
 4118POPC   C4A52542  13.815  23.470   7.250
 4118POPC   C1B52543  13.922  23.941   6.002
 4118POPC   C2B52544  13.753  24.002   6.409
 4118POPC   C3B52545  13.745  24.085   6.855
 4118POPC   C4B52546  13.984  23.963   7.199
 4119POPC   NC352547  31.138  30.893   5.544
 4119POPC   PO452548  31.766  30.886   5.393
 4119POPC   GL152549  31.586  30.764   5.798
 4119POPC   GL252550  31.708  30.427   5.803
 4119POPC   C1A52551  31.394  30.722   6.225
 4119POPC   D2A52552  31.230  30.623   6.645
 4119POPC   C3A52553  31.450  30.816   6.942
 4119POPC   C4A52554  31.304  30.913   7.316
 4119POPC   C1B52555  31.916  30.541   6.176
 4119POPC   C2B52556  31.776  30.590   6.568
 4119POPC   C3B52557  31.894  30.442   6.922
 4119POPC   C4B52558  31.786  30.628   7.264
 4120POPC   NC352559  44.457  33.843   5.370
 4120POPC   PO452560   0.072  34.014   5.415
 4120POPC   GL152561  44.894  33.805   5.784
 4120POPC   GL252562  44.527  33.690   5.844
 4120POPC   C1A52563  44.854  33.896   6.201
 4120POPC   D2A52564  44.755  34.181   6.507
 4120POPC   C3A52565  44.866  33.946   6.861
 4120POPC   C4A52566  44.768  33.832   7.265
 4120POPC   C1B52567  44.552  33.471   6.214
 4120POPC   C2B52568  44.492  33.742   6.556
 4120POPC   C3B52569  44.357  33.745   6.975
 4120POPC   C4B52570  44.244  33.590   7.378
 4121POPC   NC352571  44.348  33.228   5.604
 4121POPC   PO452572  44.076  32.800   5.156
 4121POPC   GL152573  43.893  32.963   5.587
 4121POPC   GL252574  43.878  33.290   5.786
 4121POPC   C1A52575  43.707  32.879   6.023
 4121POPC   D2A52576  43.866  32.760   6.445
 4121POPC   C3A52577  43.805  32.982   6.862
 4121POPC   C4A52578  43.639  32.787   7.227
 4121POPC   C1B52579  44.086  33.172   6.202
 4121POPC   C2B52580  44.244  33.295   6.608
 4121POPC   C3B52581  44.266  33.190   7.039
 4121POPC   C4B52582  43.945  33.172   7.337
 4122POPC   NC352583  24.897  44.271   5.404
 4122POPC   PO452584  25.498  43.918   5.452
 4122POPC   GL152585  25.190  43.764   5.770
 4122POPC   GL252586  25.457  43.879   5.987
 4122POPC   C1A52587  25.004  43.785   6.226
 4122POPC   D2A52588  24.937  44.107   6.589
 4122POPC   C3A52589  25.001  44.022   7.026
 4122POPC   C4A52590  25.259  44.216   7.322
 4122POPC   C1B52591  25.425  43.455   6.137
 4122POPC   C2B52592  25.574  43.422   6.554
 4122POPC   C3B52593  25.406  43.768   6.802
 4122POPC   C4B52594  25.336  43.714   7.239
 4123POPC   NC352595  17.747  18.681   5.521
 4123POPC   PO452596  17.509  18.055   5.514
 4123POPC   GL152597  17.508  18.322   5.844
 4123POPC   GL252598  17.865  18.255   5.824
 4123POPC   C1A52599  17.436  18.415   6.285
 4123POPC   D2A52600  17.562  18.610   6.705
 4123POPC   C3A52601  17.413  18.493   7.099
 4123POPC   C4A52602  17.305  18.194   7.420
 4123POPC   C1B52603  17.781  18.054   6.205
 4123POPC   C2B52604  17.690  18.130   6.647
 4123POPC   C3B52605  17.646  18.037   7.069
 4123POPC   C4B52606  17.820  18.143   7.470
 4124POPC   NC352607  31.524  35.637   5.536
 4124POPC   PO452608  31.673  35.098   5.606
 4124POPC   GL152609  31.472  35.113   5.922
 4124POPC   GL252610  31.473  35.490   6.025
 4124POPC   C1A52611  31.092  35.168   6.044
 4124POPC   D2A52612  31.101  35.413   6.380
 4124POPC   C3A52613  31.218  35.263   6.792
 4124POPC   C4A52614  31.509  35.423   7.101
 4124POPC   C1B52615  31.596  35.256   6.408
 4124POPC   C2B52616  31.915  35.311   6.736
 4124POPC   C3B52617  32.009  35.398   7.167
 4124POPC   C4B52618  31.746  35.130   7.476
 4125POPC   NC352619  36.475  33.333   5.360
 4125POPC   PO452620  35.960  32.820   5.417
 4125POPC   GL152621  36.191  32.993   5.702
 4125POPC   GL252622  36.492  32.847   5.550
 4125POPC   C1A52623  36.164  33.098   6.147
 4125POPC   D2A52624  36.279  33.158   6.568
 4125POPC   C3A52625  36.075  33.056   6.893
 4125POPC   C4A52626  36.107  33.104   7.280
 4125POPC   C1B52627  36.518  32.745   6.000
 4125POPC   C2B52628  36.440  32.676   6.450
 4125POPC   C3B52629  36.503  32.772   6.885
 4125POPC   C4B52630  36.306  32.632   7.296
 4126POPC   NC352631  43.712  30.728   5.153
 4126POPC   PO452632  44.239  30.505   5.432
 4126POPC   GL152633  43.887  30.645   5.750
 4126POPC   GL252634  43.672  30.404   5.935
 4126POPC   C1A52635  43.649  30.879   6.125
 4126POPC   D2A52636  43.425  30.885   6.536
 4126POPC   C3A52637  43.734  30.871   6.861
 4126POPC   C4A52638  44.095  31.085   7.116
 4126POPC   C1B52639  43.707  30.433   6.400
 4126POPC   C2B52640  43.871  30.128   6.681
 4126POPC   C3B52641  43.914  30.166   7.087
 4126POPC   C4B52642  44.001  30.579   7.173
 4127POPC   NC352643  41.967  27.559   5.409
 4127POPC   PO452644  41.317  27.463   5.487
 4127POPC   GL152645  41.490  27.652   5.811
 4127POPC   GL252646  41.768  27.877   5.743
 4127POPC   C1A52647  41.307  27.660   6.209
 4127POPC   D2A52648  41.387  27.413   6.557
 4127POPC   C3A52649  41.210  27.521   6.916
 4127POPC   C4A52650  41.310  27.427   7.318
 4127POPC   C1B52651  41.929  27.607   6.090
 4127POPC   C2B52652  42.039  27.578   6.529
 4127POPC   C3B52653  41.772  27.602   6.885
 4127POPC   C4B52654  41.837  27.467   7.287
 4128POPC   NC352655  31.573  29.655   5.374
 4128POPC   PO452656  30.906  29.776   5.255
 4128POPC   GL152657  31.151  29.787   5.723
 4128POPC   GL252658  31.517  29.946   5.800
 4128POPC   C1A52659  31.284  29.853   6.228
 4128POPC   D2A52660  31.459  30.191   6.536
 4128POPC   C3A52661  31.455  30.120   6.981
 4128POPC   C4A52662  31.538  29.680   7.062
 4128POPC   C1B52663  31.802  30.037   6.201
 4128POPC   C2B52664  31.899  29.970   6.701
 4128POPC   C3B52665  31.911  30.016   7.200
 4128POPC   C4B52666  31.843  30.284   7.622
 4129POPC   NC352667  42.437  38.592   5.332
 4129POPC   PO452668  42.100  38.055   5.413
 4129POPC   GL152669  42.334  38.218   5.761
 4129POPC   GL252670  42.301  38.595   5.812
 4129POPC   C1A52671  42.225  38.312   6.197
 4129POPC   D2A52672  42.328  38.467   6.576
 4129POPC   C3A52673  42.421  38.173   6.904
 4129POPC   C4A52674  42.474  38.188   7.320
 4129POPC   C1B52675  42.651  38.641   6.126
 4129POPC   C2B52676  42.719  38.855   6.535
 4129POPC   C3B52677  42.474  38.813   6.905
 4129POPC   C4B52678  42.468  38.694   7.331
 4130POPC   NC352679  12.314  15.029   5.370
 4130POPC   PO452680  11.728  15.252   5.601
 4130POPC   GL152681  12.127  15.349   5.805
 4130POPC   GL252682  12.182  15.000   5.870
 4130POPC   C1A52683  12.084  15.570   6.212
 4130POPC   D2A52684  11.737  15.485   6.517
 4130POPC   C3A52685  11.834  15.272   6.909
 4130POPC   C4A52686  12.081  15.372   7.245
 4130POPC   C1B52687  12.008  15.083   6.269
 4130POPC   C2B52688  12.267  15.248   6.636
 4130POPC   C3B52689  12.309  14.982   7.029
 4130POPC   C4B52690  11.975  14.862   7.277
 4131POPC   NC352691  11.113  41.143   5.447
 4131POPC   PO452692  11.562  40.638   5.357
 4131POPC   GL152693  11.417  40.851   5.781
 4131POPC   GL252694  11.085  40.995   5.923
 4131POPC   C1A52695  11.498  41.018   6.216
 4131POPC   D2A52696  11.378  41.132   6.635
 4131POPC   C3A52697  11.665  40.931   6.929
 4131POPC   C4A52698  11.680  41.096   7.349
 4131POPC   C1B52699  10.972  40.784   6.256
 4131POPC   C2B52700  10.855  40.936   6.616
 4131POPC   C3B52701  10.964  41.144   6.930
 4131POPC   C4B52702  11.202  40.912   7.174
 4132POPC   NC352703  42.351  11.697   5.433
 4132POPC   PO452704  42.618  12.264   5.483
 4132POPC   GL152705  42.370  12.063   5.843
 4132POPC   GL252706  42.148  11.734   5.889
 4132POPC   C1A52707  42.534  11.963   6.253
 4132POPC   D2A52708  42.768  11.816   6.584
 4132POPC   C3A52709  42.566  12.011   6.887
 4132POPC   C4A52710  42.535  11.993   7.304
 4132POPC   C1B52711  42.029  11.894   6.257
 4132POPC   C2B52712  42.126  12.125   6.660
 4132POPC   C3B52713  42.078  11.963   7.084
 4132POPC   C4B52714  41.837  11.846   7.467
 4133POPC   NC352715  10.180  14.675   5.525
 4133POPC   PO452716  10.527  14.104   5.400
 4133POPC   GL152717  10.578  14.352   5.765
 4133POPC   GL252718  10.913  14.207   5.900
 4133POPC   C1A52719  10.553  14.498   6.181
 4133POPC   D2A52720  10.720  14.664   6.570
 4133POPC   C3A52721  10.567  14.530   6.925
 4133POPC   C4A52722  10.667  14.714   7.293
 4133POPC   C1B52723  10.667  13.998   6.215
 4133POPC   C2B52724  10.418  14.142   6.567
 4133POPC   C3B52725  10.168  14.203   6.954
 4133POPC   C4B52726  10.459  14.193   7.296
 4134POPC   NC352727  14.717   5.339   5.495
 4134POPC   PO452728  14.342   4.794   5.401
 4134POPC   GL152729  14.265   4.962   5.807
 4134POPC   GL252730  14.445   5.276   5.929
 4134POPC   C1A52731  14.317   4.856   6.232
 4134POPC   D2A52732  14.524   5.003   6.590
 4134POPC   C3A52733  14.485   4.783   6.975
 4134POPC   C4A52734  14.365   4.887   7.389
 4134POPC   C1B52735  14.759   5.454   6.237
 4134POPC   C2B52736  14.685   5.487   6.674
 4134POPC   C3B52737  14.485   5.317   7.016
 4134POPC   C4B52738  14.711   5.304   7.347
 4135POPC   NC352739  34.405  20.963   5.399
 4135POPC   PO452740  34.857  20.479   5.271
 4135POPC   GL152741  34.801  20.448   5.727
 4135POPC   GL252742  34.560  20.668   5.783
 4135POPC   C1A52743  34.783  20.462   6.197
 4135POPC   D2A52744  34.824  20.319   6.625
 4135POPC   C3A52745  34.740  20.570   7.001
 4135POPC   C4A52746  34.612  20.578   7.432
 4135POPC   C1B52747  34.448  20.854   6.152
 4135POPC   C2B52748  34.389  20.758   6.600
 4135POPC   C3B52749  34.310  20.843   7.046
 4135POPC   C4B52750  34.191  20.850   7.504
 4136POPC   NC352751  32.601  40.217   5.313
 4136POPC   PO452752  32.525  39.570   5.605
 4136POPC   GL152753  32.891  39.879   5.704
 4136POPC   GL252754  32.917  40.255   5.771
 4136POPC   C1A52755  33.120  39.866   6.103
 4136POPC   D2A52756  32.950  39.623   6.449
 4136POPC   C3A52757  33.052  39.739   6.865
 4136POPC   C4A52758  33.225  39.972   7.215
 4136POPC   C1B52759  33.086  40.394   6.156
 4136POPC   C2B52760  33.071  40.283   6.591
 4136POPC   C3B52761  33.167  40.483   6.989
 4136POPC   C4B52762  33.290  40.522   7.416
 4137POPC   NC352763   2.041  13.357   5.581
 4137POPC   PO452764   2.410  12.788   5.429
 4137POPC   GL152765   2.122  12.925   5.832
 4137POPC   GL252766   1.742  12.893   5.854
 4137POPC   C1A52767   2.069  13.030   6.284
 4137POPC   D2A52768   1.898  12.988   6.695
 4137POPC   C3A52769   2.208  12.997   7.043
 4137POPC   C4A52770   2.208  12.931   7.514
 4137POPC   C1B52771   1.910  12.553   6.126
 4137POPC   C2B52772   1.841  12.469   6.547
 4137POPC   C3B52773   1.732  12.552   6.954
 4137POPC   C4B52774   1.725  12.912   7.186
 4138POPC   NC352775  26.860  14.759   5.490
 4138POPC   PO452776  26.554  14.246   5.203
 4138POPC   GL152777  26.641  14.325   5.650
 4138POPC   GL252778  26.393  14.643   5.676
 4138POPC   C1A52779  26.927  14.323   6.079
 4138POPC   D2A52780  27.100  14.486   6.512
 4138POPC   C3A52781  26.908  14.356   6.926
 4138POPC   C4A52782  27.100  14.332   7.353
 4138POPC   C1B52783  26.456  14.498   6.101
 4138POPC   C2B52784  26.601  14.424   6.491
 4138POPC   C3B52785  26.414  14.527   6.873
 4138POPC   C4B52786  26.421  14.632   7.311
 4139POPC   NC352787  44.364   1.829   5.425
 4139POPC   PO452788  44.915   2.212   5.441
 4139POPC   GL152789  44.616   2.101   5.766
 4139POPC   GL252790  44.337   2.269   5.862
 4139POPC   C1A52791  44.617   1.897   6.155
 4139POPC   D2A52792  44.827   1.878   6.556
 4139POPC   C3A52793  44.582   1.882   6.936
 4139POPC   C4A52794  44.787   1.925   7.282
 4139POPC   C1B52795  44.138   2.120   6.187
 4139POPC   C2B52796  44.304   2.035   6.549
 4139POPC   C3B52797  44.106   2.058   6.959
 4139POPC   C4B52798  44.195   1.961   7.384
 4140POPC   NC352799  26.534  37.235   5.511
 4140POPC   PO452800  26.951  36.678   5.630
 4140POPC   GL152801  26.780  36.982   5.900
 4140POPC   GL252802  26.934  37.292   5.825
 4140POPC   C1A52803  26.683  37.051   6.331
 4140POPC   D2A52804  26.762  36.733   6.662
 4140POPC   C3A52805  26.747  36.800   7.127
 4140POPC   C4A52806  26.739  36.536   7.530
 4140POPC   C1B52807  27.157  37.281   6.231
 4140POPC   C2B52808  27.070  37.152   6.669
 4140POPC   C3B52809  26.891  37.287   7.054
 4140POPC   C4B52810  26.912  37.317   7.495
 4141POPC   NC352811  42.481  40.998   5.193
 4141POPC   PO452812  41.936  40.870   5.537
 4141POPC   GL152813  42.288  40.822   5.814
 4141POPC   GL252814  42.549  41.005   5.687
 4141POPC   C1A52815  42.374  40.661   6.230
 4141POPC   D2A52816  42.142  40.758   6.586
 4141POPC   C3A52817  42.012  40.523   6.931
 4141POPC   C4A52818  42.006  40.860   7.244
 4141POPC   C1B52819  42.704  41.067   6.113
 4141POPC   C2B52820  42.493  41.155   6.504
 4141POPC   C3B52821  42.436  41.004   6.943
 4141POPC   C4B52822  42.438  40.593   7.184
 4142POPC   NC352823  28.427   1.152   5.001
 4142POPC   PO452824  28.355   1.109   5.658
 4142POPC   GL152825  28.299   1.341   5.990
 4142POPC   GL252826  28.008   1.229   6.133
 4142POPC   C1A52827  28.418   1.515   6.342
 4142POPC   D2A52828  28.478   1.261   6.687
 4142POPC   C3A52829  28.107   1.227   6.891
 4142POPC   C4A52830  28.100   1.209   7.311
 4142POPC   C1B52831  28.300   0.927   6.316
 4142POPC   C2B52832  28.417   0.721   6.707
 4142POPC   C3B52833  28.472   0.888   7.115
 4142POPC   C4B52834  28.445   0.874   7.570
 4143POPC   NC352835  13.064  17.002   5.304
 4143POPC   PO452836  12.885  16.361   5.378
 4143POPC   GL152837  13.056  16.492   5.772
 4143POPC   GL252838  13.354  16.277   5.872
 4143POPC   C1A52839  12.970  16.812   6.145
 4143POPC   D2A52840  13.247  16.794   6.521
 4143POPC   C3A52841  13.072  16.766   6.912
 4143POPC   C4A52842  12.865  16.890   7.242
 4143POPC   C1B52843  13.180  16.372   6.258
 4143POPC   C2B52844  12.832  16.445   6.593
 4143POPC   C3B52845  12.742  16.403   7.072
 4143POPC   C4B52846  12.984  16.481   7.494
 4144POPC   NC352847  41.098   0.872   5.545
 4144POPC   PO452848  40.847   1.442   5.356
 4144POPC   GL152849  40.885   1.258   5.783
 4144POPC   GL252850  41.026   1.519   5.933
 4144POPC   C1A52851  40.888   1.145   6.233
 4144POPC   D2A52852  40.900   1.464   6.546
 4144POPC   C3A52853  41.020   1.302   6.908
 4144POPC   C4A52854  41.216   1.075   7.211
 4144POPC   C1B52855  40.582   1.557   6.134
 4144POPC   C2B52856  40.442   1.718   6.546
 4144POPC   C3B52857  40.531   1.520   6.926
 4144POPC   C4B52858  40.764   1.445   7.312
 4145POPC   NC352859  16.843   9.637   5.614
 4145POPC   PO452860  17.499   9.811   5.537
 4145POPC   GL152861  17.214   9.916   5.856
 4145POPC   GL252862  17.216   9.541   5.932
 4145POPC   C1A52863  17.214   9.864   6.309
 4145POPC   D2A52864  17.116   9.560   6.631
 4145POPC   C3A52865  17.275   9.623   7.051
 4145POPC   C4A52866  17.600   9.844   7.248
 4145POPC   C1B52867  17.556   9.423   6.202
 4145POPC   C2B52868  17.790   9.311   6.588
 4145POPC   C3B52869  17.866   9.489   6.977
 4145POPC   C4B52870  17.767   9.366   7.383
 4146POPC   NC352871  43.118   6.287   5.327
 4146POPC   PO452872  43.316   5.635   5.477
 4146POPC   GL152873  43.094   5.896   5.788
 4146POPC   GL252874  43.370   6.127   5.742
 4146POPC   C1A52875  43.018   6.058   6.244
 4146POPC   D2A52876  43.002   6.167   6.716
 4146POPC   C3A52877  42.926   5.946   7.124
 4146POPC   C4A52878  43.034   5.981   7.598
 4146POPC   C1B52879  43.466   6.333   6.107
 4146POPC   C2B52880  43.464   6.187   6.505
 4146POPC   C3B52881  43.499   6.334   6.949
 4146POPC   C4B52882  43.400   6.306   7.417
 4147POPC   NC352883  10.253  20.368   5.339
 4147POPC   PO452884  10.882  20.491   5.535
 4147POPC   GL152885  10.565  20.472   5.848
 4147POPC   GL252886  10.182  20.439   5.836
 4147POPC   C1A52887  10.440  20.762   6.184
 4147POPC   D2A52888  10.606  20.998   6.538
 4147POPC   C3A52889  10.479  20.808   6.917
 4147POPC   C4A52890  10.748  20.686   7.243
 4147POPC   C1B52891  10.312  20.245   6.216
 4147POPC   C2B52892  10.435  20.430   6.582
 4147POPC   C3B52893  10.514  20.229   6.976
 4147POPC   C4B52894  10.504  20.286   7.436
 4148POPC   NC352895  10.158   6.975   5.489
 4148POPC   PO452896  10.769   6.636   5.518
 4148POPC   GL152897  10.371   6.565   5.777
 4148POPC   GL252898  10.294   6.902   5.959
 4148POPC   C1A52899  10.171   6.434   6.201
 4148POPC   D2A52900  10.194   6.597   6.654
 4148POPC   C3A52901  10.533   6.475   6.955
 4148POPC   C4A52902  10.464   6.223   7.305
 4148POPC   C1B52903  10.579   6.747   6.246
 4148POPC   C2B52904  10.614   6.896   6.651
 4148POPC   C3B52905  10.430   6.970   7.027
 4148POPC   C4B52906  10.779   6.866   7.318
 4149POPC   NC352907   3.864   2.093   5.522
 4149POPC   PO452908   4.553   1.759   5.481
 4149POPC   GL152909   4.286   1.897   5.823
 4149POPC   GL252910   4.472   2.190   5.920
 4149POPC   C1A52911   4.216   1.830   6.282
 4149POPC   D2A52912   4.263   1.494   6.597
 4149POPC   C3A52913   4.402   1.631   6.976
 4149POPC   C4A52914   4.182   1.899   7.195
 4149POPC   C1B52915   4.703   2.066   6.313
 4149POPC   C2B52916   4.568   2.069   6.772
 4149POPC   C3B52917   4.379   2.349   7.110
 4149POPC   C4B52918   4.299   2.312   7.545
 4150POPC   NC352919  33.769  30.104   5.335
 4150POPC   PO452920  33.415  29.502   5.342
 4150POPC   GL152921  33.496  29.801   5.687
 4150POPC   GL252922  33.854  29.852   5.784
 4150POPC   C1A52923  33.383  29.993   6.085
 4150POPC   D2A52924  33.546  29.907   6.503
 4150POPC   C3A52925  33.370  30.023   6.916
 4150POPC   C4A52926  33.611  29.856   7.241
 4150POPC   C1B52927  34.108  30.096   6.098
 4150POPC   C2B52928  34.154  30.265   6.534
 4150POPC   C3B52929  34.045  30.123   6.971
 4150POPC   C4B52930  34.110  29.956   7.389
 4151POPC   NC352931  35.742   7.580   5.362
 4151POPC   PO452932  35.280   7.061   5.385
 4151POPC   GL152933  35.208   7.347   5.723
 4151POPC   GL252934  35.487   7.513   5.782
 4151POPC   C1A52935  35.324   7.258   6.182
 4151POPC   D2A52936  35.235   7.073   6.579
 4151POPC   C3A52937  35.355   7.334   6.929
 4151POPC   C4A52938  35.164   7.216   7.306
 4151POPC   C1B52939  35.431   7.765   6.139
 4151POPC   C2B52940  35.622   7.758   6.523
 4151POPC   C3B52941  35.564   7.899   6.899
 4151POPC   C4B52942  35.481   7.707   7.261
 4152POPC   NC352943  20.717  22.751   5.087
 4152POPC   PO452944  20.875  23.195   5.585
 4152POPC   GL152945  20.688  22.910   5.873
 4152POPC   GL252946  21.003  22.891   6.023
 4152POPC   C1A52947  20.641  22.670   6.279
 4152POPC   D2A52948  20.664  22.614   6.714
 4152POPC   C3A52949  20.489  22.901   6.975
 4152POPC   C4A52950  20.499  22.954   7.396
 4152POPC   C1B52951  21.164  22.557   6.230
 4152POPC   C2B52952  21.163  22.722   6.617
 4152POPC   C3B52953  21.038  22.798   7.009
 4152POPC   C4B52954  21.154  22.477   7.254
 4153POPC   NC352955  36.045  13.270   5.060
 4153POPC   PO452956  36.357  13.634   5.616
 4153POPC   GL152957  36.199  13.688   5.994
 4153POPC   GL252958  36.149  13.322   6.016
 4153POPC   C1A52959  35.925  13.957   6.252
 4153POPC   D2A52960  35.753  13.921   6.685
 4153POPC   C3A52961  36.073  13.803   6.980
 4153POPC   C4A52962  36.289  13.402   7.050
 4153POPC   C1B52963  35.784  13.460   6.266
 4153POPC   C2B52964  35.547  13.439   6.662
 4153POPC   C3B52965  35.656  13.474   7.132
 4153POPC   C4B52966  35.690  13.317   7.579
 4154POPC   NC352967   2.914  24.944   5.306
 4154POPC   PO452968   2.729  25.636   5.266
 4154POPC   GL152969   2.673  25.343   5.594
 4154POPC   GL252970   3.030  25.374   5.688
 4154POPC   C1A52971   2.625  25.183   6.029
 4154POPC   D2A52972   2.431  25.361   6.401
 4154POPC   C3A52973   2.500  25.160   6.802
 4154POPC   C4A52974   2.684  25.182   7.216
 4154POPC   C1B52975   3.132  25.149   6.076
 4154POPC   C2B52976   2.949  25.238   6.472
 4154POPC   C3B52977   2.993  25.035   6.833
 4154POPC   C4B52978   3.161  24.996   7.230
 4155POPC   NC352979  24.826  38.607   5.121
 4155POPC   PO452980  24.251  38.622   5.542
 4155POPC   GL152981  24.361  38.358   5.886
 4155POPC   GL252982  24.706  38.362   5.878
 4155POPC   C1A52983  24.370  38.451   6.318
 4155POPC   D2A52984  24.565  38.767   6.583
 4155POPC   C3A52985  24.507  38.679   7.008
 4155POPC   C4A52986  24.226  38.398   7.187
 4155POPC   C1B52987  24.824  38.220   6.270
 4155POPC   C2B52988  24.715  38.279   6.691
 4155POPC   C3B52989  24.950  38.425   7.043
 4155POPC   C4B52990  24.726  38.319   7.405
 4156POPC   NC352991   5.256   6.738   5.087
 4156POPC   PO452992   4.602   6.675   5.370
 4156POPC   GL152993   4.969   6.602   5.662
 4156POPC   GL252994   5.182   6.907   5.687
 4156POPC   C1A52995   4.955   6.416   6.115
 4156POPC   D2A52996   4.904   6.603   6.564
 4156POPC   C3A52997   4.839   6.391   6.954
 4156POPC   C4A52998   4.943   6.560   7.343
 4156POPC   C1B52999   5.225   6.861   6.157
 4156POPC   C2B53000   5.391   6.517   6.452
 4156POPC   C3B53001   5.362   6.519   6.916
 4156POPC   C4B53002   5.447   6.416   7.348
 4157POPC   NC353003  35.629  19.246   5.216
 4157POPC   PO453004  35.050  18.996   5.432
 4157POPC   GL153005  35.276  19.286   5.697
 4157POPC   GL253006  35.180  19.037   5.977
 4157POPC   C1A53007  35.421  19.448   6.104
 4157POPC   D2A53008  35.165  19.358   6.458
 4157POPC   C3A53009  35.357  19.316   6.850
 4157POPC   C4A53010  35.407  19.048   7.196
 4157POPC   C1B53011  35.309  18.771   6.303
 4157POPC   C2B53012  35.336  18.805   6.729
 4157POPC   C3B53013  35.233  18.556   7.051
 4157POPC   C4B53014  35.352  18.617   7.461
 4158POPC   NC353015  25.366  40.193   5.554
 4158POPC   PO453016  25.616  39.560   5.330
 4158POPC   GL153017  25.277  39.700   5.686
 4158POPC   GL253018  24.909  39.639   5.644
 4158POPC   C1A53019  25.189  39.877   6.139
 4158POPC   D2A53020  25.352  39.856   6.591
 4158POPC   C3A53021  25.252  40.156   6.882
 4158POPC   C4A53022  25.341  40.237   7.279
 4158POPC   C1B53023  24.980  39.405   6.056
 4158POPC   C2B53024  24.977  39.528   6.518
 4158POPC   C3B53025  25.075  39.633   6.966
 4158POPC   C4B53026  25.012  39.875   7.339
 4159POPC   NC353027  28.269  41.696   5.135
 4159POPC   PO453028  27.916  41.241   5.583
 4159POPC   GL153029  27.973  41.578   5.908
 4159POPC   GL253030  28.280  41.401   6.091
 4159POPC   C1A53031  28.219  41.884   6.181
 4159POPC   D2A53032  28.232  41.704   6.590
 4159POPC   C3A53033  28.309  41.978   6.923
 4159POPC   C4A53034  28.323  41.783   7.293
 4159POPC   C1B53035  27.952  41.220   6.307
 4159POPC   C2B53036  28.117  41.103   6.701
 4159POPC   C3B53037  28.247  41.328   7.039
 4159POPC   C4B53038  28.121  41.318   7.442
 4160POPC   NC353039  14.980  33.588   5.431
 4160POPC   PO453040  14.813  34.134   5.562
 4160POPC   GL153041  15.142  33.923   5.827
 4160POPC   GL253042  15.187  33.568   5.898
 4160POPC   C1A53043  15.186  33.893   6.298
 4160POPC   D2A53044  14.954  34.052   6.675
 4160POPC   C3A53045  15.086  33.938   7.077
 4160POPC   C4A53046  15.424  33.903   7.401
 4160POPC   C1B53047  15.132  33.377   6.282
 4160POPC   C2B53048  15.127  33.551   6.694
 4160POPC   C3B53049  15.371  33.501   7.073
 4160POPC   C4B53050  15.578  33.355   7.472
 4161POPC   NC353051  24.749  37.420   5.627
 4161POPC   PO453052  24.129  37.689   5.614
 4161POPC   GL153053  24.365  37.549   5.953
 4161POPC   GL253054  24.539  37.863   5.891
 4161POPC   C1A53055  24.502  37.395   6.368
 4161POPC   D2A53056  24.311  37.203   6.746
 4161POPC   C3A53057  24.321  37.465   7.085
 4161POPC   C4A53058  24.693  37.622   7.305
 4161POPC   C1B53059  24.427  37.909   6.319
 4161POPC   C2B53060  24.567  37.773   6.706
 4161POPC   C3B53061  24.412  37.962   7.057
 4161POPC   C4B53062  23.967  37.947   7.168
 4162POPC   NC353063  37.795   5.424   5.539
 4162POPC   PO453064  37.417   4.934   5.417
 4162POPC   GL153065  37.420   5.176   5.820
 4162POPC   GL253066  37.755   5.087   5.928
 4162POPC   C1A53067  37.478   5.267   6.309
 4162POPC   D2A53068  37.530   5.014   6.720
 4162POPC   C3A53069  37.484   5.235   7.131
 4162POPC   C4A53070  37.614   5.478   7.513
 4162POPC   C1B53071  37.603   4.772   6.228
 4162POPC   C2B53072  37.740   4.545   6.612
 4162POPC   C3B53073  37.921   4.798   6.978
 4162POPC   C4B53074  37.949   5.143   7.284
 4163POPC   NC353075  22.428  21.356   5.433
 4163POPC   PO453076  21.817  21.678   5.261
 4163POPC   GL153077  21.965  21.429   5.660
 4163POPC   GL253078  22.042  21.660   5.951
 4163POPC   C1A53079  22.071  21.181   6.037
 4163POPC   D2A53080  22.027  21.196   6.485
 4163POPC   C3A53081  21.963  21.243   6.928
 4163POPC   C4A53082  22.261  21.240   7.259
 4163POPC   C1B53083  22.256  21.657   6.310
 4163POPC   C2B53084  22.046  21.697   6.672
 4163POPC   C3B53085  22.210  21.720   7.059
 4163POPC   C4B53086  22.114  21.682   7.478
 4164POPC   NC353087   6.015  32.293   5.436
 4164POPC   PO453088   5.543  32.603   5.178
 4164POPC   GL153089   5.581  32.280   5.690
 4164POPC   GL253090   5.878  32.085   5.873
 4164POPC   C1A53091   5.643  32.446   6.170
 4164POPC   D2A53092   5.971  32.285   6.438
 4164POPC   C3A53093   5.982  32.393   6.869
 4164POPC   C4A53094   5.637  32.444   7.210
 4164POPC   C1B53095   5.510  31.964   6.113
 4164POPC   C2B53096   5.473  32.077   6.559
 4164POPC   C3B53097   5.680  31.998   6.965
 4164POPC   C4B53098   6.001  32.098   7.292
 4165POPC   NC353099  25.399   0.162   5.369
 4165POPC   PO453100  24.910  44.723   5.373
 4165POPC   GL153101  25.194  44.805   5.696
 4165POPC   GL253102  25.011   0.098   5.764
 4165POPC   C1A53103  25.429  44.665   6.097
 4165POPC   D2A53104  25.443  44.266   6.391
 4165POPC   C3A53105  25.375  44.337   6.843
 4165POPC   C4A53106  25.397  44.698   7.179
 4165POPC   C1B53107  24.938  44.829   6.129
 4165POPC   C2B53108  25.068  44.612   6.469
 4165POPC   C3B53109  25.024  44.704   6.859
 4165POPC   C4B53110  24.852  44.516   7.213
 4166POPC   NC353111  23.170  32.843   5.411
 4166POPC   PO453112  22.548  33.066   5.403
 4166POPC   GL153113  22.787  32.952   5.746
 4166POPC   GL253114  22.708  33.271   5.848
 4166POPC   C1A53115  22.990  32.737   6.082
 4166POPC   D2A53116  23.097  32.892   6.491
 4166POPC   C3A53117  22.973  32.720   6.882
 4166POPC   C4A53118  23.150  32.936   7.215
 4166POPC   C1B53119  22.744  33.181   6.263
 4166POPC   C2B53120  22.656  33.105   6.674
 4166POPC   C3B53121  22.793  33.274   7.043
 4166POPC   C4B53122  22.744  33.184   7.468
 4167POPC   NC353123  32.277  38.655   5.446
 4167POPC   PO453124  31.750  38.229   5.255
 4167POPC   GL153125  32.090  38.211   5.650
 4167POPC   GL253126  31.955  38.414   5.852
 4167POPC   C1A53127  32.397  38.402   6.057
 4167POPC   D2A53128  32.402  38.326   6.505
 4167POPC   C3A53129  32.416  38.584   6.892
 4167POPC   C4A53130  32.463  38.335   7.258
 4167POPC   C1B53131  31.936  38.264   6.289
 4167POPC   C2B53132  31.961  38.378   6.754
 4167POPC   C3B53133  31.985  38.534   7.203
 4167POPC   C4B53134  31.892  38.900   7.508
 4168POPC   NC353135   4.730  30.147   5.441
 4168POPC   PO453136   5.167  29.688   5.640
 4168POPC   GL153137   4.973  29.660   5.983
 4168POPC   GL253138   4.769  29.935   5.901
 4168POPC   C1A53139   5.093  29.810   6.359
 4168POPC   D2A53140   5.243  29.922   6.741
 4168POPC   C3A53141   5.128  29.751   7.100
 4168POPC   C4A53142   5.488  29.977   7.214
 4168POPC   C1B53143   4.581  29.819   6.283
 4168POPC   C2B53144   4.683  29.729   6.700
 4168POPC   C3B53145   4.633  29.991   7.037
 4168POPC   C4B53146   4.814  29.997   7.439
 4169POPC   NC353147  27.295  41.441   5.148
 4169POPC   PO453148  27.832  41.683   5.261
 4169POPC   GL153149  27.535  41.616   5.642
 4169POPC   GL253150  27.508  41.874   5.907
 4169POPC   C1A53151  27.459  41.415   6.099
 4169POPC   D2A53152  27.268  41.678   6.397
 4169POPC   C3A53153  27.324  41.757   6.840
 4169POPC   C4A53154  27.420  41.577   7.229
 4169POPC   C1B53155  27.758  41.761   6.314
 4169POPC   C2B53156  27.753  41.521   6.688
 4169POPC   C3B53157  27.885  41.682   7.071
 4169POPC   C4B53158  27.851  41.766   7.502
 4170POPC   NC353159  34.785  33.554   5.417
 4170POPC   PO453160  34.921  34.071   5.031
 4170POPC   GL153161  34.541  33.992   5.469
 4170POPC   GL253162  34.355  33.667   5.632
 4170POPC   C1A53163  34.476  33.974   6.000
 4170POPC   D2A53164  34.597  34.009   6.454
 4170POPC   C3A53165  34.762  33.660   6.726
 4170POPC   C4A53166  34.747  33.689   7.181
 4170POPC   C1B53167  34.292  33.504   6.086
 4170POPC   C2B53168  34.292  33.555   6.539
 4170POPC   C3B53169  34.279  33.611   6.998
 4170POPC   C4B53170  34.277  33.787   7.423
 4171POPC   NC353171  37.892  32.118   5.495
 4171POPC   PO453172  37.454  32.494   5.290
 4171POPC   GL153173  37.578  32.422   5.756
 4171POPC   GL253174  37.536  32.037   5.866
 4171POPC   C1A53175  37.665  32.399   6.215
 4171POPC   D2A53176  37.605  32.080   6.556
 4171POPC   C3A53177  37.494  32.252   6.974
 4171POPC   C4A53178  37.538  32.107   7.404
 4171POPC   C1B53179  37.936  31.970   6.121
 4171POPC   C2B53180  38.115  31.951   6.514
 4171POPC   C3B53181  37.976  32.060   6.913
 4171POPC   C4B53182  38.179  31.920   7.232
 4172POPC   NC353183  34.997  28.281   5.043
 4172POPC   PO453184  35.410  28.596   5.525
 4172POPC   GL153185  35.340  28.239   5.807
 4172POPC   GL253186  35.024  28.060   5.914
 4172POPC   C1A53187  35.445  28.276   6.240
 4172POPC   D2A53188  35.391  28.583   6.568
 4172POPC   C3A53189  35.562  28.488   6.984
 4172POPC   C4A53190  35.489  28.762   7.361
 4172POPC   C1B53191  35.026  27.990   6.354
 4172POPC   C2B53192  35.266  28.111   6.707
 4172POPC   C3B53193  35.306  28.026   7.118
 4172POPC   C4B53194  35.241  28.304   7.433
 4173POPC   NC353195   1.383  30.550   5.547
 4173POPC   PO453196   0.684  30.355   5.472
 4173POPC   GL153197   0.971  30.436   5.831
 4173POPC   GL253198   0.964  30.802   5.785
 4173POPC   C1A53199   1.191  30.620   6.225
 4173POPC   D2A53200   1.257  30.423   6.634
 4173POPC   C3A53201   1.238  30.663   7.009
 4173POPC   C4A53202   1.346  31.004   7.263
 4173POPC   C1B53203   0.792  31.007   6.162
 4173POPC   C2B53204   0.955  31.002   6.574
 4173POPC   C3B53205   0.919  31.128   6.976
 4173POPC   C4B53206   0.783  30.801   7.196
 4174POPC   NC353207   7.234  33.558   5.595
 4174POPC   PO453208   7.756  33.626   5.155
 4174POPC   GL153209   7.664  33.863   5.625
 4174POPC   GL253210   7.339  34.041   5.726
 4174POPC   C1A53211   7.701  33.947   6.089
 4174POPC   D2A53212   7.497  33.729   6.457
 4174POPC   C3A53213   7.696  33.501   6.813
 4174POPC   C4A53214   7.777  33.699   7.212
 4174POPC   C1B53215   7.207  34.119   6.169
 4174POPC   C2B53216   7.035  33.937   6.552
 4174POPC   C3B53217   7.185  33.719   6.899
 4174POPC   C4B53218   7.306  33.508   7.246
 4175POPC   NC353219  18.042  39.170   5.363
 4175POPC   PO453220  17.376  39.512   5.363
 4175POPC   GL153221  17.348  39.302   5.788
 4175POPC   GL253222  17.703  39.279   5.787
 4175POPC   C1A53223  17.464  39.466   6.251
 4175POPC   D2A53224  17.717  39.407   6.671
 4175POPC   C3A53225  17.477  39.432   7.090
 4175POPC   C4A53226  17.546  39.324   7.556
 4175POPC   C1B53227  17.766  39.055   6.181
 4175POPC   C2B53228  17.667  38.778   6.485
 4175POPC   C3B53229  17.736  38.905   6.878
 4175POPC   C4B53230  17.542  38.936   7.235
 4176POPC   NC353231   7.655  21.945   5.373
 4176POPC   PO453232   7.417  22.586   5.273
 4176POPC   GL153233   7.599  22.394   5.688
 4176POPC   GL253234   7.466  22.032   5.829
 4176POPC   C1A53235   7.646  22.355   6.164
 4176POPC   D2A53236   7.295  22.178   6.442
 4176POPC   C3A53237   7.321  22.260   6.890
 4176POPC   C4A53238   7.564  22.249   7.276
 4176POPC   C1B53239   7.719  21.826   6.156
 4176POPC   C2B53240   7.763  21.974   6.610
 4176POPC   C3B53241   7.914  21.912   7.047
 4176POPC   C4B53242   7.839  21.565   7.329
 4177POPC   NC353243   1.772  21.461   5.465
 4177POPC   PO453244   2.267  21.050   5.438
 4177POPC   GL153245   2.163  21.293   5.774
 4177POPC   GL253246   2.139  21.678   5.750
 4177POPC   C1A53247   1.855  21.268   6.098
 4177POPC   D2A53248   1.683  21.348   6.485
 4177POPC   C3A53249   1.926  21.523   6.823
 4177POPC   C4A53250   1.845  21.371   7.218
 4177POPC   C1B53251   2.276  21.584   6.171
 4177POPC   C2B53252   2.265  21.309   6.509
 4177POPC   C3B53253   2.412  21.449   6.882
 4177POPC   C4B53254   2.328  21.856   7.135
 4178POPC   NC353255  30.934   5.194   5.384
 4178POPC   PO453256  30.257   4.938   5.511
 4178POPC   GL153257  30.532   5.014   5.857
 4178POPC   GL253258  30.748   5.314   5.863
 4178POPC   C1A53259  30.583   5.108   6.300
 4178POPC   D2A53260  30.443   5.041   6.717
 4178POPC   C3A53261  30.810   5.012   6.985
 4178POPC   C4A53262  30.992   4.933   7.407
 4178POPC   C1B53263  30.549   5.637   6.175
 4178POPC   C2B53264  30.449   5.605   6.633
 4178POPC   C3B53265  30.525   5.442   7.043
 4178POPC   C4B53266  30.485   5.118   7.356
 4179POPC   NC353267   8.318  26.361   5.583
 4179POPC   PO453268   7.998  26.893   5.312
 4179POPC   GL153269   8.170  27.012   5.734
 4179POPC   GL253270   8.091  26.694   5.917
 4179POPC   C1A53271   8.222  27.228   6.168
 4179POPC   D2A53272   8.067  27.177   6.605
 4179POPC   C3A53273   8.289  27.111   6.992
 4179POPC   C4A53274   8.065  26.840   7.252
 4179POPC   C1B53275   8.523  26.809   6.079
 4179POPC   C2B53276   8.502  26.892   6.517
 4179POPC   C3B53277   8.272  26.614   6.823
 4179POPC   C4B53278   8.422  26.495   7.238
 4180POPC   NC353279  10.742  17.822   5.471
 4180POPC   PO453280  10.371  18.335   5.359
 4180POPC   GL153281  10.387  18.376   5.787
 4180POPC   GL253282  10.315  18.011   5.811
 4180POPC   C1A53283  10.493  18.625   6.183
 4180POPC   D2A53284  10.432  18.479   6.595
 4180POPC   C3A53285  10.658  18.522   6.954
 4180POPC   C4A53286  10.446  18.492   7.315
 4180POPC   C1B53287  10.433  18.086   6.217
 4180POPC   C2B53288  10.457  17.933   6.597
 4180POPC   C3B53289  10.371  18.075   6.983
 4180POPC   C4B53290  10.331  17.845   7.332
 4181POPC   NC353291   5.141  32.683   4.994
 4181POPC   PO453292   4.923  32.316   5.475
 4181POPC   GL153293   5.050  32.164   5.844
 4181POPC   GL253294   4.796  31.930   5.954
 4181POPC   C1A53295   5.135  32.317   6.244
 4181POPC   D2A53296   5.002  32.388   6.674
 4181POPC   C3A53297   5.136  32.085   6.948
 4181POPC   C4A53298   5.304  32.068   7.319
 4181POPC   C1B53299   4.800  31.958   6.431
 4181POPC   C2B53300   4.674  31.891   6.882
 4181POPC   C3B53301   4.730  32.066   7.317
 4181POPC   C4B53302   4.646  32.256   7.729
 4182POPC   NC353303  18.475  21.583   5.434
 4182POPC   PO453304  19.150  21.324   5.329
 4182POPC   GL153305  19.014  21.222   5.730
 4182POPC   GL253306  19.346  21.227   5.795
 4182POPC   C1A53307  18.933  21.244   6.175
 4182POPC   D2A53308  18.706  21.390   6.549
 4182POPC   C3A53309  18.894  21.335   6.922
 4182POPC   C4A53310  19.070  21.385   7.289
 4182POPC   C1B53311  19.381  21.493   6.156
 4182POPC   C2B53312  19.231  21.501   6.535
 4182POPC   C3B53313  19.390  21.489   6.938
 4182POPC   C4B53314  19.480  21.772   7.280
 4183POPC   NC353315  36.495   7.604   5.365
 4183POPC   PO453316  36.043   7.084   5.429
 4183POPC   GL153317  35.992   7.340   5.778
 4183POPC   GL253318  36.261   7.552   5.804
 4183POPC   C1A53319  35.826   7.434   6.183
 4183POPC   D2A53320  35.715   7.251   6.584
 4183POPC   C3A53321  35.839   7.490   6.965
 4183POPC   C4A53322  36.020   7.468   7.397
 4183POPC   C1B53323  36.369   7.459   6.210
 4183POPC   C2B53324  36.190   7.446   6.592
 4183POPC   C3B53325  36.339   7.564   6.983
 4183POPC   C4B53326  36.548   7.503   7.331
 4184POPC   NC353327  11.834  26.872   5.371
 4184POPC   PO453328  12.168  26.431   5.525
 4184POPC   GL153329  12.185  26.850   5.750
 4184POPC   GL253330  11.852  26.968   5.885
 4184POPC   C1A53331  12.268  27.085   6.156
 4184POPC   D2A53332  12.075  26.982   6.535
 4184POPC   C3A53333  12.274  27.102   6.893
 4184POPC   C4A53334  12.521  26.964   7.222
 4184POPC   C1B53335  12.014  26.592   6.158
 4184POPC   C2B53336  11.821  26.336   6.501
 4184POPC   C3B53337  11.746  26.439   6.932
 4184POPC   C4B53338  11.890  26.829   7.073
 4185POPC   NC353339   3.199   2.782   5.234
 4185POPC   PO453340   3.416   2.258   5.594
 4185POPC   GL153341   3.467   2.688   5.753
 4185POPC   GL253342   3.346   3.038   5.661
 4185POPC   C1A53343   3.605   2.810   6.162
 4185POPC   D2A53344   3.874   2.847   6.523
 4185POPC   C3A53345   3.664   2.756   6.919
 4185POPC   C4A53346   3.656   2.828   7.325
 4185POPC   C1B53347   3.380   3.253   6.075
 4185POPC   C2B53348   3.428   3.133   6.534
 4185POPC   C3B53349   3.369   3.182   6.986
 4185POPC   C4B53350   3.171   2.782   7.107
 4186POPC   NC353351  43.375  42.088   5.434
 4186POPC   PO453352  44.018  42.469   5.517
 4186POPC   GL153353  43.788  42.511   5.883
 4186POPC   GL253354  43.619  42.191   5.878
 4186POPC   C1A53355  43.782  42.409   6.331
 4186POPC   D2A53356  43.721  42.619   6.716
 4186POPC   C3A53357  43.868  42.393   7.061
 4186POPC   C4A53358  44.042  42.524   7.462
 4186POPC   C1B53359  44.040  42.071   6.045
 4186POPC   C2B53360  44.173  41.888   6.445
 4186POPC   C3B53361  43.912  41.940   6.815
 4186POPC   C4B53362  43.556  41.964   7.135
 4187POPC   NC353363   3.285  14.736   5.367
 4187POPC   PO453364   3.456  14.062   5.356
 4187POPC   GL153365   3.315  14.175   5.789
 4187POPC   GL253366   3.038  13.925   5.858
 4187POPC   C1A53367   3.441  14.428   6.198
 4187POPC   D2A53368   3.234  14.425   6.632
 4187POPC   C3A53369   3.403  14.601   7.048
 4187POPC   C4A53370   3.844  14.470   7.164
 4187POPC   C1B53371   3.206  13.931   6.290
 4187POPC   C2B53372   3.264  13.915   6.728
 4187POPC   C3B53373   3.540  14.114   6.982
 4187POPC   C4B53374   3.485  14.256   7.457
 4188POPC   NC353375  27.911  44.392   5.179
 4188POPC   PO453376  28.560  44.727   5.327
 4188POPC   GL153377  28.504  44.786   5.782
 4188POPC   GL253378  28.185  44.944   5.839
 4188POPC   C1A53379  28.375  44.586   6.195
 4188POPC   D2A53380  28.468  44.371   6.574
 4188POPC   C3A53381  28.360  44.363   6.982
 4188POPC   C4A53382  28.139  44.438   7.338
 4188POPC   C1B53383  28.461   0.120   6.166
 4188POPC   C2B53384  28.597  44.917   6.539
 4188POPC   C3B53385  28.299  44.837   6.843
 4188POPC   C4B53386  28.338  44.897   7.267
 4189POPC   NC353387  38.333  36.878   5.176
 4189POPC   PO453388  38.257  37.207   5.745
 4189POPC   GL153389  38.339  36.975   6.058
 4189POPC   GL253390  38.526  36.752   5.849
 4189POPC   C1A53391  38.246  36.678   6.372
 4189POPC   D2A53392  38.227  36.661   6.830
 4189POPC   C3A53393  38.262  37.049   7.049
 4189POPC   C4A53394  38.377  37.004   7.468
 4189POPC   C1B53395  38.770  36.767   6.221
 4189POPC   C2B53396  38.703  36.619   6.622
 4189POPC   C3B53397  38.709  36.780   7.042
 4189POPC   C4B53398  38.844  36.845   7.460
 4190POPC   NC353399  23.759  38.849   5.455
 4190POPC   PO453400  24.112  39.457   5.249
 4190POPC   GL153401  23.977  39.300   5.683
 4190POPC   GL253402  23.871  39.614   5.837
 4190POPC   C1A53403  23.677  39.189   6.057
 4190POPC   D2A53404  23.552  38.968   6.448
 4190POPC   C3A53405  23.631  39.121   6.857
 4190POPC   C4A53406  23.457  39.231   7.246
 4190POPC   C1B53407  24.092  39.469   6.190
 4190POPC   C2B53408  24.002  39.274   6.524
 4190POPC   C3B53409  24.000  39.522   6.884
 4190POPC   C4B53410  23.955  39.303   7.248
 4191POPC   NC353411  11.604  12.835   5.006
 4191POPC   PO453412  11.157  12.873   5.546
 4191POPC   GL153413  11.319  12.923   5.881
 4191POPC   GL253414  11.569  12.692   5.844
 4191POPC   C1A53415  11.249  13.090   6.272
 4191POPC   D2A53416  11.263  12.912   6.665
 4191POPC   C3A53417  11.103  13.054   7.044
 4191POPC   C4A53418  11.171  12.794   7.388
 4191POPC   C1B53419  11.748  12.937   6.159
 4191POPC   C2B53420  11.839  12.694   6.495
 4191POPC   C3B53421  11.663  12.655   6.869
 4191POPC   C4B53422  11.628  12.964   7.176
 4192POPC   NC353423  25.997  27.054   5.211
 4192POPC   PO453424  26.246  26.538   5.401
 4192POPC   GL153425  26.126  26.681   5.810
 4192POPC   GL253426  25.909  26.954   5.710
 4192POPC   C1A53427  26.055  26.561   6.258
 4192POPC   D2A53428  25.981  26.453   6.707
 4192POPC   C3A53429  26.162  26.743   7.029
 4192POPC   C4A53430  26.116  27.047   7.392
 4192POPC   C1B53431  25.812  27.017   6.142
 4192POPC   C2B53432  25.899  26.965   6.595
 4192POPC   C3B53433  25.731  27.018   7.013
 4192POPC   C4B53434  25.476  27.355   7.120
 4193POPC   NC353435  38.463  16.237   5.071
 4193POPC   PO453436  38.490  16.828   5.349
 4193POPC   GL153437  38.451  16.819   5.769
 4193POPC   GL253438  38.525  16.481   5.814
 4193POPC   C1A53439  38.334  16.911   6.185
 4193POPC   D2A53440  38.540  16.914   6.585
 4193POPC   C3A53441  38.267  16.864   6.951
 4193POPC   C4A53442  38.333  16.877   7.388
 4193POPC   C1B53443  38.695  16.542   6.191
 4193POPC   C2B53444  38.831  16.442   6.579
 4193POPC   C3B53445  38.699  16.582   6.964
 4193POPC   C4B53446  38.442  16.406   7.241
 4194POPC   NC353447   3.287  22.776   5.389
 4194POPC   PO453448   2.624  22.915   5.252
 4194POPC   GL153449   2.679  22.884   5.694
 4194POPC   GL253450   3.032  22.839   5.849
 4194POPC   C1A53451   2.568  22.906   6.122
 4194POPC   D2A53452   2.854  22.751   6.418
 4194POPC   C3A53453   2.706  22.692   6.835
 4194POPC   C4A53454   2.654  22.868   7.245
 4194POPC   C1B53455   2.944  23.248   6.075
 4194POPC   C2B53456   2.796  23.284   6.512
 4194POPC   C3B53457   2.931  23.167   6.912
 4194POPC   C4B53458   3.144  23.317   7.264
 4195POPC   NC353459  31.956  37.816   5.325
 4195POPC   PO453460  31.232  37.742   5.394
 4195POPC   GL153461  31.389  37.584   5.794
 4195POPC   GL253462  31.714  37.581   5.711
 4195POPC   C1A53463  31.355  37.623   6.269
 4195POPC   D2A53464  31.123  37.755   6.629
 4195POPC   C3A53465  31.222  37.868   6.989
 4195POPC   C4A53466  31.194  37.566   7.227
 4195POPC   C1B53467  31.831  37.721   6.119
 4195POPC   C2B53468  31.810  37.474   6.506
 4195POPC   C3B53469  31.626  37.576   6.887
 4195POPC   C4B53470  31.692  37.640   7.315
 4196POPC   NC353471   1.693  15.430   5.447
 4196POPC   PO453472   2.328  15.167   5.362
 4196POPC   GL153473   2.257  15.203   5.805
 4196POPC   GL253474   1.925  15.145   5.821
 4196POPC   C1A53475   2.327  15.150   6.253
 4196POPC   D2A53476   2.074  15.087   6.614
 4196POPC   C3A53477   2.155  15.217   7.005
 4196POPC   C4A53478   2.031  15.107   7.440
 4196POPC   C1B53479   1.888  15.388   6.180
 4196POPC   C2B53480   1.695  15.465   6.563
 4196POPC   C3B53481   1.828  15.612   6.935
 4196POPC   C4B53482   1.837  15.676   7.358
 4197POPC   NC353483   8.301  28.133   5.548
 4197POPC   PO453484   7.800  28.460   5.469
 4197POPC   GL153485   8.077  28.503   5.829
 4197POPC   GL253486   7.858  28.796   5.924
 4197POPC   C1A53487   8.337  28.286   6.206
 4197POPC   D2A53488   8.488  28.036   6.594
 4197POPC   C3A53489   8.378  28.203   7.004
 4197POPC   C4A53490   8.248  28.384   7.421
 4197POPC   C1B53491   7.840  28.437   6.259
 4197POPC   C2B53492   7.964  28.190   6.631
 4197POPC   C3B53493   7.891  28.387   7.030
 4197POPC   C4B53494   7.713  28.538   7.403
 4198POPC   NC353495  21.041   2.299   5.370
 4198POPC   PO453496  21.524   2.813   5.444
 4198POPC   GL153497  21.312   2.745   5.785
 4198POPC   GL253498  21.384   2.425   5.753
 4198POPC   C1A53499  21.462   2.848   6.191
 4198POPC   D2A53500  21.239   2.965   6.564
 4198POPC   C3A53501  21.190   2.694   6.932
 4198POPC   C4A53502  21.299   2.694   7.369
 4198POPC   C1B53503  21.517   2.334   6.151
 4198POPC   C2B53504  21.495   2.487   6.547
 4198POPC   C3B53505  21.458   2.252   6.880
 4198POPC   C4B53506  21.525   2.259   7.259
 4199POPC   NC353507   0.004  14.924   5.455
 4199POPC   PO453508   0.522  15.319   5.396
 4199POPC   GL153509   0.432  15.368   5.797
 4199POPC   GL253510   0.248  15.126   5.840
 4199POPC   C1A53511   0.518  15.394   6.228
 4199POPC   D2A53512   0.720  15.203   6.555
 4199POPC   C3A53513   0.624  15.349   6.967
 4199POPC   C4A53514   0.351  15.542   7.283
 4199POPC   C1B53515   0.090  14.987   6.184
 4199POPC   C2B53516   0.048  15.089   6.593
 4199POPC   C3B53517   0.161  15.171   6.966
 4199POPC   C4B53518   0.355  15.026   7.321
 4200POPC   NC353519  10.972  26.383   5.500
 4200POPC   PO453520  11.416  25.830   5.485
 4200POPC   GL153521  11.368  26.159   5.820
 4200POPC   GL253522  11.081  26.038   5.870
 4200POPC   C1A53523  11.294  26.234   6.298
 4200POPC   D2A53524  11.407  26.119   6.724
 4200POPC   C3A53525  11.229  26.208   7.122
 4200POPC   C4A53526  11.269  26.275   7.565
 4200POPC   C1B53527  11.220  25.730   6.183
 4200POPC   C2B53528  11.263  25.622   6.616
 4200POPC   C3B53529  11.434  25.701   7.038
 4200POPC   C4B53530  11.300  25.748   7.484
 4201POPC   NC353531  41.063  18.911   5.594
 4201POPC   PO453532  40.607  19.235   5.194
 4201POPC   GL153533  40.527  19.086   5.665
 4201POPC   GL253534  40.467  18.730   5.799
 4201POPC   C1A53535  40.587  19.101   6.142
 4201POPC   D2A53536  40.829  19.328   6.477
 4201POPC   C3A53537  40.824  19.108   6.850
 4201POPC   C4A53538  40.881  19.033   7.286
 4201POPC   C1B53539  40.481  18.570   6.241
 4201POPC   C2B53540  40.453  18.782   6.626
 4201POPC   C3B53541  40.538  18.735   7.080
 4201POPC   C4B53542  40.560  18.733   7.571
 4202POPC   NC353543  32.709  31.360   5.400
 4202POPC   PO453544  33.329  31.240   5.406
 4202POPC   GL153545  33.167  31.415   5.760
 4202POPC   GL253546  33.466  31.272   5.895
 4202POPC   C1A53547  32.860  31.528   6.073
 4202POPC   D2A53548  32.980  31.702   6.456
 4202POPC   C3A53549  32.927  31.466   6.803
 4202POPC   C4A53550  33.044  31.661   7.168
 4202POPC   C1B53551  33.402  31.517   6.231
 4202POPC   C2B53552  33.425  31.351   6.628
 4202POPC   C3B53553  33.332  31.243   7.037
 4202POPC   C4B53554  33.393  31.358   7.424
 4203POPC   NC353555  34.757   4.608   5.425
 4203POPC   PO453556  34.474   4.010   5.248
 4203POPC   GL153557  34.599   4.070   5.682
 4203POPC   GL253558  34.501   4.371   5.769
 4203POPC   C1A53559  34.584   4.064   6.156
 4203POPC   D2A53560  34.750   4.134   6.544
 4203POPC   C3A53561  34.508   4.161   6.953
 4203POPC   C4A53562  34.574   4.271   7.385
 4203POPC   C1B53563  34.751   4.556   6.108
 4203POPC   C2B53564  34.857   4.651   6.547
 4203POPC   C3B53565  34.770   4.599   7.006
 4203POPC   C4B53566  34.922   4.747   7.433
 4204POPC   NC353567   5.458  22.863   5.505
 4204POPC   PO453568   6.157  23.024   5.453
 4204POPC   GL153569   5.841  23.132   5.772
 4204POPC   GL253570   5.823  22.764   5.865
 4204POPC   C1A53571   5.801  23.074   6.240
 4204POPC   D2A53572   6.069  22.964   6.567
 4204POPC   C3A53573   5.839  23.015   6.905
 4204POPC   C4A53574   6.006  23.087   7.300
 4204POPC   C1B53575   5.726  22.491   6.227
 4204POPC   C2B53576   5.746  22.563   6.661
 4204POPC   C3B53577   5.660  22.568   7.108
 4204POPC   C4B53578   5.408  22.556   7.482
 4205POPC   NC353579  38.662  22.066   5.681
 4205POPC   PO453580  39.186  22.135   5.320
 4205POPC   GL153581  39.143  22.404   5.725
 4205POPC   GL253582  39.403  22.246   5.874
 4205POPC   C1A53583  39.134  22.492   6.232
 4205POPC   D2A53584  39.186  22.193   6.616
 4205POPC   C3A53585  39.349  22.309   7.042
 4205POPC   C4A53586  39.240  22.271   7.498
 4205POPC   C1B53587  39.539  21.996   6.220
 4205POPC   C2B53588  39.731  21.808   6.582
 4205POPC   C3B53589  39.701  21.616   6.990
 4205POPC   C4B53590  39.496  21.854   7.192
 4206POPC   NC353591  18.815  11.390   5.432
 4206POPC   PO453592  19.520  11.189   5.442
 4206POPC   GL153593  19.153  11.219   5.787
 4206POPC   GL253594  18.923  11.541   5.919
 4206POPC   C1A53595  18.881  11.076   6.151
 4206POPC   D2A53596  18.741  11.195   6.599
 4206POPC   C3A53597  19.012  11.435   6.867
 4206POPC   C4A53598  19.052  11.208   7.209
 4206POPC   C1B53599  18.741  11.804   6.266
 4206POPC   C2B53600  18.650  11.814   6.731
 4206POPC   C3B53601  18.742  11.761   7.203
 4206POPC   C4B53602  18.782  11.480   7.576
 4207POPC   NC353603  37.170  10.831   5.379
 4207POPC   PO453604  36.734  10.256   5.327
 4207POPC   GL153605  36.806  10.596   5.674
 4207POPC   GL253606  37.059  10.867   5.859
 4207POPC   C1A53607  36.729  10.582   6.114
 4207POPC   D2A53608  36.828  10.405   6.486
 4207POPC   C3A53609  36.527  10.366   6.766
 4207POPC   C4A53610  36.726  10.621   7.021
 4207POPC   C1B53611  37.195  10.726   6.283
 4207POPC   C2B53612  37.225  10.629   6.716
 4207POPC   C3B53613  37.223  10.575   7.137
 4207POPC   C4B53614  37.476  10.787   7.388
 4208POPC   NC353615  25.735   7.035   5.644
 4208POPC   PO453616  26.316   6.718   5.329
 4208POPC   GL153617  26.178   6.648   5.736
 4208POPC   GL253618  25.919   6.381   5.758
 4208POPC   C1A53619  26.193   6.616   6.179
 4208POPC   D2A53620  25.968   6.835   6.487
 4208POPC   C3A53621  26.191   6.960   6.854
 4208POPC   C4A53622  25.954   6.950   7.232
 4208POPC   C1B53623  25.708   6.459   6.147
 4208POPC   C2B53624  25.658   6.364   6.584
 4208POPC   C3B53625  25.898   6.539   6.923
 4208POPC   C4B53626  26.328   6.535   7.159
 4209POPC   NC353627  31.688  10.911   5.721
 4209POPC   PO453628  31.091  11.165   5.487
 4209POPC   GL153629  31.323  11.385   5.851
 4209POPC   GL253630  31.693  11.369   5.989
 4209POPC   C1A53631  31.321  11.326   6.312
 4209POPC   D2A53632  31.597  11.125   6.572
 4209POPC   C3A53633  31.364  11.132   6.905
 4209POPC   C4A53634  31.264  10.887   7.224
 4209POPC   C1B53635  31.820  11.563   6.364
 4209POPC   C2B53636  31.536  11.608   6.712
 4209POPC   C3B53637  31.592  11.522   7.140
 4209POPC   C4B53638  31.853  11.465   7.493
 4210POPC   NC353639  18.249  44.189   5.433
 4210POPC   PO453640  18.154  43.571   5.765
 4210POPC   GL153641  18.062  43.941   6.038
 4210POPC   GL253642  18.036  44.300   5.892
 4210POPC   C1A53643  18.259  43.895   6.454
 4210POPC   D2A53644  18.633  43.844   6.704
 4210POPC   C3A53645  18.485  43.840   7.098
 4210POPC   C4A53646  18.200  43.601   7.292
 4210POPC   C1B53647  18.316  44.361   6.254
 4210POPC   C2B53648  18.407  44.335   6.717
 4210POPC   C3B53649  18.359  44.333   7.142
 4210POPC   C4B53650  17.991  44.055   7.109
 4211POPC   NC353651   2.548   2.759   5.379
 4211POPC   PO453652   3.016   2.346   5.178
 4211POPC   GL153653   2.967   2.598   5.634
 4211POPC   GL253654   2.751   2.488   5.887
 4211POPC   C1A53655   2.981   2.921   5.999
 4211POPC   D2A53656   2.968   2.856   6.433
 4211POPC   C3A53657   2.906   3.103   6.789
 4211POPC   C4A53658   2.710   2.994   7.175
 4211POPC   C1B53659   2.449   2.566   6.244
 4211POPC   C2B53660   2.393   2.403   6.640
 4211POPC   C3B53661   2.451   2.548   7.074
 4211POPC   C4B53662   2.501   2.440   7.526
 4212POPC   NC353663  39.616  18.981   5.415
 4212POPC   PO453664  39.111  18.633   5.587
 4212POPC   GL153665  39.447  18.829   5.862
 4212POPC   GL253666  39.484  19.239   5.820
 4212POPC   C1A53667  39.417  18.780   6.286
 4212POPC   D2A53668  39.024  18.841   6.486
 4212POPC   C3A53669  39.062  18.836   6.912
 4212POPC   C4A53670  38.955  19.031   7.280
 4212POPC   C1B53671  39.696  19.206   6.188
 4212POPC   C2B53672  39.589  19.215   6.592
 4212POPC   C3B53673  39.335  19.393   6.879
 4212POPC   C4B53674  39.436  19.132   7.170
 4213POPC   NC353675  28.825  13.723   5.253
 4213POPC   PO453676  28.174  13.877   5.389
 4213POPC   GL153677  28.284  13.800   5.801
 4213POPC   GL253678  28.302  13.446   5.753
 4213POPC   C1A53679  28.452  13.959   6.205
 4213POPC   D2A53680  28.657  13.841   6.610
 4213POPC   C3A53681  28.325  13.677   6.848
 4213POPC   C4A53682  28.302  14.048   7.072
 4213POPC   C1B53683  27.989  13.374   6.093
 4213POPC   C2B53684  27.882  13.435   6.552
 4213POPC   C3B53685  28.007  13.265   6.955
 4213POPC   C4B53686  28.329  13.346   7.274
 4214POPC   NC353687   5.047  26.387   5.322
 4214POPC   PO453688   4.775  25.803   5.403
 4214POPC   GL153689   5.006  26.062   5.738
 4214POPC   GL253690   5.349  25.922   5.816
 4214POPC   C1A53691   5.112  26.179   6.201
 4214POPC   D2A53692   4.988  26.031   6.653
 4214POPC   C3A53693   5.165  26.135   7.090
 4214POPC   C4A53694   5.436  26.433   7.336
 4214POPC   C1B53695   5.042  25.674   6.112
 4214POPC   C2B53696   4.963  25.542   6.553
 4214POPC   C3B53697   4.917  25.647   7.002
 4214POPC   C4B53698   5.005  25.721   7.459
 4215POPC   NC353699  20.366   3.036   5.322
 4215POPC   PO453700  19.888   2.558   5.328
 4215POPC   GL153701  19.985   2.841   5.657
 4215POPC   GL253702  19.715   2.975   5.813
 4215POPC   C1A53703  20.125   2.894   6.111
 4215POPC   D2A53704  20.332   2.895   6.540
 4215POPC   C3A53705  20.122   3.050   6.906
 4215POPC   C4A53706  19.878   2.813   7.229
 4215POPC   C1B53707  19.642   2.746   6.235
 4215POPC   C2B53708  19.616   2.742   6.685
 4215POPC   C3B53709  19.419   2.683   7.036
 4215POPC   C4B53710  19.516   2.467   7.385
 4216POPC   NC353711   1.791   2.579   5.497
 4216POPC   PO453712   2.467   2.296   5.505
 4216POPC   GL153713   2.252   2.631   5.784
 4216POPC   GL253714   2.461   2.936   5.844
 4216POPC   C1A53715   2.004   2.823   6.148
 4216POPC   D2A53716   2.003   2.707   6.597
 4216POPC   C3A53717   1.702   2.799   6.908
 4216POPC   C4A53718   1.747   3.139   7.171
 4216POPC   C1B53719   2.529   3.058   6.263
 4216POPC   C2B53720   2.445   2.946   6.684
 4216POPC   C3B53721   2.206   2.986   7.052
 4216POPC   C4B53722   2.021   2.688   7.332
 4217POPC   NC353723  42.409   9.364   4.875
 4217POPC   PO453724  42.564   8.934   5.402
 4217POPC   GL153725  42.260   8.897   5.767
 4217POPC   GL253726  42.105   8.533   5.768
 4217POPC   C1A53727  42.093   9.014   6.186
 4217POPC   D2A53728  42.235   9.196   6.565
 4217POPC   C3A53729  42.105   9.189   6.987
 4217POPC   C4A53730  42.302   9.076   7.333
 4217POPC   C1B53731  42.375   8.582   6.156
 4217POPC   C2B53732  42.195   8.634   6.581
 4217POPC   C3B53733  42.155   8.675   7.039
 4217POPC   C4B53734  42.575   8.641   7.255
 4218POPC   NC353735  42.518  37.857   5.399
 4218POPC   PO453736  41.853  37.601   5.306
 4218POPC   GL153737  42.142  37.602   5.671
 4218POPC   GL253738  42.398  37.357   5.683
 4218POPC   C1A53739  42.251  37.796   6.090
 4218POPC   D2A53740  42.160  37.952   6.531
 4218POPC   C3A53741  42.150  37.667   6.870
 4218POPC   C4A53742  42.349  37.690   7.267
 4218POPC   C1B53743  42.628  37.429   6.095
 4218POPC   C2B53744  42.492  37.555   6.495
 4218POPC   C3B53745  42.693  37.713   6.859
 4218POPC   C4B53746  42.819  37.452   7.197
 4219POPC   NC353747  12.748  15.872   5.313
 4219POPC   PO453748  13.392  15.848   5.471
 4219POPC   GL153749  13.002  15.927   5.765
 4219POPC   GL253750  12.655  16.096   5.758
 4219POPC   C1A53751  12.874  15.991   6.210
 4219POPC   D2A53752  13.076  15.999   6.598
 4219POPC   C3A53753  12.948  15.658   6.808
 4219POPC   C4A53754  12.929  15.893   7.174
 4219POPC   C1B53755  12.535  15.701   5.993
 4219POPC   C2B53756  12.509  15.710   6.460
 4219POPC   C3B53757  12.536  15.958   6.838
 4219POPC   C4B53758  12.502  15.646   7.175
 4220POPC   NC353759  41.886  41.402   5.572
 4220POPC   PO453760  42.526  41.459   5.308
 4220POPC   GL153761  42.701  41.484   5.732
 4220POPC   GL253762  42.342  41.448   5.840
 4220POPC   C1A53763  42.688  41.605   6.176
 4220POPC   D2A53764  42.425  41.805   6.507
 4220POPC   C3A53765  42.423  41.544   6.830
 4220POPC   C4A53766  42.471  41.487   7.223
 4220POPC   C1B53767  42.111  41.455   6.230
 4220POPC   C2B53768  41.948  41.234   6.584
 4220POPC   C3B53769  41.976  41.328   6.999
 4220POPC   C4B53770  42.059  41.758   7.153
 4221POPC   NC353771  41.577  39.028   5.376
 4221POPC   PO453772  41.913  39.685   5.522
 4221POPC   GL153773  41.587  39.387   5.776
 4221POPC   GL253774  41.634  38.983   5.866
 4221POPC   C1A53775  41.401  39.282   6.201
 4221POPC   D2A53776  41.532  39.135   6.621
 4221POPC   C3A53777  41.194  39.150   6.934
 4221POPC   C4A53778  41.313  39.329   7.350
 4221POPC   C1B53779  41.705  38.739   6.255
 4221POPC   C2B53780  41.979  38.849   6.594
 4221POPC   C3B53781  42.041  39.040   6.978
 4221POPC   C4B53782  42.009  38.887   7.432
 4222POPC   NC353783  15.957   1.662   5.442
 4222POPC   PO453784  15.763   2.289   5.505
 4222POPC   GL153785  15.933   2.087   5.817
 4222POPC   GL253786  15.814   2.374   6.008
 4222POPC   C1A53787  16.140   2.057   6.237
 4222POPC   D2A53788  16.125   2.365   6.575
 4222POPC   C3A53789  15.916   2.235   6.969
 4222POPC   C4A53790  16.071   1.866   7.178
 4222POPC   C1B53791  15.642   2.003   6.226
 4222POPC   C2B53792  15.821   1.862   6.611
 4222POPC   C3B53793  15.596   1.818   6.972
 4222POPC   C4B53794  15.614   1.911   7.403
 4223POPC   NC353795  21.799   3.183   5.349
 4223POPC   PO453796  22.107   3.779   5.407
 4223POPC   GL153797  22.075   3.471   5.731
 4223POPC   GL253798  22.354   3.253   5.736
 4223POPC   C1A53799  21.950   3.426   6.164
 4223POPC   D2A53800  22.164   3.384   6.561
 4223POPC   C3A53801  22.057   3.594   6.931
 4223POPC   C4A53802  21.820   3.566   7.308
 4223POPC   C1B53803  22.486   3.437   6.111
 4223POPC   C2B53804  22.637   3.242   6.467
 4223POPC   C3B53805  22.553   3.152   6.871
 4223POPC   C4B53806  22.422   3.335   7.243
 4224POPC   NC353807  10.629  42.014   5.532
 4224POPC   PO453808  10.277  42.580   5.486
 4224POPC   GL153809  10.419  42.460   5.854
 4224POPC   GL253810  10.771  42.472   5.759
 4224POPC   C1A53811  10.256  42.526   6.286
 4224POPC   D2A53812  10.069  42.452   6.697
 4224POPC   C3A53813  10.334  42.237   7.052
 4224POPC   C4A53814  10.542  42.332   7.475
 4224POPC   C1B53815  10.751  42.252   6.189
 4224POPC   C2B53816  10.658  42.208   6.640
 4224POPC   C3B53817  10.853  42.295   7.050
 4224POPC   C4B53818  10.956  42.009   7.383
 4225POPC   NC353819   0.406  12.343   5.456
 4225POPC   PO453820   0.071  11.772   5.499
 4225POPC   GL153821   0.341  11.936   5.913
 4225POPC   GL253822   0.371  12.344   5.953
 4225POPC   C1A53823   0.687  12.039   6.253
 4225POPC   D2A53824   0.685  12.376   6.494
 4225POPC   C3A53825   0.593  12.197   6.873
 4225POPC   C4A53826   0.852  12.132   7.180
 4225POPC   C1B53827   0.179  12.241   6.329
 4225POPC   C2B53828   0.306  11.917   6.558
 4225POPC   C3B53829   0.273  11.719   6.956
 4225POPC   C4B53830   0.421  11.929   7.302
 4226POPC   NC353831  33.754  16.137   5.196
 4226POPC   PO453832  34.099  16.737   5.439
 4226POPC   GL153833  33.835  16.801   5.810
 4226POPC   GL253834  33.926  17.112   5.907
 4226POPC   C1A53835  33.817  16.697   6.282
 4226POPC   D2A53836  33.967  16.898   6.682
 4226POPC   C3A53837  33.845  16.729   7.079
 4226POPC   C4A53838  33.529  16.542   7.378
 4226POPC   C1B53839  33.514  17.065   6.089
 4226POPC   C2B53840  33.439  17.009   6.513
 4226POPC   C3B53841  33.371  16.821   6.910
 4226POPC   C4B53842  33.248  16.965   7.278
 4227POPC   NC353843  34.144  27.821   5.609
 4227POPC   PO453844  33.856  27.215   5.472
 4227POPC   GL153845  33.708  27.328   5.868
 4227POPC   GL253846  33.721  27.673   5.968
 4227POPC   C1A53847  33.570  27.265   6.276
 4227POPC   D2A53848  33.784  27.252   6.671
 4227POPC   C3A53849  33.474  27.376   6.957
 4227POPC   C4A53850  33.547  27.664   7.234
 4227POPC   C1B53851  34.015  27.540   6.278
 4227POPC   C2B53852  34.151  27.732   6.693
 4227POPC   C3B53853  34.127  27.824   7.155
 4227POPC   C4B53854  33.931  27.692   7.574
 4228POPC   NC353855  41.334  14.856   5.101
 4228POPC   PO453856  41.751  15.300   5.409
 4228POPC   GL153857  41.661  15.254   5.808
 4228POPC   GL253858  41.949  15.036   5.844
 4228POPC   C1A53859  41.373  15.283   6.160
 4228POPC   D2A53860  41.522  15.277   6.589
 4228POPC   C3A53861  41.237  15.431   6.879
 4228POPC   C4A53862  41.089  15.245   7.245
 4228POPC   C1B53863  41.790  14.997   6.243
 4228POPC   C2B53864  41.924  14.945   6.631
 4228POPC   C3B53865  41.802  14.812   7.045
 4228POPC   C4B53866  41.862  14.954   7.455
 4229POPC   NC353867  15.195  17.935   5.577
 4229POPC   PO453868  15.333  17.296   5.334
 4229POPC   GL153869  15.386  17.428   5.742
 4229POPC   GL253870  15.029  17.386   5.808
 4229POPC   C1A53871  15.478  17.652   6.143
 4229POPC   D2A53872  15.250  17.666   6.535
 4229POPC   C3A53873  15.391  17.534   6.947
 4229POPC   C4A53874  15.084  17.612   7.209
 4229POPC   C1B53875  15.226  17.198   6.184
 4229POPC   C2B53876  15.296  17.141   6.599
 4229POPC   C3B53877  15.008  17.200   6.927
 4229POPC   C4B53878  14.805  17.186   7.335
 4230POPC   NC353879  23.659  32.551   5.234
 4230POPC   PO453880  24.076  32.292   5.686
 4230POPC   GL153881  23.682  32.315   5.863
 4230POPC   GL253882  23.532  32.626   5.724
 4230POPC   C1A53883  23.714  32.208   6.305
 4230POPC   D2A53884  23.800  32.211   6.741
 4230POPC   C3A53885  23.555  32.030   7.080
 4230POPC   C4A53886  23.240  31.913   7.396
 4230POPC   C1B53887  23.479  32.657   6.178
 4230POPC   C2B53888  23.387  32.499   6.579
 4230POPC   C3B53889  23.519  32.621   6.971
 4230POPC   C4B53890  23.839  32.430   7.201
 4231POPC   NC353891  21.265  34.253   5.393
 4231POPC   PO453892  21.508  33.654   5.167
 4231POPC   GL153893  21.463  33.804   5.678
 4231POPC   GL253894  21.169  34.025   5.844
 4231POPC   C1A53895  21.396  33.722   6.166
 4231POPC   D2A53896  21.451  33.872   6.601
 4231POPC   C3A53897  21.305  33.722   7.028
 4231POPC   C4A53898  21.333  33.646   7.501
 4231POPC   C1B53899  21.209  34.308   6.242
 4231POPC   C2B53900  21.113  34.243   6.680
 4231POPC   C3B53901  21.212  34.222   7.123
 4231POPC   C4B53902  21.165  34.110   7.580
 4232POPC   NC353903  44.392  19.762   5.236
 4232POPC   PO453904  44.901  20.103   5.515
 4232POPC   GL153905  44.658  19.805   5.732
 4232POPC   GL253906  44.933  19.744   5.880
 4232POPC   C1A53907  44.516  19.823   6.199
 4232POPC   D2A53908  44.448  20.111   6.584
 4232POPC   C3A53909  44.527  19.892   6.986
 4232POPC   C4A53910  44.390  19.530   7.246
 4232POPC   C1B53911  44.995  19.655   6.258
 4232POPC   C2B53912  44.883  19.816   6.620
 4232POPC   C3B53913   0.084  19.884   6.986
 4232POPC   C4B53914  44.912  19.831   7.378
 4233POPC   NC353915  31.880   2.436   5.523
 4233POPC   PO453916  31.509   2.974   5.377
 4233POPC   GL153917  31.458   2.709   5.752
 4233POPC   GL253918  31.132   2.525   5.723
 4233POPC   C1A53919  31.565   2.738   6.203
 4233POPC   D2A53920  31.719   2.679   6.653
 4233POPC   C3A53921  31.662   3.043   6.995
 4233POPC   C4A53922  31.429   2.959   7.408
 4233POPC   C1B53923  31.134   2.439   6.163
 4233POPC   C2B53924  31.207   2.653   6.577
 4233POPC   C3B53925  31.322   2.650   7.003
 4233POPC   C4B53926  31.198   2.481   7.377
 4234POPC   NC353927  35.422   0.584   5.367
 4234POPC   PO453928  35.456  44.921   5.443
 4234POPC   GL153929  35.485   0.294   5.770
 4234POPC   GL253930  35.134   0.402   5.757
 4234POPC   C1A53931  35.456   0.671   6.067
 4234POPC   D2A53932  35.441   0.974   6.406
 4234POPC   C3A53933  35.496   0.918   6.861
 4234POPC   C4A53934  35.438   0.722   7.255
 4234POPC   C1B53935  35.125   0.306   6.212
 4234POPC   C2B53936  35.285   0.484   6.618
 4234POPC   C3B53937  35.316   0.293   7.053
 4234POPC   C4B53938  35.740   0.232   7.263
 4235POPC   NC353939  22.663  16.328   5.555
 4235POPC   PO453940  22.685  15.652   5.369
 4235POPC   GL153941  22.769  15.899   5.803
 4235POPC   GL253942  22.476  15.880   6.022
 4235POPC   C1A53943  22.900  15.898   6.281
 4235POPC   D2A53944  22.812  15.796   6.728
 4235POPC   C3A53945  23.113  15.902   7.054
 4235POPC   C4A53946  23.016  16.119   7.452
 4235POPC   C1B53947  22.546  16.267   6.219
 4235POPC   C2B53948  22.513  16.336   6.654
 4235POPC   C3B53949  22.702  16.244   7.056
 4235POPC   C4B53950  22.512  16.215   7.469
 4236POPC   NC353951  26.300  21.586   5.454
 4236POPC   PO453952  25.777  21.142   5.590
 4236POPC   GL153953  25.965  21.406   5.874
 4236POPC   GL253954  26.317  21.316   5.877
 4236POPC   C1A53955  25.743  21.387   6.257
 4236POPC   D2A53956  25.939  21.321   6.647
 4236POPC   C3A53957  25.835  21.445   7.039
 4236POPC   C4A53958  25.602  21.404   7.420
 4236POPC   C1B53959  26.318  21.355   6.283
 4236POPC   C2B53960  26.406  21.127   6.631
 4236POPC   C3B53961  26.338  21.207   7.046
 4236POPC   C4B53962  26.429  20.976   7.417
 4237POPC   NC353963   0.425  14.137   5.568
 4237POPC   PO453964  44.984  13.585   5.404
 4237POPC   GL153965   0.167  13.532   5.842
 4237POPC   GL253966   0.496  13.671   5.936
 4237POPC   C1A53967   0.078  13.540   6.264
 4237POPC   D2A53968   0.171  13.781   6.586
 4237POPC   C3A53969   0.181  13.539   6.917
 4237POPC   C4A53970   0.455  13.470   7.264
 4237POPC   C1B53971   0.646  13.696   6.381
 4237POPC   C2B53972   0.654  13.716   6.849
 4237POPC   C3B53973   0.812  13.817   7.277
 4237POPC   C4B53974   0.770  13.817   7.749
 4238POPC   NC353975  18.639  13.324   5.556
 4238POPC   PO453976  18.211  13.900   5.547
 4238POPC   GL153977  18.405  13.752   5.891
 4238POPC   GL253978  18.313  13.405   5.931
 4238POPC   C1A53979  18.242  13.742   6.314
 4238POPC   D2A53980  17.929  13.574   6.569
 4238POPC   C3A53981  18.081  13.641   6.966
 4238POPC   C4A53982  18.441  13.849   7.129
 4238POPC   C1B53983  18.680  13.495   6.244
 4238POPC   C2B53984  18.638  13.571   6.705
 4238POPC   C3B53985  18.848  13.532   7.116
 4238POPC   C4B53986  18.684  13.300   7.450
 4239POPC   NC353987  15.368  41.298   5.423
 4239POPC   PO453988  15.473  41.856   5.240
 4239POPC   GL153989  15.265  41.686   5.756
 4239POPC   GL253990  15.057  41.345   5.807
 4239POPC   C1A53991  14.992  41.627   6.210
 4239POPC   D2A53992  14.975  41.422   6.608
 4239POPC   C3A53993  15.030  41.643   7.007
 4239POPC   C4A53994  15.030  41.806   7.468
 4239POPC   C1B53995  15.389  41.308   6.158
 4239POPC   C2B53996  15.522  41.394   6.635
 4239POPC   C3B53997  15.484  41.388   7.111
 4239POPC   C4B53998  15.089  41.316   7.392
 4240POPC   NC353999   5.229   7.904   5.561
 4240POPC   PO454000   4.576   8.012   5.642
 4240POPC   GL154001   4.948   8.297   5.845
 4240POPC   GL254002   5.284   8.170   5.993
 4240POPC   C1A54003   5.180   8.666   6.082
 4240POPC   D2A54004   5.508   8.694   6.429
 4240POPC   C3A54005   5.380   8.490   6.840
 4240POPC   C4A54006   5.157   8.438   7.232
 4240POPC   C1B54007   4.986   7.957   6.252
 4240POPC   C2B54008   4.908   8.064   6.679
 4240POPC   C3B54009   5.096   7.957   7.071
 4240POPC   C4B54010   5.109   8.010   7.524
 4241POPC   NC354011  30.513  40.553   5.172
 4241POPC   PO454012  30.908  41.049   4.973
 4241POPC   GL154013  30.852  40.971   5.524
 4241POPC   GL254014  30.537  40.764   5.724
 4241POPC   C1A54015  30.900  40.975   6.034
 4241POPC   D2A54016  30.632  40.899   6.422
 4241POPC   C3A54017  30.743  40.888   6.894
 4241POPC   C4A54018  31.033  41.137   7.139
 4241POPC   C1B54019  30.378  40.497   6.132
 4241POPC   C2B54020  30.404  40.490   6.614
 4241POPC   C3B54021  30.363  40.553   7.060
 4241POPC   C4B54022  30.389  40.583   7.514
 4242POPC   NC354023  35.451   9.277   5.178
 4242POPC   PO454024  35.478   8.713   5.501
 4242POPC   GL154025  35.453   9.105   5.760
 4242POPC   GL254026  35.174   9.349   5.676
 4242POPC   C1A54027  35.512   9.115   6.229
 4242POPC   D2A54028  35.288   9.098   6.652
 4242POPC   C3A54029  35.159   8.777   6.939
 4242POPC   C4A54030  35.440   8.698   7.272
 4242POPC   C1B54031  35.023   9.295   6.132
 4242POPC   C2B54032  35.015   9.508   6.568
 4242POPC   C3B54033  34.960   9.288   7.036
 4242POPC   C4B54034  35.042   9.193   7.525
 4243POPC   NC354035  14.416   2.253   5.308
 4243POPC   PO454036  14.582   1.730   5.679
 4243POPC   GL154037  14.435   2.066   5.893
 4243POPC   GL254038  14.175   2.227   5.749
 4243POPC   C1A54039  14.413   2.054   6.349
 4243POPC   D2A54040  14.762   1.851   6.538
 4243POPC   C3A54041  14.661   1.712   6.941
 4243POPC   C4A54042  14.494   2.005   7.226
 4243POPC   C1B54043  14.103   2.385   6.123
 4243POPC   C2B54044  13.799   2.142   6.369
 4243POPC   C3B54045  13.803   2.128   6.805
 4243POPC   C4B54046  14.153   2.354   6.973
 4244POPC   NC354047   7.180  32.981   5.366
 4244POPC   PO454048   7.672  33.349   5.625
 4244POPC   GL154049   7.506  32.944   5.797
 4244POPC   GL254050   7.166  33.101   5.878
 4244POPC   C1A54051   7.462  32.743   6.232
 4244POPC   D2A54052   7.301  33.020   6.578
 4244POPC   C3A54053   7.401  32.975   7.003
 4244POPC   C4A54054   7.687  33.172   7.272
 4244POPC   C1B54055   6.969  32.826   6.190
 4244POPC   C2B54056   6.977  32.635   6.588
 4244POPC   C3B54057   6.893  32.773   7.007
 4244POPC   C4B54058   7.031  33.089   7.342
 4245POPC   NC354059  35.365  44.321   5.449
 4245POPC   PO454060  35.069  43.662   5.454
 4245POPC   GL154061  35.181  43.979   5.816
 4245POPC   GL254062  35.497  43.801   5.790
 4245POPC   C1A54063  35.103  44.172   6.267
 4245POPC   D2A54064  35.171  43.998   6.688
 4245POPC   C3A54065  35.043  43.948   7.112
 4245POPC   C4A54066  35.364  44.012   7.418
 4245POPC   C1B54067  35.520  43.818   6.236
 4245POPC   C2B54068  35.351  43.554   6.547
 4245POPC   C3B54069  35.218  43.474   6.993
 4245POPC   C4B54070  35.215  43.554   7.438
 4246POPC   NC354071   8.782   2.331   5.366
 4246POPC   PO454072   9.293   1.714   5.343
 4246POPC   GL154073   9.060   1.884   5.667
 4246POPC   GL254074   9.192   2.205   5.635
 4246POPC   C1A54075   8.831   1.811   6.056
 4246POPC   D2A54076   8.906   1.945   6.486
 4246POPC   C3A54077   8.725   1.821   6.900
 4246POPC   C4A54078   8.925   1.875   7.327
 4246POPC   C1B54079   9.055   2.296   6.050
 4246POPC   C2B54080   9.073   2.430   6.478
 4246POPC   C3B54081   8.986   2.257   6.905
 4246POPC   C4B54082   9.136   2.330   7.327
 4247POPC   NC354083  28.764  24.543   5.358
 4247POPC   PO454084  29.398  24.234   5.503
 4247POPC   GL154085  29.055  24.400   5.754
 4247POPC   GL254086  29.284  24.608   5.858
 4247POPC   C1A54087  28.803  24.336   6.148
 4247POPC   D2A54088  28.981  24.153   6.509
 4247POPC   C3A54089  29.178  24.410   6.810
 4247POPC   C4A54090  29.119  24.414   7.258
 4247POPC   C1B54091  29.234  24.562   6.303
 4247POPC   C2B54092  29.055  24.859   6.588
 4247POPC   C3B54093  28.997  24.854   7.025
 4247POPC   C4B54094  29.135  24.881   7.489
 4248POPC   NC354095   4.530   6.176   5.484
 4248POPC   PO454096   4.409   5.580   5.136
 4248POPC   GL154097   4.318   5.720   5.664
 4248POPC   GL254098   4.247   6.027   5.883
 4248POPC   C1A54099   4.279   5.580   6.127
 4248POPC   D2A54100   4.237   5.834   6.524
 4248POPC   C3A54101   4.318   5.633   6.906
 4248POPC   C4A54102   4.320   5.769   7.309
 4248POPC   C1B54103   4.450   6.211   6.206
 4248POPC   C2B54104   4.444   6.341   6.587
 4248POPC   C3B54105   4.350   6.161   6.961
 4248POPC   C4B54106   4.459   6.340   7.326
 4249POPC   NC354107  32.608   5.317   5.173
 4249POPC   PO454108  32.266   4.736   5.345
 4249POPC   GL154109  32.390   4.927   5.709
 4249POPC   GL254110  32.268   5.262   5.705
 4249POPC   C1A54111  32.210   4.910   6.125
 4249POPC   D2A54112  32.371   4.861   6.547
 4249POPC   C3A54113  32.110   4.848   6.929
 4249POPC   C4A54114  32.284   5.071   7.276
 4249POPC   C1B54115  31.995   5.379   6.058
 4249POPC   C2B54116  31.935   5.456   6.499
 4249POPC   C3B54117  32.072   5.391   6.915
 4249POPC   C4B54118  31.826   5.324   7.290
 4250POPC   NC354119   2.972  13.977   5.348
 4250POPC   PO454120   2.816  14.639   5.315
 4250POPC   GL154121   2.849  14.400   5.690
 4250POPC   GL254122   2.516  14.412   5.757
 4250POPC   C1A54123   2.950  14.361   6.158
 4250POPC   D2A54124   2.719  14.468   6.577
 4250POPC   C3A54125   2.884  14.508   6.995
 4250POPC   C4A54126   3.070  14.155   7.184
 4250POPC   C1B54127   2.468  14.265   6.175
 4250POPC   C2B54128   2.400  14.065   6.585
 4250POPC   C3B54129   2.481  14.172   7.028
 4250POPC   C4B54130   2.455  14.499   7.312
 4251POPC   NC354131  15.410   4.655   5.218
 4251POPC   PO454132  15.091   5.171   5.260
 4251POPC   GL154133  15.100   5.003   5.685
 4251POPC   GL254134  14.776   4.824   5.710
 4251POPC   C1A54135  15.325   5.010   6.107
 4251POPC   D2A54136  15.539   5.106   6.509
 4251POPC   C3A54137  15.417   4.896   6.905
 4251POPC   C4A54138  15.277   5.106   7.297
 4251POPC   C1B54139  14.815   4.962   6.134
 4251POPC   C2B54140  15.020   5.086   6.527
 4251POPC   C3B54141  14.918   5.053   6.948
 4251POPC   C4B54142  14.869   4.801   7.344
 4252POPC   NC354143  22.535  33.583   5.448
 4252POPC   PO454144  23.204  33.820   5.356
 4252POPC   GL154145  22.897  33.867   5.762
 4252POPC   GL254146  23.036  33.629   6.004
 4252POPC   C1A54147  22.870  34.055   6.214
 4252POPC   D2A54148  22.900  33.725   6.556
 4252POPC   C3A54149  23.011  33.872   6.976
 4252POPC   C4A54150  23.140  34.230   7.218
 4252POPC   C1B54151  22.576  33.648   6.152
 4252POPC   C2B54152  22.372  33.529   6.549
 4252POPC   C3B54153  22.398  33.628   6.944
 4252POPC   C4B54154  22.639  33.703   7.303
 4253POPC   NC354155  24.796   7.658   5.365
 4253POPC   PO454156  25.394   7.312   5.483
 4253POPC   GL154157  25.112   7.526   5.767
 4253POPC   GL254158  24.847   7.280   5.810
 4253POPC   C1A54159  25.134   7.441   6.216
 4253POPC   D2A54160  25.221   7.623   6.602
 4253POPC   C3A54161  25.305   7.397   6.957
 4253POPC   C4A54162  25.533   7.540   7.300
 4253POPC   C1B54163  24.806   7.056   6.227
 4253POPC   C2B54164  24.981   7.072   6.655
 4253POPC   C3B54165  24.841   7.168   7.077
 4253POPC   C4B54166  25.123   7.234   7.442
 4254POPC   NC354167  42.193  42.697   5.429
 4254POPC   PO454168  42.247  43.396   5.459
 4254POPC   GL154169  42.146  43.072   5.791
 4254POPC   GL254170  42.481  42.901   5.806
 4254POPC   C1A54171  41.972  43.127   6.236
 4254POPC   D2A54172  42.148  43.379   6.593
 4254POPC   C3A54173  42.256  43.202   6.964
 4254POPC   C4A54174  42.594  43.182   7.177
 4254POPC   C1B54175  42.388  42.855   6.241
 4254POPC   C2B54176  42.173  42.824   6.631
 4254POPC   C3B54177  42.306  42.689   7.042
 4254POPC   C4B54178  42.258  42.736   7.492
 4255POPC   NC354179  41.970   7.835   5.466
 4255POPC   PO454180  41.699   8.436   5.350
 4255POPC   GL154181  41.689   8.178   5.754
 4255POPC   GL254182  41.839   7.916   5.952
 4255POPC   C1A54183  41.426   8.195   6.137
 4255POPC   D2A54184  41.248   8.103   6.560
 4255POPC   C3A54185  41.321   8.276   6.986
 4255POPC   C4A54186  41.356   8.127   7.418
 4255POPC   C1B54187  41.716   7.867   6.399
 4255POPC   C2B54188  41.660   7.922   6.838
 4255POPC   C3B54189  41.823   8.202   7.145
 4255POPC   C4B54190  41.855   8.101   7.569
 4256POPC   NC354191  41.846  43.483   5.675
 4256POPC   PO454192  41.750  42.837   5.509
 4256POPC   GL154193  41.595  43.072   5.878
 4256POPC   GL254194  41.317  43.276   5.762
 4256POPC   C1A54195  41.469  43.100   6.337
 4256POPC   D2A54196  41.528  42.816   6.713
 4256POPC   C3A54197  41.815  42.914   7.051
 4256POPC   C4A54198  41.849  43.336   7.238
 4256POPC   C1B54199  41.117  42.892   5.992
 4256POPC   C2B54200  41.057  42.806   6.460
 4256POPC   C3B54201  41.081  42.904   6.922
 4256POPC   C4B54202  41.359  43.125   7.229
 4257POPC   NC354203  20.700  37.407   5.134
 4257POPC   PO454204  20.887  37.859   5.669
 4257POPC   GL154205  20.552  37.772   5.922
 4257POPC   GL254206  20.322  38.054   5.910
 4257POPC   C1A54207  20.703  37.725   6.340
 4257POPC   D2A54208  21.001  37.943   6.616
 4257POPC   C3A54209  20.852  37.858   7.021
 4257POPC   C4A54210  20.505  37.558   7.023
 4257POPC   C1B54211  20.209  37.953   6.336
 4257POPC   C2B54212  20.479  38.014   6.706
 4257POPC   C3B54213  20.511  38.223   7.096
 4257POPC   C4B54214  20.257  37.957   7.231
 4258POPC   NC354215  37.576  14.049   5.709
 4258POPC   PO454216  37.606  14.647   5.426
 4258POPC   GL154217  37.348  14.487   5.759
 4258POPC   GL254218  37.668  14.463   5.967
 4258POPC   C1A54219  37.244  14.319   6.187
 4258POPC   D2A54220  37.549  14.427   6.479
 4258POPC   C3A54221  37.370  14.448   6.898
 4258POPC   C4A54222  37.428  14.664   7.284
 4258POPC   C1B54223  38.028  14.350   6.233
 4258POPC   C2B54224  38.132  14.498   6.633
 4258POPC   C3B54225  37.842  14.320   6.882
 4258POPC   C4B54226  37.721  14.244   7.296
 4259POPC   NC354227  31.820  26.953   5.478
 4259POPC   PO454228  31.158  26.797   5.358
 4259POPC   GL154229  31.480  26.618   5.698
 4259POPC   GL254230  31.279  26.413   5.894
 4259POPC   C1A54231  31.680  26.627   6.172
 4259POPC   D2A54232  31.893  26.941   6.488
 4259POPC   C3A54233  31.743  27.186   6.861
 4259POPC   C4A54234  31.575  27.103   7.250
 4259POPC   C1B54235  31.204  26.807   6.155
 4259POPC   C2B54236  31.363  26.919   6.587
 4259POPC   C3B54237  31.221  26.759   6.999
 4259POPC   C4B54238  31.081  26.312   7.026
 4260POPC   NC354239  20.935  10.747   5.623
 4260POPC   PO454240  20.611  10.170   5.565
 4260POPC   GL154241  20.624  10.474   5.940
 4260POPC   GL254242  20.995  10.520   6.066
 4260POPC   C1A54243  20.624  10.582   6.402
 4260POPC   D2A54244  20.546  10.519   6.856
 4260POPC   C3A54245  20.807  10.329   7.163
 4260POPC   C4A54246  20.688  10.417   7.609
 4260POPC   C1B54247  21.038  10.895   6.350
 4260POPC   C2B54248  20.869  10.946   6.777
 4260POPC   C3B54249  20.954  10.814   7.231
 4260POPC   C4B54250  21.178  10.482   7.513
 4261POPC   NC354251   3.538  31.211   5.541
 4261POPC   PO454252   3.394  30.653   5.238
 4261POPC   GL154253   3.271  30.763   5.668
 4261POPC   GL254254   3.582  30.770   5.802
 4261POPC   C1A54255   3.243  30.761   6.166
 4261POPC   D2A54256   3.061  30.710   6.585
 4261POPC   C3A54257   3.337  30.714   6.939
 4261POPC   C4A54258   3.282  30.734   7.374
 4261POPC   C1B54259   3.785  30.574   6.129
 4261POPC   C2B54260   4.031  30.543   6.488
 4261POPC   C3B54261   3.966  30.433   6.889
 4261POPC   C4B54262   3.772  30.653   7.195
 4262POPC   NC354263  29.824  15.689   5.485
 4262POPC   PO454264  30.213  16.129   5.244
 4262POPC   GL154265  30.176  15.918   5.771
 4262POPC   GL254266  29.776  15.944   5.905
 4262POPC   C1A54267  30.083  16.005   6.286
 4262POPC   D2A54268  29.848  16.245   6.622
 4262POPC   C3A54269  30.080  16.170   6.995
 4262POPC   C4A54270  30.237  15.776   7.155
 4262POPC   C1B54271  29.481  15.684   6.186
 4262POPC   C2B54272  29.445  15.442   6.587
 4262POPC   C3B54273  29.644  15.555   6.961
 4262POPC   C4B54274  29.622  15.978   7.077
 4263POPC   NC354275  33.741  32.329   5.199
 4263POPC   PO454276  34.009  31.824   5.498
 4263POPC   GL154277  33.740  32.136   5.709
 4263POPC   GL254278  34.034  32.356   5.742
 4263POPC   C1A54279  33.543  32.235   6.142
 4263POPC   D2A54280  33.787  32.304   6.541
 4263POPC   C3A54281  33.625  32.237   6.959
 4263POPC   C4A54282  33.731  32.185   7.415
 4263POPC   C1B54283  34.156  32.373   6.192
 4263POPC   C2B54284  34.245  32.529   6.624
 4263POPC   C3B54285  34.141  32.387   7.053
 4263POPC   C4B54286  34.163  32.461   7.516
 4264POPC   NC354287   7.621  17.409   5.332
 4264POPC   PO454288   7.246  17.922   5.328
 4264POPC   GL154289   7.259  17.784   5.737
 4264POPC   GL254290   7.174  17.465   5.719
 4264POPC   C1A54291   7.576  17.611   6.054
 4264POPC   D2A54292   7.665  17.412   6.478
 4264POPC   C3A54293   7.420  17.569   6.838
 4264POPC   C4A54294   7.547  17.427   7.208
 4264POPC   C1B54295   7.076  17.500   6.154
 4264POPC   C2B54296   7.173  17.271   6.527
 4264POPC   C3B54297   7.027  17.262   6.953
 4264POPC   C4B54298   6.972  17.636   7.226
 4265POPC   NC354299   8.588  37.996   5.390
 4265POPC   PO454300   7.985  38.375   5.235
 4265POPC   GL154301   8.191  38.316   5.608
 4265POPC   GL254302   7.907  38.424   5.754
 4265POPC   C1A54303   8.263  38.407   6.098
 4265POPC   D2A54304   8.080  38.399   6.515
 4265POPC   C3A54305   8.296  38.448   6.899
 4265POPC   C4A54306   8.316  38.855   7.128
 4265POPC   C1B54307   7.801  38.700   6.103
 4265POPC   C2B54308   7.733  38.782   6.545
 4265POPC   C3B54309   7.747  38.498   6.885
 4265POPC   C4B54310   7.969  38.489   7.287
 4266POPC   NC354311  44.241   1.102   5.444
 4266POPC   PO454312  44.730   1.518   5.503
 4266POPC   GL154313  44.735   1.306   5.870
 4266POPC   GL254314  44.602   0.992   5.782
 4266POPC   C1A54315  44.672   1.393   6.294
 4266POPC   D2A54316  44.550   1.431   6.697
 4266POPC   C3A54317  44.906   1.507   6.987
 4266POPC   C4A54318  44.598   1.449   7.296
 4266POPC   C1B54319  44.443   0.944   6.189
 4266POPC   C2B54320  44.543   0.916   6.618
 4266POPC   C3B54321  44.396   1.034   7.040
 4266POPC   C4B54322  44.613   0.955   7.445
 4267POPC   NC354323  26.997  22.886   5.185
 4267POPC   PO454324  26.356  22.833   5.370
 4267POPC   GL154325  26.549  22.867   5.783
 4267POPC   GL254326  26.911  22.919   5.725
 4267POPC   C1A54327  26.601  23.015   6.246
 4267POPC   D2A54328  26.971  23.123   6.518
 4267POPC   C3A54329  26.900  23.116   6.958
 4267POPC   C4A54330  26.539  22.877   7.054
 4267POPC   C1B54331  27.022  22.745   6.157
 4267POPC   C2B54332  27.136  22.643   6.586
 4267POPC   C3B54333  27.028  22.610   7.036
 4267POPC   C4B54334  27.236  22.455   7.427
 4268POPC   NC354335  26.537  19.208   5.665
 4268POPC   PO454336  26.096  18.835   5.297
 4268POPC   GL154337  26.128  18.889   5.752
 4268POPC   GL254338  26.429  18.730   5.863
 4268POPC   C1A54339  26.071  19.134   6.158
 4268POPC   D2A54340  26.312  19.381   6.464
 4268POPC   C3A54341  26.301  19.197   6.882
 4268POPC   C4A54342  25.957  19.294   7.158
 4268POPC   C1B54343  26.387  18.741   6.312
 4268POPC   C2B54344  26.016  18.805   6.576
 4268POPC   C3B54345  25.929  18.822   7.000
 4268POPC   C4B54346  26.207  18.882   7.369
 4269POPC   NC354347  11.481  41.826   5.520
 4269POPC   PO454348  10.825  41.520   5.433
 4269POPC   GL154349  11.093  41.517   5.828
 4269POPC   GL254350  11.413  41.383   5.818
 4269POPC   C1A54351  11.223  41.488   6.285
 4269POPC   D2A54352  11.413  41.781   6.601
 4269POPC   C3A54353  11.277  41.765   7.028
 4269POPC   C4A54354  11.265  41.398   7.244
 4269POPC   C1B54355  11.682  41.584   6.123
 4269POPC   C2B54356  11.798  41.405   6.504
 4269POPC   C3B54357  11.682  41.451   6.923
 4269POPC   C4B54358  11.782  41.607   7.302
 4270POPC   NC354359   2.686  15.500   5.352
 4270POPC   PO454360   3.316  15.167   5.204
 4270POPC   GL154361   2.939  15.105   5.560
 4270POPC   GL254362   2.662  14.914   5.699
 4270POPC   C1A54363   2.766  15.308   6.010
 4270POPC   D2A54364   2.704  15.507   6.463
 4270POPC   C3A54365   2.683  15.338   6.933
 4270POPC   C4A54366   2.805  15.424   7.392
 4270POPC   C1B54367   2.689  14.794   6.124
 4270POPC   C2B54368   2.716  14.975   6.536
 4270POPC   C3B54369   2.509  14.851   6.905
 4270POPC   C4B54370   2.515  15.005   7.318
 4271POPC   NC354371  12.277   5.443   5.349
 4271POPC   PO454372  12.855   5.229   5.244
 4271POPC   GL154373  13.033   5.224   5.652
 4271POPC   GL254374  12.671   5.202   5.723
 4271POPC   C1A54375  13.020   5.040   6.081
 4271POPC   D2A54376  12.777   4.922   6.470
 4271POPC   C3A54377  12.991   4.974   6.861
 4271POPC   C4A54378  12.886   5.009   7.284
 4271POPC   C1B54379  12.489   5.188   6.122
 4271POPC   C2B54380  12.444   5.351   6.532
 4271POPC   C3B54381  12.502   5.126   6.918
 4271POPC   C4B54382  12.449   5.283   7.322
 4272POPC   NC354383  13.825  30.639   5.386
 4272POPC   PO454384  13.182  30.751   5.513
 4272POPC   GL154385  13.534  30.656   5.815
 4272POPC   GL254386  13.536  30.313   5.889
 4272POPC   C1A54387  13.806  30.924   6.121
 4272POPC   D2A54388  13.776  31.141   6.500
 4272POPC   C3A54389  13.947  31.003   6.930
 4272POPC   C4A54390  13.770  30.927   7.323
 4272POPC   C1B54391  13.629  30.476   6.278
 4272POPC   C2B54392  13.471  30.741   6.573
 4272POPC   C3B54393  13.621  30.609   6.943
 4272POPC   C4B54394  13.478  30.474   7.321
 4273POPC   NC354395   9.563   8.033   5.068
 4273POPC   PO454396  10.031   8.323   5.483
 4273POPC   GL154397   9.947   8.220   5.846
 4273POPC   GL254398   9.728   7.958   5.802
 4273POPC   C1A54399   9.712   8.276   6.231
 4273POPC   D2A54400   9.472   8.360   6.595
 4273POPC   C3A54401   9.712   8.327   6.938
 4273POPC   C4A54402   9.731   8.430   7.331
 4273POPC   C1B54403  10.001   7.856   6.186
 4273POPC   C2B54404  10.015   8.052   6.619
 4273POPC   C3B54405  10.020   7.929   7.103
 4273POPC   C4B54406   9.971   8.050   7.561
 4274POPC   NC354407  12.438  12.603   5.506
 4274POPC   PO454408  11.812  12.775   5.411
 4274POPC   GL154409  12.052  12.874   5.763
 4274POPC   GL254410  12.356  13.054   5.779
 4274POPC   C1A54411  12.185  12.611   6.115
 4274POPC   D2A54412  12.391  12.625   6.499
 4274POPC   C3A54413  12.178  12.594   6.875
 4274POPC   C4A54414  12.077  12.662   7.302
 4274POPC   C1B54415  12.251  13.109   6.234
 4274POPC   C2B54416  12.367  13.140   6.686
 4274POPC   C3B54417  12.115  13.109   7.074
 4274POPC   C4B54418  12.164  13.142   7.548
 4275POPC   NC354419  34.629   8.921   5.436
 4275POPC   PO454420  34.055   9.303   5.515
 4275POPC   GL154421  34.304   9.097   5.802
 4275POPC   GL254422  34.264   8.739   5.787
 4275POPC   C1A54423  34.618   8.979   6.113
 4275POPC   D2A54424  34.766   9.068   6.526
 4275POPC   C3A54425  34.631   8.897   6.898
 4275POPC   C4A54426  34.541   9.060   7.297
 4275POPC   C1B54427  34.142   8.871   6.225
 4275POPC   C2B54428  34.214   8.708   6.647
 4275POPC   C3B54429  34.100   8.893   7.056
 4275POPC   C4B54430  34.040   8.720   7.493
 4276POPC   NC354431  39.263  30.936   5.506
 4276POPC   PO454432  39.038  30.306   5.422
 4276POPC   GL154433  39.276  30.475   5.754
 4276POPC   GL254434  39.639  30.403   5.776
 4276POPC   C1A54435  39.045  30.654   6.114
 4276POPC   D2A54436  38.813  30.555   6.482
 4276POPC   C3A54437  38.921  30.775   6.864
 4276POPC   C4A54438  39.227  30.870   7.189
 4276POPC   C1B54439  39.545  30.568   6.194
 4276POPC   C2B54440  39.337  30.730   6.550
 4276POPC   C3B54441  39.549  30.613   6.900
 4276POPC   C4B54442  39.476  30.444   7.310
 4277POPC   NC354443  12.342  36.797   5.460
 4277POPC   PO454444  12.230  37.478   5.468
 4277POPC   GL154445  12.275  37.153   5.830
 4277POPC   GL254446  12.028  36.851   5.876
 4277POPC   C1A54447  12.350  37.062   6.272
 4277POPC   D2A54448  12.252  37.323   6.645
 4277POPC   C3A54449  12.056  37.114   6.994
 4277POPC   C4A54450  12.357  37.018   7.286
 4277POPC   C1B54451  11.801  36.526   6.151
 4277POPC   C2B54452  11.848  36.386   6.596
 4277POPC   C3B54453  12.121  36.544   6.926
 4277POPC   C4B54454  12.014  36.641   7.337
 4278POPC   NC354455  24.010   5.400   5.628
 4278POPC   PO454456  23.682   6.136   5.523
 4278POPC   GL154457  23.636   5.759   5.717
 4278POPC   GL254458  23.908   5.866   5.914
 4278POPC   C1A54459  23.515   5.645   6.126
 4278POPC   D2A54460  23.687   5.804   6.519
 4278POPC   C3A54461  23.508   5.668   6.896
 4278POPC   C4A54462  23.649   5.717   7.327
 4278POPC   C1B54463  24.060   6.112   6.307
 4278POPC   C2B54464  23.982   6.188   6.712
 4278POPC   C3B54465  23.734   6.127   7.047
 4278POPC   C4B54466  23.872   6.198   7.456
 4279POPC   NC354467   7.342  24.223   5.601
 4279POPC   PO454468   7.684  24.735   5.386
 4279POPC   GL154469   7.407  24.698   5.775
 4279POPC   GL254470   7.464  24.397   6.038
 4279POPC   C1A54471   7.244  24.812   6.194
 4279POPC   D2A54472   7.400  24.538   6.519
 4279POPC   C3A54473   7.258  24.643   6.892
 4279POPC   C4A54474   6.947  24.390   7.040
 4279POPC   C1B54475   7.769  24.682   6.159
 4279POPC   C2B54476   7.994  24.673   6.531
 4279POPC   C3B54477   7.799  24.344   6.770
 4279POPC   C4B54478   7.586  24.282   7.121
 4280POPC   NC354479  33.601  31.615   5.524
 4280POPC   PO454480  34.139  31.207   5.368
 4280POPC   GL154481  33.956  31.139   5.787
 4280POPC   GL254482  33.946  31.487   5.869
 4280POPC   C1A54483  33.836  31.209   6.261
 4280POPC   D2A54484  33.987  31.479   6.575
 4280POPC   C3A54485  33.835  31.362   6.958
 4280POPC   C4A54486  33.883  31.192   7.357
 4280POPC   C1B54487  33.822  31.805   6.181
 4280POPC   C2B54488  33.614  31.832   6.596
 4280POPC   C3B54489  33.515  31.748   7.028
 4280POPC   C4B54490  33.791  31.684   7.365
 4281POPC   NC354491  33.540   2.301   5.478
 4281POPC   PO454492  33.932   1.782   5.222
 4281POPC   GL154493  33.944   1.960   5.660
 4281POPC   GL254494  33.942   2.303   5.853
 4281POPC   C1A54495  33.857   1.842   6.093
 4281POPC   D2A54496  33.966   1.977   6.510
 4281POPC   C3A54497  33.900   1.697   6.864
 4281POPC   C4A54498  33.780   1.819   7.267
 4281POPC   C1B54499  33.615   2.288   6.228
 4281POPC   C2B54500  33.484   2.145   6.681
 4281POPC   C3B54501  33.570   2.260   7.131
 4281POPC   C4B54502  33.561   2.252   7.632
 4282POPC   NC354503   2.788  16.915   5.437
 4282POPC   PO454504   3.158  16.478   5.787
 4282POPC   GL154505   2.908  16.826   5.932
 4282POPC   GL254506   2.562  16.832   5.872
 4282POPC   C1A54507   2.781  17.070   6.281
 4282POPC   D2A54508   2.764  17.014   6.706
 4282POPC   C3A54509   2.920  16.675   6.913
 4282POPC   C4A54510   2.990  16.845   7.319
 4282POPC   C1B54511   2.545  16.602   6.263
 4282POPC   C2B54512   2.313  16.681   6.639
 4282POPC   C3B54513   2.420  16.767   7.043
 4282POPC   C4B54514   2.631  16.483   7.305
 4283POPC   NC354515   3.598  21.871   5.097
 4283POPC   PO454516   3.395  22.342   5.531
 4283POPC   GL154517   3.556  22.327   5.899
 4283POPC   GL254518   3.800  22.129   5.851
 4283POPC   C1A54519   3.536  22.175   6.296
 4283POPC   D2A54520   3.275  21.818   6.394
 4283POPC   C3A54521   3.229  21.839   6.803
 4283POPC   C4A54522   3.361  22.113   7.114
 4283POPC   C1B54523   4.018  22.345   6.190
 4283POPC   C2B54524   4.044  22.403   6.612
 4283POPC   C3B54525   3.879  22.196   6.975
 4283POPC   C4B54526   3.805  22.219   7.398
 4284POPC   NC354527  25.034  19.915   5.417
 4284POPC   PO454528  25.581  19.652   5.514
 4284POPC   GL154529  25.520  20.050   5.750
 4284POPC   GL254530  25.191  20.051   5.924
 4284POPC   C1A54531  25.659  20.022   6.176
 4284POPC   D2A54532  25.385  19.950   6.537
 4284POPC   C3A54533  25.578  19.761   6.900
 4284POPC   C4A54534  25.462  19.908   7.307
 4284POPC   C1B54535  25.209  19.633   6.172
 4284POPC   C2B54536  25.198  19.483   6.637
 4284POPC   C3B54537  25.070  19.789   6.969
 4284POPC   C4B54538  24.958  19.861   7.395
 4285POPC   NC354539  35.304  32.171   5.043
 4285POPC   PO454540  35.769  32.014   5.592
 4285POPC   GL154541  35.638  32.330   5.866
 4285POPC   GL254542  35.515  32.636   5.789
 4285POPC   C1A54543  35.590  32.421   6.292
 4285POPC   D2A54544  35.564  32.273   6.686
 4285POPC   C3A54545  35.358  31.900   6.806
 4285POPC   C4A54546  35.452  32.000   7.223
 4285POPC   C1B54547  35.145  32.439   6.052
 4285POPC   C2B54548  35.083  32.234   6.462
 4285POPC   C3B54549  35.090  32.333   6.903
 4285POPC   C4B54550  35.054  32.479   7.311
 4286POPC   NC354551  21.941  20.491   5.311
 4286POPC   PO454552  22.398  20.885   5.448
 4286POPC   GL154553  22.086  20.752   5.747
 4286POPC   GL254554  21.793  20.926   5.698
 4286POPC   C1A54555  22.070  20.702   6.207
 4286POPC   D2A54556  22.355  20.805   6.563
 4286POPC   C3A54557  22.147  20.766   6.931
 4286POPC   C4A54558  21.955  20.438   7.222
 4286POPC   C1B54559  21.608  20.932   6.113
 4286POPC   C2B54560  21.689  20.827   6.549
 4286POPC   C3B54561  21.635  20.786   6.972
 4286POPC   C4B54562  21.854  20.921   7.340
 4287POPC   NC354563  43.958  17.088   5.421
 4287POPC   PO454564  43.942  17.726   5.358
 4287POPC   GL154565  43.933  17.551   5.817
 4287POPC   GL254566  43.765  17.243   5.872
 4287POPC   C1A54567  43.683  17.565   6.267
 4287POPC   D2A54568  43.585  17.334   6.670
 4287POPC   C3A54569  43.724  17.437   7.123
 4287POPC   C4A54570  43.635  17.540   7.591
 4287POPC   C1B54571  44.089  17.244   6.211
 4287POPC   C2B54572  44.096  17.190   6.649
 4287POPC   C3B54573  44.285  17.370   7.032
 4287POPC   C4B54574  44.140  17.411   7.461
 4288POPC   NC354575  17.068   3.996   5.340
 4288POPC   PO454576  17.272   4.523   5.601
 4288POPC   GL154577  16.818   4.444   5.790
 4288POPC   GL254578  16.533   4.176   5.721
 4288POPC   C1A54579  16.729   4.405   6.246
 4288POPC   D2A54580  17.089   4.318   6.496
 4288POPC   C3A54581  17.080   4.377   6.918
 4288POPC   C4A54582  16.929   4.660   7.192
 4288POPC   C1B54583  16.820   3.966   6.013
 4288POPC   C2B54584  16.723   3.920   6.449
 4288POPC   C3B54585  16.610   4.194   6.791
 4288POPC   C4B54586  16.718   4.140   7.221
 4289POPC   NC354587   2.076  24.738   5.313
 4289POPC   PO454588   1.598  24.333   5.299
 4289POPC   GL154589   1.915  24.365   5.649
 4289POPC   GL254590   1.884  24.704   5.810
 4289POPC   C1A54591   2.202  24.352   6.031
 4289POPC   D2A54592   2.028  24.338   6.460
 4289POPC   C3A54593   2.187  24.219   6.868
 4289POPC   C4A54594   2.044  24.414   7.246
 4289POPC   C1B54595   1.680  24.906   6.173
 4289POPC   C2B54596   1.727  24.767   6.587
 4289POPC   C3B54597   1.791  24.820   6.991
 4289POPC   C4B54598   1.593  24.687   7.333
 4290POPC   NC354599  11.911  40.945   5.363
 4290POPC   PO454600  12.390  40.494   5.309
 4290POPC   GL154601  12.243  40.688   5.669
 4290POPC   GL254602  11.895  40.649   5.764
 4290POPC   C1A54603  12.278  40.816   6.100
 4290POPC   D2A54604  12.432  40.932   6.504
 4290POPC   C3A54605  12.239  40.723   6.853
 4290POPC   C4A54606  12.120  40.881   7.231
 4290POPC   C1B54607  11.918  40.439   6.134
 4290POPC   C2B54608  11.847  40.605   6.512
 4290POPC   C3B54609  11.803  40.386   6.862
 4290POPC   C4B54610  11.777  40.525   7.235
 4291POPC   NC354611  22.563   1.776   5.556
 4291POPC   PO454612  23.176   1.691   5.418
 4291POPC   GL154613  23.037   1.932   5.760
 4291POPC   GL254614  23.248   2.214   5.856
 4291POPC   C1A54615  22.822   1.936   6.150
 4291POPC   D2A54616  23.050   1.884   6.489
 4291POPC   C3A54617  22.866   1.869   6.888
 4291POPC   C4A54618  22.941   1.808   7.313
 4291POPC   C1B54619  23.010   2.417   6.207
 4291POPC   C2B54620  22.914   2.345   6.669
 4291POPC   C3B54621  22.974   2.304   7.141
 4291POPC   C4B54622  23.074   2.379   7.601
 4292POPC   NC354623  29.222  14.641   5.289
 4292POPC   PO454624  28.889  14.152   5.403
 4292POPC   GL154625  28.938  14.207   5.838
 4292POPC   GL254626  29.230  14.372   5.914
 4292POPC   C1A54627  28.934  14.164   6.285
 4292POPC   D2A54628  29.171  14.426   6.574
 4292POPC   C3A54629  29.023  14.597   6.964
 4292POPC   C4A54630  28.888  14.221   7.197
 4292POPC   C1B54631  29.475  14.168   6.222
 4292POPC   C2B54632  29.650  14.214   6.622
 4292POPC   C3B54633  29.411  14.262   7.007
 4292POPC   C4B54634  29.453  14.635   7.278
 4293POPC   NC354635  40.298  42.995   5.292
 4293POPC   PO454636  39.616  42.820   5.416
 4293POPC   GL154637  39.870  43.146   5.672
 4293POPC   GL254638  40.190  42.992   5.813
 4293POPC   C1A54639  39.922  43.289   6.143
 4293POPC   D2A54640  40.095  43.002   6.487
 4293POPC   C3A54641  40.100  43.169   6.919
 4293POPC   C4A54642  40.136  43.372   7.343
 4293POPC   C1B54643  39.827  42.799   6.064
 4293POPC   C2B54644  39.611  42.774   6.451
 4293POPC   C3B54645  39.707  42.816   6.885
 4293POPC   C4B54646  39.760  43.021   7.285
 4294POPC   NC354647  43.170  41.270   5.415
 4294POPC   PO454648  42.940  41.893   5.548
 4294POPC   GL154649  43.196  41.870   5.882
 4294POPC   GL254650  43.245  41.520   5.871
 4294POPC   C1A54651  43.161  41.786   6.320
 4294POPC   D2A54652  42.932  41.553   6.633
 4294POPC   C3A54653  43.095  41.674   7.023
 4294POPC   C4A54654  42.906  41.677   7.383
 4294POPC   C1B54655  43.190  41.282   6.261
 4294POPC   C2B54656  43.428  41.101   6.608
 4294POPC   C3B54657  43.377  41.177   7.043
 4294POPC   C4B54658  43.495  41.310   7.468
 4295POPC   NC354659  40.823  37.557   5.328
 4295POPC   PO454660  40.432  37.220   5.670
 4295POPC   GL154661  40.669  37.586   5.822
 4295POPC   GL254662  40.485  37.794   5.951
 4295POPC   C1A54663  40.880  37.604   6.235
 4295POPC   D2A54664  40.798  37.494   6.686
 4295POPC   C3A54665  40.917  37.589   7.145
 4295POPC   C4A54666  41.119  37.461   7.537
 4295POPC   C1B54667  40.344  37.974   6.295
 4295POPC   C2B54668  40.324  37.898   6.728
 4295POPC   C3B54669  40.431  37.740   7.113
 4295POPC   C4B54670  40.373  37.760   7.544
 4296POPC   NC354671  36.827   8.400   5.639
 4296POPC   PO454672  36.907   7.776   5.481
 4296POPC   GL154673  36.649   7.903   5.822
 4296POPC   GL254674  36.976   8.019   5.944
 4296POPC   C1A54675  36.613   8.011   6.295
 4296POPC   D2A54676  36.795   8.401   6.549
 4296POPC   C3A54677  36.850   8.471   7.016
 4296POPC   C4A54678  37.262   8.416   7.267
 4296POPC   C1B54679  37.142   7.997   6.357
 4296POPC   C2B54680  37.198   7.865   6.783
 4296POPC   C3B54681  36.948   7.963   7.125
 4296POPC   C4B54682  36.524   8.008   7.174
 4297POPC   NC354683  27.075   8.419   5.273
 4297POPC   PO454684  26.643   8.006   5.289
 4297POPC   GL154685  26.755   7.969   5.748
 4297POPC   GL254686  26.952   8.276   5.767
 4297POPC   C1A54687  26.841   7.975   6.221
 4297POPC   D2A54688  26.748   7.946   6.695
 4297POPC   C3A54689  26.881   8.112   7.123
 4297POPC   C4A54690  26.808   8.513   7.376
 4297POPC   C1B54691  27.231   8.353   6.120
 4297POPC   C2B54692  27.377   8.277   6.564
 4297POPC   C3B54693  27.356   8.426   6.993
 4297POPC   C4B54694  27.293   8.301   7.401
 4298POPC   NC354695  43.664  18.083   5.506
 4298POPC   PO454696  43.074  18.549   5.468
 4298POPC   GL154697  43.188  18.162   5.767
 4298POPC   GL254698  42.836  18.172   5.799
 4298POPC   C1A54699  43.334  18.024   6.239
 4298POPC   D2A54700  43.373  18.289   6.654
 4298POPC   C3A54701  43.359  18.274   7.131
 4298POPC   C4A54702  43.269  18.574   7.510
 4298POPC   C1B54703  42.833  17.941   6.160
 4298POPC   C2B54704  42.894  18.057   6.561
 4298POPC   C3B54705  42.908  18.016   6.984
 4298POPC   C4B54706  42.868  18.331   7.287
 4299POPC   NC354707  24.154  30.145   5.344
 4299POPC   PO454708  24.724  29.751   5.446
 4299POPC   GL154709  24.479  29.963   5.718
 4299POPC   GL254710  24.760  30.166   5.756
 4299POPC   C1A54711  24.310  29.892   6.117
 4299POPC   D2A54712  24.266  30.046   6.534
 4299POPC   C3A54713  24.395  29.887   6.917
 4299POPC   C4A54714  24.278  30.139   7.262
 4299POPC   C1B54715  24.790  29.987   6.169
 4299POPC   C2B54716  24.741  30.225   6.546
 4299POPC   C3B54717  24.814  30.186   6.963
 4299POPC   C4B54718  24.826  29.883   7.245
 4300POPC   NC354719  40.285  15.836   5.459
 4300POPC   PO454720  39.656  15.643   5.512
 4300POPC   GL154721  39.921  15.807   5.865
 4300POPC   GL254722  40.119  16.089   5.882
 4300POPC   C1A54723  39.895  15.923   6.316
 4300POPC   D2A54724  39.699  16.026   6.714
 4300POPC   C3A54725  39.945  15.903   7.034
 4300POPC   C4A54726  40.000  15.531   7.274
 4300POPC   C1B54727  40.369  16.216   6.223
 4300POPC   C2B54728  40.219  16.202   6.643
 4300POPC   C3B54729  40.231  16.333   7.083
 4300POPC   C4B54730  39.949  16.195   7.457
 4301POPC   NC354731  25.015  33.208   5.506
 4301POPC   PO454732  25.278  32.649   5.251
 4301POPC   GL154733  25.338  32.839   5.714
 4301POPC   GL254734  24.999  32.795   5.835
 4301POPC   C1A54735  25.433  33.090   6.197
 4301POPC   D2A54736  25.561  33.189   6.656
 4301POPC   C3A54737  25.369  33.221   7.105
 4301POPC   C4A54738  25.167  33.069   7.552
 4301POPC   C1B54739  25.229  32.638   6.179
 4301POPC   C2B54740  25.203  32.644   6.618
 4301POPC   C3B54741  25.464  32.596   6.968
 4301POPC   C4B54742  25.549  32.814   7.345
 4302POPC   NC354743  18.120  33.552   5.459
 4302POPC   PO454744  18.581  34.055   5.383
 4302POPC   GL154745  18.507  33.895   5.778
 4302POPC   GL254746  18.167  33.842   5.878
 4302POPC   C1A54747  18.463  34.093   6.192
 4302POPC   D2A54748  18.143  34.051   6.522
 4302POPC   C3A54749  18.393  33.972   6.862
 4302POPC   C4A54750  18.444  33.691   7.190
 4302POPC   C1B54751  18.247  33.621   6.264
 4302POPC   C2B54752  18.142  33.514   6.700
 4302POPC   C3B54753  17.957  33.626   7.086
 4302POPC   C4B54754  18.109  33.474   7.512
 4303POPC   NC354755  43.181  40.374   5.663
 4303POPC   PO454756  42.909  40.862   5.306
 4303POPC   GL154757  43.026  40.851   5.762
 4303POPC   GL254758  42.762  40.577   5.863
 4303POPC   C1A54759  43.187  40.778   6.204
 4303POPC   D2A54760  43.376  40.507   6.523
 4303POPC   C3A54761  43.312  40.670   6.927
 4303POPC   C4A54762  42.922  40.702   7.116
 4303POPC   C1B54763  42.828  40.414   6.262
 4303POPC   C2B54764  42.810  40.675   6.606
 4303POPC   C3B54765  42.942  41.056   6.747
 4303POPC   C4B54766  42.892  41.225   7.147
 4304POPC   NC354767  29.241   2.809   5.389
 4304POPC   PO454768  29.171   2.146   5.442
 4304POPC   GL154769  29.153   2.456   5.778
 4304POPC   GL254770  29.454   2.629   5.834
 4304POPC   C1A54771  29.002   2.789   6.092
 4304POPC   D2A54772  28.759   2.853   6.498
 4304POPC   C3A54773  28.985   2.776   6.907
 4304POPC   C4A54774  28.907   2.525   7.321
 4304POPC   C1B54775  29.494   2.709   6.291
 4304POPC   C2B54776  29.489   2.644   6.754
 4304POPC   C3B54777  29.380   2.643   7.218
 4304POPC   C4B54778  29.350   2.508   7.671
 4305POPC   NC354779  17.353  20.246   5.548
 4305POPC   PO454780  17.813  20.576   5.137
 4305POPC   GL154781  17.689  20.616   5.684
 4305POPC   GL254782  17.586  20.296   5.962
 4305POPC   C1A54783  17.613  20.736   6.180
 4305POPC   D2A54784  17.482  20.658   6.618
 4305POPC   C3A54785  17.752  20.772   6.980
 4305POPC   C4A54786  17.684  20.765   7.428
 4305POPC   C1B54787  17.231  20.333   6.219
 4305POPC   C2B54788  16.998  20.252   6.602
 4305POPC   C3B54789  17.115  20.491   6.922
 4305POPC   C4B54790  17.431  20.408   7.163
 4306POPC   NC354791  35.428  18.793   5.614
 4306POPC   PO454792  35.232  18.136   5.439
 4306POPC   GL154793  35.547  18.300   5.713
 4306POPC   GL254794  35.285  18.431   5.921
 4306POPC   C1A54795  35.687  18.291   6.156
 4306POPC   D2A54796  35.427  18.317   6.534
 4306POPC   C3A54797  35.624  18.165   6.892
 4306POPC   C4A54798  35.496  18.172   7.312
 4306POPC   C1B54799  35.094  18.125   6.165
 4306POPC   C2B54800  34.940  17.973   6.534
 4306POPC   C3B54801  35.109  18.084   6.884
 4306POPC   C4B54802  34.991  18.110   7.246
 4307POPC   NC354803   5.645   1.975   5.426
 4307POPC   PO454804   6.128   2.445   5.505
 4307POPC   GL154805   6.029   2.166   5.787
 4307POPC   GL254806   5.724   2.318   5.806
 4307POPC   C1A54807   6.165   2.033   6.199
 4307POPC   D2A54808   5.965   1.839   6.530
 4307POPC   C3A54809   6.149   1.981   6.914
 4307POPC   C4A54810   5.997   1.782   7.273
 4307POPC   C1B54811   5.643   2.147   6.181
 4307POPC   C2B54812   5.477   2.069   6.560
 4307POPC   C3B54813   5.638   1.993   6.930
 4307POPC   C4B54814   5.713   2.211   7.281
 4308POPC   NC354815  44.877   0.346   5.383
 4308POPC   PO454816  44.265   0.638   5.409
 4308POPC   GL154817  44.466   0.483   5.758
 4308POPC   GL254818  44.822   0.543   5.847
 4308POPC   C1A54819  44.400   0.433   6.183
 4308POPC   D2A54820  44.585   0.314   6.558
 4308POPC   C3A54821  44.479   0.496   6.914
 4308POPC   C4A54822  44.445   0.151   7.179
 4308POPC   C1B54823  44.963   0.476   6.247
 4308POPC   C2B54824  44.976   0.624   6.679
 4308POPC   C3B54825  44.951   0.438   7.098
 4308POPC   C4B54826   0.082   0.702   7.428
 4309POPC   NC354827   4.844   9.236   5.298
 4309POPC   PO454828   5.019   8.568   5.421
 4309POPC   GL154829   4.868   8.879   5.687
 4309POPC   GL254830   5.210   9.041   5.675
 4309POPC   C1A54831   4.902   9.123   6.080
 4309POPC   D2A54832   5.106   9.034   6.488
 4309POPC   C3A54833   4.882   9.088   6.874
 4309POPC   C4A54834   4.778   8.814   7.203
 4309POPC   C1B54835   5.428   9.173   6.073
 4309POPC   C2B54836   5.537   9.300   6.502
 4309POPC   C3B54837   5.539   9.007   6.827
 4309POPC   C4B54838   5.320   8.914   7.175
 4310POPC   NC354839   0.184  21.624   5.614
 4310POPC   PO454840   0.729  21.226   5.416
 4310POPC   GL154841   0.579  21.293   5.822
 4310POPC   GL254842   0.499  20.981   5.946
 4310POPC   C1A54843   0.468  21.447   6.241
 4310POPC   D2A54844   0.268  21.630   6.607
 4310POPC   C3A54845   0.500  21.517   6.974
 4310POPC   C4A54846   0.695  21.318   7.337
 4310POPC   C1B54847   0.829  20.996   6.210
 4310POPC   C2B54848   0.728  21.176   6.599
 4310POPC   C3B54849   0.565  21.008   6.972
 4310POPC   C4B54850   0.204  21.151   7.239
 4311POPC   NC354851  18.675  17.100   5.442
 4311POPC   PO454852  18.420  17.690   5.323
 4311POPC   GL154853  18.125  17.564   5.682
 4311POPC   GL254854  18.120  17.204   5.797
 4311POPC   C1A54855  18.147  17.720   6.108
 4311POPC   D2A54856  18.160  17.927   6.523
 4311POPC   C3A54857  18.094  17.672   6.889
 4311POPC   C4A54858  17.944  17.683   7.287
 4311POPC   C1B54859  17.965  17.261   6.247
 4311POPC   C2B54860  17.790  17.143   6.682
 4311POPC   C3B54861  17.906  17.201   7.146
 4311POPC   C4B54862  18.310  17.294   7.394
 4312POPC   NC354863  39.154   4.572   5.278
 4312POPC   PO454864  39.621   4.164   5.510
 4312POPC   GL154865  39.417   4.019   5.874
 4312POPC   GL254866  39.082   4.093   5.748
 4312POPC   C1A54867  39.398   4.039   6.351
 4312POPC   D2A54868  39.536   4.013   6.797
 4312POPC   C3A54869  39.316   4.300   7.093
 4312POPC   C4A54870  39.278   4.657   7.416
 4312POPC   C1B54871  38.926   4.175   6.171
 4312POPC   C2B54872  39.020   4.353   6.607
 4312POPC   C3B54873  38.844   4.475   7.000
 4312POPC   C4B54874  38.910   4.293   7.402
 4313POPC   NC354875  16.611  38.085   5.435
 4313POPC   PO454876  16.926  38.703   5.380
 4313POPC   GL154877  16.733  38.494   5.749
 4313POPC   GL254878  17.018  38.409   5.940
 4313POPC   C1A54879  16.505  38.332   6.160
 4313POPC   D2A54880  16.408  38.441   6.639
 4313POPC   C3A54881  16.406  38.099   6.972
 4313POPC   C4A54882  16.443  37.965   7.428
 4313POPC   C1B54883  16.780  38.749   6.185
 4313POPC   C2B54884  16.766  38.923   6.593
 4313POPC   C3B54885  16.738  38.732   7.023
 4313POPC   C4B54886  16.505  38.462   7.302
 4314POPC   NC354887  19.036  41.079   5.235
 4314POPC   PO454888  19.197  41.777   5.401
 4314POPC   GL154889  18.944  41.658   5.785
 4314POPC   GL254890  18.844  41.285   5.774
 4314POPC   C1A54891  19.060  41.648   6.241
 4314POPC   D2A54892  19.319  41.407   6.539
 4314POPC   C3A54893  19.164  41.362   6.958
 4314POPC   C4A54894  18.997  41.637   7.264
 4314POPC   C1B54895  18.623  41.400   6.185
 4314POPC   C2B54896  18.713  41.390   6.659
 4314POPC   C3B54897  18.683  41.277   7.132
 4314POPC   C4B54898  18.759  41.149   7.586
 4315POPC   NC354899  30.541  44.768   5.501
 4315POPC   PO454900  31.010  44.343   5.394
 4315POPC   GL154901  30.793  44.382   5.783
 4315POPC   GL254902  30.455  44.361   5.865
 4315POPC   C1A54903  30.851  44.294   6.212
 4315POPC   D2A54904  31.123  44.588   6.447
 4315POPC   C3A54905  30.940  44.756   6.796
 4315POPC   C4A54906  30.935  44.645   7.214
 4315POPC   C1B54907  30.540  44.704   6.168
 4315POPC   C2B54908  30.424  44.933   6.567
 4315POPC   C3B54909  30.260   0.090   6.979
 4315POPC   C4B54910  30.437  44.762   7.204
 4316POPC   NC354911  42.104  35.468   5.394
 4316POPC   PO454912  42.645  35.101   5.360
 4316POPC   GL154913  42.393  35.218   5.746
 4316POPC   GL254914  42.028  35.086   5.728
 4316POPC   C1A54915  42.465  35.377   6.178
 4316POPC   D2A54916  42.508  35.577   6.580
 4316POPC   C3A54917  42.552  35.262   6.908
 4316POPC   C4A54918  42.523  35.439   7.328
 4316POPC   C1B54919  41.967  35.412   6.057
 4316POPC   C2B54920  42.018  35.397   6.523
 4316POPC   C3B54921  42.106  35.510   6.961
 4316POPC   C4B54922  41.990  35.399   7.391
 4317POPC   NC354923  20.816  39.082   5.136
 4317POPC   PO454924  20.204  39.371   5.285
 4317POPC   GL154925  20.254  39.370   5.830
 4317POPC   GL254926  20.582  39.273   5.932
 4317POPC   C1A54927  20.219  39.383   6.269
 4317POPC   D2A54928  20.571  39.442   6.566
 4317POPC   C3A54929  20.413  39.391   6.972
 4317POPC   C4A54930  20.578  39.175   7.304
 4317POPC   C1B54931  20.905  39.071   6.134
 4317POPC   C2B54932  21.076  39.263   6.494
 4317POPC   C3B54933  20.939  39.283   6.920
 4317POPC   C4B54934  21.134  39.265   7.318
 4318POPC   NC354935  17.604  27.817   5.451
 4318POPC   PO454936  17.100  27.416   5.629
 4318POPC   GL154937  17.361  27.709   5.888
 4318POPC   GL254938  17.593  27.446   5.862
 4318POPC   C1A54939  17.665  27.796   6.260
 4318POPC   D2A54940  17.655  27.599   6.702
 4318POPC   C3A54941  17.703  27.882   7.075
 4318POPC   C4A54942  17.430  27.889   7.440
 4318POPC   C1B54943  17.378  27.391   6.288
 4318POPC   C2B54944  17.280  27.212   6.662
 4318POPC   C3B54945  17.238  27.230   7.091
 4318POPC   C4B54946  17.576  27.435   7.272
 4319POPC   NC354947  41.810  32.523   5.185
 4319POPC   PO454948  41.499  31.982   5.480
 4319POPC   GL154949  41.545  32.105   5.882
 4319POPC   GL254950  41.507  32.470   5.860
 4319POPC   C1A54951  41.439  31.942   6.283
 4319POPC   D2A54952  41.338  32.035   6.714
 4319POPC   C3A54953  41.600  32.063   7.062
 4319POPC   C4A54954  41.645  32.086   7.507
 4319POPC   C1B54955  41.609  32.447   6.314
 4319POPC   C2B54956  41.627  32.488   6.771
 4319POPC   C3B54957  41.450  32.564   7.196
 4319POPC   C4B54958  41.017  32.635   7.354
 4320POPC   NC354959  37.157  11.597   5.359
 4320POPC   PO454960  36.681  11.103   5.336
 4320POPC   GL154961  36.617  11.110   5.779
 4320POPC   GL254962  36.863  11.384   5.787
 4320POPC   C1A54963  36.797  11.081   6.222
 4320POPC   D2A54964  37.009  11.095   6.610
 4320POPC   C3A54965  36.845  11.113   7.033
 4320POPC   C4A54966  36.842  11.390   7.400
 4320POPC   C1B54967  36.961  11.586   6.178
 4320POPC   C2B54968  37.234  11.570   6.535
 4320POPC   C3B54969  37.124  11.535   6.958
 4320POPC   C4B54970  37.219  11.728   7.371
 4321POPC   NC354971  32.076  31.962   5.538
 4321POPC   PO454972  32.315  32.494   5.331
 4321POPC   GL154973  32.241  32.396   5.745
 4321POPC   GL254974  31.881  32.424   5.729
 4321POPC   C1A54975  32.469  32.174   6.099
 4321POPC   D2A54976  32.639  32.075   6.531
 4321POPC   C3A54977  32.496  32.242   6.930
 4321POPC   C4A54978  32.364  32.131   7.351
 4321POPC   C1B54979  31.959  32.209   6.151
 4321POPC   C2B54980  32.080  32.262   6.588
 4321POPC   C3B54981  32.001  32.336   7.038
 4321POPC   C4B54982  31.975  32.424   7.472
 4322POPC   NC354983  41.818   9.801   5.553
 4322POPC   PO454984  41.203   9.766   5.788
 4322POPC   GL154985  41.593   9.722   6.015
 4322POPC   GL254986  41.855   9.442   5.915
 4322POPC   C1A54987  41.669   9.955   6.400
 4322POPC   D2A54988  41.663  10.149   6.810
 4322POPC   C3A54989  41.420   9.864   7.075
 4322POPC   C4A54990  41.120   9.457   7.056
 4322POPC   C1B54991  42.005   9.553   6.287
 4322POPC   C2B54992  41.938   9.601   6.704
 4322POPC   C3B54993  41.875   9.634   7.121
 4322POPC   C4B54994  41.986   9.439   7.488
 4323POPC   NC354995  24.894  15.770   5.571
 4323POPC   PO454996  24.331  16.131   5.392
 4323POPC   GL154997  24.521  16.091   5.812
 4323POPC   GL254998  24.851  16.247   5.814
 4323POPC   C1A54999  24.335  15.991   6.238
 4323POPC   D2A55000  24.189  16.169   6.644
 4323POPC   C3A55001  24.308  15.866   6.945
 4323POPC   C4A55002  24.542  15.818   7.344
 4323POPC   C1B55003  24.759  16.285   6.266
 4323POPC   C2B55004  24.709  15.979   6.604
 4323POPC   C3B55005  24.879  15.775   6.959
 4323POPC   C4B55006  24.960  16.073   7.278
 4324POPC   NC355007  36.994   0.982   5.312
 4324POPC   PO455008  36.890   0.276   5.435
 4324POPC   GL155009  37.061   0.607   5.679
 4324POPC   GL255010  37.172   0.333   5.852
 4324POPC   C1A55011  37.251   0.769   6.081
 4324POPC   D2A55012  37.269   0.726   6.513
 4324POPC   C3A55013  36.898   0.612   6.743
 4324POPC   C4A55014  36.956   0.492   7.159
 4324POPC   C1B55015  36.902   0.415   6.236
 4324POPC   C2B55016  36.737   0.145   6.569
 4324POPC   C3B55017  36.685   0.040   6.991
 4324POPC   C4B55018  36.637   0.138   7.439
 4325POPC   NC355019  31.147  37.277   5.168
 4325POPC   PO455020  31.606  36.814   5.333
 4325POPC   GL155021  31.525  37.061   5.724
 4325POPC   GL255022  31.294  36.826   5.933
 4325POPC   C1A55023  31.670  37.073   6.180
 4325POPC   D2A55024  31.478  36.734   6.471
 4325POPC   C3A55025  31.386  36.800   6.920
 4325POPC   C4A55026  31.475  37.159   7.166
 4325POPC   C1B55027  31.172  37.154   6.223
 4325POPC   C2B55028  31.269  37.255   6.656
 4325POPC   C3B55029  30.981  37.173   6.996
 4325POPC   C4B55030  31.027  37.115   7.434
 4326POPC   NC355031  16.078  41.545   5.215
 4326POPC   PO455032  15.777  41.071   5.500
 4326POPC   GL155033  16.129  41.343   5.723
 4326POPC   GL255034  16.086  41.734   5.716
 4326POPC   C1A55035  16.196  41.483   6.185
 4326POPC   D2A55036  16.007  41.598   6.619
 4326POPC   C3A55037  16.042  41.306   6.978
 4326POPC   C4A55038  15.833  41.003   7.225
 4326POPC   C1B55039  16.063  41.988   6.125
 4326POPC   C2B55040  16.343  41.960   6.488
 4326POPC   C3B55041  16.259  41.917   6.938
 4326POPC   C4B55042  15.938  41.755   7.209
 4327POPC   NC355043  31.333  23.936   5.334
 4327POPC   PO455044  31.767  23.476   5.331
 4327POPC   GL155045  31.598  23.641   5.705
 4327POPC   GL255046  31.630  23.980   5.763
 4327POPC   C1A55047  31.681  23.602   6.145
 4327POPC   D2A55048  31.686  23.899   6.504
 4327POPC   C3A55049  31.692  23.716   6.916
 4327POPC   C4A55050  31.625  23.905   7.299
 4327POPC   C1B55051  31.303  23.940   6.113
 4327POPC   C2B55052  31.180  24.148   6.518
 4327POPC   C3B55053  31.215  24.091   6.985
 4327POPC   C4B55054  31.118  23.850   7.372
 4328POPC   NC355055  10.718  34.168   5.433
 4328POPC   PO455056  10.145  33.853   5.417
 4328POPC   GL155057  10.415  33.912   5.820
 4328POPC   GL255058  10.799  33.907   5.842
 4328POPC   C1A55059  10.522  33.674   6.209
 4328POPC   D2A55060  10.672  33.652   6.628
 4328POPC   C3A55061  10.427  33.774   6.989
 4328POPC   C4A55062  10.224  34.040   7.285
 4328POPC   C1B55063  10.815  34.086   6.243
 4328POPC   C2B55064  10.655  34.171   6.614
 4328POPC   C3B55065  10.871  34.031   6.943
 4328POPC   C4B55066  10.760  34.080   7.348
 4329POPC   NC355067  41.959   1.376   5.476
 4329POPC   PO455068  42.562   1.039   5.411
 4329POPC   GL155069  42.339   1.169   5.802
 4329POPC   GL255070  41.993   0.995   5.843
 4329POPC   C1A55071  42.360   1.496   6.154
 4329POPC   D2A55072  42.503   1.690   6.547
 4329POPC   C3A55073  42.648   1.346   6.820
 4329POPC   C4A55074  42.550   1.367   7.230
 4329POPC   C1B55075  42.145   1.038   6.254
 4329POPC   C2B55076  42.179   1.281   6.610
 4329POPC   C3B55077  42.070   1.222   7.020
 4329POPC   C4B55078  42.149   0.889   7.351
 4330POPC   NC355079  17.033  42.844   5.434
 4330POPC   PO455080  16.510  43.321   5.502
 4330POPC   GL155081  16.712  43.043   5.783
 4330POPC   GL255082  17.066  43.000   5.922
 4330POPC   C1A55083  16.585  42.877   6.158
 4330POPC   D2A55084  16.432  42.784   6.578
 4330POPC   C3A55085  16.579  43.090   6.877
 4330POPC   C4A55086  16.431  43.131   7.276
 4330POPC   C1B55087  17.220  43.363   6.195
 4330POPC   C2B55088  17.128  43.531   6.627
 4330POPC   C3B55089  17.179  43.339   7.044
 4330POPC   C4B55090  16.935  43.037   7.282
 4331POPC   NC355091  42.624   7.774   5.219
 4331POPC   PO455092  42.085   7.350   5.425
 4331POPC   GL155093  42.251   7.527   5.802
 4331POPC   GL255094  42.578   7.491   5.641
 4331POPC   C1A55095  42.290   7.650   6.271
 4331POPC   D2A55096  42.044   7.584   6.674
 4331POPC   C3A55097  42.060   7.181   6.892
 4331POPC   C4A55098  42.353   7.047   7.197
 4331POPC   C1B55099  42.728   7.498   6.034
 4331POPC   C2B55100  42.773   7.481   6.462
 4331POPC   C3B55101  42.542   7.438   6.839
 4331POPC   C4B55102  42.717   7.404   7.242
 4332POPC   NC355103  13.417  20.399   5.124
 4332POPC   PO455104  12.907  20.709   5.521
 4332POPC   GL155105  12.837  20.580   5.920
 4332POPC   GL255106  13.170  20.564   6.090
 4332POPC   C1A55107  12.704  20.696   6.340
 4332POPC   D2A55108  12.691  21.036   6.661
 4332POPC   C3A55109  12.800  20.805   7.009
 4332POPC   C4A55110  12.759  20.377   7.107
 4332POPC   C1B55111  13.260  20.339   6.444
 4332POPC   C2B55112  13.173  20.502   6.817
 4332POPC   C3B55113  13.232  20.534   7.239
 4332POPC   C4B55114  13.239  20.655   7.678
 4333POPC   NC355115  13.739  31.890   5.537
 4333POPC   PO455116  13.369  32.509   5.441
 4333POPC   GL155117  13.539  32.306   5.802
 4333POPC   GL255118  13.869  32.413   5.919
 4333POPC   C1A55119  13.481  32.213   6.242
 4333POPC   D2A55120  13.546  32.448   6.606
 4333POPC   C3A55121  13.655  32.294   6.997
 4333POPC   C4A55122  13.682  32.463   7.396
 4333POPC   C1B55123  13.968  32.059   6.195
 4333POPC   C2B55124  14.004  32.143   6.640
 4333POPC   C3B55125  13.938  31.888   7.012
 4333POPC   C4B55126  13.750  31.955   7.413
 4334POPC   NC355127  35.014   6.764   5.631
 4334POPC   PO455128  34.479   6.462   5.401
 4334POPC   GL155129  34.464   6.707   5.761
 4334POPC   GL255130  34.255   7.020   5.750
 4334POPC   C1A55131  34.387   6.551   6.161
 4334POPC   D2A55132  34.573   6.407   6.548
 4334POPC   C3A55133  34.657   6.707   6.862
 4334POPC   C4A55134  34.479   6.769   7.262
 4334POPC   C1B55135  34.456   7.072   6.148
 4334POPC   C2B55136  34.636   7.136   6.543
 4334POPC   C3B55137  34.455   7.182   6.935
 4334POPC   C4B55138  34.624   7.292   7.319
 4335POPC   NC355139  22.328  41.883   5.140
 4335POPC   PO455140  22.022  42.336   5.539
 4335POPC   GL155141  22.146  42.408   5.905
 4335POPC   GL255142  22.464  42.247   5.835
 4335POPC   C1A55143  22.005  42.536   6.310
 4335POPC   D2A55144  21.860  42.259   6.631
 4335POPC   C3A55145  21.766  42.312   7.060
 4335POPC   C4A55146  21.861  41.889   7.154
 4335POPC   C1B55147  22.532  42.505   6.202
 4335POPC   C2B55148  22.392  42.381   6.602
 4335POPC   C3B55149  22.215  42.531   6.959
 4335POPC   C4B55150  22.197  42.479   7.395
 4336POPC   NC355151   1.039  44.085   5.066
 4336POPC   PO455152   1.549  43.785   5.308
 4336POPC   GL155153   1.293  43.835   5.703
 4336POPC   GL255154   1.234  44.196   5.760
 4336POPC   C1A55155   1.082  43.856   6.119
 4336POPC   D2A55156   1.177  44.011   6.536
 4336POPC   C3A55157   1.102  43.719   6.887
 4336POPC   C4A55158   0.782  43.541   7.177
 4336POPC   C1B55159   1.049  44.368   6.156
 4336POPC   C2B55160   0.819  44.394   6.542
 4336POPC   C3B55161   0.973  44.265   6.945
 4336POPC   C4B55162   1.053  43.994   7.304
 4337POPC   NC355163  17.625  28.825   5.482
 4337POPC   PO455164  17.413  28.241   5.466
 4337POPC   GL155165  17.339  28.251   5.872
 4337POPC   GL255166  17.533  28.543   5.921
 4337POPC   C1A55167  17.236  28.071   6.257
 4337POPC   D2A55168  17.450  28.059   6.656
 4337POPC   C3A55169  17.430  28.326   7.001
 4337POPC   C4A55170  17.382  28.719   7.178
 4337POPC   C1B55171  17.711  28.324   6.276
 4337POPC   C2B55172  17.874  28.398   6.697
 4337POPC   C3B55173  17.919  28.354   7.166
 4337POPC   C4B55174  17.842  28.671   7.470
 4338POPC   NC355175  16.006  29.814   5.264
 4338POPC   PO455176  15.483  30.005   5.642
 4338POPC   GL155177  15.857  29.842   5.766
 4338POPC   GL255178  16.110  30.109   5.669
 4338POPC   C1A55179  16.033  29.741   6.158
 4338POPC   D2A55180  16.114  29.869   6.567
 4338POPC   C3A55181  16.013  29.673   6.958
 4338POPC   C4A55182  15.888  29.913   7.288
 4338POPC   C1B55183  15.973  30.245   6.090
 4338POPC   C2B55184  15.842  30.327   6.515
 4338POPC   C3B55185  16.014  30.264   6.920
 4338POPC   C4B55186  15.936  30.424   7.327
 4339POPC   NC355187  37.427   2.769   5.672
 4339POPC   PO455188  37.865   2.531   5.156
 4339POPC   GL155189  38.076   2.709   5.668
 4339POPC   GL255190  37.875   2.878   5.880
 4339POPC   C1A55191  38.055   2.573   6.219
 4339POPC   D2A55192  37.672   2.707   6.493
 4339POPC   C3A55193  37.591   2.659   6.969
 4339POPC   C4A55194  37.412   2.969   7.312
 4339POPC   C1B55195  38.206   3.042   6.097
 4339POPC   C2B55196  38.152   3.094   6.547
 4339POPC   C3B55197  37.843   3.074   6.834
 4339POPC   C4B55198  37.902   3.103   7.273
 4340POPC   NC355199  37.427  37.118   5.430
 4340POPC   PO455200  36.964  36.616   5.449
 4340POPC   GL155201  37.012  36.845   5.826
 4340POPC   GL255202  37.099  37.210   5.838
 4340POPC   C1A55203  37.120  36.798   6.252
 4340POPC   D2A55204  37.048  36.606   6.651
 4340POPC   C3A55205  37.207  36.827   6.999
 4340POPC   C4A55206  37.089  36.777   7.423
 4340POPC   C1B55207  36.797  37.181   6.156
 4340POPC   C2B55208  36.628  36.927   6.486
 4340POPC   C3B55209  36.713  36.960   6.924
 4340POPC   C4B55210  36.954  37.226   7.212
 4341POPC   NC355211  22.850  25.145   5.387
 4341POPC   PO455212  23.261  25.697   5.563
 4341POPC   GL155213  23.060  25.391   5.907
 4341POPC   GL255214  22.913  25.063   5.913
 4341POPC   C1A55215  22.904  25.400   6.319
 4341POPC   D2A55216  23.080  25.550   6.689
 4341POPC   C3A55217  22.918  25.357   7.042
 4341POPC   C4A55218  23.030  25.530   7.414
 4341POPC   C1B55219  23.145  24.934   6.293
 4341POPC   C2B55220  23.202  25.034   6.737
 4341POPC   C3B55221  23.138  24.930   7.178
 4341POPC   C4B55222  22.945  25.073   7.575
 4342POPC   NC355223   7.180  43.676   5.023
 4342POPC   PO455224   7.492  44.112   5.447
 4342POPC   GL155225   7.619  43.922   5.880
 4342POPC   GL255226   7.673  43.550   5.774
 4342POPC   C1A55227   7.288  43.912   6.252
 4342POPC   D2A55228   7.233  44.187   6.599
 4342POPC   C3A55229   7.294  43.910   6.936
 4342POPC   C4A55230   7.262  44.041   7.351
 4342POPC   C1B55231   7.458  43.436   6.156
 4342POPC   C2B55232   7.260  43.493   6.569
 4342POPC   C3B55233   7.394  43.365   6.966
 4342POPC   C4B55234   7.552  43.605   7.288
 4343POPC   NC355235  43.107  30.887   5.357
 4343POPC   PO455236  42.963  30.240   5.348
 4343POPC   GL155237  42.946  30.533   5.689
 4343POPC   GL255238  43.146  30.338   5.856
 4343POPC   C1A55239  42.862  30.859   6.034
 4343POPC   D2A55240  42.949  31.092   6.405
 4343POPC   C3A55241  42.863  30.948   6.820
 4343POPC   C4A55242  43.114  30.724   7.156
 4343POPC   C1B55243  43.212  30.540   6.209
 4343POPC   C2B55244  43.163  30.436   6.607
 4343POPC   C3B55245  43.463  30.373   6.894
 4343POPC   C4B55246  43.529  30.443   7.299
 4344POPC   NC355247  14.746  32.987   5.164
 4344POPC   PO455248  15.257  33.237   5.531
 4344POPC   GL155249  15.057  33.056   5.863
 4344POPC   GL255250  14.763  33.196   5.727
 4344POPC   C1A55251  15.162  32.861   6.286
 4344POPC   D2A55252  15.236  33.007   6.726
 4344POPC   C3A55253  15.144  32.724   7.075
 4344POPC   C4A55254  15.402  32.749   7.482
 4344POPC   C1B55255  14.653  33.209   6.156
 4344POPC   C2B55256  14.762  33.192   6.600
 4344POPC   C3B55257  14.866  33.286   7.033
 4344POPC   C4B55258  15.128  33.147   7.334
 4345POPC   NC355259   6.157  27.410   5.279
 4345POPC   PO455260   6.689  27.791   5.390
 4345POPC   GL155261   6.506  27.660   5.784
 4345POPC   GL255262   6.164  27.657   5.751
 4345POPC   C1A55263   6.540  27.510   6.223
 4345POPC   D2A55264   6.635  27.808   6.542
 4345POPC   C3A55265   6.760  27.672   6.927
 4345POPC   C4A55266   6.739  27.956   7.267
 4345POPC   C1B55267   6.122  27.819   6.176
 4345POPC   C2B55268   6.167  27.644   6.582
 4345POPC   C3B55269   6.301  27.821   6.977
 4345POPC   C4B55270   6.350  27.604   7.324
 4346POPC   NC355271  44.607  30.429   5.697
 4346POPC   PO455272  44.961  30.951   5.371
 4346POPC   GL155273  44.707  30.917   5.828
 4346POPC   GL255274  44.354  30.881   5.840
 4346POPC   C1A55275  44.699  30.758   6.311
 4346POPC   D2A55276  44.925  30.799   6.729
 4346POPC   C3A55277  44.912  30.491   7.042
 4346POPC   C4A55278  44.692  30.402   7.369
 4346POPC   C1B55279  44.159  30.696   6.209
 4346POPC   C2B55280  44.246  30.443   6.577
 4346POPC   C3B55281  44.387  30.299   6.962
 4346POPC   C4B55282  44.458  30.720   7.012
 4347POPC   NC355283   2.399   9.907   5.472
 4347POPC   PO455284   3.022   9.675   5.293
 4347POPC   GL155285   2.870   9.663   5.775
 4347POPC   GL255286   2.499   9.680   5.901
 4347POPC   C1A55287   2.842   9.561   6.260
 4347POPC   D2A55288   2.914   9.394   6.690
 4347POPC   C3A55289   2.631   9.517   7.022
 4347POPC   C4A55290   2.877   9.828   7.132
 4347POPC   C1B55291   2.558   9.989   6.236
 4347POPC   C2B55292   2.563   9.842   6.648
 4347POPC   C3B55293   2.448  10.051   7.024
 4347POPC   C4B55294   2.698  10.211   7.423
 4348POPC   NC355295  30.924   9.007   5.533
 4348POPC   PO455296  30.562   8.395   5.527
 4348POPC   GL155297  30.651   8.715   5.844
 4348POPC   GL255298  31.032   8.785   5.950
 4348POPC   C1A55299  30.652   8.885   6.262
 4348POPC   D2A55300  30.480   9.060   6.655
 4348POPC   C3A55301  30.588   8.875   7.090
 4348POPC   C4A55302  30.831   9.026   7.440
 4348POPC   C1B55303  31.177   8.890   6.322
 4348POPC   C2B55304  30.953   8.825   6.687
 4348POPC   C3B55305  30.904   9.195   6.903
 4348POPC   C4B55306  31.101   9.398   7.141
 4349POPC   NC355307   2.355  31.011   5.527
 4349POPC   PO455308   1.688  30.853   5.375
 4349POPC   GL155309   1.868  30.687   5.772
 4349POPC   GL255310   2.020  30.976   5.893
 4349POPC   C1A55311   1.726  30.730   6.232
 4349POPC   D2A55312   1.514  30.885   6.608
 4349POPC   C3A55313   1.740  30.813   6.991
 4349POPC   C4A55314   2.023  30.493   7.132
 4349POPC   C1B55315   2.264  31.043   6.235
 4349POPC   C2B55316   2.110  30.946   6.630
 4349POPC   C3B55317   2.175  31.086   7.031
 4349POPC   C4B55318   2.257  30.880   7.417
 4350POPC   NC355319   3.341   9.996   5.148
 4350POPC   PO455320   3.726   9.411   5.359
 4350POPC   GL155321   3.396   9.546   5.663
 4350POPC   GL255322   3.313   9.922   5.674
 4350POPC   C1A55323   3.341   9.614   6.105
 4350POPC   D2A55324   3.521   9.846   6.459
 4350POPC   C3A55325   3.311   9.746   6.842
 4350POPC   C4A55326   3.308   9.595   7.246
 4350POPC   C1B55327   3.060  10.041   6.064
 4350POPC   C2B55328   3.031  10.021   6.512
 4350POPC   C3B55329   3.110  10.229   6.918
 4350POPC   C4B55330   3.260  10.105   7.330
 4351POPC   NC355331  39.780  40.446   5.419
 4351POPC   PO455332  40.230  40.986   5.472
 4351POPC   GL155333  39.929  40.857   5.797
 4351POPC   GL255334  39.747  41.150   5.960
 4351POPC   C1A55335  40.063  40.508   6.099
 4351POPC   D2A55336  40.235  40.363   6.519
 4351POPC   C3A55337  40.131  40.534   6.913
 4351POPC   C4A55338  39.855  40.368   7.209
 4351POPC   C1B55339  39.911  40.945   6.337
 4351POPC   C2B55340  40.213  40.991   6.688
 4351POPC   C3B55341  40.189  40.970   7.159
 4351POPC   C4B55342  39.919  41.249   7.450
 4352POPC   NC355343  26.210   7.945   5.123
 4352POPC   PO455344  25.676   8.252   5.291
 4352POPC   GL155345  25.851   8.042   5.706
 4352POPC   GL255346  26.226   7.991   5.635
 4352POPC   C1A55347  25.765   8.123   6.186
 4352POPC   D2A55348  25.905   8.229   6.620
 4352POPC   C3A55349  25.699   8.302   7.021
 4352POPC   C4A55350  25.900   8.443   7.403
 4352POPC   C1B55351  26.267   7.962   6.098
 4352POPC   C2B55352  26.236   7.850   6.562
 4352POPC   C3B55353  26.350   7.964   7.024
 4352POPC   C4B55354  26.382   8.196   7.454
 4353POPC   NC355355  30.441  26.217   5.458
 4353POPC   PO455356  30.965  25.817   5.307
 4353POPC   GL155357  30.792  25.873   5.753
 4353POPC   GL255358  30.419  25.764   5.788
 4353POPC   C1A55359  30.915  26.160   6.131
 4353POPC   D2A55360  31.061  26.073   6.559
 4353POPC   C3A55361  30.714  25.964   6.829
 4353POPC   C4A55362  30.547  25.781   7.203
 4353POPC   C1B55363  30.476  25.928   6.204
 4353POPC   C2B55364  30.433  26.273   6.489
 4353POPC   C3B55365  30.330  26.326   6.919
 4353POPC   C4B55366  30.605  26.292   7.238
 4354POPC   NC355367  30.742   0.743   5.401
 4354POPC   PO455368  30.411   0.192   5.575
 4354POPC   GL155369  30.653   0.491   5.849
 4354POPC   GL255370  30.557   0.835   5.876
 4354POPC   C1A55371  30.760   0.530   6.295
 4354POPC   D2A55372  30.574   0.400   6.682
 4354POPC   C3A55373  30.780   0.194   7.003
 4354POPC   C4A55374  30.645   0.194   7.382
 4354POPC   C1B55375  30.921   0.961   6.076
 4354POPC   C2B55376  30.979   0.996   6.482
 4354POPC   C3B55377  30.764   0.861   6.820
 4354POPC   C4B55378  30.706   0.671   7.220
 4355POPC   NC355379  33.983  43.362   5.496
 4355POPC   PO455380  33.732  42.698   5.440
 4355POPC   GL155381  33.727  42.960   5.764
 4355POPC   GL255382  33.491  42.732   5.903
 4355POPC   C1A55383  33.745  43.234   6.123
 4355POPC   D2A55384  33.968  43.178   6.532
 4355POPC   C3A55385  33.811  43.232   6.939
 4355POPC   C4A55386  33.947  43.357   7.349
 4355POPC   C1B55387  33.731  42.772   6.278
 4355POPC   C2B55388  33.464  43.029   6.559
 4355POPC   C3B55389  33.350  42.982   6.970
 4355POPC   C4B55390  33.632  42.869   7.266
 4356POPC   NC355391  31.230  36.544   5.496
 4356POPC   PO455392  30.558  36.292   5.452
 4356POPC   GL155393  30.792  36.207   5.812
 4356POPC   GL255394  30.861  36.545   5.858
 4356POPC   C1A55395  30.621  36.080   6.231
 4356POPC   D2A55396  30.459  35.898   6.624
 4356POPC   C3A55397  30.742  35.839   6.990
 4356POPC   C4A55398  30.716  36.048   7.374
 4356POPC   C1B55399  30.996  36.431   6.288
 4356POPC   C2B55400  30.817  36.310   6.698
 4356POPC   C3B55401  30.466  36.275   6.978
 4356POPC   C4B55402  30.389  36.435   7.384
 4357POPC   NC355403  25.571  15.701   5.365
 4357POPC   PO455404  25.141  16.177   5.394
 4357POPC   GL155405  25.342  16.070   5.739
 4357POPC   GL255406  25.409  15.735   5.857
 4357POPC   C1A55407  25.219  16.070   6.174
 4357POPC   D2A55408  25.251  15.896   6.585
 4357POPC   C3A55409  25.156  16.239   6.846
 4357POPC   C4A55410  25.413  16.367   7.228
 4357POPC   C1B55411  25.672  15.727   6.264
 4357POPC   C2B55412  25.778  15.418   6.619
 4357POPC   C3B55413  25.736  15.534   7.068
 4357POPC   C4B55414  25.400  15.862   7.102
 4358POPC   NC355415  19.955  40.522   5.330
 4358POPC   PO455416  19.500  40.989   5.172
 4358POPC   GL155417  19.602  40.808   5.602
 4358POPC   GL255418  19.705  40.503   5.789
 4358POPC   C1A55419  19.756  40.978   6.002
 4358POPC   D2A55420  19.686  41.072   6.437
 4358POPC   C3A55421  19.859  40.830   6.770
 4358POPC   C4A55422  19.732  40.855   7.185
 4358POPC   C1B55423  19.836  40.453   6.255
 4358POPC   C2B55424  19.853  40.281   6.697
 4358POPC   C3B55425  20.023  40.431   7.090
 4358POPC   C4B55426  20.248  40.689   7.384
 4359POPC   NC355427  23.115  43.542   5.625
 4359POPC   PO455428  22.584  43.082   5.489
 4359POPC   GL155429  22.774  43.194   5.889
 4359POPC   GL255430  23.142  43.137   5.928
 4359POPC   C1A55431  22.810  42.932   6.270
 4359POPC   D2A55432  23.147  42.918   6.587
 4359POPC   C3A55433  22.992  42.919   6.973
 4359POPC   C4A55434  23.024  42.741   7.361
 4359POPC   C1B55435  23.097  43.341   6.311
 4359POPC   C2B55436  22.808  43.312   6.645
 4359POPC   C3B55437  23.070  43.424   6.953
 4359POPC   C4B55438  23.193  43.243   7.330
 4360POPC   NC355439  13.919   5.819   5.433
 4360POPC   PO455440  13.294   6.119   5.371
 4360POPC   GL155441  13.513   5.945   5.721
 4360POPC   GL255442  13.364   5.629   5.763
 4360POPC   C1A55443  13.771   5.780   6.087
 4360POPC   D2A55444  13.924   5.825   6.535
 4360POPC   C3A55445  13.724   5.610   6.882
 4360POPC   C4A55446  13.697   5.880   7.232
 4360POPC   C1B55447  13.388   5.427   6.165
 4360POPC   C2B55448  13.267   5.344   6.609
 4360POPC   C3B55449  13.318   5.320   7.073
 4360POPC   C4B55450  13.644   5.399   7.376
 4361POPC   NC355451  44.143   7.375   4.970
 4361POPC   PO455452  44.050   7.856   5.460
 4361POPC   GL155453  43.911   7.597   5.805
 4361POPC   GL255454  43.589   7.366   5.753
 4361POPC   C1A55455  44.077   7.698   6.230
 4361POPC   D2A55456  44.313   7.816   6.602
 4361POPC   C3A55457  44.108   7.821   7.012
 4361POPC   C4A55458  44.033   7.509   7.360
 4361POPC   C1B55459  43.683   7.375   6.209
 4361POPC   C2B55460  43.828   7.448   6.635
 4361POPC   C3B55461  43.628   7.429   7.045
 4361POPC   C4B55462  43.678   7.146   7.425
 4362POPC   NC355463   4.278  43.751   5.378
 4362POPC   PO455464   4.877  44.010   5.530
 4362POPC   GL155465   4.700  43.780   5.923
 4362POPC   GL255466   4.369  43.640   5.865
 4362POPC   C1A55467   4.469  43.774   6.344
 4362POPC   D2A55468   4.336  44.113   6.631
 4362POPC   C3A55469   4.578  44.063   7.002
 4362POPC   C4A55470   4.650  43.668   7.165
 4362POPC   C1B55471   4.029  43.882   6.110
 4362POPC   C2B55472   3.969  43.736   6.540
 4362POPC   C3B55473   4.155  43.730   6.963
 4362POPC   C4B55474   4.002  43.988   7.318
 4363POPC   NC355475  10.040  44.731   5.378
 4363POPC   PO455476   9.419  44.512   5.183
 4363POPC   GL155477   9.563  44.600   5.624
 4363POPC   GL255478   9.713  44.925   5.787
 4363POPC   C1A55479   9.606  44.518   6.078
 4363POPC   D2A55480   9.489  44.669   6.510
 4363POPC   C3A55481   9.723  44.399   6.784
 4363POPC   C4A55482   9.911  44.373   7.179
 4363POPC   C1B55483   9.889  44.985   6.259
 4363POPC   C2B55484   9.903  44.913   6.765
 4363POPC   C3B55485   9.961  44.902   7.255
 4363POPC   C4B55486  10.259  44.855   7.648
 4364POPC   NC355487  10.641  27.475   5.266
 4364POPC   PO455488  10.085  27.799   5.252
 4364POPC   GL155489  10.338  27.653   5.663
 4364POPC   GL255490  10.679  27.526   5.770
 4364POPC   C1A55491  10.341  27.647   6.143
 4364POPC   D2A55492  10.328  27.803   6.600
 4364POPC   C3A55493  10.698  27.866   6.886
 4364POPC   C4A55494  10.765  27.675   7.313
 4364POPC   C1B55495  10.760  27.327   6.163
 4364POPC   C2B55496  10.803  27.463   6.585
 4364POPC   C3B55497  10.514  27.420   6.921
 4364POPC   C4B55498  10.379  27.284   7.269
 4365POPC   NC355499  14.693   3.037   5.591
 4365POPC   PO455500  14.217   2.655   5.474
 4365POPC   GL155501  14.263   2.853   5.841
 4365POPC   GL255502  14.532   2.596   5.892
 4365POPC   C1A55503  14.322   2.881   6.276
 4365POPC   D2A55504  14.462   2.577   6.552
 4365POPC   C3A55505  14.368   2.825   6.895
 4365POPC   C4A55506  14.087   2.829   7.222
 4365POPC   C1B55507  14.791   2.334   6.161
 4365POPC   C2B55508  14.952   2.355   6.568
 4365POPC   C3B55509  14.752   2.338   6.946
 4365POPC   C4B55510  14.520   2.514   7.282
 4366POPC   NC355511  25.062  28.683   5.513
 4366POPC   PO455512  25.560  28.254   5.407
 4366POPC   GL155513  25.387  28.402   5.807
 4366POPC   GL255514  25.180  28.114   5.950
 4366POPC   C1A55515  25.362  28.521   6.250
 4366POPC   D2A55516  25.247  28.258   6.601
 4366POPC   C3A55517  25.442  28.346   6.978
 4366POPC   C4A55518  25.251  28.241   7.362
 4366POPC   C1B55519  24.889  28.366   6.219
 4366POPC   C2B55520  24.839  28.566   6.610
 4366POPC   C3B55521  24.941  28.513   7.053
 4366POPC   C4B55522  24.973  28.629   7.531
 4367POPC   NC355523  24.244   3.566   5.422
 4367POPC   PO455524  24.681   3.769   5.758
 4367POPC   GL155525  24.449   3.402   5.939
 4367POPC   GL255526  24.080   3.340   5.876
 4367POPC   C1A55527  24.528   3.267   6.374
 4367POPC   D2A55528  24.820   3.472   6.683
 4367POPC   C3A55529  24.777   3.383   7.106
 4367POPC   C4A55530  24.726   3.663   7.419
 4367POPC   C1B55531  24.137   3.767   6.116
 4367POPC   C2B55532  24.316   3.757   6.544
 4367POPC   C3B55533  24.335   3.398   6.861
 4367POPC   C4B55534  24.179   3.146   7.237
 4368POPC   NC355535  33.242  38.394   5.448
 4368POPC   PO455536  32.583  38.202   5.467
 4368POPC   GL155537  32.806  38.156   5.843
 4368POPC   GL255538  32.967  38.473   5.876
 4368POPC   C1A55539  32.859  38.219   6.301
 4368POPC   D2A55540  32.830  38.597   6.601
 4368POPC   C3A55541  32.949  38.519   7.057
 4368POPC   C4A55542  33.277  38.186   7.204
 4368POPC   C1B55543  33.211  38.630   6.241
 4368POPC   C2B55544  33.265  38.868   6.622
 4368POPC   C3B55545  33.385  38.812   7.074
 4368POPC   C4B55546  33.274  38.638   7.461
 4369POPC   NC355547  25.699  30.850   5.439
 4369POPC   PO455548  26.320  30.488   5.405
 4369POPC   GL155549  26.117  30.721   5.742
 4369POPC   GL255550  25.854  30.535   5.812
 4369POPC   C1A55551  26.095  30.658   6.223
 4369POPC   D2A55552  26.042  30.851   6.630
 4369POPC   C3A55553  26.318  30.767   6.952
 4369POPC   C4A55554  26.398  30.987   7.337
 4369POPC   C1B55555  25.647  30.377   6.162
 4369POPC   C2B55556  25.650  30.182   6.570
 4369POPC   C3B55557  25.992  30.337   6.802
 4369POPC   C4B55558  26.168  30.344   7.199
 4370POPC   NC355559  44.786  34.448   5.431
 4370POPC   PO455560   0.256  34.943   5.723
 4370POPC   GL155561  44.800  34.717   5.869
 4370POPC   GL255562  44.719  34.306   5.910
 4370POPC   C1A55563  44.553  34.623   6.273
 4370POPC   D2A55564  44.618  34.851   6.656
 4370POPC   C3A55565  44.654  34.685   7.050
 4370POPC   C4A55566  44.925  34.347   7.178
 4370POPC   C1B55567  44.367  34.115   6.166
 4370POPC   C2B55568  44.262  34.211   6.611
 4370POPC   C3B55569  44.446  34.233   7.012
 4370POPC   C4B55570  44.395  34.126   7.433
 4371POPC   NC355571  35.853  28.619   5.413
 4371POPC   PO455572  36.182  27.983   5.356
 4371POPC   GL155573  36.282  28.161   5.781
 4371POPC   GL255574  36.201  28.504   5.777
 4371POPC   C1A55575  36.316  28.335   6.249
 4371POPC   D2A55576  36.449  28.472   6.696
 4371POPC   C3A55577  36.238  28.221   7.003
 4371POPC   C4A55578  35.925  28.290   7.300
 4371POPC   C1B55579  35.880  28.584   6.129
 4371POPC   C2B55580  35.901  28.733   6.571
 4371POPC   C3B55581  36.064  28.723   7.007
 4371POPC   C4B55582  35.979  28.788   7.448
 4372POPC   NC355583  23.305  31.618   5.242
 4372POPC   PO455584  22.738  31.582   5.273
 4372POPC   GL155585  23.012  31.529   5.657
 4372POPC   GL255586  23.119  31.221   5.776
 4372POPC   C1A55587  23.088  31.700   6.100
 4372POPC   D2A55588  22.832  31.911   6.434
 4372POPC   C3A55589  22.837  31.781   6.887
 4372POPC   C4A55590  23.059  31.504   7.141
 4372POPC   C1B55591  22.744  31.322   6.072
 4372POPC   C2B55592  22.665  31.422   6.518
 4372POPC   C3B55593  22.601  31.272   6.921
 4372POPC   C4B55594  22.528  31.483   7.251
 4373POPC   NC355595  32.507  41.867   5.496
 4373POPC   PO455596  31.968  41.584   5.226
 4373POPC   GL155597  32.043  41.572   5.688
 4373POPC   GL255598  31.916  41.212   5.754
 4373POPC   C1A55599  32.308  41.501   6.071
 4373POPC   D2A55600  32.559  41.592   6.464
 4373POPC   C3A55601  32.345  41.577   6.871
 4373POPC   C4A55602  32.336  41.474   7.282
 4373POPC   C1B55603  31.832  41.346   6.169
 4373POPC   C2B55604  31.998  41.417   6.547
 4373POPC   C3B55605  31.836  41.662   6.876
 4373POPC   C4B55606  31.829  41.527   7.256
 4374POPC   NC355607   1.545  27.695   5.189
 4374POPC   PO455608   2.130  27.402   5.404
 4374POPC   GL155609   2.043  27.555   5.821
 4374POPC   GL255610   2.066  27.899   5.781
 4374POPC   C1A55611   2.191  27.682   6.239
 4374POPC   D2A55612   2.307  27.553   6.669
 4374POPC   C3A55613   1.951  27.487   6.929
 4374POPC   C4A55614   1.686  27.436   7.278
 4374POPC   C1B55615   1.818  28.041   6.112
 4374POPC   C2B55616   1.886  27.968   6.538
 4374POPC   C3B55617   2.119  27.982   6.904
 4374POPC   C4B55618   2.024  27.847   7.290
 4375POPC   NC355619  22.029  12.218   5.308
 4375POPC   PO455620  22.605  12.112   5.570
 4375POPC   GL155621  22.212  12.129   5.777
 4375POPC   GL255622  22.026  11.813   5.742
 4375POPC   C1A55623  22.037  12.137   6.185
 4375POPC   D2A55624  22.112  12.338   6.577
 4375POPC   C3A55625  22.139  12.173   6.984
 4375POPC   C4A55626  21.873  12.185   7.381
 4375POPC   C1B55627  22.375  11.726   6.067
 4375POPC   C2B55628  22.389  11.895   6.490
 4375POPC   C3B55629  22.321  11.712   6.883
 4375POPC   C4B55630  22.172  11.763   7.292
 4376POPC   NC355631  20.641  21.373   5.159
 4376POPC   PO455632  20.088  21.150   5.347
 4376POPC   GL155633  20.423  21.348   5.628
 4376POPC   GL255634  20.232  21.575   5.783
 4376POPC   C1A55635  20.693  21.608   5.988
 4376POPC   D2A55636  20.724  21.775   6.432
 4376POPC   C3A55637  20.592  21.576   6.850
 4376POPC   C4A55638  20.765  21.698   7.263
 4376POPC   C1B55639  20.326  21.273   6.117
 4376POPC   C2B55640  20.252  21.303   6.530
 4376POPC   C3B55641  20.163  21.163   6.908
 4376POPC   C4B55642  20.339  21.317   7.275
 4377POPC   NC355643  31.180  17.915   5.207
 4377POPC   PO455644  31.496  17.266   5.274
 4377POPC   GL155645  31.744  17.464   5.590
 4377POPC   GL255646  31.427  17.480   5.772
 4377POPC   C1A55647  31.845  17.452   6.049
 4377POPC   D2A55648  31.870  17.329   6.470
 4377POPC   C3A55649  31.613  17.491   6.830
 4377POPC   C4A55650  31.706  17.765   7.191
 4377POPC   C1B55651  31.370  17.603   6.237
 4377POPC   C2B55652  31.237  17.791   6.601
 4377POPC   C3B55653  31.237  17.917   7.005
 4377POPC   C4B55654  31.223  17.559   7.200
 4378POPC   NC355655  41.184   2.197   5.212
 4378POPC   PO455656  41.762   1.806   5.386
 4378POPC   GL155657  41.628   1.977   5.783
 4378POPC   GL255658  41.285   2.119   5.727
 4378POPC   C1A55659  41.865   2.013   6.214
 4378POPC   D2A55660  41.903   2.303   6.578
 4378POPC   C3A55661  41.892   2.188   7.031
 4378POPC   C4A55662  41.713   1.832   7.187
 4378POPC   C1B55663  41.368   2.192   6.168
 4378POPC   C2B55664  41.488   2.012   6.570
 4378POPC   C3B55665  41.378   2.169   6.951
 4378POPC   C4B55666  41.197   2.110   7.319
 4379POPC   NC355667  43.461  18.887   5.374
 4379POPC   PO455668  43.287  19.523   5.540
 4379POPC   GL155669  43.043  19.257   5.817
 4379POPC   GL255670  42.966  19.437   6.115
 4379POPC   C1A55671  43.160  18.966   6.169
 4379POPC   D2A55672  43.208  19.128   6.607
 4379POPC   C3A55673  43.179  18.899   7.008
 4379POPC   C4A55674  43.293  19.092   7.411
 4379POPC   C1B55675  42.740  19.147   6.387
 4379POPC   C2B55676  42.685  19.183   6.771
 4379POPC   C3B55677  42.943  19.355   7.025
 4379POPC   C4B55678  42.857  19.378   7.400
 4380POPC   NC355679  31.922   5.055   5.406
 4380POPC   PO455680  31.273   4.849   5.381
 4380POPC   GL155681  31.514   5.030   5.707
 4380POPC   GL255682  31.639   5.395   5.670
 4380POPC   C1A55683  31.658   5.001   6.115
 4380POPC   D2A55684  31.850   4.949   6.500
 4380POPC   C3A55685  31.644   5.082   6.877
 4380POPC   C4A55686  31.455   4.819   7.200
 4380POPC   C1B55687  31.315   5.375   6.013
 4380POPC   C2B55688  31.413   5.323   6.466
 4380POPC   C3B55689  31.195   5.341   6.871
 4380POPC   C4B55690  31.322   5.300   7.260
 4381POPC   NC355691  14.373  40.544   5.511
 4381POPC   PO455692  14.159  41.150   5.447
 4381POPC   GL155693  14.380  40.987   5.790
 4381POPC   GL255694  14.720  40.930   5.748
 4381POPC   C1A55695  14.387  40.801   6.198
 4381POPC   D2A55696  14.224  41.030   6.559
 4381POPC   C3A55697  14.262  40.832   6.910
 4381POPC   C4A55698  14.087  40.722   7.280
 4381POPC   C1B55699  14.835  41.065   6.170
 4381POPC   C2B55700  14.723  40.961   6.581
 4381POPC   C3B55701  14.644  41.182   6.928
 4381POPC   C4B55702  14.701  41.006   7.302
 4382POPC   NC355703  32.739  23.821   5.262
 4382POPC   PO455704  33.244  23.434   5.511
 4382POPC   GL155705  32.920  23.516   5.782
 4382POPC   GL255706  32.837  23.881   5.769
 4382POPC   C1A55707  32.934  23.627   6.202
 4382POPC   D2A55708  33.061  23.803   6.579
 4382POPC   C3A55709  33.056  23.652   6.966
 4382POPC   C4A55710  33.279  23.901   7.203
 4382POPC   C1B55711  32.590  24.000   6.150
 4382POPC   C2B55712  32.554  23.743   6.561
 4382POPC   C3B55713  32.578  23.885   6.969
 4382POPC   C4B55714  32.779  23.909   7.360
 4383POPC   NC355715  25.995  24.119   5.539
 4383POPC   PO455716  25.979  23.483   5.337
 4383POPC   GL155717  25.865  23.637   5.746
 4383POPC   GL255718  26.169  23.737   5.911
 4383POPC   C1A55719  25.710  23.727   6.177
 4383POPC   D2A55720  25.625  23.927   6.553
 4383POPC   C3A55721  25.880  23.749   6.876
 4383POPC   C4A55722  25.681  23.786   7.241
 4383POPC   C1B55723  26.393  24.000   6.237
 4383POPC   C2B55724  26.499  23.915   6.666
 4383POPC   C3B55725  26.343  23.931   7.077
 4383POPC   C4B55726  26.090  23.925   7.474
 4384POPC   NC355727  40.437  10.637   5.022
 4384POPC   PO455728  40.845  10.667   5.536
 4384POPC   GL155729  40.855  10.482   5.877
 4384POPC   GL255730  41.149  10.668   5.955
 4384POPC   C1A55731  40.953  10.293   6.271
 4384POPC   D2A55732  41.138  10.280   6.687
 4384POPC   C3A55733  40.873  10.397   7.040
 4384POPC   C4A55734  40.623  10.711   7.192
 4384POPC   C1B55735  40.826  10.831   6.227
 4384POPC   C2B55736  40.806  10.710   6.638
 4384POPC   C3B55737  41.081  10.858   6.947
 4384POPC   C4B55738  41.067  10.873   7.359
 4385POPC   NC355739  18.690   6.026   5.135
 4385POPC   PO455740  18.996   6.424   5.595
 4385POPC   GL155741  19.067   6.753   5.910
 4385POPC   GL255742  19.391   6.716   6.048
 4385POPC   C1A55743  19.033   6.786   6.398
 4385POPC   D2A55744  19.192   7.007   6.784
 4385POPC   C3A55745  19.078   6.788   7.162
 4385POPC   C4A55746  18.710   6.500   7.171
 4385POPC   C1B55747  19.335   6.269   6.132
 4385POPC   C2B55748  19.299   6.099   6.533
 4385POPC   C3B55749  19.134   6.336   6.895
 4385POPC   C4B55750  19.303   6.337   7.304
 4386POPC   NC355751  37.082   6.043   5.500
 4386POPC   PO455752  36.613   5.550   5.450
 4386POPC   GL155753  36.648   5.751   5.848
 4386POPC   GL255754  36.740   6.116   5.873
 4386POPC   C1A55755  36.702   5.835   6.289
 4386POPC   D2A55756  36.912   5.946   6.671
 4386POPC   C3A55757  36.611   5.954   6.981
 4386POPC   C4A55758  36.648   5.735   7.337
 4386POPC   C1B55759  37.129   6.086   6.194
 4386POPC   C2B55760  37.289   6.270   6.617
 4386POPC   C3B55761  37.268   6.070   7.049
 4386POPC   C4B55762  37.315   6.028   7.520
 4387POPC   NC355763  36.607  31.073   5.415
 4387POPC   PO455764  36.513  30.396   5.330
 4387POPC   GL155765  36.702  30.625   5.721
 4387POPC   GL255766  36.498  30.877   5.893
 4387POPC   C1A55767  36.925  30.776   6.167
 4387POPC   D2A55768  37.191  30.718   6.580
 4387POPC   C3A55769  37.010  30.835   6.988
 4387POPC   C4A55770  36.580  30.752   7.073
 4387POPC   C1B55771  36.480  30.505   6.183
 4387POPC   C2B55772  36.428  30.348   6.620
 4387POPC   C3B55773  36.616  30.223   7.020
 4387POPC   C4B55774  36.480  30.377   7.414
 4388POPC   NC355775  27.811  23.002   5.363
 4388POPC   PO455776  27.305  22.580   5.381
 4388POPC   GL155777  27.447  22.902   5.750
 4388POPC   GL255778  27.801  23.072   5.852
 4388POPC   C1A55779  27.517  22.848   6.211
 4388POPC   D2A55780  27.702  22.807   6.616
 4388POPC   C3A55781  27.390  22.932   6.914
 4388POPC   C4A55782  27.259  22.956   7.349
 4388POPC   C1B55783  27.966  23.098   6.272
 4388POPC   C2B55784  27.939  23.287   6.680
 4388POPC   C3B55785  27.741  23.254   7.059
 4388POPC   C4B55786  27.742  22.841   7.261
 4389POPC   NC355787  39.435   9.749   5.453
 4389POPC   PO455788  38.808   9.765   5.317
 4389POPC   GL155789  38.973   9.807   5.797
 4389POPC   GL255790  39.365   9.834   5.934
 4389POPC   C1A55791  39.007   9.867   6.276
 4389POPC   D2A55792  39.008  10.071   6.693
 4389POPC   C3A55793  38.901   9.779   7.040
 4389POPC   C4A55794  39.222   9.469   7.202
 4389POPC   C1B55795  39.645   9.788   6.292
 4389POPC   C2B55796  39.643   9.790   6.740
 4389POPC   C3B55797  39.395   9.968   7.071
 4389POPC   C4B55798  39.345   9.889   7.491
 4390POPC   NC355799  24.668   0.770   5.475
 4390POPC   PO455800  24.252   0.395   5.019
 4390POPC   GL155801  24.229   0.462   5.555
 4390POPC   GL255802  24.566   0.396   5.771
 4390POPC   C1A55803  24.158   0.444   6.051
 4390POPC   D2A55804  24.208   0.563   6.510
 4390POPC   C3A55805  24.372   0.348   6.851
 4390POPC   C4A55806  24.583   0.385   7.213
 4390POPC   C1B55807  24.636   0.637   6.170
 4390POPC   C2B55808  24.781   0.541   6.601
 4390POPC   C3B55809  24.921   0.704   7.004
 4390POPC   C4B55810  24.863   0.711   7.472
 4391POPC   NC355811  22.022  27.129   5.373
 4391POPC   PO455812  22.148  26.510   5.465
 4391POPC   GL155813  22.160  26.563   5.866
 4391POPC   GL255814  21.869  26.790   5.854
 4391POPC   C1A55815  22.373  26.764   6.263
 4391POPC   D2A55816  22.479  26.723   6.705
 4391POPC   C3A55817  22.226  26.766   7.068
 4391POPC   C4A55818  21.904  27.076   7.107
 4391POPC   C1B55819  21.891  26.596   6.277
 4391POPC   C2B55820  21.892  26.706   6.700
 4391POPC   C3B55821  21.694  26.575   7.088
 4391POPC   C4B55822  21.566  26.646   7.523
 4392POPC   NC355823  35.902  40.345   5.492
 4392POPC   PO455824  36.381  40.913   5.349
 4392POPC   GL155825  36.067  40.812   5.658
 4392POPC   GL255826  36.262  40.977   5.897
 4392POPC   C1A55827  35.872  40.702   6.084
 4392POPC   D2A55828  36.008  40.459   6.465
 4392POPC   C3A55829  36.080  40.722   6.803
 4392POPC   C4A55830  36.006  40.740   7.244
 4392POPC   C1B55831  36.443  41.186   6.238
 4392POPC   C2B55832  36.508  41.028   6.651
 4392POPC   C3B55833  36.391  41.034   7.086
 4392POPC   C4B55834  36.370  41.080   7.592
 4393POPC   NC355835  17.940  43.262   5.481
 4393POPC   PO455836  17.271  43.247   5.487
 4393POPC   GL155837  17.551  43.050   5.764
 4393POPC   GL255838  17.650  43.336   5.895
 4393POPC   C1A55839  17.544  42.936   6.202
 4393POPC   D2A55840  17.514  43.191   6.618
 4393POPC   C3A55841  17.569  42.963   6.995
 4393POPC   C4A55842  17.435  42.898   7.385
 4393POPC   C1B55843  17.870  43.321   6.278
 4393POPC   C2B55844  17.958  43.504   6.647
 4393POPC   C3B55845  17.871  43.368   7.011
 4393POPC   C4B55846  17.603  43.397   7.329
 4394POPC   NC355847  34.661  32.552   5.418
 4394POPC   PO455848  34.446  33.204   5.452
 4394POPC   GL155849  34.673  33.190   5.836
 4394POPC   GL255850  34.568  32.831   5.864
 4394POPC   C1A55851  34.742  33.341   6.279
 4394POPC   D2A55852  34.933  33.171   6.649
 4394POPC   C3A55853  34.709  33.091   7.036
 4394POPC   C4A55854  34.507  33.259   7.400
 4394POPC   C1B55855  34.371  32.955   6.226
 4394POPC   C2B55856  34.377  33.049   6.647
 4394POPC   C3B55857  34.236  32.898   7.035
 4394POPC   C4B55858  34.044  33.050   7.374
 4395POPC   NC355859  35.151  40.322   5.193
 4395POPC   PO455860  35.589  39.905   5.459
 4395POPC   GL155861  35.443  40.115   5.798
 4395POPC   GL255862  35.099  40.231   5.704
 4395POPC   C1A55863  35.664  40.239   6.157
 4395POPC   D2A55864  35.522  40.333   6.581
 4395POPC   C3A55865  35.785  40.309   6.943
 4395POPC   C4A55866  35.480  40.185   7.222
 4395POPC   C1B55867  34.845  40.200   6.093
 4395POPC   C2B55868  34.960  40.244   6.495
 4395POPC   C3B55869  35.087  39.981   6.792
 4395POPC   C4B55870  35.015  39.977   7.197
 4396POPC   NC355871  23.792  11.577   5.292
 4396POPC   PO455872  23.804  10.919   5.201
 4396POPC   GL155873  23.754  11.205   5.639
 4396POPC   GL255874  23.673  11.583   5.771
 4396POPC   C1A55875  23.641  11.221   6.098
 4396POPC   D2A55876  23.506  11.424   6.481
 4396POPC   C3A55877  23.733  11.284   6.839
 4396POPC   C4A55878  23.724  11.320   7.252
 4396POPC   C1B55879  23.820  11.720   6.181
 4396POPC   C2B55880  23.933  11.698   6.604
 4396POPC   C3B55881  23.766  11.771   7.012
 4396POPC   C4B55882  23.970  11.758   7.399
 4397POPC   NC355883  28.777  26.603   5.494
 4397POPC   PO455884  29.074  25.944   5.321
 4397POPC   GL155885  29.166  26.029   5.758
 4397POPC   GL255886  29.360  25.716   5.773
 4397POPC   C1A55887  28.987  26.068   6.197
 4397POPC   D2A55888  29.201  26.080   6.601
 4397POPC   C3A55889  29.000  26.107   6.999
 4397POPC   C4A55890  29.265  26.199   7.373
 4397POPC   C1B55891  29.463  25.882   6.193
 4397POPC   C2B55892  29.631  25.776   6.601
 4397POPC   C3B55893  29.528  25.899   7.017
 4397POPC   C4B55894  29.198  25.714   7.238
 4398POPC   NC355895   7.789   9.994   5.395
 4398POPC   PO455896   8.401   9.623   5.380
 4398POPC   GL155897   8.090   9.708   5.709
 4398POPC   GL255898   8.083  10.073   5.808
 4398POPC   C1A55899   7.862   9.593   6.105
 4398POPC   D2A55900   7.868   9.321   6.481
 4398POPC   C3A55901   8.118   9.490   6.828
 4398POPC   C4A55902   8.403   9.313   7.135
 4398POPC   C1B55903   8.132  10.006   6.263
 4398POPC   C2B55904   8.384   9.902   6.648
 4398POPC   C3B55905   8.364   9.876   7.101
 4398POPC   C4B55906   8.053  10.000   7.324
 4399POPC   NC355907  27.978  34.324   5.075
 4399POPC   PO455908  27.505  34.595   5.372
 4399POPC   GL155909  27.613  34.685   5.786
 4399POPC   GL255910  27.301  34.724   5.875
 4399POPC   C1A55911  27.709  34.893   6.199
 4399POPC   D2A55912  27.533  35.010   6.595
 4399POPC   C3A55913  27.686  34.892   6.990
 4399POPC   C4A55914  27.531  34.760   7.358
 4399POPC   C1B55915  27.448  34.447   6.237
 4399POPC   C2B55916  27.636  34.466   6.659
 4399POPC   C3B55917  27.660  34.335   7.086
 4399POPC   C4B55918  27.534  33.946   7.268
 4400POPC   NC355919  17.385  10.285   5.463
 4400POPC   PO455920  17.292  10.976   5.378
 4400POPC   GL155921  17.303  10.676   5.778
 4400POPC   GL255922  17.636  10.450   5.874
 4400POPC   C1A55923  17.259  10.432   6.189
 4400POPC   D2A55924  17.476  10.480   6.584
 4400POPC   C3A55925  17.249  10.600   6.942
 4400POPC   C4A55926  17.341  10.800   7.304
 4400POPC   C1B55927  17.664  10.120   6.247
 4400POPC   C2B55928  17.572  10.008   6.731
 4400POPC   C3B55929  17.658  10.333   7.100
 4400POPC   C4B55930  17.626  10.464   7.557
 4401POPC   NC355931  34.122  25.972   5.608
 4401POPC   PO455932  33.560  26.345   5.555
 4401POPC   GL155933  33.693  26.098   5.923
 4401POPC   GL255934  34.030  26.137   6.061
 4401POPC   C1A55935  33.680  26.048   6.405
 4401POPC   D2A55936  33.673  25.958   6.856
 4401POPC   C3A55937  33.422  25.923   7.259
 4401POPC   C4A55938  33.574  25.790   7.694
 4401POPC   C1B55939  34.077  26.380   6.418
 4401POPC   C2B55940  34.045  26.327   6.829
 4401POPC   C3B55941  33.793  26.398   7.166
 4401POPC   C4B55942  34.017  26.322   7.539
 4402POPC   NC355943   5.779  40.144   5.468
 4402POPC   PO455944   6.278  39.679   5.579
 4402POPC   GL155945   6.057  39.963   5.845
 4402POPC   GL255946   5.809  39.726   5.821
 4402POPC   C1A55947   5.873  39.962   6.271
 4402POPC   D2A55948   6.050  39.934   6.672
 4402POPC   C3A55949   5.731  40.032   6.988
 4402POPC   C4A55950   5.703  39.869   7.403
 4402POPC   C1B55951   5.966  39.465   6.169
 4402POPC   C2B55952   6.068  39.414   6.606
 4402POPC   C3B55953   6.031  39.559   7.045
 4402POPC   C4B55954   6.259  39.641   7.413
 4403POPC   NC355955  33.632  26.817   5.593
 4403POPC   PO455956  34.144  26.389   5.393
 4403POPC   GL155957  34.025  26.573   5.810
 4403POPC   GL255958  34.045  26.934   5.869
 4403POPC   C1A55959  33.698  26.572   6.165
 4403POPC   D2A55960  33.601  26.526   6.594
 4403POPC   C3A55961  33.421  26.881   6.773
 4403POPC   C4A55962  33.523  26.874   7.130
 4403POPC   C1B55963  34.009  26.974   6.296
 4403POPC   C2B55964  34.141  26.828   6.687
 4403POPC   C3B55965  34.013  26.911   7.084
 4403POPC   C4B55966  33.957  27.350   7.153
 4404POPC   NC355967  25.631   0.836   5.215
 4404POPC   PO455968  25.071   0.509   5.448
 4404POPC   GL155969  25.229   0.566   5.830
 4404POPC   GL255970  25.611   0.527   5.744
 4404POPC   C1A55971  25.067   0.339   6.205
 4404POPC   D2A55972  25.267   0.091   6.516
 4404POPC   C3A55973  25.090   0.224   6.901
 4404POPC   C4A55974  25.129   0.296   7.322
 4404POPC   C1B55975  25.555   0.496   6.212
 4404POPC   C2B55976  25.291   0.634   6.585
 4404POPC   C3B55977  25.434   0.638   7.025
 4404POPC   C4B55978  25.701   0.445   7.328
 4405POPC   NC355979  12.906   0.229   5.375
 4405POPC   PO455980  12.425   0.664   5.534
 4405POPC   GL155981  12.814   0.562   5.744
 4405POPC   GL255982  12.659   0.250   5.835
 4405POPC   C1A55983  13.164   0.378   6.011
 4405POPC   D2A55984  13.154   0.274   6.453
 4405POPC   C3A55985  13.403   0.315   6.788
 4405POPC   C4A55986  13.230   0.363   7.207
 4405POPC   C1B55987  12.707   0.467   6.255
 4405POPC   C2B55988  12.686   0.262   6.667
 4405POPC   C3B55989  12.717   0.265   7.126
 4405POPC   C4B55990  12.608   0.095   7.557
 4406POPC   NC355991  41.519   6.277   5.429
 4406POPC   PO455992  41.219   6.856   5.352
 4406POPC   GL155993  41.595   6.777   5.661
 4406POPC   GL255994  41.656   6.460   5.881
 4406POPC   C1A55995  41.802   6.905   6.084
 4406POPC   D2A55996  41.874   6.816   6.553
 4406POPC   C3A55997  41.593   6.904   6.926
 4406POPC   C4A55998  41.389   6.788   7.343
 4406POPC   C1B55999  41.882   6.389   6.266
 4406POPC   C2B56000  41.788   6.325   6.735
 4406POPC   C3B56001  41.606   6.388   7.145
 4406POPC   C4B56002  41.670   6.449   7.634
 4407POPC   NC356003  20.853  12.903   5.480
 4407POPC   PO456004  20.380  12.495   5.474
 4407POPC   GL156005  20.563  12.626   5.869
 4407POPC   GL256006  20.916  12.579   5.930
 4407POPC   C1A56007  20.527  12.650   6.316
 4407POPC   D2A56008  20.582  12.451   6.692
 4407POPC   C3A56009  20.621  12.775   7.004
 4407POPC   C4A56010  20.464  13.206   7.088
 4407POPC   C1B56011  20.889  12.991   6.163
 4407POPC   C2B56012  20.764  13.173   6.577
 4407POPC   C3B56013  20.997  13.133   6.947
 4407POPC   C4B56014  20.954  13.090   7.372
 4408POPC   NC356015  40.867  24.712   5.402
 4408POPC   PO456016  40.376  24.336   5.220
 4408POPC   GL156017  40.480  24.450   5.644
 4408POPC   GL256018  40.516  24.802   5.740
 4408POPC   C1A56019  40.561  24.463   6.094
 4408POPC   D2A56020  40.759  24.520   6.497
 4408POPC   C3A56021  40.542  24.492   6.895
 4408POPC   C4A56022  40.844  24.514   7.214
 4408POPC   C1B56023  40.367  24.992   6.122
 4408POPC   C2B56024  40.406  24.889   6.548
 4408POPC   C3B56025  40.722  24.964   6.861
 4408POPC   C4B56026  40.511  24.890   7.247
 4409POPC   NC356027  43.532  26.839   5.298
 4409POPC   PO456028  42.999  27.196   5.405
 4409POPC   GL156029  43.110  27.019   5.800
 4409POPC   GL256030  43.333  26.726   5.775
 4409POPC   C1A56031  42.903  26.905   6.186
 4409POPC   D2A56032  42.741  26.928   6.601
 4409POPC   C3A56033  42.918  26.623   6.866
 4409POPC   C4A56034  43.020  26.748   7.269
 4409POPC   C1B56035  43.419  26.854   6.211
 4409POPC   C2B56036  43.275  26.938   6.631
 4409POPC   C3B56037  43.449  26.913   7.038
 4409POPC   C4B56038  43.450  26.477   7.119
 4410POPC   NC356039  14.612  43.973   5.400
 4410POPC   PO456040  13.999  43.874   5.210
 4410POPC   GL156041  14.205  43.898   5.712
 4410POPC   GL256042  14.503  43.668   5.799
 4410POPC   C1A56043  14.277  43.949   6.186
 4410POPC   D2A56044  14.367  43.722   6.593
 4410POPC   C3A56045  14.303  43.938   6.972
 4410POPC   C4A56046  14.467  43.826   7.374
 4410POPC   C1B56047  14.637  43.522   6.203
 4410POPC   C2B56048  14.846  43.605   6.611
 4410POPC   C3B56049  14.684  43.537   7.003
 4410POPC   C4B56050  14.923  43.624   7.361
 4411POPC   NC356051  28.746   1.975   5.451
 4411POPC   PO456052  28.090   1.918   5.513
 4411POPC   GL156053  28.236   1.861   5.901
 4411POPC   GL256054  28.566   1.760   5.881
 4411POPC   C1A56055  28.115   1.948   6.300
 4411POPC   D2A56056  28.025   1.687   6.642
 4411POPC   C3A56057  28.359   1.660   6.987
 4411POPC   C4A56058  28.291   1.794   7.432
 4411POPC   C1B56059  28.607   2.056   6.233
 4411POPC   C2B56060  28.426   2.173   6.649
 4411POPC   C3B56061  28.560   2.113   7.076
 4411POPC   C4B56062  28.747   2.050   7.473
 4412POPC   NC356063   4.015  20.008   5.331
 4412POPC   PO456064   4.396  19.516   5.567
 4412POPC   GL156065   4.265  19.860   5.786
 4412POPC   GL256066   4.573  19.888   5.937
 4412POPC   C1A56067   4.180  19.947   6.239
 4412POPC   D2A56068   4.437  19.897   6.605
 4412POPC   C3A56069   4.234  19.985   6.988
 4412POPC   C4A56070   3.979  19.779   7.287
 4412POPC   C1B56071   4.557  19.568   6.204
 4412POPC   C2B56072   4.695  19.425   6.592
 4412POPC   C3B56073   4.561  19.566   7.000
 4412POPC   C4B56074   4.321  19.412   7.379
 4413POPC   NC356075  34.071  36.976   5.417
 4413POPC   PO456076  34.279  36.609   5.909
 4413POPC   GL156077  33.999  36.953   5.949
 4413POPC   GL256078  33.668  36.986   5.794
 4413POPC   C1A56079  34.073  37.222   6.281
 4413POPC   D2A56080  34.091  37.281   6.718
 4413POPC   C3A56081  33.941  37.004   7.001
 4413POPC   C4A56082  34.100  37.007   7.400
 4413POPC   C1B56083  33.484  36.793   6.158
 4413POPC   C2B56084  33.627  36.849   6.576
 4413POPC   C3B56085  33.444  36.845   6.970
 4413POPC   C4B56086  33.632  36.838   7.389
 4414POPC   NC356087  43.112  14.041   5.439
 4414POPC   PO456088  42.898  13.475   5.599
 4414POPC   GL156089  43.189  13.716   5.843
 4414POPC   GL256090  43.420  14.038   5.846
 4414POPC   C1A56091  43.251  13.483   6.198
 4414POPC   D2A56092  43.227  13.575   6.622
 4414POPC   C3A56093  42.854  13.488   6.889
 4414POPC   C4A56094  42.990  13.508   7.294
 4414POPC   C1B56095  43.474  13.931   6.285
 4414POPC   C2B56096  43.452  14.055   6.717
 4414POPC   C3B56097  43.385  13.773   7.072
 4414POPC   C4B56098  43.293  13.810   7.547
 4415POPC   NC356099  40.049  20.971   5.328
 4415POPC   PO456100  39.817  20.285   5.326
 4415POPC   GL156101  39.772  20.576   5.684
 4415POPC   GL256102  40.126  20.588   5.769
 4415POPC   C1A56103  39.729  20.719   6.132
 4415POPC   D2A56104  39.702  20.900   6.555
 4415POPC   C3A56105  39.738  20.619   6.916
 4415POPC   C4A56106  39.540  20.603   7.296
 4415POPC   C1B56107  40.271  20.645   6.198
 4415POPC   C2B56108  40.136  20.585   6.593
 4415POPC   C3B56109  40.264  20.532   7.001
 4415POPC   C4B56110  40.062  20.649   7.338
 4416POPC   NC356111  37.399   3.688   5.401
 4416POPC   PO456112  37.722   3.057   5.436
 4416POPC   GL156113  37.600   3.297   5.830
 4416POPC   GL256114  37.626   3.668   5.865
 4416POPC   C1A56115  37.835   3.363   6.237
 4416POPC   D2A56116  37.722   3.625   6.595
 4416POPC   C3A56117  37.870   3.545   6.993
 4416POPC   C4A56118  37.982   3.618   7.416
 4416POPC   C1B56119  37.363   3.523   6.215
 4416POPC   C2B56120  37.177   3.608   6.606
 4416POPC   C3B56121  37.322   3.687   6.984
 4416POPC   C4B56122  37.476   3.492   7.328
 4417POPC   NC356123  36.406   0.474   5.512
 4417POPC   PO456124  35.799   0.860   5.450
 4417POPC   GL156125  35.915   0.595   5.832
 4417POPC   GL256126  36.007   0.243   5.852
 4417POPC   C1A56127  35.903   0.530   6.301
 4417POPC   D2A56128  35.827   0.339   6.723
 4417POPC   C3A56129  35.927   0.657   7.042
 4417POPC   C4A56130  35.850   0.973   7.371
 4417POPC   C1B56131  36.340   0.263   6.191
 4417POPC   C2B56132  36.385   0.519   6.580
 4417POPC   C3B56133  36.444   0.484   7.027
 4417POPC   C4B56134  36.210   0.428   7.410
 4418POPC   NC356135  10.128  21.574   5.395
 4418POPC   PO456136  10.733  21.449   5.291
 4418POPC   GL156137  10.585  21.540   5.710
 4418POPC   GL256138  10.438  21.857   5.712
 4418POPC   C1A56139  10.604  21.426   6.168
 4418POPC   D2A56140  10.641  21.576   6.600
 4418POPC   C3A56141  10.393  21.340   6.891
 4418POPC   C4A56142  10.590  21.181   7.251
 4418POPC   C1B56143  10.157  21.696   6.038
 4418POPC   C2B56144  10.149  21.708   6.499
 4418POPC   C3B56145  10.305  21.861   6.904
 4418POPC   C4B56146  10.394  21.658   7.299
 4419POPC   NC356147  14.534  13.107   5.622
 4419POPC   PO456148  14.140  12.681   5.508
 4419POPC   GL156149  14.205  12.793   5.898
 4419POPC   GL256150  14.565  12.721   5.978
 4419POPC   C1A56151  14.182  12.769   6.329
 4419POPC   D2A56152  14.543  12.709   6.565
 4419POPC   C3A56153  14.384  12.712   6.948
 4419POPC   C4A56154  14.520  12.581   7.319
 4419POPC   C1B56155  14.576  13.110   6.235
 4419POPC   C2B56156  14.744  13.289   6.544
 4419POPC   C3B56157  14.732  13.112   6.901
 4419POPC   C4B56158  14.495  13.090   7.266
 4420POPC   NC356159  12.622   3.866   5.455
 4420POPC   PO456160  13.246   3.764   5.745
 4420POPC   GL156161  12.844   3.614   5.869
 4420POPC   GL256162  12.506   3.501   5.791
 4420POPC   C1A56163  12.816   3.394   6.238
 4420POPC   D2A56164  12.977   3.215   6.646
 4420POPC   C3A56165  13.074   3.581   6.942
 4420POPC   C4A56166  12.875   3.627   7.353
 4420POPC   C1B56167  12.360   3.648   6.215
 4420POPC   C2B56168  12.547   3.572   6.628
 4420POPC   C3B56169  12.620   3.355   6.988
 4420POPC   C4B56170  12.384   3.605   7.230
 4421POPC   NC356171  43.187   4.303   5.414
 4421POPC   PO456172  42.857   3.827   5.663
 4421POPC   GL156173  43.043   4.238   5.897
 4421POPC   GL256174  43.290   4.542   5.840
 4421POPC   C1A56175  42.993   4.510   6.268
 4421POPC   D2A56176  43.072   4.293   6.664
 4421POPC   C3A56177  42.779   4.186   6.994
 4421POPC   C4A56178  42.969   4.468   7.289
 4421POPC   C1B56179  43.475   4.309   6.181
 4421POPC   C2B56180  43.622   4.194   6.586
 4421POPC   C3B56181  43.471   4.260   6.996
 4421POPC   C4B56182  43.468   4.619   7.270
 4422POPC   NC356183  42.955  36.989   5.396
 4422POPC   PO456184  43.671  37.041   5.347
 4422POPC   GL156185  43.327  36.959   5.745
 4422POPC   GL256186  42.897  36.828   5.886
 4422POPC   C1A56187  43.152  37.184   6.093
 4422POPC   D2A56188  42.930  36.971   6.407
 4422POPC   C3A56189  42.914  37.123   6.799
 4422POPC   C4A56190  43.140  37.044   7.149
 4422POPC   C1B56191  42.616  36.619   6.226
 4422POPC   C2B56192  42.707  36.448   6.671
 4422POPC   C3B56193  42.925  36.527   7.100
 4422POPC   C4B56194  43.094  36.699   7.514
 4423POPC   NC356195   8.822  21.061   5.343
 4423POPC   PO456196   9.317  21.437   5.103
 4423POPC   GL156197   9.144  21.369   5.570
 4423POPC   GL256198   9.040  21.572   5.828
 4423POPC   C1A56199   8.936  21.142   6.002
 4423POPC   D2A56200   8.930  20.996   6.424
 4423POPC   C3A56201   9.126  21.162   6.814
 4423POPC   C4A56202   8.975  21.069   7.241
 4423POPC   C1B56203   8.975  21.555   6.296
 4423POPC   C2B56204   8.690  21.596   6.638
 4423POPC   C3B56205   8.748  21.466   7.034
 4423POPC   C4B56206   9.186  21.551   7.211
 4424POPC   NC356207  19.637  21.305   5.360
 4424POPC   PO456208  19.679  21.952   5.457
 4424POPC   GL156209  19.715  21.590   5.787
 4424POPC   GL256210  19.857  21.211   5.823
 4424POPC   C1A56211  19.881  21.532   6.217
 4424POPC   D2A56212  19.742  21.354   6.601
 4424POPC   C3A56213  19.885  21.575   7.004
 4424POPC   C4A56214  19.942  21.644   7.469
 4424POPC   C1B56215  19.923  20.985   6.243
 4424POPC   C2B56216  19.736  20.829   6.609
 4424POPC   C3B56217  19.647  21.011   6.980
 4424POPC   C4B56218  19.834  21.157   7.312
 4425POPC   NC356219   0.584  26.496   5.465
 4425POPC   PO456220   0.306  27.118   5.414
 4425POPC   GL156221   0.222  26.966   5.826
 4425POPC   GL256222   0.562  26.834   5.847
 4425POPC   C1A56223   0.216  26.957   6.272
 4425POPC   D2A56224   0.426  26.878   6.665
 4425POPC   C3A56225   0.326  26.928   7.106
 4425POPC   C4A56226   0.523  26.635   7.362
 4425POPC   C1B56227   0.734  26.895   6.245
 4425POPC   C2B56228   0.885  27.148   6.574
 4425POPC   C3B56229   0.817  27.037   6.987
 4425POPC   C4B56230   0.726  27.179   7.362
 4426POPC   NC356231  25.525  16.468   5.398
 4426POPC   PO456232  25.425  17.136   5.395
 4426POPC   GL156233  25.295  16.837   5.674
 4426POPC   GL256234  25.005  16.674   5.536
 4426POPC   C1A56235  25.423  16.621   6.053
 4426POPC   D2A56236  25.548  16.845   6.424
 4426POPC   C3A56237  25.412  16.673   6.817
 4426POPC   C4A56238  25.312  16.881   7.214
 4426POPC   C1B56239  24.916  16.719   5.996
 4426POPC   C2B56240  25.043  16.688   6.432
 4426POPC   C3B56241  24.901  16.737   6.846
 4426POPC   C4B56242  24.942  16.559   7.213
 4427POPC   NC356243  32.391   9.738   4.894
 4427POPC   PO456244  32.477  10.065   5.517
 4427POPC   GL156245  32.355   9.784   5.818
 4427POPC   GL256246  32.386   9.451   5.684
 4427POPC   C1A56247  32.397   9.897   6.231
 4427POPC   D2A56248  32.136  10.166   6.487
 4427POPC   C3A56249  32.053  10.000   6.895
 4427POPC   C4A56250  32.275  10.005   7.316
 4427POPC   C1B56251  32.298   9.377   6.151
 4427POPC   C2B56252  32.190   9.578   6.568
 4427POPC   C3B56253  32.380   9.622   6.966
 4427POPC   C4B56254  32.479   9.508   7.398
 4428POPC   NC356255  16.357   8.839   5.602
 4428POPC   PO456256  15.689   9.017   5.578
 4428POPC   GL156257  15.975   9.025   5.879
 4428POPC   GL256258  16.019   9.332   6.030
 4428POPC   C1A56259  16.170   8.892   6.244
 4428POPC   D2A56260  16.039   8.972   6.642
 4428POPC   C3A56261  16.364   9.011   6.904
 4428POPC   C4A56262  16.242   8.737   7.193
 4428POPC   C1B56263  15.670   9.094   6.289
 4428POPC   C2B56264  15.512   8.968   6.706
 4428POPC   C3B56265  15.753   8.962   7.090
 4428POPC   C4B56266  16.054   9.270   7.212
 4429POPC   NC356267  35.385  29.159   5.323
 4429POPC   PO456268  34.957  28.717   5.191
 4429POPC   GL156269  35.077  28.943   5.680
 4429POPC   GL256270  35.410  29.207   5.806
 4429POPC   C1A56271  35.278  28.859   6.131
 4429POPC   D2A56272  35.396  29.133   6.489
 4429POPC   C3A56273  35.405  28.980   6.904
 4429POPC   C4A56274  35.456  29.304   7.191
 4429POPC   C1B56275  35.063  29.360   6.034
 4429POPC   C2B56276  34.995  29.480   6.462
 4429POPC   C3B56277  35.010  29.303   6.868
 4429POPC   C4B56278  34.972  29.444   7.272
 4430POPC   NC356279  21.984  23.119   5.335
 4430POPC   PO456280  22.278  22.473   5.309
 4430POPC   GL156281  22.084  22.758   5.682
 4430POPC   GL256282  22.338  22.978   5.848
 4430POPC   C1A56283  22.062  22.680   6.166
 4430POPC   D2A56284  22.305  22.905   6.501
 4430POPC   C3A56285  22.211  23.041   6.941
 4430POPC   C4A56286  22.390  23.037   7.379
 4430POPC   C1B56287  21.936  23.150   6.047
 4430POPC   C2B56288  21.872  23.231   6.507
 4430POPC   C3B56289  21.818  23.408   6.929
 4430POPC   C4B56290  22.093  23.425   7.288
 4431POPC   NC356291  28.836  15.537   5.505
 4431POPC   PO456292  29.242  15.086   5.327
 4431POPC   GL156293  29.212  15.191   5.764
 4431POPC   GL256294  29.375  14.872   5.870
 4431POPC   C1A56295  29.164  15.223   6.222
 4431POPC   D2A56296  28.855  15.114   6.553
 4431POPC   C3A56297  28.697  15.364   6.885
 4431POPC   C4A56298  28.680  15.193   7.299
 4431POPC   C1B56299  29.480  14.679   6.262
 4431POPC   C2B56300  29.345  14.911   6.632
 4431POPC   C3B56301  29.170  15.173   6.973
 4431POPC   C4B56302  29.191  15.168   7.418
 4432POPC   NC356303   2.888  26.072   5.387
 4432POPC   PO456304   2.300  26.143   5.617
 4432POPC   GL156305   2.582  26.023   5.911
 4432POPC   GL256306   2.437  25.676   5.937
 4432POPC   C1A56307   2.849  26.156   6.292
 4432POPC   D2A56308   3.227  26.075   6.568
 4432POPC   C3A56309   3.091  25.974   7.004
 4432POPC   C4A56310   2.657  26.071   7.147
 4432POPC   C1B56311   2.802  25.652   6.200
 4432POPC   C2B56312   2.756  25.709   6.664
 4432POPC   C3B56313   2.490  25.613   7.050
 4432POPC   C4B56314   2.682  25.618   7.510
 4433POPC   NC356315  42.680  36.285   5.437
 4433POPC   PO456316  42.054  35.917   5.478
 4433POPC   GL156317  42.254  35.949   5.884
 4433POPC   GL256318  42.406  36.294   5.899
 4433POPC   C1A56319  42.656  35.900   6.128
 4433POPC   D2A56320  42.916  35.917   6.521
 4433POPC   C3A56321  42.662  35.982   6.907
 4433POPC   C4A56322  42.311  35.910   7.196
 4433POPC   C1B56323  42.303  36.190   6.361
 4433POPC   C2B56324  42.203  36.246   6.793
 4433POPC   C3B56325  42.417  36.459   7.118
 4433POPC   C4B56326  42.576  36.571   7.546
 4434POPC   NC356327  31.708  36.448   5.093
 4434POPC   PO456328  31.262  35.982   5.381
 4434POPC   GL156329  31.558  36.160   5.684
 4434POPC   GL256330  31.312  36.289   5.917
 4434POPC   C1A56331  31.750  36.191   6.125
 4434POPC   D2A56332  31.434  36.189   6.475
 4434POPC   C3A56333  31.591  36.268   6.892
 4434POPC   C4A56334  31.497  36.325   7.313
 4434POPC   C1B56335  31.130  35.935   6.108
 4434POPC   C2B56336  30.995  35.873   6.524
 4434POPC   C3B56337  31.257  35.823   6.873
 4434POPC   C4B56338  31.233  35.886   7.300
 4435POPC   NC356339  12.667  28.717   4.972
 4435POPC   PO456340  12.993  28.444   5.512
 4435POPC   GL156341  12.929  28.596   5.899
 4435POPC   GL256342  12.807  28.251   5.972
 4435POPC   C1A56343  12.961  28.552   6.345
 4435POPC   D2A56344  12.746  28.286   6.628
 4435POPC   C3A56345  12.945  28.351   7.036
 4435POPC   C4A56346  13.001  28.443   7.508
 4435POPC   C1B56347  12.595  27.954   6.226
 4435POPC   C2B56348  12.360  27.966   6.607
 4435POPC   C3B56349  12.613  27.919   6.975
 4435POPC   C4B56350  12.723  28.049   7.370
 4436POPC   NC356351  13.686  41.050   5.484
 4436POPC   PO456352  13.945  40.335   5.520
 4436POPC   GL156353  13.905  40.719   5.787
 4436POPC   GL256354  13.523  40.811   5.933
 4436POPC   C1A56355  13.920  40.980   6.157
 4436POPC   D2A56356  13.639  40.960   6.496
 4436POPC   C3A56357  13.793  41.019   6.911
 4436POPC   C4A56358  13.512  40.797   7.193
 4436POPC   C1B56359  13.300  40.574   6.268
 4436POPC   C2B56360  13.337  40.345   6.678
 4436POPC   C3B56361  13.213  40.388   7.123
 4436POPC   C4B56362  13.308  40.434   7.599
 4437POPC   NC356363  32.756   2.396   5.440
 4437POPC   PO456364  33.229   1.916   5.510
 4437POPC   GL156365  32.931   1.979   5.858
 4437POPC   GL256366  32.612   1.898   5.677
 4437POPC   C1A56367  33.094   2.133   6.296
 4437POPC   D2A56368  33.003   2.361   6.703
 4437POPC   C3A56369  32.961   2.127   7.084
 4437POPC   C4A56370  33.273   1.874   7.223
 4437POPC   C1B56371  32.500   1.747   6.097
 4437POPC   C2B56372  32.581   1.612   6.521
 4437POPC   C3B56373  32.578   1.776   6.951
 4437POPC   C4B56374  32.634   1.826   7.385
 4438POPC   NC356375  36.651  22.107   5.684
 4438POPC   PO456376  37.294  22.045   5.475
 4438POPC   GL156377  37.127  22.302   5.836
 4438POPC   GL256378  37.323  22.545   6.020
 4438POPC   C1A56379  36.873  22.377   6.245
 4438POPC   D2A56380  36.483  22.230   6.481
 4438POPC   C3A56381  36.534  22.000   6.880
 4438POPC   C4A56382  36.654  22.227   7.226
 4438POPC   C1B56383  37.336  22.117   6.286
 4438POPC   C2B56384  37.296  21.946   6.716
 4438POPC   C3B56385  37.194  22.126   7.135
 4438POPC   C4B56386  37.366  22.260   7.534
 4439POPC   NC356387  15.635  13.956   5.564
 4439POPC   PO456388  15.622  13.319   5.425
 4439POPC   GL156389  15.933  13.501   5.753
 4439POPC   GL256390  15.808  13.728   5.978
 4439POPC   C1A56391  16.238  13.501   6.125
 4439POPC   D2A56392  16.143  13.366   6.549
 4439POPC   C3A56393  16.212  13.580   6.909
 4439POPC   C4A56394  15.956  13.655   7.219
 4439POPC   C1B56395  15.826  14.022   6.268
 4439POPC   C2B56396  15.928  13.929   6.661
 4439POPC   C3B56397  15.671  14.036   6.977
 4439POPC   C4B56398  15.797  14.101   7.348
 4440POPC   NC356399  38.734  44.389   5.527
 4440POPC   PO456400  38.457  44.999   5.202
 4440POPC   GL156401  38.591  44.904   5.672
 4440POPC   GL256402  38.360  44.667   5.752
 4440POPC   C1A56403  38.673  44.703   6.152
 4440POPC   D2A56404  38.658  44.449   6.574
 4440POPC   C3A56405  38.566  44.562   7.016
 4440POPC   C4A56406  38.434  44.940   7.248
 4440POPC   C1B56407  38.137  44.895   6.030
 4440POPC   C2B56408  38.223  44.903   6.456
 4440POPC   C3B56409  38.117  44.736   6.848
 4440POPC   C4B56410  38.074  44.564   7.264
 4441POPC   NC356411   1.765  22.229   5.192
 4441POPC   PO456412   2.401  22.024   5.251
 4441POPC   GL156413   2.134  22.173   5.637
 4441POPC   GL256414   1.783  22.172   5.723
 4441POPC   C1A56415   2.148  22.090   6.128
 4441POPC   D2A56416   2.214  21.908   6.577
 4441POPC   C3A56417   1.903  22.025   6.909
 4441POPC   C4A56418   1.990  22.206   7.304
 4441POPC   C1B56419   1.692  22.318   6.168
 4441POPC   C2B56420   1.919  22.400   6.564
 4441POPC   C3B56421   1.775  22.522   6.975
 4441POPC   C4B56422   1.442  22.297   7.242
 4442POPC   NC356423   7.346   6.250   5.458
 4442POPC   PO456424   7.599   6.937   5.349
 4442POPC   GL156425   7.621   6.783   5.802
 4442POPC   GL256426   7.292   6.958   5.857
 4442POPC   C1A56427   7.425   6.571   6.224
 4442POPC   D2A56428   7.205   6.608   6.655
 4442POPC   C3A56429   7.442   6.586   7.071
 4442POPC   C4A56430   7.299   6.572   7.555
 4442POPC   C1B56431   7.521   7.068   6.219
 4442POPC   C2B56432   7.645   6.907   6.620
 4442POPC   C3B56433   7.353   7.071   6.898
 4442POPC   C4B56434   7.320   7.037   7.335
 4443POPC   NC356435  18.742   2.014   5.608
 4443POPC   PO456436  19.460   2.097   5.556
 4443POPC   GL156437  19.213   1.999   5.901
 4443POPC   GL256438  19.148   1.651   5.806
 4443POPC   C1A56439  19.054   2.162   6.301
 4443POPC   D2A56440  18.976   2.122   6.732
 4443POPC   C3A56441  19.164   2.239   7.065
 4443POPC   C4A56442  18.867   2.147   7.362
 4443POPC   C1B56443  19.095   1.614   6.265
 4443POPC   C2B56444  19.205   1.668   6.705
 4443POPC   C3B56445  19.035   1.726   7.116
 4443POPC   C4B56446  18.745   1.677   7.470
 4444POPC   NC356447   9.932  39.015   5.427
 4444POPC   PO456448   9.523  39.541   5.213
 4444POPC   GL156449   9.608  39.413   5.681
 4444POPC   GL256450   9.543  39.066   5.741
 4444POPC   C1A56451   9.738  39.433   6.161
 4444POPC   D2A56452   9.719  39.526   6.659
 4444POPC   C3A56453   9.712  39.173   6.980
 4444POPC   C4A56454   9.990  38.861   7.201
 4444POPC   C1B56455   9.467  38.981   6.164
 4444POPC   C2B56456   9.376  39.120   6.575
 4444POPC   C3B56457   9.218  38.925   6.930
 4444POPC   C4B56458   9.448  38.831   7.270
 4445POPC   NC356459  11.763  15.802   5.157
 4445POPC   PO456460  12.331  16.066   5.326
 4445POPC   GL156461  12.152  15.906   5.724
 4445POPC   GL256462  11.816  15.757   5.722
 4445POPC   C1A56463  12.197  16.065   6.148
 4445POPC   D2A56464  12.028  16.032   6.554
 4445POPC   C3A56465  12.083  15.725   6.855
 4445POPC   C4A56466  12.160  16.009   7.212
 4445POPC   C1B56467  11.690  15.893   6.160
 4445POPC   C2B56468  11.533  15.943   6.607
 4445POPC   C3B56469  11.678  15.992   7.023
 4445POPC   C4B56470  11.737  15.711   7.335
 4446POPC   NC356471   5.688  36.751   5.212
 4446POPC   PO456472   6.232  36.599   5.538
 4446POPC   GL156473   6.220  36.636   5.950
 4446POPC   GL256474   6.296  36.981   5.946
 4446POPC   C1A56475   6.109  36.472   6.356
 4446POPC   D2A56476   5.768  36.547   6.620
 4446POPC   C3A56477   5.805  36.629   7.052
 4446POPC   C4A56478   6.147  36.791   7.302
 4446POPC   C1B56479   6.161  36.997   6.380
 4446POPC   C2B56480   6.038  37.035   6.826
 4446POPC   C3B56481   5.834  37.163   7.222
 4446POPC   C4B56482   6.047  37.312   7.630
 4447POPC   NC356483  24.607  23.439   5.285
 4447POPC   PO456484  24.233  24.008   5.535
 4447POPC   GL156485  24.327  23.594   5.752
 4447POPC   GL256486  24.605  23.362   5.814
 4447POPC   C1A56487  24.262  23.429   6.190
 4447POPC   D2A56488  24.494  23.554   6.545
 4447POPC   C3A56489  24.278  23.642   6.898
 4447POPC   C4A56490  24.362  23.865   7.278
 4447POPC   C1B56491  24.872  23.432   6.168
 4447POPC   C2B56492  24.991  23.482   6.593
 4447POPC   C3B56493  24.782  23.620   7.039
 4447POPC   C4B56494  24.713  23.650   7.537
 4448POPC   NC356495  43.201   6.969   5.308
 4448POPC   PO456496  42.716   6.526   5.433
 4448POPC   GL156497  43.093   6.572   5.742
 4448POPC   GL256498  43.348   6.829   5.766
 4448POPC   C1A56499  43.090   6.682   6.173
 4448POPC   D2A56500  43.267   6.626   6.583
 4448POPC   C3A56501  43.079   6.584   6.993
 4448POPC   C4A56502  42.917   6.410   7.360
 4448POPC   C1B56503  43.559   6.872   6.158
 4448POPC   C2B56504  43.472   7.077   6.564
 4448POPC   C3B56505  43.383   6.974   6.966
 4448POPC   C4B56506  43.320   6.789   7.388
 4449POPC   NC356507  25.034   3.997   5.532
 4449POPC   PO456508  25.400   3.378   5.473
 4449POPC   GL156509  25.209   3.591   5.817
 4449POPC   GL256510  25.427   3.893   5.872
 4449POPC   C1A56511  25.100   3.434   6.246
 4449POPC   D2A56512  25.300   3.250   6.637
 4449POPC   C3A56513  25.306   3.489   7.026
 4449POPC   C4A56514  25.044   3.837   7.016
 4449POPC   C1B56515  25.484   3.828   6.349
 4449POPC   C2B56516  25.537   3.951   6.813
 4449POPC   C3B56517  25.712   3.912   7.244
 4449POPC   C4B56518  25.740   3.780   7.668
 4450POPC   NC356519  32.996  20.401   5.416
 4450POPC   PO456520  33.312  20.973   5.464
 4450POPC   GL156521  33.272  20.609   5.795
 4450POPC   GL256522  33.550  20.642   5.943
 4450POPC   C1A56523  33.285  20.267   6.163
 4450POPC   D2A56524  33.379  20.305   6.651
 4450POPC   C3A56525  33.016  20.413   6.950
 4450POPC   C4A56526  32.958  20.485   7.412
 4450POPC   C1B56527  33.456  20.716   6.340
 4450POPC   C2B56528  33.230  20.979   6.575
 4450POPC   C3B56529  33.341  20.803   6.915
 4450POPC   C4B56530  33.378  20.825   7.298
 4451POPC   NC356531  14.391  15.827   5.224
 4451POPC   PO456532  14.841  16.299   5.468
 4451POPC   GL156533  14.610  15.985   5.643
 4451POPC   GL256534  14.293  16.124   5.666
 4451POPC   C1A56535  14.512  15.872   6.062
 4451POPC   D2A56536  14.375  16.034   6.446
 4451POPC   C3A56537  14.542  15.857   6.817
 4451POPC   C4A56538  14.339  15.891   7.203
 4451POPC   C1B56539  14.144  16.303   6.074
 4451POPC   C2B56540  14.055  16.416   6.539
 4451POPC   C3B56541  14.143  16.304   6.973
 4451POPC   C4B56542  14.029  16.267   7.434
 4452POPC   NC356543  29.556  24.721   5.430
 4452POPC   PO456544  30.109  24.240   5.413
 4452POPC   GL156545  29.902  24.491   5.706
 4452POPC   GL256546  30.075  24.797   5.696
 4452POPC   C1A56547  29.719  24.536   6.120
 4452POPC   D2A56548  29.674  24.339   6.525
 4452POPC   C3A56549  29.646  24.552   6.935
 4452POPC   C4A56550  29.578  24.588   7.404
 4452POPC   C1B56551  30.229  24.556   6.082
 4452POPC   C2B56552  30.352  24.417   6.509
 4452POPC   C3B56553  30.316  24.247   6.952
 4452POPC   C4B56554  30.054  24.460   7.215
 4453POPC   NC356555   3.616  13.005   5.477
 4453POPC   PO456556   3.139  12.595   5.349
 4453POPC   GL156557   3.363  12.639   5.756
 4453POPC   GL256558   3.730  12.579   5.783
 4453POPC   C1A56559   3.400  12.733   6.200
 4453POPC   D2A56560   3.524  12.612   6.621
 4453POPC   C3A56561   3.575  12.998   6.865
 4453POPC   C4A56562   3.825  13.121   7.207
 4453POPC   C1B56563   3.920  12.685   6.200
 4453POPC   C2B56564   4.035  12.826   6.639
 4453POPC   C3B56565   3.887  12.617   7.044
 4453POPC   C4B56566   3.467  12.592   7.213
 4454POPC   NC356567  14.999  25.678   5.633
 4454POPC   PO456568  15.194  26.245   5.278
 4454POPC   GL156569  15.157  26.159   5.767
 4454POPC   GL256570  15.439  26.204   6.062
 4454POPC   C1A56571  14.939  26.105   6.180
 4454POPC   D2A56572  14.871  26.133   6.636
 4454POPC   C3A56573  15.249  26.179   6.894
 4454POPC   C4A56574  15.166  26.024   7.292
 4454POPC   C1B56575  15.349  25.934   6.448
 4454POPC   C2B56576  15.400  25.688   6.861
 4454POPC   C3B56577  15.609  25.777   7.265
 4454POPC   C4B56578  15.410  25.831   7.693
 4455POPC   NC356579   4.074  40.549   5.527
 4455POPC   PO456580   4.764  40.643   5.543
 4455POPC   GL156581   4.679  40.914   5.904
 4455POPC   GL256582   4.356  41.079   5.925
 4455POPC   C1A56583   4.502  40.835   6.354
 4455POPC   D2A56584   4.479  40.936   6.794
 4455POPC   C3A56585   4.447  40.625   7.113
 4455POPC   C4A56586   4.455  40.493   7.548
 4455POPC   C1B56587   4.262  41.288   6.358
 4455POPC   C2B56588   3.998  41.072   6.662
 4455POPC   C3B56589   4.030  40.932   7.089
 4455POPC   C4B56590   4.273  40.951   7.473
 4456POPC   NC356591  34.122   6.734   5.342
 4456POPC   PO456592  33.572   6.945   5.288
 4456POPC   GL156593  33.781   6.802   5.729
 4456POPC   GL256594  33.999   6.480   5.772
 4456POPC   C1A56595  33.962   6.900   6.174
 4456POPC   D2A56596  34.216   6.807   6.579
 4456POPC   C3A56597  34.023   6.621   6.957
 4456POPC   C4A56598  33.592   6.640   7.144
 4456POPC   C1B56599  33.906   6.390   6.210
 4456POPC   C2B56600  33.679   6.433   6.583
 4456POPC   C3B56601  33.653   6.171   6.923
 4456POPC   C4B56602  33.733   6.173   7.367
 4457POPC   NC356603  10.322  29.542   5.628
 4457POPC   PO456604  10.663  29.933   5.135
 4457POPC   GL156605  10.699  29.926   5.616
 4457POPC   GL256606  10.886  29.641   5.824
 4457POPC   C1A56607  10.449  30.055   5.989
 4457POPC   D2A56608  10.288  29.907   6.369
 4457POPC   C3A56609  10.335  30.080   6.788
 4457POPC   C4A56610  10.446  30.055   7.215
 4457POPC   C1B56611  10.699  29.609   6.213
 4457POPC   C2B56612  10.639  29.667   6.633
 4457POPC   C3B56613  10.405  29.615   6.984
 4457POPC   C4B56614  10.756  29.652   7.280
 4458POPC   NC356615  11.585  13.185   5.518
 4458POPC   PO456616  11.183  13.790   5.334
 4458POPC   GL156617  11.271  13.738   5.809
 4458POPC   GL256618  11.459  13.430   5.939
 4458POPC   C1A56619  11.076  13.613   6.228
 4458POPC   D2A56620  11.162  13.440   6.650
 4458POPC   C3A56621  10.979  13.690   6.969
 4458POPC   C4A56622  10.960  14.126   7.164
 4458POPC   C1B56623  11.588  13.619   6.328
 4458POPC   C2B56624  11.406  13.939   6.624
 4458POPC   C3B56625  11.433  13.886   7.084
 4458POPC   C4B56626  11.420  13.440   7.131
 4459POPC   NC356627  38.939  27.191   5.500
 4459POPC   PO456628  39.401  27.620   5.443
 4459POPC   GL156629  39.163  27.802   5.768
 4459POPC   GL256630  39.011  27.523   5.897
 4459POPC   C1A56631  39.174  27.901   6.217
 4459POPC   D2A56632  39.297  27.620   6.586
 4459POPC   C3A56633  39.147  27.787   6.981
 4459POPC   C4A56634  39.332  27.653   7.377
 4459POPC   C1B56635  39.062  27.292   6.262
 4459POPC   C2B56636  38.776  27.271   6.625
 4459POPC   C3B56637  38.955  27.320   6.998
 4459POPC   C4B56638  38.960  27.213   7.388
 4460POPC   NC356639  44.877  16.280   5.397
 4460POPC   PO456640  44.454  16.875   5.472
 4460POPC   GL156641  44.700  16.824   5.811
 4460POPC   GL256642  44.622  16.487   5.827
 4460POPC   C1A56643  44.704  16.809   6.255
 4460POPC   D2A56644  44.525  16.915   6.623
 4460POPC   C3A56645  44.722  16.805   7.000
 4460POPC   C4A56646  44.551  17.029   7.332
 4460POPC   C1B56647  44.449  16.242   6.173
 4460POPC   C2B56648  44.506  16.400   6.583
 4460POPC   C3B56649  44.402  16.400   7.010
 4460POPC   C4B56650  44.522  16.515   7.422
 4461POPC   NC356651   8.862  24.974   5.544
 4461POPC   PO456652   8.987  24.391   5.171
 4461POPC   GL156653   8.994  24.451   5.666
 4461POPC   GL256654   8.614  24.559   5.720
 4461POPC   C1A56655   9.230  24.459   6.127
 4461POPC   D2A56656   9.397  24.642   6.563
 4461POPC   C3A56657   9.217  24.479   6.959
 4461POPC   C4A56658   9.101  24.552   7.394
 4461POPC   C1B56659   8.725  24.552   6.152
 4461POPC   C2B56660   8.871  24.560   6.596
 4461POPC   C3B56661   8.726  24.492   7.033
 4461POPC   C4B56662   8.620  24.389   7.434
 4462POPC   NC356663  30.500  31.833   5.388
 4462POPC   PO456664  30.864  31.280   5.570
 4462POPC   GL156665  30.568  31.495   5.812
 4462POPC   GL256666  30.780  31.786   5.822
 4462POPC   C1A56667  30.379  31.375   6.248
 4462POPC   D2A56668  30.224  31.441   6.704
 4462POPC   C3A56669  30.392  31.235   7.108
 4462POPC   C4A56670  30.403  31.265   7.603
 4462POPC   C1B56671  30.885  31.576   6.200
 4462POPC   C2B56672  30.750  31.494   6.609
 4462POPC   C3B56673  30.882  31.640   6.975
 4462POPC   C4B56674  30.740  31.546   7.334
 4463POPC   NC356675   4.046  19.219   5.473
 4463POPC   PO456676   4.681  18.882   5.397
 4463POPC   GL156677   4.457  19.033   5.754
 4463POPC   GL256678   4.102  18.899   5.871
 4463POPC   C1A56679   4.527  19.061   6.182
 4463POPC   D2A56680   4.263  18.941   6.518
 4463POPC   C3A56681   4.423  19.078   6.891
 4463POPC   C4A56682   4.363  18.917   7.277
 4463POPC   C1B56683   4.083  19.294   6.134
 4463POPC   C2B56684   4.181  19.464   6.529
 4463POPC   C3B56685   4.059  19.429   6.931
 4463POPC   C4B56686   3.814  19.181   7.189
 4464POPC   NC356687  38.977  38.181   5.523
 4464POPC   PO456688  39.553  38.541   5.299
 4464POPC   GL156689  39.440  38.334   5.717
 4464POPC   GL256690  39.225  38.618   5.719
 4464POPC   C1A56691  39.164  38.218   6.154
 4464POPC   D2A56692  38.863  38.282   6.570
 4464POPC   C3A56693  39.046  38.237   6.969
 4464POPC   C4A56694  39.467  38.229   7.098
 4464POPC   C1B56695  39.397  38.669   6.136
 4464POPC   C2B56696  39.303  38.551   6.558
 4464POPC   C3B56697  39.241  38.731   6.944
 4464POPC   C4B56698  39.474  38.727   7.302
 4465POPC   NC356699  25.511  14.851   5.227
 4465POPC   PO456700  25.205  15.423   5.470
 4465POPC   GL156701  25.464  15.242   5.757
 4465POPC   GL256702  25.374  14.897   5.762
 4465POPC   C1A56703  25.377  15.328   6.188
 4465POPC   D2A56704  25.294  15.149   6.587
 4465POPC   C3A56705  25.252  15.372   6.979
 4465POPC   C4A56706  25.403  15.239   7.403
 4465POPC   C1B56707  25.143  14.869   6.174
 4465POPC   C2B56708  25.048  14.670   6.576
 4465POPC   C3B56709  25.083  14.865   7.003
 4465POPC   C4B56710  24.840  15.210   7.246
 4466POPC   NC356711  39.586  27.158   5.361
 4466POPC   PO456712  39.262  26.627   5.572
 4466POPC   GL156713  39.161  26.911   5.878
 4466POPC   GL256714  39.395  27.183   5.833
 4466POPC   C1A56715  39.173  26.786   6.306
 4466POPC   D2A56716  39.163  26.963   6.689
 4466POPC   C3A56717  39.038  26.788   7.059
 4466POPC   C4A56718  38.984  26.547   7.396
 4466POPC   C1B56719  39.613  27.248   6.227
 4466POPC   C2B56720  39.604  27.171   6.662
 4466POPC   C3B56721  39.445  27.113   7.092
 4466POPC   C4B56722  39.351  26.911   7.496
 4467POPC   NC356723   6.994  17.616   5.109
 4467POPC   PO456724   6.381  17.636   5.388
 4467POPC   GL156725   6.648  17.511   5.753
 4467POPC   GL256726   6.776  17.171   5.875
 4467POPC   C1A56727   6.561  17.531   6.188
 4467POPC   D2A56728   6.684  17.409   6.588
 4467POPC   C3A56729   6.399  17.464   6.920
 4467POPC   C4A56730   6.452  17.528   7.325
 4467POPC   C1B56731   6.416  17.051   6.104
 4467POPC   C2B56732   6.245  17.148   6.501
 4467POPC   C3B56733   6.430  16.968   6.847
 4467POPC   C4B56734   6.355  17.007   7.249
 4468POPC   NC356735  29.246   5.246   5.235
 4468POPC   PO456736  28.659   5.006   5.350
 4468POPC   GL156737  28.951   5.127   5.726
 4468POPC   GL256738  29.317   5.014   5.703
 4468POPC   C1A56739  28.963   5.090   6.208
 4468POPC   D2A56740  29.248   5.275   6.548
 4468POPC   C3A56741  29.062   5.169   6.913
 4468POPC   C4A56742  29.033   4.939   7.277
 4468POPC   C1B56743  29.451   5.011   6.140
 4468POPC   C2B56744  29.403   4.778   6.566
 4468POPC   C3B56745  29.515   4.917   6.995
 4468POPC   C4B56746  29.574   5.370   7.030
 4469POPC   NC356747   1.476  37.828   5.507
 4469POPC   PO456748   0.908  37.972   5.537
 4469POPC   GL156749   0.890  37.702   5.913
 4469POPC   GL256750   1.224  37.573   5.933
 4469POPC   C1A56751   0.823  37.511   6.348
 4469POPC   D2A56752   1.012  37.378   6.746
 4469POPC   C3A56753   0.909  37.572   7.141
 4469POPC   C4A56754   1.006  37.447   7.566
 4469POPC   C1B56755   1.230  37.824   6.331
 4469POPC   C2B56756   1.253  37.822   6.800
 4469POPC   C3B56757   1.433  37.648   7.185
 4469POPC   C4B56758   1.590  37.907   7.568
 4470POPC   NC356759  38.525  35.064   5.529
 4470POPC   PO456760  38.321  35.696   5.374
 4470POPC   GL156761  38.277  35.451   5.760
 4470POPC   GL256762  38.629  35.452   5.888
 4470POPC   C1A56763  38.276  35.190   6.156
 4470POPC   D2A56764  38.169  35.091   6.572
 4470POPC   C3A56765  38.422  35.334   6.816
 4470POPC   C4A56766  38.522  35.415   7.185
 4470POPC   C1B56767  38.669  35.505   6.360
 4470POPC   C2B56768  38.659  35.783   6.734
 4470POPC   C3B56769  38.840  35.798   7.144
 4470POPC   C4B56770  38.773  35.522   7.608
 4471POPC   NC356771   4.756   7.117   5.367
 4471POPC   PO456772   5.277   7.402   5.499
 4471POPC   GL156773   4.964   7.357   5.817
 4471POPC   GL256774   4.713   7.053   5.847
 4471POPC   C1A56775   5.127   7.385   6.237
 4471POPC   D2A56776   5.124   7.613   6.612
 4471POPC   C3A56777   4.979   7.459   6.986
 4471POPC   C4A56778   5.205   7.531   7.353
 4471POPC   C1B56779   4.636   7.247   6.219
 4471POPC   C2B56780   4.817   7.133   6.608
 4471POPC   C3B56781   5.027   6.943   6.963
 4471POPC   C4B56782   4.948   7.069   7.418
 4472POPC   NC356783   6.315  18.990   5.268
 4472POPC   PO456784   5.809  18.572   5.142
 4472POPC   GL156785   5.923  18.796   5.573
 4472POPC   GL256786   6.164  18.640   5.762
 4472POPC   C1A56787   5.919  18.997   6.048
 4472POPC   D2A56788   5.662  19.188   6.407
 4472POPC   C3A56789   5.720  19.276   6.849
 4472POPC   C4A56790   5.613  19.037   7.203
 4472POPC   C1B56791   6.363  18.760   6.147
 4472POPC   C2B56792   6.159  18.960   6.509
 4472POPC   C3B56793   5.998  18.844   6.888
 4472POPC   C4B56794   6.262  18.861   7.243
 4473POPC   NC356795  34.177   7.842   5.568
 4473POPC   PO456796  34.542   8.439   5.393
 4473POPC   GL156797  34.587   8.327   5.804
 4473POPC   GL256798  34.259   8.221   5.887
 4473POPC   C1A56799  34.528   8.460   6.249
 4473POPC   D2A56800  34.847   8.522   6.564
 4473POPC   C3A56801  34.697   8.377   6.941
 4473POPC   C4A56802  34.456   8.556   7.241
 4473POPC   C1B56803  34.219   8.009   6.298
 4473POPC   C2B56804  34.286   8.190   6.718
 4473POPC   C3B56805  34.228   8.120   7.182
 4473POPC   C4B56806  34.267   8.259   7.625
 4474POPC   NC356807  18.462  37.196   5.369
 4474POPC   PO456808  18.395  36.514   5.419
 4474POPC   GL156809  18.500  36.785   5.781
 4474POPC   GL256810  18.611  37.120   5.825
 4474POPC   C1A56811  18.470  36.823   6.245
 4474POPC   D2A56812  18.339  36.554   6.602
 4474POPC   C3A56813  18.470  36.683   7.008
 4474POPC   C4A56814  18.788  36.534   7.268
 4474POPC   C1B56815  18.364  37.362   6.055
 4474POPC   C2B56816  18.372  37.454   6.477
 4474POPC   C3B56817  18.415  37.221   6.869
 4474POPC   C4B56818  18.186  37.182   7.264
 4475POPC   NC356819  12.414  17.706   5.479
 4475POPC   PO456820  11.785  17.570   5.451
 4475POPC   GL156821  11.848  17.443   5.890
 4475POPC   GL256822  12.198  17.525   5.929
 4475POPC   C1A56823  11.927  17.267   6.305
 4475POPC   D2A56824  12.269  17.364   6.630
 4475POPC   C3A56825  12.146  17.278   7.067
 4475POPC   C4A56826  11.733  17.163   7.272
 4475POPC   C1B56827  12.058  17.770   6.274
 4475POPC   C2B56828  12.267  17.944   6.621
 4475POPC   C3B56829  12.377  17.770   6.993
 4475POPC   C4B56830  12.096  17.768   7.256
 4476POPC   NC356831  27.673  40.216   5.215
 4476POPC   PO456832  27.233  39.873   5.615
 4476POPC   GL156833  27.432  40.199   5.847
 4476POPC   GL256834  27.787  40.125   5.790
 4476POPC   C1A56835  27.552  40.123   6.265
 4476POPC   D2A56836  27.540  39.826   6.588
 4476POPC   C3A56837  27.493  40.051   6.969
 4476POPC   C4A56838  27.420  40.270   7.347
 4476POPC   C1B56839  28.033  40.242   6.161
 4476POPC   C2B56840  27.949  40.197   6.618
 4476POPC   C3B56841  27.918  40.337   7.043
 4476POPC   C4B56842  27.933  40.427   7.469
 4477POPC   NC356843  34.408  34.676   5.308
 4477POPC   PO456844  34.863  34.322   5.665
 4477POPC   GL156845  34.583  34.570   5.903
 4477POPC   GL256846  34.518  34.892   5.760
 4477POPC   C1A56847  34.624  34.558   6.354
 4477POPC   D2A56848  34.923  34.415   6.639
 4477POPC   C3A56849  34.738  34.462   7.034
 4477POPC   C4A56850  34.430  34.304   7.333
 4477POPC   C1B56851  34.721  35.028   6.154
 4477POPC   C2B56852  34.553  35.036   6.575
 4477POPC   C3B56853  34.318  35.064   6.954
 4477POPC   C4B56854  34.528  34.868   7.285
 4478POPC   NC356855   2.200  11.679   5.566
 4478POPC   PO456856   2.118  11.171   5.198
 4478POPC   GL156857   2.064  11.190   5.708
 4478POPC   GL256858   1.724  11.255   5.747
 4478POPC   C1A56859   2.127  11.308   6.193
 4478POPC   D2A56860   2.305  11.374   6.655
 4478POPC   C3A56861   2.096  11.359   7.076
 4478POPC   C4A56862   2.256  11.522   7.489
 4478POPC   C1B56863   1.669  11.546   6.103
 4478POPC   C2B56864   1.508  11.588   6.513
 4478POPC   C3B56865   1.638  11.550   6.933
 4478POPC   C4B56866   1.582  11.222   7.226
 4479POPC   NC356867  28.995  44.891   5.356
 4479POPC   PO456868  29.001  44.301   5.352
 4479POPC   GL156869  29.100  44.530   5.753
 4479POPC   GL256870  29.180  44.310   6.028
 4479POPC   C1A56871  29.277  44.811   6.111
 4479POPC   D2A56872  29.119  44.956   6.564
 4479POPC   C3A56873  29.309  44.825   6.972
 4479POPC   C4A56874  29.169  44.640   7.378
 4479POPC   C1B56875  28.915  44.528   6.319
 4479POPC   C2B56876  28.927  44.525   6.742
 4479POPC   C3B56877  28.784  44.761   7.014
 4479POPC   C4B56878  28.681  44.532   7.346
 4480POPC   NC356879   4.102  23.266   5.230
 4480POPC   PO456880   4.341  22.651   5.440
 4480POPC   GL156881   4.155  22.803   5.797
 4480POPC   GL256882   4.229  23.154   5.733
 4480POPC   C1A56883   4.176  22.827   6.253
 4480POPC   D2A56884   4.398  23.102   6.506
 4480POPC   C3A56885   4.415  22.984   6.917
 4480POPC   C4A56886   4.598  23.096   7.267
 4480POPC   C1B56887   3.986  23.269   6.081
 4480POPC   C2B56888   3.792  23.163   6.437
 4480POPC   C3B56889   3.955  23.154   6.807
 4480POPC   C4B56890   4.091  23.333   7.164
 4481POPC   NC356891  15.873  40.611   5.505
 4481POPC   PO456892  16.426  40.888   5.415
 4481POPC   GL156893  16.333  40.766   5.860
 4481POPC   GL256894  15.991  40.882   5.937
 4481POPC   C1A56895  16.246  40.713   6.345
 4481POPC   D2A56896  16.017  40.797   6.753
 4481POPC   C3A56897  16.192  40.582   7.140
 4481POPC   C4A56898  16.187  40.460   7.588
 4481POPC   C1B56899  15.729  40.899   6.311
 4481POPC   C2B56900  15.530  40.577   6.570
 4481POPC   C3B56901  15.603  40.587   6.987
 4481POPC   C4B56902  15.730  40.544   7.394
 4482POPC   NC356903   8.493   3.228   5.538
 4482POPC   PO456904   7.922   3.445   5.433
 4482POPC   GL156905   8.125   3.605   5.803
 4482POPC   GL256906   8.415   3.536   5.908
 4482POPC   C1A56907   8.090   3.643   6.269
 4482POPC   D2A56908   7.966   3.516   6.674
 4482POPC   C3A56909   8.200   3.753   6.984
 4482POPC   C4A56910   8.243   3.592   7.385
 4482POPC   C1B56911   8.486   3.324   6.229
 4482POPC   C2B56912   8.485   3.505   6.620
 4482POPC   C3B56913   8.406   3.301   6.991
 4482POPC   C4B56914   8.656   3.148   7.276
 4483POPC   NC356915  40.772  16.338   5.416
 4483POPC   PO456916  40.934  17.029   5.333
 4483POPC   GL156917  40.791  16.834   5.757
 4483POPC   GL256918  40.471  17.060   5.805
 4483POPC   C1A56919  40.938  16.649   6.216
 4483POPC   D2A56920  41.129  16.592   6.641
 4483POPC   C3A56921  40.887  16.611   7.005
 4483POPC   C4A56922  40.989  16.620   7.449
 4483POPC   C1B56923  40.442  16.747   6.153
 4483POPC   C2B56924  40.581  16.745   6.576
 4483POPC   C3B56925  40.636  17.035   6.899
 4483POPC   C4B56926  40.561  16.896   7.287
 4484POPC   NC356927   6.580  21.785   5.429
 4484POPC   PO456928   6.544  21.136   5.475
 4484POPC   GL156929   6.548  21.369   5.883
 4484POPC   GL256930   6.783  21.612   5.908
 4484POPC   C1A56931   6.348  21.655   6.226
 4484POPC   D2A56932   6.170  21.541   6.654
 4484POPC   C3A56933   6.396  21.186   6.845
 4484POPC   C4A56934   6.748  21.126   7.104
 4484POPC   C1B56935   6.943  21.277   6.200
 4484POPC   C2B56936   6.944  21.294   6.645
 4484POPC   C3B56937   6.748  21.604   6.903
 4484POPC   C4B56938   6.917  21.957   7.106
 4485POPC   NC356939  17.094  39.132   5.310
 4485POPC   PO456940  16.541  39.408   5.370
 4485POPC   GL156941  16.758  39.343   5.756
 4485POPC   GL256942  16.909  39.016   5.787
 4485POPC   C1A56943  16.569  39.225   6.160
 4485POPC   D2A56944  16.331  39.243   6.530
 4485POPC   C3A56945  16.489  39.183   6.919
 4485POPC   C4A56946  16.598  39.126   7.323
 4485POPC   C1B56947  17.060  39.176   6.210
 4485POPC   C2B56948  17.257  39.137   6.617
 4485POPC   C3B56949  17.041  39.155   7.015
 4485POPC   C4B56950  17.106  39.078   7.461
 4486POPC   NC356951  26.382  43.085   5.333
 4486POPC   PO456952  25.683  42.996   5.418
 4486POPC   GL156953  25.993  43.028   5.769
 4486POPC   GL256954  26.230  43.333   5.778
 4486POPC   C1A56955  26.069  42.994   6.241
 4486POPC   D2A56956  26.086  43.261   6.629
 4486POPC   C3A56957  25.994  43.061   7.030
 4486POPC   C4A56958  26.269  42.762   7.235
 4486POPC   C1B56959  26.450  43.311   6.179
 4486POPC   C2B56960  26.540  43.029   6.534
 4486POPC   C3B56961  26.499  43.172   6.956
 4486POPC   C4B56962  26.283  43.557   7.082
 4487POPC   NC356963  23.348   3.792   5.414
 4487POPC   PO456964  23.885   3.267   5.359
 4487POPC   GL156965  23.610   3.408   5.655
 4487POPC   GL256966  23.737   3.726   5.767
 4487POPC   C1A56967  23.574   3.351   6.101
 4487POPC   D2A56968  23.935   3.413   6.426
 4487POPC   C3A56969  23.832   3.421   6.883
 4487POPC   C4A56970  23.749   3.467   7.347
 4487POPC   C1B56971  23.645   3.851   6.200
 4487POPC   C2B56972  23.466   3.610   6.540
 4487POPC   C3B56973  23.388   3.641   6.970
 4487POPC   C4B56974  23.532   3.948   7.232
 4488POPC   NC356975  36.422  43.086   5.436
 4488POPC   PO456976  36.878  42.589   5.373
 4488POPC   GL156977  37.066  42.907   5.664
 4488POPC   GL256978  36.862  43.201   5.703
 4488POPC   C1A56979  37.306  42.949   6.063
 4488POPC   D2A56980  37.445  42.808   6.482
 4488POPC   C3A56981  37.218  42.743   6.883
 4488POPC   C4A56982  37.249  42.867   7.286
 4488POPC   C1B56983  36.948  43.290   6.147
 4488POPC   C2B56984  36.944  43.028   6.520
 4488POPC   C3B56985  36.801  43.079   6.949
 4488POPC   C4B56986  36.906  43.342   7.314
 4489POPC   NC356987  35.002  27.398   5.353
 4489POPC   PO456988  35.317  27.936   5.068
 4489POPC   GL156989  35.344  27.740   5.561
 4489POPC   GL256990  35.109  27.494   5.825
 4489POPC   C1A56991  35.455  27.781   6.026
 4489POPC   D2A56992  35.590  27.808   6.438
 4489POPC   C3A56993  35.403  27.627   6.786
 4489POPC   C4A56994  35.467  27.515   7.208
 4489POPC   C1B56995  34.913  27.483   6.226
 4489POPC   C2B56996  35.002  27.331   6.640
 4489POPC   C3B56997  34.963  27.520   7.039
 4489POPC   C4B56998  34.882  27.311   7.393
 4490POPC   NC356999  43.547  39.476   5.572
 4490POPC   PO457000  42.835  39.301   5.549
 4490POPC   GL157001  42.951  39.073   5.929
 4490POPC   GL257002  43.313  39.138   5.910
 4490POPC   C1A57003  43.008  39.252   6.324
 4490POPC   D2A57004  43.163  39.547   6.616
 4490POPC   C3A57005  43.048  39.275   6.936
 4490POPC   C4A57006  42.878  38.942   7.162
 4490POPC   C1B57007  43.533  39.299   6.268
 4490POPC   C2B57008  43.488  39.125   6.684
 4490POPC   C3B57009  43.512  39.259   7.110
 4490POPC   C4B57010  43.282  39.129   7.464
 4491POPC   NC357011   6.195   2.891   5.396
 4491POPC   PO457012   5.662   3.276   5.202
 4491POPC   GL157013   5.644   3.099   5.693
 4491POPC   GL257014   5.864   2.804   5.779
 4491POPC   C1A57015   5.758   3.123   6.158
 4491POPC   D2A57016   5.910   2.873   6.523
 4491POPC   C3A57017   5.650   2.986   6.882
 4491POPC   C4A57018   5.623   2.840   7.279
 4491POPC   C1B57019   6.027   2.532   6.153
 4491POPC   C2B57020   5.917   2.345   6.584
 4491POPC   C3B57021   5.945   2.548   6.987
 4491POPC   C4B57022   6.133   2.520   7.427
 4492POPC   NC357023   0.765  28.258   5.128
 4492POPC   PO457024   1.458  28.120   5.378
 4492POPC   GL157025   1.464  28.267   5.826
 4492POPC   GL257026   1.444  28.626   5.798
 4492POPC   C1A57027   1.319  28.074   6.260
 4492POPC   D2A57028   1.199  27.784   6.615
 4492POPC   C3A57029   1.098  28.001   7.011
 4492POPC   C4A57030   1.200  28.408   7.168
 4492POPC   C1B57031   1.267  28.587   6.190
 4492POPC   C2B57032   1.202  28.484   6.627
 4492POPC   C3B57033   1.458  28.785   6.880
 4492POPC   C4B57034   1.552  28.734   7.306
 4493POPC   NC357035  10.097  10.401   5.381
 4493POPC   PO457036   9.487  10.700   5.305
 4493POPC   GL157037   9.716  10.595   5.743
 4493POPC   GL257038   9.913  10.273   5.831
 4493POPC   C1A57039   9.856  10.649   6.211
 4493POPC   D2A57040   9.916  10.617   6.690
 4493POPC   C3A57041   9.584  10.535   6.989
 4493POPC   C4A57042   9.455  10.741   7.382
 4493POPC   C1B57043  10.026  10.127   6.239
 4493POPC   C2B57044  10.181  10.185   6.642
 4493POPC   C3B57045  10.094  10.235   7.097
 4493POPC   C4B57046   9.785  10.361   7.442
 4494POPC   NC357047  40.244  43.967   5.312
 4494POPC   PO457048  39.701  43.617   5.390
 4494POPC   GL157049  39.934  43.897   5.752
 4494POPC   GL257050  40.260  44.125   5.788
 4494POPC   C1A57051  40.109  43.802   6.189
 4494POPC   D2A57052  40.087  43.567   6.589
 4494POPC   C3A57053  39.946  43.747   6.995
 4494POPC   C4A57054  39.670  44.018   7.252
 4494POPC   C1B57055  40.108  44.314   6.168
 4494POPC   C2B57056  39.959  44.151   6.543
 4494POPC   C3B57057  40.076  44.247   6.935
 4494POPC   C4B57058  40.167  44.136   7.356
 4495POPC   NC357059  33.611  35.485   5.400
 4495POPC   PO457060  34.107  35.055   5.423
 4495POPC   GL157061  33.997  35.174   5.829
 4495POPC   GL257062  34.190  35.021   6.124
 4495POPC   C1A57063  33.822  35.385   6.202
 4495POPC   D2A57064  33.982  35.240   6.595
 4495POPC   C3A57065  33.747  35.394   6.947
 4495POPC   C4A57066  33.882  35.481   7.379
 4495POPC   C1B57067  33.764  34.876   6.196
 4495POPC   C2B57068  33.521  34.976   6.541
 4495POPC   C3B57069  33.715  34.881   6.914
 4495POPC   C4B57070  33.597  35.047   7.292
 4496POPC   NC357071   4.477  16.829   5.330
 4496POPC   PO457072   3.952  16.572   5.528
 4496POPC   GL157073   4.236  16.740   5.826
 4496POPC   GL257074   4.614  16.672   5.796
 4496POPC   C1A57075   4.175  16.604   6.238
 4496POPC   D2A57076   4.143  16.831   6.583
 4496POPC   C3A57077   4.154  16.590   6.947
 4496POPC   C4A57078   4.224  16.794   7.295
 4496POPC   C1B57079   4.657  16.808   6.232
 4496POPC   C2B57080   4.610  16.613   6.645
 4496POPC   C3B57081   4.689  16.665   7.080
 4496POPC   C4B57082   4.667  17.071   7.276
 4497POPC   NC357083  15.480  27.896   5.463
 4497POPC   PO457084  15.273  27.235   5.400
 4497POPC   GL157085  15.376  27.442   5.824
 4497POPC   GL257086  15.208  27.723   5.878
 4497POPC   C1A57087  15.320  27.478   6.325
 4497POPC   D2A57088  14.949  27.559   6.645
 4497POPC   C3A57089  15.095  27.578   7.065
 4497POPC   C4A57090  15.457  27.387   7.214
 4497POPC   C1B57091  15.024  27.885   6.246
 4497POPC   C2B57092  15.126  28.090   6.642
 4497POPC   C3B57093  14.884  28.047   6.994
 4497POPC   C4B57094  15.010  27.957   7.409
 4498POPC   NC357095   7.216  29.570   5.338
 4498POPC   PO457096   7.716  29.133   5.457
 4498POPC   GL157097   7.645  29.344   5.815
 4498POPC   GL257098   7.270  29.401   5.801
 4498POPC   C1A57099   7.623  29.200   6.233
 4498POPC   D2A57100   7.413  28.920   6.528
 4498POPC   C3A57101   7.423  29.086   6.932
 4498POPC   C4A57102   7.423  28.960   7.354
 4498POPC   C1B57103   7.112  29.205   6.144
 4498POPC   C2B57104   7.226  29.400   6.509
 4498POPC   C3B57105   7.023  29.409   6.842
 4498POPC   C4B57106   7.077  29.343   7.240
 4499POPC   NC357107  27.728   3.484   5.414
 4499POPC   PO457108  27.212   3.170   5.751
 4499POPC   GL157109  27.467   3.543   5.896
 4499POPC   GL257110  27.820   3.664   5.880
 4499POPC   C1A57111  27.561   3.627   6.327
 4499POPC   D2A57112  27.528   3.361   6.686
 4499POPC   C3A57113  27.496   3.663   7.005
 4499POPC   C4A57114  27.485   3.504   7.395
 4499POPC   C1B57115  28.059   3.566   6.255
 4499POPC   C2B57116  27.966   3.626   6.702
 4499POPC   C3B57117  27.917   3.385   7.075
 4499POPC   C4B57118  27.956   3.745   7.271
 4500POPC   NC357119  11.881  11.986   5.257
 4500POPC   PO457120  12.536  12.135   5.401
 4500POPC   GL157121  12.322  12.183   5.795
 4500POPC   GL257122  11.974  12.339   5.727
 4500POPC   C1A57123  12.404  12.141   6.238
 4500POPC   D2A57124  12.239  12.101   6.653
 4500POPC   C3A57125  12.418  12.056   7.056
 4500POPC   C4A57126  12.169  11.890   7.414
 4500POPC   C1B57127  11.742  12.298   6.152
 4500POPC   C2B57128  11.753  12.183   6.613
 4500POPC   C3B57129  11.886  12.220   7.063
 4500POPC   C4B57130  11.597  12.474   7.326
 4501POPC   NC357131  30.026  12.618   5.129
 4501POPC   PO457132  30.326  13.084   5.577
 4501POPC   GL157133  30.019  12.821   5.756
 4501POPC   GL257134  30.211  12.636   6.003
 4501POPC   C1A57135  29.740  12.770   6.133
 4501POPC   D2A57136  29.703  12.521   6.527
 4501POPC   C3A57137  29.587  12.740   6.930
 4501POPC   C4A57138  29.801  12.747   7.309
 4501POPC   C1B57139  30.167  12.972   6.303
 4501POPC   C2B57140  30.048  12.909   6.729
 4501POPC   C3B57141  30.261  12.935   7.115
 4501POPC   C4B57142  30.224  12.941   7.546
 4502POPC   NC357143  24.315  26.066   5.275
 4502POPC   PO457144  24.834  25.822   5.145
 4502POPC   GL157145  24.642  26.055   5.645
 4502POPC   GL257146  24.289  26.285   5.738
 4502POPC   C1A57147  24.423  25.917   6.045
 4502POPC   D2A57148  24.151  26.002   6.383
 4502POPC   C3A57149  24.264  25.998   6.817
 4502POPC   C4A57150  24.239  25.770   7.245
 4502POPC   C1B57151  24.410  26.430   6.156
 4502POPC   C2B57152  24.509  26.638   6.543
 4502POPC   C3B57153  24.564  26.437   6.933
 4502POPC   C4B57154  24.322  26.265   7.243
 4503POPC   NC357155   2.747  12.516   5.558
 4503POPC   PO457156   2.811  11.874   5.357
 4503POPC   GL157157   2.783  12.041   5.752
 4503POPC   GL257158   3.078  12.220   5.824
 4503POPC   C1A57159   2.788  11.886   6.154
 4503POPC   D2A57160   2.639  11.838   6.579
 4503POPC   C3A57161   2.673  12.116   6.951
 4503POPC   C4A57162   2.662  11.819   7.310
 4503POPC   C1B57163   2.968  12.447   6.154
 4503POPC   C2B57164   2.822  12.459   6.529
 4503POPC   C3B57165   3.079  12.445   6.872
 4503POPC   C4B57166   2.946  12.483   7.266
 4504POPC   NC357167  33.181   8.417   5.165
 4504POPC   PO457168  33.124   9.054   5.439
 4504POPC   GL157169  32.933   8.930   5.853
 4504POPC   GL257170  32.596   9.026   5.856
 4504POPC   C1A57171  33.143   9.098   6.241
 4504POPC   D2A57172  33.080   9.311   6.613
 4504POPC   C3A57173  33.140   9.119   7.024
 4504POPC   C4A57174  33.323   9.147   7.444
 4504POPC   C1B57175  32.638   9.010   6.280
 4504POPC   C2B57176  32.573   9.239   6.645
 4504POPC   C3B57177  32.607   9.155   7.061
 4504POPC   C4B57178  32.818   9.062   7.452
 4505POPC   NC357179  24.132   4.422   5.462
 4505POPC   PO457180  24.687   4.083   5.235
 4505POPC   GL157181  24.529   4.236   5.726
 4505POPC   GL257182  24.475   4.566   5.844
 4505POPC   C1A57183  24.485   4.166   6.231
 4505POPC   D2A57184  24.724   4.140   6.663
 4505POPC   C3A57185  24.526   3.881   6.997
 4505POPC   C4A57186  24.097   3.799   7.122
 4505POPC   C1B57187  24.327   4.636   6.274
 4505POPC   C2B57188  24.287   4.412   6.683
 4505POPC   C3B57189  24.420   4.381   7.090
 4505POPC   C4B57190  24.514   4.550   7.480
 4506POPC   NC357191  31.378  38.862   5.534
 4506POPC   PO457192  31.750  39.368   5.312
 4506POPC   GL157193  31.634  39.231   5.784
 4506POPC   GL257194  31.301  39.333   5.849
 4506POPC   C1A57195  31.613  39.322   6.251
 4506POPC   D2A57196  31.358  39.576   6.577
 4506POPC   C3A57197  31.568  39.576   6.992
 4506POPC   C4A57198  31.541  39.149   7.165
 4506POPC   C1B57199  31.226  38.990   6.165
 4506POPC   C2B57200  31.055  38.758   6.519
 4506POPC   C3B57201  31.079  38.856   6.940
 4506POPC   C4B57202  31.088  38.955   7.344
 4507POPC   NC357203  33.713  31.012   5.331
 4507POPC   PO457204  34.068  30.473   5.253
 4507POPC   GL157205  33.825  30.608   5.632
 4507POPC   GL257206  33.702  30.334   5.814
 4507POPC   C1A57207  33.633  30.808   6.024
 4507POPC   D2A57208  33.488  30.827   6.473
 4507POPC   C3A57209  33.658  30.871   6.921
 4507POPC   C4A57210  33.515  30.866   7.375
 4507POPC   C1B57211  33.694  30.368   6.273
 4507POPC   C2B57212  33.675  30.391   6.719
 4507POPC   C3B57213  33.652  30.400   7.160
 4507POPC   C4B57214  33.940  30.590   7.434
 4508POPC   NC357215  16.442  32.005   5.509
 4508POPC   PO457216  16.809  32.624   5.339
 4508POPC   GL157217  17.001  32.366   5.712
 4508POPC   GL257218  16.676  32.275   5.878
 4508POPC   C1A57219  17.044  32.093   6.127
 4508POPC   D2A57220  16.768  32.228   6.470
 4508POPC   C3A57221  16.874  31.997   6.828
 4508POPC   C4A57222  16.937  32.061   7.243
 4508POPC   C1B57223  16.439  31.985   6.172
 4508POPC   C2B57224  16.330  31.953   6.627
 4508POPC   C3B57225  16.430  32.126   7.049
 4508POPC   C4B57226  16.523  32.200   7.501
 4509POPC   NC357227  31.234   7.892   5.559
 4509POPC   PO457228  31.727   8.283   5.203
 4509POPC   GL157229  31.538   8.327   5.697
 4509POPC   GL257230  31.563   8.067   5.923
 4509POPC   C1A57231  31.341   8.429   6.148
 4509POPC   D2A57232  31.453   8.312   6.572
 4509POPC   C3A57233  31.246   8.214   6.983
 4509POPC   C4A57234  31.315   8.368   7.467
 4509POPC   C1B57235  31.428   7.869   6.271
 4509POPC   C2B57236  31.583   7.697   6.636
 4509POPC   C3B57237  31.433   7.625   7.023
 4509POPC   C4B57238  31.512   7.916   7.315
 4510POPC   NC357239  12.460  33.309   5.353
 4510POPC   PO457240  11.877  32.878   5.430
 4510POPC   GL157241  12.142  33.118   5.703
 4510POPC   GL257242  12.350  32.867   5.791
 4510POPC   C1A57243  12.293  33.256   6.117
 4510POPC   D2A57244  11.945  33.257   6.440
 4510POPC   C3A57245  12.090  33.224   6.848
 4510POPC   C4A57246  11.993  33.389   7.262
 4510POPC   C1B57247  12.016  32.829   6.139
 4510POPC   C2B57248  11.831  32.580   6.475
 4510POPC   C3B57249  11.750  32.815   6.847
 4510POPC   C4B57250  12.036  32.867   7.187
 4511POPC   NC357251  30.467  18.265   5.236
 4511POPC   PO457252  31.103  18.293   5.479
 4511POPC   GL157253  30.729  18.218   5.778
 4511POPC   GL257254  30.483  17.961   5.670
 4511POPC   C1A57255  30.535  18.302   6.246
 4511POPC   D2A57256  30.640  18.445   6.712
 4511POPC   C3A57257  30.597  18.333   7.172
 4511POPC   C4A57258  30.585  18.558   7.547
 4511POPC   C1B57259  30.642  17.835   6.098
 4511POPC   C2B57260  30.742  17.959   6.574
 4511POPC   C3B57261  30.734  17.873   7.018
 4511POPC   C4B57262  30.895  17.862   7.448
 4512POPC   NC357263   3.097  17.708   5.401
 4512POPC   PO457264   3.757  17.458   5.317
 4512POPC   GL157265   3.598  17.539   5.727
 4512POPC   GL257266   3.728  17.243   5.822
 4512POPC   C1A57267   3.589  17.546   6.210
 4512POPC   D2A57268   3.606  17.683   6.648
 4512POPC   C3A57269   3.541  17.483   7.053
 4512POPC   C4A57270   3.508  17.880   7.295
 4512POPC   C1B57271   3.816  17.016   6.199
 4512POPC   C2B57272   3.702  17.181   6.585
 4512POPC   C3B57273   3.888  17.072   6.964
 4512POPC   C4B57274   3.987  17.237   7.365
 4513POPC   NC357275  24.841  27.053   5.486
 4513POPC   PO457276  24.509  26.483   5.335
 4513POPC   GL157277  24.727  26.586   5.732
 4513POPC   GL257278  24.466  26.824   5.841
 4513POPC   C1A57279  24.842  26.776   6.169
 4513POPC   D2A57280  24.864  27.100   6.539
 4513POPC   C3A57281  24.661  26.955   6.930
 4513POPC   C4A57282  24.349  26.792   7.207
 4513POPC   C1B57283  24.437  27.104   6.219
 4513POPC   C2B57284  24.279  27.136   6.638
 4513POPC   C3B57285  24.120  27.247   7.050
 4513POPC   C4B57286  24.374  27.250   7.433
 4514POPC   NC357287  37.773  21.937   5.429
 4514POPC   PO457288  37.683  22.622   5.394
 4514POPC   GL157289  37.751  22.411   5.769
 4514POPC   GL257290  37.614  22.093   5.871
 4514POPC   C1A57291  37.778  22.417   6.216
 4514POPC   D2A57292  37.543  22.485   6.598
 4514POPC   C3A57293  37.663  22.238   6.970
 4514POPC   C4A57294  37.875  22.305   7.328
 4514POPC   C1B57295  37.827  21.847   6.164
 4514POPC   C2B57296  37.719  21.689   6.568
 4514POPC   C3B57297  37.906  21.763   6.939
 4514POPC   C4B57298  38.095  21.824   7.306
 4515POPC   NC357299  42.019  17.834   5.387
 4515POPC   PO457300  42.576  17.469   5.239
 4515POPC   GL157301  42.433  17.468   5.676
 4515POPC   GL257302  42.105  17.370   5.679
 4515POPC   C1A57303  42.473  17.584   6.121
 4515POPC   D2A57304  42.701  17.560   6.506
 4515POPC   C3A57305  42.471  17.688   6.839
 4515POPC   C4A57306  42.365  17.506   7.235
 4515POPC   C1B57307  42.315  17.120   6.040
 4515POPC   C2B57308  42.314  17.186   6.502
 4515POPC   C3B57309  42.059  17.258   6.884
 4515POPC   C4B57310  41.861  17.088   7.238
 4516POPC   NC357311   7.924  37.388   5.602
 4516POPC   PO457312   7.547  37.842   5.242
 4516POPC   GL157313   7.493  37.628   5.661
 4516POPC   GL257314   7.248  37.730   5.822
 4516POPC   C1A57315   7.610  37.573   6.157
 4516POPC   D2A57316   7.480  37.487   6.587
 4516POPC   C3A57317   7.651  37.534   7.008
 4516POPC   C4A57318   7.313  37.430   7.279
 4516POPC   C1B57319   7.148  37.976   6.168
 4516POPC   C2B57320   7.252  37.955   6.573
 4516POPC   C3B57321   7.215  37.814   6.969
 4516POPC   C4B57322   7.290  37.966   7.381
 4517POPC   NC357323  17.839  44.886   5.561
 4517POPC   PO457324  18.528  44.853   5.425
 4517POPC   GL157325  18.503  44.585   5.762
 4517POPC   GL257326  18.234  44.804   5.900
 4517POPC   C1A57327  18.666  44.719   6.157
 4517POPC   D2A57328  18.414  44.810   6.498
 4517POPC   C3A57329  18.259  44.970   6.872
 4517POPC   C4A57330  18.322  44.846   7.294
 4517POPC   C1B57331  17.938  44.737   6.231
 4517POPC   C2B57332  17.956  44.580   6.641
 4517POPC   C3B57333  17.931  44.582   7.070
 4517POPC   C4B57334  18.001  44.491   7.518
 4518POPC   NC357335  23.950  14.895   5.399
 4518POPC   PO457336  23.624  15.483   5.246
 4518POPC   GL157337  23.580  15.244   5.668
 4518POPC   GL257338  23.903  15.180   5.822
 4518POPC   C1A57339  23.511  15.060   6.126
 4518POPC   D2A57340  23.364  14.852   6.502
 4518POPC   C3A57341  23.487  15.082   6.851
 4518POPC   C4A57342  23.459  15.238   7.216
 4518POPC   C1B57343  24.049  14.956   6.187
 4518POPC   C2B57344  23.897  14.894   6.609
 4518POPC   C3B57345  23.995  15.002   7.050
 4518POPC   C4B57346  23.932  15.304   7.408
 4519POPC   NC357347  11.417  38.746   5.233
 4519POPC   PO457348  11.433  38.142   5.421
 4519POPC   GL157349  11.373  38.477   5.709
 4519POPC   GL257350  11.047  38.578   5.554
 4519POPC   C1A57351  11.461  38.444   6.164
 4519POPC   D2A57352  11.213  38.204   6.468
 4519POPC   C3A57353  11.224  38.360   6.888
 4519POPC   C4A57354  11.294  38.211   7.334
 4519POPC   C1B57355  11.032  38.686   5.999
 4519POPC   C2B57356  11.001  38.670   6.443
 4519POPC   C3B57357  10.956  38.809   6.874
 4519POPC   C4B57358  11.135  38.709   7.276
 4520POPC   NC357359  36.048   1.320   5.442
 4520POPC   PO457360  36.554   0.967   5.476
 4520POPC   GL157361  36.322   0.923   5.856
 4520POPC   GL257362  35.985   1.101   5.893
 4520POPC   C1A57363  36.246   0.957   6.307
 4520POPC   D2A57364  35.904   1.100   6.566
 4520POPC   C3A57365  36.083   1.155   6.962
 4520POPC   C4A57366  36.336   0.921   7.258
 4520POPC   C1B57367  36.163   1.453   6.131
 4520POPC   C2B57368  36.220   1.501   6.577
 4520POPC   C3B57369  36.058   1.665   6.969
 4520POPC   C4B57370  35.970   1.459   7.380
 4521POPC   NC357371   3.027   1.895   5.060
 4521POPC   PO457372   2.703   1.663   5.650
 4521POPC   GL157373   2.449   1.764   6.037
 4521POPC   GL257374   2.433   2.111   6.021
 4521POPC   C1A57375   2.422   1.888   6.503
 4521POPC   D2A57376   2.811   1.947   6.794
 4521POPC   C3A57377   2.855   1.544   6.955
 4521POPC   C4A57378   2.386   1.561   6.949
 4521POPC   C1B57379   2.794   2.212   6.336
 4521POPC   C2B57380   2.888   2.460   6.750
 4521POPC   C3B57381   2.881   2.310   7.174
 4521POPC   C4B57382   2.674   1.895   7.317
 4522POPC   NC357383   0.132  36.149   5.160
 4522POPC   PO457384  44.703  35.741   5.483
 4522POPC   GL157385  44.632  35.969   5.841
 4522POPC   GL257386  44.434  36.240   5.915
 4522POPC   C1A57387  44.739  35.988   6.277
 4522POPC   D2A57388  44.622  36.240   6.634
 4522POPC   C3A57389  44.726  36.074   7.013
 4522POPC   C4A57390   0.081  35.845   7.167
 4522POPC   C1B57391  44.238  36.374   6.299
 4522POPC   C2B57392  44.298  36.637   6.659
 4522POPC   C3B57393  44.412  36.507   7.083
 4522POPC   C4B57394  44.372  36.146   7.371
 4523POPC   NC357395   1.508  25.436   5.500
 4523POPC   PO457396   2.127  25.172   5.456
 4523POPC   GL157397   1.986  25.435   5.806
 4523POPC   GL257398   2.124  25.146   5.991
 4523POPC   C1A57399   1.897  25.477   6.273
 4523POPC   D2A57400   2.012  25.185   6.607
 4523POPC   C3A57401   2.031  25.295   7.013
 4523POPC   C4A57402   1.798  25.163   7.368
 4523POPC   C1B57403   2.179  24.811   6.296
 4523POPC   C2B57404   2.231  24.728   6.755
 4523POPC   C3B57405   2.257  24.872   7.201
 4523POPC   C4B57406   2.039  24.780   7.613
 4524POPC   NC357407   2.359  41.138   5.499
 4524POPC   PO457408   1.736  41.452   5.401
 4524POPC   GL157409   1.886  41.492   5.824
 4524POPC   GL257410   1.898  41.832   5.953
 4524POPC   C1A57411   2.112  41.418   6.206
 4524POPC   D2A57412   2.278  41.508   6.611
 4524POPC   C3A57413   2.124  41.316   7.003
 4524POPC   C4A57414   1.970  41.481   7.405
 4524POPC   C1B57415   1.849  41.863   6.377
 4524POPC   C2B57416   1.865  41.778   6.777
 4524POPC   C3B57417   2.112  41.862   7.098
 4524POPC   C4B57418   1.989  42.097   7.471
 4525POPC   NC357419  14.261   8.560   5.397
 4525POPC   PO457420  14.680   7.996   5.285
 4525POPC   GL157421  14.549   8.172   5.698
 4525POPC   GL257422  14.227   8.226   5.780
 4525POPC   C1A57423  14.470   8.000   6.151
 4525POPC   D2A57424  14.688   7.949   6.540
 4525POPC   C3A57425  14.509   8.082   6.937
 4525POPC   C4A57426  14.427   8.258   7.345
 4525POPC   C1B57427  14.290   8.489   6.147
 4525POPC   C2B57428  14.459   8.450   6.564
 4525POPC   C3B57429  14.256   8.573   6.955
 4525POPC   C4B57430  13.949   8.409   7.257
 4526POPC   NC357431  24.004  40.564   5.401
 4526POPC   PO457432  23.603  41.154   5.475
 4526POPC   GL157433  23.640  40.934   5.840
 4526POPC   GL257434  23.418  41.101   6.026
 4526POPC   C1A57435  23.587  40.600   6.152
 4526POPC   D2A57436  23.511  40.520   6.618
 4526POPC   C3A57437  23.920  40.555   6.873
 4526POPC   C4A57438  24.006  40.693   7.304
 4526POPC   C1B57439  23.545  41.039   6.448
 4526POPC   C2B57440  23.802  41.073   6.814
 4526POPC   C3B57441  23.740  41.199   7.240
 4526POPC   C4B57442  23.644  40.909   7.577
 4527POPC   NC357443  44.470   8.703   5.350
 4527POPC   PO457444  44.876   9.303   5.460
 4527POPC   GL157445  44.772   8.908   5.692
 4527POPC   GL257446   0.051   8.811   5.850
 4527POPC   C1A57447  44.642   8.696   6.110
 4527POPC   D2A57448  44.545   8.857   6.508
 4527POPC   C3A57449  44.633   8.713   6.916
 4527POPC   C4A57450  44.434   8.867   7.244
 4527POPC   C1B57451  44.867   9.154   6.134
 4527POPC   C2B57452  44.848   9.415   6.505
 4527POPC   C3B57453   0.004   9.373   6.933
 4527POPC   C4B57454   0.072   9.140   7.369
 4528POPC   NC357455   3.220  18.646   5.443
 4528POPC   PO457456   2.589  18.419   5.283
 4528POPC   GL157457   2.609  18.351   5.716
 4528POPC   GL257458   2.899  18.114   5.743
 4528POPC   C1A57459   2.800  18.493   6.098
 4528POPC   D2A57460   3.118  18.439   6.419
 4528POPC   C3A57461   2.967  18.305   6.814
 4528POPC   C4A57462   2.880  18.508   7.203
 4528POPC   C1B57463   2.857  17.976   6.189
 4528POPC   C2B57464   3.111  17.891   6.545
 4528POPC   C3B57465   3.160  17.815   6.934
 4528POPC   C4B57466   3.029  18.038   7.274
 4529POPC   NC357467  15.142  24.123   5.302
 4529POPC   PO457468  15.110  23.464   5.252
 4529POPC   GL157469  15.192  23.538   5.736
 4529POPC   GL257470  15.166  23.902   5.771
 4529POPC   C1A57471  15.398  23.672   6.177
 4529POPC   D2A57472  15.353  23.923   6.593
 4529POPC   C3A57473  15.516  23.814   7.031
 4529POPC   C4A57474  15.566  23.740   7.523
 4529POPC   C1B57475  14.961  23.922   6.172
 4529POPC   C2B57476  14.813  23.958   6.583
 4529POPC   C3B57477  14.842  23.769   6.961
 4529POPC   C4B57478  15.097  23.783   7.307
 4530POPC   NC357479  12.337  41.680   5.369
 4530POPC   PO457480  11.728  41.371   5.430
 4530POPC   GL157481  12.043  41.500   5.756
 4530POPC   GL257482  12.246  41.204   5.722
 4530POPC   C1A57483  12.131  41.818   6.113
 4530POPC   D2A57484  11.913  41.907   6.516
 4530POPC   C3A57485  12.128  41.752   6.875
 4530POPC   C4A57486  12.213  41.923   7.274
 4530POPC   C1B57487  12.466  41.302   6.094
 4530POPC   C2B57488  12.324  41.451   6.492
 4530POPC   C3B57489  12.146  41.237   6.852
 4530POPC   C4B57490  12.252  41.388   7.251
 4531POPC   NC357491  17.916  30.216   5.610
 4531POPC   PO457492  17.334  29.889   5.425
 4531POPC   GL157493  17.440  30.053   5.777
 4531POPC   GL257494  17.698  29.800   5.831
 4531POPC   C1A57495  17.231  30.208   6.136
 4531POPC   D2A57496  17.383  30.191   6.563
 4531POPC   C3A57497  17.405  29.784   6.789
 4531POPC   C4A57498  17.337  29.860   7.211
 4531POPC   C1B57499  17.719  30.023   6.223
 4531POPC   C2B57500  17.848  29.962   6.646
 4531POPC   C3B57501  17.744  30.078   7.042
 4531POPC   C4B57502  17.943  30.065   7.414
 4532POPC   NC357503  40.428   1.300   5.548
 4532POPC   PO457504  39.751   1.005   5.572
 4532POPC   GL157505  39.765   1.266   5.890
 4532POPC   GL257506  40.113   1.223   5.953
 4532POPC   C1A57507  39.717   1.317   6.300
 4532POPC   D2A57508  40.106   1.278   6.512
 4532POPC   C3A57509  40.070   1.320   6.909
 4532POPC   C4A57510  39.739   1.481   7.081
 4532POPC   C1B57511  40.407   0.999   6.228
 4532POPC   C2B57512  40.536   1.065   6.706
 4532POPC   C3B57513  40.433   1.074   7.194
 4532POPC   C4B57514  40.311   0.888   7.618
 4533POPC   NC357515  36.392   5.995   5.407
 4533POPC   PO457516  35.863   5.575   5.520
 4533POPC   GL157517  36.125   5.695   5.825
 4533POPC   GL257518  36.214   6.046   5.888
 4533POPC   C1A57519  36.245   5.612   6.227
 4533POPC   D2A57520  36.297   5.845   6.594
 4533POPC   C3A57521  36.245   5.587   6.968
 4533POPC   C4A57522  36.125   5.702   7.348
 4533POPC   C1B57523  35.885   6.004   6.208
 4533POPC   C2B57524  35.867   6.155   6.631
 4533POPC   C3B57525  36.097   6.092   7.006
 4533POPC   C4B57526  35.902   6.174   7.364
 4534POPC   NC357527  20.118  20.540   5.020
 4534POPC   PO457528  19.640  20.830   5.479
 4534POPC   GL157529  19.695  20.695   5.898
 4534POPC   GL257530  19.925  20.413   5.918
 4534POPC   C1A57531  19.529  20.495   6.257
 4534POPC   D2A57532  19.696  20.316   6.619
 4534POPC   C3A57533  19.503  20.494   6.970
 4534POPC   C4A57534  19.664  20.639   7.344
 4534POPC   C1B57535  20.139  20.493   6.295
 4534POPC   C2B57536  20.234  20.726   6.640
 4534POPC   C3B57537  20.083  20.678   7.052
 4534POPC   C4B57538  20.135  20.778   7.497
 4535POPC   NC357539  25.839  44.274   5.502
 4535POPC   PO457540  26.536  44.247   5.478
 4535POPC   GL157541  26.330  43.926   5.776
 4535POPC   GL257542  25.958  43.782   5.753
 4535POPC   C1A57543  26.265  43.955   6.233
 4535POPC   D2A57544  26.448  44.137   6.620
 4535POPC   C3A57545  26.172  44.063   7.001
 4535POPC   C4A57546  25.719  44.037   7.136
 4535POPC   C1B57547  25.949  43.557   6.186
 4535POPC   C2B57548  25.968  43.746   6.636
 4535POPC   C3B57549  25.799  43.545   7.023
 4535POPC   C4B57550  25.852  43.561   7.480
 4536POPC   NC357551  37.873  13.397   5.272
 4536POPC   PO457552  37.356  13.673   5.583
 4536POPC   GL157553  37.575  13.447   5.878
 4536POPC   GL257554  37.854  13.665   5.929
 4536POPC   C1A57555  37.702  13.369   6.317
 4536POPC   D2A57556  37.904  13.562   6.667
 4536POPC   C3A57557  37.966  13.313   7.028
 4536POPC   C4A57558  37.599  13.134   7.224
 4536POPC   C1B57559  37.751  13.908   6.293
 4536POPC   C2B57560  37.549  13.953   6.631
 4536POPC   C3B57561  37.592  13.873   6.999
 4536POPC   C4B57562  37.758  13.655   7.335
 4537POPC   NC357563   9.158  14.092   5.450
 4537POPC   PO457564   8.801  14.669   5.479
 4537POPC   GL157565   8.860  14.359   5.804
 4537POPC   GL257566   9.225  14.433   5.839
 4537POPC   C1A57567   8.890  14.395   6.261
 4537POPC   D2A57568   8.761  14.572   6.661
 4537POPC   C3A57569   9.037  14.409   6.950
 4537POPC   C4A57570   9.001  14.597   7.311
 4537POPC   C1B57571   9.282  14.085   6.130
 4537POPC   C2B57572   9.285  14.162   6.570
 4537POPC   C3B57573   9.476  14.064   6.968
 4537POPC   C4B57574   9.299  14.185   7.343
 4538POPC   NC357575  22.816  23.455   5.288
 4538POPC   PO457576  23.293  23.797   5.426
 4538POPC   GL157577  23.094  23.587   5.729
 4538POPC   GL257578  22.743  23.629   5.759
 4538POPC   C1A57579  23.155  23.516   6.155
 4538POPC   D2A57580  22.985  23.412   6.540
 4538POPC   C3A57581  23.104  23.621   6.898
 4538POPC   C4A57582  23.120  23.434   7.283
 4538POPC   C1B57583  22.628  23.583   6.197
 4538POPC   C2B57584  22.481  23.390   6.617
 4538POPC   C3B57585  22.595  23.514   7.063
 4538POPC   C4B57586  22.809  23.876   7.284
 4539POPC   NC357587   2.507  44.288   5.690
 4539POPC   PO457588   2.845  44.846   5.431
 4539POPC   GL157589   2.515  44.821   5.746
 4539POPC   GL257590   2.790  44.640   5.900
 4539POPC   C1A57591   2.394  44.737   6.192
 4539POPC   D2A57592   2.697  44.709   6.551
 4539POPC   C3A57593   2.528  44.699   6.969
 4539POPC   C4A57594   2.729  44.769   7.379
 4539POPC   C1B57595   3.074  44.594   6.208
 4539POPC   C2B57596   3.223  44.461   6.586
 4539POPC   C3B57597   3.046  44.600   6.959
 4539POPC   C4B57598   3.156  44.496   7.357
 4540POPC   NC357599  32.865  14.379   5.477
 4540POPC   PO457600  33.374  13.916   5.368
 4540POPC   GL157601  33.291  14.244   5.753
 4540POPC   GL257602  33.109  14.590   5.863
 4540POPC   C1A57603  33.394  14.401   6.216
 4540POPC   D2A57604  33.600  14.441   6.619
 4540POPC   C3A57605  33.289  14.398   6.942
 4540POPC   C4A57606  32.952  14.386   7.215
 4540POPC   C1B57607  32.886  14.587   6.273
 4540POPC   C2B57608  32.789  14.464   6.703
 4540POPC   C3B57609  32.500  14.610   7.011
 4540POPC   C4B57610  32.626  14.784   7.393
 4541POPC   NC357611  24.041  38.146   5.536
 4541POPC   PO457612  23.406  38.529   5.504
 4541POPC   GL157613  23.518  38.337   5.909
 4541POPC   GL257614  23.847  38.458   5.889
 4541POPC   C1A57615  23.666  38.466   6.379
 4541POPC   D2A57616  24.028  38.727   6.617
 4541POPC   C3A57617  23.991  38.823   7.061
 4541POPC   C4A57618  23.595  38.740   7.264
 4541POPC   C1B57619  23.982  38.117   6.192
 4541POPC   C2B57620  24.081  38.175   6.656
 4541POPC   C3B57621  23.765  38.357   6.943
 4541POPC   C4B57622  23.451  38.151   7.230
 4542POPC   NC357623  13.939  12.292   5.584
 4542POPC   PO457624  13.453  12.019   5.206
 4542POPC   GL157625  13.547  11.918   5.655
 4542POPC   GL257626  13.824  11.741   5.715
 4542POPC   C1A57627  13.348  11.855   6.091
 4542POPC   D2A57628  13.149  12.052   6.460
 4542POPC   C3A57629  13.402  12.190   6.816
 4542POPC   C4A57630  13.456  12.026   7.223
 4542POPC   C1B57631  13.848  11.963   6.132
 4542POPC   C2B57632  13.683  11.867   6.517
 4542POPC   C3B57633  13.836  11.848   6.934
 4542POPC   C4B57634  14.008  12.159   7.227
 4543POPC   NC357635   0.469   6.387   5.440
 4543POPC   PO457636  44.768   6.548   5.460
 4543POPC   GL157637   0.055   6.590   5.791
 4543POPC   GL257638  44.921   6.867   5.982
 4543POPC   C1A57639   0.222   6.506   6.217
 4543POPC   D2A57640   0.268   6.270   6.605
 4543POPC   C3A57641   0.528   6.347   6.974
 4543POPC   C4A57642   0.486   6.646   7.308
 4543POPC   C1B57643   0.235   6.997   6.323
 4543POPC   C2B57644   0.220   6.881   6.784
 4543POPC   C3B57645   0.052   6.901   7.225
 4543POPC   C4B57646   0.053   6.653   7.603
 4544POPC   NC357647  31.157  31.649   5.495
 4544POPC   PO457648  31.804  31.607   5.474
 4544POPC   GL157649  31.806  31.306   5.797
 4544POPC   GL257650  31.462  31.262   5.719
 4544POPC   C1A57651  31.768  31.364   6.237
 4544POPC   D2A57652  31.685  31.113   6.591
 4544POPC   C3A57653  31.757  31.346   6.983
 4544POPC   C4A57654  31.709  31.174   7.375
 4544POPC   C1B57655  31.282  31.242   6.128
 4544POPC   C2B57656  31.287  31.465   6.510
 4544POPC   C3B57657  31.267  31.305   6.899
 4544POPC   C4B57658  31.250  31.447   7.300
 4545POPC   NC357659  43.244  24.405   5.298
 4545POPC   PO457660  42.694  24.716   5.233
 4545POPC   GL157661  42.857  24.520   5.611
 4545POPC   GL257662  43.106  24.722   5.758
 4545POPC   C1A57663  42.949  24.270   5.994
 4545POPC   D2A57664  43.064  24.262   6.453
 4545POPC   C3A57665  42.815  24.218   6.843
 4545POPC   C4A57666  42.972  24.272   7.281
 4545POPC   C1B57667  43.229  24.764   6.204
 4545POPC   C2B57668  43.416  24.612   6.615
 4545POPC   C3B57669  43.388  24.476   7.070
 4545POPC   C4B57670  43.205  24.723   7.448
 4546POPC   NC357671  20.608  23.421   5.286
 4546POPC   PO457672  20.811  23.996   5.282
 4546POPC   GL157673  20.815  23.749   5.687
 4546POPC   GL257674  20.565  23.518   5.842
 4546POPC   C1A57675  20.906  23.796   6.137
 4546POPC   D2A57676  20.579  23.723   6.449
 4546POPC   C3A57677  20.559  23.846   6.873
 4546POPC   C4A57678  20.798  23.836   7.205
 4546POPC   C1B57679  20.787  23.301   6.230
 4546POPC   C2B57680  20.901  23.172   6.663
 4546POPC   C3B57681  20.811  23.298   7.086
 4546POPC   C4B57682  20.381  23.421   7.151
 4547POPC   NC357683  36.538  15.629   5.444
 4547POPC   PO457684  35.947  16.046   5.383
 4547POPC   GL157685  36.123  15.989   5.794
 4547POPC   GL257686  36.463  16.075   5.744
 4547POPC   C1A57687  35.985  15.992   6.251
 4547POPC   D2A57688  35.743  15.793   6.602
 4547POPC   C3A57689  36.014  15.739   6.967
 4547POPC   C4A57690  36.449  15.789   7.026
 4547POPC   C1B57691  36.596  16.224   6.149
 4547POPC   C2B57692  36.508  16.137   6.591
 4547POPC   C3B57693  36.498  16.333   6.989
 4547POPC   C4B57694  36.354  16.246   7.394
 4548POPC   NC357695   4.829  19.339   5.489
 4548POPC   PO457696   5.523  19.148   5.559
 4548POPC   GL157697   5.163  18.980   5.819
 4548POPC   GL257698   5.017  18.629   5.728
 4548POPC   C1A57699   5.221  18.940   6.285
 4548POPC   D2A57700   5.297  18.972   6.740
 4548POPC   C3A57701   5.019  19.236   6.948
 4548POPC   C4A57702   4.777  19.191   7.281
 4548POPC   C1B57703   4.827  18.647   6.149
 4548POPC   C2B57704   4.795  18.877   6.575
 4548POPC   C3B57705   4.796  18.741   6.996
 4548POPC   C4B57706   5.144  18.831   7.230
 4549POPC   NC357707   6.034  44.870   5.188
 4549POPC   PO457708   5.427  44.693   5.384
 4549POPC   GL157709   5.760  44.755   5.690
 4549POPC   GL257710   5.875  44.434   5.832
 4549POPC   C1A57711   6.023  44.956   6.016
 4549POPC   D2A57712   6.024  44.974   6.469
 4549POPC   C3A57713   6.082  44.698   6.832
 4549POPC   C4A57714   5.821  44.969   7.094
 4549POPC   C1B57715   5.713  44.620   6.229
 4549POPC   C2B57716   5.601  44.721   6.659
 4549POPC   C3B57717   5.628  44.489   7.055
 4549POPC   C4B57718   5.964  44.280   7.295
 4550POPC   NC357719  10.288  19.468   5.578
 4550POPC   PO457720  10.577  19.957   5.210
 4550POPC   GL157721  10.705  20.005   5.633
 4550POPC   GL257722  10.388  19.950   5.787
 4550POPC   C1A57723  10.803  20.068   6.082
 4550POPC   D2A57724  10.647  19.978   6.506
 4550POPC   C3A57725  10.844  19.799   6.869
 4550POPC   C4A57726  10.613  19.804   7.254
 4550POPC   C1B57727  10.558  19.627   6.114
 4550POPC   C2B57728  10.519  19.484   6.521
 4550POPC   C3B57729  10.343  19.672   6.850
 4550POPC   C4B57730  10.160  19.445   7.166
 4551POPC   NC357731  42.497  30.099   5.442
 4551POPC   PO457732  41.823  30.387   5.410
 4551POPC   GL157733  41.977  30.083   5.791
 4551POPC   GL257734  42.336  29.998   5.919
 4551POPC   C1A57735  41.942  30.019   6.254
 4551POPC   D2A57736  42.023  30.052   6.700
 4551POPC   C3A57737  42.188  29.681   6.907
 4551POPC   C4A57738  42.001  29.629   7.274
 4551POPC   C1B57739  42.434  30.111   6.382
 4551POPC   C2B57740  42.541  30.012   6.814
 4551POPC   C3B57741  42.465  29.938   7.271
 4551POPC   C4B57742  42.683  30.028   7.695
 4552POPC   NC357743  23.301  11.919   5.399
 4552POPC   PO457744  23.918  12.030   5.371
 4552POPC   GL157745  23.812  12.083   5.811
 4552POPC   GL257746  23.500  12.048   5.842
 4552POPC   C1A57747  23.669  12.192   6.273
 4552POPC   D2A57748  23.517  11.984   6.604
 4552POPC   C3A57749  23.530  12.213   6.958
 4552POPC   C4A57750  23.695  12.173   7.376
 4552POPC   C1B57751  23.306  11.786   6.159
 4552POPC   C2B57752  23.084  11.729   6.587
 4552POPC   C3B57753  23.217  11.768   7.039
 4552POPC   C4B57754  23.456  11.726   7.447
 4553POPC   NC357755   4.563  13.327   5.433
 4553POPC   PO457756   4.163  13.927   5.374
 4553POPC   GL157757   4.264  13.693   5.790
 4553POPC   GL257758   4.555  13.488   5.905
 4553POPC   C1A57759   4.188  13.709   6.267
 4553POPC   D2A57760   4.158  14.024   6.622
 4553POPC   C3A57761   4.077  13.887   7.030
 4553POPC   C4A57762   4.175  13.462   7.091
 4553POPC   C1B57763   4.670  13.547   6.321
 4553POPC   C2B57764   4.905  13.655   6.637
 4553POPC   C3B57765   4.560  13.743   6.868
 4553POPC   C4B57766   4.650  13.575   7.199
 4554POPC   NC357767  24.459  39.749   5.362
 4554POPC   PO457768  24.887  40.164   5.557
 4554POPC   GL157769  24.495  40.089   5.820
 4554POPC   GL257770  24.138  40.031   5.673
 4554POPC   C1A57771  24.505  40.190   6.288
 4554POPC   D2A57772  24.835  40.031   6.583
 4554POPC   C3A57773  24.754  40.173   7.003
 4554POPC   C4A57774  24.562  40.083   7.382
 4554POPC   C1B57775  24.043  39.980   6.146
 4554POPC   C2B57776  23.947  40.063   6.608
 4554POPC   C3B57777  24.229  40.082   6.981
 4554POPC   C4B57778  24.144  39.782   7.318
 4555POPC   NC357779  41.557  24.797   5.411
 4555POPC   PO457780  41.095  24.292   5.479
 4555POPC   GL157781  41.477  24.315   5.777
 4555POPC   GL257782  41.669  24.641   5.879
 4555POPC   C1A57783  41.663  24.250   6.202
 4555POPC   D2A57784  41.763  24.429   6.619
 4555POPC   C3A57785  41.404  24.411   6.905
 4555POPC   C4A57786  41.254  24.170   7.244
 4555POPC   C1B57787  41.773  24.848   6.287
 4555POPC   C2B57788  41.933  24.901   6.728
 4555POPC   C3B57789  41.761  24.726   7.103
 4555POPC   C4B57790  41.745  24.789   7.572
 4556POPC   NC357791   8.567   7.814   5.433
 4556POPC   PO457792   8.469   7.151   5.496
 4556POPC   GL157793   8.204   7.401   5.780
 4556POPC   GL257794   7.807   7.301   5.804
 4556POPC   C1A57795   8.329   7.595   6.184
 4556POPC   D2A57796   8.151   7.611   6.608
 4556POPC   C3A57797   8.338   7.547   6.998
 4556POPC   C4A57798   8.344   7.490   7.449
 4556POPC   C1B57799   7.997   7.199   6.197
 4556POPC   C2B57800   8.293   7.112   6.446
 4556POPC   C3B57801   8.121   7.092   6.809
 4556POPC   C4B57802   8.287   7.057   7.182
 4557POPC   NC357803  20.583  25.267   5.345
 4557POPC   PO457804  20.815  25.826   5.325
 4557POPC   GL157805  20.737  25.547   5.758
 4557POPC   GL257806  21.024  25.384   5.939
 4557POPC   C1A57807  20.586  25.371   6.204
 4557POPC   D2A57808  20.512  25.588   6.632
 4557POPC   C3A57809  20.496  25.375   7.070
 4557POPC   C4A57810  20.584  25.280   7.519
 4557POPC   C1B57811  20.982  25.021   6.238
 4557POPC   C2B57812  20.718  25.018   6.608
 4557POPC   C3B57813  20.747  24.856   7.035
 4557POPC   C4B57814  20.728  24.794   7.478
 4558POPC   NC357815  36.679  17.946   5.395
 4558POPC   PO457816  37.365  18.184   5.277
 4558POPC   GL157817  37.060  18.266   5.706
 4558POPC   GL257818  36.878  18.622   5.785
 4558POPC   C1A57819  37.157  18.374   6.162
 4558POPC   D2A57820  36.936  18.350   6.560
 4558POPC   C3A57821  37.108  18.307   6.986
 4558POPC   C4A57822  37.110  18.176   7.416
 4558POPC   C1B57823  36.647  18.466   6.135
 4558POPC   C2B57824  36.413  18.520   6.506
 4558POPC   C3B57825  36.637  18.564   6.911
 4558POPC   C4B57826  36.678  18.420   7.316
 4559POPC   NC357827   7.444  16.583   5.203
 4559POPC   PO457828   7.171  17.217   5.277
 4559POPC   GL157829   7.202  16.936   5.655
 4559POPC   GL257830   7.356  16.595   5.714
 4559POPC   C1A57831   7.217  16.985   6.102
 4559POPC   D2A57832   7.419  16.815   6.473
 4559POPC   C3A57833   7.481  17.004   6.897
 4559POPC   C4A57834   7.844  16.991   7.206
 4559POPC   C1B57835   7.190  16.370   6.075
 4559POPC   C2B57836   7.041  16.446   6.498
 4559POPC   C3B57837   7.324  16.473   6.834
 4559POPC   C4B57838   7.580  16.560   7.177
 4560POPC   NC357839  24.280  30.984   5.533
 4560POPC   PO457840  24.628  30.639   4.997
 4560POPC   GL157841  24.652  30.619   5.562
 4560POPC   GL257842  24.710  30.904   5.829
 4560POPC   C1A57843  24.578  30.486   6.094
 4560POPC   D2A57844  24.333  30.538   6.536
 4560POPC   C3A57845  24.478  30.538   7.009
 4560POPC   C4A57846  24.694  30.351   7.438
 4560POPC   C1B57847  24.363  30.941   6.188
 4560POPC   C2B57848  24.266  31.027   6.640
 4560POPC   C3B57849  24.253  30.976   7.099
 4560POPC   C4B57850  24.260  31.119   7.524
 4561POPC   NC357851  21.430   0.089   5.333
 4561POPC   PO457852  21.634   0.688   5.353
 4561POPC   GL157853  21.678   0.617   5.790
 4561POPC   GL257854  21.636   0.245   5.800
 4561POPC   C1A57855  21.478   0.676   6.193
 4561POPC   D2A57856  21.513   0.493   6.573
 4561POPC   C3A57857  21.465   0.713   6.935
 4561POPC   C4A57858  21.332   0.549   7.308
 4561POPC   C1B57859  21.377   0.170   6.160
 4561POPC   C2B57860  21.358  44.987   6.556
 4561POPC   C3B57861  21.406   0.156   6.960
 4561POPC   C4B57862  21.332   0.026   7.357
 4562POPC   NC357863  10.027  35.821   5.642
 4562POPC   PO457864   9.637  36.238   5.236
 4562POPC   GL157865   9.542  36.079   5.679
 4562POPC   GL257866   9.558  36.379   5.874
 4562POPC   C1A57867   9.543  35.941   6.151
 4562POPC   D2A57868   9.717  35.741   6.562
 4562POPC   C3A57869   9.866  35.888   6.991
 4562POPC   C4A57870   9.572  36.026   7.327
 4562POPC   C1B57871   9.747  36.405   6.258
 4562POPC   C2B57872   9.951  36.223   6.584
 4562POPC   C3B57873   9.773  36.385   6.915
 4562POPC   C4B57874   9.855  36.438   7.313
 4563POPC   NC357875  13.869  36.298   5.470
 4563POPC   PO457876  13.271  36.236   5.605
 4563POPC   GL157877  13.600  36.166   5.900
 4563POPC   GL257878  13.864  35.901   5.830
 4563POPC   C1A57879  13.750  36.134   6.322
 4563POPC   D2A57880  13.542  36.030   6.697
 4563POPC   C3A57881  13.518  36.365   6.996
 4563POPC   C4A57882  13.738  36.373   7.368
 4563POPC   C1B57883  14.038  35.713   6.235
 4563POPC   C2B57884  14.081  35.876   6.661
 4563POPC   C3B57885  13.861  35.936   7.074
 4563POPC   C4B57886  13.583  35.876   7.443
 4564POPC   NC357887  13.921  21.095   5.194
 4564POPC   PO457888  13.429  21.557   5.351
 4564POPC   GL157889  13.568  21.508   5.777
 4564POPC   GL257890  13.850  21.272   5.703
 4564POPC   C1A57891  13.386  21.468   6.210
 4564POPC   D2A57892  13.544  21.226   6.558
 4564POPC   C3A57893  13.576  21.452   6.946
 4564POPC   C4A57894  13.378  21.435   7.323
 4564POPC   C1B57895  13.989  21.209   6.129
 4564POPC   C2B57896  14.017  21.375   6.529
 4564POPC   C3B57897  13.962  21.127   6.899
 4564POPC   C4B57898  13.952  21.258   7.317
 4565POPC   NC357899  43.471  14.893   5.473
 4565POPC   PO457900  43.786  15.491   5.321
 4565POPC   GL157901  43.681  15.304   5.732
 4565POPC   GL257902  43.965  15.094   5.855
 4565POPC   C1A57903  43.726  15.420   6.182
 4565POPC   D2A57904  44.123  15.344   6.412
 4565POPC   C3A57905  44.064  15.416   6.848
 4565POPC   C4A57906  43.772  15.238   7.147
 4565POPC   C1B57907  43.704  14.918   6.195
 4565POPC   C2B57908  43.766  15.047   6.640
 4565POPC   C3B57909  44.102  14.887   6.933
 4565POPC   C4B57910  44.080  14.810   7.379
 4566POPC   NC357911  24.116  43.868   5.433
 4566POPC   PO457912  23.399  44.018   5.546
 4566POPC   GL157913  23.585  43.938   5.941
 4566POPC   GL257914  23.818  43.698   5.834
 4566POPC   C1A57915  23.940  43.913   6.265
 4566POPC   D2A57916  23.968  43.717   6.669
 4566POPC   C3A57917  23.792  43.994   6.980
 4566POPC   C4A57918  23.372  44.057   7.132
 4566POPC   C1B57919  23.560  43.563   6.253
 4566POPC   C2B57920  23.420  43.738   6.676
 4566POPC   C3B57921  23.544  43.557   7.088
 4566POPC   C4B57922  23.630  43.465   7.513
 4567POPC   NC357923  17.025   6.396   5.437
 4567POPC   PO457924  16.455   6.841   5.374
 4567POPC   GL157925  16.735   6.755   5.749
 4567POPC   GL257926  16.753   6.419   5.883
 4567POPC   C1A57927  16.787   7.025   6.124
 4567POPC   D2A57928  16.604   6.994   6.546
 4567POPC   C3A57929  16.838   6.902   6.906
 4567POPC   C4A57930  16.725   6.810   7.300
 4567POPC   C1B57931  16.476   6.226   6.195
 4567POPC   C2B57932  16.410   6.063   6.645
 4567POPC   C3B57933  16.274   6.155   7.105
 4567POPC   C4B57934  16.514   6.364   7.417
 4568POPC   NC357935   8.231  40.638   5.384
 4568POPC   PO457936   7.958  41.204   5.649
 4568POPC   GL157937   8.184  40.890   5.860
 4568POPC   GL257938   7.977  40.632   5.827
 4568POPC   C1A57939   8.212  40.802   6.290
 4568POPC   D2A57940   7.973  40.822   6.652
 4568POPC   C3A57941   8.218  40.993   6.964
 4568POPC   C4A57942   8.323  40.878   7.349
 4568POPC   C1B57943   7.817  40.450   6.232
 4568POPC   C2B57944   7.927  40.293   6.619
 4568POPC   C3B57945   7.918  40.298   7.047
 4568POPC   C4B57946   7.824  40.720   7.185
 4569POPC   NC357947  19.058  26.618   5.421
 4569POPC   PO457948  19.569  26.997   5.376
 4569POPC   GL157949  19.321  26.937   5.785
 4569POPC   GL257950  18.930  26.938   5.802
 4569POPC   C1A57951  19.214  26.830   6.238
 4569POPC   D2A57952  19.026  26.576   6.602
 4569POPC   C3A57953  19.195  26.554   7.045
 4569POPC   C4A57954  19.294  26.788   7.446
 4569POPC   C1B57955  18.716  26.755   6.193
 4569POPC   C2B57956  18.503  26.681   6.581
 4569POPC   C3B57957  18.675  26.670   6.982
 4569POPC   C4B57958  18.801  26.689   7.380
 4570POPC   NC357959  31.950  17.066   5.287
 4570POPC   PO457960  32.499  16.555   5.441
 4570POPC   GL157961  32.258  16.719   5.793
 4570POPC   GL257962  32.075  17.030   5.765
 4570POPC   C1A57963  32.268  16.553   6.208
 4570POPC   D2A57964  32.481  16.589   6.598
 4570POPC   C3A57965  32.224  16.620   6.966
 4570POPC   C4A57966  32.341  17.010   7.114
 4570POPC   C1B57967  31.865  16.894   6.143
 4570POPC   C2B57968  31.991  16.842   6.565
 4570POPC   C3B57969  31.836  16.995   6.954
 4570POPC   C4B57970  31.616  16.999   7.350
 4571POPC   NC357971   9.255  21.910   5.042
 4571POPC   PO457972   8.710  21.832   5.535
 4571POPC   GL157973   8.902  22.062   5.912
 4571POPC   GL257974   9.172  21.976   6.095
 4571POPC   C1A57975   8.995  22.417   6.254
 4571POPC   D2A57976   9.149  22.529   6.689
 4571POPC   C3A57977   8.984  22.375   7.074
 4571POPC   C4A57978   9.199  22.230   7.444
 4571POPC   C1B57979   8.680  21.992   6.320
 4571POPC   C2B57980   8.767  22.130   6.672
 4571POPC   C3B57981   8.979  21.907   6.928
 4571POPC   C4B57982   8.824  21.887   7.324
 4572POPC   NC357983  10.502  32.223   5.341
 4572POPC   PO457984  10.259  32.875   5.526
 4572POPC   GL157985  10.463  32.500   5.795
 4572POPC   GL257986  10.323  32.143   5.808
 4572POPC   C1A57987  10.366  32.351   6.264
 4572POPC   D2A57988  10.090  32.333   6.653
 4572POPC   C3A57989  10.263  32.283   7.086
 4572POPC   C4A57990  10.726  32.283   7.220
 4572POPC   C1B57991  10.680  31.943   6.050
 4572POPC   C2B57992  10.771  31.773   6.470
 4572POPC   C3B57993  10.511  31.911   6.826
 4572POPC   C4B57994  10.465  31.838   7.283
 4573POPC   NC357995   1.014   3.197   5.516
 4573POPC   PO457996   0.446   3.501   5.381
 4573POPC   GL157997   0.508   3.489   5.814
 4573POPC   GL257998   0.847   3.539   5.888
 4573POPC   C1A57999   0.297   3.580   6.218
 4573POPC   D2A58000   0.243   3.701   6.646
 4573POPC   C3A58001   0.425   3.416   6.961
 4573POPC   C4A58002   0.351   3.369   7.422
 4573POPC   C1B58003   0.676   3.912   6.104
 4573POPC   C2B58004   0.599   4.072   6.513
 4573POPC   C3B58005   0.619   3.909   6.931
 4573POPC   C4B58006   0.655   3.780   7.353
 4574POPC   NC358007  27.629  35.891   5.311
 4574POPC   PO458008  27.216  36.410   4.999
 4574POPC   GL158009  27.323  36.315   5.510
 4574POPC   GL258010  27.448  36.016   5.761
 4574POPC   C1A58011  27.491  36.472   5.964
 4574POPC   D2A58012  27.592  36.373   6.415
 4574POPC   C3A58013  27.615  36.338   6.887
 4574POPC   C4A58014  27.729  36.084   7.231
 4574POPC   C1B58015  27.325  35.873   6.189
 4574POPC   C2B58016  27.330  35.971   6.656
 4574POPC   C3B58017  27.261  35.927   7.099
 4574POPC   C4B58018  27.450  35.685   7.443
 4575POPC   NC358019  35.484   2.793   5.085
 4575POPC   PO458020  35.412   2.813   5.705
 4575POPC   GL158021  35.238   2.642   5.990
 4575POPC   GL258022  35.443   2.364   6.006
 4575POPC   C1A58023  35.199   2.609   6.406
 4575POPC   D2A58024  35.357   2.635   6.788
 4575POPC   C3A58025  35.074   2.916   7.011
 4575POPC   C4A58026  34.967   2.932   7.461
 4575POPC   C1B58027  35.695   2.652   6.283
 4575POPC   C2B58028  35.861   2.727   6.692
 4575POPC   C3B58029  35.739   2.676   7.145
 4575POPC   C4B58030  35.474   2.863   7.456
 4576POPC   NC358031  27.205   5.905   5.516
 4576POPC   PO458032  27.897   5.653   5.371
 4576POPC   GL158033  27.732   5.683   5.853
 4576POPC   GL258034  27.358   5.727   5.947
 4576POPC   C1A58035  27.691   5.950   6.253
 4576POPC   D2A58036  27.992   6.089   6.558
 4576POPC   C3A58037  27.879   6.105   6.969
 4576POPC   C4A58038  27.587   6.180   7.241
 4576POPC   C1B58039  27.215   5.766   6.371
 4576POPC   C2B58040  27.457   5.931   6.723
 4576POPC   C3B58041  27.289   5.812   7.094
 4576POPC   C4B58042  26.976   5.602   7.254
 4577POPC   NC358043  27.080   4.939   5.290
 4577POPC   PO458044  26.917   5.575   5.187
 4577POPC   GL158045  27.013   5.389   5.592
 4577POPC   GL258046  26.738   5.141   5.639
 4577POPC   C1A58047  26.995   5.354   6.055
 4577POPC   D2A58048  26.757   5.177   6.409
 4577POPC   C3A58049  26.855   5.299   6.834
 4577POPC   C4A58050  26.800   5.128   7.239
 4577POPC   C1B58051  26.624   4.870   5.998
 4577POPC   C2B58052  26.673   4.648   6.386
 4577POPC   C3B58053  26.737   4.764   6.809
 4577POPC   C4B58054  26.423   4.795   7.146
 4578POPC   NC358055  26.420  23.500   5.501
 4578POPC   PO458056  27.063  23.346   5.273
 4578POPC   GL158057  26.919  23.555   5.715
 4578POPC   GL258058  26.676  23.379   5.907
 4578POPC   C1A58059  26.941  23.708   6.208
 4578POPC   D2A58060  26.876  23.589   6.675
 4578POPC   C3A58061  26.902  23.722   7.136
 4578POPC   C4A58062  26.659  23.990   7.479
 4578POPC   C1B58063  26.455  23.496   6.284
 4578POPC   C2B58064  26.462  23.292   6.669
 4578POPC   C3B58065  26.497  23.431   7.075
 4578POPC   C4B58066  26.730  23.298   7.419
 4579POPC   NC358067  24.855   5.254   5.457
 4579POPC   PO458068  24.242   4.874   5.481
 4579POPC   GL158069  24.463   5.067   5.825
 4579POPC   GL258070  24.834   4.958   5.867
 4579POPC   C1A58071  24.319   5.145   6.227
 4579POPC   D2A58072  24.538   5.361   6.516
 4579POPC   C3A58073  24.427   5.356   6.952
 4579POPC   C4A58074  24.767   5.337   7.243
 4579POPC   C1B58075  24.777   4.910   6.296
 4579POPC   C2B58076  24.651   4.754   6.672
 4579POPC   C3B58077  24.587   4.879   7.068
 4579POPC   C4B58078  24.410   5.050   7.464
 4580POPC   NC358079  19.742  38.739   5.358
 4580POPC   PO458080  20.278  38.546   5.566
 4580POPC   GL158081  19.992  38.442   5.896
 4580POPC   GL258082  19.670  38.428   5.758
 4580POPC   C1A58083  19.907  38.394   6.336
 4580POPC   D2A58084  19.889  38.657   6.688
 4580POPC   C3A58085  20.060  38.423   7.013
 4580POPC   C4A58086  19.860  38.243   7.337
 4580POPC   C1B58087  19.452  38.363   6.133
 4580POPC   C2B58088  19.436  38.283   6.584
 4580POPC   C3B58089  19.495  38.422   7.014
 4580POPC   C4B58090  19.744  38.736   7.223
 4581POPC   NC358091  40.527  40.627   5.450
 4581POPC   PO458092  41.059  40.810   5.060
 4581POPC   GL158093  41.049  40.655   5.495
 4581POPC   GL258094  41.025  40.982   5.654
 4581POPC   C1A58095  40.959  40.522   5.922
 4581POPC   D2A58096  40.640  40.539   6.256
 4581POPC   C3A58097  40.748  40.537   6.684
 4581POPC   C4A58098  40.631  40.497   7.098
 4581POPC   C1B58099  40.735  40.997   6.017
 4581POPC   C2B58100  40.708  41.034   6.478
 4581POPC   C3B58101  40.669  41.001   6.947
 4581POPC   C4B58102  40.889  41.154   7.317
 4582POPC   NC358103  14.840  27.397   5.522
 4582POPC   PO458104  14.173  27.490   5.287
 4582POPC   GL158105  14.380  27.622   5.690
 4582POPC   GL258106  14.149  27.878   5.787
 4582POPC   C1A58107  14.522  27.782   6.132
 4582POPC   D2A58108  14.433  27.607   6.553
 4582POPC   C3A58109  14.464  27.758   6.947
 4582POPC   C4A58110  14.639  27.611   7.298
 4582POPC   C1B58111  14.021  27.642   6.127
 4582POPC   C2B58112  13.916  27.620   6.561
 4582POPC   C3B58113  13.948  27.857   6.925
 4582POPC   C4B58114  14.149  27.872   7.361
 4583POPC   NC358115  26.320  15.867   5.456
 4583POPC   PO458116  25.822  15.307   5.339
 4583POPC   GL158117  25.962  15.576   5.683
 4583POPC   GL258118  25.866  15.917   5.722
 4583POPC   C1A58119  26.177  15.764   6.087
 4583POPC   D2A58120  26.065  16.060   6.434
 4583POPC   C3A58121  26.094  15.828   6.812
 4583POPC   C4A58122  26.367  15.889   7.176
 4583POPC   C1B58123  25.717  16.183   6.049
 4583POPC   C2B58124  25.574  16.315   6.452
 4583POPC   C3B58125  25.710  16.225   6.839
 4583POPC   C4B58126  25.866  16.041   7.202
 4584POPC   NC358127   5.963  15.399   5.363
 4584POPC   PO458128   6.120  16.033   5.365
 4584POPC   GL158129   5.799  16.028   5.708
 4584POPC   GL258130   5.588  15.707   5.685
 4584POPC   C1A58131   5.955  16.149   6.137
 4584POPC   D2A58132   6.186  16.158   6.499
 4584POPC   C3A58133   5.956  16.140   6.838
 4584POPC   C4A58134   5.962  15.989   7.229
 4584POPC   C1B58135   5.899  15.656   6.042
 4584POPC   C2B58136   5.883  15.734   6.510
 4584POPC   C3B58137   5.732  15.613   6.934
 4584POPC   C4B58138   5.309  15.563   7.160
 4585POPC   NC358139  41.721  16.406   5.724
 4585POPC   PO458140  41.830  17.004   5.440
 4585POPC   GL158141  41.496  16.885   5.787
 4585POPC   GL258142  41.261  16.567   5.849
 4585POPC   C1A58143  41.411  16.914   6.228
 4585POPC   D2A58144  41.658  17.025   6.590
 4585POPC   C3A58145  41.410  16.935   6.945
 4585POPC   C4A58146  41.422  16.875   7.367
 4585POPC   C1B58147  41.409  16.370   6.284
 4585POPC   C2B58148  41.582  16.358   6.741
 4585POPC   C3B58149  41.341  16.432   7.128
 4585POPC   C4B58150  41.430  16.428   7.621
 4586POPC   NC358151  21.095  32.542   5.571
 4586POPC   PO458152  20.500  32.401   5.268
 4586POPC   GL158153  20.628  32.216   5.660
 4586POPC   GL258154  20.296  32.270   5.819
 4586POPC   C1A58155  20.656  32.265   6.151
 4586POPC   D2A58156  20.365  32.312   6.534
 4586POPC   C3A58157  20.535  32.529   6.905
 4586POPC   C4A58158  20.656  32.397   7.304
 4586POPC   C1B58159  20.252  31.929   6.138
 4586POPC   C2B58160  20.361  31.707   6.526
 4586POPC   C3B58161  20.400  31.872   6.929
 4586POPC   C4B58162  20.200  32.204   7.098
 4587POPC   NC358163  15.378  30.424   5.486
 4587POPC   PO458164  14.740  30.670   5.566
 4587POPC   GL158165  15.132  30.770   5.817
 4587POPC   GL258166  15.471  30.951   5.725
 4587POPC   C1A58167  15.286  30.513   6.178
 4587POPC   D2A58168  15.309  30.316   6.593
 4587POPC   C3A58169  15.053  30.488   6.931
 4587POPC   C4A58170  15.199  30.503   7.346
 4587POPC   C1B58171  15.380  31.049   6.172
 4587POPC   C2B58172  15.203  30.874   6.564
 4587POPC   C3B58173  15.303  30.926   7.014
 4587POPC   C4B58174  14.946  30.925   7.313
 4588POPC   NC358175  16.437  38.912   5.460
 4588POPC   PO458176  15.922  39.308   5.608
 4588POPC   GL158177  16.205  39.474   5.895
 4588POPC   GL258178  16.060  39.200   6.095
 4588POPC   C1A58179  16.102  39.648   6.310
 4588POPC   D2A58180  15.824  39.342   6.552
 4588POPC   C3A58181  15.983  39.295   6.952
 4588POPC   C4A58182  16.254  39.535   7.245
 4588POPC   C1B58183  15.759  38.889   6.276
 4588POPC   C2B58184  15.502  38.899   6.649
 4588POPC   C3B58185  15.684  38.824   7.059
 4588POPC   C4B58186  15.821  39.098   7.381
 4589POPC   NC358187  12.772  14.270   5.348
 4589POPC   PO458188  12.601  14.805   5.651
 4589POPC   GL158189  12.694  14.458   5.870
 4589POPC   GL258190  13.006  14.499   5.811
 4589POPC   C1A58191  12.892  14.263   6.237
 4589POPC   D2A58192  12.763  14.257   6.622
 4589POPC   C3A58193  12.960  14.031   6.935
 4589POPC   C4A58194  12.842  14.181   7.333
 4589POPC   C1B58195  13.045  14.765   6.194
 4589POPC   C2B58196  13.142  14.655   6.613
 4589POPC   C3B58197  12.943  14.560   6.999
 4589POPC   C4B58198  13.166  14.582   7.403
 4590POPC   NC358199  41.487  30.352   5.094
 4590POPC   PO458200  41.386  30.951   5.405
 4590POPC   GL158201  41.422  30.605   5.720
 4590POPC   GL258202  41.754  30.546   5.901
 4590POPC   C1A58203  41.307  30.567   6.164
 4590POPC   D2A58204  41.570  30.615   6.541
 4590POPC   C3A58205  41.387  30.743   6.920
 4590POPC   C4A58206  41.521  30.594   7.303
 4590POPC   C1B58207  41.765  30.917   6.172
 4590POPC   C2B58208  41.895  31.045   6.598
 4590POPC   C3B58209  41.832  30.958   7.027
 4590POPC   C4B58210  41.723  31.037   7.462
 4591POPC   NC358211   0.923  25.761   5.621
 4591POPC   PO458212   1.160  25.096   5.458
 4591POPC   GL158213   1.066  25.318   5.851
 4591POPC   GL258214   0.769  25.483   6.021
 4591POPC   C1A58215   1.185  25.308   6.275
 4591POPC   D2A58216   1.519  25.280   6.552
 4591POPC   C3A58217   1.439  25.191   6.948
 4591POPC   C4A58218   1.300  25.124   7.335
 4591POPC   C1B58219   0.923  25.774   6.312
 4591POPC   C2B58220   1.127  25.639   6.670
 4591POPC   C3B58221   1.045  25.513   7.076
 4591POPC   C4B58222   1.003  25.498   7.504
 4592POPC   NC358223  38.647  13.751   5.122
 4592POPC   PO458224  39.292  13.530   5.285
 4592POPC   GL158225  39.272  13.655   5.732
 4592POPC   GL258226  39.127  13.945   5.899
 4592POPC   C1A58227  39.507  13.563   6.104
 4592POPC   D2A58228  39.635  13.510   6.524
 4592POPC   C3A58229  39.400  13.424   6.896
 4592POPC   C4A58230  39.341  13.697   7.244
 4592POPC   C1B58231  39.041  13.677   6.224
 4592POPC   C2B58232  39.082  13.342   6.505
 4592POPC   C3B58233  38.885  13.413   6.910
 4592POPC   C4B58234  39.012  13.310   7.324
 4593POPC   NC358235   3.555   8.347   5.519
 4593POPC   PO458236   3.087   7.967   5.341
 4593POPC   GL158237   3.347   7.853   5.722
 4593POPC   GL258238   3.706   7.956   5.834
 4593POPC   C1A58239   3.285   7.984   6.162
 4593POPC   D2A58240   3.345   8.284   6.513
 4593POPC   C3A58241   3.441   8.022   6.834
 4593POPC   C4A58242   3.321   8.056   7.244
 4593POPC   C1B58243   3.727   8.278   6.180
 4593POPC   C2B58244   3.871   8.311   6.636
 4593POPC   C3B58245   3.734   8.348   7.073
 4593POPC   C4B58246   3.812   8.501   7.477
 4594POPC   NC358247   7.301   4.557   5.518
 4594POPC   PO458248   7.664   4.028   5.325
 4594POPC   GL158249   7.569   4.132   5.754
 4594POPC   GL258250   7.883   4.052   5.875
 4594POPC   C1A58251   7.535   4.328   6.181
 4594POPC   D2A58252   7.447   4.233   6.617
 4594POPC   C3A58253   7.314   4.556   6.886
 4594POPC   C4A58254   7.015   4.734   7.184
 4594POPC   C1B58255   8.078   4.150   6.273
 4594POPC   C2B58256   7.928   4.068   6.693
 4594POPC   C3B58257   7.738   4.260   7.084
 4594POPC   C4B58258   7.751   4.142   7.552
 4595POPC   NC358259   8.536  18.800   5.560
 4595POPC   PO458260   8.052  18.367   5.261
 4595POPC   GL158261   8.137  18.381   5.698
 4595POPC   GL258262   7.847  18.535   5.852
 4595POPC   C1A58263   8.330  18.317   6.114
 4595POPC   D2A58264   8.149  18.306   6.511
 4595POPC   C3A58265   8.284  18.026   6.761
 4595POPC   C4A58266   8.316  18.044   7.180
 4595POPC   C1B58267   8.018  18.718   6.227
 4595POPC   C2B58268   8.241  18.798   6.623
 4595POPC   C3B58269   8.230  18.549   6.994
 4595POPC   C4B58270   8.318  18.487   7.435
 4596POPC   NC358271   3.276  29.528   5.422
 4596POPC   PO458272   3.818  29.081   5.353
 4596POPC   GL158273   3.548  29.201   5.720
 4596POPC   GL258274   3.183  29.119   5.745
 4596POPC   C1A58275   3.489  29.221   6.178
 4596POPC   D2A58276   3.752  29.248   6.549
 4596POPC   C3A58277   3.671  28.964   6.888
 4596POPC   C4A58278   3.649  29.253   7.222
 4596POPC   C1B58279   3.059  29.467   6.032
 4596POPC   C2B58280   3.129  29.474   6.485
 4596POPC   C3B58281   3.231  29.382   6.930
 4596POPC   C4B58282   3.231  28.969   7.154
 4597POPC   NC358283  23.620  29.337   5.277
 4597POPC   PO458284  23.814  28.730   5.373
 4597POPC   GL158285  23.713  29.039   5.736
 4597POPC   GL258286  23.878  29.366   5.732
 4597POPC   C1A58287  23.662  29.140   6.230
 4597POPC   D2A58288  23.777  29.291   6.688
 4597POPC   C3A58289  23.606  29.065   7.077
 4597POPC   C4A58290  23.313  29.187   7.438
 4597POPC   C1B58291  23.943  29.552   6.148
 4597POPC   C2B58292  24.217  29.537   6.494
 4597POPC   C3B58293  24.244  29.392   6.919
 4597POPC   C4B58294  23.912  29.437   7.231
 4598POPC   NC358295   6.638   6.124   5.513
 4598POPC   PO458296   6.417   5.485   5.433
 4598POPC   GL158297   6.459   5.709   5.775
 4598POPC   GL258298   6.778   5.635   5.859
 4598POPC   C1A58299   6.504   5.920   6.188
 4598POPC   D2A58300   6.598   5.723   6.588
 4598POPC   C3A58301   6.432   5.933   6.951
 4598POPC   C4A58302   6.643   6.065   7.286
 4598POPC   C1B58303   6.994   5.750   6.232
 4598POPC   C2B58304   7.077   5.915   6.643
 4598POPC   C3B58305   6.919   5.729   7.006
 4598POPC   C4B58306   7.107   5.683   7.375
 4599POPC   NC358307   1.122  20.156   5.452
 4599POPC   PO458308   1.262  19.503   5.416
 4599POPC   GL158309   1.413  19.651   5.801
 4599POPC   GL258310   1.573  19.971   5.762
 4599POPC   C1A58311   1.167  19.841   6.155
 4599POPC   D2A58312   0.958  20.134   6.478
 4599POPC   C3A58313   0.976  19.957   6.897
 4599POPC   C4A58314   1.183  20.044   7.291
 4599POPC   C1B58315   1.534  20.182   6.178
 4599POPC   C2B58316   1.482  20.033   6.625
 4599POPC   C3B58317   1.631  20.131   7.070
 4599POPC   C4B58318   1.646  20.041   7.552
 4600POPC   NC358319   6.322  25.414   5.231
 4600POPC   PO458320   6.762  25.011   5.154
 4600POPC   GL158321   6.567  25.153   5.605
 4600POPC   GL258322   6.524  25.543   5.695
 4600POPC   C1A58323   6.601  25.202   6.082
 4600POPC   D2A58324   6.783  25.106   6.491
 4600POPC   C3A58325   6.518  25.167   6.849
 4600POPC   C4A58326   6.802  25.259   7.144
 4600POPC   C1B58327   6.394  25.692   6.099
 4600POPC   C2B58328   6.536  25.577   6.523
 4600POPC   C3B58329   6.472  25.676   6.967
 4600POPC   C4B58330   6.607  25.655   7.399
 4601POPC   NC358331  29.295  29.850   5.262
 4601POPC   PO458332  28.826  30.331   5.477
 4601POPC   GL158333  29.067  30.053   5.779
 4601POPC   GL258334  29.428  30.088   5.750
 4601POPC   C1A58335  28.946  29.959   6.226
 4601POPC   D2A58336  28.788  29.801   6.646
 4601POPC   C3A58337  28.915  29.873   7.083
 4601POPC   C4A58338  28.893  30.225   7.398
 4601POPC   C1B58339  29.439  29.843   6.154
 4601POPC   C2B58340  29.304  29.769   6.555
 4601POPC   C3B58341  29.404  29.931   6.956
 4601POPC   C4B58342  29.517  29.705   7.298
 4602POPC   NC358343  18.627   0.326   5.451
 4602POPC   PO458344  18.109   0.729   5.580
 4602POPC   GL158345  18.236   0.360   5.821
 4602POPC   GL258346  18.536   0.534   5.903
 4602POPC   C1A58347  18.281   0.254   6.273
 4602POPC   D2A58348  18.250   0.568   6.609
 4602POPC   C3A58349  18.046   0.619   7.005
 4602POPC   C4A58350  17.967   0.233   7.219
 4602POPC   C1B58351  18.727   0.786   6.200
 4602POPC   C2B58352  18.602   0.921   6.595
 4602POPC   C3B58353  18.622   0.716   6.985
 4602POPC   C4B58354  18.446   0.468   7.339
 4603POPC   NC358355  15.580  19.379   5.416
 4603POPC   PO458356  16.198  19.781   5.496
 4603POPC   GL158357  16.025  19.895   5.881
 4603POPC   GL258358  15.671  19.842   5.720
 4603POPC   C1A58359  16.278  19.807   6.237
 4603POPC   D2A58360  16.420  19.650   6.628
 4603POPC   C3A58361  16.261  19.894   6.933
 4603POPC   C4A58362  15.980  19.763   7.205
 4603POPC   C1B58363  15.598  20.101   6.085
 4603POPC   C2B58364  15.606  20.265   6.497
 4603POPC   C3B58365  15.761  20.127   6.881
 4603POPC   C4B58366  15.600  20.108   7.296
 4604POPC   NC358367  31.578  28.015   5.466
 4604POPC   PO458368  31.492  27.317   5.452
 4604POPC   GL158369  31.382  27.622   5.767
 4604POPC   GL258370  31.721  27.740   5.851
 4604POPC   C1A58371  31.330  27.625   6.232
 4604POPC   D2A58372  31.188  27.727   6.667
 4604POPC   C3A58373  31.301  27.567   7.071
 4604POPC   C4A58374  31.343  27.476   7.539
 4604POPC   C1B58375  31.920  27.668   6.207
 4604POPC   C2B58376  31.721  27.750   6.567
 4604POPC   C3B58377  31.629  27.932   6.910
 4604POPC   C4B58378  31.774  27.621   7.223
 4605POPC   NC358379  29.688  16.861   5.389
 4605POPC   PO458380  30.027  16.383   5.754
 4605POPC   GL158381  30.054  16.823   5.775
 4605POPC   GL258382  30.378  16.978   5.745
 4605POPC   C1A58383  30.024  16.995   6.171
 4605POPC   D2A58384  29.796  16.834   6.526
 4605POPC   C3A58385  29.874  16.663   6.938
 4605POPC   C4A58386  29.807  16.880   7.332
 4605POPC   C1B58387  30.452  16.722   6.109
 4605POPC   C2B58388  30.236  16.555   6.457
 4605POPC   C3B58389  30.380  16.579   6.869
 4605POPC   C4B58390  30.246  16.574   7.274
 4606POPC   NC358391  41.951   2.362   5.642
 4606POPC   PO458392  42.487   2.028   5.286
 4606POPC   GL158393  42.352   2.045   5.708
 4606POPC   GL258394  42.107   1.772   5.798
 4606POPC   C1A58395  42.481   2.027   6.142
 4606POPC   D2A58396  42.396   2.223   6.531
 4606POPC   C3A58397  42.522   2.097   6.919
 4606POPC   C4A58398  42.345   2.214   7.308
 4606POPC   C1B58399  41.838   1.489   6.099
 4606POPC   C2B58400  41.750   1.555   6.529
 4606POPC   C3B58401  42.028   1.791   6.750
 4606POPC   C4B58402  42.230   1.740   7.133
 4607POPC   NC358403  41.309   3.140   5.439
 4607POPC   PO458404  41.561   2.395   5.377
 4607POPC   GL158405  41.512   2.589   5.790
 4607POPC   GL258406  41.617   2.957   5.834
 4607POPC   C1A58407  41.672   2.621   6.219
 4607POPC   D2A58408  41.572   2.894   6.539
 4607POPC   C3A58409  41.660   2.625   6.879
 4607POPC   C4A58410  41.480   2.574   7.244
 4607POPC   C1B58411  41.909   3.122   6.190
 4607POPC   C2B58412  41.878   3.276   6.639
 4607POPC   C3B58413  41.727   3.098   7.011
 4607POPC   C4B58414  41.907   3.124   7.412
 4608POPC   NC358415  25.489  43.441   5.409
 4608POPC   PO458416  24.883  43.130   5.471
 4608POPC   GL158417  25.064  43.248   5.809
 4608POPC   GL258418  25.214  42.948   5.944
 4608POPC   C1A58419  24.926  43.266   6.212
 4608POPC   D2A58420  25.168  43.132   6.533
 4608POPC   C3A58421  25.051  43.378   6.885
 4608POPC   C4A58422  24.996  42.989   7.052
 4608POPC   C1B58423  25.563  42.970   6.202
 4608POPC   C2B58424  25.706  42.909   6.607
 4608POPC   C3B58425  25.513  42.887   6.985
 4608POPC   C4B58426  25.440  43.234   7.188
 4609POPC   NC358427  38.652  18.725   5.496
 4609POPC   PO458428  38.432  19.336   5.379
 4609POPC   GL158429  38.329  19.284   5.794
 4609POPC   GL258430  38.137  19.006   5.715
 4609POPC   C1A58431  38.452  19.381   6.228
 4609POPC   D2A58432  38.594  19.162   6.622
 4609POPC   C3A58433  38.654  19.368   7.040
 4609POPC   C4A58434  38.466  19.142   7.383
 4609POPC   C1B58435  38.021  18.897   6.138
 4609POPC   C2B58436  38.110  18.890   6.562
 4609POPC   C3B58437  38.050  18.710   6.976
 4609POPC   C4B58438  38.197  18.626   7.372
 4610POPC   NC358439  28.211   0.285   5.451
 4610POPC   PO458440  28.738   0.655   5.301
 4610POPC   GL158441  28.539   0.577   5.756
 4610POPC   GL258442  28.199   0.514   5.916
 4610POPC   C1A58443  28.691   0.602   6.199
 4610POPC   D2A58444  28.879   0.447   6.591
 4610POPC   C3A58445  28.611   0.272   6.942
 4610POPC   C4A58446  28.458   0.416   7.340
 4610POPC   C1B58447  27.926   0.227   6.186
 4610POPC   C2B58448  27.886   0.089   6.632
 4610POPC   C3B58449  28.082   0.282   7.002
 4610POPC   C4B58450  28.002   0.227   7.443
 4611POPC   NC358451  40.862  31.040   5.464
 4611POPC   PO458452  40.652  30.359   5.484
 4611POPC   GL158453  40.827  30.607   5.804
 4611POPC   GL258454  40.539  30.808   5.798
 4611POPC   C1A58455  40.795  30.672   6.260
 4611POPC   D2A58456  41.021  30.528   6.625
 4611POPC   C3A58457  40.916  30.626   7.076
 4611POPC   C4A58458  41.119  30.865   7.443
 4611POPC   C1B58459  40.360  31.030   6.117
 4611POPC   C2B58460  40.386  30.878   6.512
 4611POPC   C3B58461  40.512  30.932   6.883
 4611POPC   C4B58462  40.638  31.008   7.249
 4612POPC   NC358463   9.079  22.880   5.277
 4612POPC   PO458464   9.137  22.304   5.569
 4612POPC   GL158465   8.921  22.702   5.770
 4612POPC   GL258466   9.081  23.048   5.753
 4612POPC   C1A58467   8.776  22.881   6.178
 4612POPC   D2A58468   8.922  22.998   6.594
 4612POPC   C3A58469   8.930  22.880   7.026
 4612POPC   C4A58470   9.333  22.713   7.186
 4612POPC   C1B58471   9.094  23.279   6.143
 4612POPC   C2B58472   9.221  23.401   6.544
 4612POPC   C3B58473   9.111  23.346   6.945
 4612POPC   C4B58474   8.850  23.416   7.270
 4613POPC   NC358475   9.129  12.639   5.263
 4613POPC   PO458476   8.809  13.117   5.471
 4613POPC   GL158477   9.074  12.878   5.770
 4613POPC   GL258478   9.243  12.528   5.763
 4613POPC   C1A58479   8.865  12.663   6.143
 4613POPC   D2A58480   8.614  12.761   6.535
 4613POPC   C3A58481   8.803  12.771   6.950
 4613POPC   C4A58482   8.728  12.947   7.360
 4613POPC   C1B58483   9.366  12.716   6.173
 4613POPC   C2B58484   9.150  12.858   6.554
 4613POPC   C3B58485   9.271  12.956   6.997
 4613POPC   C4B58486   9.224  12.857   7.455
 4614POPC   NC358487  30.745   6.167   5.383
 4614POPC   PO458488  30.608   5.514   5.337
 4614POPC   GL158489  30.776   5.792   5.713
 4614POPC   GL258490  30.600   6.081   5.855
 4614POPC   C1A58491  31.038   5.801   6.097
 4614POPC   D2A58492  30.960   5.567   6.481
 4614POPC   C3A58493  30.924   5.770   6.904
 4614POPC   C4A58494  30.931   5.597   7.303
 4614POPC   C1B58495  30.756   6.208   6.179
 4614POPC   C2B58496  30.712   6.023   6.518
 4614POPC   C3B58497  30.541   6.117   6.877
 4614POPC   C4B58498  30.616   6.004   7.284
 4615POPC   NC358499  37.749  43.312   5.263
 4615POPC   PO458500  37.686  42.718   5.519
 4615POPC   GL158501  37.705  43.094   5.758
 4615POPC   GL258502  37.411  43.323   5.681
 4615POPC   C1A58503  37.782  43.102   6.199
 4615POPC   D2A58504  37.880  43.186   6.619
 4615POPC   C3A58505  37.691  42.931   6.916
 4615POPC   C4A58506  37.749  42.658   7.230
 4615POPC   C1B58507  37.436  43.482   6.102
 4615POPC   C2B58508  37.389  43.316   6.516
 4615POPC   C3B58509  37.294  43.298   6.954
 4615POPC   C4B58510  37.398  43.400   7.388
 4616POPC   NC358511  44.137  28.319   5.261
 4616POPC   PO458512  43.680  27.924   5.487
 4616POPC   GL158513  43.842  28.232   5.788
 4616POPC   GL258514  44.167  28.206   5.772
 4616POPC   C1A58515  43.822  28.482   6.192
 4616POPC   D2A58516  43.749  28.325   6.619
 4616POPC   C3A58517  43.921  28.556   6.955
 4616POPC   C4A58518  44.041  28.478   7.405
 4616POPC   C1B58519  44.121  28.055   6.211
 4616POPC   C2B58520  44.260  28.201   6.631
 4616POPC   C3B58521  44.208  28.147   7.063
 4616POPC   C4B58522  44.471  28.149   7.471
 4617POPC   NC358523  30.625  38.955   5.384
 4617POPC   PO458524  30.611  39.583   5.456
 4617POPC   GL158525  30.812  39.501   5.832
 4617POPC   GL258526  30.833  39.137   5.809
 4617POPC   C1A58527  30.940  39.411   6.235
 4617POPC   D2A58528  30.936  39.251   6.620
 4617POPC   C3A58529  31.074  39.383   7.027
 4617POPC   C4A58530  30.848  39.381   7.446
 4617POPC   C1B58531  30.710  38.921   6.171
 4617POPC   C2B58532  30.533  38.942   6.579
 4617POPC   C3B58533  30.614  39.127   6.991
 4617POPC   C4B58534  30.580  38.931   7.342
 4618POPC   NC358535   2.353  14.703   5.333
 4618POPC   PO458536   1.864  14.202   5.219
 4618POPC   GL158537   2.016  14.281   5.657
 4618POPC   GL258538   1.853  14.604   5.780
 4618POPC   C1A58539   1.982  14.235   6.117
 4618POPC   D2A58540   1.787  13.996   6.437
 4618POPC   C3A58541   1.950  14.043   6.830
 4618POPC   C4A58542   2.016  14.233   7.250
 4618POPC   C1B58543   2.199  14.714   5.997
 4618POPC   C2B58544   2.272  14.659   6.421
 4618POPC   C3B58545   2.160  14.500   6.791
 4618POPC   C4B58546   2.004  14.728   7.106
 4619POPC   NC358547   2.887   5.610   5.493
 4619POPC   PO458548   2.453   6.090   5.438
 4619POPC   GL158549   2.630   5.927   5.787
 4619POPC   GL258550   3.004   6.010   5.783
 4619POPC   C1A58551   2.496   5.705   6.149
 4619POPC   D2A58552   2.647   5.698   6.547
 4619POPC   C3A58553   2.446   5.861   6.864
 4619POPC   C4A58554   2.572   5.982   7.253
 4619POPC   C1B58555   2.927   6.009   6.222
 4619POPC   C2B58556   2.833   6.188   6.641
 4619POPC   C3B58557   3.001   6.097   7.028
 4619POPC   C4B58558   3.086   6.300   7.448
 4620POPC   NC358559  20.347  10.497   5.376
 4620POPC   PO458560  19.649  10.381   5.387
 4620POPC   GL158561  19.705  10.580   5.780
 4620POPC   GL258562  20.046  10.637   5.773
 4620POPC   C1A58563  19.706  10.455   6.219
 4620POPC   D2A58564  19.425  10.438   6.578
 4620POPC   C3A58565  19.555  10.551   6.989
 4620POPC   C4A58566  19.705  10.339   7.318
 4620POPC   C1B58567  20.172  10.700   6.198
 4620POPC   C2B58568  20.132  10.450   6.544
 4620POPC   C3B58569  20.059  10.372   6.957
 4620POPC   C4B58570  20.309  10.197   7.293
 4621POPC   NC358571   5.046  23.612   5.287
 4621POPC   PO458572   4.938  24.235   5.495
 4621POPC   GL158573   4.996  23.856   5.785
 4621POPC   GL258574   4.915  23.478   5.837
 4621POPC   C1A58575   4.916  23.792   6.238
 4621POPC   D2A58576   4.820  23.543   6.611
 4621POPC   C3A58577   4.922  23.772   6.988
 4621POPC   C4A58578   5.033  23.763   7.412
 4621POPC   C1B58579   5.158  23.318   6.225
 4621POPC   C2B58580   5.447  23.275   6.576
 4621POPC   C3B58581   5.344  23.463   6.946
 4621POPC   C4B58582   5.035  23.316   7.189
 4622POPC   NC358583  30.233  36.624   5.497
 4622POPC   PO458584  29.586  36.524   5.557
 4622POPC   GL158585  29.826  36.199   5.779
 4622POPC   GL258586  29.658  35.854   5.763
 4622POPC   C1A58587  30.089  36.165   6.180
 4622POPC   D2A58588  30.111  36.345   6.604
 4622POPC   C3A58589  29.896  36.243   6.996
 4622POPC   C4A58590  29.531  36.395   7.251
 4622POPC   C1B58591  29.866  35.707   6.145
 4622POPC   C2B58592  29.943  35.855   6.595
 4622POPC   C3B58593  29.709  35.772   6.992
 4622POPC   C4B58594  29.727  35.829   7.448
 4623POPC   NC358595   0.383  25.053   5.273
 4623POPC   PO458596   0.439  25.652   5.659
 4623POPC   GL158597   0.432  25.205   5.773
 4623POPC   GL258598   0.708  24.990   5.665
 4623POPC   C1A58599   0.359  25.204   6.217
 4623POPC   D2A58600   0.109  25.132   6.571
 4623POPC   C3A58601   0.370  25.078   6.952
 4623POPC   C4A58602   0.528  25.462   7.130
 4623POPC   C1B58603   0.809  24.958   6.115
 4623POPC   C2B58604   0.769  25.148   6.535
 4623POPC   C3B58605   0.915  25.041   6.932
 4623POPC   C4B58606   0.781  25.079   7.331
 4624POPC   NC358607  29.826  42.734   5.598
 4624POPC   PO458608  29.734  42.121   5.511
 4624POPC   GL158609  30.008  42.180   5.861
 4624POPC   GL258610  29.714  42.320   6.032
 4624POPC   C1A58611  30.087  42.026   6.287
 4624POPC   D2A58612  29.852  42.260   6.637
 4624POPC   C3A58613  29.972  42.145   7.065
 4624POPC   C4A58614  30.292  41.855   7.229
 4624POPC   C1B58615  30.070  42.535   6.237
 4624POPC   C2B58616  30.195  42.672   6.640
 4624POPC   C3B58617  30.124  42.665   7.077
 4624POPC   C4B58618  30.144  42.415   7.477
 4625POPC   NC358619   7.334   9.178   5.387
 4625POPC   PO458620   7.888   8.784   5.558
 4625POPC   GL158621   7.526   8.940   5.796
 4625POPC   GL258622   7.227   8.780   5.680
 4625POPC   C1A58623   7.421   9.113   6.220
 4625POPC   D2A58624   7.230   9.185   6.635
 4625POPC   C3A58625   7.323   8.980   7.022
 4625POPC   C4A58626   7.624   8.895   7.349
 4625POPC   C1B58627   7.194   8.639   6.102
 4625POPC   C2B58628   7.331   8.447   6.476
 4625POPC   C3B58629   7.452   8.483   6.876
 4625POPC   C4B58630   7.248   8.524   7.246
 4626POPC   NC358631  30.083  35.217   5.266
 4626POPC   PO458632  29.557  35.566   5.344
 4626POPC   GL158633  29.774  35.317   5.664
 4626POPC   GL258634  30.117  35.373   5.770
 4626POPC   C1A58635  29.708  35.208   6.107
 4626POPC   D2A58636  29.662  35.424   6.510
 4626POPC   C3A58637  29.660  35.260   6.910
 4626POPC   C4A58638  29.870  35.374   7.265
 4626POPC   C1B58639  30.192  35.113   6.141
 4626POPC   C2B58640  29.989  34.977   6.538
 4626POPC   C3B58641  30.065  34.976   7.007
 4626POPC   C4B58642  30.320  35.173   7.357
 4627POPC   NC358643   4.199  23.987   5.458
 4627POPC   PO458644   4.557  23.398   5.298
 4627POPC   GL158645   4.447  23.625   5.741
 4627POPC   GL258646   4.131  23.799   5.950
 4627POPC   C1A58647   4.455  23.508   6.187
 4627POPC   D2A58648   4.130  23.540   6.518
 4627POPC   C3A58649   4.355  23.679   6.848
 4627POPC   C4A58650   4.531  23.595   7.240
 4627POPC   C1B58651   4.195  23.999   6.347
 4627POPC   C2B58652   4.134  24.162   6.764
 4627POPC   C3B58653   4.291  24.069   7.171
 4627POPC   C4B58654   4.704  24.138   7.305
 4628POPC   NC358655  20.967  11.279   5.348
 4628POPC   PO458656  20.486  10.869   5.638
 4628POPC   GL158657  20.630  11.285   5.757
 4628POPC   GL258658  20.935  11.168   5.923
 4628POPC   C1A58659  20.736  11.578   6.118
 4628POPC   D2A58660  20.876  11.406   6.521
 4628POPC   C3A58661  20.583  11.424   6.834
 4628POPC   C4A58662  20.718  11.563   7.220
 4628POPC   C1B58663  20.558  11.089   6.246
 4628POPC   C2B58664  20.350  10.942   6.638
 4628POPC   C3B58665  20.450  10.980   7.075
 4628POPC   C4B58666  20.230  11.322   7.236
 4629POPC   NC358667   1.456  32.407   5.327
 4629POPC   PO458668   1.010  32.090   5.645
 4629POPC   GL158669   0.919  32.328   5.931
 4629POPC   GL258670   1.139  32.587   5.746
 4629POPC   C1A58671   0.980  32.199   6.357
 4629POPC   D2A58672   1.244  31.997   6.609
 4629POPC   C3A58673   1.242  32.198   7.002
 4629POPC   C4A58674   1.178  31.985   7.368
 4629POPC   C1B58675   1.216  32.629   6.195
 4629POPC   C2B58676   1.389  32.541   6.612
 4629POPC   C3B58677   1.428  32.708   7.023
 4629POPC   C4B58678   1.172  32.636   7.383
 4630POPC   NC358679  20.066   4.018   5.171
 4630POPC   PO458680  19.949   3.342   5.419
 4630POPC   GL158681  19.760   3.476   5.775
 4630POPC   GL258682  19.650   3.776   5.719
 4630POPC   C1A58683  19.673   3.324   6.156
 4630POPC   D2A58684  19.851   3.139   6.496
 4630POPC   C3A58685  19.645   3.224   6.918
 4630POPC   C4A58686  19.902   3.325   7.287
 4630POPC   C1B58687  19.714   3.835   6.167
 4630POPC   C2B58688  19.773   3.633   6.561
 4630POPC   C3B58689  19.750   3.734   6.993
 4630POPC   C4B58690  19.910   3.833   7.386
 4631POPC   NC358691  22.770  37.127   5.486
 4631POPC   PO458692  23.001  36.378   5.477
 4631POPC   GL158693  23.111  36.714   5.771
 4631POPC   GL258694  22.771  36.759   5.875
 4631POPC   C1A58695  23.124  37.011   6.132
 4631POPC   D2A58696  22.908  36.997   6.534
 4631POPC   C3A58697  23.042  36.940   6.932
 4631POPC   C4A58698  22.961  36.894   7.353
 4631POPC   C1B58699  22.625  37.140   6.138
 4631POPC   C2B58700  22.494  37.287   6.582
 4631POPC   C3B58701  22.558  37.135   7.029
 4631POPC   C4B58702  22.513  37.068   7.496
 4632POPC   NC358703  28.109  17.327   5.349
 4632POPC   PO458704  28.522  17.801   5.316
 4632POPC   GL158705  28.614  17.558   5.695
 4632POPC   GL258706  28.288  17.421   5.825
 4632POPC   C1A58707  28.796  17.476   6.120
 4632POPC   D2A58708  28.588  17.331   6.496
 4632POPC   C3A58709  28.542  17.625   6.828
 4632POPC   C4A58710  28.293  17.439   7.109
 4632POPC   C1B58711  27.988  17.680   6.061
 4632POPC   C2B58712  27.845  17.612   6.492
 4632POPC   C3B58713  27.896  17.744   6.924
 4632POPC   C4B58714  28.195  17.907   7.246
 4633POPC   NC358715   5.604  44.268   5.408
 4633POPC   PO458716   5.851  43.779   5.372
 4633POPC   GL158717   5.824  43.909   5.795
 4633POPC   GL258718   5.930  43.588   5.884
 4633POPC   C1A58719   5.711  44.078   6.210
 4633POPC   D2A58720   5.852  44.260   6.613
 4633POPC   C3A58721   5.727  43.978   6.960
 4633POPC   C4A58722   5.910  43.644   7.221
 4633POPC   C1B58723   5.973  43.406   6.277
 4633POPC   C2B58724   5.888  43.383   6.704
 4633POPC   C3B58725   6.139  43.233   7.017
 4633POPC   C4B58726   6.400  43.482   7.316
 4634POPC   NC358727  17.773  16.020   5.598
 4634POPC   PO458728  17.308  15.662   5.593
 4634POPC   GL158729  17.467  15.705   5.962
 4634POPC   GL258730  17.807  15.617   5.913
 4634POPC   C1A58731  17.309  15.972   6.294
 4634POPC   D2A58732  17.544  16.257   6.580
 4634POPC   C3A58733  17.428  16.150   6.983
 4634POPC   C4A58734  17.209  15.801   7.115
 4634POPC   C1B58735  17.801  15.836   6.326
 4634POPC   C2B58736  17.545  15.701   6.670
 4634POPC   C3B58737  17.682  15.584   7.059
 4634POPC   C4B58738  17.679  15.899   7.367
 4635POPC   NC358739   6.907  13.172   5.598
 4635POPC   PO458740   6.542  12.739   5.240
 4635POPC   GL158741   6.591  12.794   5.725
 4635POPC   GL258742   6.466  13.117   5.844
 4635POPC   C1A58743   6.851  12.869   6.153
 4635POPC   D2A58744   6.778  13.092   6.569
 4635POPC   C3A58745   6.663  12.766   6.843
 4635POPC   C4A58746   6.924  12.660   7.153
 4635POPC   C1B58747   6.371  13.028   6.264
 4635POPC   C2B58748   6.173  12.985   6.671
 4635POPC   C3B58749   6.380  13.133   7.041
 4635POPC   C4B58750   6.768  13.132   7.255
 4636POPC   NC358751  37.639   8.755   5.609
 4636POPC   PO458752  37.956   9.259   5.446
 4636POPC   GL158753  37.587   9.269   5.739
 4636POPC   GL258754  37.757   9.076   5.976
 4636POPC   C1A58755  37.384   9.316   6.187
 4636POPC   D2A58756  37.583   9.181   6.595
 4636POPC   C3A58757  37.390   9.129   6.991
 4636POPC   C4A58758  37.560   9.144   7.393
 4636POPC   C1B58759  37.520   8.788   6.289
 4636POPC   C2B58760  37.550   8.673   6.761
 4636POPC   C3B58761  37.739   8.680   7.198
 4636POPC   C4B58762  38.027   8.629   7.603
 4637POPC   NC358763  44.221  41.683   5.450
 4637POPC   PO458764  43.510  41.617   5.394
 4637POPC   GL158765  43.740  41.688   5.808
 4637POPC   GL258766  43.952  41.379   5.815
 4637POPC   C1A58767  43.668  41.811   6.285
 4637POPC   D2A58768  43.474  41.631   6.693
 4637POPC   C3A58769  43.752  41.513   7.050
 4637POPC   C4A58770  44.190  41.582   7.095
 4637POPC   C1B58771  43.716  41.314   6.180
 4637POPC   C2B58772  43.885  41.355   6.583
 4637POPC   C3B58773  43.905  41.053   6.918
 4637POPC   C4B58774  43.709  40.862   7.262
 4638POPC   NC358775   7.619  13.808   5.301
 4638POPC   PO458776   7.248  13.244   5.290
 4638POPC   GL158777   7.397  13.461   5.646
 4638POPC   GL258778   7.150  13.707   5.579
 4638POPC   C1A58779   7.607  13.527   6.063
 4638POPC   D2A58780   7.721  13.361   6.493
 4638POPC   C3A58781   7.573  13.487   6.925
 4638POPC   C4A58782   7.452  13.697   7.303
 4638POPC   C1B58783   7.138  13.711   6.026
 4638POPC   C2B58784   7.226  13.602   6.453
 4638POPC   C3B58785   7.225  13.833   6.841
 4638POPC   C4B58786   6.986  13.833   7.202
 4639POPC   NC358787  10.476  31.223   5.370
 4639POPC   PO458788  10.764  31.853   5.222
 4639POPC   GL158789  10.503  31.694   5.624
 4639POPC   GL258790  10.679  31.455   5.843
 4639POPC   C1A58791  10.281  31.636   6.096
 4639POPC   D2A58792  10.378  31.418   6.532
 4639POPC   C3A58793  10.537  31.425   6.991
 4639POPC   C4A58794  10.388  31.335   7.439
 4639POPC   C1B58795  10.944  31.349   6.210
 4639POPC   C2B58796  10.944  31.286   6.658
 4639POPC   C3B58797  11.059  31.248   7.068
 4639POPC   C4B58798  10.888  31.355   7.455
 4640POPC   NC358799  24.516  27.846   5.469
 4640POPC   PO458800  24.365  27.119   5.440
 4640POPC   GL158801  24.496  27.359   5.782
 4640POPC   GL258802  24.233  27.562   5.903
 4640POPC   C1A58803  24.706  27.534   6.158
 4640POPC   D2A58804  24.487  27.593   6.537
 4640POPC   C3A58805  24.586  27.468   6.939
 4640POPC   C4A58806  24.688  27.663   7.302
 4640POPC   C1B58807  24.033  27.703   6.287
 4640POPC   C2B58808  24.171  27.989   6.607
 4640POPC   C3B58809  24.339  27.938   6.998
 4640POPC   C4B58810  24.190  27.708   7.306
 4641POPC   NC358811  39.381  38.150   5.095
 4641POPC   PO458812  39.002  37.714   5.409
 4641POPC   GL158813  39.241  37.827   5.758
 4641POPC   GL258814  38.890  37.846   5.895
 4641POPC   C1A58815  39.317  37.682   6.168
 4641POPC   D2A58816  39.399  37.416   6.524
 4641POPC   C3A58817  39.560  37.636   6.897
 4641POPC   C4A58818  39.495  37.497   7.322
 4641POPC   C1B58819  38.835  37.846   6.306
 4641POPC   C2B58820  39.121  37.836   6.637
 4641POPC   C3B58821  39.088  37.694   7.043
 4641POPC   C4B58822  39.004  37.924   7.378
 4642POPC   NC358823  11.885  30.125   5.469
 4642POPC   PO458824  12.238  29.639   5.540
 4642POPC   GL158825  12.085  29.856   5.843
 4642POPC   GL258826  12.344  30.127   5.810
 4642POPC   C1A58827  11.920  30.061   6.193
 4642POPC   D2A58828  11.714  29.981   6.598
 4642POPC   C3A58829  11.806  29.736   6.954
 4642POPC   C4A58830  11.826  29.958   7.326
 4642POPC   C1B58831  12.418  29.900   6.211
 4642POPC   C2B58832  12.220  29.869   6.583
 4642POPC   C3B58833  12.217  30.030   6.963
 4642POPC   C4B58834  12.282  29.742   7.239
 4643POPC   NC358835   0.654  41.170   5.389
 4643POPC   PO458836   0.544  40.532   5.542
 4643POPC   GL158837   0.513  40.840   5.798
 4643POPC   GL258838   0.840  40.973   5.813
 4643POPC   C1A58839   0.352  40.765   6.197
 4643POPC   D2A58840   0.267  40.952   6.593
 4643POPC   C3A58841   0.452  40.812   6.984
 4643POPC   C4A58842   0.319  40.642   7.362
 4643POPC   C1B58843   0.693  41.147   6.220
 4643POPC   C2B58844   0.779  41.046   6.657
 4643POPC   C3B58845   0.761  41.220   7.080
 4643POPC   C4B58846   0.537  41.098   7.443
 4644POPC   NC358847  14.666   4.492   5.324
 4644POPC   PO458848  14.023   4.296   5.422
 4644POPC   GL158849  14.339   4.425   5.754
 4644POPC   GL258850  14.553   4.140   5.787
 4644POPC   C1A58851  14.333   4.336   6.221
 4644POPC   D2A58852  14.583   4.365   6.614
 4644POPC   C3A58853  14.351   4.289   7.005
 4644POPC   C4A58854  14.041   4.556   7.173
 4644POPC   C1B58855  14.790   4.453   6.066
 4644POPC   C2B58856  15.026   4.584   6.429
 4644POPC   C3B58857  15.010   4.546   6.879
 4644POPC   C4B58858  14.834   4.281   7.207
 4645POPC   NC358859  30.533  17.268   5.199
 4645POPC   PO458860  30.722  17.882   5.131
 4645POPC   GL158861  30.847  17.605   5.517
 4645POPC   GL258862  30.556  17.447   5.681
 4645POPC   C1A58863  30.959  17.457   5.975
 4645POPC   D2A58864  30.809  17.480   6.420
 4645POPC   C3A58865  30.904  17.365   6.839
 4645POPC   C4A58866  30.722  17.409   7.248
 4645POPC   C1B58867  30.365  17.398   6.108
 4645POPC   C2B58868  30.333  17.674   6.482
 4645POPC   C3B58869  30.374  17.549   6.868
 4645POPC   C4B58870  30.217  17.481   7.260
 4646POPC   NC358871  37.773  20.222   5.275
 4646POPC   PO458872  37.534  19.625   5.493
 4646POPC   GL158873  37.682  19.763   5.848
 4646POPC   GL258874  37.753  20.080   5.756
 4646POPC   C1A58875  37.659  19.766   6.285
 4646POPC   D2A58876  37.538  19.765   6.671
 4646POPC   C3A58877  37.749  19.573   7.001
 4646POPC   C4A58878  37.571  19.749   7.344
 4646POPC   C1B58879  37.761  20.247   6.143
 4646POPC   C2B58880  37.921  20.144   6.559
 4646POPC   C3B58881  37.771  20.109   6.969
 4646POPC   C4B58882  38.007  20.043   7.303
 4647POPC   NC358883   3.557  40.029   5.199
 4647POPC   PO458884   3.718  40.680   5.254
 4647POPC   GL158885   3.559  40.361   5.627
 4647POPC   GL258886   3.800  40.341   5.902
 4647POPC   C1A58887   3.337  40.211   6.054
 4647POPC   D2A58888   3.422  40.266   6.516
 4647POPC   C3A58889   3.376  40.063   6.907
 4647POPC   C4A58890   3.304  39.876   7.296
 4647POPC   C1B58891   3.836  40.080   6.268
 4647POPC   C2B58892   3.894  40.076   6.733
 4647POPC   C3B58893   3.807  39.929   7.164
 4647POPC   C4B58894   3.653  40.167   7.537
 4648POPC   NC358895  34.107  13.010   5.361
 4648POPC   PO458896  33.642  12.451   5.338
 4648POPC   GL158897  33.765  12.747   5.644
 4648POPC   GL258898  33.642  13.083   5.711
 4648POPC   C1A58899  34.015  12.819   6.028
 4648POPC   D2A58900  33.995  12.594   6.432
 4648POPC   C3A58901  34.065  12.861   6.787
 4648POPC   C4A58902  34.045  12.815   7.221
 4648POPC   C1B58903  33.487  12.778   6.074
 4648POPC   C2B58904  33.423  12.672   6.514
 4648POPC   C3B58905  33.538  12.796   6.923
 4648POPC   C4B58906  33.617  13.175   7.096
 4649POPC   NC358907  34.169   8.261   5.191
 4649POPC   PO458908  33.545   8.513   5.423
 4649POPC   GL158909  33.779   8.556   5.814
 4649POPC   GL258910  33.751   8.239   5.832
 4649POPC   C1A58911  33.939   8.429   6.250
 4649POPC   D2A58912  33.792   8.220   6.596
 4649POPC   C3A58913  33.855   8.399   6.968
 4649POPC   C4A58914  33.440   8.293   7.145
 4649POPC   C1B58915  33.622   8.023   6.158
 4649POPC   C2B58916  33.775   7.714   6.404
 4649POPC   C3B58917  34.002   7.766   6.755
 4649POPC   C4B58918  33.781   7.909   7.101
 4650POPC   NC358919  14.495  28.063   5.441
 4650POPC   PO458920  14.623  28.721   5.359
 4650POPC   GL158921  14.445  28.496   5.715
 4650POPC   GL258922  14.490  28.692   5.923
 4650POPC   C1A58923  14.219  28.294   6.094
 4650POPC   D2A58924  14.168  28.043   6.455
 4650POPC   C3A58925  14.274  28.224   6.851
 4650POPC   C4A58926  14.486  28.235   7.245
 4650POPC   C1B58927  14.484  28.639   6.360
 4650POPC   C2B58928  14.175  28.689   6.643
 4650POPC   C3B58929  14.252  28.697   7.074
 4650POPC   C4B58930  14.470  28.693   7.467
 4651POPC   NC358931   0.381   2.106   5.411
 4651POPC   PO458932   0.621   1.517   5.645
 4651POPC   GL158933   0.361   1.706   5.976
 4651POPC   GL258934   0.084   1.893   5.829
 4651POPC   C1A58935   0.345   2.005   6.338
 4651POPC   D2A58936   0.688   2.134   6.615
 4651POPC   C3A58937   0.647   1.950   7.031
 4651POPC   C4A58938   0.280   1.816   7.254
 4651POPC   C1B58939  44.968   2.279   6.100
 4651POPC   C2B58940  44.983   2.396   6.531
 4651POPC   C3B58941   0.163   2.209   6.882
 4651POPC   C4B58942   0.116   2.356   7.284
 4652POPC   NC358943  20.012  27.962   5.357
 4652POPC   PO458944  19.404  27.976   5.495
 4652POPC   GL158945  19.454  27.809   5.901
 4652POPC   GL258946  19.670  27.561   5.851
 4652POPC   C1A58947  19.664  27.701   6.330
 4652POPC   D2A58948  20.005  27.829   6.600
 4652POPC   C3A58949  19.810  27.779   6.977
 4652POPC   C4A58950  19.924  27.535   7.252
 4652POPC   C1B58951  19.446  27.289   6.135
 4652POPC   C2B58952  19.348  27.225   6.549
 4652POPC   C3B58953  19.569  27.305   6.915
 4652POPC   C4B58954  19.465  27.287   7.314
 4653POPC   NC358955  38.008  14.516   5.198
 4653POPC   PO458956  37.913  13.865   5.449
 4653POPC   GL158957  38.124  14.145   5.780
 4653POPC   GL258958  38.127  14.524   5.711
 4653POPC   C1A58959  38.499  14.220   6.105
 4653POPC   D2A58960  38.681  14.031   6.508
 4653POPC   C3A58961  38.529  14.214   6.910
 4653POPC   C4A58962  38.226  14.391   7.172
 4653POPC   C1B58963  38.466  14.706   5.974
 4653POPC   C2B58964  38.576  14.638   6.425
 4653POPC   C3B58965  38.540  14.747   6.863
 4653POPC   C4B58966  38.644  14.632   7.282
 4654POPC   NC358967  32.465  35.969   5.538
 4654POPC   PO458968  32.092  36.478   5.353
 4654POPC   GL158969  32.320  36.369   5.826
 4654POPC   GL258970  32.375  35.994   6.024
 4654POPC   C1A58971  32.315  36.389   6.312
 4654POPC   D2A58972  32.539  36.180   6.683
 4654POPC   C3A58973  32.414  36.358   7.074
 4654POPC   C4A58974  32.001  36.322   7.235
 4654POPC   C1B58975  32.110  35.911   6.403
 4654POPC   C2B58976  32.072  35.985   6.858
 4654POPC   C3B58977  32.302  35.841   7.250
 4654POPC   C4B58978  32.441  35.777   7.701
 4655POPC   NC358979  26.065   1.275   5.441
 4655POPC   PO458980  26.591   1.600   5.584
 4655POPC   GL158981  26.261   1.453   5.880
 4655POPC   GL258982  26.078   1.094   5.904
 4655POPC   C1A58983  26.221   1.360   6.306
 4655POPC   D2A58984  26.176   1.131   6.651
 4655POPC   C3A58985  26.142   1.454   6.947
 4655POPC   C4A58986  26.058   1.290   7.316
 4655POPC   C1B58987  25.969   0.823   6.239
 4655POPC   C2B58988  25.774   0.763   6.640
 4655POPC   C3B58989  25.936   0.843   7.035
 4655POPC   C4B58990  26.290   0.780   7.278
 4656POPC   NC358991  35.722   6.738   5.409
 4656POPC   PO458992  35.209   6.328   5.582
 4656POPC   GL158993  35.465   6.584   5.855
 4656POPC   GL258994  35.561   6.975   5.822
 4656POPC   C1A58995  35.511   6.370   6.265
 4656POPC   D2A58996  35.263   6.386   6.666
 4656POPC   C3A58997  35.559   6.330   7.018
 4656POPC   C4A58998  35.631   6.592   7.413
 4656POPC   C1B58999  35.648   6.861   6.245
 4656POPC   C2B59000  35.672   6.684   6.640
 4656POPC   C3B59001  35.473   6.833   6.986
 4656POPC   C4B59002  35.673   7.089   7.251
 4657POPC   NC359003  32.604  13.744   5.604
 4657POPC   PO459004  31.994  13.352   5.524
 4657POPC   GL159005  32.126  13.663   5.829
 4657POPC   GL259006  32.268  13.407   6.062
 4657POPC   C1A59007  32.055  13.891   6.231
 4657POPC   D2A59008  32.146  13.640   6.614
 4657POPC   C3A59009  32.181  13.775   7.039
 4657POPC   C4A59010  32.011  13.482   7.316
 4657POPC   C1B59011  32.539  13.687   6.284
 4657POPC   C2B59012  32.667  13.712   6.691
 4657POPC   C3B59013  32.711  13.620   7.100
 4657POPC   C4B59014  32.482  13.654   7.474
 4658POPC   NC359015  27.775  14.120   5.308
 4658POPC   PO459016  27.174  14.417   5.441
 4658POPC   GL159017  27.474  14.522   5.732
 4658POPC   GL259018  27.652  14.215   5.790
 4658POPC   C1A59019  27.355  14.696   6.127
 4658POPC   D2A59020  27.582  14.733   6.508
 4658POPC   C3A59021  27.384  14.676   6.899
 4658POPC   C4A59022  27.588  14.495   7.212
 4658POPC   C1B59023  27.729  14.344   6.208
 4658POPC   C2B59024  27.579  14.243   6.591
 4658POPC   C3B59025  27.363  14.145   6.914
 4658POPC   C4B59026  27.447  13.957   7.267
 4659POPC   NC359027  34.421  31.626   5.404
 4659POPC   PO459028  34.856  31.082   5.342
 4659POPC   GL159029  34.792  31.360   5.735
 4659POPC   GL259030  34.444  31.340   5.844
 4659POPC   C1A59031  34.827  31.498   6.212
 4659POPC   D2A59032  34.887  31.708   6.656
 4659POPC   C3A59033  34.668  31.472   7.008
 4659POPC   C4A59034  34.274  31.472   7.201
 4659POPC   C1B59035  34.313  31.649   6.174
 4659POPC   C2B59036  34.183  31.956   6.514
 4659POPC   C3B59037  34.026  31.891   6.938
 4659POPC   C4B59038  34.218  31.969   7.348
 4660POPC   NC359039  21.847  33.913   5.314
 4660POPC   PO459040  22.516  34.066   5.408
 4660POPC   GL159041  22.289  33.908   5.794
 4660POPC   GL259042  21.942  33.960   5.800
 4660POPC   C1A59043  22.169  33.930   6.259
 4660POPC   D2A59044  22.477  34.020   6.583
 4660POPC   C3A59045  22.316  34.140   6.966
 4660POPC   C4A59046  22.111  33.897   7.268
 4660POPC   C1B59047  21.859  33.574   6.034
 4660POPC   C2B59048  21.835  33.498   6.477
 4660POPC   C3B59049  21.833  33.686   6.896
 4660POPC   C4B59050  21.789  33.487   7.308
 4661POPC   NC359051  17.828   6.570   5.534
 4661POPC   PO459052  17.181   6.912   5.476
 4661POPC   GL159053  17.471   6.857   5.802
 4661POPC   GL259054  17.405   6.489   5.847
 4661POPC   C1A59055  17.606   6.803   6.246
 4661POPC   D2A59056  17.579   6.489   6.590
 4661POPC   C3A59057  17.665   6.649   7.019
 4661POPC   C4A59058  17.777   7.026   7.248
 4661POPC   C1B59059  17.118   6.652   6.148
 4661POPC   C2B59060  16.883   6.532   6.524
 4661POPC   C3B59061  17.146   6.498   6.910
 4661POPC   C4B59062  17.237   6.713   7.313
 4662POPC   NC359063  37.567  39.552   5.418
 4662POPC   PO459064  37.960  38.994   5.484
 4662POPC   GL159065  37.688  39.191   5.772
 4662POPC   GL259066  37.807  39.519   5.870
 4662POPC   C1A59067  37.648  39.153   6.217
 4662POPC   D2A59068  37.462  38.982   6.579
 4662POPC   C3A59069  37.657  38.989   7.002
 4662POPC   C4A59070  38.085  39.016   7.159
 4662POPC   C1B59071  37.695  39.651   6.268
 4662POPC   C2B59072  37.746  39.440   6.674
 4662POPC   C3B59073  37.478  39.479   7.012
 4662POPC   C4B59074  37.542  39.712   7.359
 4663POPC   NC359075  25.448  24.683   5.425
 4663POPC   PO459076  25.547  24.072   5.667
 4663POPC   GL159077  25.218  24.399   5.792
 4663POPC   GL259078  24.973  24.260   6.009
 4663POPC   C1A59079  25.111  24.734   6.136
 4663POPC   D2A59080  24.949  24.697   6.589
 4663POPC   C3A59081  25.057  24.551   7.005
 4663POPC   C4A59082  25.417  24.686   7.238
 4663POPC   C1B59083  25.384  24.320   6.280
 4663POPC   C2B59084  25.515  24.406   6.714
 4663POPC   C3B59085  25.408  24.185   7.072
 4663POPC   C4B59086  25.239  24.249   7.456
 4664POPC   NC359087   2.697   8.400   5.411
 4664POPC   PO459088   2.411   7.745   5.463
 4664POPC   GL159089   2.563   7.928   5.840
 4664POPC   GL259090   2.885   8.091   5.799
 4664POPC   C1A59091   2.712   8.001   6.283
 4664POPC   D2A59092   2.944   7.925   6.683
 4664POPC   C3A59093   2.714   8.015   7.093
 4664POPC   C4A59094   2.521   8.446   7.207
 4664POPC   C1B59095   2.996   8.415   6.114
 4664POPC   C2B59096   2.876   8.463   6.561
 4664POPC   C3B59097   3.037   8.376   6.973
 4664POPC   C4B59098   2.949   8.341   7.452
 4665POPC   NC359099  34.913  37.072   5.430
 4665POPC   PO459100  34.404  36.595   5.330
 4665POPC   GL159101  34.507  36.965   5.674
 4665POPC   GL259102  34.786  36.751   5.819
 4665POPC   C1A59103  34.577  37.125   6.126
 4665POPC   D2A59104  34.644  36.906   6.536
 4665POPC   C3A59105  34.462  36.963   6.928
 4665POPC   C4A59106  34.489  37.270   7.230
 4665POPC   C1B59107  35.017  36.799   6.212
 4665POPC   C2B59108  35.088  36.638   6.647
 4665POPC   C3B59109  34.960  36.679   7.095
 4665POPC   C4B59110  34.975  36.707   7.555
 4666POPC   NC359111   9.370  37.517   5.470
 4666POPC   PO459112   9.992  37.697   5.306
 4666POPC   GL159113   9.972  37.616   5.783
 4666POPC   GL259114   9.637  37.436   5.913
 4666POPC   C1A59115   9.898  37.684   6.271
 4666POPC   D2A59116   9.624  37.624   6.670
 4666POPC   C3A59117   9.735  37.890   7.050
 4666POPC   C4A59118   9.964  38.064   7.418
 4666POPC   C1B59119   9.290  37.360   6.238
 4666POPC   C2B59120   9.130  37.321   6.689
 4666POPC   C3B59121   9.404  37.349   7.074
 4666POPC   C4B59122   9.873  37.357   7.079
 4667POPC   NC359123   1.639  41.014   5.320
 4667POPC   PO459124   2.158  40.631   5.339
 4667POPC   GL159125   2.159  40.747   5.781
 4667POPC   GL259126   1.882  40.969   5.775
 4667POPC   C1A59127   2.087  40.791   6.231
 4667POPC   D2A59128   1.963  40.611   6.641
 4667POPC   C3A59129   2.058  40.625   7.097
 4667POPC   C4A59130   2.276  40.728   7.476
 4667POPC   C1B59131   1.703  41.114   6.167
 4667POPC   C2B59132   1.876  41.120   6.570
 4667POPC   C3B59133   1.723  40.959   6.924
 4667POPC   C4B59134   1.831  40.982   7.378
 4668POPC   NC359135  19.216  15.496   5.392
 4668POPC   PO459136  18.871  14.967   5.590
 4668POPC   GL159137  18.860  15.141   5.960
 4668POPC   GL259138  19.152  15.320   5.948
 4668POPC   C1A59139  18.757  15.094   6.380
 4668POPC   D2A59140  19.165  14.941   6.549
 4668POPC   C3A59141  19.214  15.012   6.978
 4668POPC   C4A59142  18.861  15.094   7.209
 4668POPC   C1B59143  19.112  15.440   6.394
 4668POPC   C2B59144  18.943  15.409   6.802
 4668POPC   C3B59145  19.148  15.502   7.200
 4668POPC   C4B59146  19.304  15.614   7.614
 4669POPC   NC359147  27.762  21.977   5.359
 4669POPC   PO459148  27.161  21.879   5.662
 4669POPC   GL159149  27.537  22.191   5.784
 4669POPC   GL259150  27.767  21.971   5.913
 4669POPC   C1A59151  27.750  22.375   6.200
 4669POPC   D2A59152  27.881  22.014   6.492
 4669POPC   C3A59153  27.797  22.031   6.926
 4669POPC   C4A59154  27.736  22.447   6.964
 4669POPC   C1B59155  27.418  21.996   6.243
 4669POPC   C2B59156  27.427  22.240   6.596
 4669POPC   C3B59157  27.297  22.173   6.988
 4669POPC   C4B59158  27.424  21.830   7.232
 4670POPC   NC359159   0.180  13.172   5.494
 4670POPC   PO459160   0.832  13.450   5.598
 4670POPC   GL159161   0.669  13.164   5.876
 4670POPC   GL259162   0.410  12.882   5.856
 4670POPC   C1A59163   0.480  13.221   6.250
 4670POPC   D2A59164   0.211  13.136   6.584
 4670POPC   C3A59165   0.347  13.045   6.998
 4670POPC   C4A59166   0.234  13.005   7.427
 4670POPC   C1B59167   0.295  12.731   6.286
 4670POPC   C2B59168   0.288  12.595   6.760
 4670POPC   C3B59169   0.422  12.523   7.239
 4670POPC   C4B59170   0.160  12.526   7.639
 4671POPC   NC359171  36.176  20.183   5.479
 4671POPC   PO459172  35.862  19.515   5.512
 4671POPC   GL159173  36.202  19.728   5.751
 4671POPC   GL259174  36.528  19.561   5.753
 4671POPC   C1A59175  36.282  20.004   6.144
 4671POPC   D2A59176  36.242  20.191   6.595
 4671POPC   C3A59177  36.192  19.944   6.980
 4671POPC   C4A59178  35.930  19.940   7.381
 4671POPC   C1B59179  36.378  19.465   6.204
 4671POPC   C2B59180  36.259  19.485   6.682
 4671POPC   C3B59181  36.295  19.466   7.151
 4671POPC   C4B59182  36.344  19.670   7.571
 4672POPC   NC359183   8.635  29.953   5.434
 4672POPC   PO459184   9.208  30.313   5.659
 4672POPC   GL159185   9.018  29.961   5.820
 4672POPC   GL259186   9.278  29.690   5.799
 4672POPC   C1A59187   8.813  30.036   6.225
 4672POPC   D2A59188   8.980  30.268   6.612
 4672POPC   C3A59189   8.933  30.126   7.054
 4672POPC   C4A59190   8.758  29.823   7.351
 4672POPC   C1B59191   9.036  29.571   6.181
 4672POPC   C2B59192   9.037  29.745   6.570
 4672POPC   C3B59193   8.955  29.616   6.921
 4672POPC   C4B59194   9.044  29.420   7.243
 4673POPC   NC359195  39.124   0.795   5.513
 4673POPC   PO459196  39.269   0.150   5.378
 4673POPC   GL159197  39.095   0.324   5.752
 4673POPC   GL259198  39.405   0.202   5.890
 4673POPC   C1A59199  39.024   0.523   6.168
 4673POPC   D2A59200  39.143   0.369   6.595
 4673POPC   C3A59201  39.050   0.328   7.043
 4673POPC   C4A59202  39.285   0.585   7.332
 4673POPC   C1B59203  39.528   0.415   6.261
 4673POPC   C2B59204  39.650   0.541   6.679
 4673POPC   C3B59205  39.665   0.344   7.072
 4673POPC   C4B59206  39.674   0.283   7.531
 4674POPC   NC359207  16.352  11.619   5.493
 4674POPC   PO459208  16.339  10.916   5.360
 4674POPC   GL159209  16.033  10.931   5.720
 4674POPC   GL259210  16.022  11.311   5.786
 4674POPC   C1A59211  16.000  11.030   6.178
 4674POPC   D2A59212  16.138  11.332   6.474
 4674POPC   C3A59213  15.952  11.250   6.872
 4674POPC   C4A59214  15.979  11.151   7.310
 4674POPC   C1B59215  15.750  11.495   6.139
 4674POPC   C2B59216  15.762  11.662   6.574
 4674POPC   C3B59217  16.078  11.725   6.926
 4674POPC   C4B59218  15.775  11.630   7.236
 4675POPC   NC359219  35.383  35.515   5.316
 4675POPC   PO459220  35.541  34.874   5.435
 4675POPC   GL159221  35.322  35.155   5.739
 4675POPC   GL259222  35.470  35.488   5.817
 4675POPC   C1A59223  35.329  35.187   6.215
 4675POPC   D2A59224  35.426  35.437   6.612
 4675POPC   C3A59225  35.318  35.356   7.062
 4675POPC   C4A59226  35.499  35.216   7.444
 4675POPC   C1B59227  35.391  35.759   6.173
 4675POPC   C2B59228  35.639  35.882   6.508
 4675POPC   C3B59229  35.523  35.857   6.935
 4675POPC   C4B59230  35.297  35.857   7.317
 4676POPC   NC359231   8.172  10.917   5.430
 4676POPC   PO459232   8.654  11.462   5.380
 4676POPC   GL159233   8.420  11.313   5.779
 4676POPC   GL259234   8.039  11.345   5.824
 4676POPC   C1A59235   8.331  11.242   6.228
 4676POPC   D2A59236   8.017  11.405   6.532
 4676POPC   C3A59237   8.254  11.452   6.889
 4676POPC   C4A59238   8.300  11.284   7.284
 4676POPC   C1B59239   7.905  10.998   6.143
 4676POPC   C2B59240   8.106  10.892   6.539
 4676POPC   C3B59241   8.139  10.914   6.943
 4676POPC   C4B59242   7.833  11.139   7.109
 4677POPC   NC359243  39.781  29.479   5.489
 4677POPC   PO459244  39.959  30.101   5.377
 4677POPC   GL159245  39.811  29.932   5.781
 4677POPC   GL259246  40.092  29.773   5.822
 4677POPC   C1A59247  39.883  30.125   6.219
 4677POPC   D2A59248  39.673  30.078   6.652
 4677POPC   C3A59249  39.889  30.249   7.040
 4677POPC   C4A59250  40.201  30.030   7.249
 4677POPC   C1B59251  40.270  29.783   6.229
 4677POPC   C2B59252  40.204  29.930   6.651
 4677POPC   C3B59253  40.243  29.605   6.948
 4677POPC   C4B59254  40.370  29.562   7.353
 4678POPC   NC359255   3.218  12.098   5.340
 4678POPC   PO459256   3.909  11.996   5.397
 4678POPC   GL159257   3.562  12.055   5.719
 4678POPC   GL259258   3.268  11.769   5.717
 4678POPC   C1A59259   3.534  12.239   6.144
 4678POPC   D2A59260   3.646  11.987   6.523
 4678POPC   C3A59261   3.531  12.178   6.910
 4678POPC   C4A59262   3.664  12.115   7.342
 4678POPC   C1B59263   3.297  11.797   6.143
 4678POPC   C2B59264   3.144  12.050   6.479
 4678POPC   C3B59265   3.115  11.881   6.857
 4678POPC   C4B59266   3.152  12.024   7.243
 4679POPC   NC359267  35.512  11.854   5.493
 4679POPC   PO459268  35.131  12.401   5.270
 4679POPC   GL159269  35.172  12.201   5.710
 4679POPC   GL259270  35.002  11.897   5.671
 4679POPC   C1A59271  35.411  12.099   6.142
 4679POPC   D2A59272  35.716  12.048   6.498
 4679POPC   C3A59273  35.563  12.010   6.915
 4679POPC   C4A59274  35.331  12.309   7.155
 4679POPC   C1B59275  34.991  11.828   6.132
 4679POPC   C2B59276  35.187  11.803   6.557
 4679POPC   C3B59277  35.060  11.886   6.970
 4679POPC   C4B59278  35.091  11.879   7.403
 4680POPC   NC359279  38.960  25.550   5.571
 4680POPC   PO459280  39.395  25.100   5.280
 4680POPC   GL159281  39.201  25.124   5.698
 4680POPC   GL259282  39.431  25.409   5.791
 4680POPC   C1A59283  38.951  25.040   6.121
 4680POPC   D2A59284  38.729  25.052   6.545
 4680POPC   C3A59285  38.980  25.142   6.918
 4680POPC   C4A59286  39.193  25.000   7.331
 4680POPC   C1B59287  39.288  25.414   6.222
 4680POPC   C2B59288  39.424  25.310   6.649
 4680POPC   C3B59289  39.355  25.456   7.079
 4680POPC   C4B59290  39.398  25.412   7.554
 4681POPC   NC359291  15.157   3.689   5.270
 4681POPC   PO459292  15.810   3.755   5.560
 4681POPC   GL159293  15.408   3.622   5.735
 4681POPC   GL259294  15.215   3.285   5.756
 4681POPC   C1A59295  15.359   3.601   6.186
 4681POPC   D2A59296  15.375   3.319   6.548
 4681POPC   C3A59297  15.310   3.525   6.925
 4681POPC   C4A59298  15.438   3.615   7.329
 4681POPC   C1B59299  14.920   3.350   6.146
 4681POPC   C2B59300  14.901   3.542   6.568
 4681POPC   C3B59301  14.828   3.345   6.970
 4681POPC   C4B59302  15.077   3.238   7.334
 4682POPC   NC359303  36.090   8.515   5.284
 4682POPC   PO459304  36.116   7.867   5.340
 4682POPC   GL159305  36.121   8.053   5.744
 4682POPC   GL259306  35.869   7.862   5.895
 4682POPC   C1A59307  36.101   8.365   6.089
 4682POPC   D2A59308  36.293   8.350   6.497
 4682POPC   C3A59309  36.256   8.370   6.930
 4682POPC   C4A59310  35.928   8.521   7.164
 4682POPC   C1B59311  36.084   7.885   6.297
 4682POPC   C2B59312  36.065   7.932   6.754
 4682POPC   C3B59313  35.998   7.955   7.211
 4682POPC   C4B59314  35.799   7.885   7.654
 4683POPC   NC359315   6.222   9.855   5.526
 4683POPC   PO459316   6.651   9.360   5.248
 4683POPC   GL159317   6.601   9.548   5.693
 4683POPC   GL259318   6.352   9.285   5.760
 4683POPC   C1A59319   6.700   9.837   6.089
 4683POPC   D2A59320   6.667   9.778   6.533
 4683POPC   C3A59321   6.760   9.955   6.933
 4683POPC   C4A59322   6.481  10.226   7.194
 4683POPC   C1B59323   6.441   9.414   6.175
 4683POPC   C2B59324   6.224   9.491   6.557
 4683POPC   C3B59325   6.384   9.570   6.943
 4683POPC   C4B59326   6.467   9.752   7.326
 4684POPC   NC359327   8.440  23.258   5.312
 4684POPC   PO459328   8.131  23.897   5.266
 4684POPC   GL159329   8.201  23.734   5.708
 4684POPC   GL259330   8.134  23.381   5.757
 4684POPC   C1A59331   8.233  23.816   6.162
 4684POPC   D2A59332   8.480  23.876   6.534
 4684POPC   C3A59333   8.278  23.836   6.933
 4684POPC   C4A59334   8.281  23.637   7.336
 4684POPC   C1B59335   8.014  23.351   6.177
 4684POPC   C2B59336   8.124  23.484   6.574
 4684POPC   C3B59337   7.988  23.399   6.991
 4684POPC   C4B59338   7.839  23.333   7.394
 4685POPC   NC359339  16.653  41.232   5.599
 4685POPC   PO459340  16.467  41.803   5.333
 4685POPC   GL159341  16.606  41.718   5.804
 4685POPC   GL259342  16.968  41.581   5.842
 4685POPC   C1A59343  16.697  41.608   6.279
 4685POPC   D2A59344  16.818  41.820   6.684
 4685POPC   C3A59345  16.697  41.762   7.127
 4685POPC   C4A59346  16.459  41.426   7.296
 4685POPC   C1B59347  17.129  41.260   6.170
 4685POPC   C2B59348  17.046  41.126   6.606
 4685POPC   C3B59349  16.876  41.309   6.961
 4685POPC   C4B59350  17.017  41.443   7.353
 4686POPC   NC359351   6.884  34.448   5.398
 4686POPC   PO459352   6.264  34.118   5.531
 4686POPC   GL159353   6.562  34.368   5.850
 4686POPC   GL259354   6.836  34.651   5.853
 4686POPC   C1A59355   6.478  34.673   6.221
 4686POPC   D2A59356   6.318  34.824   6.632
 4686POPC   C3A59357   6.432  34.552   6.966
 4686POPC   C4A59358   6.368  34.136   7.104
 4686POPC   C1B59359   6.979  34.573   6.282
 4686POPC   C2B59360   6.862  34.771   6.676
 4686POPC   C3B59361   6.984  34.767   7.102
 4686POPC   C4B59362   6.904  34.867   7.534
 4687POPC   NC359363  35.693   4.557   5.077
 4687POPC   PO459364  36.069   4.053   5.347
 4687POPC   GL159365  36.082   4.232   5.778
 4687POPC   GL259366  36.355   4.322   5.886
 4687POPC   C1A59367  35.939   4.076   6.161
 4687POPC   D2A59368  35.703   3.992   6.535
 4687POPC   C3A59369  35.928   4.164   6.867
 4687POPC   C4A59370  36.050   4.291   7.292
 4687POPC   C1B59371  36.141   4.558   6.178
 4687POPC   C2B59372  36.188   4.712   6.563
 4687POPC   C3B59373  36.293   4.560   6.946
 4687POPC   C4B59374  36.546   4.380   7.262
 4688POPC   NC359375   6.638  40.576   5.411
 4688POPC   PO459376   6.462  41.162   5.707
 4688POPC   GL159377   6.643  40.789   5.881
 4688POPC   GL259378   6.404  40.536   5.855
 4688POPC   C1A59379   6.829  40.565   6.244
 4688POPC   D2A59380   7.024  40.738   6.629
 4688POPC   C3A59381   6.813  40.838   6.992
 4688POPC   C4A59382   6.821  40.994   7.387
 4688POPC   C1B59383   6.325  40.468   6.259
 4688POPC   C2B59384   6.474  40.663   6.631
 4688POPC   C3B59385   6.396  40.490   7.021
 4688POPC   C4B59386   6.301  40.655   7.411
 4689POPC   NC359387   5.399  18.603   5.376
 4689POPC   PO459388   4.852  18.000   5.312
 4689POPC   GL159389   4.889  17.995   5.795
 4689POPC   GL259390   5.243  18.003   5.927
 4689POPC   C1A59391   4.906  18.142   6.257
 4689POPC   D2A59392   5.072  18.431   6.573
 4689POPC   C3A59393   4.983  18.266   6.951
 4689POPC   C4A59394   4.789  18.228   7.346
 4689POPC   C1B59395   5.347  18.432   6.130
 4689POPC   C2B59396   5.561  18.589   6.524
 4689POPC   C3B59397   5.453  18.533   6.965
 4689POPC   C4B59398   5.290  18.373   7.394
 4690POPC   NC359399  37.197  12.339   5.474
 4690POPC   PO459400  36.674  11.863   5.396
 4690POPC   GL159401  36.858  11.961   5.814
 4690POPC   GL259402  36.913  12.326   5.886
 4690POPC   C1A59403  36.706  12.019   6.264
 4690POPC   D2A59404  36.920  11.960   6.688
 4690POPC   C3A59405  36.768  11.857   7.147
 4690POPC   C4A59406  36.810  11.852   7.635
 4690POPC   C1B59407  37.030  12.554   6.246
 4690POPC   C2B59408  37.182  12.458   6.664
 4690POPC   C3B59409  36.996  12.325   7.052
 4690POPC   C4B59410  37.146  12.227   7.456
 4691POPC   NC359411   7.695   5.504   5.559
 4691POPC   PO459412   7.043   5.878   5.483
 4691POPC   GL159413   7.304   5.789   5.832
 4691POPC   GL259414   7.251   5.444   5.792
 4691POPC   C1A59415   7.421   6.032   6.224
 4691POPC   D2A59416   7.524   6.189   6.677
 4691POPC   C3A59417   7.363   6.068   7.110
 4691POPC   C4A59418   7.524   5.943   7.526
 4691POPC   C1B59419   7.410   5.422   6.199
 4691POPC   C2B59420   7.524   5.653   6.545
 4691POPC   C3B59421   7.428   5.602   6.927
 4691POPC   C4B59422   7.526   5.424   7.276
 4692POPC   NC359423  32.045  30.490   5.420
 4692POPC   PO459424  32.520  30.944   5.359
 4692POPC   GL159425  32.402  30.713   5.717
 4692POPC   GL259426  32.087  30.828   5.791
 4692POPC   C1A59427  32.438  30.592   6.151
 4692POPC   D2A59428  32.698  30.635   6.518
 4692POPC   C3A59429  32.512  30.635   6.945
 4692POPC   C4A59430  32.555  30.804   7.361
 4692POPC   C1B59431  32.133  31.015   6.178
 4692POPC   C2B59432  32.214  30.844   6.565
 4692POPC   C3B59433  32.060  30.929   6.962
 4692POPC   C4B59434  32.196  31.197   7.283
 4693POPC   NC359435  10.829  24.498   5.491
 4693POPC   PO459436  10.205  24.694   5.617
 4693POPC   GL159437  10.419  24.358   5.813
 4693POPC   GL259438  10.758  24.307   5.935
 4693POPC   C1A59439  10.333  24.284   6.245
 4693POPC   D2A59440  10.415  24.583   6.567
 4693POPC   C3A59441  10.338  24.482   6.981
 4693POPC   C4A59442  10.263  24.813   7.255
 4693POPC   C1B59443  10.846  24.315   6.349
 4693POPC   C2B59444  10.601  24.119   6.666
 4693POPC   C3B59445  10.719  24.104   7.082
 4693POPC   C4B59446  10.768  24.496   7.264
 4694POPC   NC359447   9.210   6.578   5.472
 4694POPC   PO459448   9.889   6.625   5.283
 4694POPC   GL159449   9.850   6.650   5.770
 4694POPC   GL259450   9.565   6.431   5.824
 4694POPC   C1A59451   9.871   6.845   6.224
 4694POPC   D2A59452  10.003   7.065   6.626
 4694POPC   C3A59453   9.900   6.905   7.015
 4694POPC   C4A59454  10.009   6.542   7.176
 4694POPC   C1B59455   9.471   6.541   6.242
 4694POPC   C2B59456   9.650   6.611   6.646
 4694POPC   C3B59457   9.514   6.493   7.053
 4694POPC   C4B59458   9.423   6.809   7.371
 4695POPC   NC359459  40.385  34.545   5.484
 4695POPC   PO459460  40.991  34.525   5.376
 4695POPC   GL159461  40.803  34.502   5.741
 4695POPC   GL259462  40.604  34.163   5.758
 4695POPC   C1A59463  40.662  34.751   6.104
 4695POPC   D2A59464  40.872  34.655   6.476
 4695POPC   C3A59465  40.794  34.710   6.902
 4695POPC   C4A59466  41.067  34.714   7.257
 4695POPC   C1B59467  40.804  34.243   6.154
 4695POPC   C2B59468  40.720  34.173   6.554
 4695POPC   C3B59469  40.898  34.216   6.920
 4695POPC   C4B59470  40.737  34.349   7.303
 4696POPC   NC359471  42.813  17.763   5.490
 4696POPC   PO459472  43.464  17.678   5.647
 4696POPC   GL159473  43.139  17.635   5.892
 4696POPC   GL259474  42.916  17.369   5.834
 4696POPC   C1A59475  43.169  17.507   6.294
 4696POPC   D2A59476  43.172  17.650   6.685
 4696POPC   C3A59477  43.513  17.832   6.860
 4696POPC   C4A59478  43.300  17.747   7.223
 4696POPC   C1B59479  42.827  17.139   6.220
 4696POPC   C2B59480  43.072  17.096   6.626
 4696POPC   C3B59481  43.215  17.253   7.022
 4696POPC   C4B59482  42.866  17.506   7.105
 4697POPC   NC359483  39.537   2.710   5.411
 4697POPC   PO459484  38.833   2.698   5.343
 4697POPC   GL159485  39.173   2.830   5.764
 4697POPC   GL259486  39.533   2.914   5.872
 4697POPC   C1A59487  39.323   2.701   6.266
 4697POPC   D2A59488  39.312   2.512   6.692
 4697POPC   C3A59489  39.024   2.708   6.960
 4697POPC   C4A59490  39.065   3.030   7.235
 4697POPC   C1B59491  39.571   3.128   6.272
 4697POPC   C2B59492  39.381   3.042   6.674
 4697POPC   C3B59493  39.523   2.916   7.071
 4697POPC   C4B59494  39.605   2.976   7.536
 4698POPC   NC359495  18.055  19.507   5.471
 4698POPC   PO459496  17.829  20.159   5.532
 4698POPC   GL159497  18.113  19.961   5.839
 4698POPC   GL259498  18.344  19.675   5.861
 4698POPC   C1A59499  18.358  20.049   6.223
 4698POPC   D2A59500  18.282  20.222   6.631
 4698POPC   C3A59501  18.395  20.099   7.048
 4698POPC   C4A59502  18.075  19.841   7.193
 4698POPC   C1B59503  18.312  19.548   6.291
 4698POPC   C2B59504  18.332  19.694   6.729
 4698POPC   C3B59505  18.388  19.448   7.133
 4698POPC   C4B59506  18.618  19.313   7.519
 4699POPC   NC359507  38.066  26.626   5.416
 4699POPC   PO459508  38.735  26.767   5.465
 4699POPC   GL159509  38.590  26.947   5.810
 4699POPC   GL259510  38.269  27.005   5.710
 4699POPC   C1A59511  38.660  26.972   6.226
 4699POPC   D2A59512  38.721  26.732   6.591
 4699POPC   C3A59513  38.564  26.931   6.944
 4699POPC   C4A59514  38.574  26.881   7.377
 4699POPC   C1B59515  38.161  27.060   6.129
 4699POPC   C2B59516  38.225  26.945   6.552
 4699POPC   C3B59517  38.072  27.105   6.942
 4699POPC   C4B59518  38.108  27.058   7.371
 4700POPC   NC359519  30.369  27.763   5.459
 4700POPC   PO459520  29.760  27.406   5.239
 4700POPC   GL159521  29.823  27.683   5.628
 4700POPC   GL259522  30.017  27.444   5.765
 4700POPC   C1A59523  29.891  27.827   6.103
 4700POPC   D2A59524  29.809  27.658   6.548
 4700POPC   C3A59525  30.156  27.692   6.857
 4700POPC   C4A59526  29.900  27.716   7.239
 4700POPC   C1B59527  29.934  27.318   6.193
 4700POPC   C2B59528  30.082  27.223   6.616
 4700POPC   C3B59529  29.975  27.254   7.030
 4700POPC   C4B59530  29.759  27.236   7.400
 4701POPC   NC359531  20.193  13.535   5.351
 4701POPC   PO459532  20.855  13.368   5.364
 4701POPC   GL159533  20.863  13.398   5.801
 4701POPC   GL259534  20.547  13.622   5.848
 4701POPC   C1A59535  20.956  13.523   6.232
 4701POPC   D2A59536  20.716  13.698   6.592
 4701POPC   C3A59537  20.801  13.589   7.043
 4701POPC   C4A59538  20.740  13.520   7.509
 4701POPC   C1B59539  20.378  13.935   6.168
 4701POPC   C2B59540  20.235  13.929   6.599
 4701POPC   C3B59541  20.286  13.670   6.937
 4701POPC   C4B59542  20.255  13.649   7.365
 4702POPC   NC359543   9.112  10.414   5.324
 4702POPC   PO459544   8.484  10.554   5.336
 4702POPC   GL159545   8.812  10.617   5.698
 4702POPC   GL259546   8.858  10.275   5.793
 4702POPC   C1A59547   9.002  10.701   6.152
 4702POPC   D2A59548   9.126  10.820   6.615
 4702POPC   C3A59549   9.040  10.586   7.019
 4702POPC   C4A59550   9.230  10.298   7.329
 4702POPC   C1B59551   8.642  10.286   6.172
 4702POPC   C2B59552   8.818  10.391   6.558
 4702POPC   C3B59553   8.760  10.159   6.911
 4702POPC   C4B59554   8.758  10.143   7.330
 4703POPC   NC359555  18.363  40.174   5.301
 4703POPC   PO459556  18.075  39.624   5.429
 4703POPC   GL159557  18.207  39.767   5.810
 4703POPC   GL259558  18.074  40.082   5.731
 4703POPC   C1A59559  18.424  39.881   6.203
 4703POPC   D2A59560  18.611  39.982   6.607
 4703POPC   C3A59561  18.371  39.974   6.951
 4703POPC   C4A59562  18.311  39.818   7.383
 4703POPC   C1B59563  18.047  40.233   6.134
 4703POPC   C2B59564  18.181  40.260   6.544
 4703POPC   C3B59565  18.242  40.458   6.932
 4703POPC   C4B59566  18.119  40.268   7.300
 4704POPC   NC359567  10.878  38.018   5.439
 4704POPC   PO459568  10.538  38.505   5.163
 4704POPC   GL159569  10.529  38.630   5.649
 4704POPC   GL259570  10.676  38.374   5.848
 4704POPC   C1A59571  10.549  38.770   6.141
 4704POPC   D2A59572  10.512  38.596   6.593
 4704POPC   C3A59573  10.465  38.858   6.967
 4704POPC   C4A59574  10.636  38.799   7.384
 4704POPC   C1B59575  10.707  38.241   6.271
 4704POPC   C2B59576  10.756  38.108   6.710
 4704POPC   C3B59577  10.748  38.387   7.066
 4704POPC   C4B59578  10.762  38.327   7.495
 4705POPC   NC359579  44.258  35.584   5.366
 4705POPC   PO459580  43.617  35.327   5.427
 4705POPC   GL159581  43.840  35.511   5.794
 4705POPC   GL259582  44.071  35.259   5.802
 4705POPC   C1A59583  43.909  35.473   6.272
 4705POPC   D2A59584  43.895  35.237   6.673
 4705POPC   C3A59585  43.826  35.493   7.026
 4705POPC   C4A59586  43.744  35.544   7.460
 4705POPC   C1B59587  44.244  35.070   6.159
 4705POPC   C2B59588  44.388  35.272   6.526
 4705POPC   C3B59589  44.336  35.185   6.970
 4705POPC   C4B59590  43.962  35.044   7.198
 4706POPC   NC359591   3.820   4.558   5.496
 4706POPC   PO459592   3.559   4.060   5.367
 4706POPC   GL159593   3.320   4.104   5.759
 4706POPC   GL259594   3.486   4.405   5.846
 4706POPC   C1A59595   3.297   4.134   6.240
 4706POPC   D2A59596   3.612   4.107   6.572
 4706POPC   C3A59597   3.466   4.145   6.992
 4706POPC   C4A59598   3.739   4.041   7.330
 4706POPC   C1B59599   3.527   4.591   6.263
 4706POPC   C2B59600   3.378   4.546   6.651
 4706POPC   C3B59601   3.472   4.697   7.020
 4706POPC   C4B59602   3.494   4.487   7.374
 4707POPC   NC359603   3.855  22.424   5.448
 4707POPC   PO459604   3.624  23.049   5.206
 4707POPC   GL159605   3.711  23.130   5.639
 4707POPC   GL259606   3.645  22.808   5.767
 4707POPC   C1A59607   3.464  23.209   6.036
 4707POPC   D2A59608   3.275  23.070   6.440
 4707POPC   C3A59609   3.444  23.209   6.835
 4707POPC   C4A59610   3.628  23.066   7.185
 4707POPC   C1B59611   3.647  22.719   6.224
 4707POPC   C2B59612   3.650  22.730   6.696
 4707POPC   C3B59613   3.957  22.699   7.046
 4707POPC   C4B59614   4.167  22.887   7.391
 4708POPC   NC359615   0.216  42.910   5.526
 4708POPC   PO459616   0.323  42.246   5.498
 4708POPC   GL159617   0.514  42.399   5.875
 4708POPC   GL259618   0.607  42.765   5.875
 4708POPC   C1A59619   0.554  42.311   6.307
 4708POPC   D2A59620   0.511  42.433   6.722
 4708POPC   C3A59621   0.575  42.103   7.002
 4708POPC   C4A59622   0.653  42.172   7.485
 4708POPC   C1B59623   0.265  42.742   6.183
 4708POPC   C2B59624   0.048  42.460   6.451
 4708POPC   C3B59625   0.042  42.456   6.888
 4708POPC   C4B59626   0.382  42.529   7.219
 4709POPC   NC359627   0.231  30.216   5.562
 4709POPC   PO459628   0.405  29.673   5.226
 4709POPC   GL159629   0.515  29.759   5.682
 4709POPC   GL259630   0.584  30.092   5.911
 4709POPC   C1A59631   0.298  29.708   6.066
 4709POPC   D2A59632   0.473  29.812   6.481
 4709POPC   C3A59633   0.246  29.821   6.831
 4709POPC   C4A59634   0.372  29.705   7.254
 4709POPC   C1B59635   0.277  30.210   6.257
 4709POPC   C2B59636   0.286  30.365   6.691
 4709POPC   C3B59637   0.345  30.237   7.139
 4709POPC   C4B59638   0.083  30.069   7.487
 4710POPC   NC359639  43.204   3.363   5.399
 4710POPC   PO459640  42.578   3.528   5.315
 4710POPC   GL159641  42.870   3.348   5.781
 4710POPC   GL259642  43.246   3.192   5.859
 4710POPC   C1A59643  43.136   3.559   6.176
 4710POPC   D2A59644  43.258   3.846   6.483
 4710POPC   C3A59645  43.040   3.764   6.844
 4710POPC   C4A59646  43.133   3.455   7.123
 4710POPC   C1B59647  43.513   3.246   6.242
 4710POPC   C2B59648  43.405   3.320   6.682
 4710POPC   C3B59649  43.596   3.258   7.093
 4710POPC   C4B59650  43.360   3.121   7.451
 4711POPC   NC359651  40.268   9.840   5.253
 4711POPC   PO459652  39.749   9.433   5.381
 4711POPC   GL159653  39.899   9.708   5.762
 4711POPC   GL259654  40.201   9.941   5.747
 4711POPC   C1A59655  40.163   9.657   6.170
 4711POPC   D2A59656  40.200   9.843   6.596
 4711POPC   C3A59657  40.242   9.588   6.976
 4711POPC   C4A59658  40.110   9.294   7.314
 4711POPC   C1B59659  39.964  10.134   6.106
 4711POPC   C2B59660  39.872  10.231   6.552
 4711POPC   C3B59661  39.914  10.112   7.028
 4711POPC   C4B59662  39.821  10.110   7.495
 4712POPC   NC359663   3.919  27.003   5.376
 4712POPC   PO459664   3.473  26.575   5.383
 4712POPC   GL159665   3.688  26.742   5.734
 4712POPC   GL259666   3.392  26.730   5.892
 4712POPC   C1A59667   3.875  26.861   6.139
 4712POPC   D2A59668   3.822  26.847   6.618
 4712POPC   C3A59669   3.568  26.834   7.027
 4712POPC   C4A59670   3.712  26.682   7.453
 4712POPC   C1B59671   3.364  26.936   6.275
 4712POPC   C2B59672   3.234  26.762   6.644
 4712POPC   C3B59673   3.029  26.881   7.031
 4712POPC   C4B59674   3.234  26.813   7.432
 4713POPC   NC359675  41.161  26.320   5.312
 4713POPC   PO459676  40.921  25.780   5.571
 4713POPC   GL159677  40.841  26.141   5.780
 4713POPC   GL259678  40.480  26.171   5.679
 4713POPC   C1A59679  40.901  26.048   6.212
 4713POPC   D2A59680  40.620  25.884   6.513
 4713POPC   C3A59681  40.780  25.813   6.914
 4713POPC   C4A59682  40.576  25.891   7.278
 4713POPC   C1B59683  40.454  26.294   6.110
 4713POPC   C2B59684  40.671  26.385   6.508
 4713POPC   C3B59685  40.537  26.271   6.908
 4713POPC   C4B59686  40.647  26.386   7.307
 4714POPC   NC359687  29.473  18.413   5.444
 4714POPC   PO459688  30.036  18.074   5.364
 4714POPC   GL159689  29.835  18.173   5.749
 4714POPC   GL259690  29.641  17.925   5.882
 4714POPC   C1A59691  29.929  18.351   6.163
 4714POPC   D2A59692  30.121  18.403   6.562
 4714POPC   C3A59693  30.211  18.136   6.908
 4714POPC   C4A59694  30.109  18.417   7.284
 4714POPC   C1B59695  29.449  18.180   6.207
 4714POPC   C2B59696  29.587  18.453   6.550
 4714POPC   C3B59697  29.719  18.309   6.956
 4714POPC   C4B59698  29.591  18.335   7.400
 4715POPC   NC359699  26.165  13.400   5.448
 4715POPC   PO459700  25.658  13.784   5.281
 4715POPC   GL159701  25.845  13.852   5.693
 4715POPC   GL259702  26.049  13.649   5.872
 4715POPC   C1A59703  25.805  14.021   6.160
 4715POPC   D2A59704  25.845  13.873   6.640
 4715POPC   C3A59705  26.048  13.892   7.093
 4715POPC   C4A59706  25.942  13.813   7.547
 4715POPC   C1B59707  26.069  13.600   6.285
 4715POPC   C2B59708  26.230  13.566   6.699
 4715POPC   C3B59709  26.073  13.391   7.054
 4715POPC   C4B59710  26.109  13.331   7.448
 4716POPC   NC359711  26.486  30.914   5.418
 4716POPC   PO459712  26.940  30.614   5.550
 4716POPC   GL159713  26.624  30.684   5.886
 4716POPC   GL259714  26.457  30.393   5.914
 4716POPC   C1A59715  26.586  30.673   6.379
 4716POPC   D2A59716  26.806  30.491   6.760
 4716POPC   C3A59717  27.083  30.725   7.067
 4716POPC   C4A59718  26.894  31.025   7.346
 4716POPC   C1B59719  26.598  30.171   6.252
 4716POPC   C2B59720  26.437  30.133   6.644
 4716POPC   C3B59721  26.592  30.141   7.061
 4716POPC   C4B59722  26.660  30.554   7.273
 4717POPC   NC359723  22.300  15.483   5.163
 4717POPC   PO459724  22.301  16.029   5.581
 4717POPC   GL159725  21.976  15.983   5.836
 4717POPC   GL259726  21.841  15.650   5.735
 4717POPC   C1A59727  22.054  16.103   6.272
 4717POPC   D2A59728  22.352  15.867   6.509
 4717POPC   C3A59729  22.325  15.856   6.950
 4717POPC   C4A59730  22.637  15.759   7.227
 4717POPC   C1B59731  21.940  15.612   6.203
 4717POPC   C2B59732  21.884  15.725   6.663
 4717POPC   C3B59733  21.842  15.723   7.144
 4717POPC   C4B59734  21.796  15.519   7.586
 4718POPC   NC359735  23.608  22.364   5.477
 4718POPC   PO459736  23.824  21.733   5.560
 4718POPC   GL159737  23.670  21.984   5.839
 4718POPC   GL259738  23.924  22.256   5.862
 4718POPC   C1A59739  23.684  21.974   6.256
 4718POPC   D2A59740  23.571  22.183   6.629
 4718POPC   C3A59741  23.786  22.147   7.019
 4718POPC   C4A59742  23.470  22.289   7.293
 4718POPC   C1B59743  23.801  22.485   6.217
 4718POPC   C2B59744  23.845  22.603   6.632
 4718POPC   C3B59745  23.726  22.667   7.030
 4718POPC   C4B59746  23.899  22.542   7.410
 4719POPC   NC359747  14.648  14.080   5.472
 4719POPC   PO459748  14.192  14.519   5.194
 4719POPC   GL159749  14.204  14.290   5.591
 4719POPC   GL259750  14.222  14.564   5.778
 4719POPC   C1A59751  14.230  14.092   6.057
 4719POPC   D2A59752  14.310  14.229   6.528
 4719POPC   C3A59753  14.245  14.017   6.951
 4719POPC   C4A59754  14.642  14.056   7.180
 4719POPC   C1B59755  14.489  14.545   6.158
 4719POPC   C2B59756  14.621  14.682   6.577
 4719POPC   C3B59757  14.594  14.632   7.037
 4719POPC   C4B59758  14.511  14.908   7.410
 4720POPC   NC359759  38.278  35.900   4.978
 4720POPC   PO459760  38.322  36.450   5.376
 4720POPC   GL159761  38.322  36.287   5.784
 4720POPC   GL259762  38.501  35.977   5.762
 4720POPC   C1A59763  38.522  36.287   6.192
 4720POPC   D2A59764  38.363  36.172   6.584
 4720POPC   C3A59765  38.557  36.248   6.982
 4720POPC   C4A59766  38.391  36.488   7.341
 4720POPC   C1B59767  38.284  35.811   6.121
 4720POPC   C2B59768  38.184  35.648   6.516
 4720POPC   C3B59769  38.204  35.763   6.991
 4720POPC   C4B59770  38.436  35.897   7.399
 4721POPC   NC359771  15.607  16.821   5.388
 4721POPC   PO459772  16.178  17.070   5.157
 4721POPC   GL159773  16.074  16.921   5.600
 4721POPC   GL259774  15.817  17.129   5.744
 4721POPC   C1A59775  16.065  16.811   6.100
 4721POPC   D2A59776  15.962  16.510   6.475
 4721POPC   C3A59777  15.829  16.621   6.911
 4721POPC   C4A59778  15.904  16.452   7.324
 4721POPC   C1B59779  15.772  17.226   6.169
 4721POPC   C2B59780  15.784  16.995   6.547
 4721POPC   C3B59781  15.674  17.101   6.961
 4721POPC   C4B59782  15.845  16.975   7.341
 4722POPC   NC359783  10.486  42.986   5.346
 4722POPC   PO459784  10.865  43.567   5.268
 4722POPC   GL159785  10.761  43.327   5.716
 4722POPC   GL259786  10.608  42.978   5.823
 4722POPC   C1A59787  10.676  43.315   6.216
 4722POPC   D2A59788  10.513  43.100   6.606
 4722POPC   C3A59789  10.592  43.221   7.052
 4722POPC   C4A59790  10.267  43.166   7.398
 4722POPC   C1B59791  10.694  42.758   6.184
 4722POPC   C2B59792  10.819  42.684   6.619
 4722POPC   C3B59793  10.546  42.707   7.001
 4722POPC   C4B59794  10.637  42.823   7.438
 4723POPC   NC359795  43.520  28.561   5.562
 4723POPC   PO459796  42.856  28.619   5.633
 4723POPC   GL159797  43.010  28.250   5.843
 4723POPC   GL259798  42.711  28.062   5.972
 4723POPC   C1A59799  43.302  28.339   6.216
 4723POPC   D2A59800  43.414  28.695   6.522
 4723POPC   C3A59801  43.367  28.545   6.964
 4723POPC   C4A59802  43.130  28.156   7.115
 4723POPC   C1B59803  42.784  28.401   6.266
 4723POPC   C2B59804  42.971  28.369   6.659
 4723POPC   C3B59805  42.827  28.579   7.009
 4723POPC   C4B59806  42.793  28.841   7.337
 4724POPC   NC359807  40.405  31.808   5.479
 4724POPC   PO459808  40.941  31.495   5.547
 4724POPC   GL159809  40.696  31.343   5.873
 4724POPC   GL259810  40.918  31.099   6.001
 4724POPC   C1A59811  40.656  31.401   6.322
 4724POPC   D2A59812  40.839  31.285   6.697
 4724POPC   C3A59813  40.551  31.439   7.009
 4724POPC   C4A59814  40.443  31.841   7.130
 4724POPC   C1B59815  41.126  31.503   6.181
 4724POPC   C2B59816  40.950  31.798   6.501
 4724POPC   C3B59817  40.952  31.734   6.952
 4724POPC   C4B59818  41.039  31.318   7.182
 4725POPC   NC359819  33.471   4.859   5.502
 4725POPC   PO459820  32.936   4.998   5.033
 4725POPC   GL159821  32.899   5.035   5.529
 4725POPC   GL259822  32.774   5.357   5.686
 4725POPC   C1A59823  33.053   5.069   6.002
 4725POPC   D2A59824  32.953   4.808   6.388
 4725POPC   C3A59825  32.847   4.968   6.805
 4725POPC   C4A59826  33.123   4.994   7.154
 4725POPC   C1B59827  32.588   5.277   6.105
 4725POPC   C2B59828  32.587   5.336   6.541
 4725POPC   C3B59829  32.571   5.519   6.933
 4725POPC   C4B59830  32.712   5.322   7.260
 4726POPC   NC359831  30.095  11.636   5.366
 4726POPC   PO459832  29.851  12.236   5.343
 4726POPC   GL159833  29.844  12.109   5.790
 4726POPC   GL259834  30.110  11.877   5.849
 4726POPC   C1A59835  30.028  12.215   6.218
 4726POPC   D2A59836  30.099  12.141   6.644
 4726POPC   C3A59837  29.881  12.312   6.977
 4726POPC   C4A59838  29.682  12.003   7.166
 4726POPC   C1B59839  30.173  11.669   6.277
 4726POPC   C2B59840  30.357  11.704   6.723
 4726POPC   C3B59841  30.192  11.873   7.117
 4726POPC   C4B59842  30.105  11.817   7.572
 4727POPC   NC359843   2.562  23.368   5.100
 4727POPC   PO459844   3.005  23.817   5.371
 4727POPC   GL159845   2.846  23.781   5.817
 4727POPC   GL259846   2.654  24.077   5.944
 4727POPC   C1A59847   2.640  23.658   6.216
 4727POPC   D2A59848   2.368  23.620   6.570
 4727POPC   C3A59849   2.507  23.469   6.955
 4727POPC   C4A59850   2.292  23.698   7.271
 4727POPC   C1B59851   2.730  24.151   6.382
 4727POPC   C2B59852   2.814  23.865   6.716
 4727POPC   C3B59853   2.851  23.793   7.150
 4727POPC   C4B59854   3.105  23.765   7.529
 4728POPC   NC359855   0.276  17.876   5.203
 4728POPC   PO459856   0.486  17.172   5.327
 4728POPC   GL159857   0.581  17.148   5.785
 4728POPC   GL259858   0.497  17.501   5.914
 4728POPC   C1A59859   0.635  17.121   6.245
 4728POPC   D2A59860   0.493  17.421   6.562
 4728POPC   C3A59861   0.729  17.393   6.953
 4728POPC   C4A59862   0.602  17.260   7.351
 4728POPC   C1B59863   0.186  17.702   6.205
 4728POPC   C2B59864   0.010  17.769   6.628
 4728POPC   C3B59865   0.219  17.588   6.991
 4728POPC   C4B59866   0.495  17.748   7.290
 4729POPC   NC359867  27.416  35.052   5.466
 4729POPC   PO459868  27.896  35.514   5.349
 4729POPC   GL159869  27.741  35.573   5.783
 4729POPC   GL259870  27.383  35.464   5.835
 4729POPC   C1A59871  27.671  35.430   6.237
 4729POPC   D2A59872  27.344  35.480   6.533
 4729POPC   C3A59873  27.525  35.492   6.934
 4729POPC   C4A59874  27.826  35.351   7.236
 4729POPC   C1B59875  27.241  35.130   6.160
 4729POPC   C2B59876  27.013  35.102   6.562
 4729POPC   C3B59877  27.161  35.014   6.974
 4729POPC   C4B59878  27.310  35.219   7.306
 4730POPC   NC359879  16.133  43.597   5.493
 4730POPC   PO459880  16.157  44.215   5.226
 4730POPC   GL159881  16.207  44.095   5.724
 4730POPC   GL259882  16.033  43.773   5.948
 4730POPC   C1A59883  16.238  44.156   6.191
 4730POPC   D2A59884  16.137  43.819   6.501
 4730POPC   C3A59885  15.977  43.944   6.906
 4730POPC   C4A59886  16.064  44.099   7.295
 4730POPC   C1B59887  15.596  43.706   6.119
 4730POPC   C2B59888  15.442  43.518   6.540
 4730POPC   C3B59889  15.661  43.548   6.963
 4730POPC   C4B59890  15.738  43.695   7.396
 4731POPC   NC359891   7.507   0.212   5.609
 4731POPC   PO459892   7.485   0.767   5.269
 4731POPC   GL159893   7.504   0.737   5.771
 4731POPC   GL259894   7.677   0.470   5.999
 4731POPC   C1A59895   7.317   0.725   6.224
 4731POPC   D2A59896   7.367   0.432   6.550
 4731POPC   C3A59897   7.383   0.611   6.953
 4731POPC   C4A59898   7.727   0.553   7.242
 4731POPC   C1B59899   7.611   0.067   6.239
 4731POPC   C2B59900   7.761  44.951   6.636
 4731POPC   C3B59901   7.506   0.119   6.992
 4731POPC   C4B59902   7.344  44.926   7.382
 4732POPC   NC359903   7.081  31.147   5.504
 4732POPC   PO459904   7.231  31.789   5.341
 4732POPC   GL159905   7.281  31.563   5.744
 4732POPC   GL259906   7.631  31.563   5.833
 4732POPC   C1A59907   7.228  31.434   6.175
 4732POPC   D2A59908   7.465  31.542   6.548
 4732POPC   C3A59909   7.270  31.779   6.842
 4732POPC   C4A59910   7.188  31.455   7.168
 4732POPC   C1B59911   7.517  31.874   6.171
 4732POPC   C2B59912   7.683  32.051   6.554
 4732POPC   C3B59913   7.780  31.826   6.902
 4732POPC   C4B59914   7.582  31.773   7.264
 4733POPC   NC359915  39.958  21.639   5.465
 4733POPC   PO459916  40.274  21.090   5.704
 4733POPC   GL159917  40.074  21.404   5.895
 4733POPC   GL259918  40.304  21.710   5.826
 4733POPC   C1A59919  39.788  21.363   6.249
 4733POPC   D2A59920  39.957  21.356   6.651
 4733POPC   C3A59921  40.058  21.036   6.926
 4733POPC   C4A59922  39.711  21.052   7.193
 4733POPC   C1B59923  40.151  21.742   6.276
 4733POPC   C2B59924  40.229  21.795   6.714
 4733POPC   C3B59925  40.189  21.556   7.111
 4733POPC   C4B59926  40.382  21.643   7.556
 4734POPC   NC359927  33.729   1.374   5.153
 4734POPC   PO459928  34.099   0.817   5.424
 4734POPC   GL159929  33.884   1.029   5.756
 4734POPC   GL259930  33.885   1.415   5.723
 4734POPC   C1A59931  33.895   1.114   6.200
 4734POPC   D2A59932  33.579   1.165   6.516
 4734POPC   C3A59933  33.766   1.143   6.911
 4734POPC   C4A59934  33.660   0.937   7.298
 4734POPC   C1B59935  33.516   1.447   6.037
 4734POPC   C2B59936  33.493   1.669   6.459
 4734POPC   C3B59937  33.420   1.514   6.881
 4734POPC   C4B59938  33.468   1.397   7.306
 4735POPC   NC359939  18.537  31.292   5.401
 4735POPC   PO459940  17.892  31.683   5.466
 4735POPC   GL159941  18.165  31.463   5.724
 4735POPC   GL259942  18.376  31.742   5.681
 4735POPC   C1A59943  18.349  31.262   6.112
 4735POPC   D2A59944  18.479  31.183   6.560
 4735POPC   C3A59945  18.203  31.353   6.886
 4735POPC   C4A59946  17.972  31.364   7.249
 4735POPC   C1B59947  18.374  31.782   6.093
 4735POPC   C2B59948  18.338  31.680   6.511
 4735POPC   C3B59949  18.503  31.762   6.920
 4735POPC   C4B59950  18.456  31.567   7.293
 4736POPC   NC359951  44.423  21.232   5.393
 4736POPC   PO459952   0.032  21.223   5.768
 4736POPC   GL159953  44.692  21.532   5.788
 4736POPC   GL259954  44.321  21.498   5.860
 4736POPC   C1A59955  44.681  21.698   6.207
 4736POPC   D2A59956  44.612  21.431   6.562
 4736POPC   C3A59957  44.908  21.227   6.805
 4736POPC   C4A59958  44.689  21.256   7.190
 4736POPC   C1B59959  44.173  21.698   6.272
 4736POPC   C2B59960  44.171  21.628   6.712
 4736POPC   C3B59961  44.468  21.709   7.071
 4736POPC   C4B59962  44.442  21.573   7.552
 4737POPC   NC359963  33.898  12.034   5.305
 4737POPC   PO459964  33.520  11.540   5.583
 4737POPC   GL159965  33.522  11.988   5.765
 4737POPC   GL259966  33.813  12.217   5.780
 4737POPC   C1A59967  33.483  12.181   6.186
 4737POPC   D2A59968  33.667  11.967   6.555
 4737POPC   C3A59969  33.550  12.070   6.962
 4737POPC   C4A59970  33.707  12.405   7.200
 4737POPC   C1B59971  33.973  11.928   6.111
 4737POPC   C2B59972  34.177  12.069   6.498
 4737POPC   C3B59973  34.080  12.085   6.927
 4737POPC   C4B59974  34.200  12.327   7.273
 4738POPC   NC359975  44.752  38.788   5.350
 4738POPC   PO459976  44.633  39.454   5.345
 4738POPC   GL159977  44.656  39.171   5.705
 4738POPC   GL259978  44.350  39.010   5.808
 4738POPC   C1A59979  44.854  39.110   6.107
 4738POPC   D2A59980  44.847  39.001   6.546
 4738POPC   C3A59981  44.908  39.323   6.843
 4738POPC   C4A59982  44.783  39.245   7.262
 4738POPC   C1B59983  44.371  39.281   6.159
 4738POPC   C2B59984  44.479  39.385   6.553
 4738POPC   C3B59985  44.377  39.288   6.943
 4738POPC   C4B59986  44.297  39.162   7.348
 4739POPC   NC359987  43.063  34.310   5.390
 4739POPC   PO459988  43.555  34.627   5.433
 4739POPC   GL159989  43.282  34.536   5.794
 4739POPC   GL259990  43.477  34.278   5.846
 4739POPC   C1A59991  42.962  34.363   6.141
 4739POPC   D2A59992  42.919  34.088   6.559
 4739POPC   C3A59993  42.920  34.308   6.995
 4739POPC   C4A59994  42.649  34.632   7.181
 4739POPC   C1B59995  43.469  34.478   6.261
 4739POPC   C2B59996  43.167  34.769   6.461
 4739POPC   C3B59997  42.998  34.907   6.865
 4739POPC   C4B59998  43.127  34.788   7.282
 4740POPC   NC359999  26.695  35.553   5.422
 4740POPC   PO460000  26.956  34.915   5.528
 4740POPC   GL160001  26.924  35.258   5.768
 4740POPC   GL260002  26.576  35.207   5.798
 4740POPC   C1A60003  26.922  35.520   6.163
 4740POPC   D2A60004  26.875  35.726   6.564
 4740POPC   C3A60005  27.005  35.513   6.932
 4740POPC   C4A60006  26.927  35.626   7.358
 4740POPC   C1B60007  26.677  35.056   6.174
 4740POPC   C2B60008  26.541  35.307   6.499
 4740POPC   C3B60009  26.501  35.405   6.912
 4740POPC   C4B60010  26.731  35.170   7.224
 4741POPC   NC360011  18.907   8.465   5.389
 4741POPC   PO460012  19.364   8.002   5.467
 4741POPC   GL160013  19.141   8.256   5.815
 4741POPC   GL260014  18.792   8.172   5.852
 4741POPC   C1A60015  19.114   8.415   6.269
 4741POPC   D2A60016  19.056   8.339   6.756
 4741POPC   C3A60017  19.378   8.300   7.105
 4741POPC   C4A60018  19.318   8.556   7.518
 4741POPC   C1B60019  18.654   7.840   6.146
 4741POPC   C2B60020  18.713   7.807   6.579
 4741POPC   C3B60021  18.753   7.988   6.989
 4741POPC   C4B60022  18.898   8.316   7.247
 4742POPC   NC360023  27.151   5.937   5.004
 4742POPC   PO460024  26.650   5.959   5.483
 4742POPC   GL160025  26.721   5.738   5.828
 4742POPC   GL260026  26.921   6.013   5.927
 4742POPC   C1A60027  26.693   5.727   6.289
 4742POPC   D2A60028  26.536   6.007   6.637
 4742POPC   C3A60029  26.734   6.067   7.059
 4742POPC   C4A60030  26.693   5.929   7.516
 4742POPC   C1B60031  27.228   6.221   6.160
 4742POPC   C2B60032  27.076   6.240   6.566
 4742POPC   C3B60033  27.185   6.339   6.967
 4742POPC   C4B60034  27.089   6.234   7.392
 4743POPC   NC360035  43.860  31.509   5.142
 4743POPC   PO460036  43.556  30.985   5.495
 4743POPC   GL160037  43.948  31.171   5.698
 4743POPC   GL260038  43.955  31.546   5.735
 4743POPC   C1A60039  44.042  31.244   6.153
 4743POPC   D2A60040  43.890  31.533   6.480
 4743POPC   C3A60041  43.757  31.406   6.874
 4743POPC   C4A60042  43.825  31.489   7.305
 4743POPC   C1B60043  43.980  31.866   6.085
 4743POPC   C2B60044  44.211  31.923   6.497
 4743POPC   C3B60045  43.938  31.904   6.890
 4743POPC   C4B60046  44.102  31.904   7.292
 4744POPC   NC360047   1.215  11.076   5.447
 4744POPC   PO460048   1.058  11.685   5.393
 4744POPC   GL160049   1.243  11.655   5.794
 4744POPC   GL260050   1.248  11.296   5.930
 4744POPC   C1A60051   1.112  11.709   6.204
 4744POPC   D2A60052   1.062  11.332   6.430
 4744POPC   C3A60053   1.209  11.288   6.845
 4744POPC   C4A60054   1.068  11.280   7.269
 4744POPC   C1B60055   1.318  10.936   6.225
 4744POPC   C2B60056   1.314  10.768   6.656
 4744POPC   C3B60057   1.163  10.807   7.098
 4744POPC   C4B60058   1.150  10.877   7.572
 4745POPC   NC360059  20.770  42.731   5.495
 4745POPC   PO460060  20.425  43.356   5.456
 4745POPC   GL160061  20.563  43.253   5.841
 4745POPC   GL260062  20.901  43.251   5.844
 4745POPC   C1A60063  20.572  43.334   6.282
 4745POPC   D2A60064  20.770  43.460   6.637
 4745POPC   C3A60065  20.563  43.374   7.008
 4745POPC   C4A60066  20.639  43.174   7.393
 4745POPC   C1B60067  20.756  42.877   6.129
 4745POPC   C2B60068  20.621  42.804   6.545
 4745POPC   C3B60069  20.786  42.903   6.973
 4745POPC   C4B60070  20.942  42.745   7.382
 4746POPC   NC360071  12.961  31.456   5.088
 4746POPC   PO460072  12.586  31.547   5.618
 4746POPC   GL160073  12.862  31.596   5.928
 4746POPC   GL260074  13.223  31.602   5.845
 4746POPC   C1A60075  12.878  31.376   6.292
 4746POPC   D2A60076  12.578  31.256   6.605
 4746POPC   C3A60077  12.846  31.300   6.947
 4746POPC   C4A60078  12.946  31.015   7.250
 4746POPC   C1B60079  13.206  31.780   6.285
 4746POPC   C2B60080  13.441  31.901   6.680
 4746POPC   C3B60081  13.377  31.764   7.104
 4746POPC   C4B60082  12.960  31.792   7.254
 4747POPC   NC360083  17.589  20.128   5.113
 4747POPC   PO460084  17.758  19.493   5.125
 4747POPC   GL160085  17.646  19.664   5.677
 4747POPC   GL260086  17.865  19.501   5.935
 4747POPC   C1A60087  17.402  19.818   6.048
 4747POPC   D2A60088  17.386  19.942   6.477
 4747POPC   C3A60089  17.329  19.882   6.907
 4747POPC   C4A60090  17.592  19.933   7.258
 4747POPC   C1B60091  17.869  19.809   6.255
 4747POPC   C2B60092  17.827  19.780   6.686
 4747POPC   C3B60093  17.696  19.506   6.978
 4747POPC   C4B60094  17.790  19.312   7.320
 4748POPC   NC360095  23.724  34.950   5.353
 4748POPC   PO460096  23.720  35.619   5.381
 4748POPC   GL160097  23.560  35.449   5.755
 4748POPC   GL260098  23.453  35.091   5.749
 4748POPC   C1A60099  23.714  35.362   6.159
 4748POPC   D2A60100  23.855  35.578   6.532
 4748POPC   C3A60101  23.812  35.438   6.946
 4748POPC   C4A60102  23.714  35.672   7.332
 4748POPC   C1B60103  23.280  35.020   6.134
 4748POPC   C2B60104  23.452  35.122   6.524
 4748POPC   C3B60105  23.366  35.048   6.935
 4748POPC   C4B60106  23.563  35.164   7.293
 4749POPC   NC360107  35.843  12.703   5.141
 4749POPC   PO460108  36.109  13.174   5.508
 4749POPC   GL160109  35.973  12.805   5.726
 4749POPC   GL260110  36.195  12.508   5.785
 4749POPC   C1A60111  36.070  12.802   6.172
 4749POPC   D2A60112  35.987  13.049   6.519
 4749POPC   C3A60113  36.142  12.883   6.908
 4749POPC   C4A60114  35.966  13.061   7.239
 4749POPC   C1B60115  36.523  12.547   6.134
 4749POPC   C2B60116  36.637  12.423   6.574
 4749POPC   C3B60117  36.493  12.475   6.991
 4749POPC   C4B60118  36.252  12.604   7.355
 4750POPC   NC360119  16.082   4.873   5.493
 4750POPC   PO460120  15.780   5.481   5.355
 4750POPC   GL160121  15.751   5.235   5.780
 4750POPC   GL260122  15.637   4.866   5.742
 4750POPC   C1A60123  15.938   5.311   6.229
 4750POPC   D2A60124  16.248   5.132   6.566
 4750POPC   C3A60125  16.211   5.260   7.020
 4750POPC   C4A60126  16.416   5.301   7.430
 4750POPC   C1B60127  15.908   4.814   6.136
 4750POPC   C2B60128  15.885   4.736   6.584
 4750POPC   C3B60129  15.976   4.793   7.025
 4750POPC   C4B60130  15.702   4.842   7.386
 4751POPC   NC360131   9.131  15.022   5.391
 4751POPC   PO460132   8.718  15.663   5.416
 4751POPC   GL160133   8.911  15.543   5.813
 4751POPC   GL260134   9.229  15.344   5.890
 4751POPC   C1A60135   8.879  15.426   6.250
 4751POPC   D2A60136   8.965  15.403   6.668
 4751POPC   C3A60137   8.710  15.115   6.865
 4751POPC   C4A60138   8.738  15.013   7.255
 4751POPC   C1B60139   9.228  14.907   6.120
 4751POPC   C2B60140   9.270  14.702   6.543
 4751POPC   C3B60141   9.176  14.917   6.912
 4751POPC   C4B60142   9.268  15.070   7.291
 4752POPC   NC360143  35.713  21.544   5.298
 4752POPC   PO460144  36.177  21.208   5.188
 4752POPC   GL160145  36.105  21.364   5.641
 4752POPC   GL260146  35.855  21.118   5.711
 4752POPC   C1A60147  36.332  21.488   6.069
 4752POPC   D2A60148  36.357  21.723   6.470
 4752POPC   C3A60149  36.280  21.488   6.870
 4752POPC   C4A60150  36.392  21.247   7.263
 4752POPC   C1B60151  35.860  21.301   6.136
 4752POPC   C2B60152  36.007  21.169   6.536
 4752POPC   C3B60153  35.802  21.250   6.922
 4752POPC   C4B60154  35.887  21.392   7.361
 4753POPC   NC360155   7.689  13.081   5.431
 4753POPC   PO460156   7.056  12.738   5.486
 4753POPC   GL160157   7.319  12.929   5.759
 4753POPC   GL260158   7.371  12.616   5.903
 4753POPC   C1A60159   7.336  13.108   6.159
 4753POPC   D2A60160   7.399  12.869   6.510
 4753POPC   C3A60161   7.601  12.995   6.875
 4753POPC   C4A60162   7.290  13.128   7.207
 4753POPC   C1B60163   7.629  12.503   6.240
 4753POPC   C2B60164   7.711  12.451   6.683
 4753POPC   C3B60165   7.530  12.553   7.087
 4753POPC   C4B60166   7.648  12.816   7.391
 4754POPC   NC360167  31.234   1.237   5.337
 4754POPC   PO460168  31.862   1.299   5.438
 4754POPC   GL160169  31.559   1.284   5.780
 4754POPC   GL260170  31.508   1.632   5.765
 4754POPC   C1A60171  31.425   1.127   6.210
 4754POPC   D2A60172  31.482   0.877   6.598
 4754POPC   C3A60173  31.252   1.028   6.918
 4754POPC   C4A60174  31.351   1.329   7.197
 4754POPC   C1B60175  31.578   1.658   6.223
 4754POPC   C2B60176  31.589   1.530   6.674
 4754POPC   C3B60177  31.667   1.704   7.088
 4754POPC   C4B60178  31.658   1.621   7.542
 4755POPC   NC360179  29.172  23.101   5.032
 4755POPC   PO460180  29.037  22.422   5.416
 4755POPC   GL160181  29.239  22.745   5.705
 4755POPC   GL260182  29.357  22.557   5.984
 4755POPC   C1A60183  29.163  23.039   6.073
 4755POPC   D2A60184  28.879  23.105   6.438
 4755POPC   C3A60185  29.008  23.098   6.854
 4755POPC   C4A60186  28.937  22.876   7.205
 4755POPC   C1B60187  29.444  22.737   6.401
 4755POPC   C2B60188  29.276  22.660   6.840
 4755POPC   C3B60189  29.396  22.624   7.288
 4755POPC   C4B60190  29.465  22.426   7.710
 4756POPC   NC360191  28.698  21.646   5.481
 4756POPC   PO460192  28.207  22.149   5.383
 4756POPC   GL160193  28.222  22.197   5.802
 4756POPC   GL260194  28.516  22.005   5.843
 4756POPC   C1A60195  28.251  22.281   6.245
 4756POPC   D2A60196  28.141  22.467   6.638
 4756POPC   C3A60197  28.274  22.170   6.956
 4756POPC   C4A60198  28.185  22.062   7.369
 4756POPC   C1B60199  28.645  21.967   6.298
 4756POPC   C2B60200  28.714  22.061   6.747
 4756POPC   C3B60201  28.725  21.860   7.170
 4756POPC   C4B60202  28.837  21.839   7.607
 4757POPC   NC360203  39.260  24.637   5.295
 4757POPC   PO460204  38.708  24.442   5.587
 4757POPC   GL160205  39.129  24.603   5.820
 4757POPC   GL260206  39.530  24.679   5.715
 4757POPC   C1A60207  39.412  24.408   6.151
 4757POPC   D2A60208  39.504  24.124   6.512
 4757POPC   C3A60209  39.438  24.308   6.928
 4757POPC   C4A60210  39.450  24.215   7.381
 4757POPC   C1B60211  39.462  24.927   6.074
 4757POPC   C2B60212  39.322  24.845   6.472
 4757POPC   C3B60213  39.422  24.854   6.902
 4757POPC   C4B60214  39.590  24.684   7.265
 4758POPC   NC360215  23.443  21.604   5.336
 4758POPC   PO460216  22.877  21.281   5.510
 4758POPC   GL160217  22.858  21.397   5.913
 4758POPC   GL260218  22.508  21.441   5.918
 4758POPC   C1A60219  22.810  21.624   6.302
 4758POPC   D2A60220  22.877  21.647   6.715
 4758POPC   C3A60221  23.170  21.332   6.849
 4758POPC   C4A60222  23.311  21.330   7.240
 4758POPC   C1B60223  22.512  21.213   6.297
 4758POPC   C2B60224  22.456  21.344   6.749
 4758POPC   C3B60225  22.738  21.358   7.124
 4758POPC   C4B60226  22.713  21.082   7.478
 4759POPC   NC360227  27.739   6.680   5.270
 4759POPC   PO460228  27.608   6.112   5.608
 4759POPC   GL160229  27.781   6.471   5.773
 4759POPC   GL260230  27.576   6.766   5.744
 4759POPC   C1A60231  27.866   6.441   6.201
 4759POPC   D2A60232  27.567   6.409   6.541
 4759POPC   C3A60233  27.632   6.589   6.941
 4759POPC   C4A60234  27.395   6.635   7.379
 4759POPC   C1B60235  27.679   6.906   6.152
 4759POPC   C2B60236  27.455   6.932   6.551
 4759POPC   C3B60237  27.298   6.967   6.972
 4759POPC   C4B60238  27.690   7.004   7.243
 4760POPC   NC360239  28.257  23.483   5.161
 4760POPC   PO460240  28.581  23.969   5.496
 4760POPC   GL160241  28.419  23.697   5.870
 4760POPC   GL260242  28.029  23.568   5.859
 4760POPC   C1A60243  28.586  23.792   6.284
 4760POPC   D2A60244  28.514  24.087   6.619
 4760POPC   C3A60245  28.328  24.035   6.995
 4760POPC   C4A60246  28.531  23.730   7.240
 4760POPC   C1B60247  28.042  23.637   6.301
 4760POPC   C2B60248  28.305  23.625   6.680
 4760POPC   C3B60249  28.583  23.363   6.904
 4760POPC   C4B60250  28.588  23.228   7.359
 4761POPC   NC360251  28.925   6.180   5.386
 4761POPC   PO460252  29.375   5.679   5.163
 4761POPC   GL160253  29.359   5.560   5.625
 4761POPC   GL260254  29.037   5.736   5.709
 4761POPC   C1A60255  29.263   5.501   6.087
 4761POPC   D2A60256  29.113   5.786   6.445
 4761POPC   C3A60257  29.179   5.707   6.910
 4761POPC   C4A60258  29.295   5.907   7.341
 4761POPC   C1B60259  29.066   6.109   6.035
 4761POPC   C2B60260  28.962   6.295   6.464
 4761POPC   C3B60261  28.793   6.040   6.784
 4761POPC   C4B60262  28.817   5.974   7.206
 4762POPC   NC360263  16.927  13.873   5.481
 4762POPC   PO460264  16.635  14.507   5.390
 4762POPC   GL160265  16.715  14.297   5.780
 4762POPC   GL260266  17.036  14.448   5.876
 4762POPC   C1A60267  16.626  14.480   6.212
 4762POPC   D2A60268  16.573  14.718   6.606
 4762POPC   C3A60269  16.526  14.524   7.033
 4762POPC   C4A60270  16.676  14.223   7.370
 4762POPC   C1B60271  17.040  14.152   6.187
 4762POPC   C2B60272  16.848  14.196   6.579
 4762POPC   C3B60273  16.994  14.327   6.963
 4762POPC   C4B60274  17.181  14.075   7.240
 4763POPC   NC360275  13.166   5.581   5.295
 4763POPC   PO460276  12.519   5.894   5.363
 4763POPC   GL160277  12.817   5.712   5.646
 4763POPC   GL260278  12.979   5.989   5.765
 4763POPC   C1A60279  12.890   5.540   6.064
 4763POPC   D2A60280  12.918   5.725   6.490
 4763POPC   C3A60281  12.846   5.512   6.891
 4763POPC   C4A60282  12.657   5.736   7.234
 4763POPC   C1B60283  13.220   5.933   6.127
 4763POPC   C2B60284  13.426   5.841   6.478
 4763POPC   C3B60285  13.353   5.961   6.861
 4763POPC   C4B60286  13.173   5.794   7.184
 4764POPC   NC360287  39.602  11.445   5.530
 4764POPC   PO460288  39.161  10.985   5.460
 4764POPC   GL160289  39.163  11.331   5.766
 4764POPC   GL260290  39.430  11.142   5.913
 4764POPC   C1A60291  39.207  11.532   6.183
 4764POPC   D2A60292  39.224  11.319   6.570
 4764POPC   C3A60293  39.332  11.446   6.982
 4764POPC   C4A60294  39.078  11.627   7.289
 4764POPC   C1B60295  39.533  10.989   6.314
 4764POPC   C2B60296  39.603  11.040   6.769
 4764POPC   C3B60297  39.420  10.934   7.133
 4764POPC   C4B60298  39.198  11.143   7.414
 4765POPC   NC360299  18.581   2.842   5.435
 4765POPC   PO460300  18.003   2.413   5.362
 4765POPC   GL160301  18.139   2.709   5.676
 4765POPC   GL260302  18.443   2.647   5.871
 4765POPC   C1A60303  18.059   2.891   6.100
 4765POPC   D2A60304  18.060   3.116   6.495
 4765POPC   C3A60305  18.322   2.872   6.775
 4765POPC   C4A60306  18.152   2.639   7.090
 4765POPC   C1B60307  18.564   2.349   6.170
 4765POPC   C2B60308  18.625   2.462   6.589
 4765POPC   C3B60309  18.562   2.338   6.986
 4765POPC   C4B60310  18.546   2.528   7.382
 4766POPC   NC360311  30.677  30.144   5.456
 4766POPC   PO460312  30.415  29.511   5.505
 4766POPC   GL160313  30.618  29.753   5.784
 4766POPC   GL260314  30.374  30.020   5.830
 4766POPC   C1A60315  30.794  29.976   6.132
 4766POPC   D2A60316  30.959  30.213   6.480
 4766POPC   C3A60317  30.930  30.067   6.920
 4766POPC   C4A60318  30.735  30.119   7.337
 4766POPC   C1B60319  30.280  29.988   6.243
 4766POPC   C2B60320  30.457  30.255   6.548
 4766POPC   C3B60321  30.403  30.156   6.954
 4766POPC   C4B60322  30.355  29.807   7.251
 4767POPC   NC360323  15.767   9.467   5.602
 4767POPC   PO460324  16.162  10.005   5.391
 4767POPC   GL160325  16.029   9.853   5.842
 4767POPC   GL260326  15.662   9.895   5.851
 4767POPC   C1A60327  16.143   9.732   6.306
 4767POPC   D2A60328  16.113   9.485   6.695
 4767POPC   C3A60329  16.243   9.762   7.051
 4767POPC   C4A60330  15.966  10.046   7.280
 4767POPC   C1B60331  15.622   9.604   6.211
 4767POPC   C2B60332  15.581   9.496   6.636
 4767POPC   C3B60333  15.745   9.633   7.019
 4767POPC   C4B60334  15.739   9.589   7.461
 4768POPC   NC360335  15.069  10.760   5.392
 4768POPC   PO460336  15.282  10.104   5.567
 4768POPC   GL160337  15.150  10.291   5.902
 4768POPC   GL260338  15.129  10.653   5.884
 4768POPC   C1A60339  15.318  10.353   6.288
 4768POPC   D2A60340  15.414  10.164   6.675
 4768POPC   C3A60341  15.128  10.275   7.045
 4768POPC   C4A60342  15.035  10.591   7.400
 4768POPC   C1B60343  15.403  10.842   6.201
 4768POPC   C2B60344  15.457  10.704   6.625
 4768POPC   C3B60345  15.273  10.784   7.000
 4768POPC   C4B60346  15.498  10.817   7.402
 4769POPC   NC360347  25.201   9.555   5.471
 4769POPC   PO460348  24.960   8.886   5.464
 4769POPC   GL160349  25.100   8.993   5.887
 4769POPC   GL260350  24.916   9.306   5.897
 4769POPC   C1A60351  25.287   8.905   6.335
 4769POPC   D2A60352  25.553   8.632   6.635
 4769POPC   C3A60353  25.581   8.807   7.072
 4769POPC   C4A60354  25.235   8.957   7.331
 4769POPC   C1B60355  24.920   9.252   6.348
 4769POPC   C2B60356  24.991   9.226   6.824
 4769POPC   C3B60357  25.051   9.421   7.237
 4769POPC   C4B60358  25.416   9.398   7.554
 4770POPC   NC360359  33.465  18.148   5.379
 4770POPC   PO460360  32.901  18.525   5.294
 4770POPC   GL160361  33.135  18.466   5.659
 4770POPC   GL260362  33.146  18.122   5.787
 4770POPC   C1A60363  33.195  18.527   6.096
 4770POPC   D2A60364  33.158  18.378   6.530
 4770POPC   C3A60365  33.261  18.529   6.941
 4770POPC   C4A60366  33.047  18.393   7.320
 4770POPC   C1B60367  32.994  17.915   6.163
 4770POPC   C2B60368  33.174  17.864   6.556
 4770POPC   C3B60369  33.110  18.028   6.954
 4770POPC   C4B60370  33.294  17.916   7.349
 4771POPC   NC360371  38.748  10.202   5.458
 4771POPC   PO460372  38.330   9.692   5.149
 4771POPC   GL160373  38.392   9.814   5.616
 4771POPC   GL260374  38.256  10.128   5.728
 4771POPC   C1A60375  38.517   9.806   6.080
 4771POPC   D2A60376  38.611   9.603   6.508
 4771POPC   C3A60377  38.369   9.661   6.891
 4771POPC   C4A60378  38.274   9.523   7.304
 4771POPC   C1B60379  38.314  10.281   6.152
 4771POPC   C2B60380  38.451  10.107   6.532
 4771POPC   C3B60381  38.268  10.158   6.902
 4771POPC   C4B60382  38.474   9.985   7.290
 4772POPC   NC360383  22.051  23.930   5.377
 4772POPC   PO460384  22.421  23.260   5.425
 4772POPC   GL160385  22.178  23.491   5.742
 4772POPC   GL260386  22.286  23.837   5.819
 4772POPC   C1A60387  22.127  23.580   6.218
 4772POPC   D2A60388  22.318  23.881   6.488
 4772POPC   C3A60389  22.186  23.763   6.866
 4772POPC   C4A60390  22.074  23.907   7.235
 4772POPC   C1B60391  21.900  23.990   6.039
 4772POPC   C2B60392  21.808  23.984   6.482
 4772POPC   C3B60393  21.689  23.960   6.891
 4772POPC   C4B60394  21.665  24.186   7.273
 4773POPC   NC360395  16.788  18.656   5.469
 4773POPC   PO460396  16.788  19.351   5.406
 4773POPC   GL160397  16.713  19.102   5.823
 4773POPC   GL260398  16.926  18.877   5.899
 4773POPC   C1A60399  16.537  18.917   6.237
 4773POPC   D2A60400  16.652  18.713   6.645
 4773POPC   C3A60401  16.511  18.863   7.076
 4773POPC   C4A60402  16.431  18.639   7.500
 4773POPC   C1B60403  17.065  19.070   6.256
 4773POPC   C2B60404  17.198  18.949   6.619
 4773POPC   C3B60405  17.031  18.845   6.972
 4773POPC   C4B60406  17.042  19.052   7.342
 4774POPC   NC360407   8.434  15.332   5.553
 4774POPC   PO460408   8.000  14.786   5.499
 4774POPC   GL160409   8.008  14.968   5.897
 4774POPC   GL260410   8.074  15.333   5.910
 4774POPC   C1A60411   8.037  15.045   6.334
 4774POPC   D2A60412   8.272  15.268   6.634
 4774POPC   C3A60413   8.220  15.068   7.042
 4774POPC   C4A60414   8.257  15.016   7.483
 4774POPC   C1B60415   7.900  15.533   6.254
 4774POPC   C2B60416   7.780  15.366   6.671
 4774POPC   C3B60417   7.998  15.533   7.035
 4774POPC   C4B60418   7.985  15.439   7.468
 4775POPC   NC360419  13.929  19.761   5.471
 4775POPC   PO460420  13.727  20.355   5.489
 4775POPC   GL160421  13.649  20.090   5.785
 4775POPC   GL260422  13.422  19.898   5.635
 4775POPC   C1A60423  13.774  19.802   6.110
 4775POPC   D2A60424  14.064  19.789   6.438
 4775POPC   C3A60425  13.976  19.579   6.804
 4775POPC   C4A60426  13.881  19.753   7.178
 4775POPC   C1B60427  13.285  19.937   6.096
 4775POPC   C2B60428  13.464  19.870   6.515
 4775POPC   C3B60429  13.455  19.626   6.882
 4775POPC   C4B60430  13.398  19.765   7.300
 4776POPC   NC360431  30.498   3.763   5.318
 4776POPC   PO460432  31.008   3.434   5.477
 4776POPC   GL160433  30.670   3.496   5.720
 4776POPC   GL260434  30.518   3.206   5.631
 4776POPC   C1A60435  30.743   3.643   6.130
 4776POPC   D2A60436  31.069   3.507   6.455
 4776POPC   C3A60437  30.954   3.711   6.816
 4776POPC   C4A60438  30.742   3.669   7.195
 4776POPC   C1B60439  30.443   3.190   6.066
 4776POPC   C2B60440  30.621   3.270   6.453
 4776POPC   C3B60441  30.695   3.270   6.846
 4776POPC   C4B60442  30.584   3.177   7.210
 4777POPC   NC360443  11.378  43.389   5.554
 4777POPC   PO460444  10.989  42.856   5.432
 4777POPC   GL160445  11.138  42.984   5.859
 4777POPC   GL260446  11.454  43.129   6.006
 4777POPC   C1A60447  11.083  43.019   6.316
 4777POPC   D2A60448  11.017  43.206   6.692
 4777POPC   C3A60449  11.024  42.918   7.040
 4777POPC   C4A60450  11.154  42.981   7.434
 4777POPC   C1B60451  11.526  43.214   6.419
 4777POPC   C2B60452  11.527  43.183   6.838
 4777POPC   C3B60453  11.553  43.221   7.267
 4777POPC   C4B60454  11.587  43.103   7.720
 4778POPC   NC360455  20.113  15.341   5.391
 4778POPC   PO460456  19.449  15.116   5.160
 4778POPC   GL160457  19.589  15.191   5.652
 4778POPC   GL260458  19.939  15.132   5.820
 4778POPC   C1A60459  19.546  15.053   6.122
 4778POPC   D2A60460  19.867  15.051   6.461
 4778POPC   C3A60461  19.868  15.168   6.925
 4778POPC   C4A60462  19.582  15.247   7.250
 4778POPC   C1B60463  20.042  15.416   6.142
 4778POPC   C2B60464  20.064  15.534   6.587
 4778POPC   C3B60465  20.062  15.662   7.022
 4778POPC   C4B60466  20.048  15.404   7.382
 4779POPC   NC360467   9.472  30.027   5.422
 4779POPC   PO460468  10.071  29.818   5.380
 4779POPC   GL160469   9.816  29.824   5.782
 4779POPC   GL260470   9.630  30.130   5.896
 4779POPC   C1A60471   9.810  29.791   6.254
 4779POPC   D2A60472   9.936  29.758   6.701
 4779POPC   C3A60473   9.848  30.114   6.939
 4779POPC   C4A60474   9.955  29.891   7.270
 4779POPC   C1B60475   9.346  30.009   6.234
 4779POPC   C2B60476   9.439  30.041   6.655
 4779POPC   C3B60477   9.407  29.841   7.046
 4779POPC   C4B60478   9.403  29.911   7.476
 4780POPC   NC360479  35.092  41.004   5.584
 4780POPC   PO460480  35.569  40.588   5.265
 4780POPC   GL160481  35.489  40.622   5.718
 4780POPC   GL260482  35.570  40.966   5.752
 4780POPC   C1A60483  35.243  40.512   6.121
 4780POPC   D2A60484  35.173  40.701   6.542
 4780POPC   C3A60485  35.121  40.476   6.952
 4780POPC   C4A60486  35.034  40.753   7.303
 4780POPC   C1B60487  35.423  40.971   6.171
 4780POPC   C2B60488  35.654  40.846   6.533
 4780POPC   C3B60489  35.553  40.764   6.946
 4780POPC   C4B60490  35.553  41.022   7.280
 4781POPC   NC360491  24.833  17.467   5.624
 4781POPC   PO460492  25.337  17.645   5.258
 4781POPC   GL160493  25.320  17.498   5.743
 4781POPC   GL260494  25.142  17.735   5.927
 4781POPC   C1A60495  25.250  17.260   6.193
 4781POPC   D2A60496  25.185  17.148   6.681
 4781POPC   C3A60497  25.341  17.404   7.057
 4781POPC   C4A60498  25.282  17.842   7.196
 4781POPC   C1B60499  25.416  17.766   6.303
 4781POPC   C2B60500  25.569  17.899   6.718
 4781POPC   C3B60501  25.781  17.865   7.092
 4781POPC   C4B60502  25.662  17.574   7.414
 4782POPC   NC360503  33.994  25.138   5.505
 4782POPC   PO460504  33.671  25.772   5.238
 4782POPC   GL160505  33.758  25.626   5.688
 4782POPC   GL260506  33.613  25.338   5.797
 4782POPC   C1A60507  33.901  25.627   6.157
 4782POPC   D2A60508  34.016  25.363   6.570
 4782POPC   C3A60509  33.853  25.470   6.970
 4782POPC   C4A60510  33.479  25.413   7.176
 4782POPC   C1B60511  33.725  25.155   6.192
 4782POPC   C2B60512  33.610  24.975   6.573
 4782POPC   C3B60513  33.617  24.918   6.998
 4782POPC   C4B60514  33.697  24.605   7.267
 4783POPC   NC360515   6.148   6.460   5.113
 4783POPC   PO460516   5.583   6.718   5.423
 4783POPC   GL160517   5.966   6.599   5.670
 4783POPC   GL260518   6.092   6.933   5.796
 4783POPC   C1A60519   6.156   6.506   6.106
 4783POPC   D2A60520   6.168   6.217   6.465
 4783POPC   C3A60521   6.114   6.465   6.830
 4783POPC   C4A60522   5.932   6.537   7.240
 4783POPC   C1B60523   5.751   6.794   6.122
 4783POPC   C2B60524   5.804   6.806   6.570
 4783POPC   C3B60525   5.725   6.939   6.987
 4783POPC   C4B60526   5.415   6.909   7.287
 4784POPC   NC360527   9.075  39.529   5.393
 4784POPC   PO460528   8.829  38.862   5.456
 4784POPC   GL160529   9.047  38.926   5.827
 4784POPC   GL260530   9.097  39.291   5.841
 4784POPC   C1A60531   8.962  39.015   6.263
 4784POPC   D2A60532   8.879  39.267   6.615
 4784POPC   C3A60533   8.753  39.098   7.013
 4784POPC   C4A60534   8.947  39.245   7.368
 4784POPC   C1B60535   9.224  39.478   6.226
 4784POPC   C2B60536   9.215  39.678   6.617
 4784POPC   C3B60537   9.215  39.437   6.987
 4784POPC   C4B60538   9.451  39.407   7.370
 4785POPC   NC360539  10.338  11.850   5.066
 4785POPC   PO460540  10.310  12.413   5.460
 4785POPC   GL160541  10.593  12.288   5.802
 4785POPC   GL260542  10.571  11.927   5.891
 4785POPC   C1A60543  10.793  12.294   6.225
 4785POPC   D2A60544  10.900  12.126   6.660
 4785POPC   C3A60545  10.704  12.218   7.076
 4785POPC   C4A60546  10.711  12.097   7.532
 4785POPC   C1B60547  10.534  11.878   6.361
 4785POPC   C2B60548  10.471  11.825   6.807
 4785POPC   C3B60549  10.294  11.581   7.136
 4785POPC   C4B60550  10.454  11.663   7.539
 4786POPC   NC360551  34.136  18.340   5.624
 4786POPC   PO460552  33.588  18.597   5.420
 4786POPC   GL160553  33.631  18.350   5.830
 4786POPC   GL260554  33.905  18.089   5.991
 4786POPC   C1A60555  33.474  18.148   6.218
 4786POPC   D2A60556  33.694  18.116   6.599
 4786POPC   C3A60557  33.625  18.134   7.026
 4786POPC   C4A60558  33.819  17.930   7.395
 4786POPC   C1B60559  33.887  18.496   6.262
 4786POPC   C2B60560  33.756  18.711   6.654
 4786POPC   C3B60561  33.728  18.641   7.084
 4786POPC   C4B60562  34.017  18.386   7.278
 4787POPC   NC360563  36.813  40.371   5.197
 4787POPC   PO460564  37.220  39.870   5.451
 4787POPC   GL160565  36.970  39.923   5.832
 4787POPC   GL260566  37.026  40.279   5.803
 4787POPC   C1A60567  36.835  39.798   6.286
 4787POPC   D2A60568  36.665  39.981   6.696
 4787POPC   C3A60569  36.559  39.796   7.119
 4787POPC   C4A60570  36.686  39.783   7.591
 4787POPC   C1B60571  36.911  40.329   6.253
 4787POPC   C2B60572  37.044  40.346   6.694
 4787POPC   C3B60573  36.836  40.266   7.108
 4787POPC   C4B60574  36.886  40.338   7.546
 4788POPC   NC360575  33.233  28.128   5.525
 4788POPC   PO460576  32.833  28.698   5.469
 4788POPC   GL160577  32.967  28.464   5.785
 4788POPC   GL260578  33.319  28.595   5.778
 4788POPC   C1A60579  33.021  28.343   6.177
 4788POPC   D2A60580  33.008  28.614   6.497
 4788POPC   C3A60581  32.986  28.434   6.867
 4788POPC   C4A60582  32.891  28.444   7.272
 4788POPC   C1B60583  33.510  28.397   6.160
 4788POPC   C2B60584  33.423  28.294   6.602
 4788POPC   C3B60585  33.457  28.447   7.050
 4788POPC   C4B60586  33.328  28.418   7.512
 4789POPC   NC360587   0.745  33.085   5.373
 4789POPC   PO460588   1.382  32.875   5.368
 4789POPC   GL160589   1.412  33.023   5.826
 4789POPC   GL260590   1.610  32.751   5.917
 4789POPC   C1A60591   1.286  33.120   6.302
 4789POPC   D2A60592   0.997  32.870   6.585
 4789POPC   C3A60593   0.946  32.935   7.026
 4789POPC   C4A60594   0.792  33.092   7.419
 4789POPC   C1B60595   1.787  32.696   6.304
 4789POPC   C2B60596   1.708  32.974   6.635
 4789POPC   C3B60597   1.360  33.194   6.837
 4789POPC   C4B60598   1.300  33.199   7.297
 4790POPC   NC360599  13.282  20.454   5.619
 4790POPC   PO460600  13.817  20.657   5.112
 4790POPC   GL160601  13.626  20.839   5.575
 4790POPC   GL260602  13.715  20.611   5.899
 4790POPC   C1A60603  13.503  21.010   6.045
 4790POPC   D2A60604  13.614  20.719   6.416
 4790POPC   C3A60605  13.636  20.712   6.885
 4790POPC   C4A60606  13.576  20.913   7.296
 4790POPC   C1B60607  13.845  20.312   6.208
 4790POPC   C2B60608  13.785  20.255   6.626
 4790POPC   C3B60609  13.531  20.147   6.950
 4790POPC   C4B60610  13.699  20.303   7.271
 4791POPC   NC360611   3.285  31.929   5.551
 4791POPC   PO460612   3.581  32.436   5.249
 4791POPC   GL160613   3.682  32.269   5.662
 4791POPC   GL260614   3.969  32.424   5.794
 4791POPC   C1A60615   3.761  32.050   6.075
 4791POPC   D2A60616   3.536  32.013   6.464
 4791POPC   C3A60617   3.715  31.990   6.851
 4791POPC   C4A60618   3.623  32.217   7.207
 4791POPC   C1B60619   4.101  32.468   6.198
 4791POPC   C2B60620   3.900  32.383   6.572
 4791POPC   C3B60621   4.020  32.510   6.965
 4791POPC   C4B60622   3.876  32.643   7.325
 4792POPC   NC360623  31.984   3.010   5.275
 4792POPC   PO460624  32.502   2.738   5.257
 4792POPC   GL160625  32.336   2.738   5.725
 4792POPC   GL260626  31.976   2.820   5.831
 4792POPC   C1A60627  32.390   2.862   6.145
 4792POPC   D2A60628  32.023   3.018   6.357
 4792POPC   C3A60629  32.133   2.959   6.772
 4792POPC   C4A60630  32.274   2.764   7.122
 4792POPC   C1B60631  32.014   2.511   6.155
 4792POPC   C2B60632  32.160   2.426   6.538
 4792POPC   C3B60633  32.024   2.320   6.949
 4792POPC   C4B60634  31.793   2.600   7.171
 4793POPC   NC360635  27.434  14.765   5.270
 4793POPC   PO460636  27.472  15.409   5.389
 4793POPC   GL160637  27.552  15.237   5.756
 4793POPC   GL260638  27.292  15.014   5.733
 4793POPC   C1A60639  27.683  15.092   6.147
 4793POPC   D2A60640  27.569  15.222   6.548
 4793POPC   C3A60641  27.850  15.017   6.847
 4793POPC   C4A60642  27.701  15.018   7.237
 4793POPC   C1B60643  27.184  15.207   6.161
 4793POPC   C2B60644  27.125  15.004   6.576
 4793POPC   C3B60645  27.225  15.157   7.013
 4793POPC   C4B60646  27.244  14.864   7.383
 4794POPC   NC360647  13.563  11.554   5.258
 4794POPC   PO460648  13.485  10.916   5.498
 4794POPC   GL160649  13.703  11.235   5.745
 4794POPC   GL260650  13.406  11.430   5.752
 4794POPC   C1A60651  13.832  11.446   6.188
 4794POPC   D2A60652  13.690  11.380   6.658
 4794POPC   C3A60653  13.983  11.367   7.055
 4794POPC   C4A60654  13.879  11.383   7.554
 4794POPC   C1B60655  13.314  11.357   6.172
 4794POPC   C2B60656  13.137  11.542   6.540
 4794POPC   C3B60657  13.342  11.675   6.874
 4794POPC   C4B60658  13.536  11.511   7.211
 4795POPC   NC360659   8.021  44.257   5.273
 4795POPC   PO460660   8.378  43.652   5.386
 4795POPC   GL160661   8.163  43.758   5.772
 4795POPC   GL260662   8.265  44.110   5.732
 4795POPC   C1A60663   7.955  43.648   6.195
 4795POPC   D2A60664   7.769  43.554   6.628
 4795POPC   C3A60665   7.968  43.743   7.004
 4795POPC   C4A60666   8.402  43.628   7.129
 4795POPC   C1B60667   8.068  44.162   6.132
 4795POPC   C2B60668   8.120  43.992   6.553
 4795POPC   C3B60669   8.310  44.131   6.932
 4795POPC   C4B60670   8.295  44.338   7.320
 4796POPC   NC360671  16.450  32.917   5.377
 4796POPC   PO460672  16.995  33.335   5.455
 4796POPC   GL160673  16.832  33.125   5.804
 4796POPC   GL260674  16.728  32.802   5.808
 4796POPC   C1A60675  16.634  33.119   6.209
 4796POPC   D2A60676  16.481  32.943   6.564
 4796POPC   C3A60677  16.620  33.034   6.941
 4796POPC   C4A60678  16.705  33.010   7.338
 4796POPC   C1B60679  16.885  32.670   6.199
 4796POPC   C2B60680  16.931  32.708   6.641
 4796POPC   C3B60681  16.787  32.530   7.024
 4796POPC   C4B60682  16.908  32.544   7.454
 4797POPC   NC360683  10.651  23.494   5.269
 4797POPC   PO460684  10.552  24.186   5.273
 4797POPC   GL160685  10.609  23.913   5.626
 4797POPC   GL260686  10.936  23.810   5.668
 4797POPC   C1A60687  10.591  23.856   6.100
 4797POPC   D2A60688  10.476  23.557   6.426
 4797POPC   C3A60689  10.568  23.650   6.853
 4797POPC   C4A60690  10.351  23.772   7.235
 4797POPC   C1B60691  10.913  23.453   5.995
 4797POPC   C2B60692  11.001  23.441   6.460
 4797POPC   C3B60693  11.020  23.421   6.914
 4797POPC   C4B60694  10.849  23.621   7.299
 4798POPC   NC360695  24.331  29.511   5.482
 4798POPC   PO460696  24.768  29.029   5.362
 4798POPC   GL160697  24.522  29.104   5.719
 4798POPC   GL260698  24.221  28.894   5.655
 4798POPC   C1A60699  24.612  29.295   6.130
 4798POPC   D2A60700  24.625  29.267   6.570
 4798POPC   C3A60701  24.584  28.941   6.839
 4798POPC   C4A60702  24.816  28.981   7.177
 4798POPC   C1B60703  24.145  29.078   6.062
 4798POPC   C2B60704  24.164  29.023   6.509
 4798POPC   C3B60705  24.092  28.881   6.912
 4798POPC   C4B60706  24.233  29.046   7.295
 4799POPC   NC360707  21.718  11.273   5.408
 4799POPC   PO460708  22.398  11.137   5.493
 4799POPC   GL160709  22.095  11.309   5.775
 4799POPC   GL260710  21.977  11.027   5.919
 4799POPC   C1A60711  21.989  11.445   6.225
 4799POPC   D2A60712  22.162  11.299   6.627
 4799POPC   C3A60713  21.958  11.358   7.045
 4799POPC   C4A60714  22.020  11.325   7.494
 4799POPC   C1B60715  22.410  11.147   6.153
 4799POPC   C2B60716  22.700  10.966   6.466
 4799POPC   C3B60717  22.628  10.976   6.912
 4799POPC   C4B60718  22.255  10.927   7.213
 4800POPC   NC360719  42.947  40.116   5.127
 4800POPC   PO460720  43.452  40.007   5.534
 4800POPC   GL160721  43.187  39.888   5.886
 4800POPC   GL260722  42.840  40.035   5.864
 4800POPC   C1A60723  43.140  39.994   6.326
 4800POPC   D2A60724  42.968  40.163   6.688
 4800POPC   C3A60725  43.247  40.149   7.010
 4800POPC   C4A60726  43.015  40.258   7.350
 4800POPC   C1B60727  42.744  39.692   6.165
 4800POPC   C2B60728  42.658  39.728   6.620
 4800POPC   C3B60729  42.884  39.748   7.017
 4800POPC   C4B60730  43.229  39.674   7.258
 4801POPC   NC360731  24.932   1.541   5.336
 4801POPC   PO460732  25.621   1.337   5.337
 4801POPC   GL160733  25.448   1.021   5.655
 4801POPC   GL260734  25.086   1.064   5.728
 4801POPC   C1A60735  25.466   0.985   6.115
 4801POPC   D2A60736  25.702   1.226   6.439
 4801POPC   C3A60737  25.678   1.252   6.883
 4801POPC   C4A60738  25.543   1.394   7.286
 4801POPC   C1B60739  24.929   1.063   6.143
 4801POPC   C2B60740  24.954   1.245   6.548
 4801POPC   C3B60741  25.188   1.134   6.878
 4801POPC   C4B60742  25.209   1.022   7.279
 4802POPC   NC360743  43.636   2.793   5.430
 4802POPC   PO460744  44.247   2.946   5.558
 4802POPC   GL160745  44.001   2.672   5.814
 4802POPC   GL260746  43.805   2.982   5.865
 4802POPC   C1A60747  44.047   2.633   6.292
 4802POPC   D2A60748  44.176   2.973   6.612
 4802POPC   C3A60749  44.271   2.869   7.071
 4802POPC   C4A60750  44.059   2.482   7.244
 4802POPC   C1B60751  43.588   2.754   6.132
 4802POPC   C2B60752  43.620   2.841   6.566
 4802POPC   C3B60753  43.765   2.801   6.970
 4802POPC   C4B60754  43.553   2.653   7.343
 4803POPC   NC360755  36.869  24.255   5.406
 4803POPC   PO460756  37.325  24.663   5.445
 4803POPC   GL160757  37.042  24.575   5.800
 4803POPC   GL260758  37.099  24.225   5.850
 4803POPC   C1A60759  37.075  24.533   6.272
 4803POPC   D2A60760  36.804  24.622   6.636
 4803POPC   C3A60761  36.972  24.567   7.027
 4803POPC   C4A60762  37.090  24.688   7.452
 4803POPC   C1B60763  36.815  24.055   6.155
 4803POPC   C2B60764  36.627  24.145   6.545
 4803POPC   C3B60765  36.566  24.208   6.984
 4803POPC   C4B60766  36.758  24.271   7.397
 4804POPC   NC360767  20.964  42.519   4.995
 4804POPC   PO460768  20.503  42.359   5.445
 4804POPC   GL160769  20.553  42.426   5.866
 4804POPC   GL260770  20.328  42.196   5.938
 4804POPC   C1A60771  20.893  42.353   6.147
 4804POPC   D2A60772  21.039  42.453   6.548
 4804POPC   C3A60773  20.981  42.102   6.859
 4804POPC   C4A60774  20.915  42.205   7.268
 4804POPC   C1B60775  20.163  42.126   6.330
 4804POPC   C2B60776  20.551  42.235   6.568
 4804POPC   C3B60777  20.612  42.436   6.908
 4804POPC   C4B60778  20.417  42.379   7.244
 4805POPC   NC360779  38.842   3.137   5.521
 4805POPC   PO460780  39.535   3.171   5.432
 4805POPC   GL160781  39.292   3.357   5.775
 4805POPC   GL260782  39.021   3.582   5.720
 4805POPC   C1A60783  39.442   3.581   6.120
 4805POPC   D2A60784  39.391   3.554   6.569
 4805POPC   C3A60785  39.405   3.458   7.013
 4805POPC   C4A60786  39.512   3.776   7.338
 4805POPC   C1B60787  38.946   3.630   6.163
 4805POPC   C2B60788  38.964   3.839   6.563
 4805POPC   C3B60789  39.071   3.850   6.984
 4805POPC   C4B60790  38.888   3.498   7.160
 4806POPC   NC360791   4.697  35.202   5.409
 4806POPC   PO460792   4.276  35.605   5.560
 4806POPC   GL160793   4.294  35.274   5.861
 4806POPC   GL260794   4.475  34.956   5.787
 4806POPC   C1A60795   4.449  35.309   6.307
 4806POPC   D2A60796   4.611  35.360   6.768
 4806POPC   C3A60797   4.236  35.455   7.069
 4806POPC   C4A60798   4.045  35.579   7.487
 4806POPC   C1B60799   4.667  34.867   6.186
 4806POPC   C2B60800   4.490  34.898   6.600
 4806POPC   C3B60801   4.389  34.965   7.037
 4806POPC   C4B60802   4.431  34.778   7.435
 4807POPC   NC360803  13.421  10.578   5.190
 4807POPC   PO460804  14.048  10.316   5.519
 4807POPC   GL160805  13.874  10.599   5.832
 4807POPC   GL260806  13.496  10.640   5.907
 4807POPC   C1A60807  13.841  10.518   6.258
 4807POPC   D2A60808  13.531  10.569   6.528
 4807POPC   C3A60809  13.767  10.500   6.837
 4807POPC   C4A60810  13.720  10.484   7.253
 4807POPC   C1B60811  13.648  10.968   6.190
 4807POPC   C2B60812  13.901  10.935   6.569
 4807POPC   C3B60813  13.703  10.962   6.988
 4807POPC   C4B60814  13.975  10.942   7.335
 4808POPC   NC360815  20.295   2.315   5.367
 4808POPC   PO460816  20.799   1.867   5.441
 4808POPC   GL160817  20.595   1.860   5.838
 4808POPC   GL260818  20.552   2.204   5.810
 4808POPC   C1A60819  20.765   1.885   6.266
 4808POPC   D2A60820  20.610   2.001   6.679
 4808POPC   C3A60821  20.602   1.737   7.066
 4808POPC   C4A60822  20.790   1.832   7.479
 4808POPC   C1B60823  20.295   2.108   6.175
 4808POPC   C2B60824  20.146   1.857   6.532
 4808POPC   C3B60825  20.183   2.001   6.955
 4808POPC   C4B60826  20.507   2.202   7.229
 4809POPC   NC360827  11.527   1.905   5.571
 4809POPC   PO460828  10.832   1.783   5.466
 4809POPC   GL160829  11.067   1.722   5.863
 4809POPC   GL260830  11.102   2.095   5.899
 4809POPC   C1A60831  11.206   1.771   6.320
 4809POPC   D2A60832  11.181   1.987   6.749
 4809POPC   C3A60833  11.354   1.673   7.071
 4809POPC   C4A60834  11.743   1.410   7.041
 4809POPC   C1B60835  11.181   2.299   6.317
 4809POPC   C2B60836  11.523   2.376   6.616
 4809POPC   C3B60837  11.631   2.294   7.021
 4809POPC   C4B60838  11.281   2.145   7.245
 4810POPC   NC360839  34.376   1.813   5.351
 4810POPC   PO460840  34.704   2.395   5.385
 4810POPC   GL160841  34.572   2.107   5.734
 4810POPC   GL260842  34.679   1.738   5.797
 4810POPC   C1A60843  34.365   2.001   6.123
 4810POPC   D2A60844  34.471   1.847   6.542
 4810POPC   C3A60845  34.323   2.008   6.921
 4810POPC   C4A60846  34.284   1.750   7.290
 4810POPC   C1B60847  34.870   1.811   6.221
 4810POPC   C2B60848  34.967   1.806   6.680
 4810POPC   C3B60849  34.734   1.705   7.049
 4810POPC   C4B60850  34.813   1.596   7.491
 4811POPC   NC360851  18.157  12.705   5.421
 4811POPC   PO460852  18.777  12.874   5.560
 4811POPC   GL160853  18.422  12.888   5.828
 4811POPC   GL260854  18.604  13.002   6.119
 4811POPC   C1A60855  18.175  12.752   6.193
 4811POPC   D2A60856  18.383  12.716   6.606
 4811POPC   C3A60857  18.261  12.652   7.039
 4811POPC   C4A60858  18.144  12.993   7.314
 4811POPC   C1B60859  18.259  13.206   6.393
 4811POPC   C2B60860  18.162  13.160   6.814
 4811POPC   C3B60861  18.543  13.103   7.000
 4811POPC   C4B60862  18.758  12.793   7.217
 4812POPC   NC360863  32.723   8.801   5.412
 4812POPC   PO460864  32.152   9.150   5.277
 4812POPC   GL160865  32.204   8.817   5.590
 4812POPC   GL260866  32.038   9.048   5.782
 4812POPC   C1A60867  32.257   8.709   6.078
 4812POPC   D2A60868  32.203   8.894   6.511
 4812POPC   C3A60869  32.334   8.722   6.945
 4812POPC   C4A60870  32.362   8.877   7.433
 4812POPC   C1B60871  31.839   9.194   6.116
 4812POPC   C2B60872  31.813   9.236   6.540
 4812POPC   C3B60873  32.068   9.197   6.920
 4812POPC   C4B60874  31.924   8.903   7.180
 4813POPC   NC360875  34.705  12.445   5.472
 4813POPC   PO460876  34.327  11.814   5.362
 4813POPC   GL160877  34.421  11.856   5.785
 4813POPC   GL260878  34.625  12.163   5.904
 4813POPC   C1A60879  34.490  11.773   6.201
 4813POPC   D2A60880  34.700  12.025   6.501
 4813POPC   C3A60881  34.557  11.898   6.854
 4813POPC   C4A60882  34.576  11.979   7.247
 4813POPC   C1B60883  34.953  12.351   6.179
 4813POPC   C2B60884  35.119  12.306   6.619
 4813POPC   C3B60885  34.838  12.334   6.971
 4813POPC   C4B60886  34.876  12.342   7.412
 4814POPC   NC360887  13.123  39.473   5.551
 4814POPC   PO460888  12.974  40.142   5.373
 4814POPC   GL160889  12.828  40.136   5.789
 4814POPC   GL260890  12.610  39.854   5.876
 4814POPC   C1A60891  13.010  40.131   6.193
 4814POPC   D2A60892  12.844  40.240   6.580
 4814POPC   C3A60893  12.965  39.987   6.891
 4814POPC   C4A60894  12.741  39.995   7.210
 4814POPC   C1B60895  12.517  39.940   6.339
 4814POPC   C2B60896  12.481  39.728   6.754
 4814POPC   C3B60897  12.330  39.724   7.196
 4814POPC   C4B60898  12.622  39.643   7.588
 4815POPC   NC360899   7.519  10.703   5.465
 4815POPC   PO460900   7.341  10.079   5.332
 4815POPC   GL160901   7.274  10.291   5.725
 4815POPC   GL260902   7.603  10.307   5.830
 4815POPC   C1A60903   7.045  10.438   6.111
 4815POPC   D2A60904   7.172  10.608   6.532
 4815POPC   C3A60905   7.316  10.286   6.814
 4815POPC   C4A60906   7.328  10.331   7.259
 4815POPC   C1B60907   7.560  10.583   6.187
 4815POPC   C2B60908   7.708  10.568   6.620
 4815POPC   C3B60909   7.715  10.615   7.057
 4815POPC   C4B60910   7.815  10.426   7.452
 4816POPC   NC360911   0.166  43.809   5.267
 4816POPC   PO460912   0.841  43.962   5.478
 4816POPC   GL160913   0.581  43.815   5.774
 4816POPC   GL260914   0.207  43.771   5.770
 4816POPC   C1A60915   0.606  44.076   6.123
 4816POPC   D2A60916   0.401  44.096   6.489
 4816POPC   C3A60917   0.612  43.909   6.808
 4816POPC   C4A60918   0.516  44.000   7.215
 4816POPC   C1B60919   0.287  43.666   6.189
 4816POPC   C2B60920   0.160  43.610   6.617
 4816POPC   C3B60921   0.282  43.583   7.051
 4816POPC   C4B60922   0.342  43.623   7.506
 4817POPC   NC360923  23.307  17.122   5.493
 4817POPC   PO460924  22.782  16.769   5.551
 4817POPC   GL160925  23.141  16.727   5.829
 4817POPC   GL260926  23.046  16.375   5.879
 4817POPC   C1A60927  23.231  16.992   6.210
 4817POPC   D2A60928  23.153  17.188   6.627
 4817POPC   C3A60929  23.158  17.010   7.061
 4817POPC   C4A60930  23.064  17.043   7.543
 4817POPC   C1B60931  22.988  16.523   6.290
 4817POPC   C2B60932  23.022  16.273   6.643
 4817POPC   C3B60933  23.236  16.377   7.005
 4817POPC   C4B60934  23.174  16.592   7.340
 4818POPC   NC360935  32.813  33.509   5.367
 4818POPC   PO460936  32.173  33.798   5.402
 4818POPC   GL160937  32.145  33.670   5.811
 4818POPC   GL260938  32.521  33.601   5.807
 4818POPC   C1A60939  32.178  33.760   6.263
 4818POPC   D2A60940  32.121  33.558   6.681
 4818POPC   C3A60941  32.086  33.828   7.039
 4818POPC   C4A60942  31.966  33.778   7.493
 4818POPC   C1B60943  32.736  33.688   6.201
 4818POPC   C2B60944  32.648  33.558   6.628
 4818POPC   C3B60945  32.687  33.635   7.074
 4818POPC   C4B60946  32.464  33.877   7.375
 4819POPC   NC360947   9.236  18.115   5.359
 4819POPC   PO460948   8.632  18.325   5.531
 4819POPC   GL160949   9.000  18.494   5.752
 4819POPC   GL260950   9.344  18.359   5.794
 4819POPC   C1A60951   8.998  18.551   6.204
 4819POPC   D2A60952   8.659  18.410   6.507
 4819POPC   C3A60953   8.739  18.187   6.882
 4819POPC   C4A60954   8.776  18.255   7.284
 4819POPC   C1B60955   9.371  18.101   6.155
 4819POPC   C2B60956   9.133  18.165   6.534
 4819POPC   C3B60957   9.207  18.371   6.928
 4819POPC   C4B60958   9.245  18.039   7.197
 4820POPC   NC360959  10.925   4.498   5.632
 4820POPC   PO460960  10.376   4.174   5.516
 4820POPC   GL160961  10.500   4.277   5.882
 4820POPC   GL260962  10.747   4.022   5.910
 4820POPC   C1A60963  10.301   4.425   6.241
 4820POPC   D2A60964  10.085   4.179   6.582
 4820POPC   C3A60965  10.271   4.230   6.995
 4820POPC   C4A60966  10.236   4.622   7.177
 4820POPC   C1B60967  10.747   4.174   6.335
 4820POPC   C2B60968  10.574   4.488   6.657
 4820POPC   C3B60969  10.739   4.633   7.047
 4820POPC   C4B60970  10.977   4.739   7.393
 4821POPC   NC360971  22.460  35.411   5.549
 4821POPC   PO460972  22.180  34.968   5.137
 4821POPC   GL160973  22.033  34.984   5.608
 4821POPC   GL260974  21.892  35.327   5.715
 4821POPC   C1A60975  22.143  35.036   6.083
 4821POPC   D2A60976  22.077  35.033   6.541
 4821POPC   C3A60977  22.198  35.269   6.917
 4821POPC   C4A60978  21.953  35.255   7.302
 4821POPC   C1B60979  22.056  35.537   6.104
 4821POPC   C2B60980  22.375  35.483   6.454
 4821POPC   C3B60981  22.611  35.594   6.837
 4821POPC   C4B60982  22.555  35.874   7.172
 4822POPC   NC360983  29.113  25.446   5.371
 4822POPC   PO460984  29.145  24.751   5.229
 4822POPC   GL160985  29.029  25.006   5.638
 4822POPC   GL260986  28.892  25.352   5.815
 4822POPC   C1A60987  29.155  25.026   6.098
 4822POPC   D2A60988  29.520  24.978   6.379
 4822POPC   C3A60989  29.485  25.024   6.826
 4822POPC   C4A60990  29.297  25.237   7.162
 4822POPC   C1B60991  29.118  25.520   6.184
 4822POPC   C2B60992  29.204  25.423   6.617
 4822POPC   C3B60993  28.871  25.352   6.914
 4822POPC   C4B60994  28.713  25.178   7.296
 4823POPC   NC360995  11.561  20.411   5.500
 4823POPC   PO460996  12.163  20.687   5.348
 4823POPC   GL160997  12.015  20.705   5.832
 4823POPC   GL260998  12.282  20.817   6.068
 4823POPC   C1A60999  11.887  20.596   6.288
 4823POPC   D2A61000  12.093  20.637   6.666
 4823POPC   C3A61001  11.852  20.585   7.075
 4823POPC   C4A61002  12.026  20.390   7.449
 4823POPC   C1B61003  12.327  20.345   6.207
 4823POPC   C2B61004  12.234  20.113   6.602
 4823POPC   C3B61005  12.275  20.304   7.009
 4823POPC   C4B61006  12.318  20.781   7.108
 4824POPC   NC361007  28.344  35.702   5.426
 4824POPC   PO461008  28.784  35.110   5.476
 4824POPC   GL161009  28.722  35.497   5.790
 4824POPC   GL261010  28.350  35.572   5.916
 4824POPC   C1A61011  28.705  35.574   6.276
 4824POPC   D2A61012  28.447  35.643   6.675
 4824POPC   C3A61013  28.487  35.420   7.083
 4824POPC   C4A61014  28.429  35.447   7.525
 4824POPC   C1B61015  28.184  35.367   6.314
 4824POPC   C2B61016  28.032  35.226   6.748
 4824POPC   C3B61017  28.183  35.007   7.144
 4824POPC   C4B61018  28.103  35.047   7.584
 4825POPC   NC361019  38.922  42.454   5.587
 4825POPC   PO461020  39.370  42.072   5.445
 4825POPC   GL161021  39.446  42.304   5.817
 4825POPC   GL261022  39.493  41.987   5.949
 4825POPC   C1A61023  39.281  42.376   6.235
 4825POPC   D2A61024  39.179  42.531   6.611
 4825POPC   C3A61025  39.321  42.483   6.995
 4825POPC   C4A61026  39.080  42.282   7.250
 4825POPC   C1B61027  39.116  41.903   6.163
 4825POPC   C2B61028  39.309  41.922   6.573
 4825POPC   C3B61029  39.395  41.973   7.002
 4825POPC   C4B61030  39.215  41.784   7.360
 4826POPC   NC361031  11.332  18.862   5.315
 4826POPC   PO461032  11.465  19.560   5.443
 4826POPC   GL161033  11.430  19.291   5.813
 4826POPC   GL261034  11.543  18.932   5.793
 4826POPC   C1A61035  11.522  19.304   6.254
 4826POPC   D2A61036  11.332  19.076   6.600
 4826POPC   C3A61037  11.529  18.920   6.975
 4826POPC   C4A61038  11.686  19.070   7.358
 4826POPC   C1B61039  11.229  18.839   6.135
 4826POPC   C2B61040  10.993  18.700   6.520
 4826POPC   C3B61041  11.008  18.884   6.947
 4826POPC   C4B61042  11.190  18.816   7.355
 4827POPC   NC361043   7.147  27.869   5.385
 4827POPC   PO461044   7.537  27.346   5.236
 4827POPC   GL161045   7.512  27.344   5.709
 4827POPC   GL261046   7.452  27.697   5.823
 4827POPC   C1A61047   7.206  27.308   6.086
 4827POPC   D2A61048   7.099  27.562   6.470
 4827POPC   C3A61049   7.169  27.384   6.889
 4827POPC   C4A61050   7.089  27.575   7.292
 4827POPC   C1B61051   7.657  27.511   6.224
 4827POPC   C2B61052   7.634  27.429   6.670
 4827POPC   C3B61053   7.565  27.641   7.070
 4827POPC   C4B61054   7.542  27.674   7.504
 4828POPC   NC361055  35.072  37.833   5.420
 4828POPC   PO461056  35.539  37.396   5.412
 4828POPC   GL161057  35.385  37.660   5.789
 4828POPC   GL261058  35.326  38.041   5.828
 4828POPC   C1A61059  35.362  37.645   6.244
 4828POPC   D2A61060  35.538  37.416   6.599
 4828POPC   C3A61061  35.416  37.400   7.032
 4828POPC   C4A61062  35.487  37.408   7.463
 4828POPC   C1B61063  35.382  38.180   6.271
 4828POPC   C2B61064  35.292  37.921   6.653
 4828POPC   C3B61065  35.373  37.932   7.070
 4828POPC   C4B61066  35.351  38.001   7.524
 4829POPC   NC361067  30.397   7.950   5.547
 4829POPC   PO461068  29.813   8.239   5.371
 4829POPC   GL161069  29.770   8.136   5.810
 4829POPC   GL261070  30.111   8.213   5.877
 4829POPC   C1A61071  29.752   8.298   6.252
 4829POPC   D2A61072  29.984   8.330   6.607
 4829POPC   C3A61073  29.776   8.254   7.020
 4829POPC   C4A61074  29.647   7.991   7.399
 4829POPC   C1B61075  30.282   8.496   6.176
 4829POPC   C2B61076  30.451   8.551   6.589
 4829POPC   C3B61077  30.248   8.543   6.974
 4829POPC   C4B61078  30.257   8.256   7.267
 4830POPC   NC361079  28.178  36.537   5.561
 4830POPC   PO461080  28.665  36.972   5.487
 4830POPC   GL161081  28.611  37.212   5.828
 4830POPC   GL261082  28.267  37.207   5.751
 4830POPC   C1A61083  28.634  37.048   6.238
 4830POPC   D2A61084  28.528  36.648   6.435
 4830POPC   C3A61085  28.580  36.706   6.863
 4830POPC   C4A61086  28.730  37.104   7.052
 4830POPC   C1B61087  28.154  36.943   6.114
 4830POPC   C2B61088  28.085  37.022   6.543
 4830POPC   C3B61089  28.192  37.018   6.970
 4830POPC   C4B61090  28.337  36.792   7.297
 4831POPC   NC361091   1.820  44.193   5.467
 4831POPC   PO461092   2.425  43.940   5.397
 4831POPC   GL161093   2.157  43.891   5.793
 4831POPC   GL261094   1.812  43.746   5.774
 4831POPC   C1A61095   2.100  43.879   6.269
 4831POPC   D2A61096   2.229  44.155   6.648
 4831POPC   C3A61097   2.225  44.032   7.120
 4831POPC   C4A61098   2.443  44.003   7.534
 4831POPC   C1B61099   1.607  44.033   6.105
 4831POPC   C2B61100   1.683  44.157   6.553
 4831POPC   C3B61101   1.478  44.098   6.966
 4831POPC   C4B61102   1.533  43.807   7.328
 4832POPC   NC361103   2.485  27.659   5.527
 4832POPC   PO461104   3.126  27.401   5.489
 4832POPC   GL161105   2.964  27.298   5.921
 4832POPC   GL261106   2.549  27.355   5.933
 4832POPC   C1A61107   3.193  27.454   6.323
 4832POPC   D2A61108   3.079  27.815   6.616
 4832POPC   C3A61109   3.026  27.667   7.063
 4832POPC   C4A61110   2.741  27.643   7.414
 4832POPC   C1B61111   2.701  27.594   6.284
 4832POPC   C2B61112   2.814  27.385   6.671
 4832POPC   C3B61113   2.621  27.267   7.028
 4832POPC   C4B61114   2.311  27.446   7.266
 4833POPC   NC361115  31.115  39.861   5.571
 4833POPC   PO461116  30.589  40.276   5.522
 4833POPC   GL161117  30.552  39.946   5.825
 4833POPC   GL261118  30.840  40.048   5.979
 4833POPC   C1A61119  30.511  39.725   6.215
 4833POPC   D2A61120  30.798  39.772   6.565
 4833POPC   C3A61121  30.661  39.683   6.983
 4833POPC   C4A61122  30.955  39.857   7.263
 4833POPC   C1B61123  30.872  40.449   6.202
 4833POPC   C2B61124  30.929  40.485   6.655
 4833POPC   C3B61125  30.831  40.349   7.083
 4833POPC   C4B61126  30.502  40.099   7.282
 4834POPC   NC361127  26.306  39.195   5.030
 4834POPC   PO461128  26.915  39.070   5.366
 4834POPC   GL161129  26.922  39.321   5.795
 4834POPC   GL261130  26.586  39.332   5.951
 4834POPC   C1A61131  26.920  39.496   6.278
 4834POPC   D2A61132  26.735  39.360   6.698
 4834POPC   C3A61133  26.796  39.458   7.148
 4834POPC   C4A61134  27.067  39.315   7.462
 4834POPC   C1B61135  26.647  39.015   6.306
 4834POPC   C2B61136  26.641  38.851   6.762
 4834POPC   C3B61137  26.798  38.955   7.196
 4834POPC   C4B61138  26.556  39.207   7.539
 4835POPC   NC361139  33.075   0.680   5.033
 4835POPC   PO461140  33.296   0.260   5.589
 4835POPC   GL161141  33.211   0.562   5.901
 4835POPC   GL261142  32.869   0.673   5.933
 4835POPC   C1A61143  33.177   0.661   6.331
 4835POPC   D2A61144  33.246   0.819   6.723
 4835POPC   C3A61145  32.986   0.543   6.909
 4835POPC   C4A61146  33.065   0.383   7.278
 4835POPC   C1B61147  32.801   0.285   6.162
 4835POPC   C2B61148  32.656   0.163   6.587
 4835POPC   C3B61149  32.697   0.116   7.028
 4835POPC   C4B61150  32.659   0.116   7.471
 4836POPC   NC361151  22.332  38.605   5.428
 4836POPC   PO461152  21.802  38.204   5.461
 4836POPC   GL161153  22.060  38.362   5.800
 4836POPC   GL261154  22.325  38.139   5.804
 4836POPC   C1A61155  22.346  38.566   6.143
 4836POPC   D2A61156  22.404  38.764   6.587
 4836POPC   C3A61157  22.121  38.585   6.893
 4836POPC   C4A61158  22.004  38.376   7.269
 4836POPC   C1B61159  22.185  38.064   6.192
 4836POPC   C2B61160  22.341  38.246   6.553
 4836POPC   C3B61161  22.289  38.111   6.937
 4836POPC   C4B61162  22.367  37.995   7.313
 4837POPC   NC361163  22.528  10.692   5.485
 4837POPC   PO461164  23.141  10.477   5.376
 4837POPC   GL161165  23.009  10.597   5.755
 4837POPC   GL261166  23.321  10.694   5.869
 4837POPC   C1A61167  22.813  10.539   6.168
 4837POPC   D2A61168  22.895  10.182   6.487
 4837POPC   C3A61169  22.836  10.318   6.931
 4837POPC   C4A61170  22.628  10.566   7.263
 4837POPC   C1B61171  23.298  10.441   6.233
 4837POPC   C2B61172  23.099  10.632   6.598
 4837POPC   C3B61173  23.086  10.758   7.013
 4837POPC   C4B61174  23.117  10.583   7.410
 4838POPC   NC361175  21.143  26.108   5.160
 4838POPC   PO461176  21.801  25.992   5.335
 4838POPC   GL161177  21.700  25.954   5.794
 4838POPC   GL261178  21.513  25.710   5.897
 4838POPC   C1A61179  21.507  26.251   6.158
 4838POPC   D2A61180  21.591  26.318   6.584
 4838POPC   C3A61181  21.332  26.224   6.903
 4838POPC   C4A61182  21.430  26.189   7.333
 4838POPC   C1B61183  21.247  25.837   6.236
 4838POPC   C2B61184  21.377  25.761   6.672
 4838POPC   C3B61185  21.266  25.755   7.096
 4838POPC   C4B61186  20.943  25.589   7.352
 4839POPC   NC361187   9.992  27.352   5.107
 4839POPC   PO461188   9.626  26.843   5.369
 4839POPC   GL161189   9.572  26.796   5.834
 4839POPC   GL261190   9.773  27.041   5.940
 4839POPC   C1A61191   9.804  26.618   6.234
 4839POPC   D2A61192   9.788  26.800   6.654
 4839POPC   C3A61193   9.858  26.603   7.059
 4839POPC   C4A61194   9.850  26.614   7.501
 4839POPC   C1B61195   9.471  27.067   6.298
 4839POPC   C2B61196   9.521  27.233   6.739
 4839POPC   C3B61197   9.737  27.138   7.162
 4839POPC   C4B61198   9.593  27.108   7.603
 4840POPC   NC361199   3.722   0.965   5.372
 4840POPC   PO461200   4.344   0.915   5.437
 4840POPC   GL161201   4.252   1.204   5.789
 4840POPC   GL261202   3.988   1.464   5.727
 4840POPC   C1A61203   4.422   1.181   6.214
 4840POPC   D2A61204   4.221   0.987   6.578
 4840POPC   C3A61205   4.363   1.112   6.985
 4840POPC   C4A61206   4.522   0.909   7.344
 4840POPC   C1B61207   3.937   1.400   6.192
 4840POPC   C2B61208   3.773   1.326   6.622
 4840POPC   C3B61209   3.936   1.417   7.027
 4840POPC   C4B61210   3.970   1.501   7.452
 4841POPC   NC361211   8.648  29.064   5.436
 4841POPC   PO461212   9.205  29.353   5.379
 4841POPC   GL161213   9.034  29.224   5.776
 4841POPC   GL261214   8.762  29.478   5.764
 4841POPC   C1A61215   9.122  29.042   6.208
 4841POPC   D2A61216   9.110  29.226   6.622
 4841POPC   C3A61217   9.112  28.975   6.983
 4841POPC   C4A61218   9.033  28.953   7.436
 4841POPC   C1B61219   8.640  29.210   6.129
 4841POPC   C2B61220   8.677  29.002   6.530
 4841POPC   C3B61221   8.652  29.159   6.948
 4841POPC   C4B61222   8.323  29.239   7.198
 4842POPC   NC361223  34.823   6.074   5.412
 4842POPC   PO461224  34.306   5.647   5.309
 4842POPC   GL161225  34.502   5.768   5.718
 4842POPC   GL261226  34.484   6.149   5.801
 4842POPC   C1A61227  34.737   5.653   6.103
 4842POPC   D2A61228  34.571   5.468   6.497
 4842POPC   C3A61229  34.745   5.558   6.928
 4842POPC   C4A61230  34.520   5.690   7.330
 4842POPC   C1B61231  34.778   6.175   6.129
 4842POPC   C2B61232  34.830   5.947   6.532
 4842POPC   C3B61233  34.604   6.040   6.921
 4842POPC   C4B61234  34.758   6.325   7.190
 4843POPC   NC361235  33.928  37.960   5.520
 4843POPC   PO461236  33.797  37.341   5.428
 4843POPC   GL161237  33.900  37.466   5.833
 4843POPC   GL261238  33.550  37.497   5.856
 4843POPC   C1A61239  33.931  37.727   6.236
 4843POPC   D2A61240  33.733  38.002   6.579
 4843POPC   C3A61241  33.731  37.840   7.012
 4843POPC   C4A61242  34.052  37.550   7.148
 4843POPC   C1B61243  33.586  37.293   6.215
 4843POPC   C2B61244  33.645  37.478   6.596
 4843POPC   C3B61245  33.554  37.349   6.974
 4843POPC   C4B61246  33.667  37.378   7.391
 4844POPC   NC361247  16.632  20.927   5.441
 4844POPC   PO461248  16.899  20.281   5.417
 4844POPC   GL161249  16.944  20.450   5.822
 4844POPC   GL261250  17.206  20.717   5.842
 4844POPC   C1A61251  16.710  20.437   6.217
 4844POPC   D2A61252  16.647  20.634   6.629
 4844POPC   C3A61253  16.629  20.359   6.986
 4844POPC   C4A61254  16.521  20.530   7.376
 4844POPC   C1B61255  17.085  20.814   6.288
 4844POPC   C2B61256  17.032  20.965   6.715
 4844POPC   C3B61257  16.813  20.847   7.103
 4844POPC   C4B61258  17.055  20.604   7.447
 4845POPC   NC361259  43.667  23.635   5.323
 4845POPC   PO461260  44.124  24.131   5.294
 4845POPC   GL161261  43.997  24.134   5.747
 4845POPC   GL261262  43.718  23.885   5.765
 4845POPC   C1A61263  43.957  24.047   6.201
 4845POPC   D2A61264  44.062  23.659   6.418
 4845POPC   C3A61265  44.144  23.688   6.852
 4845POPC   C4A61266  44.066  23.773   7.299
 4845POPC   C1B61267  43.603  23.666   6.138
 4845POPC   C2B61268  43.581  23.571   6.580
 4845POPC   C3B61269  43.669  23.614   7.008
 4845POPC   C4B61270  43.547  23.875   7.359
 4846POPC   NC361271  17.139   5.642   5.280
 4846POPC   PO461272  17.567   6.136   5.498
 4846POPC   GL161273  17.512   5.977   5.909
 4846POPC   GL261274  17.396   5.634   5.833
 4846POPC   C1A61275  17.597   5.991   6.354
 4846POPC   D2A61276  17.865   5.755   6.633
 4846POPC   C3A61277  17.572   5.678   6.979
 4846POPC   C4A61278  17.388   6.060   7.104
 4846POPC   C1B61279  17.215   5.641   6.262
 4846POPC   C2B61280  17.169   5.465   6.693
 4846POPC   C3B61281  17.031   5.666   7.075
 4846POPC   C4B61282  17.158   5.759   7.493
 4847POPC   NC361283  20.157  37.228   5.432
 4847POPC   PO461284  19.755  36.659   5.284
 4847POPC   GL161285  19.853  36.749   5.730
 4847POPC   GL261286  19.550  36.832   5.981
 4847POPC   C1A61287  20.003  37.015   6.060
 4847POPC   D2A61288  19.750  37.089   6.425
 4847POPC   C3A61289  19.916  37.182   6.833
 4847POPC   C4A61290  19.728  37.105   7.227
 4847POPC   C1B61291  19.730  36.588   6.354
 4847POPC   C2B61292  19.839  36.670   6.819
 4847POPC   C3B61293  19.721  36.591   7.267
 4847POPC   C4B61294  19.556  36.626   7.745
 4848POPC   NC361295  27.940  15.086   5.432
 4848POPC   PO461296  28.369  15.546   5.487
 4848POPC   GL161297  28.429  15.174   5.735
 4848POPC   GL261298  28.121  15.103   5.896
 4848POPC   C1A61299  28.546  15.000   6.153
 4848POPC   D2A61300  28.319  15.069   6.524
 4848POPC   C3A61301  28.376  14.957   6.931
 4848POPC   C4A61302  28.192  15.078   7.315
 4848POPC   C1B61303  28.063  15.448   6.156
 4848POPC   C2B61304  28.003  15.448   6.595
 4848POPC   C3B61305  28.189  15.446   6.974
 4848POPC   C4B61306  28.411  15.629   7.312
 4849POPC   NC361307  16.321   6.399   5.283
 4849POPC   PO461308  15.729   6.681   5.380
 4849POPC   GL161309  15.994   6.692   5.742
 4849POPC   GL261310  16.266   6.515   5.767
 4849POPC   C1A61311  15.926   6.573   6.167
 4849POPC   D2A61312  15.717   6.600   6.517
 4849POPC   C3A61313  15.901   6.663   6.907
 4849POPC   C4A61314  15.686   6.695   7.312
 4849POPC   C1B61315  16.390   6.729   6.139
 4849POPC   C2B61316  16.297   6.558   6.543
 4849POPC   C3B61317  16.429   6.601   6.934
 4849POPC   C4B61318  16.207   6.741   7.297
 4850POPC   NC361319  40.513  12.324   5.222
 4850POPC   PO461320  40.951  11.878   5.446
 4850POPC   GL161321  40.863  12.126   5.808
 4850POPC   GL261322  40.791  11.851   6.068
 4850POPC   C1A61323  40.610  12.318   6.122
 4850POPC   D2A61324  40.760  12.129   6.496
 4850POPC   C3A61325  40.742  12.325   6.871
 4850POPC   C4A61326  40.781  12.186   7.260
 4850POPC   C1B61327  40.350  11.908   6.271
 4850POPC   C2B61328  40.282  12.209   6.639
 4850POPC   C3B61329  40.363  12.001   7.039
 4850POPC   C4B61330  40.653  11.695   7.275
 4851POPC   NC361331   8.747   6.802   5.377
 4851POPC   PO461332   9.437   6.951   5.648
 4851POPC   GL161333   9.123   6.765   5.943
 4851POPC   GL261334   8.773   6.741   5.864
 4851POPC   C1A61335   8.951   6.507   6.264
 4851POPC   D2A61336   8.781   6.264   6.552
 4851POPC   C3A61337   8.926   6.539   6.855
 4851POPC   C4A61338   9.039   6.490   7.250
 4851POPC   C1B61339   8.698   7.066   6.112
 4851POPC   C2B61340   8.804   6.969   6.493
 4851POPC   C3B61341   8.663   7.132   6.842
 4851POPC   C4B61342   8.822   6.966   7.196
 4852POPC   NC361343  38.603  37.488   5.593
 4852POPC   PO461344  38.485  38.149   5.581
 4852POPC   GL161345  38.371  37.844   5.934
 4852POPC   GL261346  38.068  37.676   5.848
 4852POPC   C1A61347  38.402  37.590   6.337
 4852POPC   D2A61348  38.678  37.555   6.721
 4852POPC   C3A61349  38.617  37.898   7.025
 4852POPC   C4A61350  38.297  37.992   7.324
 4852POPC   C1B61351  37.913  37.510   6.242
 4852POPC   C2B61352  38.028  37.322   6.647
 4852POPC   C3B61353  38.198  37.562   7.000
 4852POPC   C4B61354  38.285  37.495   7.428
 4853POPC   NC361355  34.411  21.664   5.483
 4853POPC   PO461356  34.901  21.241   5.481
 4853POPC   GL161357  34.615  21.270   5.814
 4853POPC   GL261358  34.722  21.606   5.882
 4853POPC   C1A61359  34.663  21.301   6.289
 4853POPC   D2A61360  34.441  21.314   6.697
 4853POPC   C3A61361  34.741  21.128   6.968
 4853POPC   C4A61362  34.721  21.058   7.384
 4853POPC   C1B61363  34.363  21.701   6.192
 4853POPC   C2B61364  34.389  21.849   6.645
 4853POPC   C3B61365  34.516  21.722   7.085
 4853POPC   C4B61366  34.304  21.732   7.530
 4854POPC   NC361367  15.388   2.473   5.302
 4854POPC   PO461368  14.854   1.992   5.213
 4854POPC   GL161369  14.964   2.111   5.698
 4854POPC   GL261370  15.332   2.232   5.788
 4854POPC   C1A61371  15.101   1.922   6.129
 4854POPC   D2A61372  15.294   1.773   6.526
 4854POPC   C3A61373  15.118   1.962   6.885
 4854POPC   C4A61374  15.117   1.758   7.246
 4854POPC   C1B61375  15.331   2.406   6.224
 4854POPC   C2B61376  15.479   2.288   6.664
 4854POPC   C3B61377  15.404   2.308   7.132
 4854POPC   C4B61378  15.385   2.342   7.595
 4855POPC   NC361379  12.627  24.829   5.440
 4855POPC   PO461380  13.058  24.432   5.177
 4855POPC   GL161381  12.997  24.433   5.649
 4855POPC   GL261382  13.108  24.709   5.814
 4855POPC   C1A61383  12.737  24.441   6.060
 4855POPC   D2A61384  12.831  24.419   6.526
 4855POPC   C3A61385  12.577  24.244   6.909
 4855POPC   C4A61386  12.713  24.304   7.368
 4855POPC   C1B61387  12.972  24.912   6.189
 4855POPC   C2B61388  12.825  24.928   6.610
 4855POPC   C3B61389  12.830  24.670   6.982
 4855POPC   C4B61390  13.117  24.583   7.275
 4856POPC   NC361391  36.452   4.399   5.382
 4856POPC   PO461392  37.064   3.998   5.424
 4856POPC   GL161393  36.783   4.056   5.790
 4856POPC   GL261394  36.851   4.383   5.790
 4856POPC   C1A61395  36.750   4.268   6.267
 4856POPC   D2A61396  37.066   4.180   6.599
 4856POPC   C3A61397  37.005   4.127   7.025
 4856POPC   C4A61398  37.337   4.137   7.311
 4856POPC   C1B61399  36.630   4.722   6.055
 4856POPC   C2B61400  36.680   4.833   6.493
 4856POPC   C3B61401  36.800   4.572   6.851
 4856POPC   C4B61402  37.001   4.573   7.277
 4857POPC   NC361403  14.935  44.715   5.260
 4857POPC   PO461404  14.356  44.384   5.482
 4857POPC   GL161405  14.414  44.667   5.815
 4857POPC   GL261406  14.137  44.914   5.751
 4857POPC   C1A61407  14.429  44.480   6.227
 4857POPC   D2A61408  14.205  44.334   6.582
 4857POPC   C3A61409  14.473  44.431   6.891
 4857POPC   C4A61410  14.516  44.315   7.286
 4857POPC   C1B61411  14.071  44.836   6.191
 4857POPC   C2B61412  14.276  44.861   6.564
 4857POPC   C3B61413  14.118  44.792   6.943
 4857POPC   C4B61414  14.032  44.428   7.197
 4858POPC   NC361415  18.157  34.335   5.426
 4858POPC   PO461416  17.711  34.839   5.511
 4858POPC   GL161417  17.633  34.566   5.871
 4858POPC   GL261418  17.812  34.232   5.882
 4858POPC   C1A61419  17.657  34.738   6.284
 4858POPC   D2A61420  17.505  34.651   6.704
 4858POPC   C3A61421  17.461  34.861   7.115
 4858POPC   C4A61422  17.318  34.735   7.536
 4858POPC   C1B61423  17.652  34.232   6.327
 4858POPC   C2B61424  17.627  34.149   6.764
 4858POPC   C3B61425  17.348  34.348   7.087
 4858POPC   C4B61426  17.127  34.242   7.465
 4859POPC   NC361427   1.590  18.789   5.527
 4859POPC   PO461428   2.055  19.253   5.434
 4859POPC   GL161429   2.015  19.006   5.806
 4859POPC   GL261430   1.732  19.177   5.928
 4859POPC   C1A61431   1.928  18.822   6.244
 4859POPC   D2A61432   2.122  18.702   6.652
 4859POPC   C3A61433   1.999  19.002   6.996
 4859POPC   C4A61434   1.687  19.041   7.310
 4859POPC   C1B61435   2.086  19.310   6.220
 4859POPC   C2B61436   2.287  19.225   6.619
 4859POPC   C3B61437   2.269  19.455   7.019
 4859POPC   C4B61438   2.093  19.360   7.439
 4860POPC   NC361439  26.522  38.973   5.592
 4860POPC   PO461440  26.858  38.321   5.365
 4860POPC   GL161441  26.838  38.593   5.713
 4860POPC   GL261442  26.522  38.559   5.901
 4860POPC   C1A61443  26.959  38.602   6.152
 4860POPC   D2A61444  27.092  38.611   6.584
 4860POPC   C3A61445  26.962  38.512   6.991
 4860POPC   C4A61446  27.126  38.568   7.386
 4860POPC   C1B61447  26.513  38.512   6.379
 4860POPC   C2B61448  26.572  38.280   6.749
 4860POPC   C3B61449  26.453  38.153   7.158
 4860POPC   C4B61450  26.439  37.994   7.592
 4861POPC   NC361451  41.582  13.216   5.568
 4861POPC   PO461452  41.667  12.572   5.515
 4861POPC   GL161453  41.795  12.838   5.856
 4861POPC   GL261454  42.056  13.134   5.784
 4861POPC   C1A61455  41.520  12.883   6.210
 4861POPC   D2A61456  41.391  12.689   6.573
 4861POPC   C3A61457  41.418  12.990   6.906
 4861POPC   C4A61458  41.447  12.766   7.268
 4861POPC   C1B61459  41.985  13.143   6.244
 4861POPC   C2B61460  41.873  12.920   6.630
 4861POPC   C3B61461  41.899  12.954   7.078
 4861POPC   C4B61462  41.732  13.240   7.362
 4862POPC   NC361463  18.662   9.218   5.392
 4862POPC   PO461464  18.529   8.575   5.629
 4862POPC   GL161465  18.304   8.705   5.951
 4862POPC   GL261466  18.340   9.041   5.841
 4862POPC   C1A61467  18.333   8.682   6.409
 4862POPC   D2A61468  18.052   8.833   6.683
 4862POPC   C3A61469  18.128   8.655   7.091
 4862POPC   C4A61470  18.506   8.600   7.352
 4862POPC   C1B61471  18.156   9.122   6.245
 4862POPC   C2B61472  18.466   9.150   6.595
 4862POPC   C3B61473  18.511   8.952   6.953
 4862POPC   C4B61474  18.209   9.153   7.180
 4863POPC   NC361475  17.897  11.039   5.321
 4863POPC   PO461476  18.384  11.573   5.365
 4863POPC   GL161477  18.376  11.466   5.776
 4863POPC   GL261478  18.014  11.518   5.746
 4863POPC   C1A61479  18.457  11.351   6.198
 4863POPC   D2A61480  18.280  11.019   6.450
 4863POPC   C3A61481  18.235  11.089   6.879
 4863POPC   C4A61482  18.553  11.268   7.159
 4863POPC   C1B61483  17.956  11.281   6.117
 4863POPC   C2B61484  17.818  11.251   6.522
 4863POPC   C3B61485  17.827  11.418   6.922
 4863POPC   C4B61486  18.030  11.291   7.306
 4864POPC   NC361487   8.536  30.588   5.341
 4864POPC   PO461488   7.846  30.896   5.487
 4864POPC   GL161489   8.112  30.644   5.709
 4864POPC   GL261490   8.321  30.891   5.672
 4864POPC   C1A61491   8.242  30.453   6.101
 4864POPC   D2A61492   8.352  30.206   6.483
 4864POPC   C3A61493   8.073  30.352   6.818
 4864POPC   C4A61494   8.143  30.604   7.189
 4864POPC   C1B61495   8.495  30.918   6.028
 4864POPC   C2B61496   8.521  30.984   6.463
 4864POPC   C3B61497   8.505  30.705   6.793
 4864POPC   C4B61498   8.580  30.869   7.184
 4865POPC   NC361499   3.079   1.010   5.305
 4865POPC   PO461500   2.427   0.751   5.347
 4865POPC   GL161501   2.759   0.647   5.694
 4865POPC   GL261502   2.846   0.270   5.755
 4865POPC   C1A61503   2.728   0.605   6.165
 4865POPC   D2A61504   2.464   0.673   6.543
 4865POPC   C3A61505   2.679   0.596   6.937
 4865POPC   C4A61506   2.710   0.799   7.342
 4865POPC   C1B61507   2.788   0.082   6.158
 4865POPC   C2B61508   2.721   0.220   6.568
 4865POPC   C3B61509   2.847   0.102   6.983
 4865POPC   C4B61510   2.697   0.285   7.366
 4866POPC   NC361511  13.690  43.584   5.399
 4866POPC   PO461512  13.394  44.152   5.624
 4866POPC   GL161513  13.639  43.866   5.821
 4866POPC   GL261514  13.416  43.574   5.836
 4866POPC   C1A61515  13.687  43.832   6.233
 4866POPC   D2A61516  13.914  43.903   6.570
 4866POPC   C3A61517  13.802  43.762   6.937
 4866POPC   C4A61518  13.832  43.956   7.243
 4866POPC   C1B61519  13.449  43.385   6.237
 4866POPC   C2B61520  13.518  43.497   6.624
 4866POPC   C3B61521  13.639  43.266   6.995
 4866POPC   C4B61522  13.567  43.470   7.334
 4867POPC   NC361523  17.014   0.378   5.402
 4867POPC   PO461524  16.494   0.722   5.245
 4867POPC   GL161525  16.447   0.495   5.670
 4867POPC   GL261526  16.772   0.350   5.850
 4867POPC   C1A61527  16.478   0.661   6.104
 4867POPC   D2A61528  16.715   0.413   6.422
 4867POPC   C3A61529  16.566   0.383   6.841
 4867POPC   C4A61530  16.410   0.696   7.127
 4867POPC   C1B61531  17.119   0.243   6.152
 4867POPC   C2B61532  17.276   0.429   6.521
 4867POPC   C3B61533  17.052   0.576   6.881
 4867POPC   C4B61534  16.828   0.441   7.257
 4868POPC   NC361535   5.738  11.386   5.407
 4868POPC   PO461536   6.238  10.926   5.211
 4868POPC   GL161537   6.161  11.194   5.669
 4868POPC   GL261538   5.844  11.144   5.861
 4868POPC   C1A61539   6.262  11.287   6.115
 4868POPC   D2A61540   6.033  11.260   6.527
 4868POPC   C3A61541   6.154  11.262   6.969
 4868POPC   C4A61542   6.306  11.133   7.380
 4868POPC   C1B61543   5.744  11.464   6.158
 4868POPC   C2B61544   5.643  11.613   6.600
 4868POPC   C3B61545   5.649  11.490   7.041
 4868POPC   C4B61546   5.859  11.385   7.434
 4869POPC   NC361547  27.922   1.453   5.669
 4869POPC   PO461548  27.378   0.983   5.562
 4869POPC   GL161549  27.509   1.201   5.931
 4869POPC   GL261550  27.368   0.877   6.042
 4869POPC   C1A61551  27.612   1.483   6.297
 4869POPC   D2A61552  27.263   1.527   6.547
 4869POPC   C3A61553  27.405   1.530   6.949
 4869POPC   C4A61554  27.611   1.257   7.251
 4869POPC   C1B61555  27.367   1.043   6.400
 4869POPC   C2B61556  27.602   1.104   6.733
 4869POPC   C3B61557  27.435   0.849   7.031
 4869POPC   C4B61558  27.369   0.838   7.461
 4870POPC   NC361559  41.966  15.691   5.553
 4870POPC   PO461560  41.383  16.120   5.577
 4870POPC   GL161561  41.366  15.972   5.951
 4870POPC   GL261562  41.625  15.758   5.938
 4870POPC   C1A61563  41.280  15.769   6.333
 4870POPC   D2A61564  41.581  15.779   6.639
 4870POPC   C3A61565  41.435  15.899   7.021
 4870POPC   C4A61566  41.671  16.104   7.279
 4870POPC   C1B61567  41.868  15.508   6.205
 4870POPC   C2B61568  42.028  15.485   6.595
 4870POPC   C3B61569  41.877  15.523   6.992
 4870POPC   C4B61570  41.556  15.488   7.300
 4871POPC   NC361571  44.053   0.219   5.530
 4871POPC   PO461572  43.454   0.605   5.536
 4871POPC   GL161573  43.790   0.537   5.824
 4871POPC   GL261574  44.050   0.814   5.828
 4871POPC   C1A61575  43.900   0.275   6.187
 4871POPC   D2A61576  43.706   0.300   6.582
 4871POPC   C3A61577  43.956   0.292   6.964
 4871POPC   C4A61578  43.733   0.500   7.321
 4871POPC   C1B61579  43.972   0.771   6.228
 4871POPC   C2B61580  44.113   0.618   6.577
 4871POPC   C3B61581  43.962   0.783   6.929
 4871POPC   C4B61582  43.924   0.981   7.285
 4872POPC   NC361583  21.163   1.423   5.438
 4872POPC   PO461584  21.485   2.083   5.390
 4872POPC   GL161585  21.368   1.904   5.780
 4872POPC   GL261586  21.064   2.051   5.827
 4872POPC   C1A61587  21.300   1.875   6.247
 4872POPC   D2A61588  21.370   1.691   6.669
 4872POPC   C3A61589  21.531   1.772   7.094
 4872POPC   C4A61590  21.290   1.858   7.465
 4872POPC   C1B61591  21.005   2.331   6.138
 4872POPC   C2B61592  21.062   2.207   6.563
 4872POPC   C3B61593  21.037   1.994   6.957
 4872POPC   C4B61594  21.010   2.271   7.257
 4873POPC   NC361595  12.740  24.126   5.336
 4873POPC   PO461596  13.145  23.633   5.556
 4873POPC   GL161597  12.845  23.620   5.867
 4873POPC   GL261598  12.669  23.951   5.832
 4873POPC   C1A61599  12.965  23.460   6.262
 4873POPC   D2A61600  12.860  23.293   6.643
 4873POPC   C3A61601  12.912  23.548   6.985
 4873POPC   C4A61602  12.948  23.305   7.288
 4873POPC   C1B61603  12.946  23.983   6.207
 4873POPC   C2B61604  12.873  23.919   6.638
 4873POPC   C3B61605  13.066  24.057   7.032
 4873POPC   C4B61606  13.379  23.755   7.134
 4874POPC   NC361607  19.639   1.578   5.531
 4874POPC   PO461608  20.183   1.140   5.571
 4874POPC   GL161609  19.977   1.313   5.877
 4874POPC   GL261610  19.678   1.138   5.793
 4874POPC   C1A61611  20.007   1.260   6.345
 4874POPC   D2A61612  20.080   0.866   6.611
 4874POPC   C3A61613  20.155   0.929   7.056
 4874POPC   C4A61614  20.004   1.333   7.160
 4874POPC   C1B61615  19.546   1.372   6.149
 4874POPC   C2B61616  19.532   1.249   6.582
 4874POPC   C3B61617  19.663   0.962   6.918
 4874POPC   C4B61618  19.619   1.055   7.364
 4875POPC   NC361619   7.946   1.102   5.562
 4875POPC   PO461620   8.393   1.530   5.450
 4875POPC   GL161621   8.312   1.375   5.842
 4875POPC   GL261622   8.397   1.029   5.798
 4875POPC   C1A61623   8.485   1.336   6.255
 4875POPC   D2A61624   8.539   1.399   6.697
 4875POPC   C3A61625   8.255   1.343   7.037
 4875POPC   C4A61626   8.425   1.183   7.388
 4875POPC   C1B61627   8.227   0.892   6.202
 4875POPC   C2B61628   8.191   0.967   6.638
 4875POPC   C3B61629   8.108   0.830   7.054
 4875POPC   C4B61630   7.988   0.971   7.472
 4876POPC   NC361631  37.269  22.805   5.461
 4876POPC   PO461632  36.761  23.181   5.212
 4876POPC   GL161633  36.754  23.076   5.671
 4876POPC   GL261634  37.052  23.221   5.761
 4876POPC   C1A61635  36.744  22.929   6.137
 4876POPC   D2A61636  36.642  22.762   6.576
 4876POPC   C3A61637  36.854  22.943   6.961
 4876POPC   C4A61638  37.041  22.606   7.244
 4876POPC   C1B61639  37.216  23.122   6.132
 4876POPC   C2B61640  37.157  23.203   6.569
 4876POPC   C3B61641  37.347  23.021   6.935
 4876POPC   C4B61642  37.217  23.069   7.361
 4877POPC   NC361643   0.747   3.869   5.444
 4877POPC   PO461644   0.703   4.508   5.419
 4877POPC   GL161645   0.618   4.367   5.808
 4877POPC   GL261646   0.250   4.361   5.814
 4877POPC   C1A61647   0.561   4.495   6.211
 4877POPC   D2A61648   0.442   4.657   6.604
 4877POPC   C3A61649   0.671   4.411   6.902
 4877POPC   C4A61650   0.545   4.267   7.298
 4877POPC   C1B61651   0.180   4.114   6.185
 4877POPC   C2B61652   0.117   4.256   6.601
 4877POPC   C3B61653   0.129   4.188   7.020
 4877POPC   C4B61654   0.148   3.786   7.163
 4878POPC   NC361655  33.353   8.061   5.562
 4878POPC   PO461656  32.724   8.364   5.223
 4878POPC   GL161657  32.907   8.371   5.701
 4878POPC   GL261658  33.237   8.455   5.872
 4878POPC   C1A61659  32.918   8.146   6.141
 4878POPC   D2A61660  33.249   8.231   6.458
 4878POPC   C3A61661  33.034   8.291   6.829
 4878POPC   C4A61662  32.935   8.225   7.244
 4878POPC   C1B61663  32.975   8.622   6.249
 4878POPC   C2B61664  32.906   8.809   6.663
 4878POPC   C3B61665  32.822   8.693   7.076
 4878POPC   C4B61666  33.153   8.681   7.331
 4879POPC   NC361667  22.034   0.932   5.472
 4879POPC   PO461668  22.213   1.540   5.701
 4879POPC   GL161669  22.008   1.355   5.959
 4879POPC   GL261670  22.241   1.068   5.924
 4879POPC   C1A61671  22.121   1.340   6.391
 4879POPC   D2A61672  22.401   1.122   6.662
 4879POPC   C3A61673  22.338   1.236   7.071
 4879POPC   C4A61674  21.968   1.378   7.294
 4879POPC   C1B61675  21.923   0.916   6.181
 4879POPC   C2B61676  21.801   0.949   6.605
 4879POPC   C3B61677  21.932   0.892   7.048
 4879POPC   C4B61678  21.674   0.924   7.426
 4880POPC   NC361679  38.926  12.181   5.548
 4880POPC   PO461680  38.369  12.156   5.122
 4880POPC   GL161681  38.350  12.052   5.596
 4880POPC   GL261682  38.363  11.674   5.735
 4880POPC   C1A61683  38.315  12.062   6.067
 4880POPC   D2A61684  38.555  12.021   6.452
 4880POPC   C3A61685  38.409  12.100   6.856
 4880POPC   C4A61686  38.546  12.174   7.272
 4880POPC   C1B61687  38.690  11.662   6.103
 4880POPC   C2B61688  38.799  11.606   6.594
 4880POPC   C3B61689  38.636  11.690   7.049
 4880POPC   C4B61690  38.640  11.738   7.530
 4881POPC   NC361691  19.652  34.433   5.390
 4881POPC   PO461692  20.026  35.051   5.465
 4881POPC   GL161693  19.937  34.725   5.733
 4881POPC   GL261694  19.591  34.747   5.797
 4881POPC   C1A61695  19.933  34.485   6.125
 4881POPC   D2A61696  20.029  34.376   6.552
 4881POPC   C3A61697  19.843  34.628   6.888
 4881POPC   C4A61698  19.994  34.558   7.290
 4881POPC   C1B61699  19.399  34.482   6.101
 4881POPC   C2B61700  19.503  34.448   6.530
 4881POPC   C3B61701  19.348  34.489   6.963
 4881POPC   C4B61702  19.503  34.405   7.385
 4882POPC   NC361703  44.427  39.917   5.396
 4882POPC   PO461704   0.019  40.202   5.460
 4882POPC   GL161705  44.716  40.024   5.826
 4882POPC   GL261706  44.460  39.656   5.815
 4882POPC   C1A61707  44.636  40.259   6.238
 4882POPC   D2A61708  44.675  40.489   6.629
 4882POPC   C3A61709  44.802  40.219   6.900
 4882POPC   C4A61710  44.599  40.125   7.268
 4882POPC   C1B61711  44.459  39.786   6.225
 4882POPC   C2B61712  44.736  39.843   6.555
 4882POPC   C3B61713  44.634  39.734   6.950
 4882POPC   C4B61714  44.428  39.649   7.300
 4883POPC   NC361715   6.859  22.535   5.239
 4883POPC   PO461716   6.421  22.152   5.643
 4883POPC   GL161717   6.592  22.091   6.020
 4883POPC   GL261718   6.978  22.061   6.046
 4883POPC   C1A61719   6.669  22.365   6.352
 4883POPC   D2A61720   6.837  22.295   6.725
 4883POPC   C3A61721   6.604  22.365   7.077
 4883POPC   C4A61722   6.865  22.458   7.435
 4883POPC   C1B61723   6.795  21.859   6.431
 4883POPC   C2B61724   6.433  21.980   6.692
 4883POPC   C3B61725   6.312  21.836   7.108
 4883POPC   C4B61726   6.598  21.642   7.414
 4884POPC   NC361727   0.588  27.489   5.346
 4884POPC   PO461728   0.221  28.090   5.193
 4884POPC   GL161729   0.271  27.779   5.679
 4884POPC   GL261730   0.667  27.642   5.828
 4884POPC   C1A61731   0.255  27.454   6.057
 4884POPC   D2A61732   0.160  27.397   6.518
 4884POPC   C3A61733   0.417  27.368   6.859
 4884POPC   C4A61734   0.292  27.435   7.275
 4884POPC   C1B61735   0.530  27.908   6.144
 4884POPC   C2B61736   0.293  27.897   6.518
 4884POPC   C3B61737   0.499  27.878   6.907
 4884POPC   C4B61738   0.658  27.820   7.328
 4885POPC   NC361739  24.496  13.350   5.401
 4885POPC   PO461740  24.724  13.914   5.127
 4885POPC   GL161741  24.583  13.886   5.621
 4885POPC   GL261742  24.452  13.604   5.825
 4885POPC   C1A61743  24.553  13.947   6.146
 4885POPC   D2A61744  24.628  13.698   6.542
 4885POPC   C3A61745  24.614  13.874   6.919
 4885POPC   C4A61746  24.662  13.709   7.357
 4885POPC   C1B61747  24.239  13.517   6.249
 4885POPC   C2B61748  24.352  13.259   6.618
 4885POPC   C3B61749  24.548  13.354   6.982
 4885POPC   C4B61750  24.253  13.409   7.323
 4886POPC   NC361751   6.091   5.462   5.108
 4886POPC   PO461752   6.558   4.988   5.272
 4886POPC   GL161753   6.559   4.824   5.695
 4886POPC   GL261754   6.532   5.167   5.821
 4886POPC   C1A61755   6.723   4.770   6.138
 4886POPC   D2A61756   6.871   4.897   6.569
 4886POPC   C3A61757   6.607   4.913   6.915
 4886POPC   C4A61758   6.625   5.029   7.352
 4886POPC   C1B61759   6.438   5.404   6.195
 4886POPC   C2B61760   6.370   5.262   6.605
 4886POPC   C3B61761   6.421   5.403   7.016
 4886POPC   C4B61762   6.181   5.290   7.365
 4887POPC   NC361763  33.407  40.762   5.142
 4887POPC   PO461764  33.937  40.399   5.477
 4887POPC   GL161765  33.794  40.570   5.837
 4887POPC   GL261766  33.618  40.885   5.779
 4887POPC   C1A61767  33.998  40.756   6.174
 4887POPC   D2A61768  34.116  40.675   6.601
 4887POPC   C3A61769  33.966  40.918   6.955
 4887POPC   C4A61770  33.946  40.870   7.400
 4887POPC   C1B61771  33.494  40.728   6.239
 4887POPC   C2B61772  33.531  40.755   6.711
 4887POPC   C3B61773  33.498  40.929   7.157
 4887POPC   C4B61774  33.465  40.964   7.654
 4888POPC   NC361775   2.469   0.223   5.402
 4888POPC   PO461776   1.780   0.268   5.349
 4888POPC   GL161777   1.917   0.417   5.764
 4888POPC   GL261778   2.294   0.447   5.821
 4888POPC   C1A61779   1.747   0.394   6.193
 4888POPC   D2A61780   1.969   0.420   6.584
 4888POPC   C3A61781   1.853   0.553   6.969
 4888POPC   C4A61782   2.214   0.684   7.185
 4888POPC   C1B61783   2.292   0.251   6.216
 4888POPC   C2B61784   2.256   0.011   6.599
 4888POPC   C3B61785   2.329   0.204   6.977
 4888POPC   C4B61786   2.277   0.005   7.352
 4889POPC   NC361787  33.313  25.871   5.528
 4889POPC   PO461788  32.821  26.295   5.302
 4889POPC   GL161789  33.004  26.232   5.736
 4889POPC   GL261790  33.019  25.915   5.929
 4889POPC   C1A61791  33.266  26.264   6.165
 4889POPC   D2A61792  33.193  25.901   6.462
 4889POPC   C3A61793  33.145  26.089   6.841
 4889POPC   C4A61794  33.228  26.452   7.138
 4889POPC   C1B61795  32.783  26.101   6.231
 4889POPC   C2B61796  32.664  25.971   6.606
 4889POPC   C3B61797  32.623  25.957   7.027
 4889POPC   C4B61798  32.937  26.048   7.286
 4890POPC   NC361799  12.203  39.362   5.267
 4890POPC   PO461800  11.761  38.928   5.481
 4890POPC   GL161801  12.068  39.114   5.705
 4890POPC   GL261802  11.957  39.413   5.733
 4890POPC   C1A61803  12.159  39.168   6.142
 4890POPC   D2A61804  12.281  39.120   6.565
 4890POPC   C3A61805  12.150  39.324   6.898
 4890POPC   C4A61806  11.880  39.027   7.089
 4890POPC   C1B61807  11.718  39.410   6.117
 4890POPC   C2B61808  11.724  39.245   6.553
 4890POPC   C3B61809  11.666  39.477   6.938
 4890POPC   C4B61810  11.865  39.485   7.327
 4891POPC   NC361811  30.382  23.941   5.644
 4891POPC   PO461812  30.934  24.221   5.368
 4891POPC   GL161813  30.910  23.913   5.748
 4891POPC   GL261814  30.672  23.610   5.891
 4891POPC   C1A61815  30.785  24.006   6.195
 4891POPC   D2A61816  30.548  23.956   6.564
 4891POPC   C3A61817  30.747  23.840   6.928
 4891POPC   C4A61818  30.575  23.867   7.299
 4891POPC   C1B61819  30.326  23.603   6.271
 4891POPC   C2B61820  30.258  23.542   6.760
 4891POPC   C3B61821  30.282  23.475   7.230
 4891POPC   C4B61822  30.597  23.433   7.596
 4892POPC   NC361823   9.897  16.330   5.473
 4892POPC   PO461824   9.525  16.973   5.424
 4892POPC   GL161825   9.529  16.765   5.800
 4892POPC   GL261826   9.865  16.717   5.800
 4892POPC   C1A61827   9.550  16.946   6.177
 4892POPC   D2A61828   9.626  16.789   6.552
 4892POPC   C3A61829   9.511  16.992   6.918
 4892POPC   C4A61830   9.573  16.738   7.265
 4892POPC   C1B61831  10.032  16.736   6.186
 4892POPC   C2B61832  10.130  16.916   6.556
 4892POPC   C3B61833   9.989  16.752   6.945
 4892POPC   C4B61834  10.093  16.563   7.345
 4893POPC   NC361835   9.674   1.995   5.295
 4893POPC   PO461836   9.494   2.590   5.316
 4893POPC   GL161837   9.700   2.290   5.695
 4893POPC   GL261838   9.589   1.919   5.787
 4893POPC   C1A61839   9.898   2.175   6.120
 4893POPC   D2A61840   9.845   1.930   6.518
 4893POPC   C3A61841   9.866   2.049   6.947
 4893POPC   C4A61842   9.990   1.754   7.283
 4893POPC   C1B61843   9.416   1.977   6.216
 4893POPC   C2B61844   9.371   1.988   6.667
 4893POPC   C3B61845   9.372   1.959   7.092
 4893POPC   C4B61846   9.537   1.955   7.493
 4894POPC   NC361847   8.443  17.976   5.278
 4894POPC   PO461848   8.079  17.369   5.313
 4894POPC   GL161849   8.360  17.529   5.665
 4894POPC   GL261850   8.393  17.905   5.785
 4894POPC   C1A61851   8.238  17.535   6.134
 4894POPC   D2A61852   8.308  17.536   6.580
 4894POPC   C3A61853   8.138  17.343   6.942
 4894POPC   C4A61854   8.342  17.534   7.264
 4894POPC   C1B61855   7.973  17.972   5.992
 4894POPC   C2B61856   7.876  17.875   6.425
 4894POPC   C3B61857   7.875  17.759   6.856
 4894POPC   C4B61858   7.890  17.790   7.286
 4895POPC   NC361859  43.805   8.258   5.296
 4895POPC   PO461860  44.325   8.364   5.635
 4895POPC   GL161861  44.068   8.110   5.895
 4895POPC   GL261862  43.714   8.076   5.784
 4895POPC   C1A61863  43.964   8.227   6.288
 4895POPC   D2A61864  44.217   8.329   6.629
 4895POPC   C3A61865  44.114   8.502   7.017
 4895POPC   C4A61866  43.990   8.304   7.423
 4895POPC   C1B61867  43.586   7.875   6.158
 4895POPC   C2B61868  43.702   7.930   6.598
 4895POPC   C3B61869  43.722   8.173   6.967
 4895POPC   C4B61870  43.658   7.898   7.297
 4896POPC   NC361871   1.028  21.586   5.381
 4896POPC   PO461872   1.427  21.118   5.436
 4896POPC   GL161873   1.121  21.266   5.757
 4896POPC   GL261874   1.378  21.511   5.814
 4896POPC   C1A61875   0.986  21.493   6.162
 4896POPC   D2A61876   0.846  21.688   6.578
 4896POPC   C3A61877   1.006  21.435   6.927
 4896POPC   C4A61878   1.289  21.417   7.231
 4896POPC   C1B61879   1.691  21.767   6.049
 4896POPC   C2B61880   1.719  21.857   6.463
 4896POPC   C3B61881   1.464  21.677   6.817
 4896POPC   C4B61882   1.584  21.818   7.247
 4897POPC   NC361883  33.273  26.310   5.202
 4897POPC   PO461884  33.235  26.995   5.438
 4897POPC   GL161885  33.250  27.026   5.879
 4897POPC   GL261886  33.232  26.662   5.848
 4897POPC   C1A61887  33.267  26.840   6.302
 4897POPC   D2A61888  33.076  26.529   6.579
 4897POPC   C3A61889  32.873  26.787   6.868
 4897POPC   C4A61890  33.056  27.080   7.122
 4897POPC   C1B61891  32.862  26.589   6.102
 4897POPC   C2B61892  32.586  26.601   6.450
 4897POPC   C3B61893  32.508  26.420   6.834
 4897POPC   C4B61894  32.688  26.465   7.224
 4898POPC   NC361895  11.878  19.477   5.659
 4898POPC   PO461896  11.869  18.876   5.355
 4898POPC   GL161897  12.056  19.005   5.798
 4898POPC   GL261898  12.279  19.316   5.894
 4898POPC   C1A61899  12.005  19.075   6.268
 4898POPC   D2A61900  11.836  19.229   6.672
 4898POPC   C3A61901  12.031  19.021   7.000
 4898POPC   C4A61902  11.935  18.606   7.149
 4898POPC   C1B61903  12.493  19.298   6.291
 4898POPC   C2B61904  12.353  19.314   6.715
 4898POPC   C3B61905  12.415  19.320   7.171
 4898POPC   C4B61906  12.135  19.334   7.551
 4899POPC   NC361907  22.676  14.613   5.483
 4899POPC   PO461908  23.375  14.769   5.560
 4899POPC   GL161909  23.154  14.450   5.871
 4899POPC   GL261910  22.787  14.287   5.873
 4899POPC   C1A61911  22.930  14.544   6.288
 4899POPC   D2A61912  22.877  14.764   6.683
 4899POPC   C3A61913  23.019  14.470   6.996
 4899POPC   C4A61914  23.344  14.194   7.123
 4899POPC   C1B61915  22.973  14.038   6.215
 4899POPC   C2B61916  23.086  14.056   6.684
 4899POPC   C3B61917  22.857  13.988   7.110
 4899POPC   C4B61918  22.973  14.043   7.562
 4900POPC   NC361919  32.488  29.012   5.381
 4900POPC   PO461920  31.958  29.403   5.230
 4900POPC   GL161921  32.001  29.129   5.570
 4900POPC   GL261922  32.274  29.327   5.723
 4900POPC   C1A61923  31.921  29.074   6.024
 4900POPC   D2A61924  31.964  29.246   6.447
 4900POPC   C3A61925  32.297  29.105   6.696
 4900POPC   C4A61926  32.100  28.850   7.003
 4900POPC   C1B61927  32.426  29.209   6.154
 4900POPC   C2B61928  32.707  29.377   6.476
 4900POPC   C3B61929  32.713  29.434   6.916
 4900POPC   C4B61930  32.463  29.197   7.186
 4901POPC   NC361931  39.581  22.351   5.408
 4901POPC   PO461932  40.192  22.052   5.442
 4901POPC   GL161933  39.911  22.130   5.780
 4901POPC   GL261934  39.855  22.514   5.808
 4901POPC   C1A61935  40.039  22.224   6.188
 4901POPC   D2A61936  40.322  22.433   6.419
 4901POPC   C3A61937  40.146  22.319   6.760
 4901POPC   C4A61938  39.903  22.087   7.011
 4901POPC   C1B61939  39.650  22.541   6.204
 4901POPC   C2B61940  39.674  22.336   6.600
 4901POPC   C3B61941  39.762  22.585   6.976
 4901POPC   C4B61942  40.121  22.549   7.209
 4902POPC   NC361943  38.947  34.131   5.559
 4902POPC   PO461944  39.478  33.655   5.497
 4902POPC   GL161945  39.221  33.614   5.815
 4902POPC   GL261946  39.225  33.918   5.936
 4902POPC   C1A61947  39.023  33.519   6.212
 4902POPC   D2A61948  39.163  33.418   6.624
 4902POPC   C3A61949  39.229  33.659   7.009
 4902POPC   C4A61950  39.416  33.530   7.370
 4902POPC   C1B61951  39.446  33.801   6.320
 4902POPC   C2B61952  39.669  33.825   6.711
 4902POPC   C3B61953  39.470  34.122   6.971
 4902POPC   C4B61954  39.371  34.042   7.410
 4903POPC   NC361955  44.485  20.266   5.622
 4903POPC   PO461956  44.819  20.816   5.361
 4903POPC   GL161957  44.772  20.647   5.807
 4903POPC   GL261958  44.422  20.696   5.916
 4903POPC   C1A61959  44.790  20.330   6.205
 4903POPC   D2A61960   0.058  20.308   6.603
 4903POPC   C3A61961  44.866  20.349   7.026
 4903POPC   C4A61962  44.798  20.757   7.246
 4903POPC   C1B61963  44.659  20.854   6.301
 4903POPC   C2B61964  44.624  20.780   6.762
 4903POPC   C3B61965  44.376  20.501   7.055
 4903POPC   C4B61966  44.082  20.162   7.133
 4904POPC   NC361967  42.978  22.185   5.449
 4904POPC   PO461968  43.443  21.688   5.598
 4904POPC   GL161969  43.387  22.068   5.880
 4904POPC   GL261970  43.216  22.407   5.849
 4904POPC   C1A61971  43.241  22.128   6.299
 4904POPC   D2A61972  43.191  21.786   6.563
 4904POPC   C3A61973  43.233  21.916   6.961
 4904POPC   C4A61974  42.897  21.978   7.249
 4904POPC   C1B61975  42.896  22.468   6.136
 4904POPC   C2B61976  42.745  22.512   6.575
 4904POPC   C3B61977  42.917  22.412   6.960
 4904POPC   C4B61978  43.264  22.367   7.208
 4905POPC   NC361979  41.210   5.426   5.242
 4905POPC   PO461980  41.715   5.849   5.380
 4905POPC   GL161981  41.704   5.889   5.793
 4905POPC   GL261982  41.982   6.057   5.862
 4905POPC   C1A61983  41.584   5.989   6.214
 4905POPC   D2A61984  41.709   5.828   6.624
 4905POPC   C3A61985  41.512   5.898   7.021
 4905POPC   C4A61986  41.656   5.978   7.441
 4905POPC   C1B61987  42.049   5.726   6.210
 4905POPC   C2B61988  41.931   5.389   6.554
 4905POPC   C3B61989  41.749   5.443   6.996
 4905POPC   C4B61990  42.043   5.733   7.200
 4906POPC   NC361991   9.987  34.848   5.423
 4906POPC   PO461992   9.318  34.808   5.594
 4906POPC   GL161993   9.671  34.650   5.823
 4906POPC   GL261994  10.004  34.469   5.813
 4906POPC   C1A61995   9.842  34.808   6.208
 4906POPC   D2A61996   9.690  34.687   6.613
 4906POPC   C3A61997   9.930  34.797   6.954
 4906POPC   C4A61998   9.734  34.810   7.340
 4906POPC   C1B61999   9.831  34.303   6.227
 4906POPC   C2B62000   9.930  34.104   6.668
 4906POPC   C3B62001   9.838  34.290   7.069
 4906POPC   C4B62002   9.779  34.330   7.520
 4907POPC   NC362003   7.578  14.534   5.574
 4907POPC   PO462004   7.205  14.089   5.215
 4907POPC   GL162005   7.056  14.248   5.648
 4907POPC   GL262006   7.342  14.132   5.801
 4907POPC   C1A62007   7.101  14.489   6.086
 4907POPC   D2A62008   7.389  14.494   6.460
 4907POPC   C3A62009   7.231  14.558   6.876
 4907POPC   C4A62010   7.407  14.716   7.235
 4907POPC   C1B62011   7.509  14.049   6.195
 4907POPC   C2B62012   7.660  13.863   6.553
 4907POPC   C3B62013   7.747  13.968   6.955
 4907POPC   C4B62014   7.473  14.213   7.184
 4908POPC   NC362015   6.597   3.832   5.596
 4908POPC   PO462016   7.016   3.389   5.434
 4908POPC   GL162017   6.989   3.544   5.836
 4908POPC   GL262018   7.167   3.830   5.829
 4908POPC   C1A62019   6.741   3.621   6.216
 4908POPC   D2A62020   6.484   3.479   6.575
 4908POPC   C3A62021   6.632   3.523   6.991
 4908POPC   C4A62022   6.426   3.486   7.394
 4908POPC   C1B62023   7.131   3.948   6.272
 4908POPC   C2B62024   6.868   3.910   6.629
 4908POPC   C3B62025   6.488   3.984   6.825
 4908POPC   C4B62026   6.516   3.988   7.271
 4909POPC   NC362027   7.424  16.079   5.511
 4909POPC   PO462028   8.051  15.606   5.481
 4909POPC   GL162029   7.730  15.729   5.799
 4909POPC   GL262030   7.382  15.673   5.836
 4909POPC   C1A62031   7.600  15.969   6.177
 4909POPC   D2A62032   7.633  15.840   6.595
 4909POPC   C3A62033   7.693  16.109   6.923
 4909POPC   C4A62034   7.315  16.117   7.184
 4909POPC   C1B62035   7.096  15.841   6.187
 4909POPC   C2B62036   7.120  15.963   6.628
 4909POPC   C3B62037   6.995  15.765   7.003
 4909POPC   C4B62038   7.169  15.699   7.444
 4910POPC   NC362039   6.490   8.902   5.390
 4910POPC   PO462040   6.995   9.218   5.704
 4910POPC   GL162041   6.735   8.946   5.906
 4910POPC   GL262042   6.374   8.763   5.860
 4910POPC   C1A62043   6.874   8.978   6.327
 4910POPC   D2A62044   6.723   9.288   6.592
 4910POPC   C3A62045   6.722   9.185   7.001
 4910POPC   C4A62046   6.458   9.234   7.366
 4910POPC   C1B62047   6.376   8.924   6.278
 4910POPC   C2B62048   6.526   8.825   6.678
 4910POPC   C3B62049   6.404   8.548   6.972
 4910POPC   C4B62050   6.254   8.756   7.296
 4911POPC   NC362051   2.109  33.933   5.582
 4911POPC   PO462052   1.944  34.573   5.332
 4911POPC   GL162053   1.825  34.517   5.734
 4911POPC   GL262054   1.774  34.840   5.892
 4911POPC   C1A62055   1.982  34.366   6.115
 4911POPC   D2A62056   1.854  34.367   6.536
 4911POPC   C3A62057   2.145  34.231   6.807
 4911POPC   C4A62058   2.130  34.369   7.205
 4911POPC   C1B62059   1.700  34.800   6.351
 4911POPC   C2B62060   1.571  34.759   6.770
 4911POPC   C3B62061   1.733  34.780   7.213
 4911POPC   C4B62062   1.978  35.002   7.540
 4912POPC   NC362063  31.793   5.883   5.295
 4912POPC   PO462064  31.200   6.017   5.466
 4912POPC   GL162065  31.518   5.891   5.779
 4912POPC   GL262066  31.738   6.142   5.926
 4912POPC   C1A62067  31.569   5.757   6.220
 4912POPC   D2A62068  31.728   5.916   6.608
 4912POPC   C3A62069  31.610   5.635   6.920
 4912POPC   C4A62070  31.488   5.773   7.329
 4912POPC   C1B62071  31.371   6.231   6.183
 4912POPC   C2B62072  31.219   6.040   6.543
 4912POPC   C3B62073  31.341   6.075   6.963
 4912POPC   C4B62074  31.098   6.082   7.389
 4913POPC   NC362075   5.528  41.879   5.492
 4913POPC   PO462076   4.947  41.485   5.415
 4913POPC   GL162077   5.156  41.638   5.773
 4913POPC   GL262078   4.853  41.747   5.937
 4913POPC   C1A62079   5.248  41.658   6.226
 4913POPC   D2A62080   5.012  41.821   6.590
 4913POPC   C3A62081   5.318  41.794   6.928
 4913POPC   C4A62082   5.246  41.771   7.376
 4913POPC   C1B62083   4.782  41.365   6.181
 4913POPC   C2B62084   4.752  41.347   6.639
 4913POPC   C3B62085   4.917  41.510   7.051
 4913POPC   C4B62086   4.976  41.334   7.515
 4914POPC   NC362087  42.471  31.313   5.479
 4914POPC   PO462088  42.459  31.877   5.738
 4914POPC   GL162089  42.295  31.504   5.902
 4914POPC   GL262090  42.574  31.276   6.005
 4914POPC   C1A62091  42.122  31.297   6.228
 4914POPC   D2A62092  42.441  31.136   6.514
 4914POPC   C3A62093  42.437  31.288   6.929
 4914POPC   C4A62094  42.171  31.231   7.292
 4914POPC   C1B62095  42.492  31.622   6.325
 4914POPC   C2B62096  42.256  31.686   6.621
 4914POPC   C3B62097  42.459  31.830   6.950
 4914POPC   C4B62098  42.459  31.630   7.326
 4915POPC   NC362099  23.086  35.199   5.385
 4915POPC   PO462100  22.552  34.958   5.588
 4915POPC   GL162101  22.799  35.190   5.876
 4915POPC   GL262102  23.061  35.412   5.863
 4915POPC   C1A62103  22.835  35.273   6.306
 4915POPC   D2A62104  23.032  35.357   6.669
 4915POPC   C3A62105  22.867  35.157   7.015
 4915POPC   C4A62106  22.829  35.403   7.349
 4915POPC   C1B62107  23.269  35.588   6.245
 4915POPC   C2B62108  23.386  35.728   6.691
 4915POPC   C3B62109  23.267  35.547   7.109
 4915POPC   C4B62110  23.232  35.616   7.592
 4916POPC   NC362111  25.835  35.628   5.357
 4916POPC   PO462112  26.343  36.123   5.392
 4916POPC   GL162113  26.189  36.153   5.792
 4916POPC   GL262114  25.955  35.889   5.802
 4916POPC   C1A62115  26.090  36.282   6.200
 4916POPC   D2A62116  25.934  36.129   6.603
 4916POPC   C3A62117  25.950  36.328   6.977
 4916POPC   C4A62118  26.182  36.122   7.279
 4916POPC   C1B62119  25.691  35.979   6.160
 4916POPC   C2B62120  25.450  36.144   6.461
 4916POPC   C3B62121  25.495  35.976   6.875
 4916POPC   C4B62122  25.676  35.982   7.254
 4917POPC   NC362123  11.563  17.178   5.544
 4917POPC   PO462124  11.033  17.570   5.211
 4917POPC   GL162125  11.153  17.519   5.690
 4917POPC   GL262126  11.423  17.701   5.767
 4917POPC   C1A62127  11.365  17.337   6.127
 4917POPC   D2A62128  11.204  17.243   6.532
 4917POPC   C3A62129  11.370  17.370   6.940
 4917POPC   C4A62130  11.225  17.321   7.376
 4917POPC   C1B62131  11.421  17.830   6.192
 4917POPC   C2B62132  11.242  17.799   6.615
 4917POPC   C3B62133  11.400  17.916   7.009
 4917POPC   C4B62134  11.614  17.656   7.294
 4918POPC   NC362135  42.030  11.196   5.414
 4918POPC   PO462136  42.683  11.375   5.417
 4918POPC   GL162137  42.431  11.297   5.792
 4918POPC   GL262138  42.314  10.965   5.797
 4918POPC   C1A62139  42.400  11.467   6.223
 4918POPC   D2A62140  42.293  11.649   6.612
 4918POPC   C3A62141  42.426  11.545   7.001
 4918POPC   C4A62142  42.174  11.511   7.313
 4918POPC   C1B62143  42.298  10.960   6.225
 4918POPC   C2B62144  42.147  10.957   6.616
 4918POPC   C3B62145  42.355  11.042   6.945
 4918POPC   C4B62146  42.434  11.062   7.360
 4919POPC   NC362147  34.739  38.721   5.447
 4919POPC   PO462148  34.301  38.236   5.557
 4919POPC   GL162149  34.499  38.486   5.852
 4919POPC   GL262150  34.323  38.801   5.785
 4919POPC   C1A62151  34.522  38.263   6.253
 4919POPC   D2A62152  34.276  38.018   6.548
 4919POPC   C3A62153  34.454  38.130   6.930
 4919POPC   C4A62154  34.896  38.135   7.097
 4919POPC   C1B62155  34.251  38.707   6.224
 4919POPC   C2B62156  34.519  38.654   6.598
 4919POPC   C3B62157  34.616  38.594   7.030
 4919POPC   C4B62158  34.466  38.787   7.451
 4920POPC   NC362159  13.003  21.399   5.450
 4920POPC   PO462160  12.380  21.480   5.248
 4920POPC   GL162161  12.519  21.387   5.748
 4920POPC   GL262162  12.627  21.060   5.777
 4920POPC   C1A62163  12.779  21.488   6.205
 4920POPC   D2A62164  13.057  21.432   6.633
 4920POPC   C3A62165  12.868  21.406   7.092
 4920POPC   C4A62166  12.596  21.607   7.435
 4920POPC   C1B62167  12.990  21.050   6.091
 4920POPC   C2B62168  13.154  20.911   6.495
 4920POPC   C3B62169  13.237  21.042   6.933
 4920POPC   C4B62170  13.079  21.010   7.362
 4921POPC   NC362171  36.827  38.046   5.526
 4921POPC   PO462172  37.308  37.552   5.525
 4921POPC   GL162173  37.071  37.745   5.862
 4921POPC   GL262174  36.736  37.644   5.882
 4921POPC   C1A62175  37.060  37.636   6.282
 4921POPC   D2A62176  37.004  37.349   6.622
 4921POPC   C3A62177  37.140  37.649   6.921
 4921POPC   C4A62178  37.258  37.630   7.331
 4921POPC   C1B62179  36.558  37.593   6.326
 4921POPC   C2B62180  36.506  37.414   6.719
 4921POPC   C3B62181  36.660  37.602   7.072
 4921POPC   C4B62182  36.716  37.932   7.393
 4922POPC   NC362183  41.291  10.835   5.500
 4922POPC   PO462184  41.607  10.205   5.393
 4922POPC   GL162185  41.603  10.468   5.776
 4922POPC   GL262186  41.828  10.763   5.681
 4922POPC   C1A62187  41.469  10.415   6.245
 4922POPC   D2A62188  41.430  10.693   6.631
 4922POPC   C3A62189  41.382  10.489   7.093
 4922POPC   C4A62190  41.427  10.240   7.452
 4922POPC   C1B62191  41.796  10.806   6.154
 4922POPC   C2B62192  41.897  10.527   6.508
 4922POPC   C3B62193  41.842  10.639   6.945
 4922POPC   C4B62194  41.797  10.569   7.405
 4923POPC   NC362195   4.069  42.286   5.574
 4923POPC   PO462196   4.737  42.375   5.417
 4923POPC   GL162197   4.531  42.364   5.793
 4923POPC   GL262198   4.386  42.679   5.685
 4923POPC   C1A62199   4.289  42.308   6.206
 4923POPC   D2A62200   4.089  42.182   6.607
 4923POPC   C3A62201   4.342  42.205   6.993
 4923POPC   C4A62202   4.777  42.008   7.083
 4923POPC   C1B62203   4.563  42.758   6.097
 4923POPC   C2B62204   4.528  42.784   6.529
 4923POPC   C3B62205   4.291  42.738   6.882
 4923POPC   C4B62206   4.309  42.642   7.284
 4924POPC   NC362207  11.440  17.768   5.240
 4924POPC   PO462208  11.360  18.431   5.467
 4924POPC   GL162209  11.379  18.214   5.842
 4924POPC   GL262210  11.059  18.049   5.824
 4924POPC   C1A62211  11.313  18.336   6.276
 4924POPC   D2A62212  11.510  18.561   6.598
 4924POPC   C3A62213  11.288  18.443   6.955
 4924POPC   C4A62214  11.231  18.304   7.356
 4924POPC   C1B62215  10.933  17.999   6.247
 4924POPC   C2B62216  10.911  18.205   6.616
 4924POPC   C3B62217  10.903  18.040   6.993
 4924POPC   C4B62218  10.763  18.100   7.369
 4925POPC   NC362219   8.030  43.355   5.438
 4925POPC   PO462220   8.513  42.909   5.312
 4925POPC   GL162221   8.370  43.075   5.682
 4925POPC   GL262222   8.047  42.883   5.696
 4925POPC   C1A62223   8.224  43.209   6.086
 4925POPC   D2A62224   8.088  42.993   6.460
 4925POPC   C3A62225   8.183  43.226   6.832
 4925POPC   C4A62226   8.022  43.282   7.232
 4925POPC   C1B62227   8.317  42.690   6.032
 4925POPC   C2B62228   8.508  42.685   6.460
 4925POPC   C3B62229   8.288  42.709   6.873
 4925POPC   C4B62230   8.072  42.773   7.267
 4926POPC   NC362231  10.452   1.524   5.444
 4926POPC   PO462232  10.671   0.895   5.431
 4926POPC   GL162233  10.386   1.108   5.755
 4926POPC   GL262234  10.513   1.419   5.940
 4926POPC   C1A62235  10.135   1.149   6.141
 4926POPC   D2A62236  10.114   1.420   6.515
 4926POPC   C3A62237  10.473   1.373   6.819
 4926POPC   C4A62238  10.531   1.042   7.140
 4926POPC   C1B62239  10.709   1.529   6.335
 4926POPC   C2B62240  10.978   1.511   6.720
 4926POPC   C3B62241  10.942   1.358   7.127
 4926POPC   C4B62242  10.623   1.470   7.408
 4927POPC   NC362243  13.906  42.236   5.414
 4927POPC   PO462244  13.247  42.253   5.340
 4927POPC   GL162245  13.372  42.428   5.766
 4927POPC   GL262246  13.732  42.569   5.787
 4927POPC   C1A62247  13.325  42.429   6.235
 4927POPC   D2A62248  13.497  42.442   6.646
 4927POPC   C3A62249  13.342  42.409   7.069
 4927POPC   C4A62250  13.375  42.381   7.518
 4927POPC   C1B62251  13.859  42.385   6.209
 4927POPC   C2B62252  14.001  42.378   6.666
 4927POPC   C3B62253  13.843  42.468   7.108
 4927POPC   C4B62254  13.879  42.569   7.564
 4928POPC   NC362255  40.017  24.061   5.121
 4928POPC   PO462256  39.978  23.514   5.439
 4928POPC   GL162257  40.035  23.783   5.777
 4928POPC   GL262258  40.318  23.963   5.640
 4928POPC   C1A62259  39.776  23.819   6.170
 4928POPC   D2A62260  39.698  23.623   6.590
 4928POPC   C3A62261  39.769  23.854   6.994
 4928POPC   C4A62262  39.946  23.561   7.296
 4928POPC   C1B62263  40.358  23.993   6.102
 4928POPC   C2B62264  40.174  23.820   6.475
 4928POPC   C3B62265  40.248  23.694   6.890
 4928POPC   C4B62266  40.282  23.964   7.269
 4929POPC   NC362267  40.732   3.957   5.460
 4929POPC   PO462268  40.476   4.568   5.487
 4929POPC   GL162269  40.770   4.349   5.829
 4929POPC   GL262270  40.898   3.960   5.924
 4929POPC   C1A62271  40.930   4.339   6.255
 4929POPC   D2A62272  41.035   4.112   6.608
 4929POPC   C3A62273  40.976   4.303   6.988
 4929POPC   C4A62274  40.819   4.174   7.398
 4929POPC   C1B62275  40.485   4.027   6.114
 4929POPC   C2B62276  40.472   4.241   6.511
 4929POPC   C3B62277  40.536   4.069   6.918
 4929POPC   C4B62278  40.289   4.049   7.273
 4930POPC   NC362279  23.637  34.241   5.343
 4930POPC   PO462280  24.121  34.711   5.258
 4930POPC   GL162281  23.901  34.632   5.703
 4930POPC   GL262282  23.528  34.565   5.764
 4930POPC   C1A62283  23.794  34.849   6.113
 4930POPC   D2A62284  23.937  35.002   6.518
 4930POPC   C3A62285  23.843  34.838   6.921
 4930POPC   C4A62286  23.918  34.804   7.343
 4930POPC   C1B62287  23.723  34.334   6.116
 4930POPC   C2B62288  23.925  34.468   6.518
 4930POPC   C3B62289  23.970  34.277   6.924
 4930POPC   C4B62290  23.784  34.308   7.339
 4931POPC   NC362291  23.190  40.359   5.385
 4931POPC   PO462292  22.708  39.912   5.389
 4931POPC   GL162293  22.815  39.980   5.778
 4931POPC   GL262294  22.812  40.312   5.779
 4931POPC   C1A62295  22.917  39.786   6.153
 4931POPC   D2A62296  22.666  39.805   6.509
 4931POPC   C3A62297  22.847  39.915   6.880
 4931POPC   C4A62298  23.095  39.723   7.157
 4931POPC   C1B62299  23.059  40.286   6.167
 4931POPC   C2B62300  22.953  40.394   6.624
 4931POPC   C3B62301  23.012  40.392   7.095
 4931POPC   C4B62302  22.848  40.101   7.412
 4932POPC   NC362303  44.445   9.478   5.463
 4932POPC   PO462304  44.824  10.006   5.442
 4932POPC   GL162305  44.625   9.871   5.818
 4932POPC   GL262306  44.801   9.593   5.891
 4932POPC   C1A62307  44.626   9.882   6.286
 4932POPC   D2A62308  44.479   9.726   6.669
 4932POPC   C3A62309  44.728   9.820   6.990
 4932POPC   C4A62310  44.836   9.856   7.397
 4932POPC   C1B62311  44.418   9.438   6.129
 4932POPC   C2B62312  44.270   9.285   6.524
 4932POPC   C3B62313  44.506   9.230   6.886
 4932POPC   C4B62314  44.639   9.392   7.277
 4933POPC   NC362315  12.166  31.083   5.414
 4933POPC   PO462316  11.746  30.565   5.431
 4933POPC   GL162317  11.863  30.833   5.770
 4933POPC   GL262318  12.177  30.667   5.783
 4933POPC   C1A62319  12.014  30.972   6.176
 4933POPC   D2A62320  12.219  30.845   6.535
 4933POPC   C3A62321  11.883  30.861   6.853
 4933POPC   C4A62322  12.092  31.012   7.207
 4933POPC   C1B62323  12.237  30.470   6.176
 4933POPC   C2B62324  12.055  30.372   6.576
 4933POPC   C3B62325  12.229  30.518   6.948
 4933POPC   C4B62326  12.111  30.434   7.369
 4934POPC   NC362327  43.333  13.298   5.482
 4934POPC   PO462328  43.143  12.912   5.045
 4934POPC   GL162329  43.015  12.951   5.624
 4934POPC   GL262330  43.318  13.006   5.889
 4934POPC   C1A62331  42.913  13.016   6.141
 4934POPC   D2A62332  43.264  13.071   6.506
 4934POPC   C3A62333  43.258  13.174   6.970
 4934POPC   C4A62334  43.150  13.058   7.410
 4934POPC   C1B62335  43.429  12.690   6.218
 4934POPC   C2B62336  43.245  12.562   6.638
 4934POPC   C3B62337  43.099  12.677   7.079
 4934POPC   C4B62338  42.802  12.700   7.478
 4935POPC   NC362339  16.577  33.554   5.438
 4935POPC   PO462340  16.894  34.021   5.559
 4935POPC   GL162341  16.853  33.643   5.865
 4935POPC   GL262342  16.494  33.511   5.924
 4935POPC   C1A62343  16.848  33.629   6.329
 4935POPC   D2A62344  16.935  34.023   6.611
 4935POPC   C3A62345  16.950  33.956   7.051
 4935POPC   C4A62346  16.903  33.513   7.114
 4935POPC   C1B62347  16.333  33.504   6.343
 4935POPC   C2B62348  16.527  33.489   6.752
 4935POPC   C3B62349  16.415  33.442   7.218
 4935POPC   C4B62350  16.281  33.599   7.653
 4936POPC   NC362351  21.630  42.647   5.427
 4936POPC   PO462352  21.044  42.246   5.351
 4936POPC   GL162353  21.275  42.380   5.724
 4936POPC   GL262354  21.563  42.142   5.713
 4936POPC   C1A62355  21.487  42.410   6.174
 4936POPC   D2A62356  21.528  42.648   6.584
 4936POPC   C3A62357  21.290  42.509   6.994
 4936POPC   C4A62358  21.346  42.440   7.457
 4936POPC   C1B62359  21.252  41.982   6.022
 4936POPC   C2B62360  21.227  41.977   6.436
 4936POPC   C3B62361  21.466  41.961   6.817
 4936POPC   C4B62362  21.384  41.965   7.275
 4937POPC   NC362363   7.724   0.399   5.094
 4937POPC   PO462364   8.208   0.650   5.499
 4937POPC   GL162365   8.303   0.475   5.905
 4937POPC   GL262366   8.640   0.307   5.884
 4937POPC   C1A62367   8.061   0.420   6.324
 4937POPC   D2A62368   7.858   0.461   6.718
 4937POPC   C3A62369   8.032   0.181   6.994
 4937POPC   C4A62370   8.193   0.348   7.290
 4937POPC   C1B62371   8.578   0.385   6.344
 4937POPC   C2B62372   8.432   0.490   6.753
 4937POPC   C3B62373   8.623   0.256   7.083
 4937POPC   C4B62374   8.624   0.296   7.557
 4938POPC   NC362375  39.127  13.159   5.503
 4938POPC   PO462376  38.848  12.569   5.302
 4938POPC   GL162377  38.991  12.704   5.740
 4938POPC   GL262378  39.335  12.834   5.840
 4938POPC   C1A62379  38.965  12.825   6.191
 4938POPC   D2A62380  39.143  12.839   6.607
 4938POPC   C3A62381  38.965  12.915   6.994
 4938POPC   C4A62382  38.989  12.591   7.276
 4938POPC   C1B62383  39.433  13.062   6.228
 4938POPC   C2B62384  39.624  13.016   6.631
 4938POPC   C3B62385  39.481  12.932   7.030
 4938POPC   C4B62386  39.365  12.921   7.452
 4939POPC   NC362387  27.704   2.113   5.350
 4939POPC   PO462388  27.491   1.610   5.619
 4939POPC   GL162389  27.713   1.879   5.907
 4939POPC   GL262390  27.842   2.237   5.852
 4939POPC   C1A62391  27.625   2.023   6.316
 4939POPC   D2A62392  27.396   1.986   6.670
 4939POPC   C3A62393  27.548   2.062   7.049
 4939POPC   C4A62394  27.548   2.468   7.230
 4939POPC   C1B62395  27.899   2.460   6.259
 4939POPC   C2B62396  27.834   2.364   6.706
 4939POPC   C3B62397  28.048   2.086   7.007
 4939POPC   C4B62398  27.875   1.669   7.125
 4940POPC   NC362399  14.727  38.978   5.430
 4940POPC   PO462400  14.160  39.365   5.411
 4940POPC   GL162401  14.300  39.161   5.796
 4940POPC   GL262402  14.624  39.235   5.868
 4940POPC   C1A62403  14.298  39.100   6.272
 4940POPC   D2A62404  14.450  38.846   6.647
 4940POPC   C3A62405  14.494  39.011   7.087
 4940POPC   C4A62406  14.232  39.095   7.473
 4940POPC   C1B62407  14.631  39.494   6.244
 4940POPC   C2B62408  14.395  39.624   6.583
 4940POPC   C3B62409  14.454  39.817   6.966
 4940POPC   C4B62410  14.426  39.523   7.289
 4941POPC   NC362411   6.023  41.100   5.516
 4941POPC   PO462412   6.186  40.409   5.399
 4941POPC   GL162413   5.903  40.506   5.810
 4941POPC   GL262414   5.715  40.835   5.825
 4941POPC   C1A62415   5.808  40.459   6.263
 4941POPC   D2A62416   6.014  40.440   6.676
 4941POPC   C3A62417   5.864  40.531   7.093
 4941POPC   C4A62418   5.829  40.535   7.538
 4941POPC   C1B62419   6.008  40.907   6.161
 4941POPC   C2B62420   5.932  40.951   6.583
 4941POPC   C3B62421   6.147  40.945   6.963
 4941POPC   C4B62422   6.332  41.153   7.292
 4942POPC   NC362423  32.058  31.238   5.355
 4942POPC   PO462424  32.483  31.773   5.402
 4942POPC   GL162425  32.282  31.551   5.749
 4942POPC   GL262426  32.364  31.243   5.759
 4942POPC   C1A62427  32.307  31.508   6.207
 4942POPC   D2A62428  32.145  31.362   6.622
 4942POPC   C3A62429  32.190  31.640   7.020
 4942POPC   C4A62430  31.826  31.876   7.231
 4942POPC   C1B62431  32.626  31.064   6.040
 4942POPC   C2B62432  32.621  31.168   6.455
 4942POPC   C3B62433  32.522  31.146   6.879
 4942POPC   C4B62434  32.680  31.315   7.247
 4943POPC   NC362435  34.359  15.458   5.383
 4943POPC   PO462436  34.641  14.850   5.364
 4943POPC   GL162437  34.741  15.051   5.756
 4943POPC   GL262438  34.777  15.411   5.719
 4943POPC   C1A62439  34.591  15.102   6.176
 4943POPC   D2A62440  34.690  15.130   6.621
 4943POPC   C3A62441  34.332  15.346   6.817
 4943POPC   C4A62442  34.277  15.354   7.251
 4943POPC   C1B62443  34.900  15.528   6.148
 4943POPC   C2B62444  34.689  15.630   6.548
 4943POPC   C3B62445  34.724  15.589   7.042
 4943POPC   C4B62446  34.572  15.741   7.481
 4944POPC   NC362447  11.775  23.853   5.421
 4944POPC   PO462448  12.334  24.283   5.499
 4944POPC   GL162449  12.126  23.976   5.817
 4944POPC   GL262450  12.255  23.620   5.897
 4944POPC   C1A62451  11.946  23.889   6.248
 4944POPC   D2A62452  11.866  24.117   6.671
 4944POPC   C3A62453  12.012  23.845   7.046
 4944POPC   C4A62454  11.899  23.418   7.233
 4944POPC   C1B62455  12.488  23.707   6.303
 4944POPC   C2B62456  12.450  23.644   6.774
 4944POPC   C3B62457  12.425  23.370   7.156
 4944POPC   C4B62458  12.581  23.470   7.583
 4945POPC   NC362459  43.481   1.018   5.345
 4945POPC   PO462460  43.974   1.495   5.419
 4945POPC   GL162461  43.859   1.310   5.795
 4945POPC   GL262462  44.208   1.317   5.911
 4945POPC   C1A62463  43.818   1.253   6.240
 4945POPC   D2A62464  44.080   1.149   6.584
 4945POPC   C3A62465  43.769   1.265   6.886
 4945POPC   C4A62466  43.600   1.355   7.288
 4945POPC   C1B62467  44.197   1.601   6.245
 4945POPC   C2B62468  44.022   1.644   6.638
 4945POPC   C3B62469  44.156   1.546   7.054
 4945POPC   C4B62470  44.129   1.399   7.485
 4946POPC   NC362471  25.892   4.498   5.415
 4946POPC   PO462472  26.239   4.010   5.144
 4946POPC   GL162473  26.167   4.189   5.674
 4946POPC   GL262474  26.389   4.481   5.751
 4946POPC   C1A62475  26.258   4.211   6.165
 4946POPC   D2A62476  26.177   4.461   6.560
 4946POPC   C3A62477  25.998   4.259   6.950
 4946POPC   C4A62478  26.247   4.348   7.273
 4946POPC   C1B62479  26.100   4.699   6.090
 4946POPC   C2B62480  25.851   4.876   6.473
 4946POPC   C3B62481  25.931   4.758   6.906
 4946POPC   C4B62482  25.782   4.562   7.282
 4947POPC   NC362483  18.963  28.081   5.535
 4947POPC   PO462484  18.365  28.221   5.206
 4947POPC   GL162485  18.167  28.258   5.676
 4947POPC   GL262486  17.837  28.113   5.801
 4947POPC   C1A62487  18.198  28.450   6.130
 4947POPC   D2A62488  18.269  28.707   6.509
 4947POPC   C3A62489  18.352  28.484   6.896
 4947POPC   C4A62490  18.568  28.175   7.140
 4947POPC   C1B62491  18.122  27.957   6.109
 4947POPC   C2B62492  18.311  28.099   6.492
 4947POPC   C3B62493  18.156  27.999   6.872
 4947POPC   C4B62494  18.178  27.889   7.280
 4948POPC   NC362495  14.976  24.762   5.533
 4948POPC   PO462496  14.735  24.127   5.508
 4948POPC   GL162497  14.866  24.334   5.862
 4948POPC   GL262498  15.198  24.415   5.831
 4948POPC   C1A62499  14.856  24.409   6.289
 4948POPC   D2A62500  15.162  24.395   6.585
 4948POPC   C3A62501  15.159  24.214   6.974
 4948POPC   C4A62502  15.152  24.467   7.348
 4948POPC   C1B62503  15.274  24.721   6.163
 4948POPC   C2B62504  15.465  24.813   6.567
 4948POPC   C3B62505  15.395  24.766   6.995
 4948POPC   C4B62506  15.576  24.738   7.412
 4949POPC   NC362507   8.726  19.556   5.350
 4949POPC   PO462508   8.976  18.966   5.506
 4949POPC   GL162509   8.961  19.170   5.874
 4949POPC   GL262510   9.109  19.463   5.769
 4949POPC   C1A62511   9.068  19.067   6.304
 4949POPC   D2A62512   8.731  18.922   6.553
 4949POPC   C3A62513   8.729  18.705   6.942
 4949POPC   C4A62514   9.033  18.760   7.225
 4949POPC   C1B62515   9.157  19.554   6.195
 4949POPC   C2B62516   8.954  19.490   6.616
 4949POPC   C3B62517   9.011  19.184   6.922
 4949POPC   C4B62518   8.903  19.243   7.345
 4950POPC   NC362519  24.312  32.775   4.941
 4950POPC   PO462520  24.542  33.130   5.491
 4950POPC   GL162521  24.303  33.193   5.850
 4950POPC   GL262522  24.618  33.169   6.019
 4950POPC   C1A62523  24.188  33.189   6.301
 4950POPC   D2A62524  24.534  33.237   6.571
 4950POPC   C3A62525  24.552  33.085   6.973
 4950POPC   C4A62526  24.331  33.179   7.339
 4950POPC   C1B62527  24.928  33.032   6.301
 4950POPC   C2B62528  25.038  33.145   6.704
 4950POPC   C3B62529  25.015  32.869   7.048
 4950POPC   C4B62530  24.748  32.843   7.379
 4951POPC   NC362531   4.942  42.772   5.525
 4951POPC   PO462532   5.475  42.320   5.570
 4951POPC   GL162533   5.338  42.124   5.917
 4951POPC   GL262534   5.027  42.222   5.817
 4951POPC   C1A62535   5.337  42.162   6.362
 4951POPC   D2A62536   5.125  42.352   6.706
 4951POPC   C3A62537   5.218  42.260   7.112
 4951POPC   C4A62538   5.618  42.114   7.218
 4951POPC   C1B62539   4.826  42.191   6.209
 4951POPC   C2B62540   4.640  42.273   6.602
 4951POPC   C3B62541   4.744  42.517   7.009
 4951POPC   C4B62542   4.915  42.506   7.447
 4952POPC   NC362543  12.741  18.534   5.288
 4952POPC   PO462544  13.190  18.085   5.288
 4952POPC   GL162545  12.945  18.190   5.654
 4952POPC   GL262546  12.998  18.538   5.754
 4952POPC   C1A62547  12.777  18.221   6.088
 4952POPC   D2A62548  12.913  18.078   6.496
 4952POPC   C3A62549  12.838  18.285   6.884
 4952POPC   C4A62550  13.057  18.329   7.276
 4952POPC   C1B62551  12.650  18.740   6.032
 4952POPC   C2B62552  12.444  18.808   6.463
 4952POPC   C3B62553  12.508  18.870   6.917
 4952POPC   C4B62554  12.677  18.637   7.210
 4953POPC   NC362555  26.659  28.552   5.401
 4953POPC   PO462556  26.925  27.870   5.281
 4953POPC   GL162557  26.857  28.126   5.712
 4953POPC   GL262558  26.949  28.484   5.825
 4953POPC   C1A62559  26.590  28.252   6.115
 4953POPC   D2A62560  26.693  28.202   6.533
 4953POPC   C3A62561  26.539  28.286   6.926
 4953POPC   C4A62562  26.660  28.306   7.366
 4953POPC   C1B62563  27.094  28.274   6.216
 4953POPC   C2B62564  27.180  28.278   6.679
 4953POPC   C3B62565  27.053  28.454   7.069
 4953POPC   C4B62566  27.153  28.882   7.094
 4954POPC   NC362567  24.718  21.768   5.411
 4954POPC   PO462568  24.520  21.168   5.315
 4954POPC   GL162569  24.521  21.316   5.736
 4954POPC   GL262570  24.178  21.225   5.848
 4954POPC   C1A62571  24.748  21.330   6.156
 4954POPC   D2A62572  24.926  21.043   6.493
 4954POPC   C3A62573  24.687  21.118   6.877
 4954POPC   C4A62574  24.665  21.433   7.193
 4954POPC   C1B62575  24.300  21.634   6.075
 4954POPC   C2B62576  24.473  21.793   6.484
 4954POPC   C3B62577  24.402  21.843   6.940
 4954POPC   C4B62578  24.208  21.705   7.331
 4955POPC   NC362579  10.644   0.053   5.276
 4955POPC   PO462580  10.362  44.413   5.327
 4955POPC   GL162581  10.501  44.719   5.663
 4955POPC   GL262582  10.233  44.939   5.810
 4955POPC   C1A62583  10.607  44.775   6.110
 4955POPC   D2A62584  10.368  44.852   6.488
 4955POPC   C3A62585  10.642  44.780   6.836
 4955POPC   C4A62586  10.855  44.807   7.228
 4955POPC   C1B62587  10.149  44.557   6.052
 4955POPC   C2B62588  10.371  44.327   6.397
 4955POPC   C3B62589  10.243  44.440   6.813
 4955POPC   C4B62590  10.380  44.587   7.232
 4956POPC   NC362591  29.776   4.735   5.569
 4956POPC   PO462592  29.959   4.118   5.333
 4956POPC   GL162593  29.977   4.298   5.771
 4956POPC   GL262594  30.190   4.570   5.892
 4956POPC   C1A62595  29.899   4.216   6.218
 4956POPC   D2A62596  29.623   4.292   6.583
 4956POPC   C3A62597  29.737   4.019   6.925
 4956POPC   C4A62598  30.033   3.889   7.189
 4956POPC   C1B62599  30.292   4.529   6.359
 4956POPC   C2B62600  30.142   4.268   6.717
 4956POPC   C3B62601  30.148   4.376   7.197
 4956POPC   C4B62602  30.259   4.426   7.694
 4957POPC   NC362603  30.787  41.477   5.346
 4957POPC   PO462604  30.214  41.314   5.639
 4957POPC   GL162605  30.665  41.394   5.825
 4957POPC   GL262606  30.864  41.729   5.770
 4957POPC   C1A62607  30.946  41.473   6.188
 4957POPC   D2A62608  30.965  41.271   6.578
 4957POPC   C3A62609  30.636  41.382   6.821
 4957POPC   C4A62610  30.638  41.463   7.232
 4957POPC   C1B62611  30.539  41.800   6.101
 4957POPC   C2B62612  30.658  41.814   6.506
 4957POPC   C3B62613  30.713  41.893   6.938
 4957POPC   C4B62614  30.809  41.969   7.392
 4958POPC   NC362615  19.306  39.425   5.463
 4958POPC   PO462616  18.810  39.103   5.603
 4958POPC   GL162617  18.903  39.088   6.011
 4958POPC   GL262618  19.175  39.355   5.986
 4958POPC   C1A62619  19.079  39.100   6.432
 4958POPC   D2A62620  19.373  39.380   6.626
 4958POPC   C3A62621  19.177  39.449   7.014
 4958POPC   C4A62622  18.864  39.166   7.207
 4958POPC   C1B62623  18.820  39.531   6.249
 4958POPC   C2B62624  18.675  39.451   6.676
 4958POPC   C3B62625  18.681  39.611   7.080
 4958POPC   C4B62626  18.779  39.721   7.494
 4959POPC   NC362627  26.295   6.240   5.422
 4959POPC   PO462628  25.955   5.715   5.419
 4959POPC   GL162629  26.193   5.825   5.814
 4959POPC   GL262630  26.374   6.133   5.919
 4959POPC   C1A62631  26.172   5.647   6.247
 4959POPC   D2A62632  26.399   5.487   6.632
 4959POPC   C3A62633  26.477   5.620   7.057
 4959POPC   C4A62634  26.213   5.735   7.385
 4959POPC   C1B62635  26.081   6.133   6.272
 4959POPC   C2B62636  26.016   5.918   6.659
 4959POPC   C3B62637  26.160   6.069   7.020
 4959POPC   C4B62638  25.899   6.246   7.326
 4960POPC   NC362639  14.684  31.144   5.465
 4960POPC   PO462640  15.325  31.335   5.328
 4960POPC   GL162641  15.394  31.477   5.756
 4960POPC   GL262642  15.088  31.315   5.821
 4960POPC   C1A62643  15.470  31.553   6.206
 4960POPC   D2A62644  15.377  31.365   6.614
 4960POPC   C3A62645  15.334  31.698   6.902
 4960POPC   C4A62646  15.073  31.894   7.210
 4960POPC   C1B62647  14.873  31.108   6.153
 4960POPC   C2B62648  14.733  31.298   6.511
 4960POPC   C3B62649  14.889  31.177   6.874
 4960POPC   C4B62650  15.108  31.376   7.213
 4961POPC   NC362651  28.920  27.121   5.405
 4961POPC   PO462652  29.224  26.534   5.395
 4961POPC   GL162653  29.166  26.801   5.764
 4961POPC   GL262654  29.302  26.549   5.931
 4961POPC   C1A62655  29.208  27.012   6.203
 4961POPC   D2A62656  28.972  27.031   6.595
 4961POPC   C3A62657  29.226  26.997   6.958
 4961POPC   C4A62658  29.266  26.761   7.306
 4961POPC   C1B62659  28.929  26.583   6.173
 4961POPC   C2B62660  28.828  26.452   6.566
 4961POPC   C3B62661  28.923  26.606   6.939
 4961POPC   C4B62662  28.845  26.467   7.337
 4962POPC   NC362663   1.512  29.603   5.565
 4962POPC   PO462664   2.211  29.728   5.302
 4962POPC   GL162665   2.164  29.811   5.767
 4962POPC   GL262666   2.025  30.155   5.843
 4962POPC   C1A62667   2.052  29.717   6.215
 4962POPC   D2A62668   1.820  29.867   6.613
 4962POPC   C3A62669   2.048  29.999   6.992
 4962POPC   C4A62670   2.270  29.964   7.406
 4962POPC   C1B62671   1.779  30.212   6.221
 4962POPC   C2B62672   1.766  30.398   6.649
 4962POPC   C3B62673   1.573  30.243   7.028
 4962POPC   C4B62674   1.736  30.076   7.412
 4963POPC   NC362675  12.162   9.341   5.303
 4963POPC   PO462676  12.283   8.691   5.318
 4963POPC   GL162677  12.209   8.953   5.647
 4963POPC   GL262678  11.857   8.866   5.685
 4963POPC   C1A62679  12.310   9.111   6.091
 4963POPC   D2A62680  12.491   9.016   6.499
 4963POPC   C3A62681  12.288   9.162   6.859
 4963POPC   C4A62682  12.378   9.124   7.297
 4963POPC   C1B62683  12.070   8.648   6.024
 4963POPC   C2B62684  12.043   8.705   6.448
 4963POPC   C3B62685  11.979   8.722   6.868
 4963POPC   C4B62686  12.143   8.642   7.250
 4964POPC   NC362687  35.444  16.184   5.395
 4964POPC   PO462688  35.184  15.528   5.411
 4964POPC   GL162689  35.415  15.675   5.780
 4964POPC   GL262690  35.194  15.892   5.943
 4964POPC   C1A62691  35.417  15.563   6.239
 4964POPC   D2A62692  35.166  15.458   6.617
 4964POPC   C3A62693  35.163  15.856   6.847
 4964POPC   C4A62694  35.549  15.885   7.118
 4964POPC   C1B62695  35.466  16.115   6.297
 4964POPC   C2B62696  35.516  16.228   6.749
 4964POPC   C3B62697  35.366  16.363   7.152
 4964POPC   C4B62698  35.548  16.219   7.529
 4965POPC   NC362699  42.423  39.548   5.497
 4965POPC   PO462700  42.107  38.920   5.268
 4965POPC   GL162701  42.372  39.057   5.630
 4965POPC   GL262702  42.092  39.233   5.759
 4965POPC   C1A62703  42.468  39.138   6.113
 4965POPC   D2A62704  42.311  39.253   6.549
 4965POPC   C3A62705  42.528  39.326   6.939
 4965POPC   C4A62706  42.380  39.203   7.336
 4965POPC   C1B62707  41.922  39.270   6.188
 4965POPC   C2B62708  41.857  39.556   6.532
 4965POPC   C3B62709  42.023  39.553   6.946
 4965POPC   C4B62710  41.862  39.378   7.311
 4966POPC   NC362711  37.520  40.327   5.535
 4966POPC   PO462712  37.967  39.812   5.485
 4966POPC   GL162713  37.833  40.066   5.841
 4966POPC   GL262714  37.503  39.944   5.868
 4966POPC   C1A62715  37.786  40.143   6.294
 4966POPC   D2A62716  37.998  39.885   6.607
 4966POPC   C3A62717  37.801  39.960   6.977
 4966POPC   C4A62718  37.930  40.044   7.366
 4966POPC   C1B62719  37.303  40.011   6.239
 4966POPC   C2B62720  37.412  39.918   6.642
 4966POPC   C3B62721  37.273  39.997   7.037
 4966POPC   C4B62722  37.482  40.294   7.279
 4967POPC   NC362723  15.715  31.566   5.351
 4967POPC   PO462724  16.312  31.212   5.430
 4967POPC   GL162725  15.987  31.381   5.749
 4967POPC   GL262726  15.926  31.732   5.808
 4967POPC   C1A62727  15.880  31.227   6.155
 4967POPC   D2A62728  16.180  31.159   6.473
 4967POPC   C3A62729  16.086  31.195   6.910
 4967POPC   C4A62730  15.664  31.334   7.063
 4967POPC   C1B62731  15.980  31.733   6.235
 4967POPC   C2B62732  15.884  31.554   6.609
 4967POPC   C3B62733  16.045  31.709   6.986
 4967POPC   C4B62734  15.735  31.861   7.178
 4968POPC   NC362735   3.892   3.720   5.376
 4968POPC   PO462736   4.494   4.187   5.472
 4968POPC   GL162737   4.278   4.160   5.861
 4968POPC   GL262738   3.894   4.031   5.793
 4968POPC   C1A62739   4.426   4.433   6.228
 4968POPC   D2A62740   4.479   4.697   6.612
 4968POPC   C3A62741   4.464   4.408   6.959
 4968POPC   C4A62742   4.525   4.306   7.400
 4968POPC   C1B62743   3.905   4.264   6.178
 4968POPC   C2B62744   4.067   4.354   6.594
 4968POPC   C3B62745   3.915   4.415   7.002
 4968POPC   C4B62746   4.014   4.504   7.423
 4969POPC   NC362747   0.688  34.850   5.592
 4969POPC   PO462748   0.185  34.608   5.244
 4969POPC   GL162749   0.198  34.435   5.731
 4969POPC   GL262750   0.482  34.524   5.897
 4969POPC   C1A62751   0.093  34.514   6.231
 4969POPC   D2A62752   0.029  34.557   6.692
 4969POPC   C3A62753   0.240  34.747   7.019
 4969POPC   C4A62754   0.500  34.441   7.197
 4969POPC   C1B62755   0.626  34.662   6.282
 4969POPC   C2B62756   0.620  34.468   6.694
 4969POPC   C3B62757   0.949  34.301   6.974
 4969POPC   C4B62758   0.966  34.382   7.396
 4970POPC   NC362759  12.931  22.395   5.401
 4970POPC   PO462760  12.787  21.789   5.605
 4970POPC   GL162761  12.795  22.229   5.864
 4970POPC   GL262762  13.066  22.528   5.883
 4970POPC   C1A62763  12.624  22.532   6.185
 4970POPC   D2A62764  12.765  22.529   6.621
 4970POPC   C3A62765  12.689  22.127   6.805
 4970POPC   C4A62766  12.607  22.041   7.213
 4970POPC   C1B62767  13.150  22.358   6.312
 4970POPC   C2B62768  13.192  22.246   6.768
 4970POPC   C3B62769  13.120  21.869   7.037
 4970POPC   C4B62770  13.026  21.857   7.479
 4971POPC   NC362771  26.316  39.951   5.568
 4971POPC   PO462772  25.763  40.355   5.732
 4971POPC   GL162773  25.696  39.923   5.897
 4971POPC   GL262774  25.875  39.631   5.791
 4971POPC   C1A62775  25.788  39.862   6.325
 4971POPC   D2A62776  25.698  40.234   6.621
 4971POPC   C3A62777  25.790  40.141   7.045
 4971POPC   C4A62778  26.225  40.124   7.141
 4971POPC   C1B62779  26.220  39.649   6.117
 4971POPC   C2B62780  26.507  39.765   6.431
 4971POPC   C3B62781  26.499  39.774   6.879
 4971POPC   C4B62782  26.361  39.645   7.316
 4972POPC   NC362783  27.854  21.127   5.342
 4972POPC   PO462784  28.537  21.209   5.476
 4972POPC   GL162785  28.255  21.374   5.810
 4972POPC   GL262786  28.109  21.679   5.678
 4972POPC   C1A62787  28.186  21.289   6.287
 4972POPC   D2A62788  28.529  21.273   6.613
 4972POPC   C3A62789  28.531  21.177   7.061
 4972POPC   C4A62790  28.807  21.361   7.380
 4972POPC   C1B62791  28.179  21.775   6.145
 4972POPC   C2B62792  28.283  21.736   6.618
 4972POPC   C3B62793  28.271  21.643   7.074
 4972POPC   C4B62794  28.386  21.632   7.527
 4973POPC   NC362795  26.662  43.712   5.414
 4973POPC   PO462796  27.151  44.172   5.464
 4973POPC   GL162797  26.954  43.915   5.778
 4973POPC   GL262798  27.103  43.600   5.680
 4973POPC   C1A62799  26.724  43.744   6.157
 4973POPC   D2A62800  26.539  43.599   6.599
 4973POPC   C3A62801  26.680  43.847   6.976
 4973POPC   C4A62802  26.555  44.065   7.358
 4973POPC   C1B62803  27.237  43.673   6.130
 4973POPC   C2B62804  27.043  43.738   6.561
 4973POPC   C3B62805  27.176  43.810   6.987
 4973POPC   C4B62806  27.037  43.802   7.427
 4974POPC   NC362807  30.047  34.164   5.042
 4974POPC   PO462808  30.104  34.778   5.379
 4974POPC   GL162809  29.989  34.852   5.749
 4974POPC   GL262810  29.632  34.819   5.734
 4974POPC   C1A62811  30.025  34.623   6.116
 4974POPC   D2A62812  30.117  34.324   6.433
 4974POPC   C3A62813  30.205  34.516   6.824
 4974POPC   C4A62814  30.069  34.498   7.256
 4974POPC   C1B62815  29.544  34.722   6.200
 4974POPC   C2B62816  29.696  34.593   6.634
 4974POPC   C3B62817  29.614  34.699   7.068
 4974POPC   C4B62818  29.190  34.576   7.264
 4975POPC   NC362819  28.015  15.840   5.387
 4975POPC   PO462820  28.547  16.217   5.283
 4975POPC   GL162821  28.328  16.144   5.692
 4975POPC   GL262822  27.990  16.266   5.662
 4975POPC   C1A62823  28.403  15.870   6.078
 4975POPC   D2A62824  28.467  15.592   6.461
 4975POPC   C3A62825  28.507  15.845   6.842
 4975POPC   C4A62826  28.701  16.048   7.200
 4975POPC   C1B62827  27.895  16.005   6.021
 4975POPC   C2B62828  28.014  15.903   6.408
 4975POPC   C3B62829  27.990  15.904   6.851
 4975POPC   C4B62830  28.177  16.093   7.212
 4976POPC   NC362831  33.738  22.404   5.477
 4976POPC   PO462832  33.296  21.920   5.465
 4976POPC   GL162833  33.687  21.882   5.704
 4976POPC   GL262834  33.717  22.183   5.934
 4976POPC   C1A62835  33.865  21.743   6.116
 4976POPC   D2A62836  33.928  22.050   6.483
 4976POPC   C3A62837  33.683  22.019   6.872
 4976POPC   C4A62838  33.681  22.259   7.288
 4976POPC   C1B62839  33.881  22.547   6.140
 4976POPC   C2B62840  33.947  22.750   6.521
 4976POPC   C3B62841  33.910  22.501   6.896
 4976POPC   C4B62842  34.037  22.650   7.276
 4977POPC   NC362843  32.033  14.429   5.407
 4977POPC   PO462844  32.584  14.185   5.795
 4977POPC   GL162845  32.157  14.320   5.884
 4977POPC   GL262846  32.152  14.695   5.896
 4977POPC   C1A62847  31.792  14.389   6.121
 4977POPC   D2A62848  31.790  14.283   6.541
 4977POPC   C3A62849  31.980  14.569   6.818
 4977POPC   C4A62850  32.063  14.309   7.157
 4977POPC   C1B62851  32.235  14.546   6.350
 4977POPC   C2B62852  32.316  14.168   6.637
 4977POPC   C3B62853  32.563  14.102   7.013
 4977POPC   C4B62854  32.500  14.254   7.400
 4978POPC   NC362855  11.057  30.123   5.278
 4978POPC   PO462856  11.591  29.720   5.439
 4978POPC   GL162857  11.558  29.921   5.830
 4978POPC   GL262858  11.233  30.000   5.750
 4978POPC   C1A62859  11.416  30.133   6.216
 4978POPC   D2A62860  11.207  29.977   6.568
 4978POPC   C3A62861  11.366  30.016   6.993
 4978POPC   C4A62862  11.332  30.045   7.436
 4978POPC   C1B62863  10.938  30.077   6.087
 4978POPC   C2B62864  10.742  30.144   6.478
 4978POPC   C3B62865  10.845  30.058   6.914
 4978POPC   C4B62866  11.010  30.354   7.189
 4979POPC   NC362867  21.143  39.390   5.530
 4979POPC   PO462868  21.601  39.037   5.123
 4979POPC   GL162869  21.568  39.091   5.627
 4979POPC   GL262870  21.320  38.901   5.851
 4979POPC   C1A62871  21.510  39.297   6.075
 4979POPC   D2A62872  21.589  39.209   6.490
 4979POPC   C3A62873  21.459  39.364   6.894
 4979POPC   C4A62874  21.645  39.283   7.318
 4979POPC   C1B62875  21.334  38.804   6.282
 4979POPC   C2B62876  21.291  38.862   6.725
 4979POPC   C3B62877  21.083  38.798   7.082
 4979POPC   C4B62878  20.908  38.838   7.466
 4980POPC   NC362879   7.216  43.778   5.624
 4980POPC   PO462880   7.287  43.239   5.209
 4980POPC   GL162881   7.526  43.048   5.597
 4980POPC   GL262882   7.242  42.949   5.798
 4980POPC   C1A62883   7.686  42.956   6.067
 4980POPC   D2A62884   7.574  43.076   6.513
 4980POPC   C3A62885   7.737  42.946   6.904
 4980POPC   C4A62886   7.585  43.022   7.319
 4980POPC   C1B62887   7.133  43.047   6.253
 4980POPC   C2B62888   7.097  43.008   6.721
 4980POPC   C3B62889   7.114  42.956   7.164
 4980POPC   C4B62890   7.152  42.823   7.617
 4981POPC   NC362891   1.289  16.155   5.447
 4981POPC   PO462892   1.237  15.510   5.344
 4981POPC   GL162893   1.317  15.712   5.744
 4981POPC   GL262894   1.126  16.010   5.899
 4981POPC   C1A62895   1.457  15.681   6.149
 4981POPC   D2A62896   1.249  15.913   6.459
 4981POPC   C3A62897   1.256  15.827   6.907
 4981POPC   C4A62898   1.522  16.027   7.193
 4981POPC   C1B62899   0.992  16.304   6.240
 4981POPC   C2B62900   0.934  16.248   6.692
 4981POPC   C3B62901   0.918  16.340   7.121
 4981POPC   C4B62902   1.068  16.060   7.395
 4982POPC   NC362903   2.808  18.083   5.018
 4982POPC   PO462904   2.730  17.434   5.382
 4982POPC   GL162905   2.837  17.378   5.808
 4982POPC   GL262906   3.114  17.643   5.892
 4982POPC   C1A62907   2.575  17.518   6.164
 4982POPC   D2A62908   2.705  17.525   6.592
 4982POPC   C3A62909   2.654  17.865   6.825
 4982POPC   C4A62910   2.675  17.698   7.191
 4982POPC   C1B62911   3.083  17.485   6.258
 4982POPC   C2B62912   3.192  17.360   6.639
 4982POPC   C3B62913   3.008  17.327   7.043
 4982POPC   C4B62914   3.135  17.553   7.393
 4983POPC   NC362915  15.885  15.708   5.468
 4983POPC   PO462916  15.815  16.447   5.554
 4983POPC   GL162917  15.915  16.109   5.815
 4983POPC   GL262918  15.614  15.902   5.883
 4983POPC   C1A62919  16.112  16.098   6.200
 4983POPC   D2A62920  16.010  15.965   6.601
 4983POPC   C3A62921  16.089  16.089   7.006
 4983POPC   C4A62922  16.031  15.960   7.426
 4983POPC   C1B62923  15.596  16.128   6.314
 4983POPC   C2B62924  15.598  16.183   6.798
 4983POPC   C3B62925  15.575  15.926   7.167
 4983POPC   C4B62926  15.633  15.689   7.564
 4984POPC   NC362927  39.437  28.082   5.440
 4984POPC   PO462928  38.919  28.557   5.490
 4984POPC   GL162929  39.139  28.319   5.813
 4984POPC   GL262930  39.503  28.354   5.857
 4984POPC   C1A62931  39.111  28.430   6.243
 4984POPC   D2A62932  39.237  28.612   6.620
 4984POPC   C3A62933  39.131  28.376   6.993
 4984POPC   C4A62934  39.102  28.130   7.386
 4984POPC   C1B62935  39.603  28.273   6.257
 4984POPC   C2B62936  39.446  28.117   6.647
 4984POPC   C3B62937  39.535  28.086   7.090
 4984POPC   C4B62938  39.568  28.083   7.578
 4985POPC   NC362939  11.703  14.790   5.488
 4985POPC   PO462940  12.262  14.471   5.263
 4985POPC   GL162941  12.195  14.493   5.713
 4985POPC   GL262942  12.263  14.164   5.849
 4985POPC   C1A62943  12.088  14.561   6.163
 4985POPC   D2A62944  12.167  14.734   6.594
 4985POPC   C3A62945  12.091  14.496   6.968
 4985POPC   C4A62946  12.467  14.514   7.212
 4985POPC   C1B62947  12.393  14.143   6.226
 4985POPC   C2B62948  12.257  14.224   6.589
 4985POPC   C3B62949  12.430  14.080   6.973
 4985POPC   C4B62950  12.343  14.018   7.384
 4986POPC   NC362951  28.058  38.228   5.543
 4986POPC   PO462952  28.439  38.691   5.374
 4986POPC   GL162953  28.382  38.634   5.785
 4986POPC   GL262954  28.508  38.289   5.799
 4986POPC   C1A62955  28.252  38.840   6.182
 4986POPC   D2A62956  28.088  38.712   6.575
 4986POPC   C3A62957  28.235  38.842   6.972
 4986POPC   C4A62958  28.417  38.742   7.381
 4986POPC   C1B62959  28.404  38.351   6.229
 4986POPC   C2B62960  28.530  38.379   6.630
 4986POPC   C3B62961  28.409  38.345   7.045
 4986POPC   C4B62962  28.775  38.317   7.253
 4987POPC   NC362963  44.311  17.995   5.434
 4987POPC   PO462964  43.802  18.547   5.424
 4987POPC   GL162965  43.866  18.368   5.868
 4987POPC   GL262966  44.052  18.045   5.878
 4987POPC   C1A62967  43.892  18.238   6.323
 4987POPC   D2A62968  44.123  18.169   6.709
 4987POPC   C3A62969  43.886  18.359   7.041
 4987POPC   C4A62970  43.631  18.712   7.176
 4987POPC   C1B62971  44.143  17.784   6.248
 4987POPC   C2B62972  43.995  17.681   6.682
 4987POPC   C3B62973  44.053  17.829   7.102
 4987POPC   C4B62974  43.733  17.957   7.329
 4988POPC   NC362975  41.389  44.397   5.443
 4988POPC   PO462976  41.532  43.699   5.396
 4988POPC   GL162977  41.360  43.801   5.775
 4988POPC   GL262978  41.520  44.129   5.856
 4988POPC   C1A62979  41.362  43.626   6.171
 4988POPC   D2A62980  41.719  43.560   6.403
 4988POPC   C3A62981  41.634  43.380   6.785
 4988POPC   C4A62982  41.436  43.615   7.128
 4988POPC   C1B62983  41.602  44.049   6.297
 4988POPC   C2B62984  41.423  43.910   6.688
 4988POPC   C3B62985  41.469  44.140   7.070
 4988POPC   C4B62986  41.871  44.095   7.214
 4989POPC   NC362987  18.556  18.117   5.352
 4989POPC   PO462988  18.259  18.675   5.379
 4989POPC   GL162989  18.269  18.559   5.792
 4989POPC   GL262990  18.598  18.442   5.819
 4989POPC   C1A62991  17.995  18.576   6.188
 4989POPC   D2A62992  18.048  18.704   6.613
 4989POPC   C3A62993  17.978  18.446   7.016
 4989POPC   C4A62994  18.244  18.090   7.192
 4989POPC   C1B62995  18.430  18.323   6.259
 4989POPC   C2B62996  18.394  18.330   6.727
 4989POPC   C3B62997  18.616  18.448   7.095
 4989POPC   C4B62998  19.015  18.483   7.355
 4990POPC   NC362999  32.513  18.676   5.490
 4990POPC   PO463000  31.953  18.359   5.564
 4990POPC   GL163001  32.264  18.186   5.872
 4990POPC   GL263002  32.636  18.252   5.775
 4990POPC   C1A63003  32.227  18.192   6.337
 4990POPC   D2A63004  32.297  18.412   6.740
 4990POPC   C3A63005  32.070  18.341   7.135
 4990POPC   C4A63006  31.842  18.666   7.356
 4990POPC   C1B63007  32.715  18.346   6.216
 4990POPC   C2B63008  32.706  18.111   6.604
 4990POPC   C3B63009  32.610  18.162   7.044
 4990POPC   C4B63010  32.541  18.558   7.249
 4991POPC   NC363011  37.991  35.996   5.501
 4991POPC   PO463012  37.647  36.602   5.508
 4991POPC   GL163013  37.799  36.335   5.821
 4991POPC   GL263014  37.665  35.988   5.889
 4991POPC   C1A63015  37.990  36.223   6.210
 4991POPC   D2A63016  37.867  36.019   6.604
 4991POPC   C3A63017  38.024  36.223   6.970
 4991POPC   C4A63018  37.882  36.264   7.353
 4991POPC   C1B63019  37.411  36.113   6.194
 4991POPC   C2B63020  37.391  36.211   6.622
 4991POPC   C3B63021  37.543  36.000   7.018
 4991POPC   C4B63022  37.488  35.984   7.489
 4992POPC   NC363023  19.856  44.950   5.329
 4992POPC   PO463024  19.416  44.393   5.407
 4992POPC   GL163025  19.695  44.521   5.779
 4992POPC   GL263026  19.773  44.897   5.820
 4992POPC   C1A63027  19.693  44.626   6.227
 4992POPC   D2A63028  19.942  44.678   6.584
 4992POPC   C3A63029  19.726  44.631   6.963
 4992POPC   C4A63030  19.842  44.510   7.374
 4992POPC   C1B63031  19.982   0.053   6.207
 4992POPC   C2B63032  20.171   0.149   6.599
 4992POPC   C3B63033  20.075  44.991   6.992
 4992POPC   C4B63034  20.097  44.966   7.410
 4993POPC   NC363035  20.928  14.836   5.107
 4993POPC   PO463036  20.574  15.377   5.312
 4993POPC   GL163037  20.654  15.097   5.686
 4993POPC   GL263038  20.472  15.255   5.934
 4993POPC   C1A63039  20.772  14.886   6.133
 4993POPC   D2A63040  20.712  14.731   6.583
 4993POPC   C3A63041  20.777  14.945   6.987
 4993POPC   C4A63042  20.764  14.793   7.426
 4993POPC   C1B63043  20.370  15.084   6.360
 4993POPC   C2B63044  20.263  14.902   6.753
 4993POPC   C3B63045  20.308  15.034   7.151
 4993POPC   C4B63046  20.528  15.442   7.210
 4994POPC   NC363047  14.359   6.986   5.516
 4994POPC   PO463048  14.153   6.276   5.463
 4994POPC   GL163049  14.334   6.391   5.900
 4994POPC   GL263050  14.175   6.699   5.893
 4994POPC   C1A63051  14.587   6.568   6.276
 4994POPC   D2A63052  14.755   6.683   6.702
 4994POPC   C3A63053  14.490   6.724   7.100
 4994POPC   C4A63054  14.086   6.588   7.335
 4994POPC   C1B63055  14.314   6.997   6.195
 4994POPC   C2B63056  14.243   6.837   6.606
 4994POPC   C3B63057  14.012   6.929   6.959
 4994POPC   C4B63058  14.235   7.201   7.210
 4995POPC   NC363059  14.391  34.101   5.396
 4995POPC   PO463060  14.566  33.398   5.307
 4995POPC   GL163061  14.419  33.646   5.673
 4995POPC   GL263062  14.692  33.676   5.883
 4995POPC   C1A63063  14.297  33.878   6.109
 4995POPC   D2A63064  14.056  33.812   6.520
 4995POPC   C3A63065  14.137  33.957   6.981
 4995POPC   C4A63066  14.124  33.905   7.467
 4995POPC   C1B63067  14.714  33.676   6.355
 4995POPC   C2B63068  14.612  33.671   6.795
 4995POPC   C3B63069  14.595  33.863   7.198
 4995POPC   C4B63070  14.671  34.145   7.544
 4996POPC   NC363071  18.303  28.634   5.026
 4996POPC   PO463072  17.990  29.135   5.378
 4996POPC   GL163073  18.001  29.126   5.809
 4996POPC   GL263074  18.009  28.771   5.810
 4996POPC   C1A63075  18.160  29.237   6.239
 4996POPC   D2A63076  18.251  29.446   6.657
 4996POPC   C3A63077  18.221  29.273   7.105
 4996POPC   C4A63078  18.087  29.197   7.547
 4996POPC   C1B63079  17.846  28.836   6.229
 4996POPC   C2B63080  17.894  29.032   6.635
 4996POPC   C3B63081  17.973  28.837   7.003
 4996POPC   C4B63082  18.314  28.787   7.311
 4997POPC   NC363083  24.320  11.846   5.512
 4997POPC   PO463084  24.833  12.239   5.427
 4997POPC   GL163085  24.583  12.172   5.817
 4997POPC   GL263086  24.255  12.319   5.742
 4997POPC   C1A63087  24.658  12.093   6.271
 4997POPC   D2A63088  24.620  12.329   6.647
 4997POPC   C3A63089  24.764  12.065   6.987
 4997POPC   C4A63090  24.422  11.916   7.191
 4997POPC   C1B63091  24.172  12.135   6.151
 4997POPC   C2B63092  24.111  12.187   6.590
 4997POPC   C3B63093  24.046  12.206   7.030
 4997POPC   C4B63094  24.189  12.212   7.519
 4998POPC   NC363095  19.911  12.575   5.352
 4998POPC   PO463096  19.797  13.299   5.365
 4998POPC   GL163097  19.762  13.144   5.825
 4998POPC   GL263098  19.727  12.757   5.811
 4998POPC   C1A63099  19.920  12.995   6.276
 4998POPC   D2A63100  20.220  12.948   6.665
 4998POPC   C3A63101  19.943  12.955   7.026
 4998POPC   C4A63102  19.507  12.834   7.005
 4998POPC   C1B63103  20.052  12.524   6.085
 4998POPC   C2B63104  20.072  12.451   6.558
 4998POPC   C3B63105  20.174  12.509   7.029
 4998POPC   C4B63106  20.042  12.671   7.471
 4999POPC   NC363107  12.121  44.024   5.343
 4999POPC   PO463108  11.735  43.442   5.221
 4999POPC   GL163109  11.896  43.435   5.679
 4999POPC   GL263110  12.140  43.702   5.769
 4999POPC   C1A63111  11.924  43.385   6.143
 4999POPC   D2A63112  11.783  43.628   6.536
 4999POPC   C3A63113  11.919  43.553   6.964
 4999POPC   C4A63114  11.878  43.987   7.062
 4999POPC   C1B63115  12.152  43.856   6.222
 4999POPC   C2B63116  12.249  43.875   6.697
 4999POPC   C3B63117  12.394  44.053   7.117
 4999POPC   C4B63118  12.358  44.188   7.562
 5000POPC   NC363119  15.451   0.138   5.451
 5000POPC   PO463120  15.238  44.474   5.523
 5000POPC   GL163121  15.296  44.799   5.799
 5000POPC   GL263122  14.953  44.914   5.800
 5000POPC   C1A63123  15.405  44.855   6.216
 5000POPC   D2A63124  15.260   0.005   6.592
 5000POPC   C3A63125  15.334  44.770   6.950
 5000POPC   C4A63126  15.314  44.484   7.296
 5000POPC   C1B63127  14.915  44.678   6.211
 5000POPC   C2B63128  14.930  44.561   6.672
 5000POPC   C3B63129  14.856  44.691   7.124
 5000POPC   C4B63130  14.855  44.625   7.579
 5001POPC   NC363131  43.700  38.484   5.403
 5001POPC   PO463132  44.345  38.607   5.405
 5001POPC   GL163133  44.052  38.584   5.781
 5001POPC   GL263134  43.898  38.267   5.814
 5001POPC   C1A63135  44.010  38.503   6.240
 5001POPC   D2A63136  43.828  38.658   6.608
 5001POPC   C3A63137  44.026  38.529   6.947
 5001POPC   C4A63138  43.773  38.615   7.302
 5001POPC   C1B63139  43.600  38.171   6.142
 5001POPC   C2B63140  43.717  38.117   6.565
 5001POPC   C3B63141  43.570  38.293   6.940
 5001POPC   C4B63142  43.383  38.209   7.332
 5002POPC   NC363143  13.231  17.695   5.520
 5002POPC   PO463144  12.737  17.312   5.433
 5002POPC   GL163145  12.715  17.451   5.850
 5002POPC   GL263146  12.911  17.749   5.924
 5002POPC   C1A63147  12.862  17.324   6.256
 5002POPC   D2A63148  13.010  17.228   6.665
 5002POPC   C3A63149  12.702  17.288   6.981
 5002POPC   C4A63150  13.001  17.390   7.274
 5002POPC   C1B63151  12.574  17.765   6.225
 5002POPC   C2B63152  12.698  17.642   6.620
 5002POPC   C3B63153  12.882  17.795   6.986
 5002POPC   C4B63154  12.736  17.957   7.353
 5003POPC   NC363155  29.952   0.116   5.537
 5003POPC   PO463156  29.518   0.641   5.540
 5003POPC   GL163157  29.776   0.565   5.845
 5003POPC   GL263158  30.108   0.637   5.711
 5003POPC   C1A63159  29.747   0.398   6.246
 5003POPC   D2A63160  29.940   0.535   6.619
 5003POPC   C3A63161  29.769   0.404   7.022
 5003POPC   C4A63162  29.418   0.647   7.196
 5003POPC   C1B63163  30.230   0.572   6.151
 5003POPC   C2B63164  30.369   0.822   6.495
 5003POPC   C3B63165  30.280   0.732   6.924
 5003POPC   C4B63166  30.193   0.523   7.319
 5004POPC   NC363167   4.606  31.000   5.619
 5004POPC   PO463168   3.914  30.934   5.471
 5004POPC   GL163169   4.152  30.729   5.799
 5004POPC   GL263170   4.497  30.585   5.884
 5004POPC   C1A63171   4.224  30.926   6.191
 5004POPC   D2A63172   4.140  31.167   6.531
 5004POPC   C3A63173   4.146  30.920   6.876
 5004POPC   C4A63174   4.160  31.015   7.274
 5004POPC   C1B63175   4.716  30.785   6.253
 5004POPC   C2B63176   4.616  30.966   6.652
 5004POPC   C3B63177   4.625  30.865   7.091
 5004POPC   C4B63178   4.578  30.798   7.559
 5005POPC   NC363179  28.779  43.909   5.279
 5005POPC   PO463180  29.400  44.091   5.615
 5005POPC   GL163181  29.114  43.841   5.792
 5005POPC   GL263182  28.838  44.033   5.775
 5005POPC   C1A63183  29.132  43.825   6.243
 5005POPC   D2A63184  29.208  43.588   6.610
 5005POPC   C3A63185  29.189  43.749   7.020
 5005POPC   C4A63186  29.452  43.413   7.144
 5005POPC   C1B63187  28.687  44.105   6.190
 5005POPC   C2B63188  28.847  44.031   6.622
 5005POPC   C3B63189  28.799  44.116   7.059
 5005POPC   C4B63190  29.009  44.137   7.448
 5006POPC   NC363191  21.830  14.804   5.305
 5006POPC   PO463192  22.268  14.319   5.423
 5006POPC   GL163193  22.129  14.377   5.839
 5006POPC   GL263194  21.963  14.071   5.884
 5006POPC   C1A63195  22.124  14.488   6.292
 5006POPC   D2A63196  22.489  14.445   6.563
 5006POPC   C3A63197  22.481  14.543   6.994
 5006POPC   C4A63198  22.193  14.332   7.288
 5006POPC   C1B63199  21.816  13.963   6.277
 5006POPC   C2B63200  21.915  14.148   6.659
 5006POPC   C3B63201  21.935  14.498   6.899
 5006POPC   C4B63202  21.754  14.632   7.333
 5007POPC   NC363203  17.084  17.937   5.604
 5007POPC   PO463204  16.540  18.252   5.504
 5007POPC   GL163205  16.596  18.455   5.889
 5007POPC   GL263206  16.980  18.377   5.851
 5007POPC   C1A63207  16.419  18.405   6.285
 5007POPC   D2A63208  16.597  18.193   6.641
 5007POPC   C3A63209  16.480  18.338   7.027
 5007POPC   C4A63210  16.611  18.095   7.359
 5007POPC   C1B63211  16.933  18.287   6.263
 5007POPC   C2B63212  17.090  18.388   6.660
 5007POPC   C3B63213  16.980  18.237   7.026
 5007POPC   C4B63214  16.886  18.524   7.332
 5008POPC   NC363215  14.980  11.953   5.456
 5008POPC   PO463216  15.467  12.364   5.385
 5008POPC   GL163217  15.271  12.394   5.798
 5008POPC   GL263218  14.913  12.374   5.782
 5008POPC   C1A63219  15.211  12.177   6.218
 5008POPC   D2A63220  15.176  11.789   6.478
 5008POPC   C3A63221  15.366  11.815   6.880
 5008POPC   C4A63222  15.244  11.633   7.230
 5008POPC   C1B63223  14.735  12.039   6.065
 5008POPC   C2B63224  14.715  12.046   6.496
 5008POPC   C3B63225  15.019  12.222   6.800
 5008POPC   C4B63226  14.972  12.358   7.228
 5009POPC   NC363227  41.095  30.208   5.542
 5009POPC   PO463228  41.435  29.907   5.056
 5009POPC   GL163229  41.530  29.999   5.567
 5009POPC   GL263230  41.512  29.694   5.744
 5009POPC   C1A63231  41.491  30.105   6.047
 5009POPC   D2A63232  41.345  30.135   6.509
 5009POPC   C3A63233  41.571  30.229   6.925
 5009POPC   C4A63234  41.971  30.283   7.197
 5009POPC   C1B63235  41.299  29.630   6.148
 5009POPC   C2B63236  41.171  29.658   6.578
 5009POPC   C3B63237  41.477  29.703   6.890
 5009POPC   C4B63238  41.348  29.865   7.279
 5010POPC   NC363239  23.291   7.290   5.453
 5010POPC   PO463240  23.897   7.058   5.508
 5010POPC   GL163241  23.836   7.302   5.847
 5010POPC   GL263242  23.516   7.428   5.910
 5010POPC   C1A63243  23.969   7.565   6.167
 5010POPC   D2A63244  24.029   7.381   6.572
 5010POPC   C3A63245  23.860   7.496   6.997
 5010POPC   C4A63246  24.012   7.882   7.182
 5010POPC   C1B63247  23.614   7.215   6.293
 5010POPC   C2B63248  23.566   7.184   6.715
 5010POPC   C3B63249  23.467   6.998   7.082
 5010POPC   C4B63250  23.344   7.030   7.505
 5011POPC   NC363251  31.474   6.379   5.559
 5011POPC   PO463252  31.200   6.951   5.460
 5011POPC   GL163253  31.399   6.794   5.858
 5011POPC   GL263254  31.756   6.675   5.864
 5011POPC   C1A63255  31.487   6.820   6.301
 5011POPC   D2A63256  31.436   6.519   6.624
 5011POPC   C3A63257  31.516   6.675   7.016
 5011POPC   C4A63258  31.454   6.415   7.345
 5011POPC   C1B63259  31.904   6.491   6.256
 5011POPC   C2B63260  32.076   6.300   6.624
 5011POPC   C3B63261  31.826   6.242   7.036
 5011POPC   C4B63262  31.829   6.168   7.553
 5012POPC   NC363263  30.516  30.915   5.718
 5012POPC   PO463264  30.945  30.487   5.625
 5012POPC   GL163265  30.676  30.452   5.999
 5012POPC   GL263266  30.315  30.472   6.101
 5012POPC   C1A63267  30.755  30.675   6.372
 5012POPC   D2A63268  30.968  31.043   6.551
 5012POPC   C3A63269  30.891  30.995   7.002
 5012POPC   C4A63270  30.925  30.589   7.262
 5012POPC   C1B63271  30.263  30.858   6.310
 5012POPC   C2B63272  30.457  30.981   6.655
 5012POPC   C3B63273  30.524  30.663   6.939
 5012POPC   C4B63274  30.490  30.811   7.368
 5013POPC   NC363275  38.344  24.750   5.586
 5013POPC   PO463276  38.093  24.035   5.567
 5013POPC   GL163277  38.326  24.298   5.926
 5013POPC   GL263278  38.559  24.635   6.025
 5013POPC   C1A63279  38.499  24.252   6.331
 5013POPC   D2A63280  38.444  24.611   6.590
 5013POPC   C3A63281  38.206  24.507   6.954
 5013POPC   C4A63282  38.312  24.486   7.398
 5013POPC   C1B63283  38.913  24.564   6.308
 5013POPC   C2B63284  38.938  24.638   6.742
 5013POPC   C3B63285  38.713  24.441   7.037
 5013POPC   C4B63286  39.056  24.512   7.258
 5014POPC   NC363287   1.823  32.914   5.490
 5014POPC   PO463288   2.380  32.976   5.152
 5014POPC   GL163289   2.320  32.787   5.626
 5014POPC   GL263290   2.099  32.991   5.901
 5014POPC   C1A63291   2.417  32.666   6.098
 5014POPC   D2A63292   2.228  32.941   6.431
 5014POPC   C3A63293   2.191  32.911   6.895
 5014POPC   C4A63294   2.282  33.323   7.123
 5014POPC   C1B63295   1.783  33.205   6.139
 5014POPC   C2B63296   1.656  33.469   6.457
 5014POPC   C3B63297   1.814  33.441   6.854
 5014POPC   C4B63298   1.784  33.106   7.143
 5015POPC   NC363299   7.140  11.444   5.552
 5015POPC   PO463300   7.727  11.113   5.488
 5015POPC   GL163301   7.516  11.128   5.831
 5015POPC   GL263302   7.261  10.850   5.884
 5015POPC   C1A63303   7.627  11.434   6.158
 5015POPC   D2A63304   7.395  11.545   6.505
 5015POPC   C3A63305   7.574  11.503   6.895
 5015POPC   C4A63306   7.358  11.281   7.270
 5015POPC   C1B63307   7.298  11.046   6.272
 5015POPC   C2B63308   7.612  11.073   6.563
 5015POPC   C3B63309   7.394  10.967   6.880
 5015POPC   C4B63310   7.162  10.808   7.198
 5016POPC   NC363311  14.762  26.050   5.224
 5016POPC   PO463312  14.127  26.277   5.396
 5016POPC   GL163313  14.405  26.169   5.709
 5016POPC   GL263314  14.217  25.905   5.838
 5016POPC   C1A63315  14.438  26.222   6.176
 5016POPC   D2A63316  14.148  26.217   6.521
 5016POPC   C3A63317  14.293  26.219   6.934
 5016POPC   C4A63318  14.681  26.240   7.148
 5016POPC   C1B63319  14.193  25.778   6.233
 5016POPC   C2B63320  14.464  25.816   6.589
 5016POPC   C3B63321  14.424  25.722   7.022
 5016POPC   C4B63322  14.228  25.527   7.369
 5017POPC   NC363323  18.815  10.175   5.491
 5017POPC   PO463324  18.976   9.547   5.501
 5017POPC   GL163325  18.993   9.820   5.831
 5017POPC   GL263326  19.337   9.865   5.826
 5017POPC   C1A63327  18.828   9.843   6.237
 5017POPC   D2A63328  18.771   9.605   6.629
 5017POPC   C3A63329  18.865   9.840   7.009
 5017POPC   C4A63330  19.094   9.673   7.372
 5017POPC   C1B63331  19.309   9.692   6.264
 5017POPC   C2B63332  19.286   9.831   6.716
 5017POPC   C3B63333  19.455   9.942   7.139
 5017POPC   C4B63334  19.437   9.961   7.629
 5018POPC   NC363335  23.415  19.923   5.600
 5018POPC   PO463336  23.035  19.451   5.362
 5018POPC   GL163337  23.115  19.570   5.802
 5018POPC   GL263338  22.969  19.903   5.851
 5018POPC   C1A63339  23.179  19.633   6.265
 5018POPC   D2A63340  23.018  19.456   6.645
 5018POPC   C3A63341  23.013  19.720   6.989
 5018POPC   C4A63342  23.260  19.675   7.314
 5018POPC   C1B63343  22.968  20.123   6.251
 5018POPC   C2B63344  23.142  20.105   6.668
 5018POPC   C3B63345  23.271  20.152   7.091
 5018POPC   C4B63346  23.011  20.104   7.485
 5019POPC   NC363347   2.890  11.421   5.240
 5019POPC   PO463348   2.538  10.997   5.615
 5019POPC   GL163349   2.534  11.373   5.840
 5019POPC   GL263350   2.817  11.521   5.739
 5019POPC   C1A63351   2.623  11.414   6.271
 5019POPC   D2A63352   2.723  11.068   6.577
 5019POPC   C3A63353   2.473  10.984   6.935
 5019POPC   C4A63354   2.584  11.228   7.285
 5019POPC   C1B63355   3.072  11.340   6.051
 5019POPC   C2B63356   3.084  11.472   6.499
 5019POPC   C3B63357   2.835  11.461   6.891
 5019POPC   C4B63358   3.073  11.499   7.273
 5020POPC   NC363359  41.745   4.614   5.476
 5020POPC   PO463360  41.153   4.293   5.502
 5020POPC   GL163361  41.314   4.274   5.925
 5020POPC   GL263362  41.666   4.329   5.898
 5020POPC   C1A63363  41.478   4.102   6.330
 5020POPC   D2A63364  41.730   4.255   6.692
 5020POPC   C3A63365  41.542   4.460   7.019
 5020POPC   C4A63366  41.304   4.299   7.362
 5020POPC   C1B63367  41.752   4.555   6.276
 5020POPC   C2B63368  42.095   4.614   6.584
 5020POPC   C3B63369  42.078   4.706   7.006
 5020POPC   C4B63370  41.936   4.425   7.335
 5021POPC   NC363371  10.784  17.307   4.930
 5021POPC   PO463372  10.327  17.570   5.401
 5021POPC   GL163373  10.636  17.372   5.717
 5021POPC   GL263374  10.704  17.686   5.938
 5021POPC   C1A63375  10.861  17.272   6.130
 5021POPC   D2A63376  10.791  17.547   6.493
 5021POPC   C3A63377  10.859  17.354   6.901
 5021POPC   C4A63378  10.804  17.593   7.242
 5021POPC   C1B63379  10.374  17.564   6.149
 5021POPC   C2B63380  10.280  17.416   6.532
 5021POPC   C3B63381  10.387  17.537   6.933
 5021POPC   C4B63382  10.381  17.335   7.344
 5022POPC   NC363383  29.945  10.977   5.251
 5022POPC   PO463384  29.610  11.531   5.294
 5022POPC   GL163385  29.754  11.245   5.647
 5022POPC   GL263386  30.086  11.360   5.793
 5022POPC   C1A63387  29.899  10.941   6.011
 5022POPC   D2A63388  30.104  11.082   6.412
 5022POPC   C3A63389  29.938  10.969   6.844
 5022POPC   C4A63390  30.127  11.145   7.232
 5022POPC   C1B63391  29.740  11.602   6.013
 5022POPC   C2B63392  29.709  11.507   6.455
 5022POPC   C3B63393  29.929  11.474   6.859
 5022POPC   C4B63394  29.800  11.527   7.292
 5023POPC   NC363395  29.721  30.422   5.363
 5023POPC   PO463396  30.348  30.504   5.599
 5023POPC   GL163397  29.915  30.636   5.827
 5023POPC   GL263398  29.750  30.963   5.885
 5023POPC   C1A63399  29.796  30.657   6.300
 5023POPC   D2A63400  30.029  30.502   6.647
 5023POPC   C3A63401  30.051  30.593   7.081
 5023POPC   C4A63402  30.260  30.373   7.386
 5023POPC   C1B63403  29.854  31.168   6.293
 5023POPC   C2B63404  29.935  31.001   6.720
 5023POPC   C3B63405  29.679  30.944   7.096
 5023POPC   C4B63406  29.528  31.125   7.494
 5024POPC   NC363407  19.302   7.543   5.466
 5024POPC   PO463408  18.644   7.331   5.363
 5024POPC   GL163409  18.888   7.245   5.705
 5024POPC   GL263410  18.882   7.592   5.776
 5024POPC   C1A63411  18.899   7.223   6.141
 5024POPC   D2A63412  19.049   7.444   6.477
 5024POPC   C3A63413  18.857   7.429   6.875
 5024POPC   C4A63414  19.132   7.330   7.194
 5024POPC   C1B63415  19.150   7.806   6.076
 5024POPC   C2B63416  19.221   7.950   6.467
 5024POPC   C3B63417  19.209   7.800   6.846
 5024POPC   C4B63418  19.172   7.836   7.247
 5025POPC   NC363419  17.980  32.120   5.353
 5025POPC   PO463420  18.462  32.516   5.431
 5025POPC   GL163421  18.287  32.275   5.745
 5025POPC   GL263422  17.978  32.435   5.777
 5025POPC   C1A63423  18.368  32.273   6.160
 5025POPC   D2A63424  18.525  32.147   6.525
 5025POPC   C3A63425  18.235  32.175   6.852
 5025POPC   C4A63426  18.302  32.250   7.306
 5025POPC   C1B63427  18.124  32.706   6.106
 5025POPC   C2B63428  18.223  32.613   6.543
 5025POPC   C3B63429  18.147  32.646   6.997
 5025POPC   C4B63430  18.302  32.761   7.393
 5026POPC   NC363431   9.905  12.222   5.388
 5026POPC   PO463432   9.628  11.679   5.450
 5026POPC   GL163433   9.739  11.943   5.797
 5026POPC   GL263434  10.074  12.150   5.857
 5026POPC   C1A63435   9.607  11.915   6.218
 5026POPC   D2A63436   9.624  12.149   6.573
 5026POPC   C3A63437   9.456  11.970   6.915
 5026POPC   C4A63438   9.543  12.140   7.298
 5026POPC   C1B63439  10.098  11.826   6.132
 5026POPC   C2B63440  10.024  11.826   6.566
 5026POPC   C3B63441   9.980  12.036   6.969
 5026POPC   C4B63442  10.014  11.919   7.398
 5027POPC   NC363443  32.666  32.202   5.288
 5027POPC   PO463444  33.303  32.342   5.349
 5027POPC   GL163445  33.084  32.389   5.756
 5027POPC   GL263446  32.743  32.487   5.715
 5027POPC   C1A63447  33.006  32.226   6.179
 5027POPC   D2A63448  33.223  32.163   6.572
 5027POPC   C3A63449  33.009  32.150   6.952
 5027POPC   C4A63450  33.221  32.255   7.316
 5027POPC   C1B63451  32.675  32.644   6.151
 5027POPC   C2B63452  32.841  32.551   6.556
 5027POPC   C3B63453  32.754  32.693   6.947
 5027POPC   C4B63454  32.759  32.467   7.328
 5028POPC   NC363455   1.002  40.481   5.661
 5028POPC   PO463456   1.181  41.078   5.343
 5028POPC   GL163457   1.348  40.900   5.718
 5028POPC   GL263458   1.436  41.246   5.760
 5028POPC   C1A63459   1.435  40.680   6.116
 5028POPC   D2A63460   1.486  40.498   6.542
 5028POPC   C3A63461   1.198  40.662   6.826
 5028POPC   C4A63462   0.927  40.720   7.168
 5028POPC   C1B63463   1.183  41.209   6.095
 5028POPC   C2B63464   1.268  41.027   6.467
 5028POPC   C3B63465   1.224  41.161   6.870
 5028POPC   C4B63466   1.337  41.009   7.226
 5029POPC   NC363467   3.287  40.716   5.408
 5029POPC   PO463468   3.843  40.983   5.731
 5029POPC   GL163469   3.588  40.796   5.961
 5029POPC   GL263470   3.293  40.688   5.913
 5029POPC   C1A63471   3.671  40.668   6.350
 5029POPC   D2A63472   3.620  40.649   6.787
 5029POPC   C3A63473   3.507  40.942   7.070
 5029POPC   C4A63474   3.664  41.016   7.456
 5029POPC   C1B63475   3.107  40.629   6.317
 5029POPC   C2B63476   2.855  40.682   6.677
 5029POPC   C3B63477   3.150  40.558   6.941
 5029POPC   C4B63478   3.254  40.396   7.299
 5030POPC   NC363479  39.647  13.768   5.120
 5030POPC   PO463480  40.248  13.464   5.355
 5030POPC   GL163481  40.123  13.683   5.746
 5030POPC   GL263482  39.771  13.731   5.670
 5030POPC   C1A63483  40.022  13.531   6.169
 5030POPC   D2A63484  40.100  13.233   6.515
 5030POPC   C3A63485  40.018  13.459   6.895
 5030POPC   C4A63486  39.755  13.364   7.251
 5030POPC   C1B63487  39.801  13.976   6.036
 5030POPC   C2B63488  39.878  13.957   6.476
 5030POPC   C3B63489  39.668  13.885   6.886
 5030POPC   C4B63490  39.642  14.134   7.269
 5031POPC   NC363491   4.577   3.001   5.493
 5031POPC   PO463492   3.972   2.573   5.507
 5031POPC   GL163493   4.231   2.807   5.843
 5031POPC   GL263494   4.578   2.697   5.892
 5031POPC   C1A63495   4.355   3.030   6.242
 5031POPC   D2A63496   4.378   3.072   6.700
 5031POPC   C3A63497   4.164   2.798   6.944
 5031POPC   C4A63498   4.151   2.746   7.349
 5031POPC   C1B63499   4.698   2.595   6.288
 5031POPC   C2B63500   4.570   2.587   6.696
 5031POPC   C3B63501   4.659   2.827   7.072
 5031POPC   C4B63502   4.660   2.667   7.488
 5032POPC   NC363503  42.901   5.419   5.522
 5032POPC   PO463504  43.073   4.760   5.374
 5032POPC   GL163505  43.137   5.019   5.764
 5032POPC   GL263506  43.231   5.365   5.904
 5032POPC   C1A63507  43.303   4.923   6.190
 5032POPC   D2A63508  43.408   4.683   6.554
 5032POPC   C3A63509  43.142   4.782   6.910
 5032POPC   C4A63510  43.063   4.977   7.326
 5032POPC   C1B63511  43.055   5.495   6.286
 5032POPC   C2B63512  42.973   5.590   6.705
 5032POPC   C3B63513  43.122   5.455   7.081
 5032POPC   C4B63514  43.025   5.494   7.470
 5033POPC   NC363515  38.048  15.386   5.228
 5033POPC   PO463516  38.397  14.773   5.211
 5033POPC   GL163517  38.287  15.070   5.625
 5033POPC   GL263518  38.550  15.305   5.785
 5033POPC   C1A63519  38.215  15.126   6.115
 5033POPC   D2A63520  38.395  15.213   6.537
 5033POPC   C3A63521  38.183  15.114   6.922
 5033POPC   C4A63522  38.364  15.077   7.334
 5033POPC   C1B63523  38.720  15.559   6.199
 5033POPC   C2B63524  38.896  15.626   6.653
 5033POPC   C3B63525  38.974  15.529   7.131
 5033POPC   C4B63526  38.675  15.535   7.527
 5034POPC   NC363527   1.694   6.391   5.348
 5034POPC   PO463528   2.132   6.803   5.489
 5034POPC   GL163529   2.025   6.635   5.849
 5034POPC   GL263530   2.200   6.349   5.776
 5034POPC   C1A63531   1.950   6.724   6.266
 5034POPC   D2A63532   1.848   6.446   6.566
 5034POPC   C3A63533   1.913   6.567   6.955
 5034POPC   C4A63534   1.847   6.786   7.305
 5034POPC   C1B63535   2.458   6.235   6.138
 5034POPC   C2B63536   2.321   6.244   6.559
 5034POPC   C3B63537   2.407   6.387   6.976
 5034POPC   C4B63538   2.154   6.327   7.353
 5035POPC   NC363539  31.735  12.665   5.394
 5035POPC   PO463540  31.167  12.905   5.364
 5035POPC   GL163541  31.431  12.869   5.744
 5035POPC   GL263542  31.693  12.634   5.885
 5035POPC   C1A63543  31.562  13.109   6.063
 5035POPC   D2A63544  31.605  12.968   6.449
 5035POPC   C3A63545  31.569  13.173   6.799
 5035POPC   C4A63546  31.639  12.987   7.175
 5035POPC   C1B63547  31.545  12.508   6.258
 5035POPC   C2B63548  31.429  12.533   6.707
 5035POPC   C3B63549  31.480  12.480   7.187
 5035POPC   C4B63550  31.129  12.493   7.478
 5036POPC   NC363551  37.157  21.591   5.422
 5036POPC   PO463552  37.760  21.445   5.342
 5036POPC   GL163553  37.676  21.490   5.788
 5036POPC   GL263554  37.853  21.150   5.807
 5036POPC   C1A63555  37.419  21.464   6.215
 5036POPC   D2A63556  37.261  21.371   6.661
 5036POPC   C3A63557  37.483  21.516   7.037
 5036POPC   C4A63558  37.598  21.826   7.370
 5036POPC   C1B63559  37.904  21.311   6.233
 5036POPC   C2B63560  38.007  21.245   6.648
 5036POPC   C3B63561  38.032  21.091   7.055
 5036POPC   C4B63562  37.846  21.348   7.352
 5037POPC   NC363563  11.388  30.940   5.540
 5037POPC   PO463564  10.838  30.447   5.507
 5037POPC   GL163565  11.131  30.507   5.839
 5037POPC   GL263566  11.479  30.454   5.828
 5037POPC   C1A63567  11.194  30.659   6.245
 5037POPC   D2A63568  10.990  30.603   6.639
 5037POPC   C3A63569  11.249  30.769   6.957
 5037POPC   C4A63570  11.113  30.820   7.358
 5037POPC   C1B63571  11.710  30.557   6.198
 5037POPC   C2B63572  11.555  30.481   6.608
 5037POPC   C3B63573  11.735  30.363   6.992
 5037POPC   C4B63574  11.509  30.507   7.324
 5038POPC   NC363575   0.158  32.398   5.464
 5038POPC   PO463576   0.369  31.753   5.421
 5038POPC   GL163577   0.463  32.044   5.767
 5038POPC   GL263578   0.385  32.409   5.909
 5038POPC   C1A63579   0.513  32.011   6.206
 5038POPC   D2A63580   0.420  32.158   6.600
 5038POPC   C3A63581   0.718  32.090   6.918
 5038POPC   C4A63582   0.792  32.309   7.278
 5038POPC   C1B63583   0.168  32.691   6.225
 5038POPC   C2B63584   0.089  32.553   6.666
 5038POPC   C3B63585   0.254  32.326   7.058
 5038POPC   C4B63586   0.326  32.338   7.511
 5039POPC   NC363587  43.355  17.240   5.565
 5039POPC   PO463588  42.789  16.944   5.580
 5039POPC   GL163589  42.958  16.709   5.882
 5039POPC   GL263590  43.288  16.837   5.865
 5039POPC   C1A63591  43.107  16.694   6.311
 5039POPC   D2A63592  43.025  16.565   6.718
 5039POPC   C3A63593  43.004  16.776   7.077
 5039POPC   C4A63594  42.848  17.056   7.342
 5039POPC   C1B63595  43.456  17.051   6.236
 5039POPC   C2B63596  43.520  16.815   6.629
 5039POPC   C3B63597  43.663  16.930   7.026
 5039POPC   C4B63598  43.505  17.070   7.434
 5040POPC   NC363599  26.695  30.206   5.484
 5040POPC   PO463600  27.162  29.646   5.427
 5040POPC   GL163601  26.947  29.581   5.834
 5040POPC   GL263602  26.582  29.518   5.848
 5040POPC   C1A63603  26.896  29.749   6.250
 5040POPC   D2A63604  26.939  29.994   6.640
 5040POPC   C3A63605  27.005  29.862   7.067
 5040POPC   C4A63606  26.919  30.152   7.455
 5040POPC   C1B63607  26.405  29.683   6.239
 5040POPC   C2B63608  26.552  29.636   6.674
 5040POPC   C3B63609  26.581  29.588   7.121
 5040POPC   C4B63610  26.749  29.698   7.551
 5041POPC   NC363611   3.466  43.778   5.226
 5041POPC   PO463612   3.971  44.133   5.384
 5041POPC   GL163613   3.572  44.086   5.664
 5041POPC   GL263614   3.381  43.769   5.726
 5041POPC   C1A63615   3.516  44.076   6.138
 5041POPC   D2A63616   3.716  44.208   6.533
 5041POPC   C3A63617   3.670  43.954   6.912
 5041POPC   C4A63618   3.384  44.046   7.225
 5041POPC   C1B63619   3.238  43.635   6.136
 5041POPC   C2B63620   3.409  43.658   6.565
 5041POPC   C3B63621   3.271  43.571   6.995
 5041POPC   C4B63622   3.247  43.614   7.435
 5042POPC   NC363623  33.530   0.665   5.497
 5042POPC   PO463624  34.073   0.289   5.206
 5042POPC   GL163625  33.988   0.398   5.666
 5042POPC   GL263626  33.704   0.310   5.858
 5042POPC   C1A63627  34.009   0.615   6.096
 5042POPC   D2A63628  33.682   0.669   6.420
 5042POPC   C3A63629  33.734   0.626   6.871
 5042POPC   C4A63630  33.936   0.516   7.269
 5042POPC   C1B63631  33.448   0.218   6.230
 5042POPC   C2B63632  33.378   0.289   6.664
 5042POPC   C3B63633  33.529   0.196   7.062
 5042POPC   C4B63634  33.542   0.278   7.472
 5043POPC   NC363635  15.318   6.841   5.487
 5043POPC   PO463636  14.713   6.645   5.593
 5043POPC   GL163637  14.974   6.560   5.913
 5043POPC   GL263638  15.049   6.919   5.951
 5043POPC   C1A63639  15.131   6.549   6.339
 5043POPC   D2A63640  15.301   6.428   6.737
 5043POPC   C3A63641  15.082   6.554   7.079
 5043POPC   C4A63642  15.250   6.437   7.438
 5043POPC   C1B63643  15.482   6.892   6.117
 5043POPC   C2B63644  15.577   7.076   6.492
 5043POPC   C3B63645  15.451   6.910   6.893
 5043POPC   C4B63646  15.251   7.004   7.286
 5044POPC   NC363647  14.277  24.208   5.344
 5044POPC   PO463648  14.648  24.761   5.212
 5044POPC   GL163649  14.464  24.574   5.661
 5044POPC   GL263650  14.338  24.242   5.825
 5044POPC   C1A63651  14.336  24.625   6.137
 5044POPC   D2A63652  14.430  24.862   6.524
 5044POPC   C3A63653  14.383  24.661   6.929
 5044POPC   C4A63654  14.081  24.470   7.187
 5044POPC   C1B63655  14.464  24.084   6.188
 5044POPC   C2B63656  14.416  24.296   6.563
 5044POPC   C3B63657  14.421  24.130   6.961
 5044POPC   C4B63658  14.732  24.192   7.237
 5045POPC   NC363659   9.108  28.178   5.376
 5045POPC   PO463660   8.550  28.599   5.425
 5045POPC   GL163661   8.624  28.467   5.798
 5045POPC   GL263662   8.987  28.440   5.797
 5045POPC   C1A63663   8.709  28.684   6.139
 5045POPC   D2A63664   8.718  28.489   6.500
 5045POPC   C3A63665   8.755  28.623   6.877
 5045POPC   C4A63666   8.744  28.471   7.280
 5045POPC   C1B63667   9.182  28.515   6.203
 5045POPC   C2B63668   9.261  28.646   6.625
 5045POPC   C3B63669   9.206  28.472   7.046
 5045POPC   C4B63670   9.256  28.492   7.480
 5046POPC   NC363671   8.744  43.341   5.279
 5046POPC   PO463672   9.329  43.043   5.463
 5046POPC   GL163673   9.185  43.091   5.839
 5046POPC   GL263674   8.875  43.080   5.705
 5046POPC   C1A63675   9.172  43.205   6.288
 5046POPC   D2A63676   9.302  43.196   6.738
 5046POPC   C3A63677   9.044  43.255   7.139
 5046POPC   C4A63678   8.900  43.173   7.568
 5046POPC   C1B63679   8.717  43.023   6.091
 5046POPC   C2B63680   8.623  43.201   6.456
 5046POPC   C3B63681   8.682  43.048   6.836
 5046POPC   C4B63682   8.529  43.032   7.225
 5047POPC   NC363683  40.810  42.642   5.291
 5047POPC   PO463684  40.653  43.316   5.344
 5047POPC   GL163685  40.699  43.009   5.673
 5047POPC   GL263686  40.809  43.311   5.854
 5047POPC   C1A63687  40.604  42.930   6.141
 5047POPC   D2A63688  40.619  43.135   6.576
 5047POPC   C3A63689  40.584  42.950   6.978
 5047POPC   C4A63690  40.657  42.944   7.438
 5047POPC   C1B63691  40.990  43.304   6.269
 5047POPC   C2B63692  41.117  43.378   6.706
 5047POPC   C3B63693  40.906  43.362   7.129
 5047POPC   C4B63694  40.978  43.330   7.585
 5048POPC   NC363695  34.408  30.817   5.311
 5048POPC   PO463696  34.930  30.341   5.446
 5048POPC   GL163697  34.633  30.566   5.727
 5048POPC   GL263698  34.308  30.402   5.722
 5048POPC   C1A63699  34.629  30.798   6.125
 5048POPC   D2A63700  34.492  30.695   6.556
 5048POPC   C3A63701  34.685  30.923   6.904
 5048POPC   C4A63702  34.759  30.840   7.343
 5048POPC   C1B63703  34.125  30.629   6.078
 5048POPC   C2B63704  33.986  30.752   6.497
 5048POPC   C3B63705  34.120  30.636   6.924
 5048POPC   C4B63706  34.277  30.910   7.235
 5049POPC   NC363707  27.218  23.807   5.341
 5049POPC   PO463708  27.899  23.683   5.362
 5049POPC   GL163709  27.622  23.836   5.674
 5049POPC   GL263710  27.447  23.517   5.716
 5049POPC   C1A63711  27.641  23.935   6.113
 5049POPC   D2A63712  27.424  23.769   6.478
 5049POPC   C3A63713  27.666  23.812   6.859
 5049POPC   C4A63714  27.408  23.946   7.190
 5049POPC   C1B63715  27.581  23.420   6.131
 5049POPC   C2B63716  27.464  23.262   6.522
 5049POPC   C3B63717  27.303  23.442   6.880
 5049POPC   C4B63718  27.305  23.450   7.291
 5050POPC   NC363719  37.479  38.663   5.086
 5050POPC   PO463720  37.967  38.314   5.266
 5050POPC   GL163721  37.770  38.416   5.665
 5050POPC   GL263722  38.002  38.194   5.803
 5050POPC   C1A63723  37.616  38.519   6.117
 5050POPC   D2A63724  37.234  38.548   6.408
 5050POPC   C3A63725  37.302  38.592   6.875
 5050POPC   C4A63726  37.369  38.562   7.327
 5050POPC   C1B63727  37.970  38.134   6.236
 5050POPC   C2B63728  37.726  38.318   6.618
 5050POPC   C3B63729  37.800  38.485   7.049
 5050POPC   C4B63730  37.862  38.254   7.457
 5051POPC   NC363731   3.876  24.681   5.382
 5051POPC   PO463732   3.813  24.042   5.194
 5051POPC   GL163733   3.767  24.147   5.651
 5051POPC   GL263734   3.536  24.411   5.712
 5051POPC   C1A63735   3.730  24.150   6.121
 5051POPC   D2A63736   3.677  24.435   6.503
 5051POPC   C3A63737   3.651  24.271   6.944
 5051POPC   C4A63738   3.895  24.358   7.318
 5051POPC   C1B63739   3.415  24.699   6.063
 5051POPC   C2B63740   3.177  24.683   6.454
 5051POPC   C3B63741   3.365  24.696   6.861
 5051POPC   C4B63742   3.387  24.550   7.289
 5052POPC   NC363743  42.868   1.731   5.257
 5052POPC   PO463744  43.266   2.197   5.501
 5052POPC   GL163745  43.222   1.911   5.819
 5052POPC   GL263746  42.863   1.946   5.773
 5052POPC   C1A63747  43.198   1.999   6.254
 5052POPC   D2A63748  42.902   2.105   6.565
 5052POPC   C3A63749  43.175   2.122   6.881
 5052POPC   C4A63750  43.226   2.266   7.282
 5052POPC   C1B63751  42.860   1.642   6.127
 5052POPC   C2B63752  43.004   1.623   6.570
 5052POPC   C3B63753  42.886   1.734   7.024
 5052POPC   C4B63754  42.939   1.609   7.461
 5053POPC   NC363755  29.393  11.975   5.327
 5053POPC   PO463756  28.837  12.453   5.432
 5053POPC   GL163757  29.074  12.312   5.827
 5053POPC   GL263758  29.313  12.055   5.822
 5053POPC   C1A63759  29.029  12.124   6.261
 5053POPC   D2A63760  29.082  11.864   6.639
 5053POPC   C3A63761  29.194  12.091   7.022
 5053POPC   C4A63762  29.060  12.098   7.455
 5053POPC   C1B63763  29.535  12.113   6.213
 5053POPC   C2B63764  29.591  11.992   6.639
 5053POPC   C3B63765  29.458  11.642   6.896
 5053POPC   C4B63766  29.280  11.668   7.286
 5054POPC   NC363767  30.698  25.453   5.095
 5054POPC   PO463768  31.005  25.059   5.500
 5054POPC   GL163769  30.656  25.340   5.650
 5054POPC   GL263770  30.355  25.229   5.840
 5054POPC   C1A63771  30.718  25.474   6.105
 5054POPC   D2A63772  30.692  25.337   6.528
 5054POPC   C3A63773  30.820  25.458   6.927
 5054POPC   C4A63774  30.716  25.313   7.348
 5054POPC   C1B63775  30.207  25.483   6.191
 5054POPC   C2B63776  30.278  25.645   6.602
 5054POPC   C3B63777  30.303  25.382   6.970
 5054POPC   C4B63778  30.249  25.139   7.338
 5055POPC   NC363779  38.261  33.047   5.522
 5055POPC   PO463780  38.909  32.900   5.321
 5055POPC   GL163781  38.689  32.902   5.753
 5055POPC   GL263782  38.612  33.252   5.884
 5055POPC   C1A63783  38.417  32.847   6.129
 5055POPC   D2A63784  38.401  32.975   6.550
 5055POPC   C3A63785  38.132  32.901   6.899
 5055POPC   C4A63786  38.455  33.025   7.195
 5055POPC   C1B63787  38.211  33.320   6.147
 5055POPC   C2B63788  37.999  33.344   6.549
 5055POPC   C3B63789  37.974  33.381   7.001
 5055POPC   C4B63790  38.253  33.470   7.325
 5056POPC   NC363791  30.266   5.413   5.624
 5056POPC   PO463792  29.686   5.125   5.327
 5056POPC   GL163793  29.779   5.270   5.740
 5056POPC   GL263794  29.985   5.039   5.937
 5056POPC   C1A63795  29.765   5.423   6.173
 5056POPC   D2A63796  29.755   5.182   6.554
 5056POPC   C3A63797  30.043   5.351   6.843
 5056POPC   C4A63798  30.047   5.350   7.280
 5056POPC   C1B63799  29.844   4.734   6.266
 5056POPC   C2B63800  29.934   4.727   6.711
 5056POPC   C3B63801  30.113   4.874   7.088
 5056POPC   C4B63802  29.978   4.824   7.517
 5057POPC   NC363803  26.862  21.761   5.343
 5057POPC   PO463804  26.581  21.098   5.432
 5057POPC   GL163805  26.819  21.289   5.726
 5057POPC   GL263806  26.729  21.620   5.810
 5057POPC   C1A63807  26.856  21.256   6.163
 5057POPC   D2A63808  27.060  21.385   6.546
 5057POPC   C3A63809  26.823  21.282   6.888
 5057POPC   C4A63810  26.873  21.134   7.276
 5057POPC   C1B63811  26.679  21.731   6.252
 5057POPC   C2B63812  26.553  21.671   6.652
 5057POPC   C3B63813  26.479  21.834   7.041
 5057POPC   C4B63814  26.627  21.577   7.321
 5058POPC   NC363815  13.363  38.055   5.194
 5058POPC   PO463816  13.925  37.814   5.339
 5058POPC   GL163817  13.772  37.966   5.742
 5058POPC   GL263818  13.423  38.111   5.740
 5058POPC   C1A63819  13.812  37.846   6.211
 5058POPC   D2A63820  13.744  37.568   6.575
 5058POPC   C3A63821  13.753  37.605   7.036
 5058POPC   C4A63822  13.699  37.237   7.334
 5058POPC   C1B63823  13.315  38.020   6.188
 5058POPC   C2B63824  13.212  37.635   6.467
 5058POPC   C3B63825  13.239  37.632   6.932
 5058POPC   C4B63826  13.345  38.068   7.065
 5059POPC   NC363827  38.045  36.805   5.667
 5059POPC   PO463828  37.840  37.324   5.316
 5059POPC   GL163829  37.756  37.210   5.811
 5059POPC   GL263830  37.527  36.916   5.890
 5059POPC   C1A63831  37.839  37.013   6.266
 5059POPC   D2A63832  37.513  36.925   6.578
 5059POPC   C3A63833  37.692  37.042   6.962
 5059POPC   C4A63834  37.474  37.163   7.333
 5059POPC   C1B63835  37.587  36.582   6.197
 5059POPC   C2B63836  37.804  36.521   6.575
 5059POPC   C3B63837  37.633  36.536   6.953
 5059POPC   C4B63838  37.392  36.420   7.263
 5060POPC   NC363839   1.556  23.872   5.301
 5060POPC   PO463840   2.222  23.553   5.350
 5060POPC   GL163841   2.338  23.664   5.769
 5060POPC   GL263842   2.510  23.359   5.815
 5060POPC   C1A63843   2.157  23.850   6.156
 5060POPC   D2A63844   1.814  23.868   6.457
 5060POPC   C3A63845   1.933  23.771   6.862
 5060POPC   C4A63846   1.820  23.949   7.227
 5060POPC   C1B63847   2.224  23.304   6.173
 5060POPC   C2B63848   1.939  23.341   6.537
 5060POPC   C3B63849   2.029  23.295   6.987
 5060POPC   C4B63850   2.270  23.190   7.354
 5061POPC   NC363851   0.628  14.378   4.955
 5061POPC   PO463852   0.084  14.420   5.401
 5061POPC   GL163853   0.342  14.600   5.769
 5061POPC   GL263854   0.621  14.806   5.643
 5061POPC   C1A63855   0.535  14.384   6.170
 5061POPC   D2A63856   0.308  14.259   6.562
 5061POPC   C3A63857   0.459  14.169   6.996
 5061POPC   C4A63858   0.477  14.151   7.470
 5061POPC   C1B63859   0.622  14.898   6.096
 5061POPC   C2B63860   0.446  14.769   6.499
 5061POPC   C3B63861   0.615  14.831   6.899
 5061POPC   C4B63862   0.610  14.584   7.262
 5062POPC   NC363863  28.678   3.635   5.398
 5062POPC   PO463864  28.139   3.249   5.385
 5062POPC   GL163865  28.275   3.438   5.778
 5062POPC   GL263866  28.296   3.805   5.722
 5062POPC   C1A63867  28.479   3.282   6.180
 5062POPC   D2A63868  28.584   3.313   6.620
 5062POPC   C3A63869  28.428   3.531   6.979
 5062POPC   C4A63870  28.381   3.450   7.402
 5062POPC   C1B63871  28.522   3.797   6.134
 5062POPC   C2B63872  28.408   3.841   6.568
 5062POPC   C3B63873  28.305   4.013   7.009
 5062POPC   C4B63874  28.577   3.989   7.358
 5063POPC   NC363875  28.162   2.780   5.348
 5063POPC   PO463876  28.796   2.619   5.410
 5063POPC   GL163877  28.485   2.596   5.766
 5063POPC   GL263878  28.297   2.914   5.819
 5063POPC   C1A63879  28.416   2.542   6.225
 5063POPC   D2A63880  28.245   2.670   6.632
 5063POPC   C3A63881  28.511   2.605   7.003
 5063POPC   C4A63882  28.401   2.428   7.439
 5063POPC   C1B63883  28.093   2.944   6.203
 5063POPC   C2B63884  28.073   3.151   6.595
 5063POPC   C3B63885  28.285   3.053   6.984
 5063POPC   C4B63886  28.693   3.074   7.216
 5064POPC   NC363887  11.291  43.509   5.067
 5064POPC   PO463888  11.299  44.067   5.381
 5064POPC   GL163889  11.223  43.884   5.779
 5064POPC   GL263890  11.521  43.695   5.927
 5064POPC   C1A63891  11.257  44.059   6.190
 5064POPC   D2A63892  11.382  44.193   6.595
 5064POPC   C3A63893  11.138  44.066   6.942
 5064POPC   C4A63894  11.208  43.926   7.346
 5064POPC   C1B63895  11.169  43.538   6.180
 5064POPC   C2B63896  11.235  43.685   6.579
 5064POPC   C3B63897  11.409  43.647   6.965
 5064POPC   C4B63898  11.093  43.419   7.158
 5065POPC   NC363899  32.102  24.572   5.090
 5065POPC   PO463900  32.437  24.090   5.513
 5065POPC   GL163901  32.247  24.358   5.830
 5065POPC   GL263902  32.284  24.753   5.831
 5065POPC   C1A63903  32.411  24.475   6.235
 5065POPC   D2A63904  32.486  24.620   6.621
 5065POPC   C3A63905  32.446  24.406   7.004
 5065POPC   C4A63906  32.080  24.471   7.204
 5065POPC   C1B63907  32.485  25.010   6.193
 5065POPC   C2B63908  32.508  25.113   6.636
 5065POPC   C3B63909  32.305  24.928   7.012
 5065POPC   C4B63910  32.365  24.832   7.455
 5066POPC   NC363911  39.783  42.331   5.424
 5066POPC   PO463912  40.398  42.575   5.496
 5066POPC   GL163913  40.103  42.489   5.788
 5066POPC   GL263914  39.982  42.169   5.889
 5066POPC   C1A63915  40.245  42.509   6.194
 5066POPC   D2A63916  40.177  42.318   6.588
 5066POPC   C3A63917  40.191  42.636   6.854
 5066POPC   C4A63918  40.194  42.777   7.241
 5066POPC   C1B63919  39.778  42.320   6.240
 5066POPC   C2B63920  39.657  42.292   6.659
 5066POPC   C3B63921  39.803  42.350   7.070
 5066POPC   C4B63922  40.182  42.257   7.198
 5067POPC   NC363923  41.811   0.601   5.486
 5067POPC   PO463924  41.171   0.440   5.409
 5067POPC   GL163925  41.418   0.415   5.789
 5067POPC   GL263926  41.750   0.167   5.721
 5067POPC   C1A63927  41.321   0.471   6.288
 5067POPC   D2A63928  41.489   0.513   6.739
 5067POPC   C3A63929  41.291   0.543   7.183
 5067POPC   C4A63930  41.283   0.790   7.617
 5067POPC   C1B63931  41.807   0.390   6.116
 5067POPC   C2B63932  41.859   0.224   6.500
 5067POPC   C3B63933  41.819   0.129   6.891
 5067POPC   C4B63934  41.890   0.396   7.227
 5068POPC   NC363935  11.582  10.553   5.143
 5068POPC   PO463936  11.078  10.836   5.531
 5068POPC   GL163937  11.326  10.536   5.818
 5068POPC   GL263938  11.665  10.556   5.689
 5068POPC   C1A63939  11.320  10.313   6.239
 5068POPC   D2A63940  11.322  10.176   6.653
 5068POPC   C3A63941  11.270  10.456   6.991
 5068POPC   C4A63942  11.477  10.274   7.319
 5068POPC   C1B63943  11.783  10.368   6.066
 5068POPC   C2B63944  11.821  10.276   6.503
 5068POPC   C3B63945  11.778  10.486   6.899
 5068POPC   C4B63946  11.785  10.706   7.298
 5069POPC   NC363947  42.195  44.697   5.281
 5069POPC   PO463948  42.808  44.860   5.367
 5069POPC   GL163949  42.533  44.841   5.714
 5069POPC   GL263950  42.167  44.835   5.765
 5069POPC   C1A63951  42.550  44.849   6.155
 5069POPC   D2A63952  42.622  44.814   6.586
 5069POPC   C3A63953  42.450  44.427   6.702
 5069POPC   C4A63954  42.292  44.373   7.129
 5069POPC   C1B63955  41.949  44.870   6.137
 5069POPC   C2B63956  42.000  44.720   6.555
 5069POPC   C3B63957  42.231  44.844   6.920
 5069POPC   C4B63958  42.244   0.014   7.334
 5070POPC   NC363959   1.738  19.613   5.380
 5070POPC   PO463960   2.231  20.139   5.315
 5070POPC   GL163961   2.105  19.966   5.747
 5070POPC   GL263962   1.977  19.619   5.816
 5070POPC   C1A63963   2.228  19.830   6.197
 5070POPC   D2A63964   2.381  19.745   6.598
 5070POPC   C3A63965   2.147  19.983   6.927
 5070POPC   C4A63966   2.161  19.865   7.364
 5070POPC   C1B63967   1.723  19.673   6.210
 5070POPC   C2B63968   1.872  19.624   6.648
 5070POPC   C3B63969   1.793  19.646   7.095
 5070POPC   C4B63970   1.615  19.534   7.465
 5071POPC   NC363971  15.094  13.396   5.379
 5071POPC   PO463972  15.195  14.015   5.403
 5071POPC   GL163973  15.053  13.774   5.729
 5071POPC   GL263974  15.346  13.606   5.794
 5071POPC   C1A63975  14.961  13.534   6.122
 5071POPC   D2A63976  14.902  13.762   6.516
 5071POPC   C3A63977  15.054  13.572   6.895
 5071POPC   C4A63978  14.923  13.367   7.296
 5071POPC   C1B63979  15.304  13.931   6.146
 5071POPC   C2B63980  15.416  13.842   6.560
 5071POPC   C3B63981  15.609  13.549   6.827
 5071POPC   C4B63982  15.438  13.587   7.225
 5072POPC   NC363983  10.195  28.172   5.508
 5072POPC   PO463984   9.536  28.410   5.396
 5072POPC   GL163985   9.764  28.368   5.778
 5072POPC   GL263986  10.035  28.602   5.788
 5072POPC   C1A63987   9.690  28.444   6.228
 5072POPC   D2A63988   9.862  28.614   6.595
 5072POPC   C3A63989   9.702  28.508   6.972
 5072POPC   C4A63990   9.556  28.126   7.189
 5072POPC   C1B63991  10.197  28.510   6.221
 5072POPC   C2B63992  10.277  28.326   6.624
 5072POPC   C3B63993  10.210  28.597   6.980
 5072POPC   C4B63994  10.128  28.849   7.294
 5073POPC   NC363995  25.325  34.856   5.062
 5073POPC   PO463996  25.236  34.959   5.703
 5073POPC   GL163997  25.216  34.554   5.914
 5073POPC   GL263998  25.494  34.321   5.929
 5073POPC   C1A63999  25.148  34.524   6.349
 5073POPC   D2A64000  25.020  34.729   6.730
 5073POPC   C3A64001  25.254  34.567   7.089
 5073POPC   C4A64002  25.545  34.233   7.050
 5073POPC   C1B64003  25.626  34.668   6.225
 5073POPC   C2B64004  25.614  34.648   6.685
 5073POPC   C3B64005  25.736  34.734   7.117
 5073POPC   C4B64006  25.603  34.561   7.500
 5074POPC   NC364007   1.021  39.333   5.455
 5074POPC   PO464008   1.661  39.361   5.424
 5074POPC   GL164009   1.383  39.510   5.831
 5074POPC   GL264010   1.091  39.284   5.939
 5074POPC   C1A64011   1.213  39.645   6.299
 5074POPC   D2A64012   1.132  39.680   6.792
 5074POPC   C3A64013   1.240  39.350   7.106
 5074POPC   C4A64014   1.312  38.913   7.311
 5074POPC   C1B64015   0.768  39.407   6.197
 5074POPC   C2B64016   0.867  39.286   6.606
 5074POPC   C3B64017   0.998  38.959   6.896
 5074POPC   C4B64018   0.742  38.823   7.231
 5075POPC   NC364019   3.410  20.195   5.534
 5075POPC   PO464020   3.763  19.597   5.340
 5075POPC   GL164021   3.802  19.587   5.797
 5075POPC   GL264022   3.456  19.661   5.859
 5075POPC   C1A64023   3.747  19.673   6.278
 5075POPC   D2A64024   3.838  19.833   6.699
 5075POPC   C3A64025   3.657  20.088   7.048
 5075POPC   C4A64026   3.503  19.911   7.476
 5075POPC   C1B64027   3.300  19.943   6.200
 5075POPC   C2B64028   3.324  20.053   6.640
 5075POPC   C3B64029   3.273  19.771   7.006
 5075POPC   C4B64030   3.035  19.734   7.346
 5076POPC   NC364031  35.987  14.791   5.333
 5076POPC   PO464032  35.981  14.037   5.403
 5076POPC   GL164033  36.126  14.177   5.801
 5076POPC   GL264034  36.060  14.526   5.833
 5076POPC   C1A64035  36.313  14.302   6.226
 5076POPC   D2A64036  36.204  14.202   6.653
 5076POPC   C3A64037  36.362  14.296   7.077
 5076POPC   C4A64038  36.199  14.216   7.521
 5076POPC   C1B64039  35.892  14.661   6.254
 5076POPC   C2B64040  35.722  14.689   6.638
 5076POPC   C3B64041  35.883  14.458   6.960
 5076POPC   C4B64042  35.882  14.549   7.344
 5077POPC   NC364043   7.127   2.931   5.370
 5077POPC   PO464044   6.529   2.708   5.141
 5077POPC   GL164045   6.623   2.771   5.647
 5077POPC   GL264046   6.795   3.057   5.742
 5077POPC   C1A64047   6.512   2.757   6.119
 5077POPC   D2A64048   6.387   2.481   6.507
 5077POPC   C3A64049   6.456   2.435   6.963
 5077POPC   C4A64050   6.739   2.665   7.204
 5077POPC   C1B64051   6.884   3.123   6.171
 5077POPC   C2B64052   6.702   2.977   6.551
 5077POPC   C3B64053   6.881   3.053   6.924
 5077POPC   C4B64054   6.845   3.181   7.312
 5078POPC   NC364055  19.508   3.215   5.380
 5078POPC   PO464056  18.925   3.173   5.452
 5078POPC   GL164057  19.168   3.450   5.772
 5078POPC   GL264058  18.877   3.374   5.981
 5078POPC   C1A64059  19.260   3.609   6.230
 5078POPC   D2A64060  18.992   3.525   6.596
 5078POPC   C3A64061  19.082   3.507   7.057
 5078POPC   C4A64062  19.441   3.513   7.369
 5078POPC   C1B64063  18.796   3.800   6.158
 5078POPC   C2B64064  18.963   4.030   6.506
 5078POPC   C3B64065  18.789   3.903   6.901
 5078POPC   C4B64066  18.580   3.667   7.256
 5079POPC   NC364067  13.244  13.803   5.485
 5079POPC   PO464068  13.898  13.651   5.511
 5079POPC   GL164069  13.614  13.717   5.832
 5079POPC   GL264070  13.439  13.394   5.836
 5079POPC   C1A64071  13.611  13.939   6.217
 5079POPC   D2A64072  13.893  13.951   6.511
 5079POPC   C3A64073  13.703  13.909   6.904
 5079POPC   C4A64074  13.861  13.723   7.261
 5079POPC   C1B64075  13.628  13.423   6.251
 5079POPC   C2B64076  13.792  13.466   6.648
 5079POPC   C3B64077  13.614  13.328   7.011
 5079POPC   C4B64078  13.516  13.009   7.284
 5080POPC   NC364079  18.037  11.947   5.308
 5080POPC   PO464080  18.520  12.500   5.213
 5080POPC   GL164081  18.459  12.333   5.652
 5080POPC   GL264082  18.522  11.966   5.777
 5080POPC   C1A64083  18.146  12.287   5.992
 5080POPC   D2A64084  18.027  12.336   6.444
 5080POPC   C3A64085  18.192  12.103   6.799
 5080POPC   C4A64086  18.253  12.162   7.248
 5080POPC   C1B64087  18.236  11.814   6.151
 5080POPC   C2B64088  18.186  11.616   6.576
 5080POPC   C3B64089  18.262  11.661   7.035
 5080POPC   C4B64090  18.265  11.702   7.494
 5081POPC   NC364091  34.670  19.367   5.472
 5081POPC   PO464092  34.483  18.671   5.540
 5081POPC   GL164093  34.684  19.015   5.851
 5081POPC   GL264094  34.822  19.412   5.940
 5081POPC   C1A64095  34.770  19.049   6.301
 5081POPC   D2A64096  34.676  18.882   6.681
 5081POPC   C3A64097  34.880  18.981   7.057
 5081POPC   C4A64098  34.578  19.024   7.394
 5081POPC   C1B64099  34.500  19.477   6.253
 5081POPC   C2B64100  34.569  19.384   6.696
 5081POPC   C3B64101  34.578  19.455   7.137
 5081POPC   C4B64102  34.819  19.444   7.567
 5082POPC   NC364103  38.173  31.263   5.582
 5082POPC   PO464104  38.798  31.118   5.448
 5082POPC   GL164105  38.624  31.283   5.839
 5082POPC   GL264106  38.475  31.629   5.767
 5082POPC   C1A64107  38.758  31.524   6.196
 5082POPC   D2A64108  38.781  31.676   6.602
 5082POPC   C3A64109  38.677  31.366   6.941
 5082POPC   C4A64110  38.651  31.273   7.414
 5082POPC   C1B64111  38.231  31.521   6.159
 5082POPC   C2B64112  38.309  31.473   6.563
 5082POPC   C3B64113  38.039  31.532   6.894
 5082POPC   C4B64114  38.199  31.407   7.267
 5083POPC   NC364115  16.776   7.165   5.460
 5083POPC   PO464116  17.125   7.683   5.439
 5083POPC   GL164117  16.914   7.783   5.837
 5083POPC   GL264118  16.655   7.525   5.835
 5083POPC   C1A64119  16.741   7.795   6.258
 5083POPC   D2A64120  16.899   7.416   6.446
 5083POPC   C3A64121  16.841   7.408   6.853
 5083POPC   C4A64122  16.836   7.312   7.259
 5083POPC   C1B64123  16.425   7.375   6.225
 5083POPC   C2B64124  16.344   7.429   6.668
 5083POPC   C3B64125  16.398   7.136   7.024
 5083POPC   C4B64126  16.392   7.176   7.490
 5084POPC   NC364127  27.904  28.274   5.150
 5084POPC   PO464128  27.376  28.305   5.601
 5084POPC   GL164129  27.529  28.350   5.957
 5084POPC   GL264130  27.797  28.124   5.868
 5084POPC   C1A64131  27.488  28.567   6.341
 5084POPC   D2A64132  27.741  28.677   6.671
 5084POPC   C3A64133  27.588  28.500   7.064
 5084POPC   C4A64134  27.386  28.119   7.231
 5084POPC   C1B64135  27.659  27.948   6.249
 5084POPC   C2B64136  27.674  28.142   6.637
 5084POPC   C3B64137  27.811  27.966   6.999
 5084POPC   C4B64138  27.915  28.178   7.328
 5085POPC   NC364139  43.913  34.936   5.419
 5085POPC   PO464140  44.278  34.299   5.450
 5085POPC   GL164141  44.026  34.373   5.852
 5085POPC   GL264142  43.809  34.694   5.869
 5085POPC   C1A64143  44.025  34.502   6.274
 5085POPC   D2A64144  44.132  34.784   6.576
 5085POPC   C3A64145  44.089  34.600   6.939
 5085POPC   C4A64146  44.221  34.622   7.334
 5085POPC   C1B64147  43.739  34.925   6.272
 5085POPC   C2B64148  43.634  34.766   6.696
 5085POPC   C3B64149  43.619  34.664   7.141
 5085POPC   C4B64150  43.791  34.722   7.574
 5086POPC   NC364151  27.437  13.191   5.159
 5086POPC   PO464152  27.975  12.944   5.554
 5086POPC   GL164153  27.585  12.996   5.766
 5086POPC   GL264154  27.508  12.654   5.802
 5086POPC   C1A64155  27.367  13.034   6.205
 5086POPC   D2A64156  27.412  13.218   6.635
 5086POPC   C3A64157  27.567  13.014   7.042
 5086POPC   C4A64158  27.815  12.774   7.386
 5086POPC   C1B64159  27.715  12.672   6.229
 5086POPC   C2B64160  27.520  12.704   6.626
 5086POPC   C3B64161  27.555  12.512   7.019
 5086POPC   C4B64162  27.370  12.500   7.430
 5087POPC   NC364163  29.319  39.613   5.202
 5087POPC   PO464164  29.323  38.986   5.329
 5087POPC   GL164165  29.147  39.091   5.757
 5087POPC   GL264166  29.025  39.443   5.718
 5087POPC   C1A64167  29.207  38.978   6.200
 5087POPC   D2A64168  29.336  39.198   6.553
 5087POPC   C3A64169  29.146  39.107   6.919
 5087POPC   C4A64170  29.335  39.056   7.296
 5087POPC   C1B64171  29.281  39.480   6.108
 5087POPC   C2B64172  29.235  39.695   6.505
 5087POPC   C3B64173  29.161  39.721   6.922
 5087POPC   C4B64174  28.956  39.481   7.206
 5088POPC   NC364175  38.197  41.777   5.463
 5088POPC   PO464176  38.723  41.329   5.431
 5088POPC   GL164177  38.479  41.468   5.773
 5088POPC   GL264178  38.643  41.746   5.877
 5088POPC   C1A64179  38.287  41.547   6.191
 5088POPC   D2A64180  38.126  41.746   6.560
 5088POPC   C3A64181  38.217  41.507   6.903
 5088POPC   C4A64182  38.342  41.326   7.284
 5088POPC   C1B64183  38.585  41.962   6.289
 5088POPC   C2B64184  38.852  42.132   6.592
 5088POPC   C3B64185  38.901  41.921   6.949
 5088POPC   C4B64186  38.580  41.744   7.169
 5089POPC   NC364187  18.386  29.395   5.481
 5089POPC   PO464188  18.228  29.971   5.375
 5089POPC   GL164189  18.225  29.837   5.805
 5089POPC   GL264190  18.538  29.953   5.973
 5089POPC   C1A64191  18.152  29.757   6.250
 5089POPC   D2A64192  18.340  29.964   6.615
 5089POPC   C3A64193  18.203  29.818   7.029
 5089POPC   C4A64194  18.399  29.655   7.411
 5089POPC   C1B64195  18.654  30.262   6.332
 5089POPC   C2B64196  18.692  30.283   6.801
 5089POPC   C3B64197  18.656  30.050   7.180
 5089POPC   C4B64198  18.844  29.913   7.580
 5090POPC   NC364199  26.704  17.316   5.225
 5090POPC   PO464200  26.154  17.250   5.484
 5090POPC   GL164201  26.490  17.282   5.801
 5090POPC   GL264202  26.853  17.293   5.714
 5090POPC   C1A64203  26.674  17.313   6.245
 5090POPC   D2A64204  26.733  17.557   6.631
 5090POPC   C3A64205  26.560  17.424   7.027
 5090POPC   C4A64206  26.610  17.380   7.466
 5090POPC   C1B64207  27.078  17.080   6.038
 5090POPC   C2B64208  27.085  16.983   6.482
 5090POPC   C3B64209  27.032  17.201   6.855
 5090POPC   C4B64210  27.056  17.292   7.272
 5091POPC   NC364211  10.679  38.919   5.053
 5091POPC   PO464212  10.264  39.367   5.425
 5091POPC   GL164213  10.468  39.174   5.775
 5091POPC   GL264214  10.803  39.072   5.672
 5091POPC   C1A64215  10.428  39.383   6.191
 5091POPC   D2A64216  10.265  39.621   6.567
 5091POPC   C3A64217  10.220  39.336   6.917
 5091POPC   C4A64218  10.395  39.236   7.308
 5091POPC   C1B64219  10.888  39.153   6.132
 5091POPC   C2B64220  10.697  39.113   6.542
 5091POPC   C3B64221  10.756  39.322   6.927
 5091POPC   C4B64222  10.926  39.181   7.305
 5092POPC   NC364223  24.128   1.237   5.070
 5092POPC   PO464224  24.643   1.220   5.515
 5092POPC   GL164225  24.492   1.196   5.877
 5092POPC   GL264226  24.320   0.892   5.862
 5092POPC   C1A64227  24.582   1.428   6.245
 5092POPC   D2A64228  24.456   1.444   6.652
 5092POPC   C3A64229  24.694   1.305   7.014
 5092POPC   C4A64230  24.515   1.505   7.366
 5092POPC   C1B64231  24.221   1.029   6.262
 5092POPC   C2B64232  24.520   0.969   6.551
 5092POPC   C3B64233  24.446   0.859   6.942
 5092POPC   C4B64234  24.455   0.963   7.368
 5093POPC   NC364235  28.341  41.484   5.604
 5093POPC   PO464236  28.902  41.624   5.263
 5093POPC   GL164237  29.037  41.589   5.725
 5093POPC   GL264238  28.833  41.307   5.886
 5093POPC   C1A64239  29.258  41.539   6.130
 5093POPC   D2A64240  29.256  41.646   6.585
 5093POPC   C3A64241  29.154  41.363   6.892
 5093POPC   C4A64242  29.291  41.409   7.295
 5093POPC   C1B64243  28.739  41.683   6.146
 5093POPC   C2B64244  28.740  41.797   6.569
 5093POPC   C3B64245  28.660  41.595   6.921
 5093POPC   C4B64246  28.791  41.399   7.265
 5094POPC   NC364247  28.822  36.306   5.264
 5094POPC   PO464248  28.094  36.115   5.377
 5094POPC   GL164249  28.239  36.078   5.825
 5094POPC   GL264250  28.475  36.360   5.940
 5094POPC   C1A64251  28.375  35.984   6.272
 5094POPC   D2A64252  28.482  36.172   6.695
 5094POPC   C3A64253  28.391  35.932   7.119
 5094POPC   C4A64254  28.483  35.979   7.566
 5094POPC   C1B64255  28.096  36.436   6.215
 5094POPC   C2B64256  28.054  36.526   6.650
 5094POPC   C3B64257  28.170  36.384   7.044
 5094POPC   C4B64258  28.108  36.303   7.490
 5095POPC   NC364259  20.097  20.793   5.624
 5095POPC   PO464260  20.555  20.548   5.191
 5095POPC   GL164261  20.588  20.582   5.678
 5095POPC   GL264262  20.488  20.308   5.888
 5095POPC   C1A64263  20.551  20.778   6.149
 5095POPC   D2A64264  20.664  20.983   6.578
 5095POPC   C3A64265  20.575  20.874   7.035
 5095POPC   C4A64266  20.791  20.694   7.394
 5095POPC   C1B64267  20.684  20.311   6.318
 5095POPC   C2B64268  20.683  20.464   6.742
 5095POPC   C3B64269  20.513  20.340   7.154
 5095POPC   C4B64270  20.638  19.961   7.409
 5096POPC   NC364271  25.895  40.628   5.387
 5096POPC   PO464272  26.232  41.174   5.383
 5096POPC   GL164273  26.135  40.922   5.724
 5096POPC   GL264274  25.784  40.988   5.726
 5096POPC   C1A64275  26.275  40.701   6.086
 5096POPC   D2A64276  26.280  40.900   6.488
 5096POPC   C3A64277  26.297  40.695   6.868
 5096POPC   C4A64278  26.327  40.911   7.239
 5096POPC   C1B64279  25.852  40.990   6.154
 5096POPC   C2B64280  25.765  40.852   6.568
 5096POPC   C3B64281  25.880  41.008   6.976
 5096POPC   C4B64282  25.825  40.901   7.407
 5097POPC   NC364283  38.645  20.484   5.446
 5097POPC   PO464284  37.970  20.667   5.336
 5097POPC   GL164285  38.163  20.410   5.702
 5097POPC   GL264286  38.256  20.737   5.856
 5097POPC   C1A64287  38.257  20.352   6.187
 5097POPC   D2A64288  38.460  20.444   6.605
 5097POPC   C3A64289  38.295  20.339   7.012
 5097POPC   C4A64290  38.542  20.367   7.404
 5097POPC   C1B64291  38.538  20.797   6.247
 5097POPC   C2B64292  38.461  20.967   6.706
 5097POPC   C3B64293  38.581  20.788   7.110
 5097POPC   C4B64294  38.404  20.831   7.564
 5098POPC   NC364295  18.681  38.694   5.737
 5098POPC   PO464296  18.644  38.160   5.315
 5098POPC   GL164297  18.446  38.225   5.737
 5098POPC   GL264298  18.119  38.388   5.718
 5098POPC   C1A64299  18.447  38.353   6.200
 5098POPC   D2A64300  18.597  38.562   6.563
 5098POPC   C3A64301  18.533  38.262   6.884
 5098POPC   C4A64302  18.419  38.388   7.296
 5098POPC   C1B64303  17.953  38.485   6.119
 5098POPC   C2B64304  18.097  38.519   6.543
 5098POPC   C3B64305  18.119  38.575   6.933
 5098POPC   C4B64306  17.888  38.567   7.312
 5099POPC   NC364307   6.108  17.260   5.407
 5099POPC   PO464308   5.461  17.225   5.476
 5099POPC   GL164309   5.760  17.284   5.852
 5099POPC   GL264310   6.128  17.409   5.883
 5099POPC   C1A64311   5.687  17.386   6.291
 5099POPC   D2A64312   5.593  17.358   6.751
 5099POPC   C3A64313   5.624  17.582   7.117
 5099POPC   C4A64314   5.980  17.346   7.237
 5099POPC   C1B64315   6.100  17.734   6.186
 5099POPC   C2B64316   6.003  17.645   6.589
 5099POPC   C3B64317   6.031  17.828   6.935
 5099POPC   C4B64318   6.049  17.835   7.333
 5100POPC   NC364319  17.256  33.745   5.515
 5100POPC   PO464320  17.885  33.953   5.451
 5100POPC   GL164321  17.709  33.642   5.785
 5100POPC   GL264322  17.399  33.355   5.792
 5100POPC   C1A64323  17.747  33.750   6.223
 5100POPC   D2A64324  17.346  33.763   6.439
 5100POPC   C3A64325  17.343  33.706   6.874
 5100POPC   C4A64326  17.545  33.908   7.211
 5100POPC   C1B64327  17.617  33.280   6.151
 5100POPC   C2B64328  17.628  33.368   6.580
 5100POPC   C3B64329  17.558  33.275   7.005
 5100POPC   C4B64330  17.615  33.426   7.404
 5101POPC   NC364331   6.108  41.748   5.227
 5101POPC   PO464332   5.595  41.416   5.528
 5101POPC   GL164333   5.866  41.631   5.779
 5101POPC   GL264334   6.029  41.365   5.944
 5101POPC   C1A64335   5.742  41.859   6.140
 5101POPC   D2A64336   5.664  41.738   6.553
 5101POPC   C3A64337   5.972  41.817   6.853
 5101POPC   C4A64338   6.212  41.623   7.154
 5101POPC   C1B64339   5.661  41.332   6.189
 5101POPC   C2B64340   5.504  41.256   6.600
 5101POPC   C3B64341   5.780  41.319   6.928
 5101POPC   C4B64342   5.706  41.595   7.235
 5102POPC   NC364343  17.066  13.583   4.970
 5102POPC   PO464344  16.416  13.709   5.313
 5102POPC   GL164345  16.578  13.568   5.730
 5102POPC   GL264346  16.904  13.374   5.785
 5102POPC   C1A64347  16.720  13.737   6.136
 5102POPC   D2A64348  16.526  13.755   6.550
 5102POPC   C3A64349  16.685  13.885   6.963
 5102POPC   C4A64350  16.480  13.731   7.335
 5102POPC   C1B64351  17.038  13.354   6.221
 5102POPC   C2B64352  16.718  13.258   6.554
 5102POPC   C3B64353  16.680  13.366   6.985
 5102POPC   C4B64354  16.910  13.262   7.351
 5103POPC   NC364355  22.559   3.631   5.443
 5103POPC   PO464356  23.130   3.365   5.437
 5103POPC   GL164357  23.173   3.572   5.850
 5103POPC   GL264358  22.880   3.701   5.845
 5103POPC   C1A64359  23.032   3.494   6.287
 5103POPC   D2A64360  23.102   3.285   6.708
 5103POPC   C3A64361  22.931   3.453   7.099
 5103POPC   C4A64362  23.187   3.646   7.460
 5103POPC   C1B64363  22.656   3.941   6.129
 5103POPC   C2B64364  22.508   3.776   6.517
 5103POPC   C3B64365  22.538   3.764   6.954
 5103POPC   C4B64366  22.695   3.798   7.386
 5104POPC   NC364367  33.802  41.727   5.130
 5104POPC   PO464368  33.491  41.203   5.313
 5104POPC   GL164369  33.729  41.434   5.675
 5104POPC   GL264370  33.551  41.690   5.910
 5104POPC   C1A64371  33.994  41.323   6.053
 5104POPC   D2A64372  33.875  41.133   6.467
 5104POPC   C3A64373  33.810  41.381   6.796
 5104POPC   C4A64374  33.818  41.352   7.217
 5104POPC   C1B64375  33.706  41.649   6.339
 5104POPC   C2B64376  33.860  41.874   6.691
 5104POPC   C3B64377  33.662  41.850   7.063
 5104POPC   C4B64378  33.205  41.879   7.142
 5105POPC   NC364379  21.360  32.402   5.091
 5105POPC   PO464380  21.302  32.175   5.761
 5105POPC   GL164381  21.386  32.552   6.000
 5105POPC   GL264382  21.067  32.733   6.064
 5105POPC   C1A64383  21.541  32.532   6.420
 5105POPC   D2A64384  21.480  32.257   6.772
 5105POPC   C3A64385  21.659  32.319   7.176
 5105POPC   C4A64386  21.549  32.270   7.636
 5105POPC   C1B64387  21.044  32.455   6.413
 5105POPC   C2B64388  20.953  32.271   6.798
 5105POPC   C3B64389  21.149  32.189   7.180
 5105POPC   C4B64390  21.248  31.866   7.477
 5106POPC   NC364391  30.369  16.493   5.484
 5106POPC   PO464392  30.798  16.888   5.210
 5106POPC   GL164393  30.828  16.730   5.659
 5106POPC   GL264394  31.036  16.986   5.791
 5106POPC   C1A64395  30.927  16.519   6.080
 5106POPC   D2A64396  30.750  16.573   6.508
 5106POPC   C3A64397  30.924  16.493   6.922
 5106POPC   C4A64398  30.742  16.706   7.280
 5106POPC   C1B64399  30.852  17.012   6.224
 5106POPC   C2B64400  30.481  17.061   6.539
 5106POPC   C3B64401  30.425  17.058   7.011
 5106POPC   C4B64402  30.348  17.017   7.464
 5107POPC   NC364403  37.235   7.485   5.561
 5107POPC   PO464404  36.762   7.106   5.276
 5107POPC   GL164405  36.733   7.315   5.709
 5107POPC   GL264406  36.501   7.092   5.869
 5107POPC   C1A64407  36.857   7.549   6.125
 5107POPC   D2A64408  37.014   7.384   6.529
 5107POPC   C3A64409  36.852   7.499   6.918
 5107POPC   C4A64410  37.069   7.486   7.317
 5107POPC   C1B64411  36.891   7.047   6.133
 5107POPC   C2B64412  37.000   6.845   6.569
 5107POPC   C3B64413  37.058   7.042   6.996
 5107POPC   C4B64414  37.275   7.011   7.428
 5108POPC   NC364415   9.185  38.536   5.435
 5108POPC   PO464416   8.630  38.395   5.157
 5108POPC   GL164417   8.691  38.421   5.651
 5108POPC   GL264418   8.961  38.245   5.787
 5108POPC   C1A64419   8.742  38.570   6.103
 5108POPC   D2A64420   8.649  38.408   6.523
 5108POPC   C3A64421   8.812  38.591   6.920
 5108POPC   C4A64422   8.945  38.734   7.348
 5108POPC   C1B64423   9.241  38.508   6.072
 5108POPC   C2B64424   9.182  38.610   6.487
 5108POPC   C3B64425   9.239  38.299   6.766
 5108POPC   C4B64426   9.231  38.385   7.150
 5109POPC   NC364427  29.398  37.918   5.481
 5109POPC   PO464428  28.997  37.472   5.257
 5109POPC   GL164429  29.003  37.660   5.724
 5109POPC   GL264430  28.950  38.029   5.717
 5109POPC   C1A64431  29.245  37.809   6.144
 5109POPC   D2A64432  29.361  37.771   6.616
 5109POPC   C3A64433  29.027  37.588   6.857
 5109POPC   C4A64434  28.880  37.548   7.279
 5109POPC   C1B64435  28.896  38.205   6.124
 5109POPC   C2B64436  28.903  38.033   6.509
 5109POPC   C3B64437  29.080  38.145   6.860
 5109POPC   C4B64438  29.168  37.967   7.216
 5110POPC   NC364439  12.756   0.943   5.381
 5110POPC   PO464440  12.877   1.572   5.542
 5110POPC   GL164441  12.683   1.394   5.901
 5110POPC   GL264442  12.633   1.036   5.886
 5110POPC   C1A64443  12.555   1.370   6.320
 5110POPC   D2A64444  12.773   1.085   6.580
 5110POPC   C3A64445  12.841   1.227   6.979
 5110POPC   C4A64446  12.632   1.400   7.274
 5110POPC   C1B64447  13.001   0.871   6.103
 5110POPC   C2B64448  13.163   0.770   6.507
 5110POPC   C3B64449  12.968   0.675   6.884
 5110POPC   C4B64450  13.046   0.871   7.274
 5111POPC   NC364451  37.033  29.346   5.283
 5111POPC   PO464452  36.588  28.862   5.605
 5111POPC   GL164453  36.810  29.007   5.922
 5111POPC   GL264454  36.984  29.245   5.771
 5111POPC   C1A64455  37.003  29.030   6.319
 5111POPC   D2A64456  36.833  29.275   6.650
 5111POPC   C3A64457  36.814  29.066   7.045
 5111POPC   C4A64458  36.848  28.909   7.460
 5111POPC   C1B64459  37.126  29.481   6.110
 5111POPC   C2B64460  37.330  29.458   6.517
 5111POPC   C3B64461  37.215  29.389   6.974
 5111POPC   C4B64462  37.191  29.266   7.404
 5112POPC   NC364463   1.406  27.062   5.530
 5112POPC   PO464464   1.032  26.485   5.582
 5112POPC   GL164465   1.254  26.681   5.897
 5112POPC   GL264466   1.088  27.022   5.914
 5112POPC   C1A64467   1.201  26.685   6.326
 5112POPC   D2A64468   0.928  26.659   6.668
 5112POPC   C3A64469   1.200  26.699   7.002
 5112POPC   C4A64470   1.468  26.396   7.183
 5112POPC   C1B64471   1.425  27.115   6.202
 5112POPC   C2B64472   1.387  27.055   6.626
 5112POPC   C3B64473   1.338  27.325   6.924
 5112POPC   C4B64474   1.230  27.153   7.275
 5113POPC   NC364475  13.909  44.227   5.491
 5113POPC   PO464476  13.399  44.712   5.557
 5113POPC   GL164477  13.723  44.618   5.843
 5113POPC   GL264478  13.655  44.967   5.951
 5113POPC   C1A64479  13.826  44.354   6.218
 5113POPC   D2A64480  13.517  44.214   6.548
 5113POPC   C3A64481  13.586  44.329   6.971
 5113POPC   C4A64482  13.291  44.468   7.262
 5113POPC   C1B64483  13.572  44.993   6.364
 5113POPC   C2B64484  13.555  44.809   6.757
 5113POPC   C3B64485  13.507  44.931   7.164
 5113POPC   C4B64486  13.875  44.918   7.354
 5114POPC   NC364487  24.710  18.647   5.591
 5114POPC   PO464488  24.834  17.927   5.551
 5114POPC   GL164489  24.610  18.171   5.862
 5114POPC   GL264490  24.270  18.220   5.745
 5114POPC   C1A64491  24.532  18.210   6.314
 5114POPC   D2A64492  24.686  17.984   6.678
 5114POPC   C3A64493  24.806  18.160   7.058
 5114POPC   C4A64494  24.534  18.514   7.110
 5114POPC   C1B64495  24.090  18.028   6.114
 5114POPC   C2B64496  24.095  18.063   6.594
 5114POPC   C3B64497  24.292  18.062   7.014
 5114POPC   C4B64498  24.239  18.230   7.439
 5115POPC   NC364499  27.780  24.654   5.223
 5115POPC   PO464500  27.288  24.265   5.425
 5115POPC   GL164501  27.638  24.400   5.737
 5115POPC   GL264502  27.781  24.772   5.726
 5115POPC   C1A64503  27.698  24.460   6.206
 5115POPC   D2A64504  27.524  24.251   6.590
 5115POPC   C3A64505  27.358  24.402   6.957
 5115POPC   C4A64506  27.568  24.597   7.298
 5115POPC   C1B64507  27.883  24.969   6.117
 5115POPC   C2B64508  27.931  24.810   6.524
 5115POPC   C3B64509  27.785  24.859   6.917
 5115POPC   C4B64510  27.875  25.025   7.290
 5116POPC   NC364511  19.278  22.176   5.491
 5116POPC   PO464512  18.680  21.997   5.495
 5116POPC   GL164513  18.960  22.047   5.859
 5116POPC   GL264514  19.116  21.731   5.808
 5116POPC   C1A64515  19.324  22.011   6.203
 5116POPC   D2A64516  19.500  21.911   6.654
 5116POPC   C3A64517  19.340  22.179   7.005
 5116POPC   C4A64518  19.274  22.204   7.470
 5116POPC   C1B64519  18.880  21.752   6.249
 5116POPC   C2B64520  18.926  21.847   6.725
 5116POPC   C3B64521  18.951  21.876   7.184
 5116POPC   C4B64522  18.758  22.078   7.579
 5117POPC   NC364523   8.191  39.764   5.211
 5117POPC   PO464524   7.864  40.344   5.328
 5117POPC   GL164525   8.205  40.147   5.589
 5117POPC   GL264526   7.923  40.126   5.843
 5117POPC   C1A64527   8.322  39.844   5.942
 5117POPC   D2A64528   8.127  39.896   6.339
 5117POPC   C3A64529   8.266  39.950   6.760
 5117POPC   C4A64530   8.154  39.795   7.160
 5117POPC   C1B64531   8.293  40.327   6.089
 5117POPC   C2B64532   8.435  40.372   6.516
 5117POPC   C3B64533   8.411  40.495   6.948
 5117POPC   C4B64534   8.371  40.348   7.365
 5118POPC   NC364535  18.823  32.844   5.391
 5118POPC   PO464536  19.280  33.342   5.426
 5118POPC   GL164537  19.137  33.063   5.774
 5118POPC   GL264538  18.774  33.007   5.861
 5118POPC   C1A64539  19.071  33.206   6.213
 5118POPC   D2A64540  19.162  33.338   6.619
 5118POPC   C3A64541  18.974  33.036   6.865
 5118POPC   C4A64542  19.096  32.845   7.257
 5118POPC   C1B64543  18.615  32.722   6.201
 5118POPC   C2B64544  18.752  32.610   6.591
 5118POPC   C3B64545  18.655  32.665   7.005
 5118POPC   C4B64546  18.738  32.481   7.355
 5119POPC   NC364547  18.329  36.082   5.311
 5119POPC   PO464548  17.787  35.724   5.340
 5119POPC   GL164549  18.135  35.850   5.722
 5119POPC   GL264550  18.532  35.958   5.773
 5119POPC   C1A64551  18.204  36.208   6.056
 5119POPC   D2A64552  18.002  36.192   6.447
 5119POPC   C3A64553  18.065  36.189   6.885
 5119POPC   C4A64554  18.038  36.337   7.292
 5119POPC   C1B64555  18.408  35.767   6.181
 5119POPC   C2B64556  18.484  36.028   6.546
 5119POPC   C3B64557  18.559  36.159   6.971
 5119POPC   C4B64558  18.333  35.864   7.232
 5120POPC   NC364559  28.489  20.732   5.435
 5120POPC   PO464560  27.903  20.684   5.185
 5120POPC   GL164561  28.043  20.554   5.663
 5120POPC   GL264562  28.075  20.883   5.832
 5120POPC   C1A64563  28.306  20.539   6.099
 5120POPC   D2A64564  28.302  20.811   6.510
 5120POPC   C3A64565  28.567  20.655   6.889
 5120POPC   C4A64566  28.875  20.667   7.257
 5120POPC   C1B64567  27.831  20.921   6.247
 5120POPC   C2B64568  27.811  20.797   6.687
 5120POPC   C3B64569  28.108  20.755   7.066
 5120POPC   C4B64570  28.012  20.730   7.501
 5121POPC   NC364571  40.884  38.310   5.444
 5121POPC   PO464572  40.293  38.721   5.357
 5121POPC   GL164573  40.549  38.646   5.723
 5121POPC   GL264574  40.557  38.293   5.824
 5121POPC   C1A64575  40.809  38.645   6.094
 5121POPC   D2A64576  40.771  38.473   6.497
 5121POPC   C3A64577  40.946  38.681   6.867
 5121POPC   C4A64578  41.132  38.752   7.278
 5121POPC   C1B64579  40.843  38.107   6.124
 5121POPC   C2B64580  40.829  37.985   6.565
 5121POPC   C3B64581  40.690  38.193   6.917
 5121POPC   C4B64582  40.851  38.334   7.271
 5122POPC   NC364583  35.535  34.023   5.375
 5122POPC   PO464584  35.219  33.403   5.492
 5122POPC   GL164585  35.425  33.679   5.746
 5122POPC   GL264586  35.179  33.927   5.741
 5122POPC   C1A64587  35.511  33.734   6.169
 5122POPC   D2A64588  35.314  33.486   6.499
 5122POPC   C3A64589  35.463  33.659   6.890
 5122POPC   C4A64590  35.565  34.058   7.070
 5122POPC   C1B64591  34.996  33.813   6.145
 5122POPC   C2B64592  35.149  33.957   6.538
 5122POPC   C3B64593  35.074  34.013   6.948
 5122POPC   C4B64594  34.986  34.132   7.340
 5123POPC   NC364595  34.553  38.096   5.212
 5123POPC   PO464596  34.744  37.510   5.367
 5123POPC   GL164597  34.601  37.809   5.680
 5123POPC   GL264598  34.794  38.087   5.771
 5123POPC   C1A64599  34.450  37.769   6.107
 5123POPC   D2A64600  34.468  37.495   6.457
 5123POPC   C3A64601  34.450  37.627   6.866
 5123POPC   C4A64602  34.532  37.782   7.295
 5123POPC   C1B64603  34.935  37.942   6.167
 5123POPC   C2B64604  34.789  37.871   6.574
 5123POPC   C3B64605  34.949  37.636   6.925
 5123POPC   C4B64606  35.043  37.653   7.333
 5124POPC   NC364607  42.055   2.138   5.160
 5124POPC   PO464608  42.350   2.590   5.578
 5124POPC   GL164609  42.435   2.715   5.919
 5124POPC   GL264610  42.742   2.862   5.885
 5124POPC   C1A64611  42.206   2.615   6.253
 5124POPC   D2A64612  42.073   2.782   6.592
 5124POPC   C3A64613  42.232   2.551   6.920
 5124POPC   C4A64614  42.006   2.628   7.290
 5124POPC   C1B64615  42.607   2.949   6.331
 5124POPC   C2B64616  42.376   3.185   6.621
 5124POPC   C3B64617  42.227   3.051   7.004
 5124POPC   C4B64618  42.476   2.858   7.263
 5125POPC   NC364619  29.827   5.554   5.204
 5125POPC   PO464620  30.208   5.933   5.603
 5125POPC   GL164621  29.825   5.830   5.819
 5125POPC   GL264622  29.958   6.095   6.018
 5125POPC   C1A64623  29.558   5.901   6.218
 5125POPC   D2A64624  29.610   5.677   6.615
 5125POPC   C3A64625  29.684   5.881   7.022
 5125POPC   C4A64626  29.746   5.713   7.450
 5125POPC   C1B64627  30.252   6.096   6.313
 5125POPC   C2B64628  30.083   5.966   6.692
 5125POPC   C3B64629  30.179   5.810   7.082
 5125POPC   C4B64630  30.144   6.013   7.449
 5126POPC   NC364631   9.537  29.033   5.340
 5126POPC   PO464632  10.187  29.168   5.361
 5126POPC   GL164633   9.973  29.130   5.776
 5126POPC   GL264634   9.577  29.140   5.828
 5126POPC   C1A64635   9.882  28.953   6.193
 5126POPC   D2A64636   9.588  29.030   6.540
 5126POPC   C3A64637   9.852  29.029   6.899
 5126POPC   C4A64638   9.974  29.357   7.227
 5126POPC   C1B64639   9.510  29.394   6.178
 5126POPC   C2B64640   9.500  29.534   6.611
 5126POPC   C3B64641   9.481  29.333   7.021
 5126POPC   C4B64642   9.517  28.906   7.260
 5127POPC   NC364643  29.411   1.748   5.388
 5127POPC   PO464644  30.089   1.750   5.415
 5127POPC   GL164645  29.923   1.993   5.774
 5127POPC   GL264646  29.601   2.139   5.709
 5127POPC   C1A64647  30.123   2.061   6.165
 5127POPC   D2A64648  30.271   1.846   6.509
 5127POPC   C3A64649  30.105   2.028   6.855
 5127POPC   C4A64650  30.072   1.999   7.234
 5127POPC   C1B64651  29.582   2.137   6.161
 5127POPC   C2B64652  29.772   2.261   6.553
 5127POPC   C3B64653  29.656   2.230   7.029
 5127POPC   C4B64654  29.690   2.174   7.509
 5128POPC   NC364655  14.381  30.368   5.542
 5128POPC   PO464656  14.137  30.962   5.302
 5128POPC   GL164657  14.223  31.058   5.759
 5128POPC   GL264658  14.131  30.723   5.802
 5128POPC   C1A64659  14.370  30.965   6.229
 5128POPC   D2A64660  14.626  30.790   6.626
 5128POPC   C3A64661  14.530  30.696   7.097
 5128POPC   C4A64662  14.692  30.551   7.551
 5128POPC   C1B64663  14.144  30.506   6.180
 5128POPC   C2B64664  14.039  30.665   6.560
 5128POPC   C3B64665  14.103  30.416   6.908
 5128POPC   C4B64666  13.983  30.462   7.303
 5129POPC   NC364667  41.258  35.660   5.293
 5129POPC   PO464668  40.645  35.437   5.401
 5129POPC   GL164669  40.688  35.234   5.793
 5129POPC   GL264670  40.982  35.011   5.749
 5129POPC   C1A64671  40.628  35.259   6.234
 5129POPC   D2A64672  40.553  35.066   6.609
 5129POPC   C3A64673  40.585  35.423   6.888
 5129POPC   C4A64674  40.718  35.487   7.319
 5129POPC   C1B64675  41.111  35.130   6.168
 5129POPC   C2B64676  41.062  35.106   6.617
 5129POPC   C3B64677  40.982  35.159   7.036
 5129POPC   C4B64678  40.535  35.024   7.224
 5130POPC   NC364679  36.305   9.927   5.375
 5130POPC   PO464680  36.280   9.288   5.479
 5130POPC   GL164681  36.229   9.625   5.767
 5130POPC   GL264682  35.900   9.755   5.666
 5130POPC   C1A64683  36.362   9.836   6.125
 5130POPC   D2A64684  36.509   9.700   6.523
 5130POPC   C3A64685  36.319   9.900   6.841
 5130POPC   C4A64686  36.291   9.744   7.246
 5130POPC   C1B64687  35.842   9.777   6.117
 5130POPC   C2B64688  35.841   9.972   6.541
 5130POPC   C3B64689  35.842   9.796   6.943
 5130POPC   C4B64690  35.934   9.413   7.148
 5131POPC   NC364691   1.389  18.162   5.346
 5131POPC   PO464692   0.781  17.960   5.526
 5131POPC   GL164693   1.099  18.200   5.795
 5131POPC   GL264694   1.473  18.188   5.834
 5131POPC   C1A64695   1.169  18.355   6.206
 5131POPC   D2A64696   1.059  18.153   6.579
 5131POPC   C3A64697   1.134  18.347   6.968
 5131POPC   C4A64698   0.860  18.569   7.236
 5131POPC   C1B64699   1.425  17.927   6.217
 5131POPC   C2B64700   1.477  17.828   6.665
 5131POPC   C3B64701   1.538  17.947   7.104
 5131POPC   C4B64702   1.513  18.238   7.462
 5132POPC   NC364703  37.090  43.900   5.378
 5132POPC   PO464704  36.549  43.532   5.418
 5132POPC   GL164705  36.828  43.715   5.809
 5132POPC   GL264706  37.178  43.898   5.881
 5132POPC   C1A64707  36.869  43.791   6.275
 5132POPC   D2A64708  36.912  43.522   6.628
 5132POPC   C3A64709  36.981  43.740   6.970
 5132POPC   C4A64710  36.772  44.104   7.096
 5132POPC   C1B64711  37.220  44.201   6.248
 5132POPC   C2B64712  37.042  44.215   6.666
 5132POPC   C3B64713  37.249  44.263   7.056
 5132POPC   C4B64714  37.266  44.279   7.541
 5133POPC   NC364715  38.879   2.232   5.526
 5133POPC   PO464716  39.497   1.970   5.515
 5133POPC   GL164717  39.284   2.012   5.876
 5133POPC   GL264718  39.350   2.364   5.888
 5133POPC   C1A64719  39.222   1.764   6.274
 5133POPC   D2A64720  39.317   1.494   6.635
 5133POPC   C3A64721  39.087   1.707   6.957
 5133POPC   C4A64722  39.132   1.820   7.407
 5133POPC   C1B64723  39.112   2.249   6.287
 5133POPC   C2B64724  38.909   2.105   6.644
 5133POPC   C3B64725  39.037   2.199   7.054
 5133POPC   C4B64726  38.987   2.291   7.529
 5134POPC   NC364727   6.385  24.393   5.343
 5134POPC   PO464728   7.014  24.516   5.465
 5134POPC   GL164729   6.721  24.656   5.762
 5134POPC   GL264730   6.578  24.333   5.810
 5134POPC   C1A64731   6.685  24.677   6.225
 5134POPC   D2A64732   6.421  24.726   6.609
 5134POPC   C3A64733   6.506  24.683   7.071
 5134POPC   C4A64734   6.449  24.768   7.546
 5134POPC   C1B64735   6.506  24.197   6.212
 5134POPC   C2B64736   6.667  24.266   6.591
 5134POPC   C3B64737   6.500  24.162   6.943
 5134POPC   C4B64738   6.686  24.046   7.318
 5135POPC   NC364739  29.914  27.016   5.436
 5135POPC   PO464740  29.310  27.267   5.609
 5135POPC   GL164741  29.631  27.003   5.853
 5135POPC   GL264742  29.784  26.651   5.779
 5135POPC   C1A64743  29.712  26.865   6.254
 5135POPC   D2A64744  29.588  27.084   6.607
 5135POPC   C3A64745  29.712  26.834   6.952
 5135POPC   C4A64746  29.749  26.742   7.387
 5135POPC   C1B64747  30.075  26.508   6.138
 5135POPC   C2B64748  30.144  26.708   6.548
 5135POPC   C3B64749  30.229  26.819   6.977
 5135POPC   C4B64750  30.227  26.607   7.362
 5136POPC   NC364751  38.103  42.542   5.424
 5136POPC   PO464752  38.618  42.074   5.496
 5136POPC   GL164753  38.565  42.259   5.881
 5136POPC   GL264754  38.431  42.570   5.818
 5136POPC   C1A64755  38.752  42.468   6.221
 5136POPC   D2A64756  38.452  42.509   6.512
 5136POPC   C3A64757  38.384  42.161   6.778
 5136POPC   C4A64758  38.558  42.233   7.155
 5136POPC   C1B64759  38.048  42.669   6.076
 5136POPC   C2B64760  37.948  42.686   6.504
 5136POPC   C3B64761  38.148  42.634   6.903
 5136POPC   C4B64762  38.259  42.590   7.314
 5137POPC   NC364763  33.229  13.484   5.304
 5137POPC   PO464764  32.685  13.302   5.752
 5137POPC   GL164765  32.934  13.536   5.976
 5137POPC   GL264766  33.195  13.634   5.781
 5137POPC   C1A64767  33.058  13.553   6.389
 5137POPC   D2A64768  33.122  13.295   6.724
 5137POPC   C3A64769  33.225  13.518   7.100
 5137POPC   C4A64770  32.975  13.440   7.479
 5137POPC   C1B64771  33.321  13.898   6.109
 5137POPC   C2B64772  33.317  13.990   6.550
 5137POPC   C3B64773  33.064  13.957   6.912
 5137POPC   C4B64774  33.330  13.981   7.262
 5138POPC   NC364775  14.090  33.361   5.290
 5138POPC   PO464776  14.394  32.753   5.390
 5138POPC   GL164777  14.166  32.822   5.775
 5138POPC   GL264778  14.248  33.150   5.731
 5138POPC   C1A64779  14.070  32.897   6.223
 5138POPC   D2A64780  13.998  32.865   6.683
 5138POPC   C3A64781  14.383  32.994   6.895
 5138POPC   C4A64782  14.662  32.852   7.214
 5138POPC   C1B64783  14.176  33.389   6.074
 5138POPC   C2B64784  14.288  33.357   6.491
 5138POPC   C3B64785  14.155  33.453   6.887
 5138POPC   C4B64786  14.409  33.388   7.231
 5139POPC   NC364787  44.938  23.204   5.406
 5139POPC   PO464788  44.526  22.636   5.334
 5139POPC   GL164789  44.513  22.797   5.742
 5139POPC   GL264790  44.585  23.137   5.820
 5139POPC   C1A64791  44.484  22.704   6.171
 5139POPC   D2A64792  44.620  22.943   6.531
 5139POPC   C3A64793  44.471  22.847   6.937
 5139POPC   C4A64794  44.588  23.041   7.310
 5139POPC   C1B64795  44.881  23.207   6.148
 5139POPC   C2B64796   0.041  23.317   6.545
 5139POPC   C3B64797  44.883  23.194   6.915
 5139POPC   C4B64798   0.016  23.281   7.303
 5140POPC   NC364799  10.773  16.826   5.388
 5140POPC   PO464800  10.414  16.279   5.432
 5140POPC   GL164801  10.412  16.673   5.757
 5140POPC   GL264802  10.771  16.763   5.883
 5140POPC   C1A64803  10.423  17.028   6.119
 5140POPC   D2A64804  10.643  17.052   6.533
 5140POPC   C3A64805  10.449  17.009   6.940
 5140POPC   C4A64806  10.547  16.797   7.314
 5140POPC   C1B64807  10.935  16.706   6.275
 5140POPC   C2B64808  10.816  16.600   6.721
 5140POPC   C3B64809  10.933  16.474   7.145
 5140POPC   C4B64810  10.877  16.244   7.569
 5141POPC   NC364811  35.896   9.017   5.445
 5141POPC   PO464812  36.478   8.679   5.517
 5141POPC   GL164813  36.204   8.927   5.853
 5141POPC   GL264814  35.939   9.229   5.894
 5141POPC   C1A64815  36.005   8.864   6.263
 5141POPC   D2A64816  35.955   8.705   6.671
 5141POPC   C3A64817  35.770   8.965   6.963
 5141POPC   C4A64818  35.897   8.977   7.407
 5141POPC   C1B64819  36.182   9.357   6.239
 5141POPC   C2B64820  36.173   9.270   6.682
 5141POPC   C3B64821  36.460   9.320   7.025
 5141POPC   C4B64822  36.354   9.216   7.455
 5142POPC   NC364823  11.124  21.220   5.405
 5142POPC   PO464824  11.182  21.839   5.568
 5142POPC   GL164825  11.373  21.508   5.793
 5142POPC   GL264826  11.050  21.374   5.884
 5142POPC   C1A64827  11.420  21.368   6.228
 5142POPC   D2A64828  11.158  21.418   6.588
 5142POPC   C3A64829  11.392  21.384   6.969
 5142POPC   C4A64830  11.310  21.660   7.316
 5142POPC   C1B64831  10.981  21.031   6.164
 5142POPC   C2B64832  11.151  20.913   6.567
 5142POPC   C3B64833  10.972  21.040   6.941
 5142POPC   C4B64834  11.087  21.194   7.366
 5143POPC   NC364835  12.320  35.835   5.389
 5143POPC   PO464836  11.907  36.487   5.467
 5143POPC   GL164837  12.162  36.350   5.817
 5143POPC   GL264838  12.209  36.004   5.843
 5143POPC   C1A64839  12.227  36.264   6.265
 5143POPC   D2A64840  12.194  35.924   6.557
 5143POPC   C3A64841  12.098  36.000   6.984
 5143POPC   C4A64842  11.691  35.982   7.171
 5143POPC   C1B64843  12.429  35.734   6.132
 5143POPC   C2B64844  12.594  35.606   6.574
 5143POPC   C3B64845  12.436  35.596   7.008
 5143POPC   C4B64846  12.450  35.734   7.437
 5144POPC   NC364847  30.917  11.608   5.504
 5144POPC   PO464848  30.369  11.202   5.365
 5144POPC   GL164849  30.620  11.266   5.740
 5144POPC   GL264850  30.562  11.595   5.901
 5144POPC   C1A64851  30.864  11.242   6.107
 5144POPC   D2A64852  30.572  11.373   6.410
 5144POPC   C3A64853  30.431  11.184   6.791
 5144POPC   C4A64854  30.566  11.392   7.160
 5144POPC   C1B64855  30.897  11.734   6.227
 5144POPC   C2B64856  31.009  11.565   6.679
 5144POPC   C3B64857  31.074  11.494   7.157
 5144POPC   C4B64858  30.978  11.584   7.621
 5145POPC   NC364859  17.334  11.764   5.607
 5145POPC   PO464860  17.739  12.337   5.407
 5145POPC   GL164861  17.633  12.395   5.839
 5145POPC   GL264862  17.323  12.260   5.808
 5145POPC   C1A64863  17.613  12.142   6.232
 5145POPC   D2A64864  17.707  12.002   6.654
 5145POPC   C3A64865  17.771  12.283   7.002
 5145POPC   C4A64866  17.812  11.871   7.185
 5145POPC   C1B64867  17.122  12.021   6.167
 5145POPC   C2B64868  17.198  12.037   6.590
 5145POPC   C3B64869  17.332  12.010   7.014
 5145POPC   C4B64870  17.084  11.746   7.239
 5146POPC   NC364871  31.459  44.471   5.400
 5146POPC   PO464872  31.766   0.009   5.285
 5146POPC   GL164873  31.602  44.863   5.704
 5146POPC   GL264874  31.226  44.785   5.751
 5146POPC   C1A64875  31.569  44.632   6.103
 5146POPC   D2A64876  31.730  44.665   6.504
 5146POPC   C3A64877  31.439  44.595   6.868
 5146POPC   C4A64878  31.443  44.608   7.328
 5146POPC   C1B64879  31.207   0.005   6.183
 5146POPC   C2B64880  31.378   0.054   6.628
 5146POPC   C3B64881  31.273   0.046   7.102
 5146POPC   C4B64882  31.143  44.958   7.558
 5147POPC   NC364883  13.679  29.534   5.343
 5147POPC   PO464884  13.527  28.795   5.386
 5147POPC   GL164885  13.486  29.133   5.713
 5147POPC   GL264886  13.770  29.323   5.793
 5147POPC   C1A64887  13.377  29.129   6.169
 5147POPC   D2A64888  13.303  29.194   6.631
 5147POPC   C3A64889  13.421  28.836   6.905
 5147POPC   C4A64890  13.766  28.800   7.203
 5147POPC   C1B64891  13.836  29.346   6.211
 5147POPC   C2B64892  13.820  29.092   6.574
 5147POPC   C3B64893  13.728  29.245   6.967
 5147POPC   C4B64894  13.930  29.515   7.212
 5148POPC   NC364895  10.276   8.500   5.138
 5148POPC   PO464896  10.203   9.125   5.291
 5148POPC   GL164897  10.368   8.792   5.592
 5148POPC   GL264898  10.506   9.107   5.739
 5148POPC   C1A64899  10.568   8.688   6.033
 5148POPC   D2A64900  10.641   8.904   6.441
 5148POPC   C3A64901  10.448   8.815   6.852
 5148POPC   C4A64902  10.598   8.909   7.287
 5148POPC   C1B64903  10.288   9.142   6.143
 5148POPC   C2B64904  10.328   9.308   6.565
 5148POPC   C3B64905  10.454   9.301   6.975
 5148POPC   C4B64906  10.191   9.239   7.279
 5149POPC   NC364907  12.997   9.740   5.456
 5149POPC   PO464908  12.349   9.659   5.573
 5149POPC   GL164909  12.643   9.746   5.865
 5149POPC   GL264910  12.643  10.094   5.756
 5149POPC   C1A64911  12.694   9.609   6.300
 5149POPC   D2A64912  12.637   9.532   6.732
 5149POPC   C3A64913  13.025   9.630   6.905
 5149POPC   C4A64914  13.163  10.064   7.021
 5149POPC   C1B64915  12.724  10.138   6.213
 5149POPC   C2B64916  12.800  10.034   6.652
 5149POPC   C3B64917  12.643   9.934   7.083
 5149POPC   C4B64918  12.464  10.216   7.402
 5150POPC   NC364919  28.128   4.364   5.520
 5150POPC   PO464920  28.734   4.071   5.576
 5150POPC   GL164921  28.484   4.270   5.898
 5150POPC   GL264922  28.124   4.203   6.018
 5150POPC   C1A64923  28.590   4.294   6.315
 5150POPC   D2A64924  28.355   4.354   6.654
 5150POPC   C3A64925  28.558   4.481   7.020
 5150POPC   C4A64926  28.447   4.478   7.429
 5150POPC   C1B64927  28.201   4.627   6.237
 5150POPC   C2B64928  28.148   4.802   6.683
 5150POPC   C3B64929  28.046   4.602   7.104
 5150POPC   C4B64930  28.014   4.700   7.602
 5151POPC   NC364931  33.025  15.968   5.355
 5151POPC   PO464932  33.642  15.964   5.630
 5151POPC   GL164933  33.261  15.872   5.903
 5151POPC   GL264934  32.940  15.788   5.810
 5151POPC   C1A64935  32.993  15.861   6.317
 5151POPC   D2A64936  32.973  16.115   6.678
 5151POPC   C3A64937  32.985  15.928   7.081
 5151POPC   C4A64938  33.330  15.707   7.254
 5151POPC   C1B64939  32.610  15.597   6.019
 5151POPC   C2B64940  32.608  15.529   6.433
 5151POPC   C3B64941  32.602  15.669   6.838
 5151POPC   C4B64942  32.481  15.802   7.234
 5152POPC   NC364943  17.123  44.701   5.366
 5152POPC   PO464944  17.754  44.435   5.458
 5152POPC   GL164945  17.440  44.598   5.760
 5152POPC   GL264946  17.137  44.382   5.759
 5152POPC   C1A64947  17.420  44.827   6.151
 5152POPC   D2A64948  17.238  44.910   6.562
 5152POPC   C3A64949  17.546  44.874   6.891
 5152POPC   C4A64950  17.610  44.862   7.340
 5152POPC   C1B64951  17.084  44.445   6.199
 5152POPC   C2B64952  16.954  44.456   6.622
 5152POPC   C3B64953  17.159  44.544   7.026
 5152POPC   C4B64954  17.132  44.507   7.479
 5153POPC   NC364955   4.738   3.769   5.471
 5153POPC   PO464956   4.197   3.314   5.492
 5153POPC   GL164957   4.278   3.664   5.729
 5153POPC   GL264958   4.579   3.570   5.907
 5153POPC   C1A64959   4.147   3.731   6.159
 5153POPC   D2A64960   4.414   3.515   6.467
 5153POPC   C3A64961   4.304   3.537   6.925
 5153POPC   C4A64962   4.357   3.200   7.222
 5153POPC   C1B64963   4.613   3.929   6.218
 5153POPC   C2B64964   4.428   3.979   6.655
 5153POPC   C3B64965   4.667   3.908   7.042
 5153POPC   C4B64966   4.581   3.621   7.394
 5154POPC   NC364967  37.494  26.369   5.530
 5154POPC   PO464968  37.760  26.983   5.410
 5154POPC   GL164969  37.830  26.772   5.835
 5154POPC   GL264970  37.518  26.714   5.901
 5154POPC   C1A64971  37.830  26.702   6.304
 5154POPC   D2A64972  37.529  26.827   6.627
 5154POPC   C3A64973  37.695  26.771   7.033
 5154POPC   C4A64974  37.574  26.729   7.473
 5154POPC   C1B64975  37.460  26.367   6.200
 5154POPC   C2B64976  37.578  26.295   6.632
 5154POPC   C3B64977  37.325  26.383   6.976
 5154POPC   C4B64978  37.226  26.384   7.401
 5155POPC   NC364979   9.894  13.220   5.441
 5155POPC   PO464980   9.529  13.807   5.393
 5155POPC   GL164981   9.682  13.599   5.770
 5155POPC   GL264982   9.995  13.806   5.767
 5155POPC   C1A64983   9.754  13.538   6.243
 5155POPC   D2A64984   9.482  13.682   6.615
 5155POPC   C3A64985   9.445  13.529   7.036
 5155POPC   C4A64986   9.600  13.796   7.408
 5155POPC   C1B64987  10.190  13.789   6.197
 5155POPC   C2B64988   9.980  13.865   6.590
 5155POPC   C3B64989   9.915  13.730   7.000
 5155POPC   C4B64990  10.119  13.816   7.383
 5156POPC   NC364991  28.025  38.940   5.439
 5156POPC   PO464992  28.561  39.373   5.407
 5156POPC   GL164993  28.620  39.112   5.762
 5156POPC   GL264994  28.303  39.158   5.805
 5156POPC   C1A64995  28.773  39.244   6.166
 5156POPC   D2A64996  28.846  39.359   6.593
 5156POPC   C3A64997  28.600  39.235   6.960
 5156POPC   C4A64998  28.437  39.588   7.213
 5156POPC   C1B64999  28.278  39.365   6.181
 5156POPC   C2B65000  28.250  39.225   6.582
 5156POPC   C3B65001  28.100  39.333   6.965
 5156POPC   C4B65002  28.156  39.180   7.375
 5157POPC   NC365003  29.065  12.915   5.415
 5157POPC   PO465004  29.701  12.916   5.234
 5157POPC   GL165005  29.542  13.013   5.660
 5157POPC   GL265006  29.422  12.680   5.755
 5157POPC   C1A65007  29.318  13.129   6.066
 5157POPC   D2A65008  29.197  13.327   6.490
 5157POPC   C3A65009  29.165  13.066   6.865
 5157POPC   C4A65010  29.383  13.172   7.228
 5157POPC   C1B65011  29.274  12.588   6.217
 5157POPC   C2B65012  29.208  12.484   6.685
 5157POPC   C3B65013  29.130  12.600   7.162
 5157POPC   C4B65014  28.943  12.552   7.617
 5158POPC   NC365015  15.282  16.315   5.591
 5158POPC   PO465016  15.296  15.641   5.514
 5158POPC   GL165017  15.005  15.712   5.856
 5158POPC   GL265018  14.994  16.081   5.965
 5158POPC   C1A65019  15.088  15.648   6.296
 5158POPC   D2A65020  15.353  15.759   6.646
 5158POPC   C3A65021  15.091  15.774   7.011
 5158POPC   C4A65022  15.148  15.753   7.448
 5158POPC   C1B65023  14.909  16.127   6.417
 5158POPC   C2B65024  15.090  16.287   6.811
 5158POPC   C3B65025  15.157  16.238   7.253
 5158POPC   C4B65026  14.898  16.167   7.623
 5159POPC   NC365027  44.294  25.441   5.319
 5159POPC   PO465028  44.955  25.248   5.280
 5159POPC   GL165029  44.767  25.371   5.676
 5159POPC   GL265030   0.017  25.473   5.909
 5159POPC   C1A65031  44.565  25.293   6.084
 5159POPC   D2A65032  44.570  25.154   6.512
 5159POPC   C3A65033  44.395  25.381   6.878
 5159POPC   C4A65034  44.564  25.537   7.291
 5159POPC   C1B65035  44.921  25.730   6.251
 5159POPC   C2B65036  44.763  25.653   6.663
 5159POPC   C3B65037  44.926  25.362   6.994
 5159POPC   C4B65038   0.094  25.478   7.407
 5160POPC   NC365039   8.825   9.418   5.280
 5160POPC   PO465040   9.280   8.997   5.653
 5160POPC   GL165041   8.871   8.933   5.867
 5160POPC   GL265042   8.823   9.258   5.794
 5160POPC   C1A65043   8.787   8.812   6.303
 5160POPC   D2A65044   9.183   8.782   6.521
 5160POPC   C3A65045   9.254   8.711   6.953
 5160POPC   C4A65046   8.907   8.617   7.213
 5160POPC   C1B65047   8.766   9.327   6.197
 5160POPC   C2B65048   8.670   9.246   6.604
 5160POPC   C3B65049   8.985   9.153   6.886
 5160POPC   C4B65050   8.882   9.162   7.286
 5161POPC   NC365051  41.722  33.601   5.166
 5161POPC   PO465052  41.092  33.732   5.360
 5161POPC   GL165053  41.456  33.670   5.678
 5161POPC   GL265054  41.683  33.952   5.604
 5161POPC   C1A65055  41.650  33.478   6.111
 5161POPC   D2A65056  41.873  33.393   6.532
 5161POPC   C3A65057  41.653  33.358   6.910
 5161POPC   C4A65058  41.566  33.533   7.327
 5161POPC   C1B65059  41.660  33.997   6.047
 5161POPC   C2B65060  41.607  33.852   6.486
 5161POPC   C3B65061  41.543  33.847   6.929
 5161POPC   C4B65062  41.803  33.973   7.326
 5162POPC   NC365063  37.249  38.730   5.545
 5162POPC   PO465064  36.608  38.503   5.416
 5162POPC   GL165065  36.827  38.497   5.799
 5162POPC   GL265066  36.790  38.852   5.821
 5162POPC   C1A65067  36.922  38.202   6.159
 5162POPC   D2A65068  37.064  38.061   6.564
 5162POPC   C3A65069  36.764  38.065   6.875
 5162POPC   C4A65070  36.960  38.312   7.141
 5162POPC   C1B65071  36.741  38.719   6.262
 5162POPC   C2B65072  36.809  38.654   6.713
 5162POPC   C3B65073  36.805  38.790   7.120
 5162POPC   C4B65074  36.904  38.685   7.526
 5163POPC   NC365075   8.765   4.125   5.482
 5163POPC   PO465076   9.386   4.280   5.425
 5163POPC   GL165077   9.100   4.409   5.749
 5163POPC   GL265078   8.903   4.684   5.696
 5163POPC   C1A65079   8.925   4.293   6.141
 5163POPC   D2A65080   9.185   4.164   6.486
 5163POPC   C3A65081   8.964   4.215   6.856
 5163POPC   C4A65082   8.999   4.118   7.311
 5163POPC   C1B65083   8.704   4.767   6.095
 5163POPC   C2B65084   8.540   4.545   6.448
 5163POPC   C3B65085   8.621   4.652   6.848
 5163POPC   C4B65086   8.837   4.599   7.192
 5164POPC   NC365087   1.783  40.339   5.234
 5164POPC   PO465088   2.302  39.950   5.445
 5164POPC   GL165089   2.025  40.241   5.690
 5164POPC   GL265090   1.731  40.032   5.726
 5164POPC   C1A65091   1.825  40.353   6.122
 5164POPC   D2A65092   1.987  40.126   6.505
 5164POPC   C3A65093   1.858  40.182   6.953
 5164POPC   C4A65094   2.041  40.107   7.378
 5164POPC   C1B65095   1.655  39.875   6.165
 5164POPC   C2B65096   1.513  39.971   6.626
 5164POPC   C3B65097   1.535  39.788   7.078
 5164POPC   C4B65098   1.460  39.585   7.508
 5165POPC   NC365099  19.537  36.166   5.380
 5165POPC   PO465100  18.979  36.105   4.984
 5165POPC   GL165101  18.881  36.384   5.543
 5165POPC   GL265102  19.059  36.143   5.819
 5165POPC   C1A65103  18.729  36.405   6.066
 5165POPC   D2A65104  18.828  36.403   6.566
 5165POPC   C3A65105  19.079  36.243   6.947
 5165POPC   C4A65106  19.276  36.361   7.341
 5165POPC   C1B65107  18.901  35.902   6.181
 5165POPC   C2B65108  18.983  35.854   6.625
 5165POPC   C3B65109  18.835  35.732   7.031
 5165POPC   C4B65110  18.844  35.975   7.378
 5166POPC   NC365111  26.546  41.904   5.478
 5166POPC   PO465112  26.934  41.265   5.399
 5166POPC   GL165113  26.864  41.520   5.745
 5166POPC   GL265114  26.529  41.451   5.714
 5166POPC   C1A65115  26.857  41.400   6.221
 5166POPC   D2A65116  26.868  41.556   6.667
 5166POPC   C3A65117  26.806  41.388   7.075
 5166POPC   C4A65118  26.978  41.509   7.475
 5166POPC   C1B65119  26.495  41.737   6.089
 5166POPC   C2B65120  26.530  41.909   6.499
 5166POPC   C3B65121  26.687  41.952   6.929
 5166POPC   C4B65122  26.567  41.796   7.329
 5167POPC   NC365123   7.901  36.562   5.638
 5167POPC   PO465124   8.251  37.116   5.412
 5167POPC   GL165125   8.241  37.048   5.847
 5167POPC   GL265126   8.398  36.722   5.789
 5167POPC   C1A65127   8.045  37.201   6.251
 5167POPC   D2A65128   7.999  37.422   6.639
 5167POPC   C3A65129   8.097  37.102   6.938
 5167POPC   C4A65130   7.927  36.665   7.043
 5167POPC   C1B65131   8.369  36.760   6.246
 5167POPC   C2B65132   8.290  36.635   6.676
 5167POPC   C3B65133   8.447  36.750   7.084
 5167POPC   C4B65134   8.666  36.972   7.439
 5168POPC   NC365135   9.827  30.950   5.270
 5168POPC   PO465136   9.853  30.286   5.441
 5168POPC   GL165137   9.842  30.609   5.785
 5168POPC   GL265138   9.651  30.902   5.774
 5168POPC   C1A65139   9.938  30.870   6.197
 5168POPC   D2A65140   9.906  30.917   6.672
 5168POPC   C3A65141   9.821  30.660   7.057
 5168POPC   C4A65142  10.083  30.387   7.296
 5168POPC   C1B65143   9.499  30.599   6.174
 5168POPC   C2B65144   9.451  30.571   6.646
 5168POPC   C3B65145   9.396  30.370   7.066
 5168POPC   C4B65146   9.428  30.443   7.519
 5169POPC   NC365147  16.960  28.322   5.402
 5169POPC   PO465148  16.384  28.618   5.264
 5169POPC   GL165149  16.591  28.391   5.705
 5169POPC   GL265150  16.398  28.156   5.846
 5169POPC   C1A65151  16.942  28.503   6.081
 5169POPC   D2A65152  17.192  28.499   6.516
 5169POPC   C3A65153  16.955  28.549   6.935
 5169POPC   C4A65154  16.600  28.790   7.083
 5169POPC   C1B65155  16.727  28.050   6.162
 5169POPC   C2B65156  16.848  28.143   6.618
 5169POPC   C3B65157  16.617  28.136   7.015
 5169POPC   C4B65158  16.597  28.362   7.428
 5170POPC   NC365159  22.014  13.865   5.426
 5170POPC   PO465160  22.517  13.357   5.306
 5170POPC   GL165161  22.365  13.580   5.683
 5170POPC   GL265162  22.439  13.930   5.725
 5170POPC   C1A65163  22.126  13.627   6.069
 5170POPC   D2A65164  22.168  13.704   6.527
 5170POPC   C3A65165  21.797  13.649   6.790
 5170POPC   C4A65166  21.810  13.396   7.175
 5170POPC   C1B65167  22.415  14.064   6.158
 5170POPC   C2B65168  22.599  13.955   6.547
 5170POPC   C3B65169  22.380  14.048   6.901
 5170POPC   C4B65170  22.163  13.782   7.141
 5171POPC   NC365171   8.832   1.582   5.307
 5171POPC   PO465172   9.156   0.938   5.363
 5171POPC   GL165173   9.125   1.310   5.659
 5171POPC   GL265174   8.838   1.297   5.868
 5171POPC   C1A65175   9.285   1.509   6.036
 5171POPC   D2A65176   8.990   1.440   6.397
 5171POPC   C3A65177   9.033   1.277   6.814
 5171POPC   C4A65178   8.820   1.400   7.175
 5171POPC   C1B65179   9.148   1.026   6.123
 5171POPC   C2B65180   9.337   0.972   6.549
 5171POPC   C3B65181   9.369   0.887   6.986
 5171POPC   C4B65182   9.026   0.937   7.235
 5172POPC   NC365183  14.543  11.588   5.211
 5172POPC   PO465184  13.969  11.263   5.209
 5172POPC   GL165185  14.207  11.400   5.641
 5172POPC   GL265186  14.557  11.556   5.713
 5172POPC   C1A65187  14.328  11.251   6.103
 5172POPC   D2A65188  14.448  11.043   6.525
 5172POPC   C3A65189  14.501  11.246   6.954
 5172POPC   C4A65190  14.354  11.290   7.399
 5172POPC   C1B65191  14.785  11.525   6.099
 5172POPC   C2B65192  14.719  11.524   6.537
 5172POPC   C3B65193  14.823  11.751   6.916
 5172POPC   C4B65194  14.751  11.583   7.307
 5173POPC   NC365195  44.587  43.519   5.402
 5173POPC   PO465196  44.750  42.859   5.544
 5173POPC   GL165197  44.631  43.169   5.769
 5173POPC   GL265198  44.931  43.312   5.766
 5173POPC   C1A65199  44.443  43.208   6.150
 5173POPC   D2A65200  44.599  43.317   6.527
 5173POPC   C3A65201  44.379  43.302   6.890
 5173POPC   C4A65202  44.538  43.251   7.285
 5173POPC   C1B65203  44.980  43.224   6.177
 5173POPC   C2B65204   0.056  43.039   6.574
 5173POPC   C3B65205  44.918  43.250   6.926
 5173POPC   C4B65206   0.027  43.252   7.344
 5174POPC   NC365207  42.391   3.859   5.588
 5174POPC   PO465208  42.146   4.474   5.272
 5174POPC   GL165209  42.233   4.490   5.694
 5174POPC   GL265210  42.559   4.323   5.749
 5174POPC   C1A65211  42.216   4.427   6.123
 5174POPC   D2A65212  42.151   4.100   6.434
 5174POPC   C3A65213  42.222   4.195   6.879
 5174POPC   C4A65214  42.251   3.997   7.268
 5174POPC   C1B65215  42.627   4.142   6.193
 5174POPC   C2B65216  42.571   4.406   6.546
 5174POPC   C3B65217  42.605   4.654   6.896
 5174POPC   C4B65218  42.442   4.464   7.280
 5175POPC   NC365219   7.253  42.759   5.238
 5175POPC   PO465220   7.732  42.351   5.329
 5175POPC   GL165221   7.470  42.500   5.660
 5175POPC   GL265222   7.554  42.184   5.799
 5175POPC   C1A65223   7.344  42.549   6.113
 5175POPC   D2A65224   7.286  42.328   6.505
 5175POPC   C3A65225   7.327  42.560   6.879
 5175POPC   C4A65226   7.121  42.431   7.255
 5175POPC   C1B65227   7.576  41.988   6.170
 5175POPC   C2B65228   7.707  42.051   6.563
 5175POPC   C3B65229   7.493  42.057   6.924
 5175POPC   C4B65230   7.642  42.020   7.309
 5176POPC   NC365231  14.060  38.240   5.329
 5176POPC   PO465232  14.631  38.522   5.298
 5176POPC   GL165233  14.485  38.636   5.739
 5176POPC   GL265234  14.289  38.333   5.810
 5176POPC   C1A65235  14.565  38.560   6.202
 5176POPC   D2A65236  14.497  38.342   6.606
 5176POPC   C3A65237  14.678  38.483   6.996
 5176POPC   C4A65238  14.610  38.199   7.346
 5176POPC   C1B65239  14.281  38.087   6.215
 5176POPC   C2B65240  14.098  37.983   6.649
 5176POPC   C3B65241  14.117  37.964   7.132
 5176POPC   C4B65242  14.159  38.115   7.574
 5177POPC   NC365243  26.097  34.247   5.245
 5177POPC   PO465244  25.720  33.764   5.306
 5177POPC   GL165245  25.825  33.972   5.719
 5177POPC   GL265246  26.189  33.995   5.817
 5177POPC   C1A65247  25.819  33.833   6.166
 5177POPC   D2A65248  25.774  33.667   6.596
 5177POPC   C3A65249  26.061  33.816   6.901
 5177POPC   C4A65250  25.951  33.990   7.267
 5177POPC   C1B65251  26.346  33.833   6.253
 5177POPC   C2B65252  26.549  33.891   6.691
 5177POPC   C3B65253  26.527  33.752   7.149
 5177POPC   C4B65254  26.280  33.552   7.475
 5178POPC   NC365255  26.012  23.056   5.165
 5178POPC   PO465256  25.654  22.548   5.359
 5178POPC   GL165257  25.919  22.821   5.699
 5178POPC   GL265258  26.103  23.149   5.710
 5178POPC   C1A65259  26.128  22.795   6.112
 5178POPC   D2A65260  26.097  22.611   6.540
 5178POPC   C3A65261  25.757  22.744   6.872
 5178POPC   C4A65262  25.782  22.940   7.324
 5178POPC   C1B65263  25.964  23.280   6.128
 5178POPC   C2B65264  25.984  23.108   6.547
 5178POPC   C3B65265  26.102  23.115   6.980
 5178POPC   C4B65266  26.039  23.436   7.289
 5179POPC   NC365267  41.300  25.558   5.439
 5179POPC   PO465268  41.844  25.187   5.380
 5179POPC   GL165269  41.548  25.218   5.746
 5179POPC   GL265270  41.736  25.512   5.783
 5179POPC   C1A65271  41.348  25.491   6.111
 5179POPC   D2A65272  41.534  25.643   6.513
 5179POPC   C3A65273  41.498  25.270   6.779
 5179POPC   C4A65274  41.472  25.180   7.221
 5179POPC   C1B65275  41.859  25.356   6.186
 5179POPC   C2B65276  41.995  25.403   6.613
 5179POPC   C3B65277  41.891  25.480   7.019
 5179POPC   C4B65278  41.977  25.156   7.257
 5180POPC   NC365279  10.597  10.927   5.422
 5180POPC   PO465280  10.680  11.538   5.148
 5180POPC   GL165281  10.628  11.448   5.629
 5180POPC   GL265282  10.947  11.299   5.747
 5180POPC   C1A65283  10.409  11.418   6.074
 5180POPC   D2A65284  10.320  11.404   6.554
 5180POPC   C3A65285  10.648  11.285   6.901
 5180POPC   C4A65286  10.718  10.887   7.159
 5180POPC   C1B65287  10.895  11.592   6.112
 5180POPC   C2B65288  10.908  11.621   6.572
 5180POPC   C3B65289  10.928  11.754   7.025
 5180POPC   C4B65290  10.879  11.454   7.353
 5181POPC   NC365291  35.151   2.457   5.505
 5181POPC   PO465292  35.440   1.793   5.432
 5181POPC   GL165293  35.241   1.730   5.811
 5181POPC   GL265294  35.091   2.050   5.813
 5181POPC   C1A65295  35.372   1.860   6.211
 5181POPC   D2A65296  35.444   2.171   6.514
 5181POPC   C3A65297  35.406   1.955   6.889
 5181POPC   C4A65298  35.216   1.705   7.178
 5181POPC   C1B65299  34.875   2.311   6.106
 5181POPC   C2B65300  34.843   2.270   6.536
 5181POPC   C3B65301  34.970   2.256   6.952
 5181POPC   C4B65302  35.202   2.496   7.250
 5182POPC   NC365303  37.859  29.601   5.513
 5182POPC   PO465304  37.407  30.115   5.260
 5182POPC   GL165305  37.488  29.915   5.654
 5182POPC   GL265306  37.682  30.181   5.835
 5182POPC   C1A65307  37.556  29.754   6.094
 5182POPC   D2A65308  37.438  29.982   6.473
 5182POPC   C3A65309  37.460  29.828   6.891
 5182POPC   C4A65310  37.516  29.636   7.328
 5182POPC   C1B65311  37.904  30.113   6.256
 5182POPC   C2B65312  37.943  30.058   6.711
 5182POPC   C3B65313  37.927  29.793   7.088
 5182POPC   C4B65314  37.881  29.941   7.525
 5183POPC   NC365315   7.539  38.288   5.399
 5183POPC   PO465316   7.965  37.845   5.661
 5183POPC   GL165317   7.611  38.064   5.930
 5183POPC   GL265318   7.401  38.383   5.883
 5183POPC   C1A65319   7.570  38.304   6.344
 5183POPC   D2A65320   7.255  38.474   6.609
 5183POPC   C3A65321   7.288  38.312   6.988
 5183POPC   C4A65322   7.462  38.456   7.313
 5183POPC   C1B65323   7.263  38.717   6.156
 5183POPC   C2B65324   7.276  38.980   6.549
 5183POPC   C3B65325   7.328  38.855   6.981
 5183POPC   C4B65326   7.228  38.922   7.444
 5184POPC   NC365327   8.832  33.730   4.876
 5184POPC   PO465328   9.225  33.897   5.402
 5184POPC   GL165329   9.090  33.812   5.795
 5184POPC   GL265330   8.752  33.907   5.745
 5184POPC   C1A65331   8.972  33.973   6.200
 5184POPC   D2A65332   9.106  33.884   6.587
 5184POPC   C3A65333   9.009  34.045   6.952
 5184POPC   C4A65334   8.879  33.873   7.327
 5184POPC   C1B65335   8.679  33.564   6.012
 5184POPC   C2B65336   8.706  33.534   6.453
 5184POPC   C3B65337   8.719  33.613   6.894
 5184POPC   C4B65338   8.728  33.393   7.297
 5185POPC   NC365339  24.725  16.337   5.262
 5185POPC   PO465340  24.624  17.012   5.207
 5185POPC   GL165341  24.580  16.947   5.671
 5185POPC   GL265342  24.486  16.596   5.698
 5185POPC   C1A65343  24.484  16.950   6.130
 5185POPC   D2A65344  24.690  17.076   6.511
 5185POPC   C3A65345  24.472  17.008   6.931
 5185POPC   C4A65346  24.494  16.730   7.304
 5185POPC   C1B65347  24.302  16.484   6.121
 5185POPC   C2B65348  24.457  16.603   6.559
 5185POPC   C3B65349  24.557  16.352   6.948
 5185POPC   C4B65350  24.258  16.251   7.274
 5186POPC   NC365351  28.823   7.845   5.634
 5186POPC   PO465352  29.214   8.123   5.209
 5186POPC   GL165353  29.269   8.170   5.675
 5186POPC   GL265354  28.984   8.298   5.819
 5186POPC   C1A65355  29.305   8.042   6.150
 5186POPC   D2A65356  29.376   8.212   6.595
 5186POPC   C3A65357  29.327   8.010   6.999
 5186POPC   C4A65358  29.093   8.058   7.428
 5186POPC   C1B65359  28.792   8.134   6.226
 5186POPC   C2B65360  28.672   8.173   6.645
 5186POPC   C3B65361  28.891   8.272   7.027
 5186POPC   C4B65362  28.983   8.619   7.395
 5187POPC   NC365363   4.347   5.132   5.286
 5187POPC   PO465364   4.753   5.506   5.614
 5187POPC   GL165365   4.484   5.202   5.778
 5187POPC   GL265366   4.124   5.253   5.767
 5187POPC   C1A65367   4.397   5.033   6.181
 5187POPC   D2A65368   4.259   5.250   6.557
 5187POPC   C3A65369   4.374   5.123   6.977
 5187POPC   C4A65370   4.392   4.800   7.263
 5187POPC   C1B65371   3.765   5.363   6.007
 5187POPC   C2B65372   3.794   5.420   6.435
 5187POPC   C3B65373   3.838   5.371   6.867
 5187POPC   C4B65374   3.993   5.387   7.281
 5188POPC   NC365375  12.471  37.769   5.202
 5188POPC   PO465376  11.953  38.196   4.943
 5188POPC   GL165377  12.028  38.019   5.448
 5188POPC   GL265378  12.340  37.968   5.673
 5188POPC   C1A65379  11.916  38.094   5.951
 5188POPC   D2A65380  11.677  37.999   6.365
 5188POPC   C3A65381  11.787  37.745   6.753
 5188POPC   C4A65382  11.745  37.877   7.183
 5188POPC   C1B65383  12.318  37.840   6.140
 5188POPC   C2B65384  12.458  37.818   6.575
 5188POPC   C3B65385  12.340  37.960   6.968
 5188POPC   C4B65386  12.218  37.599   7.140
 5189POPC   NC365387  34.132  26.853   5.360
 5189POPC   PO465388  34.605  27.244   5.183
 5189POPC   GL165389  34.762  27.064   5.638
 5189POPC   GL265390  34.523  26.813   5.741
 5189POPC   C1A65391  34.912  26.992   6.086
 5189POPC   D2A65392  34.709  26.934   6.485
 5189POPC   C3A65393  34.755  26.980   6.929
 5189POPC   C4A65394  34.819  26.808   7.342
 5189POPC   C1B65395  34.414  26.674   6.173
 5189POPC   C2B65396  34.520  26.491   6.639
 5189POPC   C3B65397  34.419  26.596   7.102
 5189POPC   C4B65398  34.308  26.734   7.556
 5190POPC   NC365399  37.092  19.506   5.430
 5190POPC   PO465400  36.610  20.000   5.426
 5190POPC   GL165401  36.922  19.903   5.726
 5190POPC   GL265402  37.245  20.035   5.619
 5190POPC   C1A65403  36.850  19.730   6.134
 5190POPC   D2A65404  36.610  19.831   6.496
 5190POPC   C3A65405  36.733  19.609   6.842
 5190POPC   C4A65406  36.779  19.694   7.244
 5190POPC   C1B65407  37.263  20.047   6.096
 5190POPC   C2B65408  37.087  19.999   6.548
 5190POPC   C3B65409  37.209  20.001   7.013
 5190POPC   C4B65410  37.127  19.993   7.477
 5191POPC   NC365411  35.874   3.643   5.440
 5191POPC   PO465412  36.397   3.306   5.459
 5191POPC   GL165413  36.217   3.462   5.837
 5191POPC   GL265414  36.300   3.779   5.739
 5191POPC   C1A65415  36.074   3.538   6.271
 5191POPC   D2A65416  35.905   3.282   6.601
 5191POPC   C3A65417  35.810   3.591   6.889
 5191POPC   C4A65418  35.958   3.807   7.249
 5191POPC   C1B65419  36.429   3.888   6.142
 5191POPC   C2B65420  36.312   4.148   6.521
 5191POPC   C3B65421  36.391   4.003   6.954
 5191POPC   C4B65422  36.487   3.892   7.378
 5192POPC   NC365423  34.163  14.692   5.421
 5192POPC   PO465424  33.388  14.667   5.447
 5192POPC   GL165425  33.694  14.566   5.806
 5192POPC   GL265426  34.055  14.665   5.913
 5192POPC   C1A65427  33.873  14.245   6.137
 5192POPC   D2A65428  34.127  14.347   6.514
 5192POPC   C3A65429  33.945  14.213   6.924
 5192POPC   C4A65430  33.680  14.347   7.248
 5192POPC   C1B65431  33.787  14.775   6.258
 5192POPC   C2B65432  33.679  14.963   6.636
 5192POPC   C3B65433  33.565  14.810   7.049
 5192POPC   C4B65434  33.649  14.792   7.486
 5193POPC   NC365435  26.000   2.772   5.206
 5193POPC   PO465436  26.314   3.252   5.564
 5193POPC   GL165437  25.995   2.922   5.702
 5193POPC   GL265438  26.043   2.539   5.678
 5193POPC   C1A65439  25.812   2.854   6.119
 5193POPC   D2A65440  25.872   2.611   6.528
 5193POPC   C3A65441  25.850   2.823   6.934
 5193POPC   C4A65442  25.596   3.012   7.277
 5193POPC   C1B65443  26.218   2.522   6.122
 5193POPC   C2B65444  26.302   2.326   6.562
 5193POPC   C3B65445  26.266   2.491   7.009
 5193POPC   C4B65446  26.495   2.638   7.413
 5194POPC   NC365447  34.453   0.684   5.141
 5194POPC   PO465448  34.660   0.204   5.544
 5194POPC   GL165449  34.437   0.343   5.896
 5194POPC   GL265450  34.703   0.494   6.007
 5194POPC   C1A65451  34.384   0.415   6.370
 5194POPC   D2A65452  34.774   0.446   6.558
 5194POPC   C3A65453  34.777   0.263   6.935
 5194POPC   C4A65454  34.407   0.355   7.173
 5194POPC   C1B65455  34.945   0.805   6.172
 5194POPC   C2B65456  34.969   0.932   6.578
 5194POPC   C3B65457  34.997   0.740   6.979
 5194POPC   C4B65458  34.660   0.772   7.251
 5195POPC   NC365459   2.871  13.453   5.634
 5195POPC   PO465460   2.533  13.975   5.505
 5195POPC   GL165461   2.432  13.875   5.864
 5195POPC   GL265462   2.399  13.541   5.894
 5195POPC   C1A65463   2.696  13.804   6.217
 5195POPC   D2A65464   2.811  13.569   6.539
 5195POPC   C3A65465   2.790  13.814   6.844
 5195POPC   C4A65466   2.761  13.763   7.232
 5195POPC   C1B65467   2.511  13.296   6.219
 5195POPC   C2B65468   2.510  13.143   6.611
 5195POPC   C3B65469   2.690  13.293   6.968
 5195POPC   C4B65470   2.458  13.363   7.333
 5196POPC   NC365471   6.274  22.597   5.597
 5196POPC   PO465472   6.822  23.001   5.375
 5196POPC   GL165473   6.627  22.970   5.809
 5196POPC   GL265474   6.291  22.963   5.955
 5196POPC   C1A65475   6.676  22.898   6.280
 5196POPC   D2A65476   6.620  22.791   6.713
 5196POPC   C3A65477   6.737  23.080   7.026
 5196POPC   C4A65478   6.710  22.937   7.447
 5196POPC   C1B65479   6.225  22.619   6.232
 5196POPC   C2B65480   6.247  22.463   6.638
 5196POPC   C3B65481   6.192  22.664   7.054
 5196POPC   C4B65482   6.355  22.604   7.497
 5197POPC   NC365483  44.176  16.462   5.553
 5197POPC   PO465484  43.566  16.820   5.436
 5197POPC   GL165485  43.805  16.725   5.833
 5197POPC   GL265486  44.147  16.878   5.868
 5197POPC   C1A65487  43.715  16.446   6.202
 5197POPC   D2A65488  43.411  16.305   6.522
 5197POPC   C3A65489  43.666  16.249   6.875
 5197POPC   C4A65490  43.911  16.477   7.174
 5197POPC   C1B65491  44.184  16.682   6.261
 5197POPC   C2B65492  44.037  16.650   6.678
 5197POPC   C3B65493  44.188  16.864   7.025
 5197POPC   C4B65494  44.018  16.916   7.413
 5198POPC   NC365495  43.052  21.666   5.838
 5198POPC   PO465496  42.860  21.271   5.358
 5198POPC   GL165497  43.002  21.168   5.829
 5198POPC   GL265498  43.355  21.278   5.965
 5198POPC   C1A65499  42.858  21.069   6.241
 5198POPC   D2A65500  42.915  20.953   6.678
 5198POPC   C3A65501  42.724  21.083   7.037
 5198POPC   C4A65502  42.796  21.217   7.476
 5198POPC   C1B65503  43.331  21.293   6.423
 5198POPC   C2B65504  43.222  21.351   6.869
 5198POPC   C3B65505  43.119  21.537   7.265
 5198POPC   C4B65506  43.389  21.679   7.612
 5199POPC   NC365507  30.517  24.488   5.284
 5199POPC   PO465508  30.445  25.098   5.236
 5199POPC   GL165509  30.596  24.809   5.669
 5199POPC   GL265510  30.817  24.967   5.950
 5199POPC   C1A65511  30.732  24.493   6.032
 5199POPC   D2A65512  30.830  24.627   6.484
 5199POPC   C3A65513  30.790  24.346   6.822
 5199POPC   C4A65514  30.827  24.303   7.286
 5199POPC   C1B65515  30.494  24.955   6.247
 5199POPC   C2B65516  30.432  24.925   6.676
 5199POPC   C3B65517  30.655  24.911   7.035
 5199POPC   C4B65518  30.486  24.691   7.376
 5200POPC   NC365519   6.050  21.077   5.405
 5200POPC   PO465520   5.708  21.676   5.375
 5200POPC   GL165521   5.748  21.362   5.734
 5200POPC   GL265522   6.051  21.394   5.834
 5200POPC   C1A65523   5.602  21.189   6.152
 5200POPC   D2A65524   5.381  21.117   6.570
 5200POPC   C3A65525   5.527  21.275   6.998
 5200POPC   C4A65526   5.655  21.284   7.472
 5200POPC   C1B65527   6.113  21.198   6.251
 5200POPC   C2B65528   5.911  21.073   6.655
 5200POPC   C3B65529   5.962  21.055   7.127
 5200POPC   C4B65530   6.061  20.954   7.582
 5201POPC   NC365531   9.404  41.025   5.497
 5201POPC   PO465532  10.045  40.915   5.589
 5201POPC   GL165533   9.695  40.715   5.841
 5201POPC   GL265534   9.457  40.951   5.983
 5201POPC   C1A65535   9.637  40.456   6.231
 5201POPC   D2A65536   9.937  40.456   6.593
 5201POPC   C3A65537   9.828  40.536   7.007
 5201POPC   C4A65538   9.691  40.724   7.416
 5201POPC   C1B65539   9.230  40.848   6.317
 5201POPC   C2B65540   9.510  40.760   6.640
 5201POPC   C3B65541   9.456  40.917   7.005
 5201POPC   C4B65542   9.247  41.023   7.363
 5202POPC   NC365543  16.327  14.879   5.393
 5202POPC   PO465544  16.934  15.141   5.402
 5202POPC   GL165545  16.763  15.149   5.801
 5202POPC   GL265546  16.462  15.302   5.692
 5202POPC   C1A65547  16.831  14.992   6.231
 5202POPC   D2A65548  17.039  15.130   6.619
 5202POPC   C3A65549  16.786  15.004   6.964
 5202POPC   C4A65550  16.708  15.234   7.316
 5202POPC   C1B65551  16.385  15.251   6.145
 5202POPC   C2B65552  16.531  15.275   6.572
 5202POPC   C3B65553  16.335  15.255   6.956
 5202POPC   C4B65554  16.306  14.942   7.265
 5203POPC   NC365555   7.942  19.782   5.300
 5203POPC   PO465556   8.541  20.014   5.267
 5203POPC   GL165557   8.310  19.942   5.646
 5203POPC   GL265558   8.483  20.087   5.899
 5203POPC   C1A65559   8.180  19.679   6.040
 5203POPC   D2A65560   7.991  19.684   6.485
 5203POPC   C3A65561   8.185  19.612   6.913
 5203POPC   C4A65562   7.957  19.680   7.260
 5203POPC   C1B65563   8.048  20.150   6.055
 5203POPC   C2B65564   8.015  20.238   6.494
 5203POPC   C3B65565   8.020  20.087   6.898
 5203POPC   C4B65566   8.217  20.125   7.295
 5204POPC   NC365567  15.279  43.259   5.426
 5204POPC   PO465568  14.937  42.686   5.394
 5204POPC   GL165569  15.111  42.892   5.768
 5204POPC   GL265570  15.416  42.690   5.714
 5204POPC   C1A65571  15.074  43.148   6.205
 5204POPC   D2A65572  14.993  43.128   6.690
 5204POPC   C3A65573  15.177  43.428   6.977
 5204POPC   C4A65574  15.355  43.378   7.408
 5204POPC   C1B65575  15.544  42.891   6.083
 5204POPC   C2B65576  15.417  42.888   6.496
 5204POPC   C3B65577  15.503  43.055   6.893
 5204POPC   C4B65578  15.446  42.896   7.291
 5205POPC   NC365579  34.340  27.609   5.122
 5205POPC   PO465580  34.818  27.791   5.540
 5205POPC   GL165581  34.569  27.605   5.817
 5205POPC   GL265582  34.332  27.339   5.662
 5205POPC   C1A65583  34.478  27.760   6.239
 5205POPC   D2A65584  34.683  27.730   6.637
 5205POPC   C3A65585  34.810  28.013   6.945
 5205POPC   C4A65586  34.578  28.021   7.291
 5205POPC   C1B65587  34.433  27.212   6.102
 5205POPC   C2B65588  34.381  27.304   6.547
 5205POPC   C3B65589  34.453  27.416   6.975
 5205POPC   C4B65590  34.420  27.130   7.269
 5206POPC   NC365591   9.455   2.933   5.026
 5206POPC   PO465592   8.781   2.944   5.327
 5206POPC   GL165593   8.814   2.749   5.678
 5206POPC   GL265594   9.137   2.707   5.674
 5206POPC   C1A65595   8.776   2.730   6.102
 5206POPC   D2A65596   8.730   2.878   6.507
 5206POPC   C3A65597   8.936   2.758   6.860
 5206POPC   C4A65598   8.789   2.672   7.245
 5206POPC   C1B65599   9.235   2.926   6.043
 5206POPC   C2B65600   9.318   2.898   6.467
 5206POPC   C3B65601   9.381   2.992   6.877
 5206POPC   C4B65602   9.286   2.808   7.261
 5207POPC   NC365603   9.950  36.683   5.410
 5207POPC   PO465604   9.344  37.012   5.474
 5207POPC   GL165605   9.644  36.926   5.773
 5207POPC   GL265606   9.969  37.099   5.705
 5207POPC   C1A65607   9.539  36.915   6.237
 5207POPC   D2A65608   9.598  37.111   6.642
 5207POPC   C3A65609   9.587  36.867   7.016
 5207POPC   C4A65610   9.697  36.975   7.420
 5207POPC   C1B65611  10.006  36.832   6.102
 5207POPC   C2B65612   9.956  36.762   6.563
 5207POPC   C3B65613  10.088  36.806   6.999
 5207POPC   C4B65614  10.189  36.782   7.433
 5208POPC   NC365615  30.122   9.359   5.644
 5208POPC   PO465616  29.759   9.843   5.394
 5208POPC   GL165617  29.851   9.739   5.807
 5208POPC   GL265618  29.636   9.464   5.913
 5208POPC   C1A65619  30.116   9.882   6.160
 5208POPC   D2A65620  29.959  10.038   6.542
 5208POPC   C3A65621  30.207  10.010   6.905
 5208POPC   C4A65622  30.056  10.134   7.292
 5208POPC   C1B65623  29.878   9.448   6.282
 5208POPC   C2B65624  29.971   9.531   6.709
 5208POPC   C3B65625  29.882   9.535   7.151
 5208POPC   C4B65626  29.675   9.377   7.577
 5209POPC   NC365627   6.878  12.288   5.418
 5209POPC   PO465628   6.472  11.800   5.574
 5209POPC   GL165629   6.764  12.020   5.885
 5209POPC   GL265630   6.884  12.396   5.914
 5209POPC   C1A65631   6.678  12.148   6.333
 5209POPC   D2A65632   6.725  12.243   6.788
 5209POPC   C3A65633   6.366  12.223   7.082
 5209POPC   C4A65634   6.365  12.103   7.515
 5209POPC   C1B65635   7.123  12.421   6.308
 5209POPC   C2B65636   7.171  12.487   6.744
 5209POPC   C3B65637   7.150  12.211   7.121
 5209POPC   C4B65638   6.789  11.957   7.216
 5210POPC   NC365639   0.951  43.455   5.520
 5210POPC   PO465640   0.286  43.366   5.427
 5210POPC   GL165641   0.479  43.289   5.845
 5210POPC   GL265642   0.813  43.420   5.999
 5210POPC   C1A65643   0.477  43.202   6.299
 5210POPC   D2A65644   0.592  43.303   6.723
 5210POPC   C3A65645   0.396  43.049   7.053
 5210POPC   C4A65646   0.451  43.065   7.512
 5210POPC   C1B65647   0.953  43.010   6.155
 5210POPC   C2B65648   0.741  42.794   6.446
 5210POPC   C3B65649   0.828  42.850   6.852
 5210POPC   C4B65650   0.887  43.008   7.256
 5211POPC   NC365651  12.179  43.216   5.307
 5211POPC   PO465652  11.635  43.007   5.574
 5211POPC   GL165653  11.919  42.890   5.863
 5211POPC   GL265654  12.215  42.816   5.666
 5211POPC   C1A65655  11.928  42.872   6.312
 5211POPC   D2A65656  12.019  43.150   6.635
 5211POPC   C3A65657  11.966  43.009   7.060
 5211POPC   C4A65658  12.029  43.258   7.423
 5211POPC   C1B65659  12.387  42.786   6.083
 5211POPC   C2B65660  12.373  42.613   6.493
 5211POPC   C3B65661  12.382  42.756   6.909
 5211POPC   C4B65662  12.393  42.868   7.334
 5212POPC   NC365663   6.811  17.960   5.534
 5212POPC   PO465664   6.479  18.560   5.386
 5212POPC   GL165665   6.517  18.272   5.807
 5212POPC   GL265666   6.796  18.007   6.017
 5212POPC   C1A65667   6.428  18.256   6.252
 5212POPC   D2A65668   6.691  18.328   6.621
 5212POPC   C3A65669   6.608  18.576   6.964
 5212POPC   C4A65670   6.538  18.424   7.347
 5212POPC   C1B65671   6.836  17.889   6.413
 5212POPC   C2B65672   6.455  17.873   6.619
 5212POPC   C3B65673   6.503  18.004   7.017
 5212POPC   C4B65674   6.921  18.145   7.110
 5213POPC   NC365675  44.944  41.563   5.688
 5213POPC   PO465676  44.349  41.246   5.528
 5213POPC   GL165677  44.492  41.423   5.884
 5213POPC   GL265678  44.359  41.707   5.942
 5213POPC   C1A65679  44.733  41.334   6.259
 5213POPC   D2A65680  44.904  41.572   6.632
 5213POPC   C3A65681  44.897  41.443   7.072
 5213POPC   C4A65682  44.727  41.442   7.499
 5213POPC   C1B65683  44.660  41.835   6.241
 5213POPC   C2B65684  44.722  42.076   6.578
 5213POPC   C3B65685  44.499  41.908   6.864
 5213POPC   C4B65686  44.595  41.872   7.262
 5214POPC   NC365687   6.752  16.969   5.415
 5214POPC   PO465688   7.064  16.365   5.352
 5214POPC   GL165689   6.828  16.553   5.714
 5214POPC   GL265690   6.466  16.493   5.773
 5214POPC   C1A65691   6.796  16.703   6.128
 5214POPC   D2A65692   6.818  16.924   6.506
 5214POPC   C3A65693   6.903  16.751   6.932
 5214POPC   C4A65694   6.682  16.641   7.308
 5214POPC   C1B65695   6.319  16.546   6.191
 5214POPC   C2B65696   6.516  16.519   6.618
 5214POPC   C3B65697   6.266  16.512   7.032
 5214POPC   C4B65698   6.232  16.364   7.463
 5215POPC   NC365699  38.614   1.379   5.383
 5215POPC   PO465700  38.061   1.075   5.130
 5215POPC   GL165701  38.127   1.113   5.646
 5215POPC   GL265702  38.379   1.350   5.823
 5215POPC   C1A65703  38.063   1.167   6.157
 5215POPC   D2A65704  38.326   1.268   6.541
 5215POPC   C3A65705  38.167   1.261   6.979
 5215POPC   C4A65706  38.436   1.132   7.301
 5215POPC   C1B65707  38.729   1.511   6.101
 5215POPC   C2B65708  38.741   1.617   6.544
 5215POPC   C3B65709  38.727   1.336   6.906
 5215POPC   C4B65710  38.794   1.470   7.311
 5216POPC   NC365711  37.690  18.492   5.436
 5216POPC   PO465712  37.480  17.979   5.749
 5216POPC   GL165713  37.820  18.244   5.871
 5216POPC   GL265714  38.049  18.507   5.804
 5216POPC   C1A65715  37.690  18.485   6.217
 5216POPC   D2A65716  37.507  18.314   6.595
 5216POPC   C3A65717  37.538  18.602   6.941
 5216POPC   C4A65718  37.359  18.614   7.347
 5216POPC   C1B65719  38.186  18.409   6.218
 5216POPC   C2B65720  38.042  18.369   6.601
 5216POPC   C3B65721  37.867  18.192   6.963
 5216POPC   C4B65722  37.785  18.365   7.337
 5217POPC   NC365723   8.723  41.307   5.345
 5217POPC   PO465724   9.078  40.693   5.466
 5217POPC   GL165725   8.967  40.810   5.853
 5217POPC   GL265726   8.977  41.160   5.799
 5217POPC   C1A65727   8.715  40.671   6.201
 5217POPC   D2A65728   8.670  40.828   6.612
 5217POPC   C3A65729   8.941  40.718   6.918
 5217POPC   C4A65730   8.815  40.634   7.318
 5217POPC   C1B65731   8.755  41.181   6.194
 5217POPC   C2B65732   8.878  41.326   6.634
 5217POPC   C3B65733   8.782  41.175   7.071
 5217POPC   C4B65734   8.721  41.135   7.514
 5218POPC   NC365735   4.167   6.813   5.230
 5218POPC   PO465736   4.061   6.211   5.459
 5218POPC   GL165737   4.193   6.557   5.714
 5218POPC   GL265738   4.501   6.547   5.845
 5218POPC   C1A65739   4.098   6.588   6.164
 5218POPC   D2A65740   3.948   6.295   6.426
 5218POPC   C3A65741   3.893   6.348   6.851
 5218POPC   C4A65742   3.910   6.614   7.209
 5218POPC   C1B65743   4.572   6.745   6.216
 5218POPC   C2B65744   4.313   6.935   6.501
 5218POPC   C3B65745   4.267   6.735   6.865
 5218POPC   C4B65746   4.552   6.873   7.141
 5219POPC   NC365747  25.336  38.054   5.407
 5219POPC   PO465748  25.166  37.415   5.407
 5219POPC   GL165749  25.277  37.686   5.769
 5219POPC   GL265750  25.039  37.952   5.824
 5219POPC   C1A65751  25.373  37.539   6.172
 5219POPC   D2A65752  25.108  37.341   6.494
 5219POPC   C3A65753  25.196  37.501   6.892
 5219POPC   C4A65754  25.223  37.338   7.267
 5219POPC   C1B65755  24.913  37.733   6.209
 5219POPC   C2B65756  25.070  37.892   6.592
 5219POPC   C3B65757  24.935  37.930   7.008
 5219POPC   C4B65758  25.105  37.950   7.410
 5220POPC   NC365759  26.403  19.131   5.143
 5220POPC   PO465760  26.976  19.264   5.533
 5220POPC   GL165761  26.925  18.946   5.867
 5220POPC   GL265762  27.235  18.720   5.902
 5220POPC   C1A65763  26.734  19.123   6.281
 5220POPC   D2A65764  26.802  19.434   6.615
 5220POPC   C3A65765  26.831  19.200   6.963
 5220POPC   C4A65766  26.698  18.806   7.161
 5220POPC   C1B65767  27.168  18.865   6.292
 5220POPC   C2B65768  26.943  18.811   6.655
 5220POPC   C3B65769  27.181  18.814   7.007
 5220POPC   C4B65770  27.203  18.650   7.394
 5221POPC   NC365771  41.043  19.420   5.183
 5221POPC   PO465772  40.800  20.109   5.285
 5221POPC   GL165773  40.846  19.773   5.634
 5221POPC   GL265774  40.971  20.002   5.909
 5221POPC   C1A65775  40.699  19.628   6.075
 5221POPC   D2A65776  40.857  19.855   6.463
 5221POPC   C3A65777  40.801  19.722   6.900
 5221POPC   C4A65778  40.542  19.428   7.136
 5221POPC   C1B65779  41.180  20.189   6.251
 5221POPC   C2B65780  41.021  20.335   6.652
 5221POPC   C3B65781  41.088  20.192   7.077
 5221POPC   C4B65782  40.954  19.990   7.438
 5222POPC   NC365783  20.921   4.527   5.273
 5222POPC   PO465784  20.364   4.124   5.511
 5222POPC   GL165785  20.588   3.995   5.876
 5222POPC   GL265786  20.767   4.297   5.825
 5222POPC   C1A65787  20.937   4.060   6.245
 5222POPC   D2A65788  20.939   4.387   6.588
 5222POPC   C3A65789  20.776   4.226   6.982
 5222POPC   C4A65790  20.676   4.326   7.411
 5222POPC   C1B65791  20.509   4.322   6.249
 5222POPC   C2B65792  20.418   4.404   6.661
 5222POPC   C3B65793  20.440   4.608   7.059
 5222POPC   C4B65794  20.099   4.653   7.341
 5223POPC   NC365795  32.418   6.062   5.489
 5223POPC   PO465796  32.034   5.493   5.295
 5223POPC   GL165797  32.060   5.756   5.719
 5223POPC   GL265798  32.420   5.723   5.870
 5223POPC   C1A65799  32.061   5.872   6.194
 5223POPC   D2A65800  32.358   5.799   6.525
 5223POPC   C3A65801  32.266   5.931   6.921
 5223POPC   C4A65802  31.986   5.813   7.219
 5223POPC   C1B65803  32.500   6.113   6.134
 5223POPC   C2B65804  32.659   6.250   6.545
 5223POPC   C3B65805  32.538   6.392   6.956
 5223POPC   C4B65806  32.260   6.280   7.307
 5224POPC   NC365807  17.534   1.375   5.303
 5224POPC   PO465808  17.194   0.827   5.376
 5224POPC   GL165809  17.300   1.046   5.791
 5224POPC   GL265810  17.491   1.340   5.808
 5224POPC   C1A65811  17.147   1.297   6.162
 5224POPC   D2A65812  17.316   1.611   6.465
 5224POPC   C3A65813  17.324   1.500   6.938
 5224POPC   C4A65814  17.266   1.243   7.322
 5224POPC   C1B65815  17.658   1.212   6.220
 5224POPC   C2B65816  17.692   1.324   6.635
 5224POPC   C3B65817  17.827   1.293   7.044
 5224POPC   C4B65818  17.676   1.517   7.372
 5225POPC   NC365819  13.351   8.144   5.385
 5225POPC   PO465820  13.995   8.133   5.343
 5225POPC   GL165821  13.722   8.134   5.741
 5225POPC   GL265822  13.457   8.411   5.822
 5225POPC   C1A65823  13.903   8.094   6.148
 5225POPC   D2A65824  13.961   8.274   6.550
 5225POPC   C3A65825  13.988   8.038   6.916
 5225POPC   C4A65826  13.655   7.992   7.217
 5225POPC   C1B65827  13.460   8.297   6.303
 5225POPC   C2B65828  13.432   8.250   6.790
 5225POPC   C3B65829  13.320   8.375   7.245
 5225POPC   C4B65830  13.426   8.238   7.675
 5226POPC   NC365831  11.978   0.748   5.541
 5226POPC   PO465832  11.766   0.092   5.567
 5226POPC   GL165833  11.817   0.342   5.900
 5226POPC   GL265834  12.153   0.375   5.846
 5226POPC   C1A65835  11.861   0.628   6.245
 5226POPC   D2A65836  11.766   0.897   6.633
 5226POPC   C3A65837  11.914   0.688   7.034
 5226POPC   C4A65838  11.774   0.253   7.214
 5226POPC   C1B65839  12.242   0.276   6.222
 5226POPC   C2B65840  12.218   0.479   6.591
 5226POPC   C3B65841  12.236   0.280   6.943
 5226POPC   C4B65842  12.261   0.403   7.326
 5227POPC   NC365843  28.116  24.011   5.608
 5227POPC   PO465844  28.220  24.629   5.409
 5227POPC   GL165845  28.438  24.469   5.791
 5227POPC   GL265846  28.669  24.753   5.888
 5227POPC   C1A65847  28.283  24.253   6.197
 5227POPC   D2A65848  28.003  24.090   6.538
 5227POPC   C3A65849  27.910  24.351   6.912
 5227POPC   C4A65850  28.174  24.506   7.249
 5227POPC   C1B65851  28.370  24.763   6.248
 5227POPC   C2B65852  28.331  24.543   6.664
 5227POPC   C3B65853  28.644  24.456   6.980
 5227POPC   C4B65854  28.676  24.653   7.369
 5228POPC   NC365855  32.982  39.347   5.602
 5228POPC   PO465856  32.522  39.012   5.284
 5228POPC   GL165857  32.681  38.888   5.732
 5228POPC   GL265858  33.026  38.983   5.935
 5228POPC   C1A65859  32.607  38.872   6.189
 5228POPC   D2A65860  32.837  39.115   6.497
 5228POPC   C3A65861  32.795  39.011   6.933
 5228POPC   C4A65862  32.582  39.292   7.199
 5228POPC   C1B65863  33.262  39.277   6.221
 5228POPC   C2B65864  33.420  39.454   6.601
 5228POPC   C3B65865  33.258  39.284   6.935
 5228POPC   C4B65866  33.092  39.433   7.288
 5229POPC   NC365867   2.258   1.853   5.561
 5229POPC   PO465868   1.547   2.131   5.472
 5229POPC   GL165869   1.787   1.914   5.718
 5229POPC   GL265870   1.968   2.203   5.830
 5229POPC   C1A65871   1.885   1.764   6.107
 5229POPC   D2A65872   1.644   1.842   6.442
 5229POPC   C3A65873   1.902   1.887   6.787
 5229POPC   C4A65874   1.795   1.871   7.235
 5229POPC   C1B65875   1.961   2.271   6.288
 5229POPC   C2B65876   1.668   2.324   6.659
 5229POPC   C3B65877   1.958   2.332   7.001
 5229POPC   C4B65878   2.331   2.061   6.999
 5230POPC   NC365879  37.467   2.759   5.172
 5230POPC   PO465880  36.845   2.555   5.313
 5230POPC   GL165881  36.800   2.734   5.764
 5230POPC   GL265882  37.008   3.030   5.879
 5230POPC   C1A65883  36.807   2.654   6.235
 5230POPC   D2A65884  37.145   2.674   6.554
 5230POPC   C3A65885  37.053   2.838   6.941
 5230POPC   C4A65886  36.608   2.964   7.125
 5230POPC   C1B65887  37.003   3.150   6.325
 5230POPC   C2B65888  36.817   3.244   6.738
 5230POPC   C3B65889  37.030   3.275   7.165
 5230POPC   C4B65890  37.012   3.131   7.614
 5231POPC   NC365891  25.881  28.610   5.387
 5231POPC   PO465892  26.385  28.194   5.520
 5231POPC   GL165893  26.272  28.537   5.744
 5231POPC   GL265894  25.937  28.441   5.859
 5231POPC   C1A65895  26.298  28.701   6.139
 5231POPC   D2A65896  26.235  28.452   6.484
 5231POPC   C3A65897  26.253  28.706   6.814
 5231POPC   C4A65898  26.218  28.537   7.212
 5231POPC   C1B65899  25.722  28.155   6.132
 5231POPC   C2B65900  25.745  28.093   6.564
 5231POPC   C3B65901  25.965  28.231   6.906
 5231POPC   C4B65902  25.807  28.266   7.346
 5232POPC   NC365903  10.148  12.776   5.201
 5232POPC   PO465904   9.485  12.959   5.315
 5232POPC   GL165905   9.630  12.901   5.754
 5232POPC   GL265906   9.775  12.567   5.769
 5232POPC   C1A65907   9.774  13.018   6.191
 5232POPC   D2A65908   9.552  13.180   6.555
 5232POPC   C3A65909   9.764  13.122   6.917
 5232POPC   C4A65910   9.671  13.028   7.299
 5232POPC   C1B65911   9.835  12.496   6.225
 5232POPC   C2B65912   9.636  12.670   6.622
 5232POPC   C3B65913   9.636  12.582   7.056
 5232POPC   C4B65914   9.958  12.426   7.327
 5233POPC   NC365915  33.352  37.232   5.444
 5233POPC   PO465916  33.178  37.897   5.503
 5233POPC   GL165917  33.133  37.768   5.888
 5233POPC   GL265918  33.021  37.460   5.776
 5233POPC   C1A65919  33.230  37.647   6.333
 5233POPC   D2A65920  33.262  37.807   6.782
 5233POPC   C3A65921  33.193  37.637   7.198
 5233POPC   C4A65922  32.836  37.462   7.484
 5233POPC   C1B65923  32.753  37.614   6.158
 5233POPC   C2B65924  32.781  37.462   6.568
 5233POPC   C3B65925  32.720  37.611   6.973
 5233POPC   C4B65926  32.826  38.021   7.071
 5234POPC   NC365927   4.611  33.356   5.374
 5234POPC   PO465928   4.113  32.888   5.350
 5234POPC   GL165929   4.343  32.852   5.734
 5234POPC   GL265930   4.022  32.922   5.891
 5234POPC   C1A65931   4.408  32.900   6.204
 5234POPC   D2A65932   4.121  32.860   6.578
 5234POPC   C3A65933   4.370  32.919   6.956
 5234POPC   C4A65934   4.829  32.951   7.086
 5234POPC   C1B65935   3.963  33.207   6.237
 5234POPC   C2B65936   4.112  33.376   6.664
 5234POPC   C3B65937   4.043  33.366   7.127
 5234POPC   C4B65938   3.958  33.396   7.595
 5235POPC   NC365939   1.366  12.064   5.490
 5235POPC   PO465940   0.735  12.100   5.644
 5235POPC   GL165941   1.121  12.168   5.938
 5235POPC   GL265942   1.519  12.257   5.923
 5235POPC   C1A65943   1.191  12.191   6.389
 5235POPC   D2A65944   1.095  11.868   6.714
 5235POPC   C3A65945   1.255  11.810   7.158
 5235POPC   C4A65946   0.994  11.699   7.537
 5235POPC   C1B65947   1.697  12.046   6.271
 5235POPC   C2B65948   1.581  12.058   6.703
 5235POPC   C3B65949   1.783  12.039   7.044
 5235POPC   C4B65950   1.603  12.126   7.389
 5236POPC   NC365951  21.104  34.989   5.591
 5236POPC   PO465952  21.301  34.628   5.119
 5236POPC   GL165953  21.483  34.685   5.644
 5236POPC   GL265954  21.535  34.354   5.820
 5236POPC   C1A65955  21.482  34.765   6.117
 5236POPC   D2A65956  21.582  34.851   6.556
 5236POPC   C3A65957  21.368  34.667   6.881
 5236POPC   C4A65958  21.411  34.661   7.292
 5236POPC   C1B65959  21.688  34.152   6.194
 5236POPC   C2B65960  21.641  34.338   6.601
 5236POPC   C3B65961  21.766  34.324   7.047
 5236POPC   C4B65962  21.624  34.034   7.340
 5237POPC   NC365963  13.415   7.214   5.604
 5237POPC   PO465964  14.001   7.263   5.262
 5237POPC   GL165965  13.833   7.575   5.683
 5237POPC   GL265966  13.456   7.675   5.818
 5237POPC   C1A65967  13.767   7.596   6.183
 5237POPC   D2A65968  13.666   7.835   6.544
 5237POPC   C3A65969  13.744   7.588   6.911
 5237POPC   C4A65970  13.687   7.259   7.181
 5237POPC   C1B65971  13.294   7.382   6.209
 5237POPC   C2B65972  13.375   7.322   6.654
 5237POPC   C3B65973  13.176   7.264   7.050
 5237POPC   C4B65974  13.095   7.486   7.390
 5238POPC   NC365975  13.035  14.946   5.557
 5238POPC   PO465976  12.639  15.398   5.270
 5238POPC   GL165977  12.663  15.303   5.724
 5238POPC   GL265978  12.991  15.406   5.855
 5238POPC   C1A65979  12.627  15.197   6.191
 5238POPC   D2A65980  12.686  14.921   6.573
 5238POPC   C3A65981  12.741  15.199   6.914
 5238POPC   C4A65982  12.932  15.379   7.245
 5238POPC   C1B65983  13.207  15.267   6.239
 5238POPC   C2B65984  13.198  15.185   6.668
 5238POPC   C3B65985  13.223  14.977   7.055
 5238POPC   C4B65986  13.339  15.058   7.464
 5239POPC   NC365987  34.721   5.372   5.160
 5239POPC   PO465988  34.353   4.776   5.258
 5239POPC   GL165989  34.391   4.862   5.805
 5239POPC   GL265990  34.499   5.222   5.925
 5239POPC   C1A65991  34.396   4.867   6.295
 5239POPC   D2A65992  34.479   4.957   6.766
 5239POPC   C3A65993  34.395   5.030   7.256
 5239POPC   C4A65994  34.343   5.315   7.657
 5239POPC   C1B65995  34.831   5.101   6.216
 5239POPC   C2B65996  34.946   5.154   6.647
 5239POPC   C3B65997  34.896   5.099   7.074
 5239POPC   C4B65998  34.809   5.263   7.468
 5240POPC   NC365999  27.175  40.281   5.403
 5240POPC   PO466000  26.434  40.400   5.445
 5240POPC   GL166001  26.699  40.231   5.819
 5240POPC   GL266002  26.755  39.846   5.857
 5240POPC   C1A66003  26.634  40.286   6.287
 5240POPC   D2A66004  26.773  40.480   6.691
 5240POPC   C3A66005  26.980  40.211   7.026
 5240POPC   C4A66006  26.706  39.999   7.282
 5240POPC   C1B66007  27.034  39.998   6.200
 5240POPC   C2B66008  26.969  39.928   6.600
 5240POPC   C3B66009  27.141  39.692   6.884
 5240POPC   C4B66010  27.168  39.804   7.302
 5241POPC   NC366011   9.080  11.665   5.484
 5241POPC   PO466012   8.822  12.274   5.351
 5241POPC   GL166013   8.905  12.117   5.796
 5241POPC   GL266014   9.230  11.977   5.872
 5241POPC   C1A66015   8.837  11.813   6.170
 5241POPC   D2A66016   9.039  11.836   6.575
 5241POPC   C3A66017   8.809  11.778   6.928
 5241POPC   C4A66018   9.058  11.948   7.232
 5241POPC   C1B66019   9.205  12.236   6.263
 5241POPC   C2B66020   9.188  12.380   6.726
 5241POPC   C3B66021   9.131  12.442   7.193
 5241POPC   C4B66022   9.298  12.384   7.654
 5242POPC   NC366023   1.041   4.840   5.469
 5242POPC   PO466024   1.507   5.388   5.495
 5242POPC   GL166025   1.204   5.334   5.790
 5242POPC   GL266026   1.325   4.991   5.871
 5242POPC   C1A66027   1.071   5.269   6.218
 5242POPC   D2A66028   1.226   5.084   6.578
 5242POPC   C3A66029   1.042   5.273   6.946
 5242POPC   C4A66030   1.183   5.065   7.318
 5242POPC   C1B66031   1.038   4.741   6.118
 5242POPC   C2B66032   0.957   4.644   6.535
 5242POPC   C3B66033   1.038   4.758   6.939
 5242POPC   C4B66034   0.841   4.683   7.324
 5243POPC   NC366035  42.002  31.841   5.653
 5243POPC   PO466036  42.268  32.438   5.332
 5243POPC   GL166037  42.351  32.383   5.784
 5243POPC   GL266038  42.017  32.320   5.899
 5243POPC   C1A66039  42.352  32.474   6.263
 5243POPC   D2A66040  42.495  32.541   6.714
 5243POPC   C3A66041  42.361  32.331   7.087
 5243POPC   C4A66042  41.950  32.432   7.216
 5243POPC   C1B66043  41.977  32.071   6.304
 5243POPC   C2B66044  42.016  32.122   6.771
 5243POPC   C3B66045  42.054  31.930   7.218
 5243POPC   C4B66046  42.205  31.983   7.638
 5244POPC   NC366047   3.258  32.033   5.044
 5244POPC   PO466048   3.657  31.645   5.453
 5244POPC   GL166049   3.460  31.572   5.876
 5244POPC   GL266050   3.274  31.220   5.956
 5244POPC   C1A66051   3.459  31.551   6.291
 5244POPC   D2A66052   3.683  31.420   6.604
 5244POPC   C3A66053   3.475  31.557   6.909
 5244POPC   C4A66054   3.323  31.776   7.210
 5244POPC   C1B66055   3.666  31.084   6.203
 5244POPC   C2B66056   3.694  30.905   6.619
 5244POPC   C3B66057   3.673  31.108   7.029
 5244POPC   C4B66058   3.305  31.224   7.253
 5245POPC   NC366059  30.524  44.118   5.420
 5245POPC   PO466060  30.949  43.512   5.522
 5245POPC   GL166061  30.967  43.844   5.839
 5245POPC   GL266062  30.648  43.887   5.852
 5245POPC   C1A66063  30.986  43.803   6.273
 5245POPC   D2A66064  30.962  43.555   6.630
 5245POPC   C3A66065  31.010  43.763   7.006
 5245POPC   C4A66066  30.779  44.167   7.055
 5245POPC   C1B66067  30.481  43.891   6.224
 5245POPC   C2B66068  30.628  43.945   6.625
 5245POPC   C3B66069  30.516  43.664   6.951
 5245POPC   C4B66070  30.235  43.710   7.281
 5246POPC   NC366071  42.468   4.820   5.334
 5246POPC   PO466072  41.965   4.940   5.712
 5246POPC   GL166073  42.336   5.127   5.850
 5246POPC   GL266074  42.608   4.856   5.818
 5246POPC   C1A66075  42.368   5.297   6.278
 5246POPC   D2A66076  42.335   5.062   6.676
 5246POPC   C3A66077  42.205   5.264   7.055
 5246POPC   C4A66078  42.237   5.337   7.536
 5246POPC   C1B66079  42.805   5.061   6.148
 5246POPC   C2B66080  42.885   5.084   6.580
 5246POPC   C3B66081  42.723   5.171   6.986
 5246POPC   C4B66082  42.499   4.951   7.292
 5247POPC   NC366083  19.671  37.896   5.416
 5247POPC   PO466084  20.251  37.613   5.209
 5247POPC   GL166085  20.051  37.674   5.703
 5247POPC   GL266086  19.809  37.947   5.900
 5247POPC   C1A66087  19.859  37.512   6.129
 5247POPC   D2A66088  19.728  37.581   6.553
 5247POPC   C3A66089  20.024  37.728   6.822
 5247POPC   C4A66090  19.983  37.547   7.204
 5247POPC   C1B66091  19.467  37.880   6.239
 5247POPC   C2B66092  19.283  37.790   6.648
 5247POPC   C3B66093  19.539  37.890   7.006
 5247POPC   C4B66094  19.399  38.048   7.395
 5248POPC   NC366095  17.244  16.972   5.463
 5248POPC   PO466096  17.621  16.417   5.428
 5248POPC   GL166097  17.509  16.693   5.832
 5248POPC   GL266098  17.771  16.874   5.992
 5248POPC   C1A66099  17.290  16.958   6.189
 5248POPC   D2A66100  17.165  17.183   6.623
 5248POPC   C3A66101  17.198  16.923   7.008
 5248POPC   C4A66102  17.140  16.522   7.200
 5248POPC   C1B66103  17.896  16.522   6.236
 5248POPC   C2B66104  17.980  16.523   6.683
 5248POPC   C3B66105  17.648  16.693   6.941
 5248POPC   C4B66106  17.605  16.692   7.391
 5249POPC   NC366107  21.705  34.861   5.198
 5249POPC   PO466108  21.383  35.422   5.536
 5249POPC   GL166109  21.406  35.269   5.907
 5249POPC   GL266110  21.051  35.332   5.945
 5249POPC   C1A66111  21.681  35.236   6.254
 5249POPC   D2A66112  21.866  35.518   6.591
 5249POPC   C3A66113  21.597  35.699   6.904
 5249POPC   C4A66114  21.550  35.563   7.307
 5249POPC   C1B66115  21.153  35.138   6.320
 5249POPC   C2B66116  21.345  35.333   6.646
 5249POPC   C3B66117  21.378  35.166   7.033
 5249POPC   C4B66118  21.023  35.019   7.267
 5250POPC   NC366119  22.804  44.210   5.422
 5250POPC   PO466120  22.671  43.652   5.587
 5250POPC   GL166121  22.864  43.949   5.882
 5250POPC   GL266122  23.103  43.782   6.072
 5250POPC   C1A66123  22.807  44.159   6.325
 5250POPC   D2A66124  22.868  44.316   6.782
 5250POPC   C3A66125  22.845  44.065   7.164
 5250POPC   C4A66126  23.048  43.725   7.376
 5250POPC   C1B66127  22.690  43.661   6.276
 5250POPC   C2B66128  22.667  43.809   6.706
 5250POPC   C3B66129  22.616  43.610   7.084
 5250POPC   C4B66130  22.539  43.739   7.497
 5251POPC   NC366131  43.128  11.600   5.396
 5251POPC   PO466132  43.257  11.019   5.129
 5251POPC   GL166133  43.156  11.099   5.637
 5251POPC   GL266134  42.968  11.349   5.833
 5251POPC   C1A66135  43.291  11.070   6.119
 5251POPC   D2A66136  43.137  10.997   6.582
 5251POPC   C3A66137  43.287  11.083   7.015
 5251POPC   C4A66138  43.281  11.427   7.311
 5251POPC   C1B66139  42.797  11.174   6.209
 5251POPC   C2B66140  42.701  11.309   6.625
 5251POPC   C3B66141  42.818  11.226   7.037
 5251POPC   C4B66142  42.945  11.042   7.419
 5252POPC   NC366143  39.100  29.022   5.385
 5252POPC   PO466144  39.674  29.162   5.181
 5252POPC   GL166145  39.496  29.112   5.680
 5252POPC   GL266146  39.291  28.823   5.821
 5252POPC   C1A66147  39.336  29.235   6.122
 5252POPC   D2A66148  39.043  29.086   6.452
 5252POPC   C3A66149  39.119  29.161   6.908
 5252POPC   C4A66150  39.493  29.340   7.106
 5252POPC   C1B66151  39.540  28.794   6.219
 5252POPC   C2B66152  39.546  29.037   6.632
 5252POPC   C3B66153  39.467  28.808   7.027
 5252POPC   C4B66154  39.417  28.534   7.393
 5253POPC   NC366155   0.102  31.386   5.389
 5253POPC   PO466156   0.762  31.202   5.511
 5253POPC   GL166157   0.458  31.355   5.762
 5253POPC   GL266158   0.217  31.101   5.814
 5253POPC   C1A66159   0.467  31.491   6.155
 5253POPC   D2A66160   0.561  31.365   6.550
 5253POPC   C3A66161   0.431  31.638   6.883
 5253POPC   C4A66162   0.304  31.859   7.262
 5253POPC   C1B66163   0.053  31.189   6.221
 5253POPC   C2B66164   0.031  31.289   6.658
 5253POPC   C3B66165   0.127  31.286   7.097
 5253POPC   C4B66166   0.508  31.244   7.260
 5254POPC   NC366167  36.795  44.841   5.544
 5254POPC   PO466168  37.151  44.318   5.559
 5254POPC   GL166169  37.021  44.505   5.901
 5254POPC   GL266170  37.232  44.805   5.802
 5254POPC   C1A66171  36.731  44.304   6.238
 5254POPC   D2A66172  36.475  44.297   6.606
 5254POPC   C3A66173  36.672  44.547   6.868
 5254POPC   C4A66174  36.900  44.561   7.286
 5254POPC   C1B66175  37.021  44.931   6.165
 5254POPC   C2B66176  37.012  44.697   6.498
 5254POPC   C3B66177  37.129  44.775   6.895
 5254POPC   C4B66178  37.097   0.029   7.284
 5255POPC   NC366179  19.449   6.556   5.531
 5255POPC   PO466180  19.598   7.191   5.532
 5255POPC   GL166181  19.827   6.864   5.846
 5255POPC   GL266182  19.828   6.465   5.916
 5255POPC   C1A66183  19.866   6.826   6.339
 5255POPC   D2A66184  19.997   6.620   6.769
 5255POPC   C3A66185  20.039   6.873   7.178
 5255POPC   C4A66186  19.971   6.819   7.634
 5255POPC   C1B66187  19.779   6.320   6.368
 5255POPC   C2B66188  19.492   6.589   6.613
 5255POPC   C3B66189  19.561   6.698   7.040
 5255POPC   C4B66190  19.809   6.439   7.325
 5256POPC   NC366191  16.404  42.201   5.571
 5256POPC   PO466192  15.844  42.577   5.451
 5256POPC   GL166193  16.133  42.554   5.807
 5256POPC   GL266194  15.856  42.487   5.973
 5256POPC   C1A66195  16.338  42.423   6.198
 5256POPC   D2A66196  16.077  42.389   6.542
 5256POPC   C3A66197  16.224  42.417   6.949
 5256POPC   C4A66198  16.013  42.289   7.339
 5256POPC   C1B66199  15.610  42.410   6.303
 5256POPC   C2B66200  15.691  42.034   6.527
 5256POPC   C3B66201  15.774  42.142   6.913
 5256POPC   C4B66202  15.545  42.421   7.180
 5257POPC   NC366203  10.081  17.975   5.359
 5257POPC   PO466204   9.611  18.397   5.343
 5257POPC   GL166205   9.878  18.403   5.708
 5257POPC   GL266206   9.796  18.077   5.839
 5257POPC   C1A66207  10.025  18.387   6.167
 5257POPC   D2A66208  10.006  18.222   6.607
 5257POPC   C3A66209  10.013  18.451   7.018
 5257POPC   C4A66210   9.609  18.433   7.273
 5257POPC   C1B66211   9.944  17.841   6.249
 5257POPC   C2B66212   9.941  17.748   6.733
 5257POPC   C3B66213   9.849  17.974   7.142
 5257POPC   C4B66214   9.960  17.996   7.613
 5258POPC   NC366215  10.953  19.653   5.323
 5258POPC   PO466216  11.486  20.073   5.176
 5258POPC   GL166217  11.254  20.021   5.641
 5258POPC   GL266218  11.113  19.716   5.810
 5258POPC   C1A66219  11.302  20.060   6.142
 5258POPC   D2A66220  11.144  20.096   6.574
 5258POPC   C3A66221  11.357  19.971   6.962
 5258POPC   C4A66222  11.118  19.800   7.321
 5258POPC   C1B66223  11.051  19.614   6.263
 5258POPC   C2B66224  11.289  19.586   6.641
 5258POPC   C3B66225  11.447  19.446   7.053
 5258POPC   C4B66226  11.237  19.308   7.450
 5259POPC   NC366227  19.535  35.165   5.478
 5259POPC   PO466228  19.787  35.781   5.394
 5259POPC   GL166229  19.702  35.540   5.811
 5259POPC   GL266230  19.831  35.203   5.905
 5259POPC   C1A66231  19.636  35.467   6.275
 5259POPC   D2A66232  19.794  35.206   6.632
 5259POPC   C3A66233  19.774  35.460   7.004
 5259POPC   C4A66234  19.575  35.405   7.408
 5259POPC   C1B66235  20.060  34.962   6.241
 5259POPC   C2B66236  20.226  34.858   6.653
 5259POPC   C3B66237  20.106  35.053   7.042
 5259POPC   C4B66238  20.164  35.016   7.471
 5260POPC   NC366239  36.563  13.976   5.402
 5260POPC   PO466240  37.064  13.522   5.171
 5260POPC   GL166241  36.870  13.651   5.658
 5260POPC   GL266242  37.081  13.875   5.929
 5260POPC   C1A66243  36.714  13.581   6.140
 5260POPC   D2A66244  36.399  13.764   6.466
 5260POPC   C3A66245  36.603  13.844   6.882
 5260POPC   C4A66246  36.784  13.484   7.139
 5260POPC   C1B66247  37.265  13.656   6.295
 5260POPC   C2B66248  37.386  13.464   6.719
 5260POPC   C3B66249  37.284  13.526   7.160
 5260POPC   C4B66250  37.088  13.742   7.486
 5261POPC   NC366251  33.764  19.652   5.356
 5261POPC   PO466252  33.406  20.219   5.417
 5261POPC   GL166253  33.546  19.923   5.767
 5261POPC   GL266254  33.921  19.816   5.812
 5261POPC   C1A66255  33.584  19.765   6.206
 5261POPC   D2A66256  33.399  19.775   6.628
 5261POPC   C3A66257  33.676  19.664   6.953
 5261POPC   C4A66258  33.554  19.590   7.360
 5261POPC   C1B66259  34.124  19.823   6.213
 5261POPC   C2B66260  34.130  19.633   6.644
 5261POPC   C3B66261  34.179  19.835   7.052
 5261POPC   C4B66262  33.927  19.946   7.413
 5262POPC   NC366263  35.016  44.907   5.596
 5262POPC   PO466264  35.543  44.451   5.845
 5262POPC   GL166265  35.174  44.568   5.941
 5262POPC   GL266266  35.315  44.886   5.985
 5262POPC   C1A66267  35.066  44.685   6.364
 5262POPC   D2A66268  35.324  44.480   6.689
 5262POPC   C3A66269  35.224  44.431   7.125
 5262POPC   C4A66270  35.469  44.470   7.562
 5262POPC   C1B66271  35.570   0.069   6.281
 5262POPC   C2B66272  35.423  44.988   6.664
 5262POPC   C3B66273  35.538  44.817   7.047
 5262POPC   C4B66274  35.253  44.882   7.397
 5263POPC   NC366275  12.437  25.411   5.384
 5263POPC   PO466276  13.044  25.027   5.445
 5263POPC   GL166277  12.738  25.208   5.793
 5263POPC   GL266278  12.637  25.572   5.846
 5263POPC   C1A66279  12.611  25.280   6.262
 5263POPC   D2A66280  12.632  25.387   6.736
 5263POPC   C3A66281  12.788  25.155   7.073
 5263POPC   C4A66282  12.814  24.961   7.441
 5263POPC   C1B66283  13.042  25.507   6.096
 5263POPC   C2B66284  13.147  25.356   6.518
 5263POPC   C3B66285  13.144  25.501   6.941
 5263POPC   C4B66286  12.807  25.644   7.169
 5264POPC   NC366287  42.791  25.770   5.607
 5264POPC   PO466288  42.261  26.096   5.379
 5264POPC   GL166289  42.457  26.191   5.753
 5264POPC   GL266290  42.761  26.306   5.644
 5264POPC   C1A66291  42.419  25.995   6.172
 5264POPC   D2A66292  42.051  25.837   6.380
 5264POPC   C3A66293  42.098  25.901   6.799
 5264POPC   C4A66294  42.177  25.881   7.195
 5264POPC   C1B66295  42.889  26.382   6.082
 5264POPC   C2B66296  42.767  26.230   6.510
 5264POPC   C3B66297  42.578  26.176   6.935
 5264POPC   C4B66298  42.552  26.116   7.402
 5265POPC   NC366299  32.735   7.567   5.424
 5265POPC   PO466300  33.375   7.616   5.440
 5265POPC   GL166301  33.114   7.453   5.744
 5265POPC   GL266302  33.012   7.775   5.826
 5265POPC   C1A66303  32.861   7.392   6.120
 5265POPC   D2A66304  33.098   7.270   6.476
 5265POPC   C3A66305  32.953   7.307   6.865
 5265POPC   C4A66306  33.199   7.350   7.189
 5265POPC   C1B66307  33.215   7.737   6.254
 5265POPC   C2B66308  33.160   7.774   6.709
 5265POPC   C3B66309  32.897   7.764   7.075
 5265POPC   C4B66310  32.903   7.668   7.501
 5266POPC   NC366311  10.398  15.874   5.669
 5266POPC   PO466312  10.949  15.616   5.456
 5266POPC   GL166313  10.873  15.889   5.840
 5266POPC   GL266314  10.726  16.248   5.843
 5266POPC   C1A66315  10.779  15.990   6.273
 5266POPC   D2A66316  10.601  16.124   6.623
 5266POPC   C3A66317  10.295  15.855   6.831
 5266POPC   C4A66318  10.413  15.629   7.231
 5266POPC   C1B66319  10.487  16.447   6.217
 5266POPC   C2B66320  10.178  16.407   6.574
 5266POPC   C3B66321  10.398  16.412   6.977
 5266POPC   C4B66322  10.662  16.054   7.146
 5267POPC   NC366323  10.974   3.121   5.684
 5267POPC   PO466324  11.368   2.591   5.333
 5267POPC   GL166325  11.353   2.665   5.764
 5267POPC   GL266326  11.031   2.621   5.880
 5267POPC   C1A66327  11.540   2.617   6.165
 5267POPC   D2A66328  11.575   2.880   6.559
 5267POPC   C3A66329  11.379   2.802   7.008
 5267POPC   C4A66330  11.316   3.029   7.446
 5267POPC   C1B66331  11.095   2.819   6.287
 5267POPC   C2B66332  11.018   2.638   6.696
 5267POPC   C3B66333  10.856   2.360   7.006
 5267POPC   C4B66334  10.852   2.305   7.465
 5268POPC   NC366335  11.987  24.634   5.475
 5268POPC   PO466336  11.548  24.266   5.222
 5268POPC   GL166337  11.706  24.297   5.723
 5268POPC   GL266338  11.648  24.648   5.832
 5268POPC   C1A66339  11.981  24.396   6.148
 5268POPC   D2A66340  12.297  24.516   6.528
 5268POPC   C3A66341  12.114  24.474   6.978
 5268POPC   C4A66342  11.761  24.297   7.225
 5268POPC   C1B66343  11.623  24.773   6.223
 5268POPC   C2B66344  11.845  24.742   6.597
 5268POPC   C3B66345  11.645  24.708   6.976
 5268POPC   C4B66346  11.594  24.832   7.378
 5269POPC   NC366347  25.232  42.720   5.495
 5269POPC   PO466348  25.499  42.044   5.362
 5269POPC   GL166349  25.370  42.284   5.750
 5269POPC   GL266350  25.014  42.413   5.846
 5269POPC   C1A66351  25.365  42.493   6.176
 5269POPC   D2A66352  25.286  42.621   6.585
 5269POPC   C3A66353  25.489  42.377   6.889
 5269POPC   C4A66354  25.270  42.499   7.218
 5269POPC   C1B66355  25.044  42.081   6.097
 5269POPC   C2B66356  25.206  42.122   6.497
 5269POPC   C3B66357  25.031  42.193   6.864
 5269POPC   C4B66358  25.022  42.045   7.240
 5270POPC   NC366359   0.956  15.175   5.462
 5270POPC   PO466360   1.576  14.940   5.505
 5270POPC   GL166361   1.348  15.208   5.788
 5270POPC   GL266362   1.471  15.134   6.080
 5270POPC   C1A66363   1.037  15.382   6.128
 5270POPC   D2A66364   1.182  15.425   6.578
 5270POPC   C3A66365   1.096  15.127   6.917
 5270POPC   C4A66366   0.875  15.013   7.292
 5270POPC   C1B66367   1.780  14.863   6.243
 5270POPC   C2B66368   1.716  14.726   6.655
 5270POPC   C3B66369   1.654  15.074   6.945
 5270POPC   C4B66370   1.458  15.374   7.198
 5271POPC   NC366371  26.911  24.519   5.568
 5271POPC   PO466372  26.535  23.934   5.603
 5271POPC   GL166373  26.802  24.134   5.911
 5271POPC   GL266374  27.152  24.001   5.830
 5271POPC   C1A66375  26.849  24.521   6.214
 5271POPC   D2A66376  26.954  24.593   6.669
 5271POPC   C3A66377  26.747  24.668   7.086
 5271POPC   C4A66378  26.414  24.859   7.329
 5271POPC   C1B66379  27.207  24.174   6.215
 5271POPC   C2B66380  27.003  24.085   6.600
 5271POPC   C3B66381  26.850  24.192   7.001
 5271POPC   C4B66382  27.071  24.285   7.400
 5272POPC   NC366383  22.317  44.821   5.708
 5272POPC   PO466384  21.961  44.343   5.450
 5272POPC   GL166385  21.885  44.554   5.863
 5272POPC   GL266386  21.952  44.912   6.054
 5272POPC   C1A66387  21.901  44.464   6.304
 5272POPC   D2A66388  22.152  44.701   6.572
 5272POPC   C3A66389  22.114  44.516   6.954
 5272POPC   C4A66390  21.994  44.444   7.360
 5272POPC   C1B66391  22.347   0.133   6.263
 5272POPC   C2B66392  22.423   0.215   6.659
 5272POPC   C3B66393  22.263   0.007   6.979
 5272POPC   C4B66394  22.405  44.745   7.305
 5273POPC   NC366395   4.670   1.270   5.460
 5273POPC   PO466396   5.255   1.692   5.441
 5273POPC   GL166397   5.246   1.436   5.841
 5273POPC   GL266398   5.230   1.062   5.854
 5273POPC   C1A66399   4.925   1.425   6.182
 5273POPC   D2A66400   4.755   1.610   6.570
 5273POPC   C3A66401   4.853   1.399   6.956
 5273POPC   C4A66402   5.286   1.314   7.102
 5273POPC   C1B66403   4.898   0.918   6.171
 5273POPC   C2B66404   4.765   1.053   6.600
 5273POPC   C3B66405   4.931   0.911   7.024
 5273POPC   C4B66406   5.243   0.814   7.369
 5274POPC   NC366407  14.597   0.650   5.360
 5274POPC   PO466408  13.958   0.531   5.463
 5274POPC   GL166409  14.249   0.429   5.787
 5274POPC   GL266410  14.535   0.228   5.699
 5274POPC   C1A66411  14.503   0.575   6.129
 5274POPC   D2A66412  14.377   0.381   6.510
 5274POPC   C3A66413  14.270   0.566   6.875
 5274POPC   C4A66414  14.590   0.587   7.164
 5274POPC   C1B66415  14.548   0.049   6.135
 5274POPC   C2B66416  14.753   0.042   6.563
 5274POPC   C3B66417  14.557   0.094   6.955
 5274POPC   C4B66418  14.256   0.231   7.254
 5275POPC   NC366419   2.562  31.791   5.476
 5275POPC   PO466420   3.156  31.478   5.349
 5275POPC   GL166421   2.947  31.577   5.766
 5275POPC   GL266422   2.660  31.352   5.806
 5275POPC   C1A66423   2.958  31.489   6.238
 5275POPC   D2A66424   3.153  31.238   6.592
 5275POPC   C3A66425   2.979  31.458   6.945
 5275POPC   C4A66426   2.830  31.853   7.101
 5275POPC   C1B66427   2.454  31.549   6.161
 5275POPC   C2B66428   2.313  31.442   6.548
 5275POPC   C3B66429   2.480  31.507   6.919
 5275POPC   C4B66430   2.589  31.286   7.258
 5276POPC   NC366431  37.903  30.270   5.344
 5276POPC   PO466432  37.900  30.935   5.440
 5276POPC   GL166433  37.730  30.712   5.769
 5276POPC   GL266434  37.990  30.583   5.976
 5276POPC   C1A66435  37.449  30.789   6.121
 5276POPC   D2A66436  37.466  31.126   6.430
 5276POPC   C3A66437  37.442  31.092   6.868
 5276POPC   C4A66438  37.526  30.743   7.152
 5276POPC   C1B66439  37.834  30.609   6.408
 5276POPC   C2B66440  37.573  30.413   6.734
 5276POPC   C3B66441  37.661  30.243   7.135
 5276POPC   C4B66442  37.838  30.443   7.515
 5277POPC   NC366443   5.098  16.938   5.400
 5277POPC   PO466444   5.383  16.326   5.364
 5277POPC   GL166445   5.216  16.601   5.757
 5277POPC   GL266446   5.041  16.938   5.891
 5277POPC   C1A66447   5.065  16.489   6.164
 5277POPC   D2A66448   5.100  16.686   6.564
 5277POPC   C3A66449   5.143  16.445   6.952
 5277POPC   C4A66450   5.201  16.578   7.366
 5277POPC   C1B66451   5.400  16.972   6.143
 5277POPC   C2B66452   5.561  16.882   6.562
 5277POPC   C3B66453   5.384  16.926   6.982
 5277POPC   C4B66454   5.511  17.143   7.367
 5278POPC   NC366455  35.464  16.854   5.424
 5278POPC   PO466456  35.179  16.348   5.740
 5278POPC   GL166457  35.229  16.777   5.863
 5278POPC   GL266458  35.076  17.084   5.705
 5278POPC   C1A66459  35.510  16.869   6.172
 5278POPC   D2A66460  35.419  16.647   6.514
 5278POPC   C3A66461  35.673  16.713   6.907
 5278POPC   C4A66462  35.691  16.716   7.384
 5278POPC   C1B66463  35.040  17.116   6.185
 5278POPC   C2B66464  34.948  16.882   6.588
 5278POPC   C3B66465  35.162  16.769   6.938
 5278POPC   C4B66466  35.221  16.852   7.334
 5279POPC   NC366467  23.722  25.593   5.582
 5279POPC   PO466468  24.152  25.070   5.506
 5279POPC   GL166469  23.873  25.141   5.849
 5279POPC   GL266470  23.501  25.183   5.794
 5279POPC   C1A66471  23.665  24.928   6.190
 5279POPC   D2A66472  23.660  24.837   6.594
 5279POPC   C3A66473  24.012  25.037   6.805
 5279POPC   C4A66474  24.004  25.332   7.114
 5279POPC   C1B66475  23.449  25.393   6.238
 5279POPC   C2B66476  23.597  25.360   6.680
 5279POPC   C3B66477  23.447  25.388   7.104
 5279POPC   C4B66478  23.440  25.229   7.530
 5280POPC   NC366479  26.188  25.079   5.333
 5280POPC   PO466480  25.822  24.469   5.279
 5280POPC   GL166481  25.996  24.621   5.689
 5280POPC   GL266482  25.732  24.500   5.897
 5280POPC   C1A66483  26.317  24.518   6.073
 5280POPC   D2A66484  26.484  24.421   6.532
 5280POPC   C3A66485  26.274  24.583   6.892
 5280POPC   C4A66486  25.930  24.740   7.178
 5280POPC   C1B66487  25.914  24.214   6.217
 5280POPC   C2B66488  26.055  24.178   6.643
 5280POPC   C3B66489  25.913  24.231   7.054
 5280POPC   C4B66490  25.748  24.301   7.457
 5281POPC   NC366491  16.805   8.697   5.277
 5281POPC   PO466492  16.887   9.331   5.237
 5281POPC   GL166493  17.004   9.131   5.688
 5281POPC   GL266494  16.863   8.805   5.776
 5281POPC   C1A66495  16.955   9.158   6.146
 5281POPC   D2A66496  16.637   9.126   6.471
 5281POPC   C3A66497  16.867   9.159   6.876
 5281POPC   C4A66498  16.938   9.126   7.322
 5281POPC   C1B66499  16.730   8.699   6.181
 5281POPC   C2B66500  16.909   8.711   6.592
 5281POPC   C3B66501  16.731   8.649   7.002
 5281POPC   C4B66502  16.709   8.645   7.445
 5282POPC   NC366503   4.673  22.991   5.520
 5282POPC   PO466504   5.281  23.297   5.545
 5282POPC   GL166505   5.090  22.980   5.847
 5282POPC   GL266506   5.296  22.689   5.937
 5282POPC   C1A66507   4.839  22.894   6.220
 5282POPC   D2A66508   4.902  23.029   6.654
 5282POPC   C3A66509   4.856  22.739   7.002
 5282POPC   C4A66510   5.030  22.862   7.401
 5282POPC   C1B66511   5.338  22.811   6.327
 5282POPC   C2B66512   5.235  22.612   6.685
 5282POPC   C3B66513   5.322  22.926   6.962
 5282POPC   C4B66514   5.496  23.083   7.294
 5283POPC   NC366515   4.513  10.418   5.264
 5283POPC   PO466516   4.111  11.020   5.318
 5283POPC   GL166517   4.344  10.785   5.694
 5283POPC   GL266518   4.375  10.427   5.771
 5283POPC   C1A66519   4.475  10.779   6.151
 5283POPC   D2A66520   4.523  10.630   6.583
 5283POPC   C3A66521   4.363  10.863   6.940
 5283POPC   C4A66522   4.317  10.601   7.270
 5283POPC   C1B66523   4.434  10.248   6.208
 5283POPC   C2B66524   4.258  10.152   6.652
 5283POPC   C3B66525   4.189  10.108   7.116
 5283POPC   C4B66526   4.392  10.043   7.517
 5284POPC   NC366527  41.472  22.104   5.315
 5284POPC   PO466528  42.127  21.947   5.281
 5284POPC   GL166529  41.810  22.070   5.691
 5284POPC   GL266530  41.465  21.874   5.769
 5284POPC   C1A66531  41.553  22.289   6.054
 5284POPC   D2A66532  41.271  22.385   6.419
 5284POPC   C3A66533  41.497  22.400   6.779
 5284POPC   C4A66534  41.554  22.286   7.192
 5284POPC   C1B66535  41.538  21.703   6.171
 5284POPC   C2B66536  41.475  21.928   6.556
 5284POPC   C3B66537  41.429  21.818   6.984
 5284POPC   C4B66538  41.766  21.837   7.252
 5285POPC   NC366539   5.475  33.275   5.341
 5285POPC   PO466540   5.823  32.727   5.623
 5285POPC   GL166541   5.857  33.144   5.800
 5285POPC   GL266542   6.216  33.269   5.809
 5285POPC   C1A66543   5.676  33.088   6.209
 5285POPC   D2A66544   5.676  33.184   6.622
 5285POPC   C3A66545   5.803  32.874   6.854
 5285POPC   C4A66546   5.704  32.934   7.226
 5285POPC   C1B66547   6.115  33.328   6.264
 5285POPC   C2B66548   6.201  33.252   6.706
 5285POPC   C3B66549   6.142  33.157   7.144
 5285POPC   C4B66550   6.099  33.070   7.562
 5286POPC   NC366551  33.364  36.302   5.327
 5286POPC   PO466552  32.736  36.335   5.471
 5286POPC   GL166553  32.914  36.234   5.838
 5286POPC   GL266554  33.228  36.431   5.820
 5286POPC   C1A66555  32.820  36.150   6.253
 5286POPC   D2A66556  33.067  36.023   6.589
 5286POPC   C3A66557  33.009  36.228   6.952
 5286POPC   C4A66558  33.160  35.953   7.224
 5286POPC   C1B66559  33.355  36.284   6.243
 5286POPC   C2B66560  33.486  36.330   6.703
 5286POPC   C3B66561  33.466  36.376   7.161
 5286POPC   C4B66562  33.165  36.658   7.381
 5287POPC   NC366563  23.639  28.216   5.473
 5287POPC   PO466564  24.227  28.108   5.131
 5287POPC   GL166565  24.094  28.363   5.650
 5287POPC   GL266566  23.828  28.540   5.831
 5287POPC   C1A66567  24.020  28.207   6.146
 5287POPC   D2A66568  23.751  28.252   6.500
 5287POPC   C3A66569  23.939  28.353   6.881
 5287POPC   C4A66570  23.783  28.149   7.214
 5287POPC   C1B66571  23.883  28.683   6.252
 5287POPC   C2B66572  23.678  28.753   6.656
 5287POPC   C3B66573  23.492  28.567   7.057
 5287POPC   C4B66574  23.412  28.689   7.493
 5288POPC   NC366575  34.260  24.240   5.617
 5288POPC   PO466576  34.485  24.899   5.436
 5288POPC   GL166577  34.585  24.618   5.804
 5288POPC   GL266578  34.261  24.685   5.880
 5288POPC   C1A66579  34.612  24.343   6.184
 5288POPC   D2A66580  34.375  24.373   6.572
 5288POPC   C3A66581  34.433  24.146   6.970
 5288POPC   C4A66582  34.596  24.320   7.357
 5288POPC   C1B66583  34.465  24.843   6.248
 5288POPC   C2B66584  34.337  24.883   6.647
 5288POPC   C3B66585  34.579  24.718   6.993
 5288POPC   C4B66586  34.654  24.840   7.391
 5289POPC   NC366587   3.785  16.981   5.389
 5289POPC   PO466588   3.250  16.597   5.271
 5289POPC   GL166589   3.327  16.934   5.627
 5289POPC   GL266590   3.586  16.757   5.822
 5289POPC   C1A66591   3.317  17.079   6.093
 5289POPC   D2A66592   3.206  16.859   6.484
 5289POPC   C3A66593   3.351  16.971   6.917
 5289POPC   C4A66594   3.533  16.990   7.314
 5289POPC   C1B66595   3.663  16.527   6.214
 5289POPC   C2B66596   3.660  16.682   6.623
 5289POPC   C3B66597   3.614  16.537   7.022
 5289POPC   C4B66598   3.797  16.521   7.403
 5290POPC   NC366599  26.980  26.901   5.314
 5290POPC   PO466600  26.913  26.306   5.514
 5290POPC   GL166601  26.683  26.607   5.729
 5290POPC   GL266602  26.960  26.815   5.819
 5290POPC   C1A66603  26.516  26.776   6.116
 5290POPC   D2A66604  26.397  26.849   6.541
 5290POPC   C3A66605  26.668  26.727   6.887
 5290POPC   C4A66606  26.613  26.964   7.242
 5290POPC   C1B66607  27.005  26.702   6.252
 5290POPC   C2B66608  27.140  26.857   6.657
 5290POPC   C3B66609  27.141  27.072   7.075
 5290POPC   C4B66610  27.058  26.895   7.499
 5291POPC   NC366611  11.794  34.184   5.618
 5291POPC   PO466612  12.107  34.727   5.444
 5291POPC   GL166613  12.071  34.639   5.853
 5291POPC   GL266614  11.723  34.673   5.812
 5291POPC   C1A66615  12.233  34.699   6.270
 5291POPC   D2A66616  12.117  34.545   6.677
 5291POPC   C3A66617  12.238  34.598   7.123
 5291POPC   C4A66618  12.028  34.809   7.487
 5291POPC   C1B66619  11.737  34.496   6.232
 5291POPC   C2B66620  11.620  34.585   6.635
 5291POPC   C3B66621  11.749  34.385   7.018
 5291POPC   C4B66622  11.872  34.339   7.421
 5292POPC   NC366623   6.458  36.981   5.459
 5292POPC   PO466624   6.853  36.405   5.415
 5292POPC   GL166625   6.722  36.670   5.814
 5292POPC   GL266626   6.849  36.989   5.858
 5292POPC   C1A66627   6.580  36.682   6.295
 5292POPC   D2A66628   6.406  36.701   6.721
 5292POPC   C3A66629   6.566  36.986   7.065
 5292POPC   C4A66630   6.502  37.121   7.519
 5292POPC   C1B66631   7.011  36.909   6.244
 5292POPC   C2B66632   6.873  36.994   6.630
 5292POPC   C3B66633   7.110  37.029   6.993
 5292POPC   C4B66634   6.982  37.057   7.391
 5293POPC   NC366635  37.867  11.597   5.479
 5293POPC   PO466636  37.418  11.206   5.276
 5293POPC   GL166637  37.554  11.198   5.706
 5293POPC   GL266638  37.395  11.532   5.823
 5293POPC   C1A66639  37.794  11.305   6.115
 5293POPC   D2A66640  37.769  11.600   6.464
 5293POPC   C3A66641  37.634  11.516   6.881
 5293POPC   C4A66642  37.815  11.255   7.178
 5293POPC   C1B66643  37.301  11.212   6.152
 5293POPC   C2B66644  37.512  11.082   6.529
 5293POPC   C3B66645  37.387  11.056   6.955
 5293POPC   C4B66646  37.326  11.248   7.333
 5294POPC   NC366647  39.746  34.259   5.125
 5294POPC   PO466648  40.004  34.811   5.418
 5294POPC   GL166649  39.970  34.641   5.808
 5294POPC   GL266650  40.069  34.299   5.833
 5294POPC   C1A66651  39.738  34.552   6.160
 5294POPC   D2A66652  39.738  34.316   6.534
 5294POPC   C3A66653  39.891  34.589   6.829
 5294POPC   C4A66654  39.861  34.523   7.236
 5294POPC   C1B66655  40.291  34.392   6.225
 5294POPC   C2B66656  40.379  34.528   6.659
 5294POPC   C3B66657  40.337  34.558   7.101
 5294POPC   C4B66658  40.243  34.254   7.461
 5295POPC   NC366659  33.341  24.597   5.450
 5295POPC   PO466660  33.800  24.220   5.703
 5295POPC   GL166661  33.574  24.531   5.913
 5295POPC   GL266662  33.730  24.819   5.815
 5295POPC   C1A66663  33.419  24.552   6.328
 5295POPC   D2A66664  33.341  24.241   6.680
 5295POPC   C3A66665  33.655  24.180   6.998
 5295POPC   C4A66666  34.000  24.175   7.305
 5295POPC   C1B66667  33.928  24.689   6.250
 5295POPC   C2B66668  33.846  24.530   6.655
 5295POPC   C3B66669  34.102  24.547   6.979
 5295POPC   C4B66670  34.201  24.634   7.399
 5296POPC   NC366671  16.582  44.275   5.039
 5296POPC   PO466672  16.677  44.907   5.338
 5296POPC   GL166673  16.883  44.867   5.773
 5296POPC   GL266674  16.625  44.680   5.819
 5296POPC   C1A66675  16.802  44.863   6.246
 5296POPC   D2A66676  16.732  44.943   6.655
 5296POPC   C3A66677  16.680  44.703   6.987
 5296POPC   C4A66678  16.872  44.901   7.288
 5296POPC   C1B66679  16.336  44.660   6.157
 5296POPC   C2B66680  16.408  44.535   6.557
 5296POPC   C3B66681  16.293  44.375   6.941
 5296POPC   C4B66682  16.457  44.437   7.368
 5297POPC   NC366683  10.952  28.046   5.664
 5297POPC   PO466684  11.632  28.199   5.474
 5297POPC   GL166685  11.433  28.217   5.815
 5297POPC   GL266686  11.465  28.580   5.834
 5297POPC   C1A66687  11.439  28.067   6.223
 5297POPC   D2A66688  11.377  28.287   6.606
 5297POPC   C3A66689  11.140  28.116   6.960
 5297POPC   C4A66690  10.909  28.156   7.369
 5297POPC   C1B66691  11.665  28.560   6.250
 5297POPC   C2B66692  11.674  28.728   6.685
 5297POPC   C3B66693  11.424  28.559   7.028
 5297POPC   C4B66694  11.457  28.253   7.332
 5298POPC   NC366695  44.292  43.743   4.965
 5298POPC   PO466696  44.748  43.943   5.496
 5298POPC   GL166697  44.677  43.725   5.861
 5298POPC   GL266698  44.385  43.625   5.846
 5298POPC   C1A66699  44.776  43.728   6.267
 5298POPC   D2A66700  44.889  44.113   6.475
 5298POPC   C3A66701   0.080  44.072   6.887
 5298POPC   C4A66702  44.988  43.960   7.301
 5298POPC   C1B66703  44.233  43.679   6.237
 5298POPC   C2B66704  44.396  43.814   6.619
 5298POPC   C3B66705  44.500  43.774   7.045
 5298POPC   C4B66706  44.173  43.598   7.319
 5299POPC   NC366707  21.044  27.089   5.328
 5299POPC   PO466708  20.532  26.729   5.395
 5299POPC   GL166709  20.639  26.778   5.808
 5299POPC   GL266710  20.908  26.998   5.846
 5299POPC   C1A66711  20.565  26.786   6.259
 5299POPC   D2A66712  20.386  26.658   6.678
 5299POPC   C3A66713  20.494  26.757   7.083
 5299POPC   C4A66714  20.687  26.571   7.433
 5299POPC   C1B66715  20.996  27.037   6.311
 5299POPC   C2B66716  20.846  26.912   6.725
 5299POPC   C3B66717  20.881  27.076   7.162
 5299POPC   C4B66718  20.755  27.410   7.443
 5300POPC   NC366719   2.401   3.582   5.402
 5300POPC   PO466720   2.085   2.973   5.433
 5300POPC   GL166721   2.120   3.319   5.770
 5300POPC   GL266722   1.846   3.544   5.853
 5300POPC   C1A66723   2.095   3.339   6.232
 5300POPC   D2A66724   1.980   3.226   6.651
 5300POPC   C3A66725   1.991   3.551   6.981
 5300POPC   C4A66726   2.148   3.390   7.381
 5300POPC   C1B66727   1.723   3.765   6.228
 5300POPC   C2B66728   1.630   4.040   6.587
 5300POPC   C3B66729   1.624   3.936   7.031
 5300POPC   C4B66730   1.567   3.575   7.342
 5301POPC   NC366731   3.396   6.249   5.526
 5301POPC   PO466732   3.650   6.813   5.261
 5301POPC   GL166733   3.684   6.593   5.753
 5301POPC   GL266734   3.772   6.279   5.899
 5301POPC   C1A66735   3.607   6.674   6.214
 5301POPC   D2A66736   3.815   6.778   6.598
 5301POPC   C3A66737   3.528   6.760   6.922
 5301POPC   C4A66738   3.392   6.780   7.336
 5301POPC   C1B66739   3.446   6.189   6.245
 5301POPC   C2B66740   3.376   6.274   6.702
 5301POPC   C3B66741   3.496   6.257   7.151
 5301POPC   C4B66742   3.603   6.389   7.583
 5302POPC   NC366743  29.669   3.725   5.300
 5302POPC   PO466744  30.227   3.364   5.256
 5302POPC   GL166745  30.029   3.399   5.675
 5302POPC   GL266746  29.648   3.356   5.699
 5302POPC   C1A66747  30.097   3.610   6.100
 5302POPC   D2A66748  30.373   3.733   6.476
 5302POPC   C3A66749  30.292   3.573   6.884
 5302POPC   C4A66750  29.862   3.483   6.935
 5302POPC   C1B66751  29.464   3.239   6.135
 5302POPC   C2B66752  29.638   3.134   6.563
 5302POPC   C3B66753  29.620   3.056   7.006
 5302POPC   C4B66754  29.212   3.179   7.143
 5303POPC   NC366755  37.724  37.767   5.458
 5303POPC   PO466756  37.264  38.276   5.603
 5303POPC   GL166757  37.506  38.030   5.934
 5303POPC   GL266758  37.562  37.671   5.932
 5303POPC   C1A66759  37.542  37.883   6.383
 5303POPC   D2A66760  37.930  37.823   6.639
 5303POPC   C3A66761  37.881  37.990   7.017
 5303POPC   C4A66762  37.444  38.086   7.134
 5303POPC   C1B66763  37.437  37.325   6.201
 5303POPC   C2B66764  37.513  37.422   6.610
 5303POPC   C3B66765  37.644  37.546   6.978
 5303POPC   C4B66766  37.791  37.604   7.355
 5304POPC   NC366767  15.579   3.162   5.381
 5304POPC   PO466768  15.070   2.842   5.400
 5304POPC   GL166769  15.353   2.782   5.736
 5304POPC   GL266770  15.055   2.653   5.876
 5304POPC   C1A66771  15.340   2.967   6.168
 5304POPC   D2A66772  15.255   2.789   6.583
 5304POPC   C3A66773  15.368   2.975   6.978
 5304POPC   C4A66774  15.247   2.770   7.378
 5304POPC   C1B66775  14.845   2.837   6.222
 5304POPC   C2B66776  14.782   2.996   6.601
 5304POPC   C3B66777  14.869   2.837   7.010
 5304POPC   C4B66778  14.619   3.001   7.330
 5305POPC   NC366779   3.761  13.721   5.267
 5305POPC   PO466780   3.228  13.270   5.396
 5305POPC   GL166781   3.379  13.493   5.726
 5305POPC   GL266782   3.377  13.175   5.907
 5305POPC   C1A66783   3.623  13.659   6.079
 5305POPC   D2A66784   3.709  13.785   6.521
 5305POPC   C3A66785   3.675  13.572   6.933
 5305POPC   C4A66786   3.654  13.784   7.324
 5305POPC   C1B66787   3.186  13.423   6.222
 5305POPC   C2B66788   3.283  13.405   6.649
 5305POPC   C3B66789   3.172  13.511   7.062
 5305POPC   C4B66790   2.962  13.327   7.415
 5306POPC   NC366791  39.884   2.112   5.338
 5306POPC   PO466792  40.093   1.491   5.271
 5306POPC   GL166793  40.022   1.692   5.713
 5306POPC   GL266794  39.848   2.013   5.867
 5306POPC   C1A66795  40.056   1.686   6.189
 5306POPC   D2A66796  39.852   1.716   6.618
 5306POPC   C3A66797  40.120   1.894   6.952
 5306POPC   C4A66798  40.226   2.286   7.214
 5306POPC   C1B66799  39.624   2.120   6.277
 5306POPC   C2B66800  39.428   2.016   6.695
 5306POPC   C3B66801  39.538   1.949   7.131
 5306POPC   C4B66802  39.897   1.946   7.416
 5307POPC   NC366803  17.960  16.695   5.547
 5307POPC   PO466804  18.581  16.666   5.304
 5307POPC   GL166805  18.421  16.745   5.749
 5307POPC   GL266806  18.515  16.460   5.970
 5307POPC   C1A66807  18.297  16.852   6.184
 5307POPC   D2A66808  18.473  16.609   6.531
 5307POPC   C3A66809  18.462  16.738   6.937
 5307POPC   C4A66810  18.105  16.748   7.165
 5307POPC   C1B66811  18.764  16.259   6.290
 5307POPC   C2B66812  18.874  16.320   6.724
 5307POPC   C3B66813  18.701  16.342   7.157
 5307POPC   C4B66814  18.595  16.306   7.617
 5308POPC   NC366815   4.968  44.475   5.353
 5308POPC   PO466816   4.903   0.110   5.636
 5308POPC   GL166817   4.979  44.706   5.849
 5308POPC   GL266818   5.233  44.399   5.787
 5308POPC   C1A66819   4.967  44.778   6.292
 5308POPC   D2A66820   5.107  44.734   6.720
 5308POPC   C3A66821   4.921  44.915   7.100
 5308POPC   C4A66822   4.894  44.870   7.562
 5308POPC   C1B66823   5.272  44.384   6.246
 5308POPC   C2B66824   5.325  44.224   6.643
 5308POPC   C3B66825   5.103  44.326   7.003
 5308POPC   C4B66826   5.249  44.388   7.395
 5309POPC   NC366827   8.881  32.549   5.527
 5309POPC   PO466828   9.100  31.910   5.439
 5309POPC   GL166829   9.266  32.013   5.856
 5309POPC   GL266830   8.936  32.167   5.910
 5309POPC   C1A66831   9.240  32.081   6.317
 5309POPC   D2A66832   9.169  32.363   6.677
 5309POPC   C3A66833   9.132  32.118   7.039
 5309POPC   C4A66834   9.145  32.276   7.438
 5309POPC   C1B66835   8.957  32.522   6.219
 5309POPC   C2B66836   8.751  32.658   6.607
 5309POPC   C3B66837   8.788  32.510   7.018
 5309POPC   C4B66838   8.505  32.230   7.145
 5310POPC   NC366839  32.205   0.095   5.166
 5310POPC   PO466840  32.561  44.604   5.416
 5310POPC   GL166841  32.116  44.718   5.591
 5310POPC   GL266842  31.895  44.444   5.748
 5310POPC   C1A66843  32.055  44.834   6.045
 5310POPC   D2A66844  32.419  44.758   6.356
 5310POPC   C3A66845  32.455  44.691   6.810
 5310POPC   C4A66846  32.307  44.831   7.211
 5310POPC   C1B66847  32.174  44.352   6.128
 5310POPC   C2B66848  32.147  44.334   6.599
 5310POPC   C3B66849  31.943  44.566   6.959
 5310POPC   C4B66850  31.942  44.536   7.430
 5311POPC   NC366851  31.045   2.985   5.494
 5311POPC   PO466852  30.616   2.520   5.366
 5311POPC   GL166853  30.668   2.740   5.770
 5311POPC   GL266854  30.331   2.758   5.804
 5311POPC   C1A66855  30.810   2.836   6.229
 5311POPC   D2A66856  30.569   2.797   6.646
 5311POPC   C3A66857  30.818   2.747   7.026
 5311POPC   C4A66858  30.893   2.869   7.469
 5311POPC   C1B66859  30.381   2.586   6.193
 5311POPC   C2B66860  30.313   2.357   6.552
 5311POPC   C3B66861  30.463   2.364   6.997
 5311POPC   C4B66862  30.390   2.702   7.312
 5312POPC   NC366863   0.312  20.148   5.306
 5312POPC   PO466864   0.185  19.476   5.184
 5312POPC   GL166865   0.351  19.638   5.607
 5312POPC   GL266866   0.304  19.371   5.883
 5312POPC   C1A66867   0.403  19.908   6.023
 5312POPC   D2A66868   0.393  19.912   6.515
 5312POPC   C3A66869   0.493  20.168   6.913
 5312POPC   C4A66870   0.366  20.109   7.373
 5312POPC   C1B66871   0.423  19.391   6.342
 5312POPC   C2B66872   0.428  19.479   6.816
 5312POPC   C3B66873   0.341  19.477   7.266
 5312POPC   C4B66874   0.309  19.693   7.657
 5313POPC   NC366875  11.192  29.461   5.418
 5313POPC   PO466876  11.589  28.890   5.407
 5313POPC   GL166877  11.662  29.072   5.818
 5313POPC   GL266878  11.482  29.392   5.829
 5313POPC   C1A66879  11.491  29.064   6.242
 5313POPC   D2A66880  11.175  28.843   6.498
 5313POPC   C3A66881  11.211  29.000   6.897
 5313POPC   C4A66882  11.448  28.999   7.266
 5313POPC   C1B66883  11.269  29.611   6.175
 5313POPC   C2B66884  11.137  29.474   6.591
 5313POPC   C3B66885  11.267  29.509   7.042
 5313POPC   C4B66886  11.583  29.489   7.360
 5314POPC   NC366887  11.575   4.739   5.243
 5314POPC   PO466888  11.157   5.162   5.460
 5314POPC   GL166889  11.228   5.052   5.866
 5314POPC   GL266890  11.394   4.765   5.806
 5314POPC   C1A66891  11.218   5.281   6.258
 5314POPC   D2A66892  11.349   5.153   6.638
 5314POPC   C3A66893  11.615   5.153   6.951
 5314POPC   C4A66894  11.419   5.248   7.352
 5314POPC   C1B66895  11.566   4.891   6.228
 5314POPC   C2B66896  11.598   4.711   6.637
 5314POPC   C3B66897  11.328   4.714   7.007
 5314POPC   C4B66898  11.473   4.743   7.457
 5315POPC   NC366899  19.925  39.600   5.563
 5315POPC   PO466900  19.652  40.147   5.371
 5315POPC   GL166901  19.709  39.995   5.810
 5315POPC   GL266902  19.448  39.763   5.802
 5315POPC   C1A66903  19.987  39.930   6.209
 5315POPC   D2A66904  20.180  39.770   6.614
 5315POPC   C3A66905  20.042  39.906   7.025
 5315POPC   C4A66906  19.928  40.027   7.458
 5315POPC   C1B66907  19.445  39.833   6.225
 5315POPC   C2B66908  19.661  39.802   6.590
 5315POPC   C3B66909  19.531  39.812   6.972
 5315POPC   C4B66910  19.569  39.693   7.381
 5316POPC   NC366911  33.471  40.214   5.587
 5316POPC   PO466912  33.439  39.533   5.502
 5316POPC   GL166913  33.611  39.767   5.867
 5316POPC   GL266914  33.893  40.035   5.865
 5316POPC   C1A66915  33.608  39.855   6.307
 5316POPC   D2A66916  33.474  39.988   6.709
 5316POPC   C3A66917  33.644  39.732   7.013
 5316POPC   C4A66918  34.006  39.753   7.304
 5316POPC   C1B66919  33.945  40.245   6.278
 5316POPC   C2B66920  33.997  40.109   6.717
 5316POPC   C3B66921  34.167  40.215   7.123
 5316POPC   C4B66922  34.147  40.390   7.526
 5317POPC   NC366923  21.182   0.719   5.451
 5317POPC   PO466924  21.616   1.291   5.473
 5317POPC   GL166925  21.502   1.410   5.860
 5317POPC   GL266926  21.335   1.097   5.912
 5317POPC   C1A66927  21.578   1.373   6.293
 5317POPC   D2A66928  21.350   1.172   6.633
 5317POPC   C3A66929  21.531   1.245   7.024
 5317POPC   C4A66930  21.392   1.345   7.440
 5317POPC   C1B66931  21.042   0.940   6.253
 5317POPC   C2B66932  20.904   0.955   6.711
 5317POPC   C3B66933  21.098   0.994   7.157
 5317POPC   C4B66934  21.125   0.894   7.626
 5318POPC   NC366935  29.460   9.466   5.432
 5318POPC   PO466936  29.113   9.988   5.407
 5318POPC   GL166937  29.276   9.837   5.798
 5318POPC   GL266938  29.497  10.099   5.783
 5318POPC   C1A66939  29.183   9.639   6.243
 5318POPC   D2A66940  29.156   9.507   6.705
 5318POPC   C3A66941  28.961   9.739   7.068
 5318POPC   C4A66942  29.159   9.938   7.440
 5318POPC   C1B66943  29.599   9.920   6.194
 5318POPC   C2B66944  29.459   9.947   6.603
 5318POPC   C3B66945  29.479   9.849   7.014
 5318POPC   C4B66946  29.362   9.463   7.194
 5319POPC   NC366947   9.614  35.784   5.232
 5319POPC   PO466948   9.976  35.321   5.449
 5319POPC   GL166949   9.648  35.199   5.743
 5319POPC   GL266950   9.584  35.541   5.837
 5319POPC   C1A66951   9.481  35.174   6.188
 5319POPC   D2A66952   9.744  35.187   6.571
 5319POPC   C3A66953   9.566  35.165   6.964
 5319POPC   C4A66954   9.592  35.516   7.223
 5319POPC   C1B66955   9.953  35.404   6.147
 5319POPC   C2B66956  10.155  35.508   6.560
 5319POPC   C3B66957  10.053  35.372   6.986
 5319POPC   C4B66958  10.057  35.559   7.417
 5320POPC   NC366959  14.534  21.706   5.395
 5320POPC   PO466960  14.086  22.202   5.541
 5320POPC   GL166961  14.318  22.225   5.895
 5320POPC   GL266962  14.499  21.925   5.883
 5320POPC   C1A66963  14.576  22.324   6.213
 5320POPC   D2A66964  14.676  22.205   6.618
 5320POPC   C3A66965  14.323  22.115   6.874
 5320POPC   C4A66966  14.472  21.934   7.206
 5320POPC   C1B66967  14.091  21.862   6.155
 5320POPC   C2B66968  13.967  21.879   6.592
 5320POPC   C3B66969  14.071  21.661   6.985
 5320POPC   C4B66970  14.014  21.819   7.410
 5321POPC   NC366971  10.640   2.212   5.437
 5321POPC   PO466972  10.079   1.780   5.358
 5321POPC   GL166973  10.221   1.876   5.793
 5321POPC   GL266974  10.577   1.927   5.869
 5321POPC   C1A66975  10.278   1.858   6.271
 5321POPC   D2A66976  10.267   2.223   6.615
 5321POPC   C3A66977  10.389   2.103   7.066
 5321POPC   C4A66978  10.462   1.956   7.482
 5321POPC   C1B66979  10.741   2.054   6.270
 5321POPC   C2B66980  10.674   1.917   6.688
 5321POPC   C3B66981  10.838   1.855   7.110
 5321POPC   C4B66982  10.984   1.811   7.517
 5322POPC   NC366983  26.509  27.760   5.435
 5322POPC   PO466984  25.879  27.461   5.380
 5322POPC   GL166985  26.058  27.446   5.826
 5322POPC   GL266986  26.409  27.376   5.808
 5322POPC   C1A66987  26.154  27.354   6.296
 5322POPC   D2A66988  26.274  27.330   6.733
 5322POPC   C3A66989  25.989  27.474   7.049
 5322POPC   C4A66990  25.826  27.481   7.471
 5322POPC   C1B66991  26.387  27.758   6.094
 5322POPC   C2B66992  26.247  27.896   6.508
 5322POPC   C3B66993  26.380  27.801   6.926
 5322POPC   C4B66994  26.257  28.007   7.273
 5323POPC   NC366995  20.997   3.884   5.588
 5323POPC   PO466996  21.375   3.456   5.242
 5323POPC   GL166997  21.547   3.530   5.684
 5323POPC   GL266998  21.726   3.863   5.767
 5323POPC   C1A66999  21.427   3.363   6.108
 5323POPC   D2A67000  21.154   3.482   6.464
 5323POPC   C3A67001  21.316   3.351   6.869
 5323POPC   C4A67002  21.292   3.545   7.220
 5323POPC   C1B67003  21.604   3.836   6.193
 5323POPC   C2B67004  21.655   3.584   6.565
 5323POPC   C3B67005  21.603   3.828   6.928
 5323POPC   C4B67006  21.702   4.063   7.277
 5324POPC   NC367007  32.772  34.365   5.527
 5324POPC   PO467008  33.434  34.321   5.466
 5324POPC   GL167009  33.193  34.531   5.839
 5324POPC   GL267010  32.931  34.814   5.773
 5324POPC   C1A67011  32.899  34.542   6.232
 5324POPC   D2A67012  32.603  34.544   6.604
 5324POPC   C3A67013  32.781  34.669   7.006
 5324POPC   C4A67014  33.163  34.469   7.179
 5324POPC   C1B67015  32.783  35.041   6.178
 5324POPC   C2B67016  32.976  35.023   6.592
 5324POPC   C3B67017  33.189  35.002   6.982
 5324POPC   C4B67018  32.947  35.116   7.337
 5325POPC   NC367019  25.116  30.746   5.039
 5325POPC   PO467020  25.456  30.427   5.526
 5325POPC   GL167021  25.147  30.591   5.812
 5325POPC   GL267022  25.395  30.813   5.918
 5325POPC   C1A67023  25.002  30.765   6.240
 5325POPC   D2A67024  24.752  30.796   6.622
 5325POPC   C3A67025  24.959  30.730   7.016
 5325POPC   C4A67026  25.332  30.838   7.218
 5325POPC   C1B67027  25.597  30.854   6.333
 5325POPC   C2B67028  25.595  30.680   6.772
 5325POPC   C3B67029  25.801  30.697   7.175
 5325POPC   C4B67030  25.649  30.919   7.617
 5326POPC   NC367031  35.750  42.681   5.581
 5326POPC   PO467032  35.978  43.269   5.320
 5326POPC   GL167033  36.032  43.094   5.735
 5326POPC   GL267034  36.197  43.416   5.784
 5326POPC   C1A67035  36.216  43.013   6.140
 5326POPC   D2A67036  35.971  43.023   6.518
 5326POPC   C3A67037  36.043  43.194   6.921
 5326POPC   C4A67038  36.332  43.051   7.211
 5326POPC   C1B67039  36.463  43.457   6.135
 5326POPC   C2B67040  36.449  43.293   6.563
 5326POPC   C3B67041  36.460  43.501   6.962
 5326POPC   C4B67042  36.138  43.561   7.304
 5327POPC   NC367043  29.650  43.717   5.643
 5327POPC   PO467044  30.330  43.668   5.513
 5327POPC   GL167045  30.093  43.894   5.856
 5327POPC   GL267046  29.905  44.205   5.787
 5327POPC   C1A67047  29.727  43.936   6.231
 5327POPC   D2A67048  29.553  44.002   6.660
 5327POPC   C3A67049  29.768  43.817   7.026
 5327POPC   C4A67050  29.781  43.622   7.481
 5327POPC   C1B67051  30.118  44.245   6.209
 5327POPC   C2B67052  30.111  43.960   6.586
 5327POPC   C3B67053  30.237  44.123   6.976
 5327POPC   C4B67054  29.981  44.172   7.320
 5328POPC   NC367055  33.474   3.088   5.514
 5328POPC   PO467056  33.942   2.611   5.415
 5328POPC   GL167057  33.930   2.851   5.791
 5328POPC   GL267058  34.058   3.192   5.709
 5328POPC   C1A67059  33.981   2.687   6.233
 5328POPC   D2A67060  33.895   2.477   6.622
 5328POPC   C3A67061  33.757   2.692   6.956
 5328POPC   C4A67062  33.814   2.627   7.386
 5328POPC   C1B67063  33.959   3.191   6.190
 5328POPC   C2B67064  33.975   3.058   6.645
 5328POPC   C3B67065  34.025   3.069   7.126
 5328POPC   C4B67066  33.917   3.085   7.571
 5329POPC   NC367067  32.438  27.547   5.350
 5329POPC   PO467068  32.042  28.089   5.403
 5329POPC   GL167069  32.268  27.804   5.775
 5329POPC   GL267070  32.542  27.500   5.841
 5329POPC   C1A67071  32.422  27.812   6.216
 5329POPC   D2A67072  32.523  27.689   6.635
 5329POPC   C3A67073  32.181  27.840   6.918
 5329POPC   C4A67074  32.269  27.758   7.356
 5329POPC   C1B67075  32.294  27.286   6.177
 5329POPC   C2B67076  32.134  27.383   6.595
 5329POPC   C3B67077  32.326  27.361   7.009
 5329POPC   C4B67078  32.091  27.256   7.344
 5330POPC   NC367079   3.659  32.907   5.315
 5330POPC   PO467080   3.052  33.113   5.330
 5330POPC   GL167081   3.303  33.058   5.735
 5330POPC   GL267082   3.540  32.778   5.815
 5330POPC   C1A67083   3.284  33.139   6.202
 5330POPC   D2A67084   3.146  33.350   6.598
 5330POPC   C3A67085   3.289  33.143   6.955
 5330POPC   C4A67086   3.621  33.107   7.287
 5330POPC   C1B67087   3.656  32.749   6.266
 5330POPC   C2B67088   3.622  32.807   6.727
 5330POPC   C3B67089   3.415  32.661   7.098
 5330POPC   C4B67090   3.390  32.590   7.554
 5331POPC   NC367091  34.052  28.448   5.322
 5331POPC   PO467092  33.673  27.891   5.514
 5331POPC   GL167093  33.857  28.174   5.840
 5331POPC   GL267094  33.839  28.525   5.783
 5331POPC   C1A67095  33.890  28.059   6.287
 5331POPC   D2A67096  33.662  27.788   6.583
 5331POPC   C3A67097  33.728  28.032   6.925
 5331POPC   C4A67098  33.708  28.116   7.350
 5331POPC   C1B67099  33.973  28.591   6.217
 5331POPC   C2B67100  33.908  28.477   6.667
 5331POPC   C3B67101  33.981  28.497   7.129
 5331POPC   C4B67102  33.808  28.558   7.579
 5332POPC   NC367103  13.454  34.451   5.383
 5332POPC   PO467104  13.592  34.999   5.302
 5332POPC   GL167105  13.524  34.749   5.780
 5332POPC   GL267106  13.390  34.900   6.095
 5332POPC   C1A67107  13.514  34.410   6.164
 5332POPC   D2A67108  13.469  34.540   6.637
 5332POPC   C3A67109  13.666  34.299   6.984
 5332POPC   C4A67110  13.987  34.363   7.299
 5332POPC   C1B67111  13.804  34.796   6.342
 5332POPC   C2B67112  13.982  34.872   6.781
 5332POPC   C3B67113  14.136  34.867   7.223
 5332POPC   C4B67114  14.437  34.880   7.552
 5333POPC   NC367115   7.742  41.131   5.262
 5333POPC   PO467116   7.107  40.791   5.324
 5333POPC   GL167117   7.508  40.829   5.657
 5333POPC   GL267118   7.486  40.518   5.831
 5333POPC   C1A67119   7.686  40.952   6.148
 5333POPC   D2A67120   7.425  41.133   6.501
 5333POPC   C3A67121   7.538  41.073   6.932
 5333POPC   C4A67122   7.360  41.010   7.341
 5333POPC   C1B67123   7.338  40.617   6.245
 5333POPC   C2B67124   7.508  40.611   6.684
 5333POPC   C3B67125   7.320  40.567   7.101
 5333POPC   C4B67126   7.568  40.356   7.429
 5334POPC   NC367127   0.165   9.688   5.502
 5334POPC   PO467128   0.803   9.678   5.471
 5334POPC   GL167129   0.586   9.785   5.859
 5334POPC   GL267130   0.312   9.584   5.964
 5334POPC   C1A67131   0.700   9.751   6.310
 5334POPC   D2A67132   0.694   9.912   6.745
 5334POPC   C3A67133   0.718   9.678   7.102
 5334POPC   C4A67134   0.679   9.798   7.553
 5334POPC   C1B67135   0.144   9.784   6.278
 5334POPC   C2B67136   0.188   9.799   6.683
 5334POPC   C3B67137   0.250   9.872   7.072
 5334POPC   C4B67138   0.263   9.595   7.337
 5335POPC   NC367139  38.963  14.741   5.353
 5335POPC   PO467140  39.134  15.409   5.439
 5335POPC   GL167141  39.065  15.322   5.867
 5335POPC   GL267142  38.923  14.971   5.833
 5335POPC   C1A67143  39.264  15.159   6.255
 5335POPC   D2A67144  39.351  14.823   6.554
 5335POPC   C3A67145  39.452  15.074   6.883
 5335POPC   C4A67146  39.360  15.199   7.287
 5335POPC   C1B67147  38.766  15.059   6.222
 5335POPC   C2B67148  38.910  15.085   6.653
 5335POPC   C3B67149  39.023  14.863   7.031
 5335POPC   C4B67150  38.879  15.091   7.379
 5336POPC   NC367151  23.422  14.310   5.404
 5336POPC   PO467152  23.967  14.563   5.057
 5336POPC   GL167153  23.815  14.505   5.653
 5336POPC   GL267154  23.680  14.189   5.807
 5336POPC   C1A67155  23.698  14.550   6.157
 5336POPC   D2A67156  23.531  14.371   6.574
 5336POPC   C3A67157  23.644  14.591   6.969
 5336POPC   C4A67158  23.352  14.742   7.299
 5336POPC   C1B67159  23.499  14.012   6.164
 5336POPC   C2B67160  23.664  13.877   6.562
 5336POPC   C3B67161  23.820  14.078   6.926
 5336POPC   C4B67162  23.816  14.228   7.335
 5337POPC   NC367163  42.599  16.101   5.355
 5337POPC   PO467164  42.036  16.085   5.777
 5337POPC   GL167165  42.458  16.081   5.941
 5337POPC   GL267166  42.622  15.760   5.842
 5337POPC   C1A67167  42.391  16.149   6.404
 5337POPC   D2A67168  42.039  16.040   6.707
 5337POPC   C3A67169  42.177  16.222   7.074
 5337POPC   C4A67170  42.640  16.171   7.113
 5337POPC   C1B67171  42.454  15.660   6.272
 5337POPC   C2B67172  42.491  15.718   6.730
 5337POPC   C3B67173  42.394  15.728   7.162
 5337POPC   C4B67174  42.018  15.789   7.395
 5338POPC   NC367175  18.357  15.976   5.086
 5338POPC   PO467176  18.181  16.280   5.629
 5338POPC   GL167177  18.098  16.103   5.987
 5338POPC   GL267178  18.253  15.797   6.026
 5338POPC   C1A67179  18.265  16.194   6.351
 5338POPC   D2A67180  18.337  16.126   6.740
 5338POPC   C3A67181  17.933  16.027   6.868
 5338POPC   C4A67182  17.862  16.308   7.179
 5338POPC   C1B67183  18.273  15.700   6.438
 5338POPC   C2B67184  18.430  15.480   6.762
 5338POPC   C3B67185  18.240  15.684   7.072
 5338POPC   C4B67186  18.303  16.056   7.262
 5339POPC   NC367187   5.437   2.860   5.296
 5339POPC   PO467188   4.840   2.602   5.456
 5339POPC   GL167189   5.060   2.866   5.758
 5339POPC   GL267190   5.347   2.680   5.775
 5339POPC   C1A67191   5.108   2.936   6.231
 5339POPC   D2A67192   5.036   2.774   6.687
 5339POPC   C3A67193   5.154   2.967   7.096
 5339POPC   C4A67194   5.024   2.992   7.570
 5339POPC   C1B67195   5.542   2.661   6.161
 5339POPC   C2B67196   5.486   2.592   6.582
 5339POPC   C3B67197   5.394   2.489   6.985
 5339POPC   C4B67198   5.234   2.543   7.419
 5340POPC   NC367199  22.565  36.241   5.660
 5340POPC   PO467200  22.913  35.660   5.435
 5340POPC   GL167201  22.972  35.912   5.823
 5340POPC   GL267202  22.941  36.257   5.977
 5340POPC   C1A67203  22.787  35.806   6.218
 5340POPC   D2A67204  22.669  36.047   6.559
 5340POPC   C3A67205  22.974  35.997   6.878
 5340POPC   C4A67206  23.080  35.983   7.290
 5340POPC   C1B67207  22.956  36.528   6.321
 5340POPC   C2B67208  22.908  36.492   6.757
 5340POPC   C3B67209  23.146  36.465   7.144
 5340POPC   C4B67210  23.175  36.475   7.625
 5341POPC   NC367211  42.275   8.486   4.936
 5341POPC   PO467212  42.367   8.102   5.459
 5341POPC   GL167213  42.350   8.026   5.871
 5341POPC   GL267214  42.698   7.969   5.862
 5341POPC   C1A67215  42.152   8.142   6.257
 5341POPC   D2A67216  42.109   8.101   6.666
 5341POPC   C3A67217  42.409   8.261   6.917
 5341POPC   C4A67218  42.320   8.207   7.354
 5341POPC   C1B67219  42.653   8.076   6.315
 5341POPC   C2B67220  42.771   7.921   6.728
 5341POPC   C3B67221  42.637   7.875   7.144
 5341POPC   C4B67222  42.698   7.936   7.598
 5342POPC   NC367223  18.314   7.682   5.390
 5342POPC   PO467224  18.067   6.999   5.574
 5342POPC   GL167225  18.360   7.325   5.826
 5342POPC   GL267226  18.198   7.669   5.892
 5342POPC   C1A67227  18.401   7.428   6.292
 5342POPC   D2A67228  18.085   7.405   6.632
 5342POPC   C3A67229  18.212   7.240   7.062
 5342POPC   C4A67230  18.611   7.388   7.316
 5342POPC   C1B67231  18.005   7.895   6.244
 5342POPC   C2B67232  18.235   7.976   6.623
 5342POPC   C3B67233  18.341   7.711   6.961
 5342POPC   C4B67234  18.210   7.704   7.381
 5343POPC   NC367235  15.774  27.050   5.438
 5343POPC   PO467236  15.939  27.738   5.430
 5343POPC   GL167237  15.875  27.584   5.816
 5343POPC   GL267238  16.057  27.261   5.827
 5343POPC   C1A67239  15.856  27.577   6.259
 5343POPC   D2A67240  16.072  27.765   6.622
 5343POPC   C3A67241  15.894  27.666   7.061
 5343POPC   C4A67242  15.532  27.895   7.214
 5343POPC   C1B67243  16.277  27.232   6.215
 5343POPC   C2B67244  16.296  27.306   6.646
 5343POPC   C3B67245  16.396  27.600   6.992
 5343POPC   C4B67246  16.218  27.262   7.213
 5344POPC   NC367247  24.987   6.947   5.413
 5344POPC   PO467248  25.609   6.653   5.398
 5344POPC   GL167249  25.359   6.588   5.807
 5344POPC   GL267250  25.087   6.788   5.892
 5344POPC   C1A67251  25.222   6.453   6.272
 5344POPC   D2A67252  25.099   6.288   6.709
 5344POPC   C3A67253  25.402   6.391   7.070
 5344POPC   C4A67254  25.604   6.636   7.404
 5344POPC   C1B67255  25.355   6.951   6.253
 5344POPC   C2B67256  25.501   6.913   6.704
 5344POPC   C3B67257  25.293   6.898   7.096
 5344POPC   C4B67258  24.948   6.625   7.197
 5345POPC   NC367259  35.806   2.100   5.392
 5345POPC   PO467260  36.365   1.683   5.413
 5345POPC   GL167261  36.157   1.844   5.769
 5345POPC   GL267262  35.808   1.730   5.790
 5345POPC   C1A67263  36.328   1.992   6.175
 5345POPC   D2A67264  36.493   1.919   6.575
 5345POPC   C3A67265  36.348   2.075   6.962
 5345POPC   C4A67266  36.238   1.887   7.394
 5345POPC   C1B67267  35.830   2.057   6.128
 5345POPC   C2B67268  35.975   2.130   6.557
 5345POPC   C3B67269  35.843   2.172   6.981
 5345POPC   C4B67270  35.690   1.879   7.322
 5346POPC   NC367271  33.026  41.102   5.217
 5346POPC   PO467272  33.115  40.424   5.349
 5346POPC   GL167273  33.124  40.761   5.647
 5346POPC   GL267274  32.772  40.803   5.663
 5346POPC   C1A67275  33.052  40.943   6.084
 5346POPC   D2A67276  33.016  40.780   6.512
 5346POPC   C3A67277  33.038  40.987   6.910
 5346POPC   C4A67278  33.039  40.971   7.350
 5346POPC   C1B67279  32.637  40.624   6.073
 5346POPC   C2B67280  32.545  40.499   6.492
 5346POPC   C3B67281  32.664  40.622   6.877
 5346POPC   C4B67282  32.741  40.591   7.289
 5347POPC   NC367283  41.452  12.156   5.517
 5347POPC   PO467284  41.992  11.966   5.474
 5347POPC   GL167285  41.874  12.241   5.895
 5347POPC   GL267286  41.545  12.378   5.955
 5347POPC   C1A67287  41.727  12.271   6.388
 5347POPC   D2A67288  41.645  11.843   6.598
 5347POPC   C3A67289  41.575  11.939   7.008
 5347POPC   C4A67290  41.695  12.305   7.275
 5347POPC   C1B67291  41.331  12.026   6.181
 5347POPC   C2B67292  41.246  12.177   6.608
 5347POPC   C3B67293  41.243  12.333   7.021
 5347POPC   C4B67294  41.225  12.324   7.492
 5348POPC   NC367295  39.359  44.055   5.361
 5348POPC   PO467296  38.946  43.561   5.412
 5348POPC   GL167297  39.184  43.753   5.739
 5348POPC   GL267298  39.081  44.116   5.791
 5348POPC   C1A67299  39.355  43.886   6.153
 5348POPC   D2A67300  39.607  43.789   6.502
 5348POPC   C3A67301  39.397  43.710   6.871
 5348POPC   C4A67302  39.180  43.828   7.225
 5348POPC   C1B67303  38.965  44.236   6.213
 5348POPC   C2B67304  39.106  44.104   6.595
 5348POPC   C3B67305  38.884  44.150   6.944
 5348POPC   C4B67306  38.856  44.234   7.351
 5349POPC   NC367307  27.453  17.109   5.393
 5349POPC   PO467308  27.761  17.652   5.376
 5349POPC   GL167309  27.679  17.435   5.745
 5349POPC   GL267310  27.823  17.133   5.783
 5349POPC   C1A67311  27.506  17.397   6.158
 5349POPC   D2A67312  27.231  17.520   6.494
 5349POPC   C3A67313  27.413  17.541   6.922
 5349POPC   C4A67314  27.415  17.651   7.369
 5349POPC   C1B67315  27.973  17.175   6.185
 5349POPC   C2B67316  28.106  17.169   6.599
 5349POPC   C3B67317  27.970  17.064   6.989
 5349POPC   C4B67318  27.812  17.381   7.265
 5350POPC   NC367319  26.480  26.157   5.531
 5350POPC   PO467320  27.129  25.810   5.512
 5350POPC   GL167321  26.852  25.934   5.852
 5350POPC   GL267322  26.949  26.234   6.005
 5350POPC   C1A67323  26.758  25.761   6.245
 5350POPC   D2A67324  26.929  25.757   6.650
 5350POPC   C3A67325  26.834  26.080   6.930
 5350POPC   C4A67326  26.887  25.988   7.335
 5350POPC   C1B67327  26.960  26.213   6.425
 5350POPC   C2B67328  27.243  26.325   6.720
 5350POPC   C3B67329  27.121  26.551   7.077
 5350POPC   C4B67330  26.788  26.479   7.346
 5351POPC   NC367331  37.524  31.194   5.390
 5351POPC   PO467332  37.952  31.661   5.529
 5351POPC   GL167333  37.764  31.529   5.897
 5351POPC   GL267334  37.512  31.262   5.902
 5351POPC   C1A67335  37.713  31.565   6.345
 5351POPC   D2A67336  37.368  31.591   6.637
 5351POPC   C3A67337  37.516  31.724   7.026
 5351POPC   C4A67338  37.319  31.610   7.397
 5351POPC   C1B67339  37.877  31.088   6.136
 5351POPC   C2B67340  37.988  31.077   6.567
 5351POPC   C3B67341  37.950  31.021   7.010
 5351POPC   C4B67342  37.699  31.280   7.269
 5352POPC   NC367343   0.624  23.497   5.493
 5352POPC   PO467344   1.236  23.544   5.182
 5352POPC   GL167345   1.154  23.760   5.622
 5352POPC   GL267346   1.005  23.540   5.830
 5352POPC   C1A67347   1.282  23.850   6.105
 5352POPC   D2A67348   1.419  23.531   6.454
 5352POPC   C3A67349   1.422  23.661   6.906
 5352POPC   C4A67350   1.351  23.393   7.268
 5352POPC   C1B67351   0.876  23.414   6.257
 5352POPC   C2B67352   0.944  23.552   6.662
 5352POPC   C3B67353   0.840  23.523   7.069
 5352POPC   C4B67354   1.073  23.812   7.278
 5353POPC   NC367355   9.065  44.651   5.449
 5353POPC   PO467356   8.419  44.482   5.405
 5353POPC   GL167357   8.723  44.446   5.781
 5353POPC   GL267358   8.778  44.798   5.879
 5353POPC   C1A67359   8.983  44.457   6.207
 5353POPC   D2A67360   8.940  44.570   6.667
 5353POPC   C3A67361   9.229  44.422   6.975
 5353POPC   C4A67362   9.508  44.707   7.120
 5353POPC   C1B67363   8.733  44.893   6.327
 5353POPC   C2B67364   8.926   0.105   6.688
 5353POPC   C3B67365   8.996  44.898   7.102
 5353POPC   C4B67366   8.777  44.507   7.217
 5354POPC   NC367367   5.674  31.383   5.203
 5354POPC   PO467368   6.072  31.814   5.460
 5354POPC   GL167369   5.748  31.586   5.717
 5354POPC   GL267370   5.773  31.201   5.724
 5354POPC   C1A67371   5.638  31.462   6.155
 5354POPC   D2A67372   5.863  31.269   6.518
 5354POPC   C3A67373   5.877  31.545   6.852
 5354POPC   C4A67374   5.853  31.584   7.277
 5354POPC   C1B67375   5.694  30.941   6.140
 5354POPC   C2B67376   5.503  30.916   6.578
 5354POPC   C3B67377   5.551  31.143   6.953
 5354POPC   C4B67378   5.780  30.982   7.293
 5355POPC   NC367379  33.975  33.260   5.583
 5355POPC   PO467380  33.903  32.752   5.142
 5355POPC   GL167381  33.666  32.675   5.577
 5355POPC   GL267382  33.491  32.922   5.726
 5355POPC   C1A67383  33.759  32.685   6.068
 5355POPC   D2A67384  33.898  32.904   6.449
 5355POPC   C3A67385  33.797  32.733   6.831
 5355POPC   C4A67386  33.737  32.654   7.237
 5355POPC   C1B67387  33.537  33.159   6.116
 5355POPC   C2B67388  33.514  33.249   6.547
 5355POPC   C3B67389  33.442  33.078   6.957
 5355POPC   C4B67390  33.538  33.087   7.384
 5356POPC   NC367391  41.061  27.865   5.571
 5356POPC   PO467392  40.739  27.266   5.435
 5356POPC   GL167393  40.631  27.557   5.730
 5356POPC   GL267394  40.936  27.450   5.906
 5356POPC   C1A67395  40.595  27.775   6.137
 5356POPC   D2A67396  40.865  27.718   6.521
 5356POPC   C3A67397  40.676  27.717   6.931
 5356POPC   C4A67398  40.902  27.720   7.277
 5356POPC   C1B67399  40.646  27.285   6.268
 5356POPC   C2B67400  40.598  27.177   6.723
 5356POPC   C3B67401  40.800  27.227   7.134
 5356POPC   C4B67402  40.720  27.361   7.577
 5357POPC   NC367403  31.861  42.598   5.471
 5357POPC   PO467404  31.224  42.561   5.380
 5357POPC   GL167405  31.459  42.307   5.679
 5357POPC   GL267406  31.295  42.003   5.774
 5357POPC   C1A67407  31.436  42.322   6.142
 5357POPC   D2A67408  31.477  42.134   6.553
 5357POPC   C3A67409  31.654  42.150   6.966
 5357POPC   C4A67410  31.913  42.425   7.206
 5357POPC   C1B67411  31.007  42.037   6.166
 5357POPC   C2B67412  30.965  42.213   6.585
 5357POPC   C3B67413  31.134  42.186   6.997
 5357POPC   C4B67414  31.119  42.377   7.396
 5358POPC   NC367415   9.576  43.454   5.412
 5358POPC   PO467416  10.038  43.008   5.211
 5358POPC   GL167417   9.845  43.056   5.654
 5358POPC   GL267418  10.026  42.809   5.853
 5358POPC   C1A67419   9.708  43.156   6.123
 5358POPC   D2A67420   9.862  42.966   6.560
 5358POPC   C3A67421   9.742  43.081   6.980
 5358POPC   C4A67422   9.439  42.934   7.239
 5358POPC   C1B67423  10.219  43.041   6.169
 5358POPC   C2B67424  10.110  43.395   6.437
 5358POPC   C3B67425  10.137  43.400   6.897
 5358POPC   C4B67426   9.866  43.489   7.276
 5359POPC   NC367427  13.693  18.751   5.503
 5359POPC   PO467428  13.722  19.362   5.402
 5359POPC   GL167429  13.501  19.196   5.772
 5359POPC   GL267430  13.273  19.464   5.831
 5359POPC   C1A67431  13.632  18.981   6.175
 5359POPC   D2A67432  13.859  19.136   6.548
 5359POPC   C3A67433  13.944  18.871   6.904
 5359POPC   C4A67434  13.847  19.015   7.289
 5359POPC   C1B67435  13.417  19.440   6.242
 5359POPC   C2B67436  13.356  19.170   6.580
 5359POPC   C3B67437  13.480  19.076   6.932
 5359POPC   C4B67438  13.369  19.269   7.242
 5360POPC   NC367439   9.152  16.635   5.482
 5360POPC   PO467440   8.770  17.133   5.553
 5360POPC   GL167441   9.064  17.009   5.890
 5360POPC   GL267442   8.996  16.666   5.959
 5360POPC   C1A67443   9.082  16.945   6.375
 5360POPC   D2A67444   8.754  16.783   6.646
 5360POPC   C3A67445   8.825  16.747   7.092
 5360POPC   C4A67446   9.093  16.826   7.429
 5360POPC   C1B67447   9.198  16.445   6.282
 5360POPC   C2B67448   9.199  16.533   6.727
 5360POPC   C3B67449   9.194  16.357   7.123
 5360POPC   C4B67450   8.892  16.340   7.477
 5361POPC   NC367451  43.538  15.885   5.364
 5361POPC   PO467452  44.117  15.996   5.574
 5361POPC   GL167453  43.871  15.782   5.849
 5361POPC   GL267454  43.514  15.789   5.853
 5361POPC   C1A67455  44.057  15.834   6.236
 5361POPC   D2A67456  44.060  16.148   6.539
 5361POPC   C3A67457  44.119  15.975   6.945
 5361POPC   C4A67458  44.151  16.097   7.372
 5361POPC   C1B67459  43.557  15.909   6.259
 5361POPC   C2B67460  43.743  15.743   6.631
 5361POPC   C3B67461  43.643  15.768   7.054
 5361POPC   C4B67462  43.638  16.080   7.397
 5362POPC   NC367463  38.071  22.891   5.417
 5362POPC   PO467464  37.465  23.264   5.455
 5362POPC   GL167465  37.622  23.014   5.782
 5362POPC   GL267466  37.896  23.228   5.805
 5362POPC   C1A67467  37.669  22.916   6.223
 5362POPC   D2A67468  37.782  23.044   6.626
 5362POPC   C3A67469  37.794  22.755   6.963
 5362POPC   C4A67470  37.552  22.698   7.317
 5362POPC   C1B67471  38.058  23.280   6.214
 5362POPC   C2B67472  38.266  23.212   6.627
 5362POPC   C3B67473  38.081  23.194   7.025
 5362POPC   C4B67474  37.700  23.218   7.234
 5363POPC   NC367475   7.904  18.843   5.102
 5363POPC   PO467476   8.361  19.271   5.428
 5363POPC   GL167477   8.419  19.271   5.836
 5363POPC   GL267478   8.633  19.590   5.850
 5363POPC   C1A67479   8.101  19.215   6.213
 5363POPC   D2A67480   7.804  19.068   6.547
 5363POPC   C3A67481   7.988  19.110   6.949
 5363POPC   C4A67482   8.135  18.958   7.332
 5363POPC   C1B67483   8.637  19.429   6.244
 5363POPC   C2B67484   8.426  19.318   6.597
 5363POPC   C3B67485   8.498  19.166   7.001
 5363POPC   C4B67486   8.393  19.379   7.367
 5364POPC   NC367487  41.137  18.104   5.424
 5364POPC   PO467488  41.373  18.739   5.303
 5364POPC   GL167489  41.478  18.516   5.730
 5364POPC   GL267490  41.290  18.223   5.889
 5364POPC   C1A67491  41.598  18.458   6.203
 5364POPC   D2A67492  41.431  18.472   6.615
 5364POPC   C3A67493  41.640  18.355   6.989
 5364POPC   C4A67494  41.532  18.440   7.403
 5364POPC   C1B67495  41.511  17.945   6.212
 5364POPC   C2B67496  41.555  17.952   6.665
 5364POPC   C3B67497  41.401  17.894   7.101
 5364POPC   C4B67498  41.164  18.094   7.470
 5365POPC   NC367499  43.569   9.225   5.384
 5365POPC   PO467500  44.065   8.807   5.150
 5365POPC   GL167501  44.130   8.981   5.621
 5365POPC   GL267502  43.821   9.099   5.805
 5365POPC   C1A67503  44.207   8.953   6.107
 5365POPC   D2A67504  44.032   8.807   6.539
 5365POPC   C3A67505  44.029   9.011   6.970
 5365POPC   C4A67506  43.964   8.811   7.402
 5365POPC   C1B67507  43.891   9.343   6.180
 5365POPC   C2B67508  43.753   9.246   6.596
 5365POPC   C3B67509  43.577   9.264   7.003
 5365POPC   C4B67510  43.668   9.218   7.457
 5366POPC   NC367511  13.524   6.537   5.463
 5366POPC   PO467512  13.824   7.067   5.767
 5366POPC   GL167513  13.565   6.720   5.938
 5366POPC   GL267514  13.286   6.419   5.882
 5366POPC   C1A67515  13.286   6.750   6.281
 5366POPC   D2A67516  13.133   6.874   6.687
 5366POPC   C3A67517  13.462   6.833   6.997
 5366POPC   C4A67518  13.611   6.745   7.414
 5366POPC   C1B67519  13.605   6.268   6.187
 5366POPC   C2B67520  13.693   6.314   6.639
 5366POPC   C3B67521  13.650   6.357   7.083
 5366POPC   C4B67522  13.305   6.256   7.374
 5367POPC   NC367523  36.941  30.136   5.311
 5367POPC   PO467524  36.603  29.522   5.299
 5367POPC   GL167525  36.763  29.728   5.671
 5367POPC   GL267526  36.589  30.063   5.715
 5367POPC   C1A67527  36.681  29.771   6.138
 5367POPC   D2A67528  36.939  29.785   6.506
 5367POPC   C3A67529  36.798  29.729   6.910
 5367POPC   C4A67530  37.053  29.857   7.216
 5367POPC   C1B67531  36.905  30.232   6.001
 5367POPC   C2B67532  36.919  30.299   6.434
 5367POPC   C3B67533  37.098  30.194   6.812
 5367POPC   C4B67534  37.131  30.375   7.191
 5368POPC   NC367535  22.654   5.535   5.432
 5368POPC   PO467536  22.994   4.901   5.369
 5368POPC   GL167537  23.091   5.186   5.690
 5368POPC   GL267538  22.765   5.185   5.821
 5368POPC   C1A67539  23.203   5.127   6.137
 5368POPC   D2A67540  23.012   5.287   6.494
 5368POPC   C3A67541  23.200   5.264   6.867
 5368POPC   C4A67542  23.045   5.112   7.245
 5368POPC   C1B67543  22.717   4.932   6.212
 5368POPC   C2B67544  22.661   4.971   6.678
 5368POPC   C3B67545  22.670   5.319   6.980
 5368POPC   C4B67546  22.719   5.459   7.427
 5369POPC   NC367547  19.104  12.989   5.268
 5369POPC   PO467548  19.398  12.479   5.401
 5369POPC   GL167549  19.217  12.688   5.753
 5369POPC   GL267550  19.256  13.060   5.741
 5369POPC   C1A67551  19.121  12.632   6.194
 5369POPC   D2A67552  18.881  12.672   6.580
 5369POPC   C3A67553  19.106  12.525   6.947
 5369POPC   C4A67554  19.203  12.622   7.394
 5369POPC   C1B67555  19.098  13.150   6.145
 5369POPC   C2B67556  19.253  13.019   6.544
 5369POPC   C3B67557  19.074  13.096   6.937
 5369POPC   C4B67558  19.167  13.146   7.364
 5370POPC   NC367559  21.922  36.993   5.504
 5370POPC   PO467560  22.510  36.635   5.416
 5370POPC   GL167561  22.268  36.793   5.838
 5370POPC   GL267562  22.188  37.133   5.902
 5370POPC   C1A67563  22.219  36.906   6.339
 5370POPC   D2A67564  22.463  36.773   6.693
 5370POPC   C3A67565  22.187  36.718   7.060
 5370POPC   C4A67566  21.759  36.801   7.194
 5370POPC   C1B67567  22.027  37.413   6.196
 5370POPC   C2B67568  21.883  37.436   6.588
 5370POPC   C3B67569  22.032  37.137   6.831
 5370POPC   C4B67570  22.091  37.184   7.257
 5371POPC   NC367571   8.011  35.600   5.194
 5371POPC   PO467572   8.043  36.114   5.649
 5371POPC   GL167573   8.379  36.200   5.869
 5371POPC   GL267574   8.518  35.890   5.851
 5371POPC   C1A67575   8.368  36.253   6.320
 5371POPC   D2A67576   8.115  36.079   6.657
 5371POPC   C3A67577   8.241  36.253   7.036
 5371POPC   C4A67578   8.506  36.138   7.366
 5371POPC   C1B67579   8.333  35.767   6.232
 5371POPC   C2B67580   8.573  35.821   6.633
 5371POPC   C3B67581   8.377  35.753   7.028
 5371POPC   C4B67582   7.938  35.743   7.160
 5372POPC   NC367583  13.214  33.006   5.398
 5372POPC   PO467584  12.607  32.787   5.348
 5372POPC   GL167585  12.852  32.833   5.727
 5372POPC   GL267586  12.800  33.193   5.755
 5372POPC   C1A67587  12.713  32.860   6.175
 5372POPC   D2A67588  12.595  32.747   6.610
 5372POPC   C3A67589  12.948  32.797   6.904
 5372POPC   C4A67590  13.056  32.718   7.333
 5372POPC   C1B67591  12.816  33.388   6.166
 5372POPC   C2B67592  12.806  33.223   6.578
 5372POPC   C3B67593  12.586  33.163   6.947
 5372POPC   C4B67594  12.798  33.199   7.297
 5373POPC   NC367595  36.419  11.485   5.293
 5373POPC   PO467596  35.968  11.021   5.448
 5373POPC   GL167597  36.113  11.251   5.818
 5373POPC   GL267598  36.350  11.572   5.788
 5373POPC   C1A67599  35.924  11.217   6.239
 5373POPC   D2A67600  36.133  11.258   6.644
 5373POPC   C3A67601  35.898  11.262   7.040
 5373POPC   C4A67602  35.956  11.305   7.471
 5373POPC   C1B67603  36.445  11.425   6.203
 5373POPC   C2B67604  36.634  11.455   6.630
 5373POPC   C3B67605  36.429  11.425   7.047
 5373POPC   C4B67606  36.367  11.599   7.441
 5374POPC   NC367607  39.882  16.782   5.314
 5374POPC   PO467608  40.313  16.300   5.468
 5374POPC   GL167609  40.109  16.607   5.784
 5374POPC   GL267610  39.931  16.957   5.786
 5374POPC   C1A67611  39.954  16.518   6.212
 5374POPC   D2A67612  40.047  16.667   6.631
 5374POPC   C3A67613  39.771  16.487   6.958
 5374POPC   C4A67614  39.897  16.673   7.325
 5374POPC   C1B67615  40.019  17.023   6.220
 5374POPC   C2B67616  40.246  17.145   6.587
 5374POPC   C3B67617  40.126  17.004   7.037
 5374POPC   C4B67618  40.178  17.037   7.563
 5375POPC   NC367619   0.576  22.655   5.699
 5375POPC   PO467620   0.266  22.112   5.384
 5375POPC   GL167621   0.413  22.100   5.817
 5375POPC   GL267622   0.235  22.380   5.922
 5375POPC   C1A67623   0.537  22.003   6.264
 5375POPC   D2A67624   0.366  22.148   6.671
 5375POPC   C3A67625   0.563  22.017   7.045
 5375POPC   C4A67626   0.369  21.773   7.412
 5375POPC   C1B67627   0.450  22.521   6.319
 5375POPC   C2B67628   0.630  22.665   6.692
 5375POPC   C3B67629   0.442  22.521   7.053
 5375POPC   C4B67630   0.434  22.297   7.462
 5376POPC   NC367631  43.713  19.653   5.456
 5376POPC   PO467632  44.431  19.388   5.492
 5376POPC   GL167633  44.165  19.576   5.751
 5376POPC   GL267634  44.163  19.902   5.850
 5376POPC   C1A67635  44.098  19.498   6.184
 5376POPC   D2A67636  43.780  19.561   6.502
 5376POPC   C3A67637  43.957  19.572   6.919
 5376POPC   C4A67638  43.871  19.685   7.346
 5376POPC   C1B67639  43.940  20.009   6.217
 5376POPC   C2B67640  43.906  20.040   6.657
 5376POPC   C3B67641  43.611  19.976   6.986
 5376POPC   C4B67642  43.629  20.177   7.377
 5377POPC   NC367643  23.953  43.010   5.511
 5377POPC   PO467644  23.326  42.899   5.514
 5377POPC   GL167645  23.602  42.876   5.866
 5377POPC   GL267646  23.659  43.222   5.879
 5377POPC   C1A67647  23.642  42.965   6.325
 5377POPC   D2A67648  23.521  43.250   6.657
 5377POPC   C3A67649  23.512  43.020   7.002
 5377POPC   C4A67650  23.870  42.761   6.956
 5377POPC   C1B67651  24.013  43.335   6.162
 5377POPC   C2B67652  24.116  43.213   6.561
 5377POPC   C3B67653  23.977  43.263   6.918
 5377POPC   C4B67654  24.056  43.532   7.191
 5378POPC   NC367655   6.709  39.719   5.438
 5378POPC   PO467656   6.960  40.316   5.614
 5378POPC   GL167657   6.603  40.050   5.821
 5378POPC   GL267658   6.728  39.674   5.935
 5378POPC   C1A67659   6.380  39.929   6.223
 5378POPC   D2A67660   6.529  39.680   6.554
 5378POPC   C3A67661   6.468  39.873   6.966
 5378POPC   C4A67662   6.662  39.968   7.347
 5378POPC   C1B67663   6.880  39.964   6.242
 5378POPC   C2B67664   6.687  40.185   6.576
 5378POPC   C3B67665   6.867  40.306   6.941
 5378POPC   C4B67666   6.779  40.469   7.353
 5379POPC   NC367667  42.691  42.131   5.245
 5379POPC   PO467668  43.253  42.542   5.298
 5379POPC   GL167669  43.140  42.425   5.737
 5379POPC   GL267670  42.947  42.679   5.855
 5379POPC   C1A67671  43.241  42.295   6.194
 5379POPC   D2A67672  43.425  42.158   6.614
 5379POPC   C3A67673  43.318  42.390   6.993
 5379POPC   C4A67674  43.076  42.143   7.266
 5379POPC   C1B67675  42.816  42.589   6.227
 5379POPC   C2B67676  42.995  42.533   6.620
 5379POPC   C3B67677  42.784  42.488   7.018
 5379POPC   C4B67678  42.645  42.393   7.440
 5380POPC   NC367679  30.149  25.407   5.418
 5380POPC   PO467680  29.499  25.194   5.513
 5380POPC   GL167681  29.832  25.245   5.785
 5380POPC   GL267682  29.880  25.619   5.820
 5380POPC   C1A67683  29.987  25.015   6.155
 5380POPC   D2A67684  29.966  24.761   6.533
 5380POPC   C3A67685  29.989  24.941   6.950
 5380POPC   C4A67686  29.742  25.058   7.314
 5380POPC   C1B67687  29.686  25.438   6.212
 5380POPC   C2B67688  29.874  25.302   6.587
 5380POPC   C3B67689  29.770  25.440   6.983
 5380POPC   C4B67690  29.962  25.572   7.341
 5381POPC   NC367691  11.549  22.129   5.501
 5381POPC   PO467692  10.971  22.388   5.164
 5381POPC   GL167693  11.003  22.291   5.719
 5381POPC   GL267694  11.381  22.302   5.949
 5381POPC   C1A67695  10.980  22.158   6.173
 5381POPC   D2A67696  11.080  22.305   6.584
 5381POPC   C3A67697  11.181  22.001   6.899
 5381POPC   C4A67698  11.170  22.265   7.237
 5381POPC   C1B67699  11.517  21.901   6.164
 5381POPC   C2B67700  11.589  21.764   6.592
 5381POPC   C3B67701  11.687  22.087   6.886
 5381POPC   C4B67702  11.620  22.056   7.306
 5382POPC   NC367703  15.070  40.383   5.159
 5382POPC   PO467704  14.992  41.040   5.330
 5382POPC   GL167705  15.219  40.793   5.649
 5382POPC   GL267706  15.077  40.442   5.687
 5382POPC   C1A67707  15.280  40.761   6.106
 5382POPC   D2A67708  15.234  40.988   6.517
 5382POPC   C3A67709  15.137  41.055   6.950
 5382POPC   C4A67710  15.320  40.858   7.323
 5382POPC   C1B67711  14.823  40.527   6.064
 5382POPC   C2B67712  14.996  40.538   6.476
 5382POPC   C3B67713  15.099  40.570   6.884
 5382POPC   C4B67714  14.700  40.622   6.987
 5383POPC   NC367715  22.948  26.764   5.437
 5383POPC   PO467716  22.478  27.307   5.397
 5383POPC   GL167717  22.664  27.027   5.772
 5383POPC   GL267718  22.668  26.662   5.859
 5383POPC   C1A67719  23.014  26.962   6.119
 5383POPC   D2A67720  22.960  26.903   6.593
 5383POPC   C3A67721  23.039  27.115   7.007
 5383POPC   C4A67722  22.951  27.023   7.447
 5383POPC   C1B67723  22.893  26.489   6.261
 5383POPC   C2B67724  22.860  26.407   6.711
 5383POPC   C3B67725  22.800  26.659   7.103
 5383POPC   C4B67726  22.522  26.723   7.493
 5384POPC   NC367727  25.008  17.290   5.160
 5384POPC   PO467728  24.395  17.404   5.532
 5384POPC   GL167729  24.450  17.673   5.900
 5384POPC   GL267730  24.658  17.411   6.081
 5384POPC   C1A67731  24.389  17.707   6.369
 5384POPC   D2A67732  24.544  17.502   6.727
 5384POPC   C3A67733  24.311  17.544   7.101
 5384POPC   C4A67734  24.266  17.660   7.530
 5384POPC   C1B67735  24.907  17.618   6.357
 5384POPC   C2B67736  25.084  17.683   6.728
 5384POPC   C3B67737  24.850  17.620   7.096
 5384POPC   C4B67738  24.888  17.178   7.157
 5385POPC   NC367739   2.886  33.400   5.645
 5385POPC   PO467740   2.516  33.949   5.339
 5385POPC   GL167741   2.572  33.785   5.739
 5385POPC   GL267742   2.900  33.911   5.780
 5385POPC   C1A67743   2.535  33.797   6.184
 5385POPC   D2A67744   2.696  33.610   6.573
 5385POPC   C3A67745   2.714  33.886   6.930
 5385POPC   C4A67746   2.762  33.730   7.357
 5385POPC   C1B67747   3.081  33.804   6.191
 5385POPC   C2B67748   3.157  33.889   6.624
 5385POPC   C3B67749   3.160  33.671   7.023
 5385POPC   C4B67750   3.213  33.436   7.367
 5386POPC   NC367751  41.961  26.382   5.582
 5386POPC   PO467752  41.545  25.955   5.304
 5386POPC   GL167753  41.630  26.015   5.753
 5386POPC   GL267754  41.992  25.957   5.863
 5386POPC   C1A67755  41.421  26.073   6.172
 5386POPC   D2A67756  41.215  26.362   6.508
 5386POPC   C3A67757  41.212  26.139   6.912
 5386POPC   C4A67758  41.399  25.724   7.033
 5386POPC   C1B67759  41.894  26.276   6.217
 5386POPC   C2B67760  41.686  26.151   6.619
 5386POPC   C3B67761  41.722  26.135   7.063
 5386POPC   C4B67762  41.814  26.332   7.459
 5387POPC   NC367763  40.415  29.953   5.456
 5387POPC   PO467764  41.066  29.739   5.494
 5387POPC   GL167765  40.801  29.900   5.795
 5387POPC   GL267766  40.577  29.627   5.819
 5387POPC   C1A67767  40.930  30.155   6.173
 5387POPC   D2A67768  40.821  30.042   6.583
 5387POPC   C3A67769  41.035  30.134   6.960
 5387POPC   C4A67770  40.682  30.200   7.247
 5387POPC   C1B67771  40.778  29.656   6.226
 5387POPC   C2B67772  40.653  29.557   6.627
 5387POPC   C3B67773  40.723  29.741   7.022
 5387POPC   C4B67774  40.866  29.789   7.460
 5388POPC   NC367775  22.790  25.682   5.624
 5388POPC   PO467776  22.877  26.313   5.358
 5388POPC   GL167777  23.080  26.371   5.782
 5388POPC   GL267778  23.039  26.057   5.855
 5388POPC   C1A67779  23.345  26.239   6.194
 5388POPC   D2A67780  23.216  26.055   6.635
 5388POPC   C3A67781  23.154  26.227   7.081
 5388POPC   C4A67782  23.070  26.048   7.480
 5388POPC   C1B67783  22.870  25.944   6.261
 5388POPC   C2B67784  22.664  25.924   6.672
 5388POPC   C3B67785  22.757  25.846   7.107
 5388POPC   C4B67786  22.646  25.810   7.574
 5389POPC   NC367787  25.919  37.503   5.388
 5389POPC   PO467788  25.810  38.171   5.405
 5389POPC   GL167789  25.802  37.879   5.774
 5389POPC   GL267790  26.110  37.642   5.869
 5389POPC   C1A67791  25.807  37.843   6.236
 5389POPC   D2A67792  25.664  37.560   6.586
 5389POPC   C3A67793  25.680  37.667   7.012
 5389POPC   C4A67794  25.746  37.306   7.217
 5389POPC   C1B67795  26.215  37.555   6.331
 5389POPC   C2B67796  26.118  37.787   6.739
 5389POPC   C3B67797  26.181  37.653   7.177
 5389POPC   C4B67798  26.240  37.181   7.212
 5390POPC   NC367799  28.372  27.375   5.004
 5390POPC   PO467800  27.861  27.447   5.437
 5390POPC   GL167801  28.108  27.430   5.852
 5390POPC   GL267802  28.445  27.492   5.789
 5390POPC   C1A67803  28.138  27.705   6.229
 5390POPC   D2A67804  28.123  27.887   6.606
 5390POPC   C3A67805  28.205  27.611   6.980
 5390POPC   C4A67806  28.599  27.627   7.205
 5390POPC   C1B67807  28.632  27.636   6.191
 5390POPC   C2B67808  28.582  27.477   6.628
 5390POPC   C3B67809  28.566  27.175   6.971
 5390POPC   C4B67810  28.752  27.160   7.362
 5391POPC   NC367811   5.800   3.754   5.084
 5391POPC   PO467812   6.034   3.434   5.618
 5391POPC   GL167813   5.913   3.795   5.929
 5391POPC   GL267814   5.567   3.825   5.997
 5391POPC   C1A67815   5.860   3.780   6.408
 5391POPC   D2A67816   5.870   3.374   6.619
 5391POPC   C3A67817   6.085   3.334   7.002
 5391POPC   C4A67818   6.102   3.755   7.102
 5391POPC   C1B67819   5.431   3.504   6.288
 5391POPC   C2B67820   5.361   3.426   6.730
 5391POPC   C3B67821   5.566   3.473   7.124
 5391POPC   C4B67822   5.460   3.702   7.508
 5392POPC   NC367823  35.630  14.285   5.590
 5392POPC   PO467824  35.500  14.894   5.221
 5392POPC   GL167825  35.241  14.717   5.673
 5392POPC   GL267826  35.048  14.420   5.678
 5392POPC   C1A67827  35.347  14.637   6.159
 5392POPC   D2A67828  35.540  14.292   6.389
 5392POPC   C3A67829  35.429  14.283   6.833
 5392POPC   C4A67830  35.569  14.133   7.245
 5392POPC   C1B67831  35.108  14.193   6.080
 5392POPC   C2B67832  35.038  14.296   6.482
 5392POPC   C3B67833  34.943  14.205   6.882
 5392POPC   C4B67834  35.056  14.423   7.218
 5393POPC   NC367835  44.937  29.467   5.213
 5393POPC   PO467836  44.736  30.037   5.490
 5393POPC   GL167837  44.882  30.009   5.916
 5393POPC   GL267838  44.524  29.902   5.981
 5393POPC   C1A67839  44.932  29.846   6.374
 5393POPC   D2A67840  44.732  29.605   6.687
 5393POPC   C3A67841  44.944  29.475   7.064
 5393POPC   C4A67842  44.940  29.572   7.521
 5393POPC   C1B67843  44.604  30.235   6.282
 5393POPC   C2B67844  44.779  30.237   6.646
 5393POPC   C3B67845  44.808  29.989   7.040
 5393POPC   C4B67846  44.575  29.899   7.414
 5394POPC   NC367847  23.243  44.928   5.301
 5394POPC   PO467848  22.626  44.637   5.407
 5394POPC   GL167849  22.840  44.856   5.774
 5394POPC   GL267850  23.211  44.891   5.803
 5394POPC   C1A67851  22.851  44.910   6.258
 5394POPC   D2A67852  22.660  44.775   6.661
 5394POPC   C3A67853  22.895  44.806   7.045
 5394POPC   C4A67854  22.852  44.537   7.388
 5394POPC   C1B67855  23.411   0.012   6.184
 5394POPC   C2B67856  23.328   0.079   6.611
 5394POPC   C3B67857  23.456   0.005   7.034
 5394POPC   C4B67858  23.199   0.087   7.380
 5395POPC   NC367859  22.108  32.872   5.374
 5395POPC   PO467860  22.077  33.517   5.415
 5395POPC   GL167861  22.204  33.265   5.749
 5395POPC   GL267862  22.287  32.903   5.828
 5395POPC   C1A67863  22.233  33.248   6.170
 5395POPC   D2A67864  22.173  33.055   6.527
 5395POPC   C3A67865  22.037  33.215   6.877
 5395POPC   C4A67866  22.300  33.208   7.194
 5395POPC   C1B67867  22.486  32.745   6.168
 5395POPC   C2B67868  22.423  32.622   6.567
 5395POPC   C3B67869  22.413  32.766   6.977
 5395POPC   C4B67870  22.422  32.792   7.446
 5396POPC   NC367871   2.953   2.082   5.573
 5396POPC   PO467872   3.565   1.661   5.458
 5396POPC   GL167873   3.546   1.849   5.884
 5396POPC   GL267874   3.216   2.000   6.006
 5396POPC   C1A67875   3.662   1.992   6.319
 5396POPC   D2A67876   3.869   1.817   6.705
 5396POPC   C3A67877   3.686   1.881   7.119
 5396POPC   C4A67878   3.819   2.304   7.246
 5396POPC   C1B67879   3.208   2.459   6.169
 5396POPC   C2B67880   3.360   2.565   6.577
 5396POPC   C3B67881   3.360   2.283   6.965
 5396POPC   C4B67882   3.180   1.888   7.187
 5397POPC   NC367883  32.430  13.077   5.449
 5397POPC   PO467884  32.088  12.606   5.114
 5397POPC   GL167885  32.169  12.697   5.649
 5397POPC   GL267886  32.418  12.529   5.875
 5397POPC   C1A67887  32.055  12.910   6.080
 5397POPC   D2A67888  32.113  13.074   6.517
 5397POPC   C3A67889  32.368  12.771   6.777
 5397POPC   C4A67890  32.471  12.559   7.184
 5397POPC   C1B67891  32.540  12.841   6.229
 5397POPC   C2B67892  32.608  13.208   6.528
 5397POPC   C3B67893  32.382  13.274   6.939
 5397POPC   C4B67894  32.548  13.165   7.358
 5398POPC   NC367895  22.162  37.914   5.386
 5398POPC   PO467896  22.305  37.291   5.441
 5398POPC   GL167897  22.292  37.610   5.775
 5398POPC   GL267898  21.915  37.718   5.802
 5398POPC   C1A67899  22.486  37.640   6.183
 5398POPC   D2A67900  22.285  37.747   6.575
 5398POPC   C3A67901  22.265  37.577   6.986
 5398POPC   C4A67902  22.564  37.540   7.337
 5398POPC   C1B67903  21.725  37.830   6.236
 5398POPC   C2B67904  21.832  37.978   6.687
 5398POPC   C3B67905  21.872  37.881   7.151
 5398POPC   C4B67906  21.919  37.993   7.613
 5399POPC   NC367907  33.320  41.703   5.467
 5399POPC   PO467908  32.685  41.322   5.445
 5399POPC   GL167909  32.949  41.499   5.746
 5399POPC   GL267910  33.231  41.273   5.741
 5399POPC   C1A67911  33.053  41.485   6.190
 5399POPC   D2A67912  33.098  41.657   6.606
 5399POPC   C3A67913  32.841  41.461   6.896
 5399POPC   C4A67914  32.843  41.442   7.314
 5399POPC   C1B67915  33.486  41.228   6.123
 5399POPC   C2B67916  33.364  41.214   6.556
 5399POPC   C3B67917  33.343  41.401   6.977
 5399POPC   C4B67918  33.340  41.376   7.393
 5400POPC   NC367919   0.500  30.825   5.482
 5400POPC   PO467920   0.031  30.561   5.784
 5400POPC   GL167921   0.202  30.686   6.107
 5400POPC   GL267922   0.508  30.622   5.957
 5400POPC   C1A67923   0.377  30.852   6.451
 5400POPC   D2A67924   0.453  30.969   6.830
 5400POPC   C3A67925   0.289  30.787   7.158
 5400POPC   C4A67926   0.163  30.588   7.498
 5400POPC   C1B67927   0.706  30.485   6.320
 5400POPC   C2B67928   0.770  30.544   6.752
 5400POPC   C3B67929   0.877  30.297   7.124
 5400POPC   C4B67930   0.678  30.391   7.520
 5401POPC   NC367931  14.715  32.005   5.352
 5401POPC   PO467932  14.098  32.165   5.527
 5401POPC   GL167933  14.372  32.258   5.839
 5401POPC   GL267934  14.623  31.988   5.853
 5401POPC   C1A67935  14.337  32.409   6.260
 5401POPC   D2A67936  14.507  32.298   6.653
 5401POPC   C3A67937  14.297  32.500   7.041
 5401POPC   C4A67938  14.015  32.829   7.234
 5401POPC   C1B67939  14.453  31.870   6.246
 5401POPC   C2B67940  14.370  31.789   6.665
 5401POPC   C3B67941  14.416  32.005   7.062
 5401POPC   C4B67942  14.256  31.813   7.420
 5402POPC   NC367943   8.115  24.360   5.313
 5402POPC   PO467944   7.699  23.966   5.730
 5402POPC   GL167945   7.887  24.393   5.760
 5402POPC   GL267946   8.107  24.715   5.685
 5402POPC   C1A67947   8.207  24.406   6.094
 5402POPC   D2A67948   8.411  24.372   6.505
 5402POPC   C3A67949   8.265  24.357   6.917
 5402POPC   C4A67950   8.164  24.168   7.318
 5402POPC   C1B67951   8.234  24.913   6.085
 5402POPC   C2B67952   8.487  24.897   6.471
 5402POPC   C3B67953   8.471  24.921   6.922
 5402POPC   C4B67954   8.226  24.727   7.265
 5403POPC   NC367955  43.792  34.208   5.441
 5403POPC   PO467956  44.084  33.556   5.409
 5403POPC   GL167957  44.024  33.818   5.747
 5403POPC   GL267958  43.671  33.810   5.784
 5403POPC   C1A67959  44.085  33.672   6.166
 5403POPC   D2A67960  43.987  33.778   6.581
 5403POPC   C3A67961  43.909  33.537   6.936
 5403POPC   C4A67962  43.740  33.693   7.264
 5403POPC   C1B67963  43.770  34.057   6.185
 5403POPC   C2B67964  43.744  34.230   6.621
 5403POPC   C3B67965  43.934  34.094   7.001
 5403POPC   C4B67966  43.859  34.257   7.386
 5404POPC   NC367967  42.982  25.043   5.360
 5404POPC   PO467968  43.162  25.681   5.316
 5404POPC   GL167969  43.168  25.413   5.687
 5404POPC   GL267970  43.421  25.174   5.741
 5404POPC   C1A67971  43.125  25.389   6.148
 5404POPC   D2A67972  42.855  25.250   6.484
 5404POPC   C3A67973  42.952  25.257   6.931
 5404POPC   C4A67974  42.970  25.166   7.374
 5404POPC   C1B67975  43.589  25.166   6.156
 5404POPC   C2B67976  43.364  25.136   6.570
 5404POPC   C3B67977  43.417  24.988   6.998
 5404POPC   C4B67978  43.474  25.218   7.365
 5405POPC   NC367979  17.900  14.430   5.340
 5405POPC   PO467980  17.261  14.202   5.476
 5405POPC   GL167981  17.515  14.236   5.836
 5405POPC   GL267982  17.551  14.597   5.817
 5405POPC   C1A67983  17.514  14.379   6.270
 5405POPC   D2A67984  17.680  14.517   6.662
 5405POPC   C3A67985  17.541  14.364   7.036
 5405POPC   C4A67986  17.662  14.235   7.460
 5405POPC   C1B67987  17.296  14.808   6.137
 5405POPC   C2B67988  17.145  14.638   6.557
 5405POPC   C3B67989  17.233  14.771   7.008
 5405POPC   C4B67990  17.324  14.608   7.436
 5406POPC   NC367991  11.508   5.998   5.616
 5406POPC   PO467992  10.901   5.778   5.622
 5406POPC   GL167993  11.066   5.744   5.988
 5406POPC   GL267994  11.352   5.576   5.874
 5406POPC   C1A67995  11.083   6.044   6.305
 5406POPC   D2A67996  11.392   6.204   6.572
 5406POPC   C3A67997  11.306   6.063   6.999
 5406POPC   C4A67998  11.127   5.676   7.169
 5406POPC   C1B67999  11.512   5.733   6.277
 5406POPC   C2B68000  11.433   5.660   6.729
 5406POPC   C3B68001  11.645   5.642   7.144
 5406POPC   C4B68002  11.727   5.611   7.611
 5407POPC   NC368003  31.983  10.072   5.407
 5407POPC   PO468004  31.407   9.575   5.426
 5407POPC   GL168005  31.636   9.794   5.693
 5407POPC   GL268006  31.889   9.557   5.724
 5407POPC   C1A68007  31.451   9.919   6.076
 5407POPC   D2A68008  31.146   9.793   6.413
 5407POPC   C3A68009  31.271   9.799   6.858
 5407POPC   C4A68010  31.595  10.027   7.108
 5407POPC   C1B68011  31.915   9.721   6.140
 5407POPC   C2B68012  31.684   9.764   6.518
 5407POPC   C3B68013  31.734   9.586   6.894
 5407POPC   C4B68014  31.962   9.616   7.262
 5408POPC   NC368015  42.029  15.076   5.123
 5408POPC   PO468016  42.411  15.647   5.355
 5408POPC   GL168017  42.332  15.352   5.733
 5408POPC   GL268018  42.479  15.007   5.732
 5408POPC   C1A68019  42.281  15.186   6.185
 5408POPC   D2A68020  42.448  15.208   6.582
 5408POPC   C3A68021  42.243  15.143   6.959
 5408POPC   C4A68022  42.260  15.279   7.356
 5408POPC   C1B68023  42.670  14.843   6.132
 5408POPC   C2B68024  42.850  14.906   6.556
 5408POPC   C3B68025  42.715  14.778   6.973
 5408POPC   C4B68026  42.734  14.938   7.440
 5409POPC   NC368027  37.826  32.732   5.163
 5409POPC   PO468028  37.900  33.381   5.409
 5409POPC   GL168029  37.816  33.204   5.827
 5409POPC   GL268030  37.939  32.844   5.886
 5409POPC   C1A68031  37.587  33.176   6.241
 5409POPC   D2A68032  37.598  33.077   6.712
 5409POPC   C3A68033  37.484  33.290   7.102
 5409POPC   C4A68034  37.656  33.585   7.428
 5409POPC   C1B68035  37.945  32.829   6.354
 5409POPC   C2B68036  37.750  32.596   6.694
 5409POPC   C3B68037  37.645  32.736   7.117
 5409POPC   C4B68038  37.681  32.580   7.534
 5410POPC   NC368039  39.397  43.250   5.344
 5410POPC   PO468040  38.804  42.902   5.629
 5410POPC   GL168041  39.138  43.214   5.811
 5410POPC   GL268042  39.408  42.995   5.847
 5410POPC   C1A68043  39.401  43.359   6.203
 5410POPC   D2A68044  39.639  43.277   6.619
 5410POPC   C3A68045  39.358  43.196   6.990
 5410POPC   C4A68046  39.002  43.341   7.251
 5410POPC   C1B68047  39.151  42.877   6.208
 5410POPC   C2B68048  38.833  42.877   6.527
 5410POPC   C3B68049  38.767  42.643   6.919
 5410POPC   C4B68050  39.041  42.838   7.209
 5411POPC   NC368051  31.086  27.375   5.240
 5411POPC   PO468052  30.501  27.311   5.606
 5411POPC   GL168053  30.502  27.547   5.937
 5411POPC   GL268054  30.873  27.544   5.936
 5411POPC   C1A68055  30.348  27.621   6.355
 5411POPC   D2A68056  30.677  27.582   6.638
 5411POPC   C3A68057  30.775  27.691   7.044
 5411POPC   C4A68058  30.498  27.616   7.423
 5411POPC   C1B68059  30.926  27.262   6.318
 5411POPC   C2B68060  31.010  27.225   6.797
 5411POPC   C3B68061  30.955  27.258   7.248
 5411POPC   C4B68062  30.788  27.251   7.661
 5412POPC   NC368063  28.988  17.209   5.542
 5412POPC   PO468064  29.286  16.618   5.291
 5412POPC   GL168065  29.284  16.818   5.697
 5412POPC   GL268066  28.954  16.781   5.838
 5412POPC   C1A68067  29.476  16.773   6.100
 5412POPC   D2A68068  29.302  16.669   6.507
 5412POPC   C3A68069  29.425  16.892   6.874
 5412POPC   C4A68070  29.379  16.637   7.215
 5412POPC   C1B68071  28.967  16.995   6.245
 5412POPC   C2B68072  28.971  17.052   6.686
 5412POPC   C3B68073  28.933  16.814   7.043
 5412POPC   C4B68074  28.982  16.929   7.440
 5413POPC   NC368075  29.491  26.158   5.365
 5413POPC   PO468076  30.131  25.871   5.378
 5413POPC   GL168077  30.033  26.114   5.783
 5413POPC   GL268078  29.681  26.158   5.847
 5413POPC   C1A68079  29.971  25.985   6.237
 5413POPC   D2A68080  29.922  26.186   6.645
 5413POPC   C3A68081  30.063  25.904   6.983
 5413POPC   C4A68082  30.182  26.042   7.417
 5413POPC   C1B68083  29.598  26.361   6.274
 5413POPC   C2B68084  29.336  26.608   6.558
 5413POPC   C3B68085  29.419  26.423   6.947
 5413POPC   C4B68086  29.818  26.310   7.158
 5414POPC   NC368087  33.870  38.891   5.571
 5414POPC   PO468088  33.691  38.310   5.330
 5414POPC   GL168089  33.867  38.414   5.765
 5414POPC   GL268090  33.643  38.607   5.952
 5414POPC   C1A68091  33.981  38.281   6.201
 5414POPC   D2A68092  34.011  38.489   6.633
 5414POPC   C3A68093  33.683  38.386   6.948
 5414POPC   C4A68094  33.693  38.366   7.410
 5414POPC   C1B68095  33.734  38.861   6.311
 5414POPC   C2B68096  33.717  39.042   6.731
 5414POPC   C3B68097  33.909  38.848   7.081
 5414POPC   C4B68098  34.137  38.489   7.153
 5415POPC   NC368099   1.822   4.965   5.435
 5415POPC   PO468100   2.504   5.340   5.477
 5415POPC   GL168101   2.275   5.308   5.880
 5415POPC   GL268102   1.912   5.300   5.801
 5415POPC   C1A68103   2.057   5.061   6.232
 5415POPC   D2A68104   1.780   5.024   6.607
 5415POPC   C3A68105   1.978   5.037   7.026
 5415POPC   C4A68106   2.234   5.165   7.344
 5415POPC   C1B68107   1.601   5.299   6.171
 5415POPC   C2B68108   1.546   5.486   6.572
 5415POPC   C3B68109   1.539   5.278   6.983
 5415POPC   C4B68110   1.749   5.433   7.339
 5416POPC   NC368111  28.395  28.811   5.485
 5416POPC   PO468112  28.740  29.328   5.301
 5416POPC   GL168113  28.561  29.228   5.768
 5416POPC   GL268114  28.236  29.056   5.887
 5416POPC   C1A68115  28.627  29.074   6.230
 5416POPC   D2A68116  28.566  28.892   6.667
 5416POPC   C3A68117  28.824  29.137   6.972
 5416POPC   C4A68118  28.711  29.406   7.308
 5416POPC   C1B68119  28.125  28.870   6.308
 5416POPC   C2B68120  28.042  29.103   6.697
 5416POPC   C3B68121  28.304  29.129   7.061
 5416POPC   C4B68122  28.573  28.802   7.222
 5417POPC   NC368123  31.156  43.902   5.377
 5417POPC   PO468124  31.757  44.109   5.393
 5417POPC   GL168125  31.514  44.038   5.752
 5417POPC   GL268126  31.286  44.269   5.837
 5417POPC   C1A68127  31.444  43.709   6.051
 5417POPC   D2A68128  31.441  43.729   6.507
 5417POPC   C3A68129  31.667  43.593   6.862
 5417POPC   C4A68130  31.496  43.738   7.249
 5417POPC   C1B68131  31.346  44.178   6.262
 5417POPC   C2B68132  31.154  44.132   6.678
 5417POPC   C3B68133  31.279  44.180   7.126
 5417POPC   C4B68134  31.065  44.277   7.540
 5418POPC   NC368135  10.076   6.127   5.256
 5418POPC   PO468136   9.700   5.620   5.381
 5418POPC   GL168137   9.845   5.646   5.795
 5418POPC   GL268138   9.919   5.998   5.810
 5418POPC   C1A68139   9.811   5.599   6.244
 5418POPC   D2A68140   9.529   5.587   6.606
 5418POPC   C3A68141   9.703   5.629   7.022
 5418POPC   C4A68142   9.645   5.625   7.464
 5418POPC   C1B68143   9.755   6.110   6.214
 5418POPC   C2B68144   9.907   6.171   6.611
 5418POPC   C3B68145  10.038   6.079   7.011
 5418POPC   C4B68146   9.739   6.100   7.336
 5419POPC   NC368147  22.717   4.570   5.194
 5419POPC   PO468148  22.899   3.955   5.404
 5419POPC   GL168149  23.042   4.192   5.753
 5419POPC   GL268150  23.353   4.073   5.838
 5419POPC   C1A68151  22.913   4.427   6.135
 5419POPC   D2A68152  23.052   4.639   6.515
 5419POPC   C3A68153  22.865   4.475   6.896
 5419POPC   C4A68154  22.590   4.268   7.191
 5419POPC   C1B68155  23.156   3.975   6.213
 5419POPC   C2B68156  22.920   4.086   6.566
 5419POPC   C3B68157  23.004   3.979   6.993
 5419POPC   C4B68158  23.078   4.138   7.392
 5420POPC   NC368159  23.756   0.399   5.300
 5420POPC   PO468160  24.045   0.983   5.462
 5420POPC   GL168161  23.805   0.748   5.790
 5420POPC   GL268162  23.706   0.377   5.817
 5420POPC   C1A68163  23.798   0.731   6.252
 5420POPC   D2A68164  23.751   0.323   6.468
 5420POPC   C3A68165  23.849   0.334   6.901
 5420POPC   C4A68166  24.065   0.629   7.166
 5420POPC   C1B68167  23.384   0.517   6.107
 5420POPC   C2B68168  23.298   0.617   6.552
 5420POPC   C3B68169  23.366   0.498   6.990
 5420POPC   C4B68170  23.609   0.428   7.398
 5421POPC   NC368171  39.577  23.794   5.540
 5421POPC   PO468172  38.980  23.487   5.468
 5421POPC   GL168173  39.133  23.710   5.813
 5421POPC   GL268174  39.144  24.078   5.765
 5421POPC   C1A68175  39.325  23.588   6.211
 5421POPC   D2A68176  39.176  23.697   6.593
 5421POPC   C3A68177  39.341  23.583   6.995
 5421POPC   C4A68178  39.405  23.706   7.417
 5421POPC   C1B68179  39.004  24.044   6.214
 5421POPC   C2B68180  38.957  24.139   6.664
 5421POPC   C3B68181  39.027  24.027   7.109
 5421POPC   C4B68182  38.730  24.148   7.466
 5422POPC   NC368183   9.894  17.299   5.385
 5422POPC   PO468184   9.492  17.744   5.229
 5422POPC   GL168185   9.602  17.614   5.692
 5422POPC   GL268186   9.980  17.603   5.787
 5422POPC   C1A68187   9.489  17.530   6.164
 5422POPC   D2A68188   9.289  17.395   6.604
 5422POPC   C3A68189   9.492  17.524   7.033
 5422POPC   C4A68190   9.510  17.231   7.413
 5422POPC   C1B68191   9.948  17.276   6.119
 5422POPC   C2B68192   9.782  17.282   6.540
 5422POPC   C3B68193   9.947  17.288   6.955
 5422POPC   C4B68194   9.920  17.534   7.375
 5423POPC   NC368195  34.516   0.772   5.628
 5423POPC   PO468196  34.622   1.415   5.381
 5423POPC   GL168197  34.734   1.221   5.764
 5423POPC   GL268198  34.370   1.203   5.871
 5423POPC   C1A68199  34.723   1.323   6.210
 5423POPC   D2A68200  34.691   1.379   6.628
 5423POPC   C3A68201  34.330   1.393   6.882
 5423POPC   C4A68202  34.503   1.265   7.255
 5423POPC   C1B68203  34.402   0.927   6.260
 5423POPC   C2B68204  34.153   0.822   6.632
 5423POPC   C3B68205  34.184   0.905   7.084
 5423POPC   C4B68206  34.207   0.902   7.550
 5424POPC   NC368207   4.510   0.321   5.469
 5424POPC   PO468208   3.870   0.046   5.580
 5424POPC   GL168209   4.172   0.192   5.886
 5424POPC   GL268210   4.528   0.178   5.962
 5424POPC   C1A68211   4.156   0.240   6.331
 5424POPC   D2A68212   4.057   0.508   6.649
 5424POPC   C3A68213   4.084   0.334   7.042
 5424POPC   C4A68214   4.080   0.663   7.296
 5424POPC   C1B68215   4.486   0.592   6.114
 5424POPC   C2B68216   4.598   0.586   6.530
 5424POPC   C3B68217   4.493   0.615   6.936
 5424POPC   C4B68218   4.540   0.389   7.334
 5425POPC   NC368219  40.251  20.005   5.356
 5425POPC   PO468220  39.790  19.439   5.348
 5425POPC   GL168221  39.973  19.722   5.710
 5425POPC   GL268222  39.876  20.081   5.797
 5425POPC   C1A68223  40.251  19.887   6.090
 5425POPC   D2A68224  40.389  19.679   6.498
 5425POPC   C3A68225  40.218  19.760   6.903
 5425POPC   C4A68226  40.106  19.629   7.310
 5425POPC   C1B68227  39.922  20.234   6.264
 5425POPC   C2B68228  39.896  20.156   6.737
 5425POPC   C3B68229  39.985  20.143   7.200
 5425POPC   C4B68230  40.224  20.143   7.603
 5426POPC   NC368231  41.517  40.758   5.349
 5426POPC   PO468232  41.361  41.368   5.471
 5426POPC   GL168233  41.540  41.114   5.829
 5426POPC   GL268234  41.415  40.773   5.896
 5426POPC   C1A68235  41.817  40.913   6.173
 5426POPC   D2A68236  41.655  40.626   6.475
 5426POPC   C3A68237  41.646  40.851   6.846
 5426POPC   C4A68238  41.560  40.625   7.230
 5426POPC   C1B68239  41.164  40.757   6.313
 5426POPC   C2B68240  41.141  40.885   6.744
 5426POPC   C3B68241  41.074  40.715   7.137
 5426POPC   C4B68242  41.140  40.802   7.591
 5427POPC   NC368243  33.943  15.625   5.706
 5427POPC   PO468244  33.875  15.053   5.383
 5427POPC   GL168245  33.823  15.117   5.813
 5427POPC   GL268246  34.206  15.177   5.809
 5427POPC   C1A68247  33.614  15.309   6.204
 5427POPC   D2A68248  33.762  15.466   6.626
 5427POPC   C3A68249  33.560  15.314   7.010
 5427POPC   C4A68250  33.777  15.275   7.404
 5427POPC   C1B68251  34.103  15.192   6.257
 5427POPC   C2B68252  34.197  14.906   6.585
 5427POPC   C3B68253  34.063  14.934   7.011
 5427POPC   C4B68254  34.116  14.585   7.244
 5428POPC   NC368255  10.255  34.226   5.173
 5428POPC   PO468256  10.642  34.716   5.501
 5428POPC   GL168257  10.523  34.454   5.811
 5428POPC   GL268258  10.843  34.413   5.873
 5428POPC   C1A68259  10.361  34.335   6.198
 5428POPC   D2A68260  10.169  34.529   6.539
 5428POPC   C3A68261  10.319  34.418   6.931
 5428POPC   C4A68262  10.211  34.555   7.329
 5428POPC   C1B68263  10.818  34.667   6.212
 5428POPC   C2B68264  10.646  34.689   6.609
 5428POPC   C3B68265  10.799  34.588   7.008
 5428POPC   C4B68266  10.707  34.571   7.430
 5429POPC   NC368267  36.574  13.227   5.577
 5429POPC   PO468268  36.981  12.748   5.522
 5429POPC   GL168269  36.918  12.973   5.878
 5429POPC   GL268270  37.088  13.282   5.939
 5429POPC   C1A68271  36.682  13.039   6.230
 5429POPC   D2A68272  36.862  12.892   6.594
 5429POPC   C3A68273  36.659  12.963   6.959
 5429POPC   C4A68274  36.808  12.725   7.307
 5429POPC   C1B68275  37.321  13.012   6.233
 5429POPC   C2B68276  37.453  12.925   6.659
 5429POPC   C3B68277  37.155  13.068   6.979
 5429POPC   C4B68278  37.071  13.140   7.425
 5430POPC   NC368279  44.220  39.249   5.401
 5430POPC   PO468280  43.564  39.014   5.467
 5430POPC   GL168281  43.823  39.048   5.820
 5430POPC   GL268282  43.950  39.371   5.896
 5430POPC   C1A68283  43.957  39.003   6.245
 5430POPC   D2A68284  43.974  39.224   6.623
 5430POPC   C3A68285  43.941  39.016   7.020
 5430POPC   C4A68286  43.807  39.073   7.490
 5430POPC   C1B68287  43.975  39.624   6.301
 5430POPC   C2B68288  44.089  39.692   6.758
 5430POPC   C3B68289  43.959  39.522   7.185
 5430POPC   C4B68290  44.085  39.501   7.663
 5431POPC   NC368291  17.512  44.059   5.289
 5431POPC   PO468292  18.078  43.787   5.249
 5431POPC   GL168293  17.728  43.792   5.658
 5431POPC   GL268294  17.567  44.089   5.790
 5431POPC   C1A68295  17.593  43.762   6.153
 5431POPC   D2A68296  17.742  43.951   6.542
 5431POPC   C3A68297  17.530  43.731   6.898
 5431POPC   C4A68298  17.287  43.802   7.281
 5431POPC   C1B68299  17.598  44.315   6.169
 5431POPC   C2B68300  17.473  44.454   6.557
 5431POPC   C3B68301  17.539  44.240   6.913
 5431POPC   C4B68302  17.567  44.312   7.319
 5432POPC   NC368303  19.366  43.919   5.478
 5432POPC   PO468304  18.718  44.170   5.428
 5432POPC   GL168305  18.829  43.812   5.749
 5432POPC   GL268306  19.149  43.896   5.935
 5432POPC   C1A68307  18.814  43.660   6.223
 5432POPC   D2A68308  19.100  43.918   6.509
 5432POPC   C3A68309  19.246  43.826   6.918
 5432POPC   C4A68310  18.967  43.774   7.224
 5432POPC   C1B68311  18.827  44.186   6.130
 5432POPC   C2B68312  18.858  44.391   6.520
 5432POPC   C3B68313  18.890  44.231   6.953
 5432POPC   C4B68314  19.182  44.255   7.299
 5433POPC   NC368315  33.881  29.397   5.281
 5433POPC   PO468316  33.648  28.767   5.356
 5433POPC   GL168317  33.865  29.034   5.681
 5433POPC   GL268318  33.763  29.349   5.754
 5433POPC   C1A68319  34.025  29.130   6.127
 5433POPC   D2A68320  33.985  28.990   6.540
 5433POPC   C3A68321  34.133  29.075   6.931
 5433POPC   C4A68322  33.971  28.974   7.327
 5433POPC   C1B68323  33.638  29.517   6.121
 5433POPC   C2B68324  33.572  29.335   6.512
 5433POPC   C3B68325  33.677  29.440   6.926
 5433POPC   C4B68326  33.595  29.336   7.350
 5434POPC   NC368327  21.253   5.728   5.249
 5434POPC   PO468328  21.746   6.117   5.253
 5434POPC   GL168329  21.517   5.880   5.667
 5434POPC   GL268330  21.160   5.682   5.747
 5434POPC   C1A68331  21.421   5.906   6.138
 5434POPC   D2A68332  21.339   5.750   6.585
 5434POPC   C3A68333  21.460   5.946   6.965
 5434POPC   C4A68334  21.160   6.192   7.224
 5434POPC   C1B68335  21.075   5.523   6.193
 5434POPC   C2B68336  21.033   5.363   6.655
 5434POPC   C3B68337  21.024   5.686   7.025
 5434POPC   C4B68338  21.034   5.766   7.506
 5435POPC   NC368339   8.382   6.021   5.537
 5435POPC   PO468340   7.695   5.972   5.560
 5435POPC   GL168341   7.996   5.902   5.880
 5435POPC   GL268342   7.828   5.635   6.031
 5435POPC   C1A68343   8.307   5.683   6.190
 5435POPC   D2A68344   8.493   5.522   6.595
 5435POPC   C3A68345   8.388   5.714   7.020
 5435POPC   C4A68346   8.238   6.148   7.198
 5435POPC   C1B68347   7.905   5.949   6.370
 5435POPC   C2B68348   7.959   5.913   6.791
 5435POPC   C3B68349   7.862   5.808   7.189
 5435POPC   C4B68350   7.943   5.526   7.533
 5436POPC   NC368351  15.287  14.402   5.183
 5436POPC   PO468352  14.704  14.539   5.530
 5436POPC   GL168353  14.967  14.285   5.816
 5436POPC   GL268354  15.322  14.339   5.771
 5436POPC   C1A68355  14.979  14.370   6.260
 5436POPC   D2A68356  14.827  14.229   6.679
 5436POPC   C3A68357  15.127  14.073   6.963
 5436POPC   C4A68358  15.027  14.391   7.216
 5436POPC   C1B68359  15.504  14.416   6.175
 5436POPC   C2B68360  15.358  14.360   6.611
 5436POPC   C3B68361  15.499  14.516   7.013
 5436POPC   C4B68362  15.562  14.520   7.443
 5437POPC   NC368363  23.274  18.035   5.541
 5437POPC   PO468364  23.892  18.167   5.337
 5437POPC   GL168365  23.733  18.176   5.742
 5437POPC   GL268366  23.841  18.473   5.916
 5437POPC   C1A68367  23.587  18.024   6.147
 5437POPC   D2A68368  23.722  17.710   6.476
 5437POPC   C3A68369  23.692  17.892   6.904
 5437POPC   C4A68370  23.892  17.896   7.284
 5437POPC   C1B68371  24.114  18.529   6.309
 5437POPC   C2B68372  24.121  18.551   6.792
 5437POPC   C3B68373  23.861  18.374   7.103
 5437POPC   C4B68374  23.416  18.296   7.237
 5438POPC   NC368375  30.671  28.403   5.300
 5438POPC   PO468376  30.772  27.710   5.226
 5438POPC   GL168377  30.814  27.992   5.643
 5438POPC   GL268378  30.866  28.375   5.772
 5438POPC   C1A68379  30.713  28.005   6.095
 5438POPC   D2A68380  30.853  28.064   6.512
 5438POPC   C3A68381  30.519  28.072   6.784
 5438POPC   C4A68382  30.494  28.077   7.209
 5438POPC   C1B68383  30.993  28.456   6.209
 5438POPC   C2B68384  30.711  28.565   6.567
 5438POPC   C3B68385  30.567  28.551   6.989
 5438POPC   C4B68386  30.859  28.444   7.309
 5439POPC   NC368387  23.439  19.570   5.153
 5439POPC   PO468388  23.965  19.678   5.585
 5439POPC   GL168389  23.833  19.684   5.957
 5439POPC   GL268390  23.779  20.015   5.959
 5439POPC   C1A68391  23.785  19.714   6.390
 5439POPC   D2A68392  23.478  19.708   6.703
 5439POPC   C3A68393  23.712  19.605   7.042
 5439POPC   C4A68394  23.716  19.604   7.493
 5439POPC   C1B68395  23.473  20.074   6.284
 5439POPC   C2B68396  23.665  20.177   6.691
 5439POPC   C3B68397  23.768  20.093   7.138
 5439POPC   C4B68398  23.554  20.073   7.510
 5440POPC   NC368399   7.130   1.876   5.446
 5440POPC   PO468400   7.704   2.195   5.311
 5440POPC   GL168401   7.613   2.040   5.714
 5440POPC   GL268402   7.319   2.190   5.819
 5440POPC   C1A68403   7.667   1.913   6.155
 5440POPC   D2A68404   7.451   1.608   6.440
 5440POPC   C3A68405   7.624   1.466   6.825
 5440POPC   C4A68406   7.816   1.601   7.191
 5440POPC   C1B68407   7.162   1.965   6.161
 5440POPC   C2B68408   7.132   2.004   6.595
 5440POPC   C3B68409   7.403   1.962   6.963
 5440POPC   C4B68410   7.382   2.043   7.416
 5441POPC   NC368411  17.693   4.596   5.026
 5441POPC   PO468412  17.347   5.155   5.356
 5441POPC   GL168413  17.369   5.106   5.827
 5441POPC   GL268414  17.697   5.208   5.887
 5441POPC   C1A68415  17.355   5.145   6.273
 5441POPC   D2A68416  17.651   5.300   6.548
 5441POPC   C3A68417  17.586   5.164   6.950
 5441POPC   C4A68418  17.210   5.066   7.101
 5441POPC   C1B68419  17.856   4.920   6.183
 5441POPC   C2B68420  17.824   4.805   6.616
 5441POPC   C3B68421  18.005   4.879   7.033
 5441POPC   C4B68422  17.936   5.257   7.347
 5442POPC   NC368423  23.301  26.142   5.378
 5442POPC   PO468424  23.903  26.012   5.456
 5442POPC   GL168425  23.604  26.064   5.773
 5442POPC   GL268426  23.584  26.438   5.752
 5442POPC   C1A68427  23.700  25.859   6.168
 5442POPC   D2A68428  23.674  25.857   6.581
 5442POPC   C3A68429  23.802  25.785   6.971
 5442POPC   C4A68430  23.512  25.884   7.251
 5442POPC   C1B68431  23.878  26.346   6.078
 5442POPC   C2B68432  23.793  26.343   6.497
 5442POPC   C3B68433  23.645  26.289   6.910
 5442POPC   C4B68434  23.836  26.394   7.290
 5443POPC   NC368435  36.089  32.366   5.477
 5443POPC   PO468436  36.593  31.967   5.631
 5443POPC   GL168437  36.418  32.027   5.973
 5443POPC   GL268438  36.108  32.145   5.959
 5443POPC   C1A68439  36.282  31.884   6.367
 5443POPC   D2A68440  36.057  32.247   6.505
 5443POPC   C3A68441  36.168  32.368   6.885
 5443POPC   C4A68442  36.265  32.068   7.216
 5443POPC   C1B68443  36.040  32.584   6.106
 5443POPC   C2B68444  35.925  32.750   6.514
 5443POPC   C3B68445  35.740  32.674   6.935
 5443POPC   C4B68446  35.820  32.368   7.265
 5444POPC   NC368447  26.590   4.212   5.346
 5444POPC   PO468448  27.110   4.502   5.143
 5444POPC   GL168449  26.931   4.536   5.601
 5444POPC   GL268450  26.852   4.203   5.797
 5444POPC   C1A68451  27.088   4.608   6.048
 5444POPC   D2A68452  27.261   4.532   6.480
 5444POPC   C3A68453  27.044   4.312   6.822
 5444POPC   C4A68454  26.744   4.383   7.149
 5444POPC   C1B68455  26.899   4.175   6.265
 5444POPC   C2B68456  26.594   4.175   6.587
 5444POPC   C3B68457  26.446   4.010   6.941
 5444POPC   C4B68458  26.709   3.885   7.228
 5445POPC   NC368459  37.587  20.957   5.359
 5445POPC   PO468460  37.321  20.347   5.170
 5445POPC   GL168461  37.374  20.538   5.615
 5445POPC   GL268462  37.697  20.613   5.762
 5445POPC   C1A68463  37.311  20.572   6.109
 5445POPC   D2A68464  37.433  20.362   6.529
 5445POPC   C3A68465  37.429  20.499   6.977
 5445POPC   C4A68466  37.849  20.603   7.181
 5445POPC   C1B68467  37.817  20.769   6.177
 5445POPC   C2B68468  37.570  20.966   6.518
 5445POPC   C3B68469  37.532  21.005   6.975
 5445POPC   C4B68470  37.426  20.834   7.403
 5446POPC   NC368471  35.900  34.921   5.128
 5446POPC   PO468472  36.449  34.548   5.351
 5446POPC   GL168473  36.274  34.383   5.740
 5446POPC   GL268474  35.997  34.151   5.733
 5446POPC   C1A68475  36.363  34.546   6.137
 5446POPC   D2A68476  36.362  34.757   6.507
 5446POPC   C3A68477  36.400  34.494   6.869
 5446POPC   C4A68478  36.223  34.435   7.270
 5446POPC   C1B68479  35.863  34.381   6.109
 5446POPC   C2B68480  35.976  34.422   6.548
 5446POPC   C3B68481  35.809  34.496   6.975
 5446POPC   C4B68482  35.724  34.401   7.432
 5447POPC   NC368483  27.772  42.726   5.068
 5447POPC   PO468484  27.685  43.342   5.305
 5447POPC   GL168485  27.598  43.386   5.727
 5447POPC   GL268486  27.922  43.321   5.788
 5447POPC   C1A68487  27.535  43.259   6.170
 5447POPC   D2A68488  27.422  43.405   6.560
 5447POPC   C3A68489  27.469  43.137   6.912
 5447POPC   C4A68490  27.350  42.973   7.308
 5447POPC   C1B68491  27.997  43.052   6.143
 5447POPC   C2B68492  27.838  43.076   6.542
 5447POPC   C3B68493  27.945  42.930   6.922
 5447POPC   C4B68494  27.855  43.127   7.273
 5448POPC   NC368495  33.438  43.043   5.334
 5448POPC   PO468496  32.921  42.674   5.420
 5448POPC   GL168497  33.009  42.959   5.791
 5448POPC   GL268498  33.271  43.210   5.835
 5448POPC   C1A68499  32.840  43.223   6.165
 5448POPC   D2A68500  32.923  43.267   6.634
 5448POPC   C3A68501  32.637  43.006   6.908
 5448POPC   C4A68502  32.794  42.714   7.207
 5448POPC   C1B68503  33.295  43.417   6.256
 5448POPC   C2B68504  33.566  43.527   6.589
 5448POPC   C3B68505  33.360  43.492   6.943
 5448POPC   C4B68506  33.448  43.358   7.321
 5449POPC   NC368507  40.291  32.787   5.339
 5449POPC   PO468508  41.039  32.754   5.560
 5449POPC   GL168509  40.733  33.040   5.761
 5449POPC   GL268510  40.474  32.786   5.807
 5449POPC   C1A68511  40.771  33.326   6.145
 5449POPC   D2A68512  40.870  33.182   6.577
 5449POPC   C3A68513  40.635  33.231   6.945
 5449POPC   C4A68514  40.894  33.112   7.244
 5449POPC   C1B68515  40.653  32.844   6.220
 5449POPC   C2B68516  40.457  32.845   6.589
 5449POPC   C3B68517  40.664  32.720   6.942
 5449POPC   C4B68518  40.508  32.786   7.332
 5450POPC   NC368519  10.852  37.152   5.563
 5450POPC   PO468520  10.336  36.940   5.369
 5450POPC   GL168521  10.384  36.760   5.788
 5450POPC   GL268522  10.463  37.055   5.863
 5450POPC   C1A68523  10.452  36.867   6.312
 5450POPC   D2A68524  10.721  36.955   6.686
 5450POPC   C3A68525  10.612  36.740   7.094
 5450POPC   C4A68526  10.677  36.751   7.562
 5450POPC   C1B68527  10.211  37.307   6.118
 5450POPC   C2B68528  10.118  37.259   6.550
 5450POPC   C3B68529  10.368  37.228   6.926
 5450POPC   C4B68530  10.301  37.251   7.366
 5451POPC   NC368531  11.404  12.512   5.385
 5451POPC   PO468532  11.480  11.832   5.443
 5451POPC   GL168533  11.167  11.984   5.788
 5451POPC   GL268534  11.122  12.368   5.796
 5451POPC   C1A68535  11.214  11.989   6.255
 5451POPC   D2A68536  11.397  11.781   6.628
 5451POPC   C3A68537  11.411  12.036   6.998
 5451POPC   C4A68538  11.598  11.985   7.435
 5451POPC   C1B68539  11.238  12.544   6.202
 5451POPC   C2B68540  11.308  12.409   6.583
 5451POPC   C3B68541  11.165  12.487   6.980
 5451POPC   C4B68542  11.139  12.272   7.367
 5452POPC   NC368543  17.013   4.886   5.545
 5452POPC   PO468544  16.455   5.136   5.571
 5452POPC   GL168545  16.811   5.199   5.890
 5452POPC   GL268546  16.963   4.867   6.051
 5452POPC   C1A68547  16.848   5.269   6.317
 5452POPC   D2A68548  16.854   5.020   6.677
 5452POPC   C3A68549  16.743   5.241   7.051
 5452POPC   C4A68550  16.916   5.313   7.488
 5452POPC   C1B68551  16.515   4.860   6.198
 5452POPC   C2B68552  16.405   4.653   6.583
 5452POPC   C3B68553  16.480   4.806   6.959
 5452POPC   C4B68554  16.442   4.572   7.274
 5453POPC   NC368555  15.356  25.098   5.238
 5453POPC   PO468556  14.872  25.234   5.542
 5453POPC   GL168557  15.062  25.208   5.891
 5453POPC   GL268558  15.353  25.059   5.782
 5453POPC   C1A68559  14.989  25.316   6.318
 5453POPC   D2A68560  15.207  25.237   6.690
 5453POPC   C3A68561  15.006  25.206   7.043
 5453POPC   C4A68562  15.149  25.518   7.358
 5453POPC   C1B68563  15.491  25.205   6.228
 5453POPC   C2B68564  15.701  25.273   6.672
 5453POPC   C3B68565  15.553  25.244   7.132
 5453POPC   C4B68566  15.627  25.359   7.580
 5454POPC   NC368567   4.821  28.118   5.531
 5454POPC   PO468568   4.930  27.405   5.269
 5454POPC   GL168569   5.154  27.352   5.750
 5454POPC   GL268570   5.218  27.683   5.910
 5454POPC   C1A68571   5.005  27.287   6.205
 5454POPC   D2A68572   4.752  27.487   6.554
 5454POPC   C3A68573   4.880  27.590   6.996
 5454POPC   C4A68574   4.792  27.332   7.346
 5454POPC   C1B68575   5.076  27.802   6.272
 5454POPC   C2B68576   5.275  27.583   6.556
 5454POPC   C3B68577   5.325  27.781   6.880
 5454POPC   C4B68578   5.468  27.753   7.282
 5455POPC   NC368579  15.561   4.132   5.623
 5455POPC   PO468580  15.005   4.175   5.275
 5455POPC   GL168581  15.071   4.209   5.734
 5455POPC   GL268582  15.245   4.522   5.801
 5455POPC   C1A68583  15.171   4.113   6.210
 5455POPC   D2A68584  15.018   4.059   6.659
 5455POPC   C3A68585  15.291   4.063   7.031
 5455POPC   C4A68586  15.246   4.058   7.518
 5455POPC   C1B68587  15.496   4.522   6.186
 5455POPC   C2B68588  15.465   4.387   6.612
 5455POPC   C3B68589  15.626   4.429   7.015
 5455POPC   C4B68590  15.306   4.515   7.296
 5456POPC   NC368591   8.505  10.090   5.464
 5456POPC   PO468592   7.916  10.473   5.448
 5456POPC   GL168593   8.003  10.625   5.818
 5456POPC   GL268594   8.339  10.532   5.835
 5456POPC   C1A68595   8.050  10.495   6.237
 5456POPC   D2A68596   8.314  10.413   6.586
 5456POPC   C3A68597   8.181  10.391   7.008
 5456POPC   C4A68598   8.332  10.416   7.436
 5456POPC   C1B68599   8.500  10.767   6.237
 5456POPC   C2B68600   8.606  10.855   6.716
 5456POPC   C3B68601   8.580  10.821   7.220
 5456POPC   C4B68602   8.500  10.795   7.726
 5457POPC   NC368603  44.534   4.239   4.950
 5457POPC   PO468604  44.807   4.187   5.544
 5457POPC   GL168605  44.701   4.417   5.870
 5457POPC   GL268606  44.858   4.710   5.812
 5457POPC   C1A68607  44.687   4.295   6.284
 5457POPC   D2A68608  44.477   4.301   6.630
 5457POPC   C3A68609  44.629   4.266   6.974
 5457POPC   C4A68610  44.650   4.016   7.293
 5457POPC   C1B68611   0.055   4.637   6.232
 5457POPC   C2B68612  44.848   4.689   6.660
 5457POPC   C3B68613  44.807   4.710   7.099
 5457POPC   C4B68614  44.689   4.515   7.460
 5458POPC   NC368615  23.402  10.872   5.394
 5458POPC   PO468616  23.998  10.381   5.397
 5458POPC   GL168617  23.759  10.374   5.778
 5458POPC   GL268618  23.823  10.725   5.804
 5458POPC   C1A68619  23.777  10.233   6.205
 5458POPC   D2A68620  23.882  10.416   6.622
 5458POPC   C3A68621  23.738  10.350   7.052
 5458POPC   C4A68622  23.675  10.127   7.446
 5458POPC   C1B68623  23.692  10.749   6.262
 5458POPC   C2B68624  23.547  10.830   6.703
 5458POPC   C3B68625  23.563  10.818   7.173
 5458POPC   C4B68626  23.575  10.594   7.606
 5459POPC   NC368627   9.481   0.560   5.410
 5459POPC   PO468628  10.133   0.187   5.364
 5459POPC   GL168629   9.953   0.382   5.785
 5459POPC   GL268630   9.623   0.547   5.884
 5459POPC   C1A68631  10.053   0.606   6.167
 5459POPC   D2A68632  10.010   0.428   6.607
 5459POPC   C3A68633   9.842   0.630   6.995
 5459POPC   C4A68634   9.875   0.398   7.376
 5459POPC   C1B68635   9.568   0.441   6.292
 5459POPC   C2B68636   9.456   0.459   6.702
 5459POPC   C3B68637   9.525   0.213   7.043
 5459POPC   C4B68638   9.482   0.085   7.460
 5460POPC   NC368639   9.377  18.763   5.472
 5460POPC   PO468640   9.923  19.224   5.449
 5460POPC   GL168641   9.786  18.942   5.733
 5460POPC   GL268642   9.480  19.114   5.819
 5460POPC   C1A68643   9.743  18.817   6.156
 5460POPC   D2A68644   9.944  18.729   6.553
 5460POPC   C3A68645   9.672  18.806   6.916
 5460POPC   C4A68646   9.842  18.917   7.318
 5460POPC   C1B68647   9.683  19.343   6.135
 5460POPC   C2B68648   9.658  19.175   6.548
 5460POPC   C3B68649   9.667  19.302   6.997
 5460POPC   C4B68650   9.391  19.118   7.313
 5461POPC   NC368651  14.866   9.898   5.554
 5461POPC   PO468652  15.337   9.446   5.476
 5461POPC   GL168653  15.222   9.647   5.845
 5461POPC   GL268654  14.932   9.492   5.867
 5461POPC   C1A68655  15.193   9.873   6.229
 5461POPC   D2A68656  14.975   9.870   6.622
 5461POPC   C3A68657  15.247   9.763   6.935
 5461POPC   C4A68658  15.447   9.948   7.276
 5461POPC   C1B68659  14.746   9.646   6.222
 5461POPC   C2B68660  14.640   9.454   6.622
 5461POPC   C3B68661  14.753   9.624   7.041
 5461POPC   C4B68662  15.070   9.620   7.382
 5462POPC   NC368663  20.803   5.346   5.472
 5462POPC   PO468664  20.415   4.814   5.384
 5462POPC   GL168665  20.631   4.984   5.816
 5462POPC   GL268666  20.797   4.742   6.059
 5462POPC   C1A68667  20.708   5.176   6.274
 5462POPC   D2A68668  20.648   4.948   6.677
 5462POPC   C3A68669  20.739   5.194   7.042
 5462POPC   C4A68670  21.084   5.284   7.314
 5462POPC   C1B68671  20.355   4.812   6.269
 5462POPC   C2B68672  20.110   4.808   6.632
 5462POPC   C3B68673  20.232   5.049   6.989
 5462POPC   C4B68674  20.395   5.076   7.409
 5463POPC   NC368675  36.364  10.764   5.409
 5463POPC   PO468676  36.010  10.251   5.505
 5463POPC   GL168677  36.130  10.589   5.811
 5463POPC   GL268678  36.385  10.329   5.855
 5463POPC   C1A68679  36.306  10.867   6.161
 5463POPC   D2A68680  36.514  10.876   6.594
 5463POPC   C3A68681  36.223  10.782   6.935
 5463POPC   C4A68682  35.937  10.776   7.288
 5463POPC   C1B68683  36.053  10.259   6.173
 5463POPC   C2B68684  36.039  10.454   6.562
 5463POPC   C3B68685  35.976  10.302   6.958
 5463POPC   C4B68686  36.299  10.300   7.226
 5464POPC   NC368687   8.669   0.730   5.449
 5464POPC   PO468688   8.906   0.105   5.481
 5464POPC   GL168689   9.174   0.247   5.769
 5464POPC   GL268690   9.079   0.612   5.804
 5464POPC   C1A68691   9.090   0.234   6.189
 5464POPC   D2A68692   9.050   0.580   6.419
 5464POPC   C3A68693   8.954   0.593   6.850
 5464POPC   C4A68694   9.080   0.397   7.243
 5464POPC   C1B68695   8.723   0.784   6.085
 5464POPC   C2B68696   8.709   0.945   6.511
 5464POPC   C3B68697   8.608   0.962   6.945
 5464POPC   C4B68698   8.560   0.713   7.294
 5465POPC   NC368699  35.088   1.441   5.408
 5465POPC   PO468700  34.933   0.771   5.375
 5465POPC   GL168701  35.237   0.981   5.686
 5465POPC   GL268702  35.526   1.276   5.680
 5465POPC   C1A68703  35.184   1.239   6.049
 5465POPC   D2A68704  35.212   1.433   6.458
 5465POPC   C3A68705  35.124   1.298   6.889
 5465POPC   C4A68706  35.039   1.149   7.299
 5465POPC   C1B68707  35.649   1.408   6.145
 5465POPC   C2B68708  35.698   1.613   6.566
 5465POPC   C3B68709  35.614   1.426   6.986
 5465POPC   C4B68710  35.487   1.357   7.426
 5466POPC   NC368711  38.734  30.673   5.348
 5466POPC   PO468712  38.374  30.175   5.184
 5466POPC   GL168713  38.345  30.439   5.598
 5466POPC   GL268714  38.371  30.808   5.701
 5466POPC   C1A68715  38.486  30.443   6.054
 5466POPC   D2A68716  38.323  30.353   6.483
 5466POPC   C3A68717  38.520  30.458   6.889
 5466POPC   C4A68718  38.376  30.443   7.317
 5466POPC   C1B68719  38.375  30.945   6.173
 5466POPC   C2B68720  38.490  30.956   6.630
 5466POPC   C3B68721  38.462  30.924   7.090
 5466POPC   C4B68722  38.211  30.899   7.461
 5467POPC   NC368723  23.004  41.895   5.397
 5467POPC   PO468724  22.726  41.339   5.578
 5467POPC   GL168725  22.954  41.477   5.939
 5467POPC   GL268726  23.017  41.823   5.901
 5467POPC   C1A68727  23.033  41.271   6.319
 5467POPC   D2A68728  23.240  41.392   6.684
 5467POPC   C3A68729  23.042  41.413   7.066
 5467POPC   C4A68730  22.622  41.355   7.226
 5467POPC   C1B68731  23.051  41.789   6.350
 5467POPC   C2B68732  23.199  42.044   6.658
 5467POPC   C3B68733  23.082  41.980   7.034
 5467POPC   C4B68734  22.787  41.821   7.284
 5468POPC   NC368735   9.488   1.289   5.321
 5468POPC   PO468736   9.856   0.814   5.492
 5468POPC   GL168737   9.594   1.057   5.752
 5468POPC   GL268738   9.762   1.411   5.730
 5468POPC   C1A68739   9.639   1.103   6.163
 5468POPC   D2A68740   9.832   0.902   6.508
 5468POPC   C3A68741   9.860   1.123   6.860
 5468POPC   C4A68742   9.737   1.097   7.272
 5468POPC   C1B68743   9.812   1.599   6.120
 5468POPC   C2B68744   9.572   1.498   6.489
 5468POPC   C3B68745   9.632   1.571   6.909
 5468POPC   C4B68746   9.340   1.439   7.208
 5469POPC   NC368747  30.578  43.369   5.775
 5469POPC   PO468748  30.451  42.842   5.390
 5469POPC   GL168749  30.594  42.743   5.800
 5469POPC   GL268750  30.885  42.929   5.796
 5469POPC   C1A68751  30.497  42.849   6.236
 5469POPC   D2A68752  30.355  43.155   6.550
 5469POPC   C3A68753  30.469  43.062   6.988
 5469POPC   C4A68754  30.569  43.343   7.361
 5469POPC   C1B68755  31.074  43.111   6.177
 5469POPC   C2B68756  30.898  43.052   6.594
 5469POPC   C3B68757  30.950  43.220   7.013
 5469POPC   C4B68758  31.121  43.402   7.357
 5470POPC   NC368759  11.278  27.243   5.413
 5470POPC   PO468760  11.436  26.599   5.398
 5470POPC   GL168761  11.358  26.783   5.785
 5470POPC   GL268762  11.087  26.577   5.946
 5470POPC   C1A68763  11.523  26.676   6.188
 5470POPC   D2A68764  11.605  26.815   6.600
 5470POPC   C3A68765  11.311  26.709   6.884
 5470POPC   C4A68766  11.456  26.659   7.285
 5470POPC   C1B68767  11.048  26.900   6.230
 5470POPC   C2B68768  10.766  26.956   6.552
 5470POPC   C3B68769  10.754  26.988   6.974
 5470POPC   C4B68770  10.948  27.204   7.284
 5471POPC   NC368771  29.948  29.465   5.540
 5471POPC   PO468772  29.702  30.016   5.131
 5471POPC   GL168773  29.908  30.017   5.622
 5471POPC   GL268774  29.922  29.774   5.917
 5471POPC   C1A68775  29.821  30.206   6.093
 5471POPC   D2A68776  29.642  30.171   6.536
 5471POPC   C3A68777  29.906  30.051   6.889
 5471POPC   C4A68778  29.900  30.024   7.332
 5471POPC   C1B68779  29.868  29.665   6.368
 5471POPC   C2B68780  29.719  29.571   6.792
 5471POPC   C3B68781  29.966  29.498   7.168
 5471POPC   C4B68782  30.003  29.592   7.635
 5472POPC   NC368783  31.245  43.023   5.442
 5472POPC   PO468784  31.843  43.064   5.524
 5472POPC   GL168785  31.622  43.022   5.892
 5472POPC   GL268786  31.373  42.768   5.885
 5472POPC   C1A68787  31.626  43.271   6.269
 5472POPC   D2A68788  31.360  43.234   6.613
 5472POPC   C3A68789  31.454  43.124   7.009
 5472POPC   C4A68790  31.666  43.278   7.345
 5472POPC   C1B68791  31.465  42.788   6.342
 5472POPC   C2B68792  31.279  42.633   6.708
 5472POPC   C3B68793  31.453  42.624   7.110
 5472POPC   C4B68794  31.344  42.887   7.454
 5473POPC   NC368795   8.539  11.849   5.175
 5473POPC   PO468796   8.059  12.265   5.419
 5473POPC   GL168797   8.136  11.914   5.745
 5473POPC   GL268798   8.483  11.835   5.725
 5473POPC   C1A68799   8.240  11.725   6.181
 5473POPC   D2A68800   8.432  11.888   6.583
 5473POPC   C3A68801   8.254  11.964   7.015
 5473POPC   C4A68802   7.935  11.669   7.219
 5473POPC   C1B68803   8.476  12.161   6.085
 5473POPC   C2B68804   8.735  12.265   6.442
 5473POPC   C3B68805   8.714  12.267   6.874
 5473POPC   C4B68806   8.621  12.258   7.301
 5474POPC   NC368807   4.907  11.747   5.574
 5474POPC   PO468808   5.518  11.816   5.456
 5474POPC   GL168809   5.266  12.056   5.778
 5474POPC   GL268810   4.956  12.253   5.755
 5474POPC   C1A68811   5.142  11.934   6.203
 5474POPC   D2A68812   5.074  11.796   6.627
 5474POPC   C3A68813   5.363  11.930   6.934
 5474POPC   C4A68814   5.237  11.961   7.347
 5474POPC   C1B68815   4.893  12.371   6.184
 5474POPC   C2B68816   5.078  12.315   6.595
 5474POPC   C3B68817   4.931  12.212   7.018
 5474POPC   C4B68818   4.829  12.220   7.498
 5475POPC   NC368819  24.897  40.618   5.455
 5475POPC   PO468820  25.464  40.546   5.254
 5475POPC   GL168821  25.350  40.727   5.692
 5475POPC   GL268822  25.295  41.118   5.826
 5475POPC   C1A68823  25.395  40.725   6.151
 5475POPC   D2A68824  25.240  40.805   6.560
 5475POPC   C3A68825  25.440  40.653   6.935
 5475POPC   C4A68826  25.032  40.626   7.095
 5475POPC   C1B68827  25.425  41.222   6.302
 5475POPC   C2B68828  25.451  41.219   6.781
 5475POPC   C3B68829  25.313  41.085   7.191
 5475POPC   C4B68830  25.426  41.169   7.653
 5476POPC   NC368831  10.741  13.685   5.321
 5476POPC   PO468832  10.301  13.227   5.170
 5476POPC   GL168833  10.346  13.422   5.619
 5476POPC   GL268834  10.113  13.337   5.901
 5476POPC   C1A68835  10.591  13.516   6.021
 5476POPC   D2A68836  10.630  13.540   6.501
 5476POPC   C3A68837  10.440  13.743   6.886
 5476POPC   C4A68838  10.604  13.712   7.300
 5476POPC   C1B68839  10.241  13.240   6.290
 5476POPC   C2B68840  10.152  13.360   6.697
 5476POPC   C3B68841  10.223  13.333   7.156
 5476POPC   C4B68842  10.357  13.392   7.593
 5477POPC   NC368843  12.185  31.746   5.495
 5477POPC   PO468844  11.738  31.247   5.471
 5477POPC   GL168845  11.985  31.379   5.837
 5477POPC   GL268846  12.325  31.298   5.966
 5477POPC   C1A68847  11.938  31.497   6.272
 5477POPC   D2A68848  12.067  31.309   6.656
 5477POPC   C3A68849  11.993  31.516   7.012
 5477POPC   C4A68850  11.688  31.816   6.987
 5477POPC   C1B68851  12.434  31.620   6.272
 5477POPC   C2B68852  12.413  31.722   6.700
 5477POPC   C3B68853  12.479  31.617   7.132
 5477POPC   C4B68854  12.431  31.367   7.523
 5478POPC   NC368855   6.092   0.832   5.405
 5478POPC   PO468856   5.823   0.278   5.281
 5478POPC   GL168857   5.741   0.296   5.735
 5478POPC   GL268858   5.805   0.644   5.862
 5478POPC   C1A68859   5.522   0.147   6.118
 5478POPC   D2A68860   5.550   0.306   6.542
 5478POPC   C3A68861   5.387   0.151   6.920
 5478POPC   C4A68862   5.520   0.357   7.319
 5478POPC   C1B68863   6.189   0.451   6.061
 5478POPC   C2B68864   6.330   0.375   6.500
 5478POPC   C3B68865   6.059   0.393   6.860
 5478POPC   C4B68866   6.059   0.390   7.293
 5479POPC   NC368867  39.501  17.410   5.465
 5479POPC   PO468868  38.867  17.589   5.044
 5479POPC   GL168869  38.987  17.429   5.543
 5479POPC   GL268870  38.855  17.128   5.706
 5479POPC   C1A68871  39.178  17.413   6.028
 5479POPC   D2A68872  39.428  17.570   6.423
 5479POPC   C3A68873  39.452  17.434   6.879
 5479POPC   C4A68874  39.342  17.533   7.328
 5479POPC   C1B68875  38.718  17.259   6.161
 5479POPC   C2B68876  38.873  17.309   6.647
 5479POPC   C3B68877  38.752  17.101   7.093
 5479POPC   C4B68878  38.703  17.207   7.591
 5480POPC   NC368879  38.242  38.615   5.571
 5480POPC   PO468880  38.892  38.519   5.225
 5480POPC   GL168881  38.745  38.516   5.802
 5480POPC   GL268882  38.459  38.704   6.004
 5480POPC   C1A68883  38.889  38.664   6.232
 5480POPC   D2A68884  38.622  38.748   6.620
 5480POPC   C3A68885  38.728  38.634   7.052
 5480POPC   C4A68886  38.703  38.321   7.370
 5480POPC   C1B68887  38.502  38.279   6.207
 5480POPC   C2B68888  38.391  38.059   6.581
 5480POPC   C3B68889  38.302  38.321   6.938
 5480POPC   C4B68890  38.250  38.536   7.332
 5481POPC   NC368891  33.709   8.955   5.462
 5481POPC   PO468892  33.698   9.660   5.340
 5481POPC   GL168893  33.546   9.328   5.752
 5481POPC   GL268894  33.424   8.931   5.853
 5481POPC   C1A68895  33.677   9.165   6.184
 5481POPC   D2A68896  33.788   8.996   6.595
 5481POPC   C3A68897  33.655   9.190   6.978
 5481POPC   C4A68898  33.816   9.171   7.418
 5481POPC   C1B68899  33.486   8.685   6.280
 5481POPC   C2B68900  33.421   8.670   6.772
 5481POPC   C3B68901  33.616   8.758   7.209
 5481POPC   C4B68902  33.548   8.729   7.668
 5482POPC   NC368903  39.740  14.750   5.366
 5482POPC   PO468904  39.894  14.081   5.334
 5482POPC   GL168905  39.865  14.326   5.675
 5482POPC   GL268906  40.212  14.275   5.738
 5482POPC   C1A68907  39.944  14.470   6.128
 5482POPC   D2A68908  40.079  14.770   6.450
 5482POPC   C3A68909  39.848  14.712   6.833
 5482POPC   C4A68910  40.015  14.528   7.212
 5482POPC   C1B68911  40.292  14.078   6.124
 5482POPC   C2B68912  40.291  14.271   6.526
 5482POPC   C3B68913  40.119  14.128   6.909
 5482POPC   C4B68914  40.073  13.839   7.244
 5483POPC   NC368915  22.749  39.464   5.452
 5483POPC   PO468916  23.403  39.193   5.419
 5483POPC   GL168917  23.180  39.283   5.777
 5483POPC   GL268918  22.864  39.148   5.825
 5483POPC   C1A68919  23.171  39.223   6.220
 5483POPC   D2A68920  23.074  39.485   6.555
 5483POPC   C3A68921  23.089  39.271   6.916
 5483POPC   C4A68922  22.964  39.227   7.358
 5483POPC   C1B68923  22.672  39.321   6.208
 5483POPC   C2B68924  22.556  39.322   6.633
 5483POPC   C3B68925  22.614  39.413   7.048
 5483POPC   C4B68926  22.450  39.235   7.461
 5484POPC   NC368927   5.595   3.587   5.565
 5484POPC   PO468928   4.930   3.328   5.501
 5484POPC   GL168929   5.134   3.415   5.857
 5484POPC   GL268930   5.100   3.757   5.825
 5484POPC   C1A68931   4.922   3.454   6.250
 5484POPC   D2A68932   4.862   3.235   6.603
 5484POPC   C3A68933   4.801   3.396   6.977
 5484POPC   C4A68934   5.065   3.424   7.312
 5484POPC   C1B68935   5.124   3.922   6.240
 5484POPC   C2B68936   4.988   3.789   6.640
 5484POPC   C3B68937   5.171   3.827   7.032
 5484POPC   C4B68938   5.010   3.926   7.437
 5485POPC   NC368939  11.591   5.242   5.585
 5485POPC   PO468940  12.028   4.784   5.309
 5485POPC   GL168941  12.088   5.103   5.678
 5485POPC   GL268942  11.886   4.888   5.834
 5485POPC   C1A68943  11.992   5.319   6.120
 5485POPC   D2A68944  11.839   5.435   6.538
 5485POPC   C3A68945  12.078   5.429   6.927
 5485POPC   C4A68946  11.944   5.245   7.317
 5485POPC   C1B68947  12.090   4.809   6.220
 5485POPC   C2B68948  12.055   4.989   6.619
 5485POPC   C3B68949  12.090   4.847   7.020
 5485POPC   C4B68950  12.445   4.756   7.326
 5486POPC   NC368951  25.043  36.255   5.435
 5486POPC   PO468952  25.510  35.884   5.545
 5486POPC   GL168953  25.252  35.912   5.904
 5486POPC   GL268954  25.282  36.258   5.909
 5486POPC   C1A68955  24.985  36.002   6.293
 5486POPC   D2A68956  25.031  36.145   6.751
 5486POPC   C3A68957  25.009  35.961   7.157
 5486POPC   C4A68958  24.855  35.831   7.584
 5486POPC   C1B68959  25.610  36.512   6.092
 5486POPC   C2B68960  25.752  36.592   6.504
 5486POPC   C3B68961  25.502  36.511   6.838
 5486POPC   C4B68962  25.329  36.353   7.187
 5487POPC   NC368963  24.194   1.450   5.528
 5487POPC   PO468964  23.669   1.235   5.097
 5487POPC   GL168965  23.611   1.209   5.618
 5487POPC   GL268966  23.907   1.250   5.888
 5487POPC   C1A68967  23.469   1.115   6.080
 5487POPC   D2A68968  23.714   1.186   6.473
 5487POPC   C3A68969  23.754   0.840   6.773
 5487POPC   C4A68970  23.623   0.909   7.200
 5487POPC   C1B68971  24.082   1.536   6.203
 5487POPC   C2B68972  23.968   1.621   6.628
 5487POPC   C3B68973  24.137   1.571   7.020
 5487POPC   C4B68974  24.044   1.199   7.250
 5488POPC   NC368975  26.545   7.592   5.460
 5488POPC   PO468976  27.068   7.197   5.413
 5488POPC   GL168977  26.958   7.470   5.755
 5488POPC   GL268978  26.656   7.308   5.869
 5488POPC   C1A68979  27.006   7.488   6.208
 5488POPC   D2A68980  27.071   7.271   6.575
 5488POPC   C3A68981  27.000   7.467   6.955
 5488POPC   C4A68982  26.946   7.181   7.284
 5488POPC   C1B68983  26.501   7.528   6.225
 5488POPC   C2B68984  26.570   7.480   6.664
 5488POPC   C3B68985  26.522   7.485   7.116
 5488POPC   C4B68986  26.822   7.646   7.428
 5489POPC   NC368987  25.778  33.303   5.329
 5489POPC   PO468988  26.241  32.915   5.209
 5489POPC   GL168989  25.875  32.836   5.571
 5489POPC   GL268990  25.844  33.130   5.816
 5489POPC   C1A68991  25.715  32.689   6.013
 5489POPC   D2A68992  25.686  32.609   6.479
 5489POPC   C3A68993  25.921  32.855   6.783
 5489POPC   C4A68994  26.058  32.817   7.198
 5489POPC   C1B68995  25.973  33.336   6.222
 5489POPC   C2B68996  26.164  33.348   6.649
 5489POPC   C3B68997  25.918  33.334   7.021
 5489POPC   C4B68998  25.864  33.244   7.426
 5490POPC   NC368999  42.874   9.959   5.529
 5490POPC   PO469000  42.244   9.878   5.334
 5490POPC   GL169001  42.439   9.555   5.631
 5490POPC   GL269002  42.509   9.812   5.843
 5490POPC   C1A69003  42.471   9.384   6.096
 5490POPC   D2A69004  42.476   9.659   6.469
 5490POPC   C3A69005  42.514   9.495   6.891
 5490POPC   C4A69006  42.366   9.682   7.249
 5490POPC   C1B69007  42.195   9.989   6.097
 5490POPC   C2B69008  42.146  10.054   6.521
 5490POPC   C3B69009  42.155  10.009   6.918
 5490POPC   C4B69010  41.938  10.113   7.283
 5491POPC   NC369011   2.295  33.445   5.219
 5491POPC   PO469012   1.678  33.828   5.436
 5491POPC   GL169013   1.778  33.713   5.902
 5491POPC   GL269014   2.118  33.548   5.947
 5491POPC   C1A69015   1.926  33.886   6.318
 5491POPC   D2A69016   1.672  33.935   6.692
 5491POPC   C3A69017   1.818  33.937   7.088
 5491POPC   C4A69018   1.868  33.581   7.340
 5491POPC   C1B69019   2.193  33.452   6.396
 5491POPC   C2B69020   2.223  33.722   6.771
 5491POPC   C3B69021   2.293  33.853   7.209
 5491POPC   C4B69022   2.211  34.048   7.602
 5492POPC   NC369023  11.502  35.715   5.087
 5492POPC   PO469024  11.208  35.134   5.282
 5492POPC   GL169025  11.281  35.215   5.723
 5492POPC   GL269026  10.968  35.386   5.847
 5492POPC   C1A69027  11.441  35.375   6.127
 5492POPC   D2A69028  11.248  35.523   6.524
 5492POPC   C3A69029  11.421  35.352   6.890
 5492POPC   C4A69030  11.406  35.542   7.264
 5492POPC   C1B69031  10.958  35.170   6.233
 5492POPC   C2B69032  10.933  35.101   6.663
 5492POPC   C3B69033  10.973  35.228   7.088
 5492POPC   C4B69034  10.765  35.068   7.423
 5493POPC   NC369035  15.054  39.920   5.505
 5493POPC   PO469036  15.041  39.289   5.581
 5493POPC   GL169037  14.987  39.628   5.913
 5493POPC   GL269038  14.875  40.018   5.954
 5493POPC   C1A69039  15.078  39.756   6.328
 5493POPC   D2A69040  14.909  39.714   6.725
 5493POPC   C3A69041  15.224  39.750   7.053
 5493POPC   C4A69042  15.415  40.155   7.173
 5493POPC   C1B69043  15.250  40.215   6.183
 5493POPC   C2B69044  15.244  40.130   6.665
 5493POPC   C3B69045  14.900  40.133   7.031
 5493POPC   C4B69046  14.931  40.061   7.489
 5494POPC   NC369047  13.042  44.409   5.403
 5494POPC   PO469048  12.551  43.803   5.422
 5494POPC   GL169049  12.650  43.844   5.872
 5494POPC   GL269050  13.005  43.900   5.846
 5494POPC   C1A69051  12.650  43.735   6.346
 5494POPC   D2A69052  12.669  43.557   6.785
 5494POPC   C3A69053  12.825  43.792   7.145
 5494POPC   C4A69054  12.884  44.191   7.402
 5494POPC   C1B69055  13.160  43.794   6.261
 5494POPC   C2B69056  13.150  43.847   6.710
 5494POPC   C3B69057  13.327  43.901   7.133
 5494POPC   C4B69058  13.169  43.748   7.524
 5495POPC   NC369059   6.514  33.728   5.619
 5495POPC   PO469060   6.025  33.465   5.336
 5495POPC   GL169061   5.987  33.723   5.749
 5495POPC   GL269062   5.634  33.810   5.760
 5495POPC   C1A69063   6.176  33.826   6.192
 5495POPC   D2A69064   6.180  34.135   6.557
 5495POPC   C3A69065   5.917  34.018   6.929
 5495POPC   C4A69066   5.967  33.898   7.355
 5495POPC   C1B69067   5.677  33.621   6.180
 5495POPC   C2B69068   5.887  33.645   6.603
 5495POPC   C3B69069   5.778  33.485   7.049
 5495POPC   C4B69070   5.546  33.631   7.449
 5496POPC   NC369071   7.186   1.151   5.284
 5496POPC   PO469072   7.714   1.516   5.579
 5496POPC   GL169073   7.303   1.564   5.826
 5496POPC   GL269074   7.341   1.207   5.925
 5496POPC   C1A69075   7.022   1.474   6.211
 5496POPC   D2A69076   7.187   1.138   6.511
 5496POPC   C3A69077   7.190   1.196   6.937
 5496POPC   C4A69078   7.275   1.549   7.234
 5496POPC   C1B69079   7.650   1.131   6.271
 5496POPC   C2B69080   7.666   0.960   6.706
 5496POPC   C3B69081   7.601   1.042   7.165
 5496POPC   C4B69082   7.509   0.863   7.615
 5497POPC   NC369083  38.061  33.788   5.246
 5497POPC   PO469084  38.533  34.225   5.393
 5497POPC   GL169085  38.546  34.082   5.843
 5497POPC   GL269086  38.719  33.772   5.871
 5497POPC   C1A69087  38.274  33.859   6.152
 5497POPC   D2A69088  38.033  33.867   6.545
 5497POPC   C3A69089  38.306  33.755   6.862
 5497POPC   C4A69090  38.540  33.908   7.215
 5497POPC   C1B69091  38.850  34.007   6.254
 5497POPC   C2B69092  38.963  33.955   6.691
 5497POPC   C3B69093  38.975  34.161   7.117
 5497POPC   C4B69094  38.834  34.136   7.579
 5498POPC   NC369095  28.572  42.599   5.441
 5498POPC   PO469096  28.266  41.964   5.527
 5498POPC   GL169097  28.214  42.383   5.766
 5498POPC   GL269098  28.558  42.498   5.921
 5498POPC   C1A69099  28.133  42.552   6.180
 5498POPC   D2A69100  28.116  42.261   6.529
 5498POPC   C3A69101  28.087  42.447   6.949
 5498POPC   C4A69102  28.092  42.246   7.350
 5498POPC   C1B69103  28.614  42.206   6.220
 5498POPC   C2B69104  28.631  42.294   6.622
 5498POPC   C3B69105  28.793  42.576   6.876
 5498POPC   C4B69106  28.537  42.449   7.195
 5499POPC   NC369107  17.676  17.646   5.423
 5499POPC   PO469108  17.693  17.070   5.523
 5499POPC   GL169109  17.506  17.319   5.851
 5499POPC   GL269110  17.468  17.711   5.888
 5499POPC   C1A69111  17.480  17.416   6.284
 5499POPC   D2A69112  17.715  17.643   6.532
 5499POPC   C3A69113  17.583  17.557   6.931
 5499POPC   C4A69114  17.412  17.311   7.238
 5499POPC   C1B69115  17.300  17.908   6.283
 5499POPC   C2B69116  17.221  17.875   6.736
 5499POPC   C3B69117  17.164  17.759   7.195
 5499POPC   C4B69118  17.499  17.737   7.539
 5500POPC   NC369119  22.627  32.332   5.416
 5500POPC   PO469120  23.231  32.402   5.276
 5500POPC   GL169121  23.099  32.339   5.722
 5500POPC   GL269122  22.891  32.025   5.743
 5500POPC   C1A69123  23.224  32.201   6.154
 5500POPC   D2A69124  23.322  31.986   6.566
 5500POPC   C3A69125  23.129  32.212   6.912
 5500POPC   C4A69126  23.200  32.401   7.290
 5500POPC   C1B69127  22.718  32.284   6.079
 5500POPC   C2B69128  22.871  32.411   6.477
 5500POPC   C3B69129  22.646  32.267   6.835
 5500POPC   C4B69130  22.699  32.431   7.222
 5501POPC   NC369131   2.241   7.228   5.352
 5501POPC   PO469132   1.584   7.283   5.308
 5501POPC   GL169133   1.818   7.491   5.655
 5501POPC   GL269134   2.154   7.489   5.810
 5501POPC   C1A69135   1.756   7.502   6.131
 5501POPC   D2A69136   1.918   7.282   6.490
 5501POPC   C3A69137   1.975   7.480   6.892
 5501POPC   C4A69138   1.830   7.530   7.317
 5501POPC   C1B69139   2.241   7.134   6.096
 5501POPC   C2B69140   2.398   7.149   6.530
 5501POPC   C3B69141   2.177   7.007   6.881
 5501POPC   C4B69142   2.258   7.256   7.246
 5502POPC   NC369143  11.331   9.529   5.063
 5502POPC   PO469144  11.503  10.165   5.404
 5502POPC   GL169145  11.248  10.032   5.715
 5502POPC   GL269146  11.503   9.977   5.897
 5502POPC   C1A69147  11.020   9.922   6.078
 5502POPC   D2A69148  10.988   9.826   6.495
 5502POPC   C3A69149  11.276   9.659   6.784
 5502POPC   C4A69150  11.297   9.787   7.204
 5502POPC   C1B69151  11.468   9.723   6.246
 5502POPC   C2B69152  11.726   9.775   6.565
 5502POPC   C3B69153  11.714   9.972   6.931
 5502POPC   C4B69154  11.807   9.782   7.282
 5503POPC   NC369155  44.356   4.291   5.479
 5503POPC   PO469156  43.631   4.375   5.473
 5503POPC   GL169157  43.814   4.568   5.817
 5503POPC   GL269158  44.157   4.673   5.761
 5503POPC   C1A69159  43.995   4.358   6.188
 5503POPC   D2A69160  44.099   4.018   6.465
 5503POPC   C3A69161  44.042   4.178   6.888
 5503POPC   C4A69162  44.103   3.983   7.285
 5503POPC   C1B69163  44.376   4.717   6.154
 5503POPC   C2B69164  44.206   4.692   6.534
 5503POPC   C3B69165  44.324   4.711   6.917
 5503POPC   C4B69166  44.243   4.462   7.262
 5504POPC   NC369167  15.431  42.294   5.359
 5504POPC   PO469168  14.883  41.840   5.474
 5504POPC   GL169169  15.094  42.198   5.732
 5504POPC   GL269170  15.469  42.170   5.837
 5504POPC   C1A69171  15.127  42.497   6.099
 5504POPC   D2A69172  14.926  42.674   6.465
 5504POPC   C3A69173  15.136  42.659   6.882
 5504POPC   C4A69174  15.019  42.530   7.284
 5504POPC   C1B69175  15.289  42.024   6.195
 5504POPC   C2B69176  15.172  42.225   6.571
 5504POPC   C3B69177  15.179  42.129   7.002
 5504POPC   C4B69178  15.461  41.892   7.231
 5505POPC   NC369179   4.437  25.504   5.282
 5505POPC   PO469180   4.456  24.864   5.276
 5505POPC   GL169181   4.479  25.092   5.707
 5505POPC   GL269182   4.692  25.413   5.759
 5505POPC   C1A69183   4.244  25.127   6.141
 5505POPC   D2A69184   4.036  25.459   6.446
 5505POPC   C3A69185   4.170  25.529   6.886
 5505POPC   C4A69186   4.134  25.199   7.207
 5505POPC   C1B69187   4.562  25.517   6.204
 5505POPC   C2B69188   4.522  25.261   6.595
 5505POPC   C3B69189   4.644  25.182   7.037
 5505POPC   C4B69190   4.522  25.516   7.300
 5506POPC   NC369191  25.441  32.375   4.916
 5506POPC   PO469192  25.168  32.061   5.482
 5506POPC   GL169193  25.243  32.255   5.849
 5506POPC   GL269194  24.951  32.234   5.941
 5506POPC   C1A69195  25.517  32.216   6.188
 5506POPC   D2A69196  25.350  32.151   6.588
 5506POPC   C3A69197  25.566  32.084   6.951
 5506POPC   C4A69198  25.402  32.021   7.354
 5506POPC   C1B69199  24.914  32.292   6.335
 5506POPC   C2B69200  24.839  32.189   6.694
 5506POPC   C3B69201  25.049  32.216   7.053
 5506POPC   C4B69202  25.124  32.501   7.383
 5507POPC   NC369203  39.008  40.956   5.482
 5507POPC   PO469204  39.349  40.416   5.207
 5507POPC   GL169205  39.184  40.518   5.683
 5507POPC   GL269206  39.390  40.774   5.857
 5507POPC   C1A69207  38.931  40.738   6.094
 5507POPC   D2A69208  38.908  41.033   6.490
 5507POPC   C3A69209  39.022  40.838   6.894
 5507POPC   C4A69210  39.204  40.773   7.318
 5507POPC   C1B69211  39.380  40.987   6.286
 5507POPC   C2B69212  39.529  40.980   6.744
 5507POPC   C3B69213  39.670  40.887   7.195
 5507POPC   C4B69214  39.536  40.993   7.686
 5508POPC   NC369215   3.087  16.196   5.438
 5508POPC   PO469216   2.513  15.923   5.225
 5508POPC   GL169217   2.673  15.962   5.659
 5508POPC   GL269218   2.653  16.332   5.743
 5508POPC   C1A69219   2.819  15.900   6.090
 5508POPC   D2A69220   2.962  16.081   6.492
 5508POPC   C3A69221   2.879  15.822   6.843
 5508POPC   C4A69222   2.869  15.940   7.246
 5508POPC   C1B69223   2.353  16.162   6.052
 5508POPC   C2B69224   2.452  16.022   6.473
 5508POPC   C3B69225   2.498  16.210   6.884
 5508POPC   C4B69226   2.390  16.048   7.301
 5509POPC   NC369227  35.153  39.720   5.595
 5509POPC   PO469228  35.022  39.088   5.355
 5509POPC   GL169229  35.220  39.045   5.789
 5509POPC   GL269230  35.593  39.123   5.838
 5509POPC   C1A69231  35.177  39.233   6.203
 5509POPC   D2A69232  35.411  39.390   6.565
 5509POPC   C3A69233  35.277  39.258   6.955
 5509POPC   C4A69234  35.477  39.148   7.324
 5509POPC   C1B69235  35.586  39.553   6.080
 5509POPC   C2B69236  35.386  39.865   6.375
 5509POPC   C3B69237  35.575  39.850   6.812
 5509POPC   C4B69238  35.447  39.676   7.196
 5510POPC   NC369239  14.939  18.564   5.545
 5510POPC   PO469240  15.544  18.239   5.591
 5510POPC   GL169241  15.242  18.360   5.927
 5510POPC   GL269242  14.934  18.193   5.938
 5510POPC   C1A69243  15.227  18.363   6.387
 5510POPC   D2A69244  15.566  18.572   6.612
 5510POPC   C3A69245  15.497  18.365   6.947
 5510POPC   C4A69246  15.214  18.024   6.910
 5510POPC   C1B69247  14.748  18.494   6.173
 5510POPC   C2B69248  14.782  18.637   6.559
 5510POPC   C3B69249  15.000  18.507   6.915
 5510POPC   C4B69250  14.746  18.566   7.294
 5511POPC   NC369251  33.200  11.180   5.492
 5511POPC   PO469252  32.726  11.664   5.495
 5511POPC   GL169253  32.694  11.351   5.869
 5511POPC   GL269254  32.951  11.064   5.909
 5511POPC   C1A69255  32.877  11.390   6.293
 5511POPC   D2A69256  33.156  11.241   6.627
 5511POPC   C3A69257  32.960  11.248   7.015
 5511POPC   C4A69258  32.835  11.635   7.226
 5511POPC   C1B69259  33.332  11.118   6.157
 5511POPC   C2B69260  33.589  10.974   6.524
 5511POPC   C3B69261  33.429  10.935   6.960
 5511POPC   C4B69262  33.344  11.154   7.360
 5512POPC   NC369263  27.369  43.007   5.471
 5512POPC   PO469264  26.725  43.270   5.574
 5512POPC   GL169265  26.880  42.948   5.804
 5512POPC   GL269266  27.146  43.145   5.895
 5512POPC   C1A69267  27.069  42.741   6.169
 5512POPC   D2A69268  27.273  42.831   6.558
 5512POPC   C3A69269  27.037  42.769   6.939
 5512POPC   C4A69270  26.767  42.877   7.287
 5512POPC   C1B69271  26.966  43.263   6.281
 5512POPC   C2B69272  26.970  43.235   6.708
 5512POPC   C3B69273  27.002  43.318   7.098
 5512POPC   C4B69274  26.699  43.443   7.343
 5513POPC   NC369275  12.051  10.060   5.522
 5513POPC   PO469276  11.732   9.525   5.293
 5513POPC   GL169277  11.832   9.637   5.716
 5513POPC   GL269278  11.976   9.373   5.803
 5513POPC   C1A69279  11.993   9.804   6.134
 5513POPC   D2A69280  12.189   9.539   6.482
 5513POPC   C3A69281  12.167   9.697   6.903
 5513POPC   C4A69282  12.295   9.647   7.324
 5513POPC   C1B69283  11.826   9.318   6.205
 5513POPC   C2B69284  11.822   9.163   6.595
 5513POPC   C3B69285  11.722   9.412   6.910
 5513POPC   C4B69286  11.936   9.301   7.194
 5514POPC   NC369287  16.221  28.170   5.363
 5514POPC   PO469288  15.554  28.356   5.399
 5514POPC   GL169289  15.852  28.159   5.739
 5514POPC   GL269290  15.615  28.032   5.961
 5514POPC   C1A69291  16.042  28.131   6.200
 5514POPC   D2A69292  16.346  28.207   6.550
 5514POPC   C3A69293  16.206  28.468   6.930
 5514POPC   C4A69294  16.185  28.634   7.353
 5514POPC   C1B69295  15.703  28.520   6.082
 5514POPC   C2B69296  15.615  28.807   6.478
 5514POPC   C3B69297  15.689  28.747   6.939
 5514POPC   C4B69298  15.770  28.367   7.217
 5515POPC   NC369299   7.126  36.804   5.455
 5515POPC   PO469300   7.744  36.986   5.720
 5515POPC   GL169301   7.372  36.979   5.895
 5515POPC   GL269302   7.247  36.611   5.893
 5515POPC   C1A69303   7.489  37.043   6.310
 5515POPC   D2A69304   7.796  36.851   6.547
 5515POPC   C3A69305   7.608  37.044   6.840
 5515POPC   C4A69306   7.612  37.036   7.213
 5515POPC   C1B69307   7.373  36.516   6.271
 5515POPC   C2B69308   7.294  36.686   6.651
 5515POPC   C3B69309   7.390  36.593   7.067
 5515POPC   C4B69310   7.207  36.620   7.454
 5516POPC   NC369311  13.901  17.010   5.099
 5516POPC   PO469312  13.686  17.624   5.383
 5516POPC   GL169313  13.840  17.624   5.793
 5516POPC   GL269314  13.618  17.350   5.833
 5516POPC   C1A69315  13.610  17.724   6.188
 5516POPC   D2A69316  13.221  17.660   6.444
 5516POPC   C3A69317  13.324  17.597   6.888
 5516POPC   C4A69318  13.680  17.530   7.148
 5516POPC   C1B69319  13.855  17.265   6.228
 5516POPC   C2B69320  14.087  17.272   6.604
 5516POPC   C3B69321  13.938  17.098   6.996
 5516POPC   C4B69322  13.842  17.137   7.450
 5517POPC   NC369323  20.763  40.049   5.385
 5517POPC   PO469324  20.690  39.396   5.443
 5517POPC   GL169325  20.605  39.749   5.755
 5517POPC   GL269326  20.845  40.032   5.887
 5517POPC   C1A69327  20.512  39.790   6.192
 5517POPC   D2A69328  20.744  39.990   6.533
 5517POPC   C3A69329  20.597  39.852   6.932
 5517POPC   C4A69330  20.802  39.652   7.284
 5517POPC   C1B69331  20.502  40.285   6.104
 5517POPC   C2B69332  20.321  40.264   6.520
 5517POPC   C3B69333  20.517  40.353   6.929
 5517POPC   C4B69334  20.396  40.154   7.302
 5518POPC   NC369335  19.485  41.404   5.373
 5518POPC   PO469336  19.858  41.916   5.500
 5518POPC   GL169337  19.871  41.921   5.924
 5518POPC   GL269338  20.174  41.722   5.952
 5518POPC   C1A69339  19.599  41.814   6.276
 5518POPC   D2A69340  19.761  41.707   6.674
 5518POPC   C3A69341  19.669  41.318   6.912
 5518POPC   C4A69342  19.603  41.325   7.342
 5518POPC   C1B69343  19.999  41.470   6.258
 5518POPC   C2B69344  20.104  41.321   6.642
 5518POPC   C3B69345  20.093  41.571   7.035
 5518POPC   C4B69346  20.146  41.171   7.215
 5519POPC   NC369347  12.717  11.721   5.552
 5519POPC   PO469348  13.223  12.302   5.639
 5519POPC   GL169349  12.837  12.317   5.798
 5519POPC   GL269350  12.841  12.009   5.943
 5519POPC   C1A69351  12.824  12.423   6.242
 5519POPC   D2A69352  12.718  12.256   6.633
 5519POPC   C3A69353  12.942  12.377   6.943
 5519POPC   C4A69354  12.940  12.202   7.319
 5519POPC   C1B69355  12.712  11.706   6.237
 5519POPC   C2B69356  12.633  11.718   6.646
 5519POPC   C3B69357  12.888  11.858   6.949
 5519POPC   C4B69358  13.073  11.708   7.339
 5520POPC   NC369359   1.198  33.690   5.407
 5520POPC   PO469360   1.012  34.351   5.444
 5520POPC   GL169361   1.236  34.080   5.785
 5520POPC   GL269362   1.060  33.749   5.896
 5520POPC   C1A69363   1.410  33.914   6.224
 5520POPC   D2A69364   1.222  33.695   6.604
 5520POPC   C3A69365   1.389  33.675   7.034
 5520POPC   C4A69366   1.272  33.994   7.303
 5520POPC   C1B69367   0.859  33.504   6.250
 5520POPC   C2B69368   0.873  33.339   6.688
 5520POPC   C3B69369   0.932  33.484   7.107
 5520POPC   C4B69370   0.940  33.523   7.600
 5521POPC   NC369371   9.621   7.017   5.230
 5521POPC   PO469372   9.707   7.657   5.315
 5521POPC   GL169373   9.713   7.461   5.725
 5521POPC   GL269374   9.865   7.185   5.823
 5521POPC   C1A69375   9.532   7.616   6.131
 5521POPC   D2A69376   9.518   7.407   6.521
 5521POPC   C3A69377   9.651   7.590   6.895
 5521POPC   C4A69378   9.636   7.288   7.215
 5521POPC   C1B69379   9.951   7.353   6.212
 5521POPC   C2B69380  10.086   7.555   6.606
 5521POPC   C3B69381  10.148   7.430   7.026
 5521POPC   C4B69382  10.112   7.196   7.405
 5522POPC   NC369383  10.736  35.167   5.425
 5522POPC   PO469384  10.474  35.769   5.519
 5522POPC   GL169385  10.409  35.389   5.781
 5522POPC   GL269386  10.589  35.035   5.884
 5522POPC   C1A69387  10.495  35.418   6.194
 5522POPC   D2A69388  10.727  35.558   6.505
 5522POPC   C3A69389  10.567  35.390   6.835
 5522POPC   C4A69390  10.502  35.432   7.219
 5522POPC   C1B69391  10.347  34.899   6.208
 5522POPC   C2B69392  10.259  35.021   6.623
 5522POPC   C3B69393  10.421  34.943   7.037
 5522POPC   C4B69394  10.211  35.062   7.414
 5523POPC   NC369395  33.646   0.116   5.302
 5523POPC   PO469396  33.939  44.562   5.284
 5523POPC   GL169397  33.899  44.562   5.713
 5523POPC   GL269398  33.974  44.893   5.720
 5523POPC   C1A69399  34.089  44.575   6.134
 5523POPC   D2A69400  34.116  44.597   6.615
 5523POPC   C3A69401  33.751  44.758   6.853
 5523POPC   C4A69402  33.608  44.734   7.274
 5523POPC   C1B69403  34.083   0.078   6.112
 5523POPC   C2B69404  33.912   0.213   6.485
 5523POPC   C3B69405  34.037   0.191   6.874
 5523POPC   C4B69406  34.011   0.018   7.267
 5524POPC   NC369407  26.539   2.200   5.053
 5524POPC   PO469408  27.034   1.876   5.271
 5524POPC   GL169409  27.037   1.834   5.806
 5524POPC   GL269410  27.231   1.683   6.052
 5524POPC   C1A69411  26.753   1.785   6.199
 5524POPC   D2A69412  26.881   1.884   6.621
 5524POPC   C3A69413  26.600   2.066   6.934
 5524POPC   C4A69414  26.458   1.753   7.267
 5524POPC   C1B69415  27.140   2.133   6.214
 5524POPC   C2B69416  27.058   2.370   6.604
 5524POPC   C3B69417  27.076   2.196   7.015
 5524POPC   C4B69418  26.979   1.766   7.125
 5525POPC   NC369419  23.439  36.499   5.434
 5525POPC   PO469420  23.844  36.971   5.372
 5525POPC   GL169421  23.602  36.945   5.732
 5525POPC   GL269422  23.674  36.617   5.864
 5525POPC   C1A69423  23.625  37.039   6.161
 5525POPC   D2A69424  23.423  36.756   6.472
 5525POPC   C3A69425  23.519  36.805   6.889
 5525POPC   C4A69426  23.434  37.121   7.232
 5525POPC   C1B69427  23.905  36.582   6.245
 5525POPC   C2B69428  24.052  36.680   6.646
 5525POPC   C3B69429  23.905  36.491   7.018
 5525POPC   C4B69430  23.600  36.584   7.335
 5526POPC   NC369431  26.946  14.010   5.312
 5526POPC   PO469432  26.417  13.767   5.528
 5526POPC   GL169433  26.584  13.687   5.872
 5526POPC   GL269434  26.474  13.341   5.874
 5526POPC   C1A69435  26.906  13.786   6.183
 5526POPC   D2A69436  26.997  13.989   6.563
 5526POPC   C3A69437  27.055  13.741   6.930
 5526POPC   C4A69438  26.906  13.819   7.308
 5526POPC   C1B69439  26.545  13.427   6.314
 5526POPC   C2B69440  26.723  13.421   6.718
 5526POPC   C3B69441  26.585  13.373   7.137
 5526POPC   C4B69442  26.589  13.023   7.422
 5527POPC   NC369443  13.748  39.182   5.425
 5527POPC   PO469444  13.120  38.963   5.544
 5527POPC   GL169445  13.437  39.151   5.843
 5527POPC   GL269446  13.809  39.321   5.894
 5527POPC   C1A69447  13.535  39.059   6.264
 5527POPC   D2A69448  13.360  39.293   6.621
 5527POPC   C3A69449  13.577  39.198   6.996
 5527POPC   C4A69450  13.975  38.973   7.059
 5527POPC   C1B69451  13.626  39.557   6.200
 5527POPC   C2B69452  13.809  39.602   6.587
 5527POPC   C3B69453  14.016  39.500   6.963
 5527POPC   C4B69454  13.750  39.574   7.294
 5528POPC   NC369455  20.442   0.736   5.526
 5528POPC   PO469456  20.959   0.243   5.449
 5528POPC   GL169457  20.610   0.110   5.798
 5528POPC   GL269458  20.232   0.239   5.802
 5528POPC   C1A69459  20.642   0.237   6.230
 5528POPC   D2A69460  21.009   0.440   6.444
 5528POPC   C3A69461  21.000   0.469   6.882
 5528POPC   C4A69462  20.893   0.246   7.242
 5528POPC   C1B69463  20.211   0.519   6.212
 5528POPC   C2B69464  20.497   0.560   6.609
 5528POPC   C3B69465  20.447   0.344   6.991
 5528POPC   C4B69466  20.237   0.463   7.355
 5529POPC   NC369467  22.679   0.524   5.432
 5529POPC   PO469468  23.236   0.335   5.047
 5529POPC   GL169469  23.221   0.384   5.549
 5529POPC   GL269470  23.125   0.732   5.665
 5529POPC   C1A69471  22.959   0.315   5.966
 5529POPC   D2A69472  22.818   0.442   6.393
 5529POPC   C3A69473  22.910   0.278   6.821
 5529POPC   C4A69474  22.812   0.387   7.249
 5529POPC   C1B69475  23.008   0.864   6.097
 5529POPC   C2B69476  22.883   0.957   6.505
 5529POPC   C3B69477  22.730   0.766   6.862
 5529POPC   C4B69478  22.608   0.854   7.274
 5530POPC   NC369479   9.828  23.322   5.408
 5530POPC   PO469480   9.583  23.956   5.358
 5530POPC   GL169481   9.686  23.693   5.751
 5530POPC   GL269482   9.482  23.376   5.793
 5530POPC   C1A69483   9.948  23.692   6.158
 5530POPC   D2A69484  10.106  23.876   6.580
 5530POPC   C3A69485   9.899  23.825   7.003
 5530POPC   C4A69486  10.034  24.173   7.304
 5530POPC   C1B69487   9.626  23.263   6.219
 5530POPC   C2B69488   9.975  23.313   6.520
 5530POPC   C3B69489  10.137  23.382   6.915
 5530POPC   C4B69490   9.981  23.435   7.353
 5531POPC   NC369491   0.555  22.443   5.177
 5531POPC   PO469492   0.428  23.041   5.485
 5531POPC   GL169493   0.260  23.115   5.835
 5531POPC   GL269494   0.031  22.848   5.799
 5531POPC   C1A69495   0.377  23.057   6.257
 5531POPC   D2A69496   0.558  23.173   6.656
 5531POPC   C3A69497   0.368  23.028   7.027
 5531POPC   C4A69498   0.519  22.845   7.421
 5531POPC   C1B69499  44.987  22.706   6.224
 5531POPC   C2B69500   0.119  22.786   6.632
 5531POPC   C3B69501  44.946  22.681   7.002
 5531POPC   C4B69502   0.022  22.770   7.394
 5532POPC   NC369503  18.773  38.599   5.203
 5532POPC   PO469504  19.344  38.270   5.378
 5532POPC   GL169505  19.155  38.520   5.769
 5532POPC   GL269506  19.345  38.828   5.901
 5532POPC   C1A69507  19.031  38.598   6.264
 5532POPC   D2A69508  19.084  38.623   6.734
 5532POPC   C3A69509  18.759  38.688   7.061
 5532POPC   C4A69510  18.712  38.794   7.532
 5532POPC   C1B69511  19.523  38.843   6.355
 5532POPC   C2B69512  19.474  38.935   6.834
 5532POPC   C3B69513  19.243  38.819   7.232
 5532POPC   C4B69514  19.053  38.435   7.394
 5533POPC   NC369515   2.247  26.593   5.514
 5533POPC   PO469516   1.647  26.674   5.550
 5533POPC   GL169517   1.767  26.876   5.888
 5533POPC   GL269518   2.097  27.031   5.804
 5533POPC   C1A69519   1.767  26.697   6.292
 5533POPC   D2A69520   1.905  26.371   6.579
 5533POPC   C3A69521   1.892  26.589   6.964
 5533POPC   C4A69522   1.649  26.933   7.121
 5533POPC   C1B69523   1.968  27.198   6.227
 5533POPC   C2B69524   1.886  27.073   6.649
 5533POPC   C3B69525   2.148  27.028   7.007
 5533POPC   C4B69526   2.046  27.033   7.426
 5534POPC   NC369527  35.966  40.899   5.129
 5534POPC   PO469528  36.088  41.641   5.246
 5534POPC   GL169529  36.231  41.472   5.647
 5534POPC   GL269530  35.931  41.320   5.698
 5534POPC   C1A69531  36.164  41.608   6.084
 5534POPC   D2A69532  35.828  41.654   6.416
 5534POPC   C3A69533  36.018  41.658   6.818
 5534POPC   C4A69534  35.990  41.795   7.219
 5534POPC   C1B69535  35.856  41.215   6.127
 5534POPC   C2B69536  36.024  41.193   6.533
 5534POPC   C3B69537  35.895  41.170   6.933
 5534POPC   C4B69538  36.002  41.272   7.321
 5535POPC   NC369539   4.865  34.052   5.450
 5535POPC   PO469540   5.053  33.394   5.544
 5535POPC   GL169541   5.178  33.612   5.913
 5535POPC   GL269542   5.150  33.978   5.863
 5535POPC   C1A69543   4.926  33.723   6.263
 5535POPC   D2A69544   4.913  33.965   6.609
 5535POPC   C3A69545   4.961  33.672   6.918
 5535POPC   C4A69546   4.929  33.612   7.345
 5535POPC   C1B69547   5.289  34.089   6.256
 5535POPC   C2B69548   5.406  33.819   6.586
 5535POPC   C3B69549   5.421  33.824   7.008
 5535POPC   C4B69550   5.175  34.059   7.285
 5536POPC   NC369551  17.060  22.557   5.223
 5536POPC   PO469552  16.686  22.076   5.409
 5536POPC   GL169553  16.664  22.090   5.860
 5536POPC   GL269554  16.531  22.423   5.857
 5536POPC   C1A69555  16.568  22.031   6.319
 5536POPC   D2A69556  16.584  21.800   6.741
 5536POPC   C3A69557  16.568  22.062   7.141
 5536POPC   C4A69558  16.447  22.049   7.590
 5536POPC   C1B69559  16.635  22.529   6.291
 5536POPC   C2B69560  16.725  22.378   6.728
 5536POPC   C3B69561  16.840  22.641   7.127
 5536POPC   C4B69562  17.000  22.751   7.563
 5537POPC   NC369563  28.830   7.868   5.095
 5537POPC   PO469564  29.180   7.454   5.496
 5537POPC   GL169565  29.046   7.429   5.876
 5537POPC   GL269566  29.385   7.567   5.954
 5537POPC   C1A69567  29.007   7.601   6.280
 5537POPC   D2A69568  29.042   7.833   6.610
 5537POPC   C3A69569  28.987   7.594   6.963
 5537POPC   C4A69570  29.253   7.604   7.287
 5537POPC   C1B69571  29.317   7.189   6.245
 5537POPC   C2B69572  29.061   7.168   6.637
 5537POPC   C3B69573  29.264   7.121   7.055
 5537POPC   C4B69574  29.261   7.160   7.510
 5538POPC   NC369575  33.136   6.155   5.340
 5538POPC   PO469576  32.699   5.730   5.348
 5538POPC   GL169577  32.892   5.908   5.717
 5538POPC   GL269578  33.261   5.804   5.724
 5538POPC   C1A69579  32.990   6.015   6.138
 5538POPC   D2A69580  32.885   5.764   6.496
 5538POPC   C3A69581  32.892   5.922   6.896
 5538POPC   C4A69582  32.669   5.973   7.257
 5538POPC   C1B69583  33.224   5.572   6.123
 5538POPC   C2B69584  33.135   5.312   6.484
 5538POPC   C3B69585  33.079   5.428   6.900
 5538POPC   C4B69586  33.113   5.625   7.289
 5539POPC   NC369587   5.728  28.802   5.545
 5539POPC   PO469588   5.875  29.504   5.238
 5539POPC   GL169589   5.974  29.293   5.644
 5539POPC   GL269590   6.324  29.375   5.639
 5539POPC   C1A69591   5.824  29.251   6.106
 5539POPC   D2A69592   5.686  29.265   6.567
 5539POPC   C3A69593   5.765  28.982   6.904
 5539POPC   C4A69594   5.671  29.038   7.337
 5539POPC   C1B69595   6.212  29.605   6.027
 5539POPC   C2B69596   6.162  29.493   6.445
 5539POPC   C3B69597   6.128  29.467   6.873
 5539POPC   C4B69598   6.244  29.773   7.179
 5540POPC   NC369599  44.226  15.541   5.575
 5540POPC   PO469600  44.705  15.884   5.276
 5540POPC   GL169601  44.595  15.931   5.729
 5540POPC   GL269602  44.851  16.047   5.926
 5540POPC   C1A69603  44.546  15.705   6.146
 5540POPC   D2A69604  44.422  15.721   6.590
 5540POPC   C3A69605  44.666  15.987   6.848
 5540POPC   C4A69606  44.624  15.997   7.279
 5540POPC   C1B69607  44.971  16.376   6.247
 5540POPC   C2B69608   0.008  16.401   6.711
 5540POPC   C3B69609  44.935  16.362   7.152
 5540POPC   C4B69610  44.961  16.281   7.630
 5541POPC   NC369611  17.633   4.803   5.510
 5541POPC   PO469612  17.492   4.183   5.174
 5541POPC   GL169613  17.668   4.194   5.660
 5541POPC   GL269614  17.730   4.508   5.887
 5541POPC   C1A69615  17.689   4.088   6.143
 5541POPC   D2A69616  17.641   4.309   6.559
 5541POPC   C3A69617  17.774   4.155   6.954
 5541POPC   C4A69618  17.433   4.144   7.202
 5541POPC   C1B69619  17.424   4.639   6.224
 5541POPC   C2B69620  17.317   4.770   6.651
 5541POPC   C3B69621  17.520   4.636   7.029
 5541POPC   C4B69622  17.629   4.852   7.386
 5542POPC   NC369623   5.301   0.220   5.425
 5542POPC   PO469624   5.041   0.891   5.394
 5542POPC   GL169625   4.945   0.611   5.760
 5542POPC   GL269626   5.283   0.535   5.818
 5542POPC   C1A69627   4.963   0.399   6.202
 5542POPC   D2A69628   4.976   0.209   6.603
 5542POPC   C3A69629   4.961   0.415   6.996
 5542POPC   C4A69630   5.032   0.331   7.424
 5542POPC   C1B69631   5.381   0.700   6.199
 5542POPC   C2B69632   5.161   0.698   6.586
 5542POPC   C3B69633   5.420   0.670   6.924
 5542POPC   C4B69634   5.756   0.809   7.199
 5543POPC   NC369635  23.758  23.949   5.424
 5543POPC   PO469636  24.017  23.407   5.383
 5543POPC   GL169637  23.841  23.424   5.819
 5543POPC   GL269638  23.592  23.681   5.826
 5543POPC   C1A69639  23.676  23.427   6.260
 5543POPC   D2A69640  23.794  23.616   6.654
 5543POPC   C3A69641  23.588  23.487   7.034
 5543POPC   C4A69642  23.921  23.617   7.251
 5543POPC   C1B69643  23.478  23.932   6.171
 5543POPC   C2B69644  23.393  23.925   6.566
 5543POPC   C3B69645  23.559  23.996   6.943
 5543POPC   C4B69646  23.336  23.914   7.271
 5544POPC   NC369647  24.078  13.758   5.427
 5544POPC   PO469648  23.411  13.804   5.301
 5544POPC   GL169649  23.627  13.666   5.748
 5544POPC   GL269650  23.951  13.767   5.898
 5544POPC   C1A69651  23.699  13.486   6.212
 5544POPC   D2A69652  23.446  13.407   6.587
 5544POPC   C3A69653  23.433  13.687   6.963
 5544POPC   C4A69654  23.784  13.647   7.223
 5544POPC   C1B69655  24.015  14.016   6.226
 5544POPC   C2B69656  24.196  13.938   6.571
 5544POPC   C3B69657  24.150  13.675   6.880
 5544POPC   C4B69658  24.207  13.920   7.260
 5545POPC   NC369659   6.967  30.258   5.348
 5545POPC   PO469660   7.587  29.955   5.271
 5545POPC   GL169661   7.587  29.852   5.726
 5545POPC   GL269662   7.499  30.165   5.856
 5545POPC   C1A69663   7.471  29.719   6.153
 5545POPC   D2A69664   7.579  29.806   6.567
 5545POPC   C3A69665   7.523  29.580   6.917
 5545POPC   C4A69666   7.447  29.784   7.273
 5545POPC   C1B69667   7.165  30.192   6.180
 5545POPC   C2B69668   7.075  29.908   6.505
 5545POPC   C3B69669   7.223  30.021   6.887
 5545POPC   C4B69670   7.106  30.196   7.285
 5546POPC   NC369671  14.288  10.375   5.125
 5546POPC   PO469672  14.391   9.695   5.370
 5546POPC   GL169673  14.416   9.604   5.790
 5546POPC   GL269674  14.451   9.959   5.856
 5546POPC   C1A69675  14.251   9.666   6.216
 5546POPC   D2A69676  14.438   9.922   6.556
 5546POPC   C3A69677  14.231   9.678   6.846
 5546POPC   C4A69678  14.312   9.423   7.203
 5546POPC   C1B69679  14.189  10.170   6.159
 5546POPC   C2B69680  13.969  10.107   6.565
 5546POPC   C3B69681  14.164  10.200   6.967
 5546POPC   C4B69682  14.409   9.977   7.242
 5547POPC   NC369683  33.229  29.011   5.391
 5547POPC   PO469684  32.704  29.461   5.397
 5547POPC   GL169685  32.899  29.212   5.741
 5547POPC   GL269686  33.262  29.302   5.812
 5547POPC   C1A69687  32.999  29.029   6.164
 5547POPC   D2A69688  33.118  29.105   6.602
 5547POPC   C3A69689  32.816  28.929   6.887
 5547POPC   C4A69690  32.960  28.960   7.294
 5547POPC   C1B69691  33.515  28.990   6.077
 5547POPC   C2B69692  33.518  28.796   6.492
 5547POPC   C3B69693  33.623  28.917   6.923
 5547POPC   C4B69694  33.459  28.863   7.346
 5548POPC   NC369695   5.861  38.687   5.325
 5548POPC   PO469696   6.249  38.187   5.158
 5548POPC   GL169697   6.047  38.302   5.599
 5548POPC   GL269698   6.277  38.547   5.759
 5548POPC   C1A69699   5.814  38.511   5.996
 5548POPC   D2A69700   5.793  38.429   6.480
 5548POPC   C3A69701   5.707  38.680   6.895
 5548POPC   C4A69702   5.479  38.544   7.245
 5548POPC   C1B69703   6.270  38.480   6.224
 5548POPC   C2B69704   6.354  38.574   6.644
 5548POPC   C3B69705   6.090  38.370   6.916
 5548POPC   C4B69706   6.173  38.010   7.159
 5549POPC   NC369707  35.084  30.773   5.598
 5549POPC   PO469708  35.604  30.794   5.207
 5549POPC   GL169709  35.597  30.554   5.622
 5549POPC   GL269710  35.326  30.350   5.760
 5549POPC   C1A69711  35.581  30.647   6.095
 5549POPC   D2A69712  35.418  30.933   6.444
 5549POPC   C3A69713  35.598  30.939   6.849
 5549POPC   C4A69714  35.621  30.644   7.178
 5549POPC   C1B69715  35.088  30.394   6.136
 5549POPC   C2B69716  35.005  30.606   6.527
 5549POPC   C3B69717  35.152  30.682   6.945
 5549POPC   C4B69718  35.197  30.356   7.242
 5550POPC   NC369719  25.626   2.170   5.433
 5550POPC   PO469720  24.971   1.971   5.499
 5550POPC   GL169721  25.322   1.857   5.776
 5550POPC   GL269722  25.379   1.515   5.758
 5550POPC   C1A69723  25.487   1.963   6.209
 5550POPC   D2A69724  25.574   2.176   6.609
 5550POPC   C3A69725  25.248   2.084   6.889
 5550POPC   C4A69726  25.355   2.067   7.301
 5550POPC   C1B69727  25.299   1.459   6.209
 5550POPC   C2B69728  25.325   1.593   6.661
 5550POPC   C3B69729  25.118   1.622   7.114
 5550POPC   C4B69730  24.923   1.735   7.557
 5551POPC   NC369731  13.001  42.647   5.303
 5551POPC   PO469732  12.629  42.044   5.338
 5551POPC   GL169733  12.837  42.242   5.660
 5551POPC   GL269734  12.672  42.540   5.714
 5551POPC   C1A69735  13.002  42.090   6.039
 5551POPC   D2A69736  12.900  42.211   6.466
 5551POPC   C3A69737  13.111  42.040   6.828
 5551POPC   C4A69738  12.954  42.139   7.273
 5551POPC   C1B69739  12.858  42.592   6.103
 5551POPC   C2B69740  12.889  42.723   6.536
 5551POPC   C3B69741  12.855  42.520   6.910
 5551POPC   C4B69742  12.978  42.689   7.297
 5552POPC   NC369743   8.331   8.754   5.663
 5552POPC   PO469744   8.188   8.101   5.485
 5552POPC   GL169745   8.130   8.045   5.931
 5552POPC   GL269746   8.072   8.404   5.955
 5552POPC   C1A69747   8.099   8.069   6.387
 5552POPC   D2A69748   7.884   8.383   6.609
 5552POPC   C3A69749   8.062   8.541   6.985
 5552POPC   C4A69750   8.413   8.388   7.239
 5552POPC   C1B69751   8.367   8.504   6.271
 5552POPC   C2B69752   8.440   8.362   6.678
 5552POPC   C3B69753   8.239   8.045   6.901
 5552POPC   C4B69754   8.132   7.958   7.326
 5553POPC   NC369755   3.846   3.007   5.559
 5553POPC   PO469756   3.507   3.443   5.345
 5553POPC   GL169757   3.524   3.632   5.729
 5553POPC   GL269758   3.808   3.455   5.812
 5553POPC   C1A69759   3.622   3.749   6.165
 5553POPC   D2A69760   3.431   3.634   6.550
 5553POPC   C3A69761   3.648   3.664   6.946
 5553POPC   C4A69762   3.391   3.689   7.279
 5553POPC   C1B69763   3.883   3.275   6.211
 5553POPC   C2B69764   3.915   3.343   6.645
 5553POPC   C3B69765   3.874   3.217   7.080
 5553POPC   C4B69766   3.620   3.306   7.470
 5554POPC   NC369767  23.150  38.056   5.458
 5554POPC   PO469768  23.189  37.359   5.536
 5554POPC   GL169769  22.904  37.513   5.864
 5554POPC   GL269770  22.764  37.847   5.754
 5554POPC   C1A69771  22.975  37.485   6.322
 5554POPC   D2A69772  23.246  37.358   6.690
 5554POPC   C3A69773  22.995  37.413   7.085
 5554POPC   C4A69774  23.022  37.394   7.549
 5554POPC   C1B69775  22.712  38.098   6.128
 5554POPC   C2B69776  22.794  37.935   6.513
 5554POPC   C3B69777  22.709  37.812   6.900
 5554POPC   C4B69778  22.905  37.916   7.257
 5555POPC   NC369779  10.808  21.990   5.349
 5555POPC   PO469780  10.387  22.441   5.637
 5555POPC   GL169781  10.515  22.285   5.961
 5555POPC   GL269782  10.168  22.213   6.038
 5555POPC   C1A69783  10.544  21.940   6.235
 5555POPC   D2A69784  10.595  22.134   6.582
 5555POPC   C3A69785  10.704  22.188   6.987
 5555POPC   C4A69786  10.700  22.079   7.384
 5555POPC   C1B69787  10.231  22.445   6.387
 5555POPC   C2B69788  10.193  22.361   6.813
 5555POPC   C3B69789  10.317  22.539   7.162
 5555POPC   C4B69790  10.074  22.655   7.477
 5556POPC   NC369791   9.329  21.889   5.580
 5556POPC   PO469792  10.066  22.031   5.397
 5556POPC   GL169793   9.796  21.989   5.801
 5556POPC   GL269794   9.571  22.238   5.865
 5556POPC   C1A69795   9.705  21.862   6.245
 5556POPC   D2A69796   9.792  22.021   6.696
 5556POPC   C3A69797   9.481  21.998   7.046
 5556POPC   C4A69798   9.654  22.027   7.465
 5556POPC   C1B69799   9.705  22.376   6.266
 5556POPC   C2B69800   9.716  22.537   6.695
 5556POPC   C3B69801   9.763  22.420   7.147
 5556POPC   C4B69802   9.600  22.526   7.597
 5557POPC   NC369803  34.341  17.865   5.242
 5557POPC   PO469804  34.695  17.335   5.350
 5557POPC   GL169805  34.741  17.478   5.829
 5557POPC   GL269806  34.938  17.788   5.809
 5557POPC   C1A69807  34.581  17.629   6.286
 5557POPC   D2A69808  34.527  17.755   6.752
 5557POPC   C3A69809  34.427  17.435   7.088
 5557POPC   C4A69810  34.210  17.046   7.280
 5557POPC   C1B69811  35.072  17.613   6.220
 5557POPC   C2B69812  34.930  17.419   6.619
 5557POPC   C3B69813  34.930  17.613   7.034
 5557POPC   C4B69814  34.729  17.715   7.398
 5558POPC   NC369815  18.593   5.152   5.467
 5558POPC   PO469816  18.069   4.753   5.301
 5558POPC   GL169817  18.147   4.893   5.725
 5558POPC   GL269818  18.163   5.260   5.694
 5558POPC   C1A69819  18.453   4.921   6.073
 5558POPC   D2A69820  18.424   4.770   6.472
 5558POPC   C3A69821  18.477   5.019   6.864
 5558POPC   C4A69822  18.456   5.301   7.247
 5558POPC   C1B69823  18.168   5.332   6.123
 5558POPC   C2B69824  18.146   5.192   6.513
 5558POPC   C3B69825  18.072   5.371   6.888
 5558POPC   C4B69826  18.034   5.729   7.159
 5559POPC   NC369827  25.296   6.267   5.398
 5559POPC   PO469828  25.158   5.634   5.454
 5559POPC   GL169829  25.337   5.901   5.764
 5559POPC   GL269830  25.074   6.153   5.858
 5559POPC   C1A69831  25.652   5.909   6.086
 5559POPC   D2A69832  25.571   5.729   6.482
 5559POPC   C3A69833  25.494   5.936   6.848
 5559POPC   C4A69834  25.497   5.919   7.287
 5559POPC   C1B69835  25.157   5.939   6.270
 5559POPC   C2B69836  25.072   5.683   6.662
 5559POPC   C3B69837  25.213   5.526   7.077
 5559POPC   C4B69838  25.019   5.746   7.450
 5560POPC   NC369839  22.981  13.655   5.287
 5560POPC   PO469840  22.968  14.266   5.403
 5560POPC   GL169841  23.145  13.923   5.735
 5560POPC   GL269842  22.872  13.663   5.776
 5560POPC   C1A69843  23.207  13.589   6.123
 5560POPC   D2A69844  22.975  13.591   6.512
 5560POPC   C3A69845  23.033  13.365   6.881
 5560POPC   C4A69846  23.073  13.556   7.301
 5560POPC   C1B69847  22.625  13.596   6.143
 5560POPC   C2B69848  22.536  13.341   6.513
 5560POPC   C3B69849  22.570  13.569   6.896
 5560POPC   C4B69850  22.541  13.438   7.314
 5561POPC   NC369851   5.480  13.726   5.423
 5561POPC   PO469852   4.808  13.746   5.463
 5561POPC   GL169853   4.992  13.769   5.879
 5561POPC   GL269854   5.331  13.660   5.923
 5561POPC   C1A69855   5.108  14.019   6.244
 5561POPC   D2A69856   5.282  14.027   6.697
 5561POPC   C3A69857   4.965  13.995   7.041
 5561POPC   C4A69858   4.889  13.907   7.496
 5561POPC   C1B69859   5.354  13.604   6.381
 5561POPC   C2B69860   5.370  13.513   6.810
 5561POPC   C3B69861   5.169  13.551   7.174
 5561POPC   C4B69862   5.389  13.805   7.472
 5562POPC   NC369863  19.494   0.613   5.507
 5562POPC   PO469864  18.757   0.807   5.477
 5562POPC   GL169865  19.030   0.629   5.780
 5562POPC   GL269866  19.038   0.279   5.780
 5562POPC   C1A69867  19.263   0.583   6.155
 5562POPC   D2A69868  19.329   0.750   6.554
 5562POPC   C3A69869  19.187   0.441   6.813
 5562POPC   C4A69870  19.081   0.551   7.189
 5562POPC   C1B69871  18.858   0.221   6.175
 5562POPC   C2B69872  18.729   0.395   6.562
 5562POPC   C3B69873  18.708   0.218   6.971
 5562POPC   C4B69874  18.956   0.074   7.302
 5563POPC   NC369875  39.520  18.338   5.598
 5563POPC   PO469876  39.249  17.797   5.281
 5563POPC   GL169877  39.234  17.853   5.741
 5563POPC   GL269878  39.037  18.156   5.791
 5563POPC   C1A69879  39.334  18.013   6.184
 5563POPC   D2A69880  39.534  18.323   6.508
 5563POPC   C3A69881  39.468  18.304   6.982
 5563POPC   C4A69882  39.691  18.300   7.414
 5563POPC   C1B69883  38.948  18.338   6.231
 5563POPC   C2B69884  39.017  18.357   6.683
 5563POPC   C3B69885  38.913  18.363   7.125
 5563POPC   C4B69886  38.745  18.092   7.452
 5564POPC   NC369887  38.728  22.183   5.152
 5564POPC   PO469888  38.266  21.827   5.564
 5564POPC   GL169889  38.167  22.126   5.845
 5564POPC   GL269890  38.356  22.436   5.785
 5564POPC   C1A69891  38.241  22.212   6.256
 5564POPC   D2A69892  38.001  22.163   6.597
 5564POPC   C3A69893  38.307  22.077   6.859
 5564POPC   C4A69894  38.369  22.253   7.206
 5564POPC   C1B69895  38.605  22.571   6.172
 5564POPC   C2B69896  38.699  22.384   6.617
 5564POPC   C3B69897  38.847  22.225   7.048
 5564POPC   C4B69898  38.747  22.213   7.520
 5565POPC   NC369899  27.077  15.564   5.593
 5565POPC   PO469900  26.731  16.088   5.398
 5565POPC   GL169901  26.660  16.084   5.823
 5565POPC   GL269902  26.998  15.996   5.885
 5565POPC   C1A69903  26.626  16.073   6.282
 5565POPC   D2A69904  26.594  15.890   6.702
 5565POPC   C3A69905  26.846  16.009   7.089
 5565POPC   C4A69906  26.728  15.988   7.546
 5565POPC   C1B69907  27.043  15.740   6.247
 5565POPC   C2B69908  27.101  15.912   6.634
 5565POPC   C3B69909  27.216  15.690   6.992
 5565POPC   C4B69910  27.304  15.878   7.374
 5566POPC   NC369911   5.415  43.594   5.194
 5566POPC   PO469912   5.180  43.139   5.630
 5566POPC   GL169913   5.142  43.056   5.994
 5566POPC   GL269914   5.282  42.699   5.903
 5566POPC   C1A69915   4.963  43.377   6.271
 5566POPC   D2A69916   4.730  43.444   6.665
 5566POPC   C3A69917   4.990  43.304   7.009
 5566POPC   C4A69918   5.193  43.225   7.406
 5566POPC   C1B69919   5.035  42.660   6.293
 5566POPC   C2B69920   5.011  42.864   6.711
 5566POPC   C3B69921   5.171  42.797   7.127
 5566POPC   C4B69922   5.410  42.742   7.525
 5567POPC   NC369923  41.988  40.156   5.409
 5567POPC   PO469924  42.584  39.982   5.367
 5567POPC   GL169925  42.324  40.007   5.786
 5567POPC   GL269926  42.116  40.324   5.882
 5567POPC   C1A69927  42.419  40.097   6.246
 5567POPC   D2A69928  42.431  40.328   6.655
 5567POPC   C3A69929  42.554  40.113   7.037
 5567POPC   C4A69930  42.422  39.714   7.287
 5567POPC   C1B69931  41.886  40.174   6.268
 5567POPC   C2B69932  41.794  40.067   6.716
 5567POPC   C3B69933  42.056  40.035   7.099
 5567POPC   C4B69934  42.010  39.876   7.547
 5568POPC   NC369935  27.208  38.712   5.336
 5568POPC   PO469936  27.795  38.588   5.651
 5568POPC   GL169937  27.381  38.603   5.825
 5568POPC   GL269938  27.208  38.251   5.800
 5568POPC   C1A69939  27.423  38.794   6.235
 5568POPC   D2A69940  27.573  38.801   6.673
 5568POPC   C3A69941  27.532  38.571   7.084
 5568POPC   C4A69942  27.800  38.571   7.480
 5568POPC   C1B69943  27.358  38.274   6.242
 5568POPC   C2B69944  27.467  38.245   6.691
 5568POPC   C3B69945  27.532  38.055   7.107
 5568POPC   C4B69946  27.435  38.184   7.523
 5569POPC   NC369947  28.428   5.385   5.247
 5569POPC   PO469948  28.155   4.825   5.583
 5569POPC   GL169949  28.434   5.035   5.839
 5569POPC   GL269950  28.492   5.384   5.752
 5569POPC   C1A69951  28.415   5.157   6.269
 5569POPC   D2A69952  28.315   5.272   6.683
 5569POPC   C3A69953  28.543   5.029   6.973
 5569POPC   C4A69954  28.337   4.963   7.333
 5569POPC   C1B69955  28.738   5.529   6.097
 5569POPC   C2B69956  28.770   5.448   6.561
 5569POPC   C3B69957  28.695   5.524   7.009
 5569POPC   C4B69958  28.702   5.304   7.416
 5570POPC   NC369959   7.507  26.899   5.351
 5570POPC   PO469960   7.177  26.353   5.129
 5570POPC   GL169961   7.493  26.457   5.600
 5570POPC   GL269962   7.640  26.370   5.930
 5570POPC   C1A69963   7.499  26.836   6.018
 5570POPC   D2A69964   7.615  26.906   6.503
 5570POPC   C3A69965   7.571  27.025   6.981
 5570POPC   C4A69966   7.812  27.273   7.310
 5570POPC   C1B69967   7.381  26.453   6.348
 5570POPC   C2B69968   7.084  26.730   6.604
 5570POPC   C3B69969   7.032  26.916   7.035
 5570POPC   C4B69970   7.102  26.710   7.454
 5571POPC   NC369971  21.845  41.137   5.348
 5571POPC   PO469972  21.296  40.692   5.347
 5571POPC   GL169973  21.551  40.711   5.731
 5571POPC   GL269974  21.555  41.070   5.764
 5571POPC   C1A69975  21.457  40.590   6.164
 5571POPC   D2A69976  21.523  40.640   6.621
 5571POPC   C3A69977  21.483  40.388   7.010
 5571POPC   C4A69978  21.746  40.392   7.385
 5571POPC   C1B69979  21.313  41.113   6.162
 5571POPC   C2B69980  21.154  40.990   6.578
 5571POPC   C3B69981  21.321  40.936   7.012
 5571POPC   C4B69982  21.323  41.109   7.444
 5572POPC   NC369983  28.242  16.592   5.294
 5572POPC   PO469984  28.584  17.211   5.305
 5572POPC   GL169985  28.457  16.959   5.674
 5572POPC   GL269986  28.158  16.739   5.796
 5572POPC   C1A69987  28.455  16.996   6.129
 5572POPC   D2A69988  28.448  16.775   6.526
 5572POPC   C3A69989  28.480  16.998   6.903
 5572POPC   C4A69990  28.421  16.992   7.343
 5572POPC   C1B69991  28.238  16.404   6.150
 5572POPC   C2B69992  28.178  16.329   6.622
 5572POPC   C3B69993  28.173  16.576   6.988
 5572POPC   C4B69994  28.540  16.528   7.228
 5573POPC   NC369995  23.773  44.294   5.653
 5573POPC   PO469996  23.658  44.982   5.484
 5573POPC   GL169997  23.722  44.774   5.848
 5573POPC   GL269998  24.056  44.706   5.830
 5573POPC   C1A69999  23.736  44.583   6.266
 5573POPC   D2A70000  23.761  44.786   6.674
 5573POPC   C3A70001  23.728  44.539   7.067
 5573POPC   C4A70002  23.329  44.558   7.244
 5573POPC   C1B70003  24.058  44.969   6.201
 5573POPC   C2B70004  24.228  44.935   6.610
 5573POPC   C3B70005  24.086  44.917   7.066
 5573POPC   C4B70006  24.088   0.181   7.394
 5574POPC   NC370007   8.346  16.991   5.421
 5574POPC   PO470008   8.771  16.321   5.348
 5574POPC   GL170009   8.487  16.490   5.733
 5574POPC   GL270010   8.524  16.833   5.886
 5574POPC   C1A70011   8.189  16.557   6.155
 5574POPC   D2A70012   7.899  16.482   6.560
 5574POPC   C3A70013   8.064  16.513   6.995
 5574POPC   C4A70014   8.415  16.418   7.259
 5574POPC   C1B70015   8.411  17.018   6.298
 5574POPC   C2B70016   8.265  16.896   6.719
 5574POPC   C3B70017   8.353  16.932   7.173
 5574POPC   C4B70018   8.237  17.143   7.573
 5575POPC   NC370019   4.282  21.521   5.420
 5575POPC   PO470020   4.600  20.972   5.387
 5575POPC   GL170021   4.528  21.202   5.768
 5575POPC   GL270022   4.179  21.236   5.861
 5575POPC   C1A70023   4.542  21.402   6.171
 5575POPC   D2A70024   4.636  21.640   6.518
 5575POPC   C3A70025   4.568  21.416   6.864
 5575POPC   C4A70026   4.391  21.496   7.196
 5575POPC   C1B70027   3.983  21.329   6.288
 5575POPC   C2B70028   4.047  21.436   6.770
 5575POPC   C3B70029   3.932  21.277   7.204
 5575POPC   C4B70030   4.247  21.190   7.572
 5576POPC   NC370031  32.219  39.353   5.306
 5576POPC   PO470032  31.855  38.830   5.557
 5576POPC   GL170033  32.067  38.910   5.913
 5576POPC   GL270034  32.271  39.184   5.842
 5576POPC   C1A70035  32.122  38.764   6.340
 5576POPC   D2A70036  32.329  39.037   6.646
 5576POPC   C3A70037  32.130  39.019   7.047
 5576POPC   C4A70038  32.375  38.839   7.352
 5576POPC   C1B70039  32.432  39.388   6.251
 5576POPC   C2B70040  32.295  39.585   6.658
 5576POPC   C3B70041  32.130  39.537   7.101
 5576POPC   C4B70042  32.163  39.787   7.485
 5577POPC   NC370043   1.075  24.629   5.422
 5577POPC   PO470044   0.694  24.002   5.561
 5577POPC   GL170045   1.012  24.243   5.816
 5577POPC   GL270046   1.361  24.223   5.726
 5577POPC   C1A70047   1.250  24.582   6.092
 5577POPC   D2A70048   1.236  24.850   6.474
 5577POPC   C3A70049   1.292  24.688   6.897
 5577POPC   C4A70050   1.082  24.671   7.294
 5577POPC   C1B70051   1.651  24.250   6.083
 5577POPC   C2B70052   1.510  24.317   6.498
 5577POPC   C3B70053   1.647  24.319   6.920
 5577POPC   C4B70054   1.355  24.233   7.277
 5578POPC   NC370055   7.667  31.924   5.275
 5578POPC   PO470056   7.454  32.569   5.335
 5578POPC   GL170057   7.621  32.339   5.674
 5578POPC   GL270058   7.453  32.060   5.718
 5578POPC   C1A70059   7.761  32.329   6.103
 5578POPC   D2A70060   7.870  32.534   6.503
 5578POPC   C3A70061   7.518  32.530   6.762
 5578POPC   C4A70062   7.533  32.249   7.102
 5578POPC   C1B70063   7.237  32.297   6.050
 5578POPC   C2B70064   7.202  32.190   6.498
 5578POPC   C3B70065   7.031  32.257   6.908
 5578POPC   C4B70066   7.112  32.432   7.311
 5579POPC   NC370067  11.726  35.030   5.396
 5579POPC   PO470068  11.855  35.693   5.390
 5579POPC   GL170069  12.067  35.505   5.785
 5579POPC   GL270070  11.952  35.163   5.832
 5579POPC   C1A70071  11.998  35.483   6.269
 5579POPC   D2A70072  11.776  35.631   6.662
 5579POPC   C3A70073  11.919  35.452   7.072
 5579POPC   C4A70074  12.241  35.120   7.112
 5579POPC   C1B70075  11.821  35.002   6.207
 5579POPC   C2B70076  11.935  35.051   6.624
 5579POPC   C3B70077  11.806  34.897   6.998
 5579POPC   C4B70078  11.610  35.077   7.304
 5580POPC   NC370079  33.039  44.629   5.412
 5580POPC   PO470080  33.079   0.220   5.129
 5580POPC   GL170081  32.869  44.999   5.676
 5580POPC   GL270082  32.555  44.880   5.859
 5580POPC   C1A70083  33.010  44.831   6.110
 5580POPC   D2A70084  32.904  44.692   6.555
 5580POPC   C3A70085  33.145  44.861   6.920
 5580POPC   C4A70086  33.144  44.907   7.364
 5580POPC   C1B70087  32.677  44.439   6.053
 5580POPC   C2B70088  32.640  44.239   6.478
 5580POPC   C3B70089  32.792  44.248   6.924
 5580POPC   C4B70090  32.763  44.605   7.232
 5581POPC   NC370091  16.091  13.356   5.293
 5581POPC   PO470092  16.079  12.701   5.397
 5581POPC   GL170093  15.957  12.966   5.739
 5581POPC   GL270094  16.117  12.692   5.917
 5581POPC   C1A70095  15.865  13.117   6.173
 5581POPC   D2A70096  15.701  13.012   6.607
 5581POPC   C3A70097  15.868  13.152   7.025
 5581POPC   C4A70098  15.738  13.271   7.471
 5581POPC   C1B70099  15.939  12.600   6.303
 5581POPC   C2B70100  15.866  12.541   6.710
 5581POPC   C3B70101  15.958  12.623   7.118
 5581POPC   C4B70102  16.233  12.563   7.460
 5582POPC   NC370103  34.163   9.763   5.222
 5582POPC   PO470104  34.743   9.366   5.318
 5582POPC   GL170105  34.667   9.472   5.793
 5582POPC   GL270106  34.887   9.743   5.901
 5582POPC   C1A70107  34.577   9.588   6.266
 5582POPC   D2A70108  34.202   9.838   6.466
 5582POPC   C3A70109  34.234   9.990   6.900
 5582POPC   C4A70110  34.541   9.859   7.238
 5582POPC   C1B70111  34.930   9.994   6.263
 5582POPC   C2B70112  34.712   9.928   6.659
 5582POPC   C3B70113  34.963   9.818   6.965
 5582POPC   C4B70114  35.063   9.692   7.348
 5583POPC   NC370115  33.017   1.513   5.361
 5583POPC   PO470116  33.101   0.846   5.468
 5583POPC   GL170117  33.034   1.140   5.828
 5583POPC   GL270118  32.837   1.446   5.844
 5583POPC   C1A70119  32.927   1.107   6.256
 5583POPC   D2A70120  32.992   1.280   6.650
 5583POPC   C3A70121  32.829   1.035   6.982
 5583POPC   C4A70122  33.121   0.900   7.285
 5583POPC   C1B70123  33.017   1.625   6.242
 5583POPC   C2B70124  33.032   1.787   6.703
 5583POPC   C3B70125  32.964   1.505   7.119
 5583POPC   C4B70126  33.036   1.545   7.569
 5584POPC   NC370127   5.495   4.557   5.346
 5584POPC   PO470128   6.043   4.157   5.193
 5584POPC   GL170129   5.987   4.391   5.631
 5584POPC   GL270130   5.679   4.285   5.779
 5584POPC   C1A70131   5.964   4.512   6.129
 5584POPC   D2A70132   5.930   4.282   6.537
 5584POPC   C3A70133   5.855   4.423   6.950
 5584POPC   C4A70134   6.138   4.329   7.294
 5584POPC   C1B70135   5.510   4.259   6.218
 5584POPC   C2B70136   5.373   4.193   6.643
 5584POPC   C3B70137   5.648   3.949   6.909
 5584POPC   C4B70138   5.760   4.036   7.339
 5585POPC   NC370139  33.629  20.638   5.425
 5585POPC   PO470140  34.240  20.523   5.419
 5585POPC   GL170141  34.043  20.610   5.791
 5585POPC   GL270142  33.866  20.317   5.739
 5585POPC   C1A70143  33.961  20.748   6.225
 5585POPC   D2A70144  33.870  20.536   6.611
 5585POPC   C3A70145  33.825  20.674   7.021
 5585POPC   C4A70146  33.850  21.052   7.191
 5585POPC   C1B70147  33.794  20.242   6.173
 5585POPC   C2B70148  33.832  20.036   6.576
 5585POPC   C3B70149  33.773  20.164   6.979
 5585POPC   C4B70150  33.451  20.341   7.199
 5586POPC   NC370151  21.820   1.711   5.542
 5586POPC   PO470152  22.322   2.210   5.455
 5586POPC   GL170153  22.149   2.050   5.805
 5586POPC   GL270154  21.826   2.140   5.806
 5586POPC   C1A70155  22.302   1.952   6.215
 5586POPC   D2A70156  22.346   2.153   6.586
 5586POPC   C3A70157  22.350   1.855   6.893
 5586POPC   C4A70158  22.493   2.138   7.186
 5586POPC   C1B70159  21.799   1.885   6.173
 5586POPC   C2B70160  21.818   2.057   6.579
 5586POPC   C3B70161  21.964   2.184   6.998
 5586POPC   C4B70162  22.014   1.906   7.324
 5587POPC   NC370163  12.901  32.412   5.376
 5587POPC   PO470164  12.391  32.092   5.255
 5587POPC   GL170165  12.600  32.076   5.715
 5587POPC   GL270166  12.997  32.073   5.749
 5587POPC   C1A70167  12.711  32.051   6.194
 5587POPC   D2A70168  12.856  31.961   6.644
 5587POPC   C3A70169  12.658  32.177   7.028
 5587POPC   C4A70170  12.779  32.316   7.476
 5587POPC   C1B70171  13.042  32.435   6.051
 5587POPC   C2B70172  13.018  32.451   6.504
 5587POPC   C3B70173  13.145  32.304   6.914
 5587POPC   C4B70174  13.258  32.216   7.316
 5588POPC   NC370175   4.210  11.770   5.673
 5588POPC   PO470176   4.634  11.386   5.639
 5588POPC   GL170177   4.286  11.276   5.858
 5588POPC   GL270178   3.967  11.130   5.784
 5588POPC   C1A70179   4.252  11.416   6.255
 5588POPC   D2A70180   4.143  11.650   6.603
 5588POPC   C3A70181   4.281  11.399   6.935
 5588POPC   C4A70182   4.200  11.238   7.330
 5588POPC   C1B70183   3.999  10.943   6.161
 5588POPC   C2B70184   4.058  11.083   6.582
 5588POPC   C3B70185   3.858  11.079   6.966
 5588POPC   C4B70186   3.850  10.806   7.324
 5589POPC   NC370187   2.921  10.718   5.697
 5589POPC   PO470188   2.365  10.326   5.672
 5589POPC   GL170189   2.406  10.664   5.972
 5589POPC   GL270190   2.680  10.926   6.093
 5589POPC   C1A70191   2.414  10.578   6.388
 5589POPC   D2A70192   2.665  10.350   6.660
 5589POPC   C3A70193   2.708  10.539   7.046
 5589POPC   C4A70194   2.601  10.713   7.440
 5589POPC   C1B70195   3.100  10.850   6.301
 5589POPC   C2B70196   3.074  10.719   6.718
 5589POPC   C3B70197   2.962  10.988   7.078
 5589POPC   C4B70198   2.979  11.003   7.553
 5590POPC   NC370199  44.753  22.225   5.329
 5590POPC   PO470200  44.354  21.701   5.376
 5590POPC   GL170201  44.465  22.004   5.747
 5590POPC   GL270202  44.855  22.025   5.805
 5590POPC   C1A70203  44.463  22.170   6.203
 5590POPC   D2A70204  44.329  22.114   6.661
 5590POPC   C3A70205  44.601  22.258   7.012
 5590POPC   C4A70206   0.065  22.189   7.103
 5590POPC   C1B70207   0.017  22.087   6.238
 5590POPC   C2B70208  44.876  22.295   6.579
 5590POPC   C3B70209  44.824  21.887   6.750
 5590POPC   C4B70210   0.009  21.645   7.076
 5591POPC   NC370211   4.830  27.075   4.972
 5591POPC   PO470212   4.740  26.682   5.532
 5591POPC   GL170213   5.081  26.828   5.813
 5591POPC   GL270214   5.417  26.924   5.700
 5591POPC   C1A70215   5.269  26.687   6.208
 5591POPC   D2A70216   5.239  26.472   6.600
 5591POPC   C3A70217   5.120  26.664   6.963
 5591POPC   C4A70218   5.070  26.904   7.306
 5591POPC   C1B70219   5.484  27.135   6.123
 5591POPC   C2B70220   5.342  27.069   6.581
 5591POPC   C3B70221   5.321  27.268   7.004
 5591POPC   C4B70222   5.362  27.296   7.466
 5592POPC   NC370223  21.618  21.219   5.304
 5592POPC   PO470224  21.004  21.551   5.365
 5592POPC   GL170225  21.244  21.614   5.772
 5592POPC   GL270226  21.485  21.342   5.804
 5592POPC   C1A70227  21.159  21.483   6.212
 5592POPC   D2A70228  20.985  21.374   6.605
 5592POPC   C3A70229  21.148  21.468   6.995
 5592POPC   C4A70230  21.340  21.133   7.180
 5592POPC   C1B70231  21.665  21.451   6.209
 5592POPC   C2B70232  21.556  21.393   6.638
 5592POPC   C3B70233  21.630  21.648   7.010
 5592POPC   C4B70234  21.710  21.411   7.354
 5593POPC   NC370235  32.079  23.842   5.359
 5593POPC   PO470236  32.530  23.359   5.268
 5593POPC   GL170237  32.418  23.563   5.657
 5593POPC   GL270238  32.076  23.470   5.764
 5593POPC   C1A70239  32.432  23.538   6.112
 5593POPC   D2A70240  32.089  23.572   6.461
 5593POPC   C3A70241  32.196  23.557   6.916
 5593POPC   C4A70242  32.434  23.524   7.301
 5593POPC   C1B70243  32.077  23.896   6.040
 5593POPC   C2B70244  32.176  24.086   6.462
 5593POPC   C3B70245  32.080  24.050   6.895
 5593POPC   C4B70246  32.159  23.947   7.308
 5594POPC   NC370247  29.014  19.068   5.356
 5594POPC   PO470248  29.054  18.474   5.607
 5594POPC   GL170249  29.090  18.827   5.805
 5594POPC   GL270250  29.283  19.144   5.826
 5594POPC   C1A70251  28.873  18.986   6.126
 5594POPC   D2A70252  29.008  19.223   6.457
 5594POPC   C3A70253  29.011  19.074   6.869
 5594POPC   C4A70254  29.088  19.004   7.282
 5594POPC   C1B70255  29.479  19.325   6.245
 5594POPC   C2B70256  29.394  19.457   6.696
 5594POPC   C3B70257  29.495  19.246   7.074
 5594POPC   C4B70258  29.402  19.312   7.512
 5595POPC   NC370259  32.457  11.186   5.454
 5595POPC   PO470260  31.769  11.372   5.501
 5595POPC   GL170261  32.156  11.438   5.800
 5595POPC   GL270262  32.186  11.095   5.898
 5595POPC   C1A70263  32.319  11.409   6.249
 5595POPC   D2A70264  32.111  11.079   6.508
 5595POPC   C3A70265  32.038  11.175   6.951
 5595POPC   C4A70266  32.397  11.376   7.141
 5595POPC   C1B70267  32.537  10.941   6.165
 5595POPC   C2B70268  32.668  11.035   6.604
 5595POPC   C3B70269  32.548  10.908   7.021
 5595POPC   C4B70270  32.277  10.839   7.353
 5596POPC   NC370271  42.530  13.334   5.375
 5596POPC   PO470272  42.600  14.078   5.435
 5596POPC   GL170273  42.603  13.842   5.825
 5596POPC   GL270274  42.330  13.631   5.742
 5596POPC   C1A70275  42.350  13.854   6.223
 5596POPC   D2A70276  42.112  13.916   6.622
 5596POPC   C3A70277  42.407  13.802   6.953
 5596POPC   C4A70278  42.540  13.701   7.375
 5596POPC   C1B70279  42.450  13.367   6.067
 5596POPC   C2B70280  42.386  13.392   6.498
 5596POPC   C3B70281  42.064  13.395   6.770
 5596POPC   C4B70282  42.195  13.376   7.171
 5597POPC   NC370283  16.301  44.597   5.441
 5597POPC   PO470284  15.898   0.089   5.331
 5597POPC   GL170285  15.879  44.770   5.664
 5597POPC   GL270286  16.184  44.968   5.760
 5597POPC   C1A70287  15.840  44.525   6.091
 5597POPC   D2A70288  15.910  44.330   6.545
 5597POPC   C3A70289  15.766  44.445   6.976
 5597POPC   C4A70290  15.983  44.669   7.295
 5597POPC   C1B70291  16.369   0.162   6.090
 5597POPC   C2B70292  16.280   0.110   6.509
 5597POPC   C3B70293  16.225  44.913   6.891
 5597POPC   C4B70294  16.384   0.092   7.243
 5598POPC   NC370295   3.191   3.779   5.316
 5598POPC   PO470296   2.894   3.102   5.367
 5598POPC   GL170297   3.033   3.444   5.664
 5598POPC   GL270298   2.814   3.713   5.679
 5598POPC   C1A70299   3.110   3.675   6.068
 5598POPC   D2A70300   2.983   3.413   6.392
 5598POPC   C3A70301   2.952   3.622   6.769
 5598POPC   C4A70302   2.956   3.475   7.146
 5598POPC   C1B70303   2.605   3.514   6.052
 5598POPC   C2B70304   2.475   3.478   6.536
 5598POPC   C3B70305   2.487   3.430   6.972
 5598POPC   C4B70306   2.546   3.776   7.274
 5599POPC   NC370307   6.799  13.878   5.243
 5599POPC   PO470308   6.211  14.208   5.286
 5599POPC   GL170309   6.457  14.377   5.634
 5599POPC   GL270310   6.555  14.083   5.714
 5599POPC   C1A70311   6.443  14.458   6.095
 5599POPC   D2A70312   6.690  14.519   6.492
 5599POPC   C3A70313   6.548  14.563   6.959
 5599POPC   C4A70314   6.887  14.799   7.217
 5599POPC   C1B70315   6.779  14.057   6.090
 5599POPC   C2B70316   7.046  14.114   6.440
 5599POPC   C3B70317   6.879  14.196   6.852
 5599POPC   C4B70318   6.871  14.300   7.299
 5600POPC   NC370319  23.745  18.606   5.417
 5600POPC   PO470320  23.412  19.112   5.102
 5600POPC   GL170321  23.493  19.254   5.567
 5600POPC   GL270322  23.825  19.108   5.685
 5600POPC   C1A70323  23.505  19.318   6.034
 5600POPC   D2A70324  23.665  19.247   6.477
 5600POPC   C3A70325  23.433  19.211   6.816
 5600POPC   C4A70326  23.500  19.211   7.258
 5600POPC   C1B70327  23.850  18.940   6.120
 5600POPC   C2B70328  23.694  18.734   6.537
 5600POPC   C3B70329  23.514  18.728   6.952
 5600POPC   C4B70330  23.610  18.744   7.381
 5601POPC   NC370331   2.728  21.711   5.305
 5601POPC   PO470332   3.193  21.388   5.609
 5601POPC   GL170333   2.842  21.258   5.849
 5601POPC   GL270334   2.635  21.537   5.792
 5601POPC   C1A70335   2.763  21.310   6.296
 5601POPC   D2A70336   3.016  21.393   6.667
 5601POPC   C3A70337   2.842  21.188   7.025
 5601POPC   C4A70338   2.451  20.952   7.121
 5601POPC   C1B70339   2.770  21.807   6.148
 5601POPC   C2B70340   2.736  21.846   6.608
 5601POPC   C3B70341   2.794  21.717   7.051
 5601POPC   C4B70342   2.791  21.602   7.516
 5602POPC   NC370343  14.203  17.892   5.460
 5602POPC   PO470344  14.408  17.196   5.382
 5602POPC   GL170345  14.538  17.137   5.794
 5602POPC   GL270346  14.292  17.342   5.975
 5602POPC   C1A70347  14.641  17.027   6.233
 5602POPC   D2A70348  14.637  17.314   6.591
 5602POPC   C3A70349  14.447  17.223   6.986
 5602POPC   C4A70350  14.193  17.470   7.260
 5602POPC   C1B70351  14.145  17.700   6.246
 5602POPC   C2B70352  14.323  17.836   6.660
 5602POPC   C3B70353  14.627  17.699   6.981
 5602POPC   C4B70354  14.623  17.670   7.434
 5603POPC   NC370355   2.874  12.975   5.217
 5603POPC   PO470356   2.461  13.427   5.424
 5603POPC   GL170357   2.606  13.068   5.782
 5603POPC   GL270358   2.946  12.948   5.736
 5603POPC   C1A70359   2.495  12.775   6.144
 5603POPC   D2A70360   2.322  12.675   6.561
 5603POPC   C3A70361   2.611  12.705   6.915
 5603POPC   C4A70362   2.663  12.904   7.295
 5603POPC   C1B70363   2.948  12.978   6.199
 5603POPC   C2B70364   3.007  12.952   6.659
 5603POPC   C3B70365   3.125  12.960   7.103
 5603POPC   C4B70366   3.090  12.852   7.573
 5604POPC   NC370367   0.233  24.121   5.601
 5604POPC   PO470368   0.629  24.574   5.250
 5604POPC   GL170369   0.560  24.510   5.742
 5604POPC   GL270370   0.506  24.226   5.994
 5604POPC   C1A70371   0.335  24.687   6.142
 5604POPC   D2A70372   0.332  24.668   6.624
 5604POPC   C3A70373   0.155  24.472   7.034
 5604POPC   C4A70374   0.108  24.583   7.500
 5604POPC   C1B70375   0.785  24.458   6.242
 5604POPC   C2B70376   0.831  24.615   6.652
 5604POPC   C3B70377   0.654  24.565   7.053
 5604POPC   C4B70378   0.800  24.238   7.344
 5605POPC   NC370379  25.907  15.002   5.673
 5605POPC   PO470380  26.454  15.415   5.484
 5605POPC   GL170381  26.286  15.243   5.907
 5605POPC   GL270382  25.926  15.299   6.096
 5605POPC   C1A70383  26.263  14.945   6.241
 5605POPC   D2A70384  26.090  14.876   6.645
 5605POPC   C3A70385  26.303  15.031   7.005
 5605POPC   C4A70386  26.246  15.404   7.204
 5605POPC   C1B70387  25.694  14.944   6.272
 5605POPC   C2B70388  25.604  14.747   6.619
 5605POPC   C3B70389  25.639  15.024   6.951
 5605POPC   C4B70390  25.869  15.073   7.313
 5606POPC   NC370391   1.025  20.841   5.408
 5606POPC   PO470392   1.537  20.355   5.424
 5606POPC   GL170393   1.326  20.479   5.783
 5606POPC   GL270394   1.323  20.804   5.814
 5606POPC   C1A70395   1.089  20.523   6.154
 5606POPC   D2A70396   1.315  20.548   6.505
 5606POPC   C3A70397   1.220  20.402   6.880
 5606POPC   C4A70398   1.283  20.530   7.276
 5606POPC   C1B70399   1.359  21.083   6.156
 5606POPC   C2B70400   1.232  21.087   6.554
 5606POPC   C3B70401   1.323  20.933   6.934
 5606POPC   C4B70402   1.033  20.966   7.245
 5607POPC   NC370403  41.954  25.713   5.345
 5607POPC   PO470404  42.585  25.385   5.424
 5607POPC   GL170405  42.244  25.333   5.764
 5607POPC   GL270406  42.027  25.017   5.816
 5607POPC   C1A70407  42.363  25.467   6.207
 5607POPC   D2A70408  42.499  25.653   6.603
 5607POPC   C3A70409  42.408  25.444   6.996
 5607POPC   C4A70410  42.468  25.182   7.347
 5607POPC   C1B70411  42.256  24.975   6.190
 5607POPC   C2B70412  42.397  25.094   6.595
 5607POPC   C3B70413  42.424  24.876   6.964
 5607POPC   C4B70414  42.204  24.715   7.339
 5608POPC   NC370415  15.638  26.205   5.600
 5608POPC   PO470416  16.150  26.761   5.474
 5608POPC   GL170417  16.213  26.737   5.893
 5608POPC   GL270418  15.852  26.709   5.873
 5608POPC   C1A70419  16.100  26.782   6.337
 5608POPC   D2A70420  15.810  27.084   6.510
 5608POPC   C3A70421  15.801  27.084   6.963
 5608POPC   C4A70422  15.934  26.862   7.336
 5608POPC   C1B70423  15.592  26.688   6.199
 5608POPC   C2B70424  15.680  26.538   6.590
 5608POPC   C3B70425  15.486  26.663   6.928
 5608POPC   C4B70426  15.441  26.879   7.302
 5609POPC   NC370427  36.238   5.267   5.523
 5609POPC   PO470428  35.997   4.591   5.421
 5609POPC   GL170429  36.056   4.857   5.776
 5609POPC   GL270430  35.766   5.101   5.724
 5609POPC   C1A70431  36.229   5.070   6.164
 5609POPC   D2A70432  36.305   5.238   6.577
 5609POPC   C3A70433  36.181   5.065   6.953
 5609POPC   C4A70434  35.913   4.813   7.207
 5609POPC   C1B70435  35.703   4.991   6.136
 5609POPC   C2B70436  35.832   5.084   6.523
 5609POPC   C3B70437  35.669   5.122   6.899
 5609POPC   C4B70438  35.781   5.346   7.235
 5610POPC   NC370439  41.642  14.820   5.519
 5610POPC   PO470440  41.592  14.123   5.412
 5610POPC   GL170441  41.770  14.277   5.758
 5610POPC   GL270442  41.471  14.438   5.841
 5610POPC   C1A70443  41.971  14.198   6.159
 5610POPC   D2A70444  41.889  14.434   6.528
 5610POPC   C3A70445  41.803  14.276   6.931
 5610POPC   C4A70446  41.448  14.405   7.148
 5610POPC   C1B70447  41.358  14.748   6.135
 5610POPC   C2B70448  41.441  14.749   6.577
 5610POPC   C3B70449  41.312  14.898   6.964
 5610POPC   C4B70450  41.186  14.772   7.381
 5611POPC   NC370451  39.601  19.873   5.332
 5611POPC   PO470452  39.003  20.143   5.350
 5611POPC   GL170453  39.085  19.850   5.722
 5611POPC   GL270454  39.441  19.780   5.797
 5611POPC   C1A70455  39.160  19.861   6.209
 5611POPC   D2A70456  39.372  19.903   6.630
 5611POPC   C3A70457  39.128  19.844   7.049
 5611POPC   C4A70458  38.971  20.084   7.442
 5611POPC   C1B70459  39.709  19.750   6.160
 5611POPC   C2B70460  39.840  19.668   6.566
 5611POPC   C3B70461  39.703  19.750   6.994
 5611POPC   C4B70462  39.510  19.602   7.342
 5612POPC   NC370463  35.501  19.924   5.245
 5612POPC   PO470464  34.897  19.771   5.451
 5612POPC   GL170465  35.165  19.804   5.818
 5612POPC   GL270466  35.529  19.840   5.758
 5612POPC   C1A70467  35.295  19.927   6.251
 5612POPC   D2A70468  35.342  19.822   6.710
 5612POPC   C3A70469  35.206  20.118   7.060
 5612POPC   C4A70470  35.464  20.161   7.462
 5612POPC   C1B70471  35.810  19.783   6.119
 5612POPC   C2B70472  35.790  19.610   6.523
 5612POPC   C3B70473  35.774  19.638   6.976
 5612POPC   C4B70474  35.413  19.672   7.230
 5613POPC   NC370475  31.837  28.328   5.052
 5613POPC   PO470476  31.205  28.269   5.403
 5613POPC   GL170477  31.306  28.130   5.875
 5613POPC   GL270478  31.658  28.254   5.914
 5613POPC   C1A70479  31.378  28.131   6.338
 5613POPC   D2A70480  31.243  28.378   6.682
 5613POPC   C3A70481  31.130  28.104   7.032
 5613POPC   C4A70482  31.405  27.982   7.374
 5613POPC   C1B70483  31.895  28.188   6.290
 5613POPC   C2B70484  31.856  28.424   6.656
 5613POPC   C3B70485  31.712  28.426   7.072
 5613POPC   C4B70486  31.909  28.102   7.295
 5614POPC   NC370487   0.798   1.291   5.288
 5614POPC   PO470488   1.454   1.201   5.193
 5614POPC   GL170489   1.361   1.232   5.659
 5614POPC   GL270490   1.010   1.177   5.742
 5614POPC   C1A70491   1.392   1.101   6.112
 5614POPC   D2A70492   1.489   1.342   6.494
 5614POPC   C3A70493   1.227   1.342   6.847
 5614POPC   C4A70494   1.440   1.383   7.208
 5614POPC   C1B70495   0.875   1.006   6.131
 5614POPC   C2B70496   1.036   0.970   6.531
 5614POPC   C3B70497   0.849   1.018   6.911
 5614POPC   C4B70498   1.044   1.080   7.301
 5615POPC   NC370499   4.850  24.600   5.172
 5615POPC   PO470500   4.260  24.442   5.566
 5615POPC   GL170501   4.232  24.299   5.930
 5615POPC   GL270502   4.550  24.118   5.855
 5615POPC   C1A70503   4.213  24.507   6.344
 5615POPC   D2A70504   4.520  24.533   6.692
 5615POPC   C3A70505   4.268  24.589   7.053
 5615POPC   C4A70506   3.845  24.777   7.023
 5615POPC   C1B70507   4.643  24.236   6.256
 5615POPC   C2B70508   4.705  24.060   6.639
 5615POPC   C3B70509   4.989  24.286   6.900
 5615POPC   C4B70510   4.796  24.627   7.119
 5616POPC   NC370511   1.806  31.844   5.603
 5616POPC   PO470512   1.936  32.464   5.366
 5616POPC   GL170513   1.844  32.328   5.788
 5616POPC   GL270514   1.492  32.218   5.804
 5616POPC   C1A70515   2.049  32.254   6.203
 5616POPC   D2A70516   2.269  32.442   6.559
 5616POPC   C3A70517   2.134  32.352   6.970
 5616POPC   C4A70518   1.737  32.284   7.136
 5616POPC   C1B70519   1.535  32.226   6.231
 5616POPC   C2B70520   1.735  32.142   6.630
 5616POPC   C3B70521   1.603  31.815   6.936
 5616POPC   C4B70522   1.641  31.789   7.382
 5617POPC   NC370523  40.657  13.313   5.199
 5617POPC   PO470524  40.483  12.757   5.365
 5617POPC   GL170525  40.758  12.663   5.757
 5617POPC   GL270526  41.132  12.563   5.704
 5617POPC   C1A70527  40.994  12.951   6.064
 5617POPC   D2A70528  41.101  13.119   6.485
 5617POPC   C3A70529  40.736  13.240   6.769
 5617POPC   C4A70530  40.600  13.071   7.174
 5617POPC   C1B70531  41.097  12.467   6.155
 5617POPC   C2B70532  40.883  12.632   6.472
 5617POPC   C3B70533  40.963  12.788   6.864
 5617POPC   C4B70534  40.936  12.665   7.237
 5618POPC   NC370535   7.738  30.395   5.448
 5618POPC   PO470536   7.099  30.714   5.351
 5618POPC   GL170537   7.382  30.702   5.734
 5618POPC   GL270538   7.436  31.043   5.872
 5618POPC   C1A70539   7.603  30.560   6.139
 5618POPC   D2A70540   7.516  30.317   6.542
 5618POPC   C3A70541   7.377  30.528   6.948
 5618POPC   C4A70542   7.653  30.527   7.321
 5618POPC   C1B70543   7.465  31.018   6.339
 5618POPC   C2B70544   7.379  31.078   6.782
 5618POPC   C3B70545   7.450  30.981   7.211
 5618POPC   C4B70546   7.205  31.138   7.563
 5619POPC   NC370547  35.730  41.773   5.551
 5619POPC   PO470548  35.159  41.450   5.565
 5619POPC   GL170549  35.455  41.474   5.899
 5619POPC   GL270550  35.532  41.821   6.023
 5619POPC   C1A70551  35.349  41.445   6.320
 5619POPC   D2A70552  35.279  41.194   6.642
 5619POPC   C3A70553  35.493  41.470   6.857
 5619POPC   C4A70554  35.570  41.523   7.237
 5619POPC   C1B70555  35.068  41.835   6.147
 5619POPC   C2B70556  34.864  41.907   6.548
 5619POPC   C3B70557  35.033  42.047   6.928
 5619POPC   C4B70558  35.148  41.806   7.276
 5620POPC   NC370559  23.153  15.490   5.431
 5620POPC   PO470560  22.479  15.138   5.434
 5620POPC   GL170561  22.814  15.082   5.751
 5620POPC   GL270562  22.876  15.418   5.880
 5620POPC   C1A70563  22.970  15.043   6.202
 5620POPC   D2A70564  22.825  15.290   6.572
 5620POPC   C3A70565  22.604  15.114   6.946
 5620POPC   C4A70566  22.826  14.858   7.241
 5620POPC   C1B70567  23.216  15.497   6.219
 5620POPC   C2B70568  23.270  15.541   6.688
 5620POPC   C3B70569  23.012  15.413   7.065
 5620POPC   C4B70570  23.063  15.612   7.499
 5621POPC   NC370571  36.140  43.705   5.307
 5621POPC   PO470572  35.812  44.225   5.290
 5621POPC   GL170573  35.921  44.059   5.696
 5621POPC   GL270574  36.048  44.315   5.890
 5621POPC   C1A70575  36.065  43.823   6.093
 5621POPC   D2A70576  36.341  43.809   6.490
 5621POPC   C3A70577  36.155  43.943   6.890
 5621POPC   C4A70578  36.292  44.180   7.242
 5621POPC   C1B70579  36.027  44.269   6.340
 5621POPC   C2B70580  35.723  44.110   6.637
 5621POPC   C3B70581  35.688  44.200   7.071
 5621POPC   C4B70582  35.848  44.133   7.500
 5622POPC   NC370583  34.092  42.492   5.704
 5622POPC   PO470584  33.646  42.045   5.452
 5622POPC   GL170585  33.568  42.212   5.880
 5622POPC   GL270586  33.837  42.305   6.085
 5622POPC   C1A70587  33.404  42.388   6.284
 5622POPC   D2A70588  33.536  42.545   6.681
 5622POPC   C3A70589  33.897  42.377   6.799
 5622POPC   C4A70590  33.745  42.346   7.195
 5622POPC   C1B70591  34.184  42.458   6.365
 5622POPC   C2B70592  34.286  42.784   6.666
 5622POPC   C3B70593  34.066  42.791   7.036
 5622POPC   C4B70594  34.194  42.496   7.348
 5623POPC   NC370595  23.572  30.282   5.602
 5623POPC   PO470596  23.913  29.722   5.364
 5623POPC   GL170597  23.921  29.925   5.770
 5623POPC   GL270598  23.588  29.826   5.898
 5623POPC   C1A70599  23.869  30.123   6.209
 5623POPC   D2A70600  23.814  29.835   6.584
 5623POPC   C3A70601  23.872  29.949   7.010
 5623POPC   C4A70602  23.556  29.819   7.301
 5623POPC   C1B70603  23.397  29.967   6.328
 5623POPC   C2B70604  23.420  30.119   6.801
 5623POPC   C3B70605  23.207  30.183   7.232
 5623POPC   C4B70606  23.202  29.943   7.648
 5624POPC   NC370607   6.568  26.606   5.168
 5624POPC   PO470608   7.023  26.590   5.642
 5624POPC   GL170609   6.703  26.617   5.944
 5624POPC   GL270610   6.919  26.489   6.155
 5624POPC   C1A70611   6.708  26.958   6.289
 5624POPC   D2A70612   6.718  27.238   6.647
 5624POPC   C3A70613   6.532  27.168   7.054
 5624POPC   C4A70614   6.793  27.171   7.421
 5624POPC   C1B70615   6.603  26.487   6.449
 5624POPC   C2B70616   6.602  26.701   6.821
 5624POPC   C3B70617   6.627  26.667   7.262
 5624POPC   C4B70618   6.814  26.317   7.584
 5625POPC   NC370619   0.357  36.788   5.433
 5625POPC   PO470620   0.886  36.747   5.781
 5625POPC   GL170621   0.483  36.626   5.931
 5625POPC   GL270622   0.683  36.446   6.156
 5625POPC   C1A70623   0.154  36.850   6.200
 5625POPC   D2A70624   0.112  37.146   6.578
 5625POPC   C3A70625   0.172  37.017   7.037
 5625POPC   C4A70626   0.315  36.626   7.222
 5625POPC   C1B70627   0.628  36.854   6.396
 5625POPC   C2B70628   0.616  37.059   6.794
 5625POPC   C3B70629   0.739  36.930   7.213
 5625POPC   C4B70630   0.934  36.951   7.629
 5626POPC   NC370631   7.961   9.237   5.328
 5626POPC   PO470632   8.637   8.992   5.416
 5626POPC   GL170633   8.330   9.241   5.749
 5626POPC   GL270634   7.982   9.173   5.854
 5626POPC   C1A70635   8.312   9.102   6.224
 5626POPC   D2A70636   8.216   8.863   6.596
 5626POPC   C3A70637   8.518   8.840   6.933
 5626POPC   C4A70638   8.471   8.863   7.383
 5626POPC   C1B70639   7.858   8.830   6.201
 5626POPC   C2B70640   7.681   8.859   6.617
 5626POPC   C3B70641   7.899   9.038   6.955
 5626POPC   C4B70642   7.886   9.333   7.264
 5627POPC   NC370643   7.318  42.090   5.358
 5627POPC   PO470644   7.506  41.529   5.299
 5627POPC   GL170645   7.593  41.624   5.749
 5627POPC   GL270646   7.257  41.752   5.816
 5627POPC   C1A70647   7.742  41.486   6.185
 5627POPC   D2A70648   7.891  41.336   6.577
 5627POPC   C3A70649   7.669  41.569   6.855
 5627POPC   C4A70650   7.505  41.534   7.250
 5627POPC   C1B70651   7.237  41.589   6.255
 5627POPC   C2B70652   7.167  41.599   6.711
 5627POPC   C3B70653   7.074  41.329   7.059
 5627POPC   C4B70654   7.091  41.423   7.524
 5628POPC   NC370655  41.957   8.829   5.361
 5628POPC   PO470656  41.529   9.228   5.591
 5628POPC   GL170657  41.722   8.943   5.834
 5628POPC   GL270658  41.565   8.659   5.816
 5628POPC   C1A70659  41.588   8.958   6.257
 5628POPC   D2A70660  41.792   8.947   6.648
 5628POPC   C3A70661  41.594   9.219   6.946
 5628POPC   C4A70662  41.505   9.379   7.345
 5628POPC   C1B70663  41.820   8.517   6.201
 5628POPC   C2B70664  41.708   8.430   6.660
 5628POPC   C3B70665  41.628   8.687   7.067
 5628POPC   C4B70666  41.818   8.967   7.385
 5629POPC   NC370667  25.891   3.498   5.401
 5629POPC   PO470668  26.498   3.852   5.594
 5629POPC   GL170669  26.165   3.681   5.829
 5629POPC   GL270670  25.911   3.393   5.889
 5629POPC   C1A70671  25.992   3.766   6.216
 5629POPC   D2A70672  26.002   3.955   6.572
 5629POPC   C3A70673  26.056   3.675   6.945
 5629POPC   C4A70674  25.904   3.431   7.311
 5629POPC   C1B70675  26.241   3.318   6.197
 5629POPC   C2B70676  26.205   3.199   6.595
 5629POPC   C3B70677  26.371   2.984   6.888
 5629POPC   C4B70678  26.218   3.017   7.248
 5630POPC   NC370679  39.956  38.317   5.356
 5630POPC   PO470680  40.516  37.930   5.450
 5630POPC   GL170681  40.102  38.080   5.778
 5630POPC   GL270682  40.050  38.495   5.812
 5630POPC   C1A70683  39.887  38.207   6.202
 5630POPC   D2A70684  39.820  38.581   6.427
 5630POPC   C3A70685  39.762  38.604   6.861
 5630POPC   C4A70686  39.903  38.467   7.257
 5630POPC   C1B70687  40.301  38.519   6.187
 5630POPC   C2B70688  40.263  38.388   6.589
 5630POPC   C3B70689  40.289  38.578   6.932
 5630POPC   C4B70690  40.551  38.739   7.201
 5631POPC   NC370691  11.814  27.770   5.413
 5631POPC   PO470692  11.056  27.647   5.441
 5631POPC   GL170693  11.295  27.653   5.801
 5631POPC   GL270694  11.488  27.354   5.864
 5631POPC   C1A70695  11.192  27.600   6.232
 5631POPC   D2A70696  11.312  27.742   6.620
 5631POPC   C3A70697  11.126  27.584   6.976
 5631POPC   C4A70698  11.262  27.788   7.339
 5631POPC   C1B70699  11.477  27.177   6.263
 5631POPC   C2B70700  11.253  27.189   6.673
 5631POPC   C3B70701  11.435  27.150   7.116
 5631POPC   C4B70702  11.560  27.400   7.484
 5632POPC   NC370703   4.774  20.632   5.142
 5632POPC   PO470704   5.163  20.151   5.477
 5632POPC   GL170705   4.968  20.534   5.651
 5632POPC   GL270706   5.203  20.836   5.677
 5632POPC   C1A70707   4.900  20.732   6.087
 5632POPC   D2A70708   5.114  20.690   6.468
 5632POPC   C3A70709   4.915  20.726   6.838
 5632POPC   C4A70710   4.956  20.537   7.193
 5632POPC   C1B70711   5.384  20.528   6.003
 5632POPC   C2B70712   5.337  20.251   6.356
 5632POPC   C3B70713   5.295  20.265   6.794
 5632POPC   C4B70714   5.249  20.110   7.204
 5633POPC   NC370715  39.886  33.357   5.533
 5633POPC   PO470716  39.822  32.765   5.193
 5633POPC   GL170717  39.952  32.868   5.698
 5633POPC   GL270718  39.770  32.723   5.965
 5633POPC   C1A70719  40.149  32.969   6.156
 5633POPC   D2A70720  40.004  33.181   6.543
 5633POPC   C3A70721  40.151  33.046   6.951
 5633POPC   C4A70722  40.260  33.219   7.337
 5633POPC   C1B70723  39.848  32.531   6.291
 5633POPC   C2B70724  39.914  32.683   6.646
 5633POPC   C3B70725  39.739  32.745   7.001
 5633POPC   C4B70726  39.926  32.816   7.363
 5634POPC   NC370727  18.686   6.072   5.663
 5634POPC   PO470728  19.091   5.775   5.166
 5634POPC   GL170729  19.142   5.804   5.648
 5634POPC   GL270730  19.363   5.527   5.761
 5634POPC   C1A70731  19.106   5.769   6.124
 5634POPC   D2A70732  18.826   5.885   6.456
 5634POPC   C3A70733  19.005   5.837   6.859
 5634POPC   C4A70734  18.870   6.028   7.229
 5634POPC   C1B70735  19.447   5.351   6.175
 5634POPC   C2B70736  19.496   5.483   6.601
 5634POPC   C3B70737  19.357   5.481   7.018
 5634POPC   C4B70738  19.341   5.833   7.256
 5635POPC   NC370739  32.625  42.379   5.221
 5635POPC   PO470740  32.091  42.095   5.558
 5635POPC   GL170741  31.917  42.252   5.890
 5635POPC   GL270742  31.788  41.972   5.985
 5635POPC   C1A70743  31.904  42.395   6.316
 5635POPC   D2A70744  31.840  42.568   6.710
 5635POPC   C3A70745  32.275  42.588   6.886
 5635POPC   C4A70746  32.457  42.339   7.227
 5635POPC   C1B70747  32.029  41.888   6.363
 5635POPC   C2B70748  32.139  42.074   6.784
 5635POPC   C3B70749  32.163  41.943   7.222
 5635POPC   C4B70750  32.471  41.977   7.606
 5636POPC   NC370751  31.038  14.399   5.503
 5636POPC   PO470752  31.668  14.112   5.400
 5636POPC   GL170753  31.520  14.412   5.684
 5636POPC   GL270754  31.375  14.159   5.836
 5636POPC   C1A70755  31.305  14.589   6.085
 5636POPC   D2A70756  31.482  14.671   6.459
 5636POPC   C3A70757  31.425  14.499   6.854
 5636POPC   C4A70758  31.636  14.664   7.197
 5636POPC   C1B70759  31.368  14.106   6.243
 5636POPC   C2B70760  31.171  14.073   6.601
 5636POPC   C3B70761  31.322  14.002   6.960
 5636POPC   C4B70762  31.301  14.267   7.319
 5637POPC   NC370763  14.060  39.816   5.478
 5637POPC   PO470764  14.695  40.210   5.401
 5637POPC   GL170765  14.409  40.085   5.745
 5637POPC   GL270766  14.445  39.720   5.813
 5637POPC   C1A70767  14.440  40.184   6.188
 5637POPC   D2A70768  14.489  40.446   6.558
 5637POPC   C3A70769  14.282  40.315   6.949
 5637POPC   C4A70770  14.498  40.285   7.331
 5637POPC   C1B70771  14.127  39.772   6.158
 5637POPC   C2B70772  14.082  40.041   6.545
 5637POPC   C3B70773  13.863  39.989   6.933
 5637POPC   C4B70774  14.098  39.947   7.307
 5638POPC   NC370775  22.852  20.827   5.551
 5638POPC   PO470776  23.212  20.335   5.633
 5638POPC   GL170777  23.234  20.664   5.942
 5638POPC   GL270778  23.225  21.020   5.834
 5638POPC   C1A70779  23.095  20.621   6.365
 5638POPC   D2A70780  23.135  20.595   6.805
 5638POPC   C3A70781  22.831  20.389   7.070
 5638POPC   C4A70782  22.461  20.264   7.285
 5638POPC   C1B70783  23.108  21.130   6.282
 5638POPC   C2B70784  22.836  21.013   6.625
 5638POPC   C3B70785  22.681  20.872   6.997
 5638POPC   C4B70786  23.071  20.872   7.207
 5639POPC   NC370787   6.442  11.392   5.326
 5639POPC   PO470788   6.982  10.997   5.499
 5639POPC   GL170789   6.688  11.110   5.794
 5639POPC   GL270790   6.676  11.428   5.823
 5639POPC   C1A70791   6.744  11.102   6.227
 5639POPC   D2A70792   6.558  11.243   6.599
 5639POPC   C3A70793   6.816  11.105   6.935
 5639POPC   C4A70794   6.565  10.812   7.119
 5639POPC   C1B70795   6.644  11.630   6.227
 5639POPC   C2B70796   6.679  11.740   6.657
 5639POPC   C3B70797   6.577  11.549   7.025
 5639POPC   C4B70798   6.885  11.475   7.324
 5640POPC   NC370799  30.452   7.696   5.084
 5640POPC   PO470800  31.000   7.497   5.492
 5640POPC   GL170801  30.896   7.564   5.848
 5640POPC   GL270802  30.538   7.579   5.876
 5640POPC   C1A70803  30.921   7.737   6.232
 5640POPC   D2A70804  30.669   7.534   6.516
 5640POPC   C3A70805  30.914   7.375   6.832
 5640POPC   C4A70806  30.949   7.515   7.211
 5640POPC   C1B70807  30.257   7.410   6.214
 5640POPC   C2B70808  30.157   7.514   6.639
 5640POPC   C3B70809  30.445   7.536   6.982
 5640POPC   C4B70810  30.509   7.812   7.333
 5641POPC   NC370811  39.801  39.715   5.475
 5641POPC   PO470812  40.293  40.224   5.439
 5641POPC   GL170813  40.178  39.900   5.770
 5641POPC   GL270814  39.835  39.838   5.957
 5641POPC   C1A70815  40.265  39.980   6.179
 5641POPC   D2A70816  40.103  39.851   6.554
 5641POPC   C3A70817  40.212  40.041   6.945
 5641POPC   C4A70818  40.133  39.939   7.347
 5641POPC   C1B70819  39.753  40.134   6.283
 5641POPC   C2B70820  39.748  40.197   6.722
 5641POPC   C3B70821  39.685  39.900   7.044
 5641POPC   C4B70822  39.650  39.955   7.481
 5642POPC   NC370823  19.522   2.568   5.611
 5642POPC   PO470824  18.973   2.634   5.269
 5642POPC   GL170825  18.962   2.732   5.752
 5642POPC   GL270826  19.192   2.545   5.983
 5642POPC   C1A70827  18.831   2.797   6.221
 5642POPC   D2A70828  19.105   2.634   6.581
 5642POPC   C3A70829  18.909   2.685   7.019
 5642POPC   C4A70830  19.047   2.599   7.440
 5642POPC   C1B70831  19.258   3.019   6.058
 5642POPC   C2B70832  19.328   3.142   6.472
 5642POPC   C3B70833  19.156   3.075   6.837
 5642POPC   C4B70834  19.199   3.064   7.286
 5643POPC   NC370835  25.264  18.099   5.384
 5643POPC   PO470836  25.183  18.697   5.712
 5643POPC   GL170837  25.135  18.271   5.854
 5643POPC   GL270838  25.476  18.124   5.886
 5643POPC   C1A70839  25.035  18.110   6.258
 5643POPC   D2A70840  25.164  18.179   6.677
 5643POPC   C3A70841  25.076  18.543   6.865
 5643POPC   C4A70842  25.010  18.601   7.274
 5643POPC   C1B70843  25.548  18.286   6.331
 5643POPC   C2B70844  25.581  18.493   6.745
 5643POPC   C3B70845  25.466  18.309   7.146
 5643POPC   C4B70846  25.619  18.096   7.543
 5644POPC   NC370847   3.355  27.828   5.423
 5644POPC   PO470848   3.936  27.461   5.364
 5644POPC   GL170849   3.656  27.481   5.700
 5644POPC   GL270850   3.588  27.223   5.914
 5644POPC   C1A70851   3.551  27.711   6.065
 5644POPC   D2A70852   3.579  27.822   6.490
 5644POPC   C3A70853   3.493  27.590   6.821
 5644POPC   C4A70854   3.521  27.785   7.211
 5644POPC   C1B70855   3.724  27.317   6.370
 5644POPC   C2B70856   3.934  27.328   6.786
 5644POPC   C3B70857   3.755  27.314   7.181
 5644POPC   C4B70858   3.338  27.270   7.200
 5645POPC   NC370859  43.176  37.956   5.551
 5645POPC   PO470860  42.789  37.472   5.368
 5645POPC   GL170861  42.940  37.562   5.743
 5645POPC   GL270862  42.740  37.866   5.845
 5645POPC   C1A70863  43.172  37.678   6.122
 5645POPC   D2A70864  43.000  37.503   6.476
 5645POPC   C3A70865  43.223  37.542   6.825
 5645POPC   C4A70866  43.334  37.511   7.210
 5645POPC   C1B70867  42.773  37.943   6.277
 5645POPC   C2B70868  43.177  37.985   6.536
 5645POPC   C3B70869  43.122  38.023   6.951
 5645POPC   C4B70870  42.906  37.931   7.319
 5646POPC   NC370871  41.239  20.077   5.486
 5646POPC   PO470872  41.792  19.804   5.249
 5646POPC   GL170873  41.714  19.931   5.695
 5646POPC   GL270874  41.405  19.733   5.835
 5646POPC   C1A70875  41.816  19.808   6.129
 5646POPC   D2A70876  41.871  19.453   6.425
 5646POPC   C3A70877  41.786  19.600   6.845
 5646POPC   C4A70878  41.718  19.998   7.028
 5646POPC   C1B70879  41.316  19.682   6.282
 5646POPC   C2B70880  41.302  19.889   6.706
 5646POPC   C3B70881  41.305  19.710   7.083
 5646POPC   C4B70882  41.282  19.292   7.042
 5647POPC   NC370883   1.145  13.795   5.582
 5647POPC   PO470884   1.594  13.307   5.572
 5647POPC   GL170885   1.379  13.509   5.936
 5647POPC   GL270886   1.026  13.582   6.036
 5647POPC   C1A70887   1.416  13.661   6.352
 5647POPC   D2A70888   1.120  13.730   6.659
 5647POPC   C3A70889   1.213  13.994   7.009
 5647POPC   C4A70890   1.360  13.853   7.394
 5647POPC   C1B70891   0.992  13.291   6.357
 5647POPC   C2B70892   0.908  13.263   6.804
 5647POPC   C3B70893   1.110  13.436   7.133
 5647POPC   C4B70894   1.084  13.469   7.587
 5648POPC   NC370895  22.428  40.327   5.412
 5648POPC   PO470896  21.929  39.924   5.445
 5648POPC   GL170897  22.156  39.869   5.845
 5648POPC   GL270898  22.320  40.154   5.869
 5648POPC   C1A70899  22.080  40.054   6.311
 5648POPC   D2A70900  21.859  40.218   6.664
 5648POPC   C3A70901  22.026  40.100   7.065
 5648POPC   C4A70902  22.200  40.179   7.492
 5648POPC   C1B70903  22.561  40.208   6.229
 5648POPC   C2B70904  22.418  40.337   6.635
 5648POPC   C3B70905  22.502  40.247   7.058
 5648POPC   C4B70906  22.448  39.836   7.231
 5649POPC   NC370907   4.038  12.459   5.383
 5649POPC   PO470908   4.549  12.056   5.518
 5649POPC   GL170909   4.295  12.248   5.806
 5649POPC   GL270910   4.515  12.068   6.028
 5649POPC   C1A70911   4.043  12.167   6.193
 5649POPC   D2A70912   4.014  12.326   6.612
 5649POPC   C3A70913   4.008  12.024   6.936
 5649POPC   C4A70914   4.076  11.741   7.270
 5649POPC   C1B70915   4.610  11.820   6.377
 5649POPC   C2B70916   4.596  11.817   6.835
 5649POPC   C3B70917   4.463  12.086   7.152
 5649POPC   C4B70918   4.151  12.302   7.387
 5650POPC   NC370919   8.330  20.464   5.212
 5650POPC   PO470920   9.035  20.632   5.339
 5650POPC   GL170921   9.076  20.769   5.718
 5650POPC   GL270922   8.703  20.760   5.784
 5650POPC   C1A70923   9.293  20.729   6.126
 5650POPC   D2A70924   9.183  20.575   6.570
 5650POPC   C3A70925   8.856  20.717   6.847
 5650POPC   C4A70926   8.786  20.616   7.281
 5650POPC   C1B70927   8.848  20.513   6.155
 5650POPC   C2B70928   8.725  20.324   6.542
 5650POPC   C3B70929   8.536  20.322   6.958
 5650POPC   C4B70930   8.703  20.107   7.355
 5651POPC   NC370931  11.433  24.792   5.390
 5651POPC   PO470932  11.201  24.265   5.628
 5651POPC   GL170933  11.252  24.380   5.979
 5651POPC   GL270934  11.132  24.720   5.860
 5651POPC   C1A70935  11.499  24.231   6.285
 5651POPC   D2A70936  11.399  24.467   6.601
 5651POPC   C3A70937  11.137  24.349   6.894
 5651POPC   C4A70938  11.268  24.468   7.235
 5651POPC   C1B70939  11.108  24.769   6.287
 5651POPC   C2B70940  10.910  24.720   6.673
 5651POPC   C3B70941  11.014  24.900   7.101
 5651POPC   C4B70942  11.143  24.820   7.576
 5652POPC   NC370943  11.626  40.176   5.326
 5652POPC   PO470944  11.181  39.738   5.568
 5652POPC   GL170945  11.603  39.841   5.789
 5652POPC   GL270946  11.584  40.217   5.833
 5652POPC   C1A70947  11.689  39.928   6.252
 5652POPC   D2A70948  11.446  40.121   6.588
 5652POPC   C3A70949  11.432  39.962   7.004
 5652POPC   C4A70950  11.049  39.992   7.278
 5652POPC   C1B70951  11.410  40.489   6.191
 5652POPC   C2B70952  11.331  40.628   6.629
 5652POPC   C3B70953  11.293  40.439   7.033
 5652POPC   C4B70954  11.438  40.246   7.447
 5653POPC   NC370955  16.955  21.609   5.501
 5653POPC   PO470956  16.376  21.376   5.385
 5653POPC   GL170957  16.484  21.583   5.777
 5653POPC   GL270958  16.712  21.295   5.846
 5653POPC   C1A70959  16.514  21.531   6.260
 5653POPC   D2A70960  16.586  21.243   6.620
 5653POPC   C3A70961  16.407  21.391   7.010
 5653POPC   C4A70962  16.574  21.578   7.392
 5653POPC   C1B70963  16.995  21.320   6.222
 5653POPC   C2B70964  17.057  21.471   6.657
 5653POPC   C3B70965  16.939  21.349   7.096
 5653POPC   C4B70966  16.945  21.138   7.524
 5654POPC   NC370967  28.191  25.080   5.495
 5654POPC   PO470968  28.645  25.534   5.406
 5654POPC   GL170969  28.334  25.516   5.720
 5654POPC   GL270970  28.414  25.211   5.941
 5654POPC   C1A70971  28.149  25.600   6.097
 5654POPC   D2A70972  28.162  25.290   6.431
 5654POPC   C3A70973  28.341  25.437   6.810
 5654POPC   C4A70974  28.233  25.388   7.225
 5654POPC   C1B70975  28.694  25.166   6.310
 5654POPC   C2B70976  28.579  24.986   6.701
 5654POPC   C3B70977  28.333  24.927   7.042
 5654POPC   C4B70978  28.306  24.955   7.518
 5655POPC   NC370979  18.648  14.119   5.437
 5655POPC   PO470980  18.289  14.623   5.190
 5655POPC   GL170981  18.332  14.500   5.637
 5655POPC   GL270982  18.038  14.356   5.812
 5655POPC   C1A70983  18.461  14.429   6.077
 5655POPC   D2A70984  18.423  14.196   6.472
 5655POPC   C3A70985  18.339  14.452   6.823
 5655POPC   C4A70986  18.470  14.352   7.218
 5655POPC   C1B70987  17.975  14.182   6.213
 5655POPC   C2B70988  17.941  14.070   6.653
 5655POPC   C3B70989  18.003  14.164   7.074
 5655POPC   C4B70990  17.970  14.610   7.223
 5656POPC   NC370991  15.972   7.079   5.416
 5656POPC   PO470992  16.279   7.699   5.473
 5656POPC   GL170993  16.132   7.460   5.813
 5656POPC   GL270994  16.327   7.118   5.788
 5656POPC   C1A70995  15.946   7.559   6.260
 5656POPC   D2A70996  15.634   7.581   6.598
 5656POPC   C3A70997  15.765   7.608   7.049
 5656POPC   C4A70998  16.229   7.592   7.172
 5656POPC   C1B70999  15.994   7.068   6.094
 5656POPC   C2B71000  16.079   7.010   6.498
 5656POPC   C3B71001  15.919   7.177   6.845
 5656POPC   C4B71002  15.908   7.161   7.257
 5657POPC   NC371003  16.905  42.104   5.179
 5657POPC   PO471004  16.596  42.621   5.508
 5657POPC   GL171005  16.853  42.514   5.832
 5657POPC   GL271006  16.926  42.161   5.765
 5657POPC   C1A71007  16.859  42.465   6.286
 5657POPC   D2A71008  16.664  42.326   6.650
 5657POPC   C3A71009  16.689  42.597   7.005
 5657POPC   C4A71010  16.560  42.360   7.362
 5657POPC   C1B71011  17.054  41.997   6.200
 5657POPC   C2B71012  17.196  42.163   6.623
 5657POPC   C3B71013  16.994  42.163   7.036
 5657POPC   C4B71014  17.070  41.964   7.456
 5658POPC   NC371015  14.249   3.895   5.410
 5658POPC   PO471016  14.815   3.467   5.481
 5658POPC   GL171017  14.522   3.598   5.811
 5658POPC   GL271018  14.211   3.405   5.730
 5658POPC   C1A71019  14.550   3.821   6.243
 5658POPC   D2A71020  14.358   3.892   6.665
 5658POPC   C3A71021  14.548   3.808   7.077
 5658POPC   C4A71022  14.959   3.752   7.219
 5658POPC   C1B71023  14.199   3.434   6.204
 5658POPC   C2B71024  14.415   3.383   6.616
 5658POPC   C3B71025  14.331   3.331   7.069
 5658POPC   C4B71026  14.162   3.273   7.509
 5659POPC   NC371027  35.817  44.635   5.526
 5659POPC   PO471028  36.377   0.006   5.554
 5659POPC   GL171029  36.241  44.786   5.857
 5659POPC   GL271030  36.501  44.578   5.893
 5659POPC   C1A71031  36.000  44.800   6.211
 5659POPC   D2A71032  35.805  44.663   6.587
 5659POPC   C3A71033  36.064  44.521   6.905
 5659POPC   C4A71034  35.911  44.616   7.327
 5659POPC   C1B71035  36.502  44.762   6.324
 5659POPC   C2B71036  36.237   0.001   6.637
 5659POPC   C3B71037  36.174   0.014   7.071
 5659POPC   C4B71038  36.412  44.681   7.264
 5660POPC   NC371039   3.779  33.849   5.628
 5660POPC   PO471040   4.421  33.847   5.381
 5660POPC   GL171041   4.260  33.966   5.789
 5660POPC   GL271042   4.099  33.647   5.967
 5660POPC   C1A71043   4.498  33.970   6.158
 5660POPC   D2A71044   4.430  34.099   6.564
 5660POPC   C3A71045   4.467  33.834   6.863
 5660POPC   C4A71046   4.669  34.014   7.141
 5660POPC   C1B71047   4.431  33.456   6.231
 5660POPC   C2B71048   4.648  33.378   6.626
 5660POPC   C3B71049   4.551  33.388   7.074
 5660POPC   C4B71050   4.404  33.657   7.421
 5661POPC   NC371051  21.193  25.611   5.525
 5661POPC   PO471052  21.687  25.074   5.434
 5661POPC   GL171053  21.544  25.202   5.824
 5661POPC   GL271054  21.328  24.957   5.887
 5661POPC   C1A71055  21.407  25.363   6.259
 5661POPC   D2A71056  21.007  25.458   6.496
 5661POPC   C3A71057  20.978  25.329   6.923
 5661POPC   C4A71058  21.103  25.105   7.333
 5661POPC   C1B71059  21.578  24.893   6.253
 5661POPC   C2B71060  21.556  25.078   6.648
 5661POPC   C3B71061  21.468  25.293   6.995
 5661POPC   C4B71062  21.612  25.041   7.287
 5662POPC   NC371063  27.646  43.816   5.269
 5662POPC   PO471064  27.448  44.435   5.111
 5662POPC   GL171065  27.624  44.206   5.602
 5662POPC   GL271066  27.506  43.899   5.750
 5662POPC   C1A71067  27.667  44.198   6.107
 5662POPC   D2A71068  27.500  43.968   6.478
 5662POPC   C3A71069  27.499  44.178   6.869
 5662POPC   C4A71070  27.786  44.099   7.199
 5662POPC   C1B71071  27.766  43.703   6.089
 5662POPC   C2B71072  27.882  43.613   6.508
 5662POPC   C3B71073  27.681  43.664   6.923
 5662POPC   C4B71074  27.449  43.499   7.268
 5663POPC   NC371075  22.785  12.483   5.363
 5663POPC   PO471076  22.921  11.865   5.171
 5663POPC   GL171077  22.973  11.825   5.743
 5663POPC   GL271078  23.039  12.207   5.776
 5663POPC   C1A71079  22.829  11.976   6.188
 5663POPC   D2A71080  22.745  12.269   6.535
 5663POPC   C3A71081  22.739  12.032   6.916
 5663POPC   C4A71082  22.693  11.851   7.307
 5663POPC   C1B71083  23.195  12.394   6.144
 5663POPC   C2B71084  23.241  12.427   6.577
 5663POPC   C3B71085  23.058  12.442   6.989
 5663POPC   C4B71086  23.181  12.187   7.343
 5664POPC   NC371087  24.131  35.859   5.441
 5664POPC   PO471088  24.600  36.353   5.313
 5664POPC   GL171089  24.439  36.390   5.745
 5664POPC   GL271090  24.113  36.329   5.856
 5664POPC   C1A71091  24.466  36.505   6.169
 5664POPC   D2A71092  24.601  36.279   6.517
 5664POPC   C3A71093  24.376  36.365   6.865
 5664POPC   C4A71094  24.387  36.778   7.059
 5664POPC   C1B71095  24.274  36.018   6.135
 5664POPC   C2B71096  24.314  35.841   6.545
 5664POPC   C3B71097  24.573  35.886   6.894
 5664POPC   C4B71098  24.522  36.105   7.278
 5665POPC   NC371099  14.364  19.412   5.169
 5665POPC   PO471100  14.575  18.860   5.543
 5665POPC   GL171101  14.365  19.182   5.702
 5665POPC   GL271102  14.629  19.283   5.882
 5665POPC   C1A71103  14.178  19.142   6.132
 5665POPC   D2A71104  14.302  18.895   6.527
 5665POPC   C3A71105  14.327  19.191   6.887
 5665POPC   C4A71106  14.369  19.009   7.281
 5665POPC   C1B71107  14.673  19.022   6.212
 5665POPC   C2B71108  14.748  19.176   6.596
 5665POPC   C3B71109  14.801  18.973   6.950
 5665POPC   C4B71110  14.871  19.049   7.317
 5666POPC   NC371111  30.678  32.475   5.387
 5666POPC   PO471112  30.211  32.176   5.390
 5666POPC   GL171113  30.493  32.197   5.776
 5666POPC   GL271114  30.854  32.334   5.839
 5666POPC   C1A71115  30.585  32.096   6.223
 5666POPC   D2A71116  30.630  32.320   6.630
 5666POPC   C3A71117  30.397  32.226   7.025
 5666POPC   C4A71118  30.230  32.223   7.465
 5666POPC   C1B71119  31.081  32.061   6.125
 5666POPC   C2B71120  31.022  31.945   6.554
 5666POPC   C3B71121  30.966  32.143   6.954
 5666POPC   C4B71122  30.753  32.060   7.361
 5667POPC   NC371123   5.653   7.144   5.578
 5667POPC   PO471124   6.238   7.464   5.544
 5667POPC   GL171125   5.979   7.468   5.872
 5667POPC   GL271126   5.604   7.568   5.857
 5667POPC   C1A71127   6.116   7.518   6.270
 5667POPC   D2A71128   5.881   7.589   6.609
 5667POPC   C3A71129   6.002   7.375   6.945
 5667POPC   C4A71130   5.972   7.724   7.230
 5667POPC   C1B71131   5.639   7.288   6.228
 5667POPC   C2B71132   5.462   7.223   6.622
 5667POPC   C3B71133   5.506   7.494   6.959
 5667POPC   C4B71134   5.676   7.344   7.328
 5668POPC   NC371135  18.193  30.360   5.130
 5668POPC   PO471136  18.202  30.970   5.412
 5668POPC   GL171137  18.365  30.770   5.771
 5668POPC   GL271138  18.365  30.396   5.770
 5668POPC   C1A71139  18.314  30.754   6.223
 5668POPC   D2A71140  18.392  30.666   6.634
 5668POPC   C3A71141  18.106  30.842   6.930
 5668POPC   C4A71142  18.302  31.009   7.290
 5668POPC   C1B71143  18.172  30.265   6.189
 5668POPC   C2B71144  17.951  30.438   6.524
 5668POPC   C3B71145  18.152  30.334   6.938
 5668POPC   C4B71146  18.456  30.531   7.196
 5669POPC   NC371147  24.608  25.137   5.499
 5669POPC   PO471148  24.956  25.659   5.681
 5669POPC   GL171149  24.544  25.452   5.896
 5669POPC   GL271150  24.425  25.088   5.970
 5669POPC   C1A71151  24.142  25.491   6.163
 5669POPC   D2A71152  24.088  25.532   6.620
 5669POPC   C3A71153  24.480  25.538   6.862
 5669POPC   C4A71154  24.657  25.472   7.278
 5669POPC   C1B71155  24.793  25.144   6.258
 5669POPC   C2B71156  24.778  25.160   6.705
 5669POPC   C3B71157  24.496  25.051   7.033
 5669POPC   C4B71158  24.595  24.694   7.228
 5670POPC   NC371159  38.732  29.946   5.410
 5670POPC   PO471160  38.118  29.980   5.643
 5670POPC   GL171161  38.349  29.720   5.920
 5670POPC   GL271162  38.719  29.738   5.886
 5670POPC   C1A71163  38.351  29.828   6.349
 5670POPC   D2A71164  38.299  29.670   6.740
 5670POPC   C3A71165  38.365  29.997   7.015
 5670POPC   C4A71166  38.373  29.946   7.441
 5670POPC   C1B71167  38.802  30.065   6.209
 5670POPC   C2B71168  38.757  30.049   6.672
 5670POPC   C3B71169  38.846  29.971   7.138
 5670POPC   C4B71170  38.940  29.782   7.536
 5671POPC   NC371171  20.430   1.537   5.483
 5671POPC   PO471172  20.838   1.045   5.466
 5671POPC   GL171173  20.744   1.323   5.851
 5671POPC   GL271174  21.002   1.552   5.898
 5671POPC   C1A71175  20.506   1.445   6.270
 5671POPC   D2A71176  20.341   1.425   6.734
 5671POPC   C3A71177  20.595   1.218   7.058
 5671POPC   C4A71178  20.649   0.775   7.123
 5671POPC   C1B71179  21.044   1.441   6.304
 5671POPC   C2B71180  20.881   1.520   6.694
 5671POPC   C3B71181  21.048   1.504   7.110
 5671POPC   C4B71182  20.867   1.319   7.503
 5672POPC   NC371183   1.513  14.404   5.465
 5672POPC   PO471184   0.794  14.357   5.376
 5672POPC   GL171185   1.073  14.362   5.767
 5672POPC   GL271186   1.299  14.671   5.858
 5672POPC   C1A71187   1.052  14.170   6.196
 5672POPC   D2A71188   0.813  14.140   6.586
 5672POPC   C3A71189   0.925  14.407   6.902
 5672POPC   C4A71190   1.194  14.662   7.131
 5672POPC   C1B71191   1.507  14.425   6.191
 5672POPC   C2B71192   1.406  14.282   6.618
 5672POPC   C3B71193   1.592  14.369   7.015
 5672POPC   C4B71194   1.494  14.366   7.443
 5673POPC   NC371195  30.999   9.907   5.470
 5673POPC   PO471196  30.573   9.297   5.594
 5673POPC   GL171197  30.781   9.595   5.852
 5673POPC   GL271198  30.931   9.289   5.995
 5673POPC   C1A71199  30.665   9.895   6.222
 5673POPC   D2A71200  30.803  10.055   6.669
 5673POPC   C3A71201  30.811   9.832   7.075
 5673POPC   C4A71202  30.470   9.859   7.333
 5673POPC   C1B71203  30.557   9.382   6.249
 5673POPC   C2B71204  30.683   9.555   6.608
 5673POPC   C3B71205  30.433   9.536   6.915
 5673POPC   C4B71206  30.473   9.346   7.241
 5674POPC   NC371207  12.701   8.788   5.479
 5674POPC   PO471208  12.933   9.346   5.211
 5674POPC   GL171209  12.977   9.219   5.660
 5674POPC   GL271210  13.179   8.907   5.721
 5674POPC   C1A71211  12.885   9.138   6.119
 5674POPC   D2A71212  13.046   9.245   6.544
 5674POPC   C3A71213  12.817   9.093   6.910
 5674POPC   C4A71214  12.574   8.721   6.973
 5674POPC   C1B71215  13.107   8.663   6.106
 5674POPC   C2B71216  12.931   8.741   6.511
 5674POPC   C3B71217  13.176   8.712   6.868
 5674POPC   C4B71218  13.042   8.811   7.270
 5675POPC   NC371219  31.966  39.581   5.660
 5675POPC   PO471220  32.218  40.034   5.139
 5675POPC   GL171221  32.157  40.043   5.640
 5675POPC   GL271222  32.426  40.145   5.794
 5675POPC   C1A71223  32.139  39.931   6.157
 5675POPC   D2A71224  32.174  40.124   6.562
 5675POPC   C3A71225  32.286  39.997   6.976
 5675POPC   C4A71226  32.417  40.198   7.324
 5675POPC   C1B71227  32.642  40.086   6.183
 5675POPC   C2B71228  32.656  40.002   6.613
 5675POPC   C3B71229  32.785  40.134   7.006
 5675POPC   C4B71230  32.714  39.785   7.296
 5676POPC   NC371231   9.476  27.259   5.517
 5676POPC   PO471232   8.846  26.838   5.431
 5676POPC   GL171233   9.046  26.815   5.827
 5676POPC   GL271234   9.119  27.162   5.886
 5676POPC   C1A71235   9.025  26.726   6.269
 5676POPC   D2A71236   8.816  26.470   6.574
 5676POPC   C3A71237   8.754  26.730   6.927
 5676POPC   C4A71238   8.901  26.666   7.276
 5676POPC   C1B71239   8.840  27.204   6.256
 5676POPC   C2B71240   9.005  27.089   6.670
 5676POPC   C3B71241   9.230  27.002   7.102
 5676POPC   C4B71242   9.049  27.058   7.572
 5677POPC   NC371243  18.616   3.651   5.545
 5677POPC   PO471244  18.372   3.151   5.162
 5677POPC   GL171245  18.302   3.220   5.671
 5677POPC   GL271246  18.016   3.426   5.834
 5677POPC   C1A71247  18.397   3.333   6.146
 5677POPC   D2A71248  18.471   3.623   6.530
 5677POPC   C3A71249  18.591   3.350   6.863
 5677POPC   C4A71250  18.369   3.183   7.201
 5677POPC   C1B71251  18.107   3.767   6.185
 5677POPC   C2B71252  17.964   3.818   6.606
 5677POPC   C3B71253  18.122   3.617   6.996
 5677POPC   C4B71254  18.077   3.585   7.471
 5678POPC   NC371255  13.784   2.551   5.382
 5678POPC   PO471256  13.247   2.882   5.382
 5678POPC   GL171257  13.518   2.822   5.724
 5678POPC   GL271258  13.295   2.952   5.916
 5678POPC   C1A71259  13.657   2.614   6.113
 5678POPC   D2A71260  13.905   2.635   6.523
 5678POPC   C3A71261  13.668   2.767   6.875
 5678POPC   C4A71262  13.672   2.471   7.173
 5678POPC   C1B71263  13.320   3.224   6.251
 5678POPC   C2B71264  13.489   3.292   6.674
 5678POPC   C3B71265  13.344   3.168   7.065
 5678POPC   C4B71266  13.388   2.831   7.377
 5679POPC   NC371267   4.648  22.280   5.435
 5679POPC   PO471268   3.978  21.958   5.360
 5679POPC   GL171269   4.286  21.963   5.693
 5679POPC   GL271270   4.285  22.287   5.785
 5679POPC   C1A71271   4.528  21.933   6.087
 5679POPC   D2A71272   4.454  22.117   6.496
 5679POPC   C3A71273   4.305  21.912   6.875
 5679POPC   C4A71274   4.357  22.080   7.302
 5679POPC   C1B71275   4.542  22.474   6.113
 5679POPC   C2B71276   4.574  22.603   6.566
 5679POPC   C3B71277   4.407  22.475   6.975
 5679POPC   C4B71278   4.569  22.558   7.392
 5680POPC   NC371279  25.685  41.604   5.448
 5680POPC   PO471280  25.079  41.460   5.384
 5680POPC   GL171281  25.225  41.660   5.769
 5680POPC   GL271282  25.546  41.570   5.934
 5680POPC   C1A71283  25.077  41.584   6.173
 5680POPC   D2A71284  25.257  41.632   6.568
 5680POPC   C3A71285  25.064  41.550   6.950
 5680POPC   C4A71286  25.207  41.568   7.354
 5680POPC   C1B71287  25.577  41.963   6.161
 5680POPC   C2B71288  25.690  41.936   6.606
 5680POPC   C3B71289  25.480  41.864   6.999
 5680POPC   C4B71290  25.543  42.098   7.364
 5681POPC   NC371291   5.209   5.478   5.603
 5681POPC   PO471292   4.839   4.980   5.318
 5681POPC   GL171293   4.970   5.024   5.759
 5681POPC   GL271294   5.309   5.086   5.875
 5681POPC   C1A71295   4.900   4.925   6.210
 5681POPC   D2A71296   5.052   4.719   6.609
 5681POPC   C3A71297   4.846   4.832   6.997
 5681POPC   C4A71298   4.938   5.223   7.212
 5681POPC   C1B71299   5.314   5.243   6.298
 5681POPC   C2B71300   5.398   5.175   6.736
 5681POPC   C3B71301   5.460   5.480   7.065
 5681POPC   C4B71302   5.226   5.598   7.402
 5682POPC   NC371303   1.290  41.530   5.344
 5682POPC   PO471304   0.638  41.699   5.376
 5682POPC   GL171305   0.998  41.736   5.719
 5682POPC   GL271306   1.414  41.763   5.762
 5682POPC   C1A71307   1.038  41.783   6.158
 5682POPC   D2A71308   0.997  41.493   6.501
 5682POPC   C3A71309   1.065  41.654   6.903
 5682POPC   C4A71310   1.159  41.487   7.283
 5682POPC   C1B71311   1.502  41.584   6.164
 5682POPC   C2B71312   1.516  41.457   6.586
 5682POPC   C3B71313   1.605  41.442   7.041
 5682POPC   C4B71314   1.593  41.805   7.288
 5683POPC   NC371315  20.330  41.926   5.492
 5683POPC   PO471316  20.775  41.398   5.422
 5683POPC   GL171317  20.663  41.611   5.793
 5683POPC   GL271318  20.777  41.963   5.796
 5683POPC   C1A71319  20.521  41.391   6.190
 5683POPC   D2A71320  20.659  41.170   6.548
 5683POPC   C3A71321  20.523  41.367   6.911
 5683POPC   C4A71322  20.549  41.476   7.331
 5683POPC   C1B71323  20.616  41.886   6.217
 5683POPC   C2B71324  20.375  41.756   6.606
 5683POPC   C3B71325  20.529  41.893   7.028
 5683POPC   C4B71326  20.446  41.943   7.486
 5684POPC   NC371327   6.853  43.228   5.356
 5684POPC   PO471328   6.323  42.965   5.481
 5684POPC   GL171329   6.502  43.279   5.777
 5684POPC   GL271330   6.871  43.311   5.847
 5684POPC   C1A71331   6.450  43.238   6.234
 5684POPC   D2A71332   6.482  42.956   6.612
 5684POPC   C3A71333   6.634  43.101   7.033
 5684POPC   C4A71334   6.782  43.188   7.478
 5684POPC   C1B71335   6.883  43.519   6.221
 5684POPC   C2B71336   6.769  43.382   6.627
 5684POPC   C3B71337   6.902  43.529   7.043
 5684POPC   C4B71338   7.054  43.607   7.456
 5685POPC   NC371339   6.267  32.806   5.517
 5685POPC   PO471340   6.837  33.300   5.483
 5685POPC   GL171341   6.662  33.013   5.776
 5685POPC   GL271342   6.668  32.673   5.819
 5685POPC   C1A71343   6.500  33.025   6.187
 5685POPC   D2A71344   6.660  33.022   6.598
 5685POPC   C3A71345   6.633  33.236   7.000
 5685POPC   C4A71346   6.554  32.950   7.348
 5685POPC   C1B71347   6.308  32.544   6.115
 5685POPC   C2B71348   6.156  32.776   6.487
 5685POPC   C3B71349   6.335  32.761   6.915
 5685POPC   C4B71350   6.145  32.615   7.310
 5686POPC   NC371351  25.112  30.183   5.325
 5686POPC   PO471352  25.537  29.667   5.318
 5686POPC   GL171353  25.257  29.773   5.667
 5686POPC   GL271354  25.245  30.083   5.844
 5686POPC   C1A71355  25.104  29.597   6.054
 5686POPC   D2A71356  25.031  29.572   6.499
 5686POPC   C3A71357  25.194  29.879   6.821
 5686POPC   C4A71358  25.330  29.795   7.256
 5686POPC   C1B71359  25.176  30.281   6.259
 5686POPC   C2B71360  25.189  30.411   6.689
 5686POPC   C3B71361  25.261  30.324   7.150
 5686POPC   C4B71362  25.143  30.152   7.569
 5687POPC   NC371363  21.825  21.961   5.625
 5687POPC   PO471364  21.301  22.364   5.495
 5687POPC   GL171365  21.426  22.233   5.855
 5687POPC   GL271366  21.775  22.389   5.860
 5687POPC   C1A71367  21.263  21.995   6.200
 5687POPC   D2A71368  21.261  21.808   6.607
 5687POPC   C3A71369  21.107  21.991   6.967
 5687POPC   C4A71370  21.205  21.980   7.374
 5687POPC   C1B71371  21.661  22.317   6.288
 5687POPC   C2B71372  21.442  22.295   6.663
 5687POPC   C3B71373  21.581  22.176   7.059
 5687POPC   C4B71374  21.649  22.327   7.447
 5688POPC   NC371375  36.662   2.121   5.326
 5688POPC   PO471376  37.143   1.653   5.335
 5688POPC   GL171377  36.876   1.830   5.710
 5688POPC   GL271378  36.954   2.223   5.766
 5688POPC   C1A71379  36.860   1.936   6.175
 5688POPC   D2A71380  36.897   2.214   6.529
 5688POPC   C3A71381  36.882   1.969   6.890
 5688POPC   C4A71382  36.710   1.812   7.199
 5688POPC   C1B71383  37.241   2.305   6.164
 5688POPC   C2B71384  37.414   2.243   6.599
 5688POPC   C3B71385  37.187   2.345   6.974
 5688POPC   C4B71386  36.731   2.459   6.948
 5689POPC   NC371387  33.629  34.177   5.067
 5689POPC   PO471388  33.947  33.637   5.312
 5689POPC   GL171389  33.918  33.820   5.812
 5689POPC   GL271390  33.586  33.921   5.964
 5689POPC   C1A71391  34.031  33.955   6.254
 5689POPC   D2A71392  34.122  34.200   6.636
 5689POPC   C3A71393  33.988  34.061   7.059
 5689POPC   C4A71394  33.580  33.944   7.207
 5689POPC   C1B71395  33.543  33.952   6.427
 5689POPC   C2B71396  33.810  33.694   6.686
 5689POPC   C3B71397  33.890  33.305   6.913
 5689POPC   C4B71398  33.831  33.500   7.315
 5690POPC   NC371399   6.595  44.277   5.568
 5690POPC   PO471400   6.847  43.694   5.362
 5690POPC   GL171401   6.659  43.792   5.775
 5690POPC   GL271402   6.317  43.842   5.659
 5690POPC   C1A71403   6.752  44.015   6.200
 5690POPC   D2A71404   6.844  43.877   6.640
 5690POPC   C3A71405   6.816  44.037   7.076
 5690POPC   C4A71406   6.642  43.908   7.466
 5690POPC   C1B71407   6.239  43.945   6.097
 5690POPC   C2B71408   6.391  43.700   6.429
 5690POPC   C3B71409   6.404  43.664   6.847
 5690POPC   C4B71410   6.301  43.980   7.103
 5691POPC   NC371411  20.621  38.219   5.530
 5691POPC   PO471412  21.043  38.855   5.457
 5691POPC   GL171413  20.762  38.687   5.749
 5691POPC   GL271414  20.483  38.780   5.964
 5691POPC   C1A71415  20.904  38.542   6.139
 5691POPC   D2A71416  20.847  38.719   6.537
 5691POPC   C3A71417  20.904  38.387   6.840
 5691POPC   C4A71418  21.025  38.298   7.267
 5691POPC   C1B71419  20.409  38.450   6.237
 5691POPC   C2B71420  20.401  38.502   6.651
 5691POPC   C3B71421  20.574  38.741   6.992
 5691POPC   C4B71422  20.404  38.650   7.367
 5692POPC   NC371423  31.371  38.429   5.094
 5692POPC   PO471424  31.025  38.564   5.685
 5692POPC   GL171425  31.454  38.429   5.772
 5692POPC   GL271426  31.574  38.078   5.733
 5692POPC   C1A71427  31.619  38.643   6.140
 5692POPC   D2A71428  31.522  38.519   6.522
 5692POPC   C3A71429  31.611  38.741   6.866
 5692POPC   C4A71430  31.496  38.645   7.263
 5692POPC   C1B71431  31.453  38.118   6.188
 5692POPC   C2B71432  31.583  38.016   6.620
 5692POPC   C3B71433  31.667  38.110   7.075
 5692POPC   C4B71434  31.386  38.128   7.433
 5693POPC   NC371435   5.537   6.255   5.360
 5693POPC   PO471436   6.009   5.814   5.400
 5693POPC   GL171437   5.807   6.009   5.735
 5693POPC   GL271438   6.123   6.082   5.857
 5693POPC   C1A71439   5.709   6.216   6.147
 5693POPC   D2A71440   5.667   6.008   6.553
 5693POPC   C3A71441   5.726   6.142   6.968
 5693POPC   C4A71442   5.616   5.947   7.356
 5693POPC   C1B71443   6.013   5.779   6.210
 5693POPC   C2B71444   6.085   5.710   6.654
 5693POPC   C3B71445   5.981   5.703   7.083
 5693POPC   C4B71446   6.192   5.804   7.453
 5694POPC   NC371447   5.709  28.223   5.246
 5694POPC   PO471448   6.206  28.560   5.239
 5694POPC   GL171449   5.943  28.325   5.675
 5694POPC   GL271450   5.812  28.027   5.787
 5694POPC   C1A71451   5.770  28.459   6.143
 5694POPC   D2A71452   5.800  28.517   6.591
 5694POPC   C3A71453   6.178  28.678   6.795
 5694POPC   C4A71454   6.108  28.762   7.239
 5694POPC   C1B71455   5.463  28.080   6.089
 5694POPC   C2B71456   5.308  28.231   6.500
 5694POPC   C3B71457   5.491  28.255   6.907
 5694POPC   C4B71458   5.621  28.556   7.196
 5695POPC   NC371459   3.900  14.330   5.469
 5695POPC   PO471460   4.500  14.705   5.394
 5695POPC   GL171461   4.583  14.490   5.804
 5695POPC   GL271462   4.311  14.229   5.792
 5695POPC   C1A71463   4.492  14.488   6.273
 5695POPC   D2A71464   4.158  14.535   6.595
 5695POPC   C3A71465   4.262  14.679   6.993
 5695POPC   C4A71466   4.300  14.589   7.451
 5695POPC   C1B71467   4.578  14.006   6.063
 5695POPC   C2B71468   4.643  14.045   6.471
 5695POPC   C3B71469   4.568  14.281   6.831
 5695POPC   C4B71470   4.477  14.146   7.225
 5696POPC   NC371471  39.624  26.311   5.439
 5696POPC   PO471472  40.091  25.807   5.403
 5696POPC   GL171473  39.966  26.076   5.730
 5696POPC   GL271474  39.688  25.899   5.750
 5696POPC   C1A71475  39.913  26.261   6.150
 5696POPC   D2A71476  40.161  26.245   6.537
 5696POPC   C3A71477  40.041  26.414   6.937
 5696POPC   C4A71478  40.128  26.138   7.266
 5696POPC   C1B71479  39.644  25.779   6.131
 5696POPC   C2B71480  39.625  25.765   6.551
 5696POPC   C3B71481  39.754  25.961   6.926
 5696POPC   C4B71482  39.684  25.796   7.326
 5697POPC   NC371483   4.066  31.443   5.331
 5697POPC   PO471484   4.786  31.409   5.586
 5697POPC   GL171485   4.420  31.558   5.793
 5697POPC   GL271486   4.054  31.687   5.774
 5697POPC   C1A71487   4.455  31.486   6.226
 5697POPC   D2A71488   4.685  31.471   6.588
 5697POPC   C3A71489   4.477  31.376   6.971
 5697POPC   C4A71490   4.363  31.695   7.292
 5697POPC   C1B71491   3.959  31.574   6.192
 5697POPC   C2B71492   4.139  31.663   6.611
 5697POPC   C3B71493   3.986  31.523   7.008
 5697POPC   C4B71494   3.846  31.790   7.325
 5698POPC   NC371495   1.725  44.895   5.086
 5698POPC   PO471496   2.244  44.500   5.380
 5698POPC   GL171497   2.041  44.557   5.766
 5698POPC   GL271498   1.924  44.887   5.682
 5698POPC   C1A71499   2.015  44.382   6.186
 5698POPC   D2A71500   1.945  44.599   6.578
 5698POPC   C3A71501   2.044  44.514   6.993
 5698POPC   C4A71502   2.283  44.487   7.385
 5698POPC   C1B71503   1.889  44.904   6.142
 5698POPC   C2B71504   1.666   0.008   6.545
 5698POPC   C3B71505   1.845   0.013   6.966
 5698POPC   C4B71506   1.803  44.788   7.367
 5699POPC   NC371507  21.341  24.718   5.441
 5699POPC   PO471508  21.430  24.110   5.479
 5699POPC   GL171509  21.445  24.413   5.829
 5699POPC   GL271510  21.738  24.654   5.804
 5699POPC   C1A71511  21.244  24.520   6.221
 5699POPC   D2A71512  21.067  24.638   6.611
 5699POPC   C3A71513  21.272  24.777   6.960
 5699POPC   C4A71514  21.340  24.579   7.325
 5699POPC   C1B71515  21.754  24.427   6.233
 5699POPC   C2B71516  21.623  24.515   6.652
 5699POPC   C3B71517  21.785  24.631   7.047
 5699POPC   C4B71518  21.810  24.626   7.518
 5700POPC   NC371519  23.724  12.825   5.379
 5700POPC   PO471520  24.074  13.337   5.621
 5700POPC   GL171521  23.816  13.016   5.874
 5700POPC   GL271522  23.838  12.624   5.833
 5700POPC   C1A71523  23.631  12.972   6.296
 5700POPC   D2A71524  23.838  13.088   6.681
 5700POPC   C3A71525  23.597  13.190   7.054
 5700POPC   C4A71526  23.858  13.108   7.353
 5700POPC   C1B71527  23.971  12.587   6.241
 5700POPC   C2B71528  23.752  12.564   6.623
 5700POPC   C3B71529  23.812  12.680   7.021
 5700POPC   C4B71530  23.463  12.623   7.237
 5701POPC   NC371531  22.572   2.632   5.414
 5701POPC   PO471532  23.251   2.578   5.471
 5701POPC   GL171533  23.188   2.934   5.813
 5701POPC   GL271534  22.867   3.155   5.843
 5701POPC   C1A71535  23.180   3.002   6.234
 5701POPC   D2A71536  22.933   2.838   6.533
 5701POPC   C3A71537  23.124   2.806   6.894
 5701POPC   C4A71538  23.304   2.664   7.215
 5701POPC   C1B71539  22.607   2.867   6.107
 5701POPC   C2B71540  22.459   2.689   6.526
 5701POPC   C3B71541  22.634   2.653   6.962
 5701POPC   C4B71542  22.828   2.960   7.277
 5702POPC   NC371543  15.621  26.224   5.071
 5702POPC   PO471544  15.468  25.775   5.571
 5702POPC   GL171545  15.852  25.887   5.905
 5702POPC   GL271546  16.080  26.232   5.814
 5702POPC   C1A71547  15.855  25.853   6.391
 5702POPC   D2A71548  15.759  26.061   6.810
 5702POPC   C3A71549  16.096  26.017   7.148
 5702POPC   C4A71550  16.430  26.005   7.488
 5702POPC   C1B71551  15.956  26.314   6.210
 5702POPC   C2B71552  16.158  26.335   6.613
 5702POPC   C3B71553  16.017  26.503   6.990
 5702POPC   C4B71554  15.693  26.336   7.255
 5703POPC   NC371555   7.467  28.742   5.584
 5703POPC   PO471556   7.004  28.320   5.442
 5703POPC   GL171557   7.270  28.331   5.818
 5703POPC   GL271558   7.616  28.206   5.859
 5703POPC   C1A71559   7.312  28.506   6.234
 5703POPC   D2A71560   7.498  28.407   6.638
 5703POPC   C3A71561   7.368  28.566   7.004
 5703POPC   C4A71562   7.011  28.390   7.165
 5703POPC   C1B71563   7.451  28.016   6.223
 5703POPC   C2B71564   7.459  27.896   6.620
 5703POPC   C3B71565   7.191  27.959   6.954
 5703POPC   C4B71566   7.455  28.118   7.251
 5704POPC   NC371567  44.597   6.121   5.493
 5704POPC   PO471568  44.266   5.660   5.167
 5704POPC   GL171569  44.509   5.569   5.574
 5704POPC   GL271570  44.261   5.699   5.779
 5704POPC   C1A71571  44.740   5.688   6.025
 5704POPC   D2A71572  44.576   5.638   6.489
 5704POPC   C3A71573  44.779   5.639   6.923
 5704POPC   C4A71574  44.813   5.928   7.270
 5704POPC   C1B71575  44.354   5.983   6.149
 5704POPC   C2B71576  44.306   6.151   6.534
 5704POPC   C3B71577  44.338   5.911   6.897
 5704POPC   C4B71578  44.332   6.083   7.269
 5705POPC   NC371579  14.104  26.720   5.522
 5705POPC   PO471580  14.733  26.946   5.593
 5705POPC   GL171581  14.403  26.924   5.854
 5705POPC   GL271582  14.116  27.182   5.793
 5705POPC   C1A71583  14.325  26.723   6.240
 5705POPC   D2A71584  14.548  26.539   6.584
 5705POPC   C3A71585  14.492  26.727   6.997
 5705POPC   C4A71586  14.674  26.710   7.401
 5705POPC   C1B71587  14.346  27.263   6.196
 5705POPC   C2B71588  14.466  27.078   6.583
 5705POPC   C3B71589  14.656  27.227   6.936
 5705POPC   C4B71590  14.456  27.145   7.311
 5706POPC   NC371591  37.294  42.460   5.521
 5706POPC   PO471592  37.872  42.122   5.378
 5706POPC   GL171593  37.725  42.253   5.764
 5706POPC   GL271594  38.057  42.200   5.862
 5706POPC   C1A71595  37.618  42.388   6.203
 5706POPC   D2A71596  37.367  42.313   6.585
 5706POPC   C3A71597  37.474  42.289   7.008
 5706POPC   C4A71598  37.369  41.990   7.294
 5706POPC   C1B71599  38.102  42.195   6.301
 5706POPC   C2B71600  37.881  42.221   6.695
 5706POPC   C3B71601  37.986  42.172   7.128
 5706POPC   C4B71602  38.086  41.777   7.319
 5707POPC   NC371603   3.460  23.764   5.294
 5707POPC   PO471604   3.990  23.583   5.533
 5707POPC   GL171605   3.651  23.644   5.814
 5707POPC   GL271606   3.359  23.876   5.798
 5707POPC   C1A71607   3.665  23.643   6.258
 5707POPC   D2A71608   3.718  23.908   6.593
 5707POPC   C3A71609   3.846  23.760   6.999
 5707POPC   C4A71610   3.589  23.552   7.341
 5707POPC   C1B71611   3.161  23.731   6.207
 5707POPC   C2B71612   3.256  23.624   6.626
 5707POPC   C3B71613   3.341  23.846   7.021
 5707POPC   C4B71614   3.506  24.055   7.428
 5708POPC   NC371615  37.231  15.753   5.247
 5708POPC   PO471616  36.684  16.050   5.265
 5708POPC   GL171617  36.945  15.911   5.668
 5708POPC   GL271618  36.795  15.657   5.900
 5708POPC   C1A71619  37.090  16.011   6.121
 5708POPC   D2A71620  36.946  15.811   6.524
 5708POPC   C3A71621  36.900  16.005   6.920
 5708POPC   C4A71622  36.804  16.033   7.325
 5708POPC   C1B71623  37.164  15.498   6.153
 5708POPC   C2B71624  37.399  15.591   6.585
 5708POPC   C3B71625  37.212  15.586   6.994
 5708POPC   C4B71626  37.265  15.834   7.397
 5709POPC   NC371627  16.708  29.217   5.414
 5709POPC   PO471628  16.341  28.784   5.842
 5709POPC   GL171629  16.757  28.981   5.965
 5709POPC   GL271630  16.688  29.308   5.927
 5709POPC   C1A71631  17.021  29.280   6.275
 5709POPC   D2A71632  16.997  29.518   6.640
 5709POPC   C3A71633  16.845  29.259   6.975
 5709POPC   C4A71634  16.993  29.042   7.332
 5709POPC   C1B71635  16.540  29.585   6.315
 5709POPC   C2B71636  16.539  29.688   6.782
 5709POPC   C3B71637  16.426  29.456   7.182
 5709POPC   C4B71638  16.642  29.368   7.594
 5710POPC   NC371639  33.235  12.642   5.490
 5710POPC   PO471640  32.911  13.152   5.272
 5710POPC   GL171641  33.124  13.079   5.737
 5710POPC   GL271642  32.894  12.797   5.854
 5710POPC   C1A71643  33.066  13.036   6.252
 5710POPC   D2A71644  32.881  12.756   6.595
 5710POPC   C3A71645  32.804  12.940   6.969
 5710POPC   C4A71646  33.130  13.045   7.167
 5710POPC   C1B71647  33.044  12.477   6.206
 5710POPC   C2B71648  33.133  12.265   6.610
 5710POPC   C3B71649  33.112  12.505   6.988
 5710POPC   C4B71650  33.279  12.627   7.368
 5711POPC   NC371651  31.363   7.332   5.278
 5711POPC   PO471652  31.697   7.816   5.533
 5711POPC   GL171653  31.529   7.563   5.859
 5711POPC   GL271654  31.340   7.298   5.806
 5711POPC   C1A71655  31.573   7.339   6.249
 5711POPC   D2A71656  31.380   7.221   6.624
 5711POPC   C3A71657  31.725   7.200   6.897
 5711POPC   C4A71658  31.767   7.275   7.337
 5711POPC   C1B71659  31.078   7.224   6.177
 5711POPC   C2B71660  30.901   6.996   6.495
 5711POPC   C3B71661  31.075   6.882   6.863
 5711POPC   C4B71662  31.284   7.134   7.136
 5712POPC   NC371663  17.648  29.551   5.352
 5712POPC   PO471664  17.209  29.009   5.399
 5712POPC   GL171665  17.238  29.110   5.813
 5712POPC   GL271666  17.255  29.476   5.758
 5712POPC   C1A71667  17.348  28.908   6.225
 5712POPC   D2A71668  17.403  28.915   6.689
 5712POPC   C3A71669  17.362  29.245   6.984
 5712POPC   C4A71670  17.661  29.137   7.277
 5712POPC   C1B71671  17.608  29.347   6.061
 5712POPC   C2B71672  17.746  29.495   6.456
 5712POPC   C3B71673  17.805  29.485   6.894
 5712POPC   C4B71674  17.809  29.603   7.300
 5713POPC   NC371675  10.036  26.732   5.551
 5713POPC   PO471676  10.576  27.030   5.123
 5713POPC   GL171677  10.430  27.096   5.583
 5713POPC   GL271678  10.728  26.959   5.787
 5713POPC   C1A71679  10.300  27.106   6.052
 5713POPC   D2A71680  10.327  27.250   6.488
 5713POPC   C3A71681  10.229  26.985   6.862
 5713POPC   C4A71682  10.395  26.625   7.094
 5713POPC   C1B71683  10.587  26.646   6.123
 5713POPC   C2B71684  10.553  26.494   6.578
 5713POPC   C3B71685  10.857  26.489   6.888
 5713POPC   C4B71686  10.967  26.651   7.287
 5714POPC   NC371687  11.114   1.002   5.449
 5714POPC   PO471688  11.544   1.455   5.651
 5714POPC   GL171689  11.347   1.211   5.912
 5714POPC   GL271690  10.965   1.156   5.912
 5714POPC   C1A71691  11.606   1.261   6.282
 5714POPC   D2A71692  11.462   1.401   6.626
 5714POPC   C3A71693  11.349   1.096   6.933
 5714POPC   C4A71694  11.387   1.232   7.368
 5714POPC   C1B71695  11.069   1.160   6.355
 5714POPC   C2B71696  10.861   1.018   6.723
 5714POPC   C3B71697  10.970   0.764   7.057
 5714POPC   C4B71698  10.979   0.953   7.435
 5715POPC   NC371699  40.173  36.851   5.608
 5715POPC   PO471700  40.755  36.990   5.206
 5715POPC   GL171701  40.837  36.916   5.705
 5715POPC   GL271702  40.974  37.208   5.897
 5715POPC   C1A71703  41.077  36.771   6.111
 5715POPC   D2A71704  41.244  36.768   6.538
 5715POPC   C3A71705  41.134  37.093   6.870
 5715POPC   C4A71706  40.958  37.023   7.287
 5715POPC   C1B71707  40.708  37.125   6.272
 5715POPC   C2B71708  40.646  37.009   6.699
 5715POPC   C3B71709  40.550  37.234   7.046
 5715POPC   C4B71710  40.379  36.963   7.230
 5716POPC   NC371711   9.018  15.941   5.195
 5716POPC   PO471712   9.429  16.279   5.601
 5716POPC   GL171713   9.019  16.185   5.822
 5716POPC   GL271714   8.719  16.024   5.786
 5716POPC   C1A71715   9.000  15.938   6.210
 5716POPC   D2A71716   9.222  16.013   6.578
 5716POPC   C3A71717   9.063  15.840   6.910
 5716POPC   C4A71718   8.951  15.483   7.192
 5716POPC   C1B71719   8.609  16.266   6.169
 5716POPC   C2B71720   8.441  16.355   6.584
 5716POPC   C3B71721   8.735  16.270   6.893
 5716POPC   C4B71722   8.690  15.975   7.206
 5717POPC   NC371723  42.113  14.003   5.444
 5717POPC   PO471724  42.086  14.703   5.407
 5717POPC   GL171725  42.192  14.573   5.783
 5717POPC   GL271726  42.335  14.278   5.823
 5717POPC   C1A71727  42.171  14.679   6.177
 5717POPC   D2A71728  42.382  14.710   6.536
 5717POPC   C3A71729  42.223  14.589   6.885
 5717POPC   C4A71730  42.287  14.734   7.268
 5717POPC   C1B71731  42.551  14.333   6.209
 5717POPC   C2B71732  42.518  14.230   6.643
 5717POPC   C3B71733  42.557  14.281   7.095
 5717POPC   C4B71734  42.237  14.119   7.367
 5718POPC   NC371735  10.286   0.631   5.500
 5718POPC   PO471736  10.831   0.266   5.629
 5718POPC   GL171737  10.504   0.371   5.889
 5718POPC   GL271738  10.633   0.698   5.922
 5718POPC   C1A71739  10.468   0.374   6.340
 5718POPC   D2A71740  10.725   0.529   6.663
 5718POPC   C3A71741  10.791   0.273   7.022
 5718POPC   C4A71742  10.421   0.107   7.217
 5718POPC   C1B71743  10.579   0.942   6.291
 5718POPC   C2B71744  10.324   0.877   6.664
 5718POPC   C3B71745  10.348   0.580   7.013
 5718POPC   C4B71746  10.604   0.590   7.383
 5719POPC   NC371747  40.156  19.152   5.248
 5719POPC   PO471748  39.878  18.584   5.404
 5719POPC   GL171749  39.965  18.835   5.772
 5719POPC   GL271750  40.007  19.188   5.747
 5719POPC   C1A71751  40.096  18.889   6.186
 5719POPC   D2A71752  39.870  18.773   6.540
 5719POPC   C3A71753  40.039  18.803   6.926
 5719POPC   C4A71754  39.789  18.793   7.285
 5719POPC   C1B71755  40.158  19.392   6.131
 5719POPC   C2B71756  40.120  19.240   6.576
 5719POPC   C3B71757  39.931  19.281   6.997
 5719POPC   C4B71758  40.218  19.093   7.330
 5720POPC   NC371759  36.938   6.829   4.915
 5720POPC   PO471760  36.726   6.356   5.365
 5720POPC   GL171761  36.806   6.622   5.729
 5720POPC   GL271762  36.486   6.564   5.923
 5720POPC   C1A71763  36.948   6.548   6.134
 5720POPC   D2A71764  36.719   6.339   6.430
 5720POPC   C3A71765  36.819   6.422   6.857
 5720POPC   C4A71766  36.848   6.269   7.288
 5720POPC   C1B71767  36.517   6.790   6.330
 5720POPC   C2B71768  36.575   7.104   6.656
 5720POPC   C3B71769  36.566   6.841   7.002
 5720POPC   C4B71770  36.803   6.769   7.353
 5721POPC   NC371771  34.890  28.376   5.528
 5721POPC   PO471772  34.343  28.054   5.257
 5721POPC   GL171773  34.456  28.160   5.801
 5721POPC   GL271774  34.647  28.436   5.949
 5721POPC   C1A71775  34.378  28.261   6.323
 5721POPC   D2A71776  34.333  28.194   6.802
 5721POPC   C3A71777  34.509  28.483   7.116
 5721POPC   C4A71778  34.758  28.454   7.495
 5721POPC   C1B71779  34.924  28.496   6.262
 5721POPC   C2B71780  34.854  28.442   6.679
 5721POPC   C3B71781  35.042  28.559   7.042
 5721POPC   C4B71782  35.005  28.929   7.280
 5722POPC   NC371783  24.113  26.721   5.461
 5722POPC   PO471784  23.401  26.876   5.439
 5722POPC   GL171785  23.637  26.962   5.834
 5722POPC   GL271786  24.005  27.085   5.819
 5722POPC   C1A71787  23.514  26.763   6.227
 5722POPC   D2A71788  23.336  26.559   6.574
 5722POPC   C3A71789  23.311  26.703   6.947
 5722POPC   C4A71790  23.403  26.664   7.340
 5722POPC   C1B71791  24.035  26.812   6.172
 5722POPC   C2B71792  23.888  26.825   6.579
 5722POPC   C3B71793  23.822  26.793   6.980
 5722POPC   C4B71794  23.898  26.910   7.382
 5723POPC   NC371795  15.533  32.421   5.409
 5723POPC   PO471796  15.992  32.054   5.419
 5723POPC   GL171797  16.093  32.258   5.821
 5723POPC   GL271798  16.293  32.529   5.688
 5723POPC   C1A71799  16.003  32.250   6.275
 5723POPC   D2A71800  15.826  32.064   6.633
 5723POPC   C3A71801  15.934  32.287   6.953
 5723POPC   C4A71802  16.055  32.257   7.361
 5723POPC   C1B71803  16.365  32.600   6.155
 5723POPC   C2B71804  16.334  32.462   6.617
 5723POPC   C3B71805  16.287  32.649   7.025
 5723POPC   C4B71806  16.347  32.674   7.462
 5724POPC   NC371807  24.496  34.353   5.305
 5724POPC   PO471808  24.845  34.938   5.127
 5724POPC   GL171809  24.592  34.806   5.536
 5724POPC   GL271810  24.731  34.516   5.742
 5724POPC   C1A71811  24.330  34.800   5.969
 5724POPC   D2A71812  24.436  34.878   6.454
 5724POPC   C3A71813  24.333  34.640   6.844
 5724POPC   C4A71814  24.284  34.458   7.286
 5724POPC   C1B71815  24.642  34.473   6.204
 5724POPC   C2B71816  24.424  34.173   6.512
 5724POPC   C3B71817  24.510  34.118   6.943
 5724POPC   C4B71818  24.760  34.471   7.098
 5725POPC   NC371819  40.400  18.238   5.608
 5725POPC   PO471820  39.719  17.901   5.563
 5725POPC   GL171821  39.951  18.144   5.831
 5725POPC   GL271822  40.256  17.987   6.014
 5725POPC   C1A71823  39.925  18.406   6.164
 5725POPC   D2A71824  40.118  18.320   6.542
 5725POPC   C3A71825  39.988  18.310   6.976
 5725POPC   C4A71826  40.177  18.485   7.334
 5725POPC   C1B71827  40.557  18.050   6.344
 5725POPC   C2B71828  40.474  18.049   6.758
 5725POPC   C3B71829  40.227  17.879   7.080
 5725POPC   C4B71830  40.104  18.009   7.477
 5726POPC   NC371831   5.011  10.017   5.456
 5726POPC   PO471832   5.283   9.413   5.301
 5726POPC   GL171833   5.241   9.553   5.762
 5726POPC   GL271834   4.892   9.650   5.818
 5726POPC   C1A71835   5.142   9.567   6.251
 5726POPC   D2A71836   5.289   9.741   6.666
 5726POPC   C3A71837   5.272   9.405   6.973
 5726POPC   C4A71838   5.002   9.281   7.358
 5726POPC   C1B71839   4.915  10.027   6.138
 5726POPC   C2B71840   4.773  10.138   6.577
 5726POPC   C3B71841   4.675  10.023   6.979
 5726POPC   C4B71842   4.995   9.779   7.140
 5727POPC   NC371843  38.278  39.447   5.478
 5727POPC   PO471844  38.640  38.892   5.512
 5727POPC   GL171845  38.550  39.192   5.847
 5727POPC   GL271846  38.195  39.179   5.931
 5727POPC   C1A71847  38.586  39.177   6.307
 5727POPC   D2A71848  38.309  39.172   6.689
 5727POPC   C3A71849  38.571  39.120   7.044
 5727POPC   C4A71850  38.513  38.933   7.465
 5727POPC   C1B71851  38.176  39.483   6.286
 5727POPC   C2B71852  38.470  39.652   6.602
 5727POPC   C3B71853  38.382  39.611   7.020
 5727POPC   C4B71854  37.979  39.524   7.194
 5728POPC   NC371855   9.665  27.956   5.387
 5728POPC   PO471856   9.934  27.350   5.555
 5728POPC   GL171857   9.868  27.552   5.927
 5728POPC   GL271858   9.918  27.881   5.837
 5728POPC   C1A71859   9.891  27.498   6.388
 5728POPC   D2A71860   9.984  27.506   6.848
 5728POPC   C3A71861   9.591  27.635   7.052
 5728POPC   C4A71862   9.281  27.447   7.345
 5728POPC   C1B71863   9.996  28.024   6.253
 5728POPC   C2B71864   9.814  28.087   6.665
 5728POPC   C3B71865  10.045  28.101   7.034
 5728POPC   C4B71866  10.290  27.800   7.209
 5729POPC   NC371867  38.355  12.795   5.150
 5729POPC   PO471868  38.341  13.427   5.261
 5729POPC   GL171869  38.449  13.069   5.634
 5729POPC   GL271870  38.467  12.657   5.652
 5729POPC   C1A71871  38.410  12.922   6.118
 5729POPC   D2A71872  38.650  13.018   6.531
 5729POPC   C3A71873  38.455  13.046   6.901
 5729POPC   C4A71874  38.496  13.238   7.283
 5729POPC   C1B71875  38.640  12.457   6.062
 5729POPC   C2B71876  38.515  12.525   6.486
 5729POPC   C3B71877  38.636  12.548   6.900
 5729POPC   C4B71878  38.446  12.700   7.269
 5730POPC   NC371879  40.188  27.908   5.535
 5730POPC   PO471880  40.029  27.256   5.441
 5730POPC   GL171881  39.851  27.479   5.802
 5730POPC   GL271882  39.727  27.847   5.797
 5730POPC   C1A71883  40.123  27.544   6.171
 5730POPC   D2A71884  40.337  27.606   6.571
 5730POPC   C3A71885  40.200  27.456   7.002
 5730POPC   C4A71886  40.246  27.525   7.485
 5730POPC   C1B71887  39.667  27.770   6.223
 5730POPC   C2B71888  39.823  27.617   6.594
 5730POPC   C3B71889  39.676  27.581   6.989
 5730POPC   C4B71890  39.864  27.782   7.316
 5731POPC   NC371891  34.560  29.298   5.328
 5731POPC   PO471892  34.458  28.581   5.498
 5731POPC   GL171893  34.288  28.776   5.830
 5731POPC   GL271894  34.393  29.099   5.773
 5731POPC   C1A71895  34.435  28.811   6.250
 5731POPC   D2A71896  34.392  28.689   6.654
 5731POPC   C3A71897  34.642  28.928   6.926
 5731POPC   C4A71898  34.474  29.055   7.320
 5731POPC   C1B71899  34.547  29.301   6.148
 5731POPC   C2B71900  34.485  29.279   6.586
 5731POPC   C3B71901  34.529  29.442   7.007
 5731POPC   C4B71902  34.519  29.584   7.462
 5732POPC   NC371903  27.062  22.326   5.680
 5732POPC   PO471904  26.489  22.007   5.459
 5732POPC   GL171905  26.519  22.316   5.769
 5732POPC   GL271906  26.706  22.118   5.951
 5732POPC   C1A71907  26.555  22.528   6.175
 5732POPC   D2A71908  26.631  22.605   6.598
 5732POPC   C3A71909  26.746  22.241   6.841
 5732POPC   C4A71910  26.614  22.379   7.231
 5732POPC   C1B71911  26.927  22.213   6.336
 5732POPC   C2B71912  27.042  21.896   6.594
 5732POPC   C3B71913  26.985  21.754   6.971
 5732POPC   C4B71914  26.935  22.002   7.307
 5733POPC   NC371915  39.230  12.407   5.106
 5733POPC   PO471916  39.281  11.844   5.493
 5733POPC   GL171917  39.234  11.945   5.870
 5733POPC   GL271918  39.286  12.305   5.880
 5733POPC   C1A71919  39.021  12.055   6.238
 5733POPC   D2A71920  38.998  12.333   6.577
 5733POPC   C3A71921  38.955  12.106   6.972
 5733POPC   C4A71922  39.043  12.109   7.435
 5733POPC   C1B71923  39.389  12.504   6.224
 5733POPC   C2B71924  39.524  12.504   6.596
 5733POPC   C3B71925  39.352  12.448   6.953
 5733POPC   C4B71926  39.489  12.395   7.356
 5734POPC   NC371927  29.664  15.134   5.540
 5734POPC   PO471928  30.221  15.133   5.161
 5734POPC   GL171929  30.218  14.889   5.642
 5734POPC   GL271930  29.904  14.786   5.858
 5734POPC   C1A71931  30.276  14.948   6.170
 5734POPC   D2A71932  30.326  15.233   6.560
 5734POPC   C3A71933  30.141  15.253   7.040
 5734POPC   C4A71934  30.165  15.422   7.515
 5734POPC   C1B71935  29.753  15.089   6.218
 5734POPC   C2B71936  29.829  15.126   6.645
 5734POPC   C3B71937  29.661  15.034   7.014
 5734POPC   C4B71938  29.705  15.252   7.363
 5735POPC   NC371939   2.545   6.599   5.432
 5735POPC   PO471940   3.194   6.682   5.619
 5735POPC   GL171941   2.839   6.508   5.848
 5735POPC   GL271942   2.532   6.720   5.916
 5735POPC   C1A71943   2.919   6.526   6.268
 5735POPC   D2A71944   3.161   6.735   6.574
 5735POPC   C3A71945   3.034   6.602   7.013
 5735POPC   C4A71946   2.880   6.750   7.442
 5735POPC   C1B71947   2.440   6.692   6.333
 5735POPC   C2B71948   2.665   6.743   6.684
 5735POPC   C3B71949   2.649   6.972   7.047
 5735POPC   C4B71950   2.381   6.778   7.321
 5736POPC   NC371951  36.318  23.249   5.402
 5736POPC   PO471952  35.787  22.860   5.367
 5736POPC   GL171953  36.017  22.863   5.782
 5736POPC   GL271954  36.286  23.087   5.918
 5736POPC   C1A71955  35.946  22.863   6.244
 5736POPC   D2A71956  35.852  23.186   6.562
 5736POPC   C3A71957  35.817  23.120   6.991
 5736POPC   C4A71958  35.977  22.765   7.239
 5736POPC   C1B71959  36.352  23.154   6.403
 5736POPC   C2B71960  36.320  23.055   6.861
 5736POPC   C3B71961  36.462  22.711   7.147
 5736POPC   C4B71962  36.396  22.555   7.552
 5737POPC   NC371963  41.253  23.865   5.604
 5737POPC   PO471964  41.779  23.528   5.553
 5737POPC   GL171965  41.603  23.635   5.911
 5737POPC   GL271966  41.313  23.437   5.901
 5737POPC   C1A71967  41.703  23.762   6.318
 5737POPC   D2A71968  41.501  23.959   6.667
 5737POPC   C3A71969  41.682  23.849   7.074
 5737POPC   C4A71970  41.633  23.953   7.506
 5737POPC   C1B71971  41.178  23.647   6.246
 5737POPC   C2B71972  41.009  23.686   6.635
 5737POPC   C3B71973  41.192  23.694   7.018
 5737POPC   C4B71974  41.311  23.579   7.418
 5738POPC   NC371975  12.665   7.056   5.457
 5738POPC   PO471976  13.106   7.691   5.458
 5738POPC   GL171977  12.925   7.559   5.853
 5738POPC   GL271978  12.950   7.192   5.855
 5738POPC   C1A71979  12.670   7.759   6.198
 5738POPC   D2A71980  12.661   7.898   6.625
 5738POPC   C3A71981  12.788   7.614   6.926
 5738POPC   C4A71982  12.658   7.746   7.286
 5738POPC   C1B71983  12.577   7.247   6.106
 5738POPC   C2B71984  12.735   7.315   6.506
 5738POPC   C3B71985  12.707   7.106   6.877
 5738POPC   C4B71986  12.670   7.246   7.272
 5739POPC   NC371987  35.140  20.833   5.394
 5739POPC   PO471988  35.714  20.372   5.352
 5739POPC   GL171989  35.498  20.610   5.684
 5739POPC   GL271990  35.298  20.313   5.730
 5739POPC   C1A71991  35.253  20.655   6.111
 5739POPC   D2A71992  35.039  20.842   6.509
 5739POPC   C3A71993  35.228  20.733   6.930
 5739POPC   C4A71994  35.126  20.717   7.396
 5739POPC   C1B71995  35.641  20.277   6.063
 5739POPC   C2B71996  35.726  20.135   6.511
 5739POPC   C3B71997  35.703  20.210   6.971
 5739POPC   C4B71998  35.610  20.598   7.266
 5740POPC   NC371999   9.161  35.241   5.525
 5740POPC   PO472000   8.478  35.601   5.338
 5740POPC   GL172001   8.788  35.484   5.731
 5740POPC   GL272002   8.772  35.110   5.821
 5740POPC   C1A72003   9.064  35.508   6.155
 5740POPC   D2A72004   9.288  35.470   6.600
 5740POPC   C3A72005   9.121  35.418   7.057
 5740POPC   C4A72006   9.175  35.630   7.500
 5740POPC   C1B72007   8.988  34.981   6.214
 5740POPC   C2B72008   9.229  34.944   6.602
 5740POPC   C3B72009   9.138  34.869   7.034
 5740POPC   C4B72010   8.865  34.957   7.359
 5741POPC   NC372011  31.910  17.939   5.375
 5741POPC   PO472012  32.291  17.432   5.405
 5741POPC   GL172013  32.309  17.480   5.843
 5741POPC   GL272014  32.538  17.742   5.932
 5741POPC   C1A72015  32.284  17.174   6.199
 5741POPC   D2A72016  32.395  17.173   6.627
 5741POPC   C3A72017  32.126  17.417   6.893
 5741POPC   C4A72018  32.008  17.338   7.305
 5741POPC   C1B72019  32.279  17.681   6.334
 5741POPC   C2B72020  32.230  17.890   6.752
 5741POPC   C3B72021  32.200  17.854   7.192
 5741POPC   C4B72022  32.328  18.067   7.545
 5742POPC   NC372023   0.942  35.394   5.322
 5742POPC   PO472024   0.316  35.558   5.375
 5742POPC   GL172025   0.317  35.445   5.841
 5742POPC   GL272026   0.590  35.309   5.862
 5742POPC   C1A72027   0.206  35.647   6.262
 5742POPC   D2A72028   0.353  35.721   6.690
 5742POPC   C3A72029   0.357  35.359   6.933
 5742POPC   C4A72030   0.186  35.383   7.325
 5742POPC   C1B72031   0.406  35.180   6.303
 5742POPC   C2B72032   0.605  34.992   6.665
 5742POPC   C3B72033   0.722  34.907   7.070
 5742POPC   C4B72034   0.636  35.193   7.361
 5743POPC   NC372035  28.406  30.154   5.604
 5743POPC   PO472036  28.031  29.797   5.191
 5743POPC   GL172037  28.283  29.655   5.679
 5743POPC   GL272038  28.023  29.536   5.868
 5743POPC   C1A72039  28.454  29.782   6.191
 5743POPC   D2A72040  28.337  30.052   6.624
 5743POPC   C3A72041  28.449  30.124   7.097
 5743POPC   C4A72042  28.556  29.873   7.466
 5743POPC   C1B72043  28.195  29.365   6.262
 5743POPC   C2B72044  28.467  29.404   6.612
 5743POPC   C3B72045  28.407  29.630   6.985
 5743POPC   C4B72046  28.215  29.522   7.403
 5744POPC   NC372047   4.524  15.958   5.444
 5744POPC   PO472048   3.864  15.837   5.486
 5744POPC   GL172049   4.178  15.890   5.805
 5744POPC   GL272050   4.300  16.238   5.794
 5744POPC   C1A72051   4.468  15.786   6.146
 5744POPC   D2A72052   4.638  15.762   6.573
 5744POPC   C3A72053   4.252  15.740   6.812
 5744POPC   C4A72054   4.267  15.821   7.248
 5744POPC   C1B72055   4.565  16.295   6.140
 5744POPC   C2B72056   4.407  16.185   6.506
 5744POPC   C3B72057   4.513  16.175   6.934
 5744POPC   C4B72058   4.412  16.305   7.343
 5745POPC   NC372059  36.408  12.258   5.391
 5745POPC   PO472060  35.757  12.244   5.605
 5745POPC   GL172061  36.042  12.013   5.857
 5745POPC   GL272062  35.861  11.709   5.897
 5745POPC   C1A72063  36.195  12.174   6.253
 5745POPC   D2A72064  36.093  12.476   6.587
 5745POPC   C3A72065  36.001  12.297   7.005
 5745POPC   C4A72066  36.317  12.066   7.241
 5745POPC   C1B72067  36.047  11.697   6.350
 5745POPC   C2B72068  36.089  11.786   6.822
 5745POPC   C3B72069  35.899  11.771   7.250
 5745POPC   C4B72070  35.882  11.732   7.746
 5746POPC   NC372071  38.007  12.409   5.351
 5746POPC   PO472072  37.492  11.951   5.451
 5746POPC   GL172073  37.391  12.086   5.850
 5746POPC   GL272074  37.695  12.304   5.783
 5746POPC   C1A72075  37.226  12.046   6.249
 5746POPC   D2A72076  37.503  12.038   6.573
 5746POPC   C3A72077  37.371  11.989   6.948
 5746POPC   C4A72078  37.604  12.025   7.282
 5746POPC   C1B72079  37.799  12.021   6.133
 5746POPC   C2B72080  38.027  12.043   6.510
 5746POPC   C3B72081  37.936  11.934   6.921
 5746POPC   C4B72082  38.167  11.768   7.285
 5747POPC   NC372083  23.242   1.256   5.259
 5747POPC   PO472084  22.588   0.970   5.445
 5747POPC   GL172085  22.746   1.177   5.788
 5747POPC   GL272086  23.093   1.263   5.743
 5747POPC   C1A72087  22.619   1.282   6.196
 5747POPC   D2A72088  22.627   1.579   6.517
 5747POPC   C3A72089  22.816   1.360   6.854
 5747POPC   C4A72090  22.853   1.298   7.256
 5747POPC   C1B72091  23.091   1.492   6.113
 5747POPC   C2B72092  23.209   1.370   6.522
 5747POPC   C3B72093  23.259   1.061   6.859
 5747POPC   C4B72094  23.111   0.847   7.238
 5748POPC   NC372095  35.313  32.050   5.556
 5748POPC   PO472096  34.637  32.075   5.362
 5748POPC   GL172097  34.533  31.961   5.798
 5748POPC   GL272098  34.552  32.306   5.871
 5748POPC   C1A72099  34.669  31.993   6.264
 5748POPC   D2A72100  34.619  32.171   6.690
 5748POPC   C3A72101  34.731  32.015   7.106
 5748POPC   C4A72102  34.638  32.238   7.494
 5748POPC   C1B72103  34.650  32.503   6.267
 5748POPC   C2B72104  34.750  32.678   6.652
 5748POPC   C3B72105  34.630  32.556   7.034
 5748POPC   C4B72106  34.589  32.733   7.405
 5749POPC   NC372107  19.415  42.130   5.609
 5749POPC   PO472108  19.602  42.766   5.293
 5749POPC   GL172109  19.639  42.606   5.756
 5749POPC   GL272110  19.926  42.411   5.739
 5749POPC   C1A72111  19.672  42.348   6.186
 5749POPC   D2A72112  19.625  42.201   6.624
 5749POPC   C3A72113  19.711  42.477   6.943
 5749POPC   C4A72114  20.025  42.694   7.197
 5749POPC   C1B72115  20.112  42.617   6.159
 5749POPC   C2B72116  20.163  42.549   6.640
 5749POPC   C3B72117  20.111  42.155   6.876
 5749POPC   C4B72118  19.963  42.020   7.290
 5750POPC   NC372119   4.805  28.649   5.273
 5750POPC   PO472120   5.278  28.190   5.401
 5750POPC   GL172121   5.167  28.355   5.803
 5750POPC   GL272122   4.921  28.597   5.793
 5750POPC   C1A72123   4.892  28.304   6.202
 5750POPC   D2A72124   4.851  28.531   6.614
 5750POPC   C3A72125   4.771  28.318   7.019
 5750POPC   C4A72126   5.094  28.098   7.208
 5750POPC   C1B72127   5.251  28.672   6.183
 5750POPC   C2B72128   5.355  28.753   6.630
 5750POPC   C3B72129   5.165  28.647   7.013
 5750POPC   C4B72130   4.788  28.825   7.089
 5751POPC   NC372131  42.160  12.405   5.481
 5751POPC   PO472132  42.595  12.885   5.331
 5751POPC   GL172133  42.512  12.875   5.800
 5751POPC   GL272134  42.252  12.616   5.919
 5751POPC   C1A72135  42.433  12.903   6.272
 5751POPC   D2A72136  42.302  12.632   6.575
 5751POPC   C3A72137  42.358  12.947   6.853
 5751POPC   C4A72138  42.387  12.911   7.258
 5751POPC   C1B72139  42.617  12.454   6.135
 5751POPC   C2B72140  42.758  12.376   6.571
 5751POPC   C3B72141  42.609  12.495   7.009
 5751POPC   C4B72142  42.155  12.486   7.098
 5752POPC   NC372143  23.415   3.009   5.381
 5752POPC   PO472144  23.758   2.464   5.164
 5752POPC   GL172145  23.724   2.546   5.658
 5752POPC   GL272146  23.750   2.917   5.749
 5752POPC   C1A72147  23.508   2.609   6.082
 5752POPC   D2A72148  23.376   2.582   6.512
 5752POPC   C3A72149  23.449   2.316   6.849
 5752POPC   C4A72150  23.777   2.483   7.108
 5752POPC   C1B72151  23.880   2.955   6.180
 5752POPC   C2B72152  23.597   3.050   6.542
 5752POPC   C3B72153  23.614   2.975   6.967
 5752POPC   C4B72154  23.326   3.180   7.252
 5753POPC   NC372155   3.598  25.642   5.400
 5753POPC   PO472156   3.464  24.965   5.358
 5753POPC   GL172157   3.541  25.226   5.742
 5753POPC   GL272158   3.486  25.575   5.892
 5753POPC   C1A72159   3.656  25.181   6.173
 5753POPC   D2A72160   3.450  25.121   6.548
 5753POPC   C3A72161   3.684  25.296   6.877
 5753POPC   C4A72162   3.632  25.166   7.274
 5753POPC   C1B72163   3.301  25.583   6.295
 5753POPC   C2B72164   3.271  25.577   6.729
 5753POPC   C3B72165   3.248  25.506   7.167
 5753POPC   C4B72166   3.362  25.488   7.596
 5754POPC   NC372167  31.053  38.094   5.652
 5754POPC   PO472168  30.521  37.753   5.386
 5754POPC   GL172169  30.547  37.689   5.811
 5754POPC   GL272170  30.882  37.574   5.869
 5754POPC   C1A72171  30.477  37.580   6.251
 5754POPC   D2A72172  30.778  37.396   6.528
 5754POPC   C3A72173  30.728  37.605   6.941
 5754POPC   C4A72174  30.704  37.493   7.366
 5754POPC   C1B72175  30.878  37.867   6.210
 5754POPC   C2B72176  30.629  37.969   6.570
 5754POPC   C3B72177  30.759  38.108   6.960
 5754POPC   C4B72178  30.879  37.967   7.361
 5755POPC   NC372179  19.177  20.872   5.401
 5755POPC   PO472180  18.770  20.360   5.329
 5755POPC   GL172181  18.859  20.655   5.760
 5755POPC   GL272182  19.200  20.737   5.877
 5755POPC   C1A72183  18.904  20.742   6.262
 5755POPC   D2A72184  19.108  20.527   6.596
 5755POPC   C3A72185  18.861  20.417   6.946
 5755POPC   C4A72186  19.089  20.499   7.311
 5755POPC   C1B72187  19.395  20.983   6.221
 5755POPC   C2B72188  19.247  21.018   6.612
 5755POPC   C3B72189  19.159  20.886   6.983
 5755POPC   C4B72190  19.293  20.958   7.399
 5756POPC   NC372191  34.825  36.321   5.476
 5756POPC   PO472192  34.325  35.834   5.601
 5756POPC   GL172193  34.640  35.883   5.902
 5756POPC   GL272194  34.628  36.236   5.975
 5756POPC   C1A72195  34.730  35.893   6.357
 5756POPC   D2A72196  34.690  36.330   6.544
 5756POPC   C3A72197  34.574  36.345   6.986
 5756POPC   C4A72198  34.615  35.921   7.116
 5756POPC   C1B72199  34.269  36.071   6.278
 5756POPC   C2B72200  34.282  36.017   6.726
 5756POPC   C3B72201  34.104  36.046   7.157
 5756POPC   C4B72202  34.351  36.209   7.504
 5757POPC   NC372203  31.003   2.210   5.334
 5757POPC   PO472204  31.664   2.040   5.400
 5757POPC   GL172205  31.484   2.156   5.786
 5757POPC   GL272206  31.153   1.999   5.760
 5757POPC   C1A72207  31.588   2.204   6.215
 5757POPC   D2A72208  31.718   2.027   6.601
 5757POPC   C3A72209  31.519   2.197   6.912
 5757POPC   C4A72210  31.596   2.166   7.300
 5757POPC   C1B72211  31.124   1.924   6.152
 5757POPC   C2B72212  31.220   2.020   6.537
 5757POPC   C3B72213  31.185   1.791   6.928
 5757POPC   C4B72214  31.237   1.832   7.359
 5758POPC   NC372215  18.929  44.591   5.430
 5758POPC   PO472216  19.413   0.142   5.463
 5758POPC   GL172217  19.256  44.800   5.799
 5758POPC   GL272218  19.178  44.420   5.846
 5758POPC   C1A72219  19.157  44.728   6.251
 5758POPC   D2A72220  18.952  44.924   6.608
 5758POPC   C3A72221  18.708  44.708   6.918
 5758POPC   C4A72222  18.787  44.607   7.323
 5758POPC   C1B72223  19.350  44.260   6.239
 5758POPC   C2B72224  19.344  44.414   6.685
 5758POPC   C3B72225  19.224  44.709   7.028
 5758POPC   C4B72226  19.276  44.728   7.498
 5759POPC   NC372227  41.972  37.150   5.312
 5759POPC   PO472228  42.525  36.753   5.380
 5759POPC   GL172229  42.370  36.850   5.806
 5759POPC   GL272230  42.002  36.947   5.813
 5759POPC   C1A72231  42.299  37.080   6.218
 5759POPC   D2A72232  42.098  37.227   6.590
 5759POPC   C3A72233  42.420  37.247   6.925
 5759POPC   C4A72234  42.624  36.935   7.171
 5759POPC   C1B72235  42.092  36.629   6.179
 5759POPC   C2B72236  42.269  36.730   6.628
 5759POPC   C3B72237  42.075  36.894   7.034
 5759POPC   C4B72238  42.010  37.313   7.284
 5760POPC   NC372239  39.237  33.225   5.392
 5760POPC   PO472240  39.486  32.665   5.577
 5760POPC   GL172241  39.473  33.095   5.806
 5760POPC   GL272242  39.129  33.120   5.891
 5760POPC   C1A72243  39.507  33.284   6.212
 5760POPC   D2A72244  39.524  33.048   6.596
 5760POPC   C3A72245  39.482  33.196   6.977
 5760POPC   C4A72246  39.464  33.009   7.363
 5760POPC   C1B72247  38.897  33.011   6.276
 5760POPC   C2B72248  38.993  32.937   6.734
 5760POPC   C3B72249  38.999  33.131   7.173
 5760POPC   C4B72250  38.802  33.089   7.605
 5761POPC   NC372251  19.472  27.499   5.395
 5761POPC   PO472252  18.828  27.669   5.388
 5761POPC   GL172253  18.944  27.666   5.834
 5761POPC   GL272254  19.130  27.417   5.783
 5761POPC   C1A72255  19.136  27.697   6.286
 5761POPC   D2A72256  19.321  27.716   6.731
 5761POPC   C3A72257  19.085  27.594   7.112
 5761POPC   C4A72258  19.025  27.649   7.569
 5761POPC   C1B72259  18.918  27.257   6.181
 5761POPC   C2B72260  18.861  27.066   6.599
 5761POPC   C3B72261  19.081  27.052   6.997
 5761POPC   C4B72262  18.944  27.179   7.401
 5762POPC   NC372263  19.298  14.784   5.519
 5762POPC   PO472264  19.117  14.087   5.352
 5762POPC   GL172265  19.169  14.271   5.750
 5762POPC   GL272266  18.872  14.473   5.737
 5762POPC   C1A72267  19.293  14.200   6.188
 5762POPC   D2A72268  19.177  14.420   6.575
 5762POPC   C3A72269  19.353  14.342   6.950
 5762POPC   C4A72270  19.374  14.230   7.342
 5762POPC   C1B72271  18.953  14.616   6.145
 5762POPC   C2B72272  18.711  14.611   6.500
 5762POPC   C3B72273  18.826  14.684   6.886
 5762POPC   C4B72274  18.955  14.557   7.243
 5763POPC   NC372275  32.799  26.726   5.473
 5763POPC   PO472276  32.256  27.113   5.373
 5763POPC   GL172277  32.310  26.817   5.703
 5763POPC   GL272278  32.586  26.961   5.871
 5763POPC   C1A72279  32.195  26.688   6.146
 5763POPC   D2A72280  32.051  26.463   6.567
 5763POPC   C3A72281  31.881  26.670   6.992
 5763POPC   C4A72282  31.944  26.782   7.469
 5763POPC   C1B72283  32.803  27.089   6.230
 5763POPC   C2B72284  32.592  27.146   6.596
 5763POPC   C3B72285  32.312  26.896   6.801
 5763POPC   C4B72286  32.373  26.853   7.224
 5764POPC   NC372287  22.247  43.426   5.533
 5764POPC   PO472288  21.711  43.793   5.396
 5764POPC   GL172289  21.913  43.767   5.818
 5764POPC   GL272290  21.850  43.416   5.854
 5764POPC   C1A72291  22.087  43.922   6.260
 5764POPC   D2A72292  22.329  44.193   6.587
 5764POPC   C3A72293  22.345  44.070   7.041
 5764POPC   C4A72294  22.081  43.946   7.411
 5764POPC   C1B72295  22.031  43.402   6.241
 5764POPC   C2B72296  22.271  43.501   6.600
 5764POPC   C3B72297  22.123  43.615   7.003
 5764POPC   C4B72298  22.088  43.438   7.386
 5765POPC   NC372299  23.679  39.581   5.370
 5765POPC   PO472300  23.657  40.227   5.402
 5765POPC   GL172301  23.572  40.042   5.785
 5765POPC   GL272302  23.298  39.814   5.674
 5765POPC   C1A72303  23.538  40.095   6.243
 5765POPC   D2A72304  23.251  39.975   6.557
 5765POPC   C3A72305  23.416  40.109   6.951
 5765POPC   C4A72306  23.792  40.172   7.202
 5765POPC   C1B72307  23.409  39.639   6.067
 5765POPC   C2B72308  23.624  39.605   6.438
 5765POPC   C3B72309  23.493  39.609   6.848
 5765POPC   C4B72310  23.626  39.701   7.243
 5766POPC   NC372311  10.353   3.737   5.325
 5766POPC   PO472312  11.032   3.446   5.323
 5766POPC   GL172313  10.642   3.538   5.691
 5766POPC   GL272314  10.287   3.762   5.818
 5766POPC   C1A72315  10.605   3.595   6.150
 5766POPC   D2A72316  10.424   3.782   6.480
 5766POPC   C3A72317  10.592   3.565   6.808
 5766POPC   C4A72318  10.447   3.753   7.144
 5766POPC   C1B72319  10.109   3.475   6.160
 5766POPC   C2B72320  10.251   3.283   6.559
 5766POPC   C3B72321  10.120   3.365   7.001
 5766POPC   C4B72322   9.989   3.607   7.394
 5767POPC   NC372323  37.108  16.740   5.147
 5767POPC   PO472324  36.496  16.785   5.432
 5767POPC   GL172325  36.766  16.796   5.790
 5767POPC   GL272326  36.533  16.769   6.039
 5767POPC   C1A72327  37.018  16.552   6.127
 5767POPC   D2A72328  36.976  16.347   6.537
 5767POPC   C3A72329  37.086  16.503   6.960
 5767POPC   C4A72330  36.828  16.532   7.326
 5767POPC   C1B72331  36.826  17.016   6.268
 5767POPC   C2B72332  36.968  16.913   6.649
 5767POPC   C3B72333  36.677  16.857   6.967
 5767POPC   C4B72334  36.647  17.021   7.381
 5768POPC   NC372335  17.791  31.198   5.467
 5768POPC   PO472336  17.737  30.493   5.298
 5768POPC   GL172337  17.600  30.584   5.760
 5768POPC   GL272338  17.900  30.604   5.930
 5768POPC   C1A72339  17.472  30.646   6.195
 5768POPC   D2A72340  17.556  30.813   6.562
 5768POPC   C3A72341  17.633  30.564   6.906
 5768POPC   C4A72342  17.282  30.353   7.028
 5768POPC   C1B72343  17.875  30.996   6.101
 5768POPC   C2B72344  17.976  31.106   6.491
 5768POPC   C3B72345  17.717  31.181   6.850
 5768POPC   C4B72346  17.667  30.951   7.233
 5769POPC   NC372347  35.666  37.017   5.192
 5769POPC   PO472348  35.172  36.651   5.459
 5769POPC   GL172349  35.332  36.790   5.815
 5769POPC   GL272350  35.270  37.141   5.796
 5769POPC   C1A72351  35.543  36.770   6.221
 5769POPC   D2A72352  35.730  36.925   6.613
 5769POPC   C3A72353  35.462  36.836   6.947
 5769POPC   C4A72354  35.383  36.886   7.352
 5769POPC   C1B72355  34.973  37.419   6.015
 5769POPC   C2B72356  34.965  37.379   6.468
 5769POPC   C3B72357  35.015  37.127   6.842
 5769POPC   C4B72358  34.969  37.160   7.290
 5770POPC   NC372359   4.081  28.788   5.605
 5770POPC   PO472360   4.427  28.280   5.317
 5770POPC   GL172361   4.430  28.290   5.789
 5770POPC   GL272362   4.128  28.373   5.878
 5770POPC   C1A72363   4.442  28.039   6.192
 5770POPC   D2A72364   4.705  27.998   6.588
 5770POPC   C3A72365   4.471  27.908   6.958
 5770POPC   C4A72366   4.336  28.170   7.282
 5770POPC   C1B72367   4.201  28.487   6.304
 5770POPC   C2B72368   4.354  28.379   6.699
 5770POPC   C3B72369   4.303  28.626   7.056
 5770POPC   C4B72370   3.928  28.741   7.311
 5771POPC   NC372371  14.867   8.423   5.310
 5771POPC   PO472372  15.414   8.069   5.416
 5771POPC   GL172373  15.068   8.154   5.704
 5771POPC   GL272374  15.343   8.237   5.944
 5771POPC   C1A72375  14.875   8.310   6.114
 5771POPC   D2A72376  15.156   8.305   6.466
 5771POPC   C3A72377  15.020   8.231   6.868
 5771POPC   C4A72378  14.872   8.479   7.221
 5771POPC   C1B72379  15.551   8.016   6.292
 5771POPC   C2B72380  15.563   8.082   6.747
 5771POPC   C3B72381  15.416   7.978   7.161
 5771POPC   C4B72382  15.681   7.833   7.512
 5772POPC   NC372383   8.714  34.351   5.508
 5772POPC   PO472384   8.091  34.428   5.482
 5772POPC   GL172385   8.347  34.732   5.735
 5772POPC   GL272386   8.423  34.443   5.915
 5772POPC   C1A72387   8.287  34.841   6.200
 5772POPC   D2A72388   7.929  34.770   6.541
 5772POPC   C3A72389   8.090  34.678   6.963
 5772POPC   C4A72390   8.424  34.869   7.147
 5772POPC   C1B72391   8.080  34.342   6.223
 5772POPC   C2B72392   8.154  34.266   6.671
 5772POPC   C3B72393   8.001  34.168   7.094
 5772POPC   C4B72394   8.039  34.409   7.473
 5773POPC   NC372395  44.558  32.829   5.194
 5773POPC   PO472396  44.722  33.456   5.439
 5773POPC   GL172397  44.871  33.237   5.770
 5773POPC   GL272398  44.779  32.888   5.720
 5773POPC   C1A72399  44.998  33.200   6.180
 5773POPC   D2A72400  44.954  33.494   6.531
 5773POPC   C3A72401  44.712  33.394   6.862
 5773POPC   C4A72402  44.700  33.335   7.278
 5773POPC   C1B72403  44.658  32.778   6.158
 5773POPC   C2B72404  44.766  32.963   6.564
 5773POPC   C3B72405  44.895  32.916   6.984
 5773POPC   C4B72406  44.565  32.832   7.256
 5774POPC   NC372407  11.201  31.891   5.398
 5774POPC   PO472408  11.023  31.247   5.535
 5774POPC   GL172409  11.312  31.424   5.815
 5774POPC   GL272410  11.138  31.734   5.902
 5774POPC   C1A72411  11.527  31.205   6.155
 5774POPC   D2A72412  11.482  31.010   6.561
 5774POPC   C3A72413  11.547  31.278   6.947
 5774POPC   C4A72414  11.375  31.588   7.283
 5774POPC   C1B72415  11.344  31.690   6.310
 5774POPC   C2B72416  11.246  31.694   6.746
 5774POPC   C3B72417  10.933  31.741   7.055
 5774POPC   C4B72418  10.987  31.860   7.472
 5775POPC   NC372419  27.160  15.543   5.061
 5775POPC   PO472420  27.566  16.119   5.322
 5775POPC   GL172421  27.466  16.166   5.744
 5775POPC   GL272422  27.499  15.799   5.768
 5775POPC   C1A72423  27.407  16.113   6.207
 5775POPC   D2A72424  27.658  16.230   6.562
 5775POPC   C3A72425  27.565  16.128   7.016
 5775POPC   C4A72426  27.719  16.179   7.481
 5775POPC   C1B72427  27.560  15.609   6.170
 5775POPC   C2B72428  27.565  15.719   6.601
 5775POPC   C3B72429  27.669  15.491   6.983
 5775POPC   C4B72430  27.815  15.708   7.295
 5776POPC   NC372431  31.510  18.494   5.552
 5776POPC   PO472432  31.593  18.075   5.090
 5776POPC   GL172433  31.480  17.970   5.608
 5776POPC   GL272434  31.156  17.905   5.797
 5776POPC   C1A72435  31.634  17.983   6.042
 5776POPC   D2A72436  31.786  17.840   6.462
 5776POPC   C3A72437  31.694  18.115   6.813
 5776POPC   C4A72438  31.535  18.279   7.207
 5776POPC   C1B72439  31.087  18.090   6.204
 5776POPC   C2B72440  31.159  18.294   6.622
 5776POPC   C3B72441  31.068  18.415   7.033
 5776POPC   C4B72442  31.060  18.349   7.453
 5777POPC   NC372443  18.704  32.107   5.480
 5777POPC   PO472444  19.255  32.527   5.468
 5777POPC   GL172445  19.078  32.293   5.785
 5777POPC   GL272446  18.808  32.494   5.805
 5777POPC   C1A72447  18.889  32.146   6.162
 5777POPC   D2A72448  19.062  32.183   6.561
 5777POPC   C3A72449  18.828  32.184   6.927
 5777POPC   C4A72450  18.847  31.963   7.271
 5777POPC   C1B72451  19.103  32.682   6.116
 5777POPC   C2B72452  19.250  32.736   6.509
 5777POPC   C3B72453  19.198  32.545   6.889
 5777POPC   C4B72454  19.216  32.347   7.276
 5778POPC   NC372455  24.591   8.554   5.434
 5778POPC   PO472456  24.146   8.018   5.390
 5778POPC   GL172457  24.395   8.167   5.722
 5778POPC   GL272458  24.700   8.018   5.736
 5778POPC   C1A72459  24.360   8.326   6.129
 5778POPC   D2A72460  24.528   8.398   6.545
 5778POPC   C3A72461  24.316   8.186   6.882
 5778POPC   C4A72462  24.292   8.281   7.307
 5778POPC   C1B72463  24.822   8.132   6.140
 5778POPC   C2B72464  24.888   8.020   6.553
 5778POPC   C3B72465  24.809   8.196   6.946
 5778POPC   C4B72466  24.977   8.082   7.298
 5779POPC   NC372467  19.274   4.422   5.522
 5779POPC   PO472468  18.781   4.081   5.506
 5779POPC   GL172469  18.932   4.223   5.886
 5779POPC   GL272470  19.214   4.003   5.873
 5779POPC   C1A72471  18.934   4.498   6.247
 5779POPC   D2A72472  19.208   4.506   6.621
 5779POPC   C3A72473  19.056   4.463   7.041
 5779POPC   C4A72474  19.220   4.308   7.397
 5779POPC   C1B72475  19.385   4.216   6.226
 5779POPC   C2B72476  19.469   4.033   6.632
 5779POPC   C3B72477  19.287   3.965   7.040
 5779POPC   C4B72478  19.031   3.834   7.429
 5780POPC   NC372479  35.346  30.158   5.294
 5780POPC   PO472480  35.004  29.530   5.342
 5780POPC   GL172481  35.141  29.824   5.666
 5780POPC   GL272482  35.498  29.866   5.705
 5780POPC   C1A72483  35.120  29.863   6.105
 5780POPC   D2A72484  35.110  30.043   6.501
 5780POPC   C3A72485  35.025  29.830   6.865
 5780POPC   C4A72486  35.320  29.803   7.204
 5780POPC   C1B72487  35.567  30.104   6.116
 5780POPC   C2B72488  35.520  30.346   6.504
 5780POPC   C3B72489  35.551  30.187   6.911
 5780POPC   C4B72490  35.663  30.144   7.345
 5781POPC   NC372491  27.299  27.854   5.542
 5781POPC   PO472492  26.871  27.334   5.360
 5781POPC   GL172493  26.908  27.586   5.725
 5781POPC   GL272494  26.909  27.316   5.911
 5781POPC   C1A72495  26.888  27.805   6.132
 5781POPC   D2A72496  26.723  27.690   6.545
 5781POPC   C3A72497  26.898  27.908   6.904
 5781POPC   C4A72498  26.934  27.843   7.331
 5781POPC   C1B72499  26.667  27.252   6.275
 5781POPC   C2B72500  26.760  27.197   6.707
 5781POPC   C3B72501  26.763  27.434   7.074
 5781POPC   C4B72502  26.812  27.350   7.526
 5782POPC   NC372503  21.180  13.702   5.302
 5782POPC   PO472504  21.852  13.416   5.310
 5782POPC   GL172505  21.718  13.555   5.776
 5782POPC   GL272506  21.334  13.659   5.835
 5782POPC   C1A72507  21.614  13.493   6.231
 5782POPC   D2A72508  21.315  13.218   6.454
 5782POPC   C3A72509  21.480  13.231   6.823
 5782POPC   C4A72510  21.306  13.507   7.155
 5782POPC   C1B72511  21.297  13.912   6.229
 5782POPC   C2B72512  21.240  13.754   6.664
 5782POPC   C3B72513  21.131  13.977   7.052
 5782POPC   C4B72514  21.127  13.873   7.499
 5783POPC   NC372515  42.145   6.054   5.363
 5783POPC   PO472516  42.422   5.423   5.424
 5783POPC   GL172517  42.349   5.696   5.766
 5783POPC   GL272518  42.504   6.059   5.741
 5783POPC   C1A72519  42.618   5.726   6.122
 5783POPC   D2A72520  42.605   5.905   6.528
 5783POPC   C3A72521  42.464   5.636   6.832
 5783POPC   C4A72522  42.568   5.595   7.260
 5783POPC   C1B72523  42.360   6.173   6.168
 5783POPC   C2B72524  42.269   6.290   6.581
 5783POPC   C3B72525  42.287   6.122   6.986
 5783POPC   C4B72526  42.058   6.260   7.330
 5784POPC   NC372527   7.832  25.492   5.481
 5784POPC   PO472528   8.488  25.239   5.551
 5784POPC   GL172529   8.385  25.412   5.944
 5784POPC   GL272530   8.094  25.435   5.900
 5784POPC   C1A72531   8.307  25.369   6.389
 5784POPC   D2A72532   8.053  25.161   6.714
 5784POPC   C3A72533   8.114  25.216   7.147
 5784POPC   C4A72534   8.499  25.331   7.298
 5784POPC   C1B72535   7.916  25.659   6.184
 5784POPC   C2B72536   8.047  25.780   6.574
 5784POPC   C3B72537   8.327  25.597   6.871
 5784POPC   C4B72538   8.130  25.714   7.263
 5785POPC   NC372539  41.150  29.296   5.353
 5785POPC   PO472540  40.625  28.861   5.247
 5785POPC   GL172541  40.692  29.133   5.704
 5785POPC   GL272542  40.998  29.332   5.846
 5785POPC   C1A72543  40.505  29.228   6.159
 5785POPC   D2A72544  40.577  29.052   6.590
 5785POPC   C3A72545  40.583  29.223   7.041
 5785POPC   C4A72546  40.791  29.222   7.469
 5785POPC   C1B72547  41.011  29.209   6.310
 5785POPC   C2B72548  41.027  29.204   6.781
 5785POPC   C3B72549  41.104  29.440   7.138
 5785POPC   C4B72550  41.213  29.463   7.604
 5786POPC   NC372551  37.280  36.262   5.464
 5786POPC   PO472552  36.758  35.788   5.472
 5786POPC   GL172553  37.031  35.933   5.825
 5786POPC   GL272554  37.022  36.322   5.910
 5786POPC   C1A72555  36.930  35.959   6.272
 5786POPC   D2A72556  37.011  35.851   6.685
 5786POPC   C3A72557  37.032  36.171   6.984
 5786POPC   C4A72558  36.995  36.070   7.402
 5786POPC   C1B72559  36.711  36.433   6.246
 5786POPC   C2B72560  36.546  36.435   6.684
 5786POPC   C3B72561  36.655  36.489   7.132
 5786POPC   C4B72562  36.708  36.458   7.581
 5787POPC   NC372563  25.965  31.756   5.278
 5787POPC   PO472564  26.112  31.174   5.418
 5787POPC   GL172565  25.878  31.414   5.730
 5787POPC   GL272566  25.807  31.105   5.879
 5787POPC   C1A72567  25.792  31.631   6.159
 5787POPC   D2A72568  26.148  31.636   6.500
 5787POPC   C3A72569  26.098  31.566   6.952
 5787POPC   C4A72570  25.761  31.678   7.210
 5787POPC   C1B72571  26.016  31.180   6.231
 5787POPC   C2B72572  25.751  31.301   6.564
 5787POPC   C3B72573  25.687  31.155   6.941
 5787POPC   C4B72574  25.944  31.179   7.289
 5788POPC   NC372575  12.293  18.825   5.044
 5788POPC   PO472576  12.857  19.027   5.333
 5788POPC   GL172577  12.977  19.057   5.753
 5788POPC   GL272578  12.776  19.326   5.834
 5788POPC   C1A72579  13.013  19.090   6.212
 5788POPC   D2A72580  12.855  19.107   6.642
 5788POPC   C3A72581  13.066  18.769   6.897
 5788POPC   C4A72582  13.279  18.780   7.318
 5788POPC   C1B72583  12.911  19.595   6.170
 5788POPC   C2B72584  13.045  19.584   6.575
 5788POPC   C3B72585  12.933  19.497   7.006
 5788POPC   C4B72586  12.883  19.106   7.221
 5789POPC   NC372587  42.283  22.373   5.409
 5789POPC   PO472588  42.702  21.829   5.594
 5789POPC   GL172589  42.638  22.112   5.860
 5789POPC   GL272590  42.299  22.051   5.817
 5789POPC   C1A72591  42.591  22.098   6.296
 5789POPC   D2A72592  42.745  22.001   6.710
 5789POPC   C3A72593  42.473  22.149   7.046
 5789POPC   C4A72594  42.203  22.047   7.391
 5789POPC   C1B72595  42.142  22.323   6.112
 5789POPC   C2B72596  42.242  22.376   6.564
 5789POPC   C3B72597  42.003  22.310   6.947
 5789POPC   C4B72598  41.987  22.511   7.338
 5790POPC   NC372599  25.439  23.683   5.436
 5790POPC   PO472600  24.869  23.807   5.182
 5790POPC   GL172601  25.040  23.808   5.731
 5790POPC   GL272602  25.304  23.534   5.879
 5790POPC   C1A72603  25.180  23.850   6.224
 5790POPC   D2A72604  25.128  24.016   6.638
 5790POPC   C3A72605  25.296  23.721   6.922
 5790POPC   C4A72606  25.175  23.751   7.343
 5790POPC   C1B72607  25.380  23.337   6.250
 5790POPC   C2B72608  25.587  23.427   6.595
 5790POPC   C3B72609  25.635  23.305   6.992
 5790POPC   C4B72610  25.481  23.346   7.395
 5791POPC   NC372611   5.388  24.086   5.520
 5791POPC   PO472612   5.922  24.527   5.325
 5791POPC   GL172613   5.787  24.402   5.697
 5791POPC   GL272614   6.080  24.215   5.737
 5791POPC   C1A72615   5.661  24.327   6.132
 5791POPC   D2A72616   5.587  24.546   6.514
 5791POPC   C3A72617   5.563  24.352   6.855
 5791POPC   C4A72618   5.690  24.398   7.281
 5791POPC   C1B72619   6.152  24.518   6.060
 5791POPC   C2B72620   6.085  24.382   6.468
 5791POPC   C3B72621   6.072  24.450   6.886
 5791POPC   C4B72622   6.198  24.324   7.297
 5792POPC   NC372623  41.345  34.817   5.421
 5792POPC   PO472624  41.643  35.417   5.350
 5792POPC   GL172625  41.419  35.347   5.727
 5792POPC   GL272626  41.520  35.020   5.867
 5792POPC   C1A72627  41.474  35.499   6.144
 5792POPC   D2A72628  41.532  35.247   6.477
 5792POPC   C3A72629  41.428  35.385   6.857
 5792POPC   C4A72630  41.608  35.645   7.141
 5792POPC   C1B72631  41.833  34.926   6.200
 5792POPC   C2B72632  41.812  34.850   6.648
 5792POPC   C3B72633  41.824  35.096   7.007
 5792POPC   C4B72634  41.493  35.174   7.321
 5793POPC   NC372635   6.523  31.841   5.467
 5793POPC   PO472636   6.629  31.193   5.615
 5793POPC   GL172637   6.785  31.466   5.897
 5793POPC   GL272638   6.517  31.697   5.953
 5793POPC   C1A72639   6.741  31.437   6.348
 5793POPC   D2A72640   6.938  31.398   6.733
 5793POPC   C3A72641   6.613  31.337   7.058
 5793POPC   C4A72642   6.184  31.189   7.082
 5793POPC   C1B72643   6.368  31.993   6.259
 5793POPC   C2B72644   6.228  31.932   6.707
 5793POPC   C3B72645   6.302  31.747   7.103
 5793POPC   C4B72646   6.464  31.942   7.487
 5794POPC   NC372647  42.855  25.898   5.039
 5794POPC   PO472648  43.205  26.425   5.352
 5794POPC   GL172649  43.265  26.216   5.737
 5794POPC   GL272650  43.381  25.892   5.745
 5794POPC   C1A72651  43.475  26.317   6.120
 5794POPC   D2A72652  43.430  26.424   6.574
 5794POPC   C3A72653  43.163  26.157   6.837
 5794POPC   C4A72654  42.990  26.249   7.226
 5794POPC   C1B72655  43.122  25.919   6.148
 5794POPC   C2B72656  43.001  25.748   6.557
 5794POPC   C3B72657  42.853  25.758   6.994
 5794POPC   C4B72658  43.130  25.653   7.315
 5795POPC   NC372659  41.598  42.404   5.481
 5795POPC   PO472660  42.239  42.254   5.306
 5795POPC   GL172661  42.016  42.342   5.768
 5795POPC   GL272662  41.900  42.641   5.967
 5795POPC   C1A72663  41.853  42.179   6.207
 5795POPC   D2A72664  41.836  42.436   6.583
 5795POPC   C3A72665  41.759  42.357   7.034
 5795POPC   C4A72666  41.807  42.500   7.479
 5795POPC   C1B72667  41.459  42.533   6.178
 5795POPC   C2B72668  41.183  42.278   6.494
 5795POPC   C3B72669  41.262  42.292   6.941
 5795POPC   C4B72670  41.359  42.617   7.251
 5796POPC   NC372671  37.669   1.103   5.380
 5796POPC   PO472672  37.996   1.665   5.638
 5796POPC   GL172673  37.680   1.394   5.872
 5796POPC   GL272674  37.676   0.996   5.874
 5796POPC   C1A72675  37.469   1.249   6.286
 5796POPC   D2A72676  37.403   1.230   6.749
 5796POPC   C3A72677  37.696   1.463   7.021
 5796POPC   C4A72678  37.855   1.399   7.428
 5796POPC   C1B72679  37.725   0.785   6.272
 5796POPC   C2B72680  37.744   0.829   6.718
 5796POPC   C3B72681  37.737   0.978   7.155
 5796POPC   C4B72682  37.676   0.943   7.638
 5797POPC   NC372683   8.047  31.345   5.491
 5797POPC   PO472684   8.664  31.102   5.374
 5797POPC   GL172685   8.529  31.360   5.742
 5797POPC   GL272686   8.461  31.725   5.769
 5797POPC   C1A72687   8.397  31.406   6.174
 5797POPC   D2A72688   8.531  31.504   6.581
 5797POPC   C3A72689   8.374  31.277   6.916
 5797POPC   C4A72690   8.546  31.365   7.293
 5797POPC   C1B72691   8.072  31.777   6.093
 5797POPC   C2B72692   8.154  31.854   6.538
 5797POPC   C3B72693   8.295  31.801   6.958
 5797POPC   C4B72694   8.067  31.579   7.261
 5798POPC   NC372695   4.820   4.549   5.508
 5798POPC   PO472696   5.326   4.116   5.438
 5798POPC   GL172697   5.160   4.268   5.812
 5798POPC   GL272698   5.252   4.587   5.796
 5798POPC   C1A72699   4.961   4.403   6.197
 5798POPC   D2A72700   4.814   4.273   6.590
 5798POPC   C3A72701   4.983   4.332   7.001
 5798POPC   C4A72702   5.351   4.277   7.202
 5798POPC   C1B72703   5.363   4.721   6.195
 5798POPC   C2B72704   5.586   4.684   6.559
 5798POPC   C3B72705   5.432   4.710   6.960
 5798POPC   C4B72706   5.237   4.783   7.339
 5799POPC   NC372707  16.486  12.506   5.536
 5799POPC   PO472708  17.072  12.512   5.439
 5799POPC   GL172709  16.870  12.743   5.797
 5799POPC   GL272710  16.553  12.969   5.812
 5799POPC   C1A72711  16.897  12.873   6.232
 5799POPC   D2A72712  17.174  12.938   6.600
 5799POPC   C3A72713  16.879  12.885   6.950
 5799POPC   C4A72714  16.666  12.582   7.177
 5799POPC   C1B72715  16.375  12.974   6.250
 5799POPC   C2B72716  16.229  12.887   6.670
 5799POPC   C3B72717  16.352  12.956   7.063
 5799POPC   C4B72718  16.293  13.269   7.311
 5800POPC   NC372719  41.581  21.016   5.494
 5800POPC   PO472720  41.201  21.538   5.500
 5800POPC   GL172721  41.383  21.304   5.872
 5800POPC   GL272722  41.743  21.241   5.931
 5800POPC   C1A72723  41.445  21.147   6.319
 5800POPC   D2A72724  41.428  21.422   6.623
 5800POPC   C3A72725  41.710  21.366   6.938
 5800POPC   C4A72726  41.540  21.391   7.307
 5800POPC   C1B72727  41.859  20.865   6.201
 5800POPC   C2B72728  41.807  20.765   6.640
 5800POPC   C3B72729  41.711  20.867   7.071
 5800POPC   C4B72730  41.848  21.053   7.458
 5801POPC   NC372731   6.450  28.901   5.427
 5801POPC   PO472732   6.771  29.444   5.366
 5801POPC   GL172733   6.780  29.142   5.745
 5801POPC   GL272734   6.960  28.809   5.751
 5801POPC   C1A72735   6.532  29.146   6.143
 5801POPC   D2A72736   6.682  29.089   6.604
 5801POPC   C3A72737   6.560  29.222   7.053
 5801POPC   C4A72738   6.590  29.499   7.423
 5801POPC   C1B72739   6.854  28.741   6.200
 5801POPC   C2B72740   6.978  28.654   6.639
 5801POPC   C3B72741   6.975  28.899   7.006
 5801POPC   C4B72742   6.935  28.823   7.446
 5802POPC   NC372743  43.995  24.544   5.432
 5802POPC   PO472744  43.420  24.841   5.344
 5802POPC   GL172745  43.614  24.699   5.731
 5802POPC   GL272746  43.536  24.366   5.705
 5802POPC   C1A72747  43.738  24.652   6.163
 5802POPC   D2A72748  43.902  24.455   6.530
 5802POPC   C3A72749  43.858  24.648   6.944
 5802POPC   C4A72750  44.173  24.646   7.273
 5802POPC   C1B72751  43.455  24.200   6.101
 5802POPC   C2B72752  43.543  24.078   6.517
 5802POPC   C3B72753  43.809  24.091   6.883
 5802POPC   C4B72754  43.832  24.267   7.278
 5803POPC   NC372755   0.501  37.770   5.557
 5803POPC   PO472756   0.170  37.266   5.315
 5803POPC   GL172757   0.286  37.338   5.737
 5803POPC   GL272758   0.080  37.624   5.801
 5803POPC   C1A72759   0.342  37.392   6.190
 5803POPC   D2A72760   0.327  37.613   6.590
 5803POPC   C3A72761   0.421  37.485   7.030
 5803POPC   C4A72762   0.507  37.314   7.445
 5803POPC   C1B72763   0.094  37.888   6.169
 5803POPC   C2B72764   0.135  38.096   6.561
 5803POPC   C3B72765   0.235  37.960   6.960
 5803POPC   C4B72766   0.248  38.023   7.386
 5804POPC   NC372767  28.028   6.163   5.429
 5804POPC   PO472768  28.627   5.779   5.379
 5804POPC   GL172769  28.567   5.939   5.799
 5804POPC   GL272770  28.232   5.826   5.739
 5804POPC   C1A72771  28.610   5.977   6.279
 5804POPC   D2A72772  28.380   5.772   6.625
 5804POPC   C3A72773  28.339   5.915   7.044
 5804POPC   C4A72774  28.428   5.757   7.473
 5804POPC   C1B72775  28.168   5.764   6.142
 5804POPC   C2B72776  27.946   5.536   6.418
 5804POPC   C3B72777  27.921   5.573   6.829
 5804POPC   C4B72778  28.211   5.430   7.165
 5805POPC   NC372779  41.781  18.897   5.429
 5805POPC   PO472780  41.303  19.320   5.546
 5805POPC   GL172781  41.378  19.198   5.928
 5805POPC   GL272782  41.051  19.277   5.999
 5805POPC   C1A72783  41.629  18.968   6.204
 5805POPC   D2A72784  41.833  18.868   6.570
 5805POPC   C3A72785  41.705  18.874   6.942
 5805POPC   C4A72786  41.771  19.210   7.184
 5805POPC   C1B72787  41.077  18.904   6.253
 5805POPC   C2B72788  41.284  18.964   6.612
 5805POPC   C3B72789  41.218  18.800   6.981
 5805POPC   C4B72790  41.383  18.921   7.378
 5806POPC   NC372791  21.221  33.329   5.320
 5806POPC   PO472792  21.521  32.686   5.416
 5806POPC   GL172793  21.337  33.001   5.723
 5806POPC   GL272794  21.167  33.346   5.818
 5806POPC   C1A72795  21.454  33.080   6.161
 5806POPC   D2A72796  21.662  33.011   6.542
 5806POPC   C3A72797  21.435  32.765   6.888
 5806POPC   C4A72798  21.026  32.705   7.095
 5806POPC   C1B72799  21.031  33.385   6.246
 5806POPC   C2B72800  21.316  33.383   6.578
 5806POPC   C3B72801  21.514  33.270   6.940
 5806POPC   C4B72802  21.288  33.189   7.270
 5807POPC   NC372803   3.220   7.029   5.316
 5807POPC   PO472804   3.758   7.500   5.582
 5807POPC   GL172805   3.606   7.449   5.950
 5807POPC   GL272806   3.313   7.322   5.778
 5807POPC   C1A72807   3.700   7.678   6.336
 5807POPC   D2A72808   3.951   7.801   6.689
 5807POPC   C3A72809   3.756   7.649   7.062
 5807POPC   C4A72810   3.570   7.234   7.154
 5807POPC   C1B72811   3.312   7.082   6.168
 5807POPC   C2B72812   3.463   7.160   6.574
 5807POPC   C3B72813   3.357   7.524   6.764
 5807POPC   C4B72814   3.079   7.634   7.081
 5808POPC   NC372815  10.154  38.131   5.375
 5808POPC   PO472816   9.648  38.611   5.475
 5808POPC   GL172817   9.774  38.631   5.903
 5808POPC   GL272818  10.092  38.802   5.896
 5808POPC   C1A72819   9.693  38.535   6.349
 5808POPC   D2A72820   9.636  38.682   6.773
 5808POPC   C3A72821   9.729  38.415   7.113
 5808POPC   C4A72822   9.762  38.527   7.541
 5808POPC   C1B72823  10.185  38.409   6.167
 5808POPC   C2B72824  10.094  38.260   6.603
 5808POPC   C3B72825  10.222  38.409   7.006
 5808POPC   C4B72826  10.260  38.482   7.443
 5809POPC   NC372827  25.514  27.792   5.476
 5809POPC   PO472828  24.889  27.518   5.501
 5809POPC   GL172829  25.204  27.461   5.809
 5809POPC   GL272830  25.551  27.344   5.806
 5809POPC   C1A72831  25.211  27.455   6.234
 5809POPC   D2A72832  25.097  27.761   6.491
 5809POPC   C3A72833  25.088  27.558   6.845
 5809POPC   C4A72834  25.177  27.748   7.212
 5809POPC   C1B72835  25.698  27.591   6.199
 5809POPC   C2B72836  25.627  27.606   6.675
 5809POPC   C3B72837  25.649  27.856   7.087
 5809POPC   C4B72838  25.543  27.891   7.570
 5810POPC   NC372839   5.139  15.939   5.386
 5810POPC   PO472840   4.686  16.390   5.355
 5810POPC   GL172841   4.889  16.178   5.759
 5810POPC   GL272842   5.281  16.111   5.832
 5810POPC   C1A72843   4.953  15.959   6.182
 5810POPC   D2A72844   4.942  16.179   6.567
 5810POPC   C3A72845   4.971  15.929   6.933
 5810POPC   C4A72846   4.783  15.880   7.308
 5810POPC   C1B72847   5.475  15.974   6.202
 5810POPC   C2B72848   5.372  15.842   6.615
 5810POPC   C3B72849   5.470  16.032   7.000
 5810POPC   C4B72850   5.266  16.074   7.352
 5811POPC   NC372851  15.652  38.355   5.524
 5811POPC   PO472852  16.317  38.437   5.450
 5811POPC   GL172853  16.119  38.416   5.819
 5811POPC   GL272854  16.035  38.750   5.844
 5811POPC   C1A72855  15.972  38.352   6.256
 5811POPC   D2A72856  15.743  38.455   6.635
 5811POPC   C3A72857  15.976  38.398   7.003
 5811POPC   C4A72858  15.951  38.044   7.280
 5811POPC   C1B72859  16.261  38.780   6.273
 5811POPC   C2B72860  16.086  38.838   6.714
 5811POPC   C3B72861  16.200  38.841   7.168
 5811POPC   C4B72862  16.326  38.810   7.637
 5812POPC   NC372863  10.705  15.859   5.142
 5812POPC   PO472864  11.355  16.005   5.194
 5812POPC   GL172865  11.349  15.968   5.676
 5812POPC   GL272866  11.320  15.629   5.857
 5812POPC   C1A72867  11.209  16.229   6.047
 5812POPC   D2A72868  11.159  16.286   6.488
 5812POPC   C3A72869  11.059  15.973   6.783
 5812POPC   C4A72870  11.173  15.981   7.196
 5812POPC   C1B72871  11.219  15.745   6.254
 5812POPC   C2B72872  11.206  15.502   6.598
 5812POPC   C3B72873  11.405  15.553   6.967
 5812POPC   C4B72874  11.253  15.507   7.368
 5813POPC   NC372875  13.685   0.170   5.491
 5813POPC   PO472876  13.197   0.648   5.333
 5813POPC   GL172877  13.401   0.769   5.748
 5813POPC   GL272878  13.671   0.506   5.884
 5813POPC   C1A72879  13.528   0.875   6.182
 5813POPC   D2A72880  13.721   0.691   6.557
 5813POPC   C3A72881  13.477   0.792   6.922
 5813POPC   C4A72882  13.535   0.748   7.338
 5813POPC   C1B72883  13.944   0.337   6.228
 5813POPC   C2B72884  13.913   0.216   6.692
 5813POPC   C3B72885  13.808   0.399   7.100
 5813POPC   C4B72886  14.000   0.610   7.498
 5814POPC   NC372887   7.599  44.537   5.587
 5814POPC   PO472888   7.123  44.994   5.452
 5814POPC   GL172889   7.226  44.752   5.859
 5814POPC   GL272890   7.223  44.342   5.879
 5814POPC   C1A72891   7.164  44.653   6.310
 5814POPC   D2A72892   7.352  44.678   6.722
 5814POPC   C3A72893   7.170  44.476   7.058
 5814POPC   C4A72894   6.905  44.781   7.206
 5814POPC   C1B72895   7.561  44.329   6.208
 5814POPC   C2B72896   7.734  44.339   6.624
 5814POPC   C3B72897   7.657  44.265   7.072
 5814POPC   C4B72898   7.493  44.456   7.488
 5815POPC   NC372899  21.309  37.965   5.500
 5815POPC   PO472900  21.621  37.342   5.440
 5815POPC   GL172901  21.367  37.536   5.800
 5815POPC   GL272902  21.041  37.369   5.820
 5815POPC   C1A72903  21.222  37.675   6.226
 5815POPC   D2A72904  21.425  37.658   6.640
 5815POPC   C3A72905  21.371  37.921   7.001
 5815POPC   C4A72906  21.458  37.735   7.428
 5815POPC   C1B72907  20.954  37.224   6.248
 5815POPC   C2B72908  20.975  37.397   6.671
 5815POPC   C3B72909  21.154  37.465   7.067
 5815POPC   C4B72910  20.963  37.574   7.462
 5816POPC   NC372911  36.853  20.394   5.301
 5816POPC   PO472912  37.094  21.067   5.421
 5816POPC   GL172913  36.880  20.778   5.740
 5816POPC   GL272914  36.904  20.419   5.798
 5816POPC   C1A72915  36.797  20.769   6.208
 5816POPC   D2A72916  37.009  20.907   6.603
 5816POPC   C3A72917  36.854  20.730   6.986
 5816POPC   C4A72918  36.974  20.409   7.256
 5816POPC   C1B72919  36.752  20.246   6.164
 5816POPC   C2B72920  36.721  20.388   6.582
 5816POPC   C3B72921  36.698  20.121   6.926
 5816POPC   C4B72922  36.534  20.125   7.330
 5817POPC   NC372923  32.813  30.584   5.406
 5817POPC   PO472924  33.334  30.237   5.432
 5817POPC   GL172925  33.284  30.620   5.693
 5817POPC   GL272926  33.054  30.917   5.753
 5817POPC   C1A72927  33.169  30.578   6.138
 5817POPC   D2A72928  33.218  30.326   6.501
 5817POPC   C3A72929  33.001  30.415   6.874
 5817POPC   C4A72930  33.166  30.541   7.252
 5817POPC   C1B72931  33.111  31.087   6.209
 5817POPC   C2B72932  33.051  30.984   6.652
 5817POPC   C3B72933  32.940  30.926   7.049
 5817POPC   C4B72934  33.030  31.010   7.492
 5818POPC   NC372935  21.703  26.394   5.558
 5818POPC   PO472936  21.498  27.015   5.367
 5818POPC   GL172937  21.349  26.759   5.726
 5818POPC   GL272938  21.053  26.552   5.576
 5818POPC   C1A72939  21.416  26.762   6.238
 5818POPC   D2A72940  21.340  26.746   6.738
 5818POPC   C3A72941  21.404  27.011   7.147
 5818POPC   C4A72942  21.263  27.389   7.379
 5818POPC   C1B72943  21.020  26.516   6.040
 5818POPC   C2B72944  21.080  26.406   6.457
 5818POPC   C3B72945  20.863  26.419   6.857
 5818POPC   C4B72946  21.124  26.597   7.192
 5819POPC   NC372947  41.312  15.636   5.538
 5819POPC   PO472948  40.720  15.865   5.345
 5819POPC   GL172949  40.896  15.941   5.742
 5819POPC   GL272950  40.596  15.882   5.888
 5819POPC   C1A72951  40.927  16.137   6.172
 5819POPC   D2A72952  40.743  16.253   6.581
 5819POPC   C3A72953  40.975  16.096   6.919
 5819POPC   C4A72954  40.908  15.722   7.167
 5819POPC   C1B72955  40.366  15.693   6.232
 5819POPC   C2B72956  40.237  15.678   6.647
 5819POPC   C3B72957  40.475  15.900   6.953
 5819POPC   C4B72958  40.344  15.881   7.355
 5820POPC   NC372959   4.004  43.010   5.276
 5820POPC   PO472960   4.563  43.359   5.376
 5820POPC   GL172961   4.595  43.175   5.776
 5820POPC   GL272962   4.224  43.154   5.753
 5820POPC   C1A72963   4.461  43.243   6.236
 5820POPC   D2A72964   4.231  43.242   6.656
 5820POPC   C3A72965   4.443  43.217   7.059
 5820POPC   C4A72966   4.718  42.958   7.289
 5820POPC   C1B72967   4.039  42.859   6.057
 5820POPC   C2B72968   3.982  42.705   6.466
 5820POPC   C3B72969   3.799  42.872   6.830
 5820POPC   C4B72970   3.984  43.048   7.206
 5821POPC   NC372971  28.869  38.862   5.382
 5821POPC   PO472972  29.386  38.375   5.438
 5821POPC   GL172973  29.335  38.604   5.785
 5821POPC   GL272974  28.975  38.577   5.788
 5821POPC   C1A72975  29.300  38.482   6.215
 5821POPC   D2A72976  29.040  38.569   6.554
 5821POPC   C3A72977  29.245  38.614   6.946
 5821POPC   C4A72978  29.531  38.388   7.138
 5821POPC   C1B72979  28.758  38.725   6.133
 5821POPC   C2B72980  28.629  38.882   6.537
 5821POPC   C3B72981  28.735  38.740   6.936
 5821POPC   C4B72982  28.920  38.802   7.294
 5822POPC   NC372983  35.483  12.604   5.551
 5822POPC   PO472984  35.614  13.134   5.171
 5822POPC   GL172985  35.585  13.149   5.614
 5822POPC   GL272986  35.245  13.033   5.681
 5822POPC   C1A72987  35.622  13.029   6.056
 5822POPC   D2A72988  35.430  12.958   6.463
 5822POPC   C3A72989  35.609  12.955   6.864
 5822POPC   C4A72990  35.443  13.009   7.240
 5822POPC   C1B72991  35.079  12.863   6.083
 5822POPC   C2B72992  34.948  12.770   6.505
 5822POPC   C3B72993  35.088  12.779   6.923
 5822POPC   C4B72994  34.926  12.957   7.297
 5823POPC   NC372995  22.004  39.483   5.406
 5823POPC   PO472996  22.546  39.036   5.451
 5823POPC   GL172997  22.338  39.240   5.821
 5823POPC   GL272998  21.989  39.368   5.902
 5823POPC   C1A72999  22.207  39.068   6.238
 5823POPC   D2A73000  22.064  39.231   6.641
 5823POPC   C3A73001  22.246  39.069   6.996
 5823POPC   C4A73002  22.032  38.889   7.317
 5823POPC   C1B73003  22.217  39.574   6.276
 5823POPC   C2B73004  22.226  39.719   6.734
 5823POPC   C3B73005  22.034  39.548   7.093
 5823POPC   C4B73006  21.846  39.773   7.429
 5824POPC   NC373007  35.407  38.775   5.387
 5824POPC   PO473008  34.960  38.293   5.326
 5824POPC   GL173009  35.097  38.508   5.730
 5824POPC   GL273010  35.426  38.570   5.874
 5824POPC   C1A73011  34.975  38.484   6.150
 5824POPC   D2A73012  34.950  38.348   6.588
 5824POPC   C3A73013  35.335  38.393   6.807
 5824POPC   C4A73014  35.418  38.413   7.244
 5824POPC   C1B73015  35.507  38.812   6.250
 5824POPC   C2B73016  35.506  38.881   6.691
 5824POPC   C3B73017  35.723  38.761   7.049
 5824POPC   C4B73018  35.701  38.718   7.536
 5825POPC   NC373019  10.172  26.021   5.426
 5825POPC   PO473020   9.716  26.375   5.602
 5825POPC   GL173021   9.893  26.161   5.887
 5825POPC   GL273022  10.152  26.397   5.896
 5825POPC   C1A73023   9.805  26.066   6.306
 5825POPC   D2A73024   9.953  26.279   6.658
 5825POPC   C3A73025   9.698  26.105   6.968
 5825POPC   C4A73026   9.552  26.218   7.325
 5825POPC   C1B73027  10.275  26.243   6.244
 5825POPC   C2B73028  10.302  25.884   6.462
 5825POPC   C3B73029  10.109  25.835   6.851
 5825POPC   C4B73030  10.144  26.173   7.199
 5826POPC   NC373031  10.301  33.398   5.465
 5826POPC   PO473032   9.686  33.291   5.337
 5826POPC   GL173033   9.848  33.321   5.731
 5826POPC   GL273034   9.539  33.540   5.813
 5826POPC   C1A73035   9.945  33.010   6.101
 5826POPC   D2A73036  10.077  32.839   6.488
 5826POPC   C3A73037  10.049  33.079   6.862
 5826POPC   C4A73038   9.889  32.834   7.176
 5826POPC   C1B73039   9.739  33.461   6.198
 5826POPC   C2B73040   9.645  33.166   6.533
 5826POPC   C3B73041   9.512  33.105   6.955
 5826POPC   C4B73042   9.650  33.329   7.290
 5827POPC   NC373043   9.070  41.973   5.480
 5827POPC   PO473044   8.487  41.699   5.395
 5827POPC   GL173045   8.806  41.653   5.771
 5827POPC   GL273046   9.143  41.699   5.901
 5827POPC   C1A73047   8.746  41.702   6.235
 5827POPC   D2A73048   8.643  41.941   6.618
 5827POPC   C3A73049   8.825  41.760   6.991
 5827POPC   C4A73050   8.895  41.602   7.399
 5827POPC   C1B73051   9.218  41.366   6.203
 5827POPC   C2B73052   9.403  41.272   6.611
 5827POPC   C3B73053   9.244  41.398   7.023
 5827POPC   C4B73054   9.421  41.541   7.412
 5828POPC   NC373055   8.822  31.546   5.353
 5828POPC   PO473056   9.390  31.146   5.333
 5828POPC   GL173057   9.051  31.221   5.699
 5828POPC   GL273058   9.001  31.576   5.824
 5828POPC   C1A73059   8.869  31.233   6.152
 5828POPC   D2A73060   9.019  31.391   6.537
 5828POPC   C3A73061   8.882  31.188   6.896
 5828POPC   C4A73062   9.006  31.132   7.326
 5828POPC   C1B73063   8.816  31.756   6.199
 5828POPC   C2B73064   8.828  31.933   6.621
 5828POPC   C3B73065   8.797  31.714   7.006
 5828POPC   C4B73066   8.627  31.846   7.417
 5829POPC   NC373067  24.388  35.067   5.097
 5829POPC   PO473068  24.562  35.582   5.454
 5829POPC   GL173069  24.431  35.248   5.726
 5829POPC   GL273070  24.037  35.169   5.749
 5829POPC   C1A73071  24.703  35.134   6.101
 5829POPC   D2A73072  24.781  35.359   6.500
 5829POPC   C3A73073  24.703  35.108   6.859
 5829POPC   C4A73074  24.935  34.975   7.215
 5829POPC   C1B73075  24.215  35.286   6.189
 5829POPC   C2B73076  24.282  35.337   6.647
 5829POPC   C3B73077  24.355  35.447   7.048
 5829POPC   C4B73078  24.787  35.500   7.192
 5830POPC   NC373079  24.709  38.810   5.598
 5830POPC   PO473080  24.717  39.408   5.157
 5830POPC   GL173081  24.515  39.299   5.615
 5830POPC   GL273082  24.403  39.576   5.816
 5830POPC   C1A73083  24.504  39.167   6.098
 5830POPC   D2A73084  24.537  39.292   6.521
 5830POPC   C3A73085  24.347  39.144   6.863
 5830POPC   C4A73086  24.438  39.152   7.250
 5830POPC   C1B73087  24.570  39.698   6.197
 5830POPC   C2B73088  24.388  39.766   6.605
 5830POPC   C3B73089  24.548  39.638   7.013
 5830POPC   C4B73090  24.608  39.598   7.466
 5831POPC   NC373091  36.487   2.860   5.343
 5831POPC   PO473092  35.855   2.512   5.184
 5831POPC   GL173093  35.876   2.535   5.701
 5831POPC   GL273094  35.950   2.887   5.823
 5831POPC   C1A73095  36.146   2.488   6.129
 5831POPC   D2A73096  36.389   2.450   6.554
 5831POPC   C3A73097  36.237   2.561   7.006
 5831POPC   C4A73098  36.075   2.359   7.379
 5831POPC   C1B73099  36.187   3.020   6.210
 5831POPC   C2B73100  36.335   2.983   6.648
 5831POPC   C3B73101  36.099   3.044   7.029
 5831POPC   C4B73102  36.196   3.124   7.468
 5832POPC   NC373103   9.250  30.745   5.517
 5832POPC   PO473104   8.876  30.285   5.229
 5832POPC   GL173105   8.745  30.455   5.768
 5832POPC   GL273106   8.986  30.764   5.930
 5832POPC   C1A73107   8.721  30.534   6.262
 5832POPC   D2A73108   9.007  30.824   6.488
 5832POPC   C3A73109   9.006  30.690   6.903
 5832POPC   C4A73110   9.000  30.604   7.301
 5832POPC   C1B73111   9.330  31.068   6.126
 5832POPC   C2B73112   9.462  31.132   6.545
 5832POPC   C3B73113   9.405  30.990   6.971
 5832POPC   C4B73114   9.499  30.950   7.405
 5833POPC   NC373115  23.549  10.256   5.331
 5833POPC   PO473116  23.836   9.632   5.314
 5833POPC   GL173117  23.871   9.723   5.748
 5833POPC   GL273118  23.544   9.861   5.817
 5833POPC   C1A73119  23.838   9.643   6.202
 5833POPC   D2A73120  23.809   9.897   6.584
 5833POPC   C3A73121  23.705   9.829   7.007
 5833POPC   C4A73122  24.005   9.747   7.330
 5833POPC   C1B73123  23.386   9.911   6.274
 5833POPC   C2B73124  23.393  10.185   6.673
 5833POPC   C3B73125  23.280  10.141   7.117
 5833POPC   C4B73126  23.327   9.775   7.395
 5834POPC   NC373127   7.815  34.789   5.551
 5834POPC   PO473128   7.284  34.617   5.236
 5834POPC   GL173129   7.353  34.568   5.690
 5834POPC   GL273130   7.689  34.389   5.821
 5834POPC   C1A73131   7.272  34.882   6.006
 5834POPC   D2A73132   7.301  34.962   6.463
 5834POPC   C3A73133   7.385  34.623   6.776
 5834POPC   C4A73134   7.637  34.596   7.175
 5834POPC   C1B73135   7.569  34.485   6.250
 5834POPC   C2B73136   7.644  34.209   6.606
 5834POPC   C3B73137   7.473  34.124   7.020
 5834POPC   C4B73138   7.598  34.148   7.440
 5835POPC   NC373139  20.165  35.545   5.514
 5835POPC   PO473140  20.712  35.219   5.500
 5835POPC   GL173141  20.562  35.424   5.836
 5835POPC   GL273142  20.336  35.154   5.863
 5835POPC   C1A73143  20.651  35.272   6.259
 5835POPC   D2A73144  20.804  35.187   6.706
 5835POPC   C3A73145  20.945  35.514   7.016
 5835POPC   C4A73146  20.688  35.463   7.394
 5835POPC   C1B73147  20.174  35.465   6.183
 5835POPC   C2B73148  20.279  35.357   6.595
 5835POPC   C3B73149  20.420  35.502   6.959
 5835POPC   C4B73150  20.179  35.512   7.314
 5836POPC   NC373151  12.135  27.748   4.995
 5836POPC   PO473152  11.730  27.312   5.396
 5836POPC   GL173153  11.977  27.481   5.792
 5836POPC   GL273154  11.777  27.797   5.909
 5836POPC   C1A73155  12.197  27.649   6.149
 5836POPC   D2A73156  12.256  27.476   6.539
 5836POPC   C3A73157  12.140  27.626   6.934
 5836POPC   C4A73158  11.981  27.324   7.229
 5836POPC   C1B73159  11.720  27.616   6.310
 5836POPC   C2B73160  11.747  27.368   6.679
 5836POPC   C3B73161  11.625  27.601   7.002
 5836POPC   C4B73162  11.779  27.849   7.274
 5837POPC   NC373163   0.019  40.646   5.578
 5837POPC   PO473164  44.302  40.412   5.493
 5837POPC   GL173165  44.552  40.573   5.849
 5837POPC   GL273166  44.437  40.913   5.915
 5837POPC   C1A73167  44.817  40.764   6.226
 5837POPC   D2A73168  44.766  41.013   6.634
 5837POPC   C3A73169  44.944  40.906   7.005
 5837POPC   C4A73170  44.782  40.609   7.233
 5837POPC   C1B73171  44.241  41.166   6.255
 5837POPC   C2B73172  44.389  41.362   6.665
 5837POPC   C3B73173  44.472  41.154   7.078
 5837POPC   C4B73174  44.517  40.972   7.480
 5838POPC   NC373175  44.493   7.938   5.582
 5838POPC   PO473176  44.858   8.424   5.300
 5838POPC   GL173177  44.808   8.332   5.766
 5838POPC   GL273178  44.922   8.007   5.849
 5838POPC   C1A73179  44.621   8.199   6.202
 5838POPC   D2A73180  44.719   8.363   6.572
 5838POPC   C3A73181  44.583   8.131   6.918
 5838POPC   C4A73182  44.513   8.323   7.269
 5838POPC   C1B73183   0.111   7.962   6.228
 5838POPC   C2B73184  44.974   7.934   6.616
 5838POPC   C3B73185   0.141   7.851   6.986
 5838POPC   C4B73186  44.889   7.913   7.292
 5839POPC   NC373187  27.819  42.060   5.534
 5839POPC   PO473188  27.382  42.576   5.279
 5839POPC   GL173189  27.605  42.502   5.702
 5839POPC   GL273190  27.784  42.813   5.744
 5839POPC   C1A73191  27.730  42.264   6.134
 5839POPC   D2A73192  27.506  42.146   6.507
 5839POPC   C3A73193  27.724  42.104   6.850
 5839POPC   C4A73194  27.577  42.119   7.252
 5839POPC   C1B73195  27.594  42.747   6.158
 5839POPC   C2B73196  27.730  42.591   6.565
 5839POPC   C3B73197  27.554  42.591   6.971
 5839POPC   C4B73198  27.730  42.632   7.387
 5840POPC   NC373199  24.145  31.894   5.117
 5840POPC   PO473200  24.384  31.443   5.539
 5840POPC   GL173201  24.522  31.369   5.927
 5840POPC   GL273202  24.889  31.447   5.881
 5840POPC   C1A73203  24.758  31.238   6.307
 5840POPC   D2A73204  24.701  31.322   6.703
 5840POPC   C3A73205  24.316  31.457   6.918
 5840POPC   C4A73206  24.617  31.336   7.227
 5840POPC   C1B73207  24.718  31.788   6.131
 5840POPC   C2B73208  24.514  31.800   6.535
 5840POPC   C3B73209  24.693  31.780   6.934
 5840POPC   C4B73210  24.625  31.996   7.265
 5841POPC   NC373211   9.954  15.202   5.221
 5841POPC   PO473212   9.283  15.462   5.365
 5841POPC   GL173213   9.614  15.183   5.608
 5841POPC   GL273214   9.896  15.405   5.712
 5841POPC   C1A73215   9.716  15.037   6.051
 5841POPC   D2A73216   9.792  14.902   6.485
 5841POPC   C3A73217   9.685  15.059   6.882
 5841POPC   C4A73218   9.785  14.973   7.297
 5841POPC   C1B73219   9.692  15.538   6.127
 5841POPC   C2B73220   9.462  15.342   6.495
 5841POPC   C3B73221   9.405  15.463   6.958
 5841POPC   C4B73222   9.612  15.438   7.374
 5842POPC   NC373223   5.043  40.293   5.624
 5842POPC   PO473224   5.438  39.749   5.466
 5842POPC   GL173225   5.314  39.889   5.849
 5842POPC   GL273226   5.534  40.148   5.934
 5842POPC   C1A73227   5.098  39.903   6.240
 5842POPC   D2A73228   5.247  39.923   6.661
 5842POPC   C3A73229   4.942  39.913   6.990
 5842POPC   C4A73230   5.186  39.902   7.341
 5842POPC   C1B73231   5.304  40.376   6.231
 5842POPC   C2B73232   5.077  40.409   6.580
 5842POPC   C3B73233   5.185  40.349   6.974
 5842POPC   C4B73234   4.869  40.331   7.300
 5843POPC   NC373235   3.320  42.204   5.306
 5843POPC   PO473236   3.779  42.655   5.475
 5843POPC   GL173237   3.567  42.385   5.778
 5843POPC   GL273238   3.184  42.385   5.768
 5843POPC   C1A73239   3.717  42.329   6.209
 5843POPC   D2A73240   3.549  42.446   6.611
 5843POPC   C3A73241   3.735  42.297   6.956
 5843POPC   C4A73242   3.712  42.587   7.235
 5843POPC   C1B73243   3.181  42.384   6.213
 5843POPC   C2B73244   3.123  42.136   6.576
 5843POPC   C3B73245   3.208  42.241   6.973
 5843POPC   C4B73246   3.259  42.353   7.383
 5844POPC   NC373247  13.388  24.754   5.282
 5844POPC   PO473248  13.826  24.328   5.335
 5844POPC   GL173249  13.565  24.470   5.686
 5844POPC   GL273250  13.868  24.608   5.853
 5844POPC   C1A73251  13.444  24.540   6.141
 5844POPC   D2A73252  13.659  24.486   6.527
 5844POPC   C3A73253  13.395  24.481   6.865
 5844POPC   C4A73254  13.569  24.362   7.254
 5844POPC   C1B73255  13.873  24.858   6.243
 5844POPC   C2B73256  13.948  24.887   6.687
 5844POPC   C3B73257  13.738  24.842   7.059
 5844POPC   C4B73258  13.829  24.813   7.477
 5845POPC   NC373259  35.724  22.474   5.616
 5845POPC   PO473260  36.429  22.504   5.703
 5845POPC   GL173261  36.120  22.241   5.872
 5845POPC   GL273262  36.007  21.918   5.701
 5845POPC   C1A73263  35.999  22.346   6.277
 5845POPC   D2A73264  36.124  22.594   6.663
 5845POPC   C3A73265  36.143  22.320   7.019
 5845POPC   C4A73266  35.984  22.289   7.430
 5845POPC   C1B73267  35.937  21.820   6.135
 5845POPC   C2B73268  35.860  21.668   6.565
 5845POPC   C3B73269  35.840  21.764   6.990
 5845POPC   C4B73270  36.172  21.843   7.228
 5846POPC   NC373271  24.558  42.810   5.363
 5846POPC   PO473272  24.188  43.404   5.537
 5846POPC   GL173273  24.397  43.067   5.801
 5846POPC   GL273274  24.712  42.838   5.849
 5846POPC   C1A73275  24.460  43.038   6.237
 5846POPC   D2A73276  24.659  43.116   6.639
 5846POPC   C3A73277  24.486  43.154   7.057
 5846POPC   C4A73278  24.374  43.240   7.492
 5846POPC   C1B73279  24.876  42.721   6.268
 5846POPC   C2B73280  24.771  42.613   6.696
 5846POPC   C3B73281  24.758  42.565   7.141
 5846POPC   C4B73282  24.725  42.874   7.475
 5847POPC   NC373283  32.695  36.776   5.349
 5847POPC   PO473284  33.422  36.760   5.418
 5847POPC   GL173285  33.072  36.918   5.745
 5847POPC   GL273286  32.756  36.721   5.853
 5847POPC   C1A73287  33.095  37.147   6.147
 5847POPC   D2A73288  33.231  37.171   6.567
 5847POPC   C3A73289  33.029  37.192   6.939
 5847POPC   C4A73290  33.221  37.149   7.317
 5847POPC   C1B73291  32.980  36.642   6.216
 5847POPC   C2B73292  33.090  36.664   6.632
 5847POPC   C3B73293  32.849  36.708   7.007
 5847POPC   C4B73294  32.725  36.995   7.318
 5848POPC   NC373295  12.166  21.139   5.460
 5848POPC   PO473296  11.829  21.680   5.592
 5848POPC   GL173297  12.008  21.417   5.877
 5848POPC   GL273298  11.761  21.153   5.815
 5848POPC   C1A73299  12.298  21.323   6.239
 5848POPC   D2A73300  12.190  21.153   6.679
 5848POPC   C3A73301  12.324  21.339   7.083
 5848POPC   C4A73302  12.142  21.377   7.512
 5848POPC   C1B73303  11.855  21.103   6.273
 5848POPC   C2B73304  11.697  20.968   6.687
 5848POPC   C3B73305  11.872  21.094   7.121
 5848POPC   C4B73306  11.616  21.242   7.473
 5849POPC   NC373307  33.020  43.631   5.482
 5849POPC   PO473308  33.307  44.266   5.479
 5849POPC   GL173309  33.115  44.028   5.833
 5849POPC   GL273310  33.310  43.743   5.868
 5849POPC   C1A73311  32.901  43.801   6.200
 5849POPC   D2A73312  32.678  43.744   6.607
 5849POPC   C3A73313  32.876  43.659   6.988
 5849POPC   C4A73314  32.972  43.243   7.203
 5849POPC   C1B73315  33.462  43.901   6.244
 5849POPC   C2B73316  33.205  43.880   6.629
 5849POPC   C3B73317  33.276  43.989   7.055
 5849POPC   C4B73318  33.244  44.406   7.186
 5850POPC   NC373319  15.544  12.821   5.420
 5850POPC   PO473320  14.872  13.000   5.343
 5850POPC   GL173321  15.066  12.915   5.763
 5850POPC   GL273322  15.399  13.098   5.829
 5850POPC   C1A73323  15.078  13.016   6.221
 5850POPC   D2A73324  15.273  13.312   6.511
 5850POPC   C3A73325  15.307  13.133   6.946
 5850POPC   C4A73326  15.046  12.856   7.197
 5850POPC   C1B73327  15.500  12.746   6.094
 5850POPC   C2B73328  15.389  12.578   6.504
 5850POPC   C3B73329  15.418  12.584   6.957
 5850POPC   C4B73330  15.542  12.840   7.302
 5851POPC   NC373331  27.520  25.766   5.244
 5851POPC   PO473332  27.782  25.111   5.292
 5851POPC   GL173333  27.809  25.329   5.736
 5851POPC   GL273334  27.483  25.212   5.812
 5851POPC   C1A73335  27.684  25.456   6.201
 5851POPC   D2A73336  27.646  25.229   6.569
 5851POPC   C3A73337  27.793  25.422   6.932
 5851POPC   C4A73338  27.713  25.559   7.353
 5851POPC   C1B73339  27.355  24.904   6.125
 5851POPC   C2B73340  27.410  24.763   6.546
 5851POPC   C3B73341  27.257  24.897   6.951
 5851POPC   C4B73342  27.405  25.176   7.228
 5852POPC   NC373343   4.019   5.788   5.273
 5852POPC   PO473344   3.337   5.754   5.392
 5852POPC   GL173345   3.494   5.829   5.808
 5852POPC   GL273346   3.814   5.787   5.737
 5852POPC   C1A73347   3.397   5.678   6.224
 5852POPC   D2A73348   3.176   5.778   6.602
 5852POPC   C3A73349   3.387   5.751   6.968
 5852POPC   C4A73350   3.263   5.838   7.368
 5852POPC   C1B73351   3.861   5.864   6.175
 5852POPC   C2B73352   3.718   5.886   6.612
 5852POPC   C3B73353   3.875   5.863   7.035
 5852POPC   C4B73354   3.984   6.141   7.340
 5853POPC   NC373355  13.769  14.542   5.355
 5853POPC   PO473356  13.225  14.256   5.424
 5853POPC   GL173357  13.493  14.419   5.777
 5853POPC   GL273358  13.768  14.234   5.843
 5853POPC   C1A73359  13.433  14.427   6.229
 5853POPC   D2A73360  13.669  14.382   6.624
 5853POPC   C3A73361  13.437  14.410   6.988
 5853POPC   C4A73362  13.340  14.101   7.284
 5853POPC   C1B73363  13.943  14.501   6.193
 5853POPC   C2B73364  14.086  14.692   6.568
 5853POPC   C3B73365  14.089  14.499   6.979
 5853POPC   C4B73366  13.847  14.242   7.251
 5854POPC   NC373367  14.162  20.415   5.307
 5854POPC   PO473368  14.872  20.543   5.374
 5854POPC   GL173369  14.545  20.648   5.712
 5854POPC   GL273370  14.148  20.808   5.628
 5854POPC   C1A73371  14.652  20.512   6.168
 5854POPC   D2A73372  14.604  20.681   6.598
 5854POPC   C3A73373  14.774  20.635   6.981
 5854POPC   C4A73374  14.479  20.481   7.264
 5854POPC   C1B73375  14.180  20.715   6.071
 5854POPC   C2B73376  14.109  20.810   6.485
 5854POPC   C3B73377  14.143  20.623   6.872
 5854POPC   C4B73378  14.024  20.691   7.291
 5855POPC   NC373379  12.537  34.872   5.550
 5855POPC   PO473380  13.000  34.388   5.349
 5855POPC   GL173381  12.857  34.286   5.762
 5855POPC   GL273382  13.007  34.608   5.839
 5855POPC   C1A73383  12.610  34.318   6.148
 5855POPC   D2A73384  12.615  34.518   6.560
 5855POPC   C3A73385  12.644  34.285   6.940
 5855POPC   C4A73386  12.708  34.466   7.344
 5855POPC   C1B73387  13.043  34.544   6.272
 5855POPC   C2B73388  13.053  34.262   6.621
 5855POPC   C3B73389  13.150  34.366   7.073
 5855POPC   C4B73390  13.420  34.593   7.377
 5856POPC   NC373391  33.478  23.866   5.573
 5856POPC   PO473392  34.055  23.507   5.195
 5856POPC   GL173393  33.956  23.687   5.696
 5856POPC   GL273394  33.649  23.486   5.868
 5856POPC   C1A73395  33.939  23.840   6.189
 5856POPC   D2A73396  33.995  24.035   6.608
 5856POPC   C3A73397  33.989  23.796   6.972
 5856POPC   C4A73398  34.013  23.583   7.354
 5856POPC   C1B73399  33.460  23.672   6.256
 5856POPC   C2B73400  33.553  23.740   6.697
 5856POPC   C3B73401  33.585  23.482   7.056
 5856POPC   C4B73402  33.534  23.546   7.486
 5857POPC   NC373403  31.356  32.602   5.267
 5857POPC   PO473404  30.916  32.061   5.397
 5857POPC   GL173405  31.295  32.207   5.633
 5857POPC   GL273406  31.559  32.001   5.668
 5857POPC   C1A73407  31.488  32.345   6.054
 5857POPC   D2A73408  31.682  32.568   6.414
 5857POPC   C3A73409  31.556  32.344   6.780
 5857POPC   C4A73410  31.523  32.413   7.201
 5857POPC   C1B73411  31.505  31.780   6.061
 5857POPC   C2B73412  31.541  31.920   6.482
 5857POPC   C3B73413  31.397  31.817   6.913
 5857POPC   C4B73414  31.266  31.971   7.316
 5858POPC   NC373415  39.506  35.022   5.487
 5858POPC   PO473416  39.318  34.334   5.368
 5858POPC   GL173417  39.263  34.443   5.811
 5858POPC   GL273418  39.256  34.784   5.887
 5858POPC   C1A73419  39.286  34.312   6.244
 5858POPC   D2A73420  39.099  34.432   6.609
 5858POPC   C3A73421  39.397  34.616   6.880
 5858POPC   C4A73422  39.374  34.529   7.309
 5858POPC   C1B73423  39.053  34.987   6.245
 5858POPC   C2B73424  39.031  34.936   6.700
 5858POPC   C3B73425  38.930  34.661   7.048
 5858POPC   C4B73426  38.917  34.636   7.468
 5859POPC   NC373427   7.602  18.333   5.450
 5859POPC   PO473428   7.035  18.322   5.707
 5859POPC   GL173429   7.408  18.240   5.936
 5859POPC   GL273430   7.293  18.011   6.195
 5859POPC   C1A73431   7.681  18.331   6.291
 5859POPC   D2A73432   7.744  18.571   6.684
 5859POPC   C3A73433   7.796  18.243   7.014
 5859POPC   C4A73434   7.434  17.976   7.170
 5859POPC   C1B73435   7.145  18.415   6.362
 5859POPC   C2B73436   7.132  18.548   6.780
 5859POPC   C3B73437   7.110  18.595   7.206
 5859POPC   C4B73438   6.966  18.481   7.624
 5860POPC   NC373439   8.056   3.015   5.297
 5860POPC   PO473440   8.195   2.498   5.604
 5860POPC   GL173441   8.319   2.838   5.812
 5860POPC   GL273442   8.062   3.097   5.802
 5860POPC   C1A73443   8.285   2.841   6.228
 5860POPC   D2A73444   8.255   3.048   6.582
 5860POPC   C3A73445   8.404   2.798   6.926
 5860POPC   C4A73446   8.245   2.574   7.273
 5860POPC   C1B73447   7.878   3.182   6.188
 5860POPC   C2B73448   7.753   2.951   6.558
 5860POPC   C3B73449   7.917   3.071   6.947
 5860POPC   C4B73450   7.687   3.274   7.231
 5861POPC   NC373451  35.007   7.412   5.224
 5861POPC   PO473452  34.361   7.455   5.389
 5861POPC   GL173453  34.484   7.495   5.828
 5861POPC   GL273454  34.616   7.823   5.868
 5861POPC   C1A73455  34.500   7.578   6.295
 5861POPC   D2A73456  34.688   7.888   6.555
 5861POPC   C3A73457  34.508   7.775   6.945
 5861POPC   C4A73458  34.185   7.553   7.170
 5861POPC   C1B73459  34.953   7.604   6.090
 5861POPC   C2B73460  35.108   7.583   6.515
 5861POPC   C3B73461  34.887   7.465   6.871
 5861POPC   C4B73462  34.961   7.671   7.253
 5862POPC   NC373463  17.458  12.747   5.467
 5862POPC   PO473464  17.984  13.144   5.596
 5862POPC   GL173465  17.729  12.905   5.907
 5862POPC   GL273466  17.350  12.858   5.948
 5862POPC   C1A73467  17.682  12.814   6.346
 5862POPC   D2A73468  17.885  12.734   6.713
 5862POPC   C3A73469  17.696  12.802   7.073
 5862POPC   C4A73470  17.321  13.046   7.137
 5862POPC   C1B73471  17.272  12.525   6.238
 5862POPC   C2B73472  17.436  12.473   6.641
 5862POPC   C3B73473  17.266  12.526   7.021
 5862POPC   C4B73474  17.468  12.395   7.403
 5863POPC   NC373475   2.562  35.192   5.469
 5863POPC   PO473476   2.126  35.544   5.443
 5863POPC   GL173477   1.909  35.349   5.808
 5863POPC   GL273478   1.566  35.320   5.735
 5863POPC   C1A73479   1.945  35.241   6.274
 5863POPC   D2A73480   1.789  35.202   6.725
 5863POPC   C3A73481   2.007  35.324   7.117
 5863POPC   C4A73482   2.174  35.736   7.271
 5863POPC   C1B73483   1.447  35.169   6.138
 5863POPC   C2B73484   1.274  35.191   6.560
 5863POPC   C3B73485   1.335  35.184   6.975
 5863POPC   C4B73486   1.551  35.252   7.335
 5864POPC   NC373487  30.509  34.890   5.552
 5864POPC   PO473488  31.040  34.470   5.551
 5864POPC   GL173489  30.891  34.724   5.877
 5864POPC   GL273490  30.541  34.672   5.999
 5864POPC   C1A73491  30.935  34.775   6.314
 5864POPC   D2A73492  30.835  34.567   6.673
 5864POPC   C3A73493  31.027  34.749   7.036
 5864POPC   C4A73494  30.872  34.557   7.441
 5864POPC   C1B73495  30.429  34.736   6.405
 5864POPC   C2B73496  30.499  34.963   6.751
 5864POPC   C3B73497  30.527  34.775   7.140
 5864POPC   C4B73498  30.392  34.730   7.569
 5865POPC   NC373499   7.111  32.241   5.364
 5865POPC   PO473500   6.479  32.368   5.440
 5865POPC   GL173501   6.685  32.174   5.825
 5865POPC   GL273502   6.944  31.951   5.754
 5865POPC   C1A73503   6.758  32.330   6.245
 5865POPC   D2A73504   6.483  32.389   6.598
 5865POPC   C3A73505   6.494  32.255   7.032
 5865POPC   C4A73506   6.622  32.418   7.430
 5865POPC   C1B73507   6.961  31.868   6.184
 5865POPC   C2B73508   6.760  31.914   6.599
 5865POPC   C3B73509   6.790  31.819   7.028
 5865POPC   C4B73510   7.082  31.936   7.294
 5866POPC   NC373511  41.165  33.207   5.526
 5866POPC   PO473512  41.707  32.955   5.227
 5866POPC   GL173513  41.649  32.946   5.680
 5866POPC   GL273514  41.899  33.109   5.882
 5866POPC   C1A73515  41.458  32.942   6.104
 5866POPC   D2A73516  41.570  32.968   6.538
 5866POPC   C3A73517  41.274  32.968   6.868
 5866POPC   C4A73518  41.393  33.072   7.264
 5866POPC   C1B73519  41.963  32.818   6.205
 5866POPC   C2B73520  42.044  32.786   6.647
 5866POPC   C3B73521  41.818  32.893   7.018
 5866POPC   C4B73522  41.949  33.197   7.298
 5867POPC   NC373523  37.319  17.581   5.619
 5867POPC   PO473524  36.682  17.469   5.426
 5867POPC   GL173525  36.819  17.625   5.801
 5867POPC   GL273526  36.955  17.304   5.875
 5867POPC   C1A73527  36.778  17.951   6.128
 5867POPC   D2A73528  36.550  18.011   6.539
 5867POPC   C3A73529  36.809  17.858   6.906
 5867POPC   C4A73530  36.712  17.480   7.145
 5867POPC   C1B73531  37.093  17.492   6.281
 5867POPC   C2B73532  37.149  17.416   6.742
 5867POPC   C3B73533  37.102  17.143   7.104
 5867POPC   C4B73534  37.179  17.231   7.526
 5868POPC   NC373535   8.653  11.198   4.905
 5868POPC   PO473536   9.188  11.263   5.310
 5868POPC   GL173537   9.147  11.252   5.783
 5868POPC   GL273538   9.429  11.470   5.852
 5868POPC   C1A73539   8.857  11.217   6.182
 5868POPC   D2A73540   8.661  11.427   6.566
 5868POPC   C3A73541   8.754  11.274   7.005
 5868POPC   C4A73542   9.086  11.056   7.232
 5868POPC   C1B73543   9.264  11.516   6.236
 5868POPC   C2B73544   9.157  11.328   6.635
 5868POPC   C3B73545   9.234  11.503   7.027
 5868POPC   C4B73546   9.114  11.511   7.478
 5869POPC   NC373547  15.879   7.973   5.450
 5869POPC   PO473548  16.449   8.418   5.400
 5869POPC   GL173549  16.196   8.333   5.768
 5869POPC   GL273550  16.174   7.987   5.903
 5869POPC   C1A73551  15.879   8.478   6.064
 5869POPC   D2A73552  15.636   8.535   6.443
 5869POPC   C3A73553  15.848   8.512   6.843
 5869POPC   C4A73554  15.803   8.486   7.298
 5869POPC   C1B73555  16.048   8.077   6.355
 5869POPC   C2B73556  16.059   7.895   6.751
 5869POPC   C3B73557  15.991   8.042   7.176
 5869POPC   C4B73558  16.145   8.021   7.625
 5870POPC   NC373559  42.866   8.571   5.434
 5870POPC   PO473560  43.365   8.140   5.403
 5870POPC   GL173561  43.194   8.115   5.790
 5870POPC   GL273562  43.203   7.740   5.761
 5870POPC   C1A73563  43.020   8.406   6.138
 5870POPC   D2A73564  42.952   8.652   6.558
 5870POPC   C3A73565  43.112   8.442   6.946
 5870POPC   C4A73566  42.936   8.257   7.299
 5870POPC   C1B73567  43.077   7.831   6.185
 5870POPC   C2B73568  43.209   8.087   6.517
 5870POPC   C3B73569  43.272   7.938   6.923
 5870POPC   C4B73570  43.118   7.770   7.270
 5871POPC   NC373571  38.205  21.381   5.439
 5871POPC   PO473572  38.735  21.760   5.339
 5871POPC   GL173573  38.651  21.567   5.797
 5871POPC   GL273574  38.269  21.499   5.938
 5871POPC   C1A73575  38.595  21.760   6.238
 5871POPC   D2A73576  38.226  21.711   6.485
 5871POPC   C3A73577  38.365  21.549   6.860
 5871POPC   C4A73578  38.584  21.770   7.177
 5871POPC   C1B73579  38.430  21.286   6.294
 5871POPC   C2B73580  38.784  21.368   6.571
 5871POPC   C3B73581  38.815  21.280   6.993
 5871POPC   C4B73582  38.461  21.254   7.258
 5872POPC   NC373583  15.042   7.705   5.383
 5872POPC   PO473584  15.544   7.245   5.461
 5872POPC   GL173585  15.225   7.371   5.735
 5872POPC   GL273586  15.323   7.719   5.810
 5872POPC   C1A73587  15.286   7.377   6.187
 5872POPC   D2A73588  15.119   7.269   6.574
 5872POPC   C3A73589  15.313   7.393   6.947
 5872POPC   C4A73590  15.201   7.520   7.345
 5872POPC   C1B73591  15.086   7.846   6.188
 5872POPC   C2B73592  15.163   7.782   6.608
 5872POPC   C3B73593  14.905   7.692   6.944
 5872POPC   C4B73594  14.891   7.954   7.273
 5873POPC   NC373595  11.890  10.998   5.412
 5873POPC   PO473596  12.401  11.468   5.304
 5873POPC   GL173597  12.178  11.707   5.609
 5873POPC   GL273598  11.972  11.419   5.705
 5873POPC   C1A73599  12.092  11.776   6.065
 5873POPC   D2A73600  11.926  11.703   6.498
 5873POPC   C3A73601  12.196  11.590   6.865
 5873POPC   C4A73602  12.135  11.355   7.250
 5873POPC   C1B73603  11.843  11.308   6.120
 5873POPC   C2B73604  11.783  11.209   6.538
 5873POPC   C3B73605  11.726  11.392   6.925
 5873POPC   C4B73606  11.659  11.193   7.327
 5874POPC   NC373607   1.097   9.312   5.467
 5874POPC   PO473608   1.384   9.839   5.180
 5874POPC   GL173609   1.369   9.741   5.711
 5874POPC   GL273610   1.066   9.606   5.895
 5874POPC   C1A73611   1.359   9.879   6.201
 5874POPC   D2A73612   1.178   9.785   6.635
 5874POPC   C3A73613   1.397   9.942   7.021
 5874POPC   C4A73614   1.537   9.960   7.450
 5874POPC   C1B73615   1.108   9.397   6.281
 5874POPC   C2B73616   0.911   9.325   6.680
 5874POPC   C3B73617   1.159   9.430   7.034
 5874POPC   C4B73618   1.136   9.676   7.380
 5875POPC   NC373619  28.331  19.745   5.478
 5875POPC   PO473620  28.673  20.311   5.449
 5875POPC   GL173621  28.454  20.145   5.800
 5875POPC   GL273622  28.103  20.065   5.854
 5875POPC   C1A73623  28.496  19.929   6.194
 5875POPC   D2A73624  28.381  19.976   6.634
 5875POPC   C3A73625  28.588  20.107   7.015
 5875POPC   C4A73626  28.748  19.755   7.244
 5875POPC   C1B73627  27.991  19.904   6.280
 5875POPC   C2B73628  27.978  19.688   6.692
 5875POPC   C3B73629  28.230  19.721   7.077
 5875POPC   C4B73630  28.329  19.970   7.467
 5876POPC   NC373631  34.890  14.116   5.288
 5876POPC   PO473632  34.203  14.186   5.431
 5876POPC   GL173633  34.545  14.212   5.717
 5876POPC   GL273634  34.551  14.559   5.772
 5876POPC   C1A73635  34.606  14.213   6.172
 5876POPC   D2A73636  34.559  14.076   6.584
 5876POPC   C3A73637  34.445  14.293   6.948
 5876POPC   C4A73638  34.641  14.134   7.300
 5876POPC   C1B73639  34.830  14.651   6.102
 5876POPC   C2B73640  34.655  14.618   6.523
 5876POPC   C3B73641  34.734  14.708   6.939
 5876POPC   C4B73642  34.525  14.887   7.255
 5877POPC   NC373643   0.858  19.214   5.464
 5877POPC   PO473644   1.178  18.576   5.451
 5877POPC   GL173645   1.156  18.750   5.834
 5877POPC   GL273646   1.238  19.105   5.786
 5877POPC   C1A73647   1.393  18.809   6.209
 5877POPC   D2A73648   1.168  18.909   6.590
 5877POPC   C3A73649   1.357  18.807   6.977
 5877POPC   C4A73650   1.315  18.712   7.398
 5877POPC   C1B73651   1.318  19.314   6.178
 5877POPC   C2B73652   1.621  19.197   6.498
 5877POPC   C3B73653   1.486  19.294   6.916
 5877POPC   C4B73654   1.199  19.552   7.176
 5878POPC   NC373655  18.742   1.226   5.265
 5878POPC   PO473656  19.453   1.129   5.306
 5878POPC   GL173657  19.181   1.115   5.707
 5878POPC   GL273658  18.857   1.230   5.809
 5878POPC   C1A73659  19.152   1.074   6.182
 5878POPC   D2A73660  19.013   1.195   6.593
 5878POPC   C3A73661  19.168   1.055   6.984
 5878POPC   C4A73662  19.437   1.405   7.074
 5878POPC   C1B73663  18.641   1.321   6.232
 5878POPC   C2B73664  18.558   1.428   6.683
 5878POPC   C3B73665  18.736   1.304   7.108
 5878POPC   C4B73666  18.808   0.937   7.400
 5879POPC   NC373667  24.659  14.332   5.298
 5879POPC   PO473668  24.162  14.158   5.621
 5879POPC   GL173669  24.507  14.368   5.793
 5879POPC   GL273670  24.306  14.686   5.793
 5879POPC   C1A73671  24.832  14.363   6.139
 5879POPC   D2A73672  24.569  14.315   6.517
 5879POPC   C3A73673  24.709  14.426   6.895
 5879POPC   C4A73674  24.623  14.227   7.270
 5879POPC   C1B73675  24.212  14.478   6.197
 5879POPC   C2B73676  24.048  14.415   6.610
 5879POPC   C3B73677  24.184  14.476   7.045
 5879POPC   C4B73678  24.280  14.509   7.496
 5880POPC   NC373679  25.361   8.572   5.374
 5880POPC   PO473680  25.056   8.035   5.371
 5880POPC   GL173681  25.210   8.131   5.763
 5880POPC   GL273682  25.012   8.460   5.781
 5880POPC   C1A73683  25.293   7.926   6.183
 5880POPC   D2A73684  25.400   8.122   6.597
 5880POPC   C3A73685  25.342   7.931   6.995
 5880POPC   C4A73686  25.477   8.054   7.423
 5880POPC   C1B73687  25.227   8.430   6.196
 5880POPC   C2B73688  25.063   8.508   6.620
 5880POPC   C3B73689  25.204   8.476   7.065
 5880POPC   C4B73690  24.931   8.558   7.449
 5881POPC   NC373691   3.213  33.820   5.089
 5881POPC   PO473692   3.399  33.565   5.609
 5881POPC   GL173693   3.557  33.560   6.014
 5881POPC   GL273694   3.610  33.904   6.101
 5881POPC   C1A73695   3.619  33.513   6.448
 5881POPC   D2A73696   3.631  33.533   6.865
 5881POPC   C3A73697   3.554  33.968   6.936
 5881POPC   C4A73698   3.274  34.179   7.165
 5881POPC   C1B73699   3.992  34.008   6.293
 5881POPC   C2B73700   3.998  33.882   6.704
 5881POPC   C3B73701   4.017  33.873   7.150
 5881POPC   C4B73702   3.652  33.708   7.346
 5882POPC   NC373703  44.130  27.771   5.498
 5882POPC   PO473704  43.683  27.298   5.262
 5882POPC   GL173705  43.740  27.447   5.729
 5882POPC   GL273706  43.799  27.215   6.026
 5882POPC   C1A73707  43.691  27.732   6.116
 5882POPC   D2A73708  43.789  27.813   6.549
 5882POPC   C3A73709  43.593  27.929   6.950
 5882POPC   C4A73710  43.714  27.750   7.358
 5882POPC   C1B73711  44.161  27.499   6.129
 5882POPC   C2B73712  44.271  27.655   6.544
 5882POPC   C3B73713  44.067  27.655   6.949
 5882POPC   C4B73714  44.269  27.731   7.306
 5883POPC   NC373715  21.022   3.746   5.066
 5883POPC   PO473716  21.245   4.273   5.518
 5883POPC   GL173717  21.400   4.254   5.873
 5883POPC   GL273718  21.689   4.444   5.761
 5883POPC   C1A73719  21.353   4.422   6.265
 5883POPC   D2A73720  21.427   4.190   6.627
 5883POPC   C3A73721  21.266   4.276   7.072
 5883POPC   C4A73722  21.096   3.989   7.390
 5883POPC   C1B73723  21.842   4.292   6.145
 5883POPC   C2B73724  21.897   4.418   6.543
 5883POPC   C3B73725  21.713   4.463   6.944
 5883POPC   C4B73726  21.614   4.562   7.355
 5884POPC   NC373727  29.191   0.568   5.242
 5884POPC   PO473728  29.457  44.964   5.378
 5884POPC   GL173729  29.270   0.234   5.750
 5884POPC   GL273730  29.090   0.598   5.815
 5884POPC   C1A73731  29.229   0.305   6.214
 5884POPC   D2A73732  29.396   0.375   6.654
 5884POPC   C3A73733  29.117   0.286   7.025
 5884POPC   C4A73734  29.307   0.137   7.409
 5884POPC   C1B73735  29.196   0.797   6.251
 5884POPC   C2B73736  29.300   0.864   6.687
 5884POPC   C3B73737  28.980   0.799   6.964
 5884POPC   C4B73738  28.902   0.687   7.362
 5885POPC   NC373739  33.684   7.387   5.193
 5885POPC   PO473740  33.804   8.034   5.375
 5885POPC   GL173741  33.735   7.718   5.765
 5885POPC   GL273742  33.892   7.391   5.666
 5885POPC   C1A73743  33.542   7.394   6.056
 5885POPC   D2A73744  33.623   7.213   6.474
 5885POPC   C3A73745  33.568   7.487   6.847
 5885POPC   C4A73746  33.694   7.442   7.292
 5885POPC   C1B73747  34.055   7.411   6.094
 5885POPC   C2B73748  34.127   7.316   6.534
 5885POPC   C3B73749  33.943   7.142   6.910
 5885POPC   C4B73750  34.084   7.079   7.322
 5886POPC   NC373751  19.566  32.924   5.505
 5886POPC   PO473752  20.066  33.418   5.407
 5886POPC   GL173753  19.904  33.208   5.786
 5886POPC   GL273754  19.579  33.360   5.845
 5886POPC   C1A73755  20.041  33.097   6.231
 5886POPC   D2A73756  20.121  33.326   6.623
 5886POPC   C3A73757  19.975  33.171   7.031
 5886POPC   C4A73758  19.958  33.165   7.470
 5886POPC   C1B73759  19.544  33.026   6.177
 5886POPC   C2B73760  19.640  33.039   6.632
 5886POPC   C3B73761  19.464  33.113   7.011
 5886POPC   C4B73762  19.606  32.836   7.304
 5887POPC   NC373763   2.879   7.610   5.529
 5887POPC   PO473764   2.686   7.052   5.295
 5887POPC   GL173765   2.602   7.218   5.730
 5887POPC   GL273766   2.891   7.057   5.798
 5887POPC   C1A73767   2.577   7.505   6.143
 5887POPC   D2A73768   2.387   7.660   6.560
 5887POPC   C3A73769   2.591   7.492   6.935
 5887POPC   C4A73770   2.679   7.577   7.384
 5887POPC   C1B73771   2.801   7.038   6.228
 5887POPC   C2B73772   2.919   7.215   6.616
 5887POPC   C3B73773   3.123   7.107   6.981
 5887POPC   C4B73774   3.073   7.222   7.407
 5888POPC   NC373775  38.816  32.473   5.484
 5888POPC   PO473776  38.151  32.579   5.460
 5888POPC   GL173777  38.344  32.240   5.745
 5888POPC   GL273778  38.599  32.417   5.944
 5888POPC   C1A73779  38.476  31.976   6.135
 5888POPC   D2A73780  38.656  32.184   6.493
 5888POPC   C3A73781  38.516  32.029   6.878
 5888POPC   C4A73782  38.671  31.780   7.231
 5888POPC   C1B73783  38.206  32.398   6.223
 5888POPC   C2B73784  38.231  32.445   6.660
 5888POPC   C3B73785  38.556  32.562   6.947
 5888POPC   C4B73786  38.808  32.668   7.303
 5889POPC   NC373787   3.159  31.043   5.145
 5889POPC   PO473788   2.628  30.631   5.413
 5889POPC   GL173789   2.775  30.839   5.791
 5889POPC   GL273790   2.478  30.698   5.925
 5889POPC   C1A73791   2.787  31.010   6.229
 5889POPC   D2A73792   2.642  31.068   6.673
 5889POPC   C3A73793   2.903  30.954   7.032
 5889POPC   C4A73794   2.792  30.876   7.460
 5889POPC   C1B73795   2.201  30.520   6.220
 5889POPC   C2B73796   2.272  30.460   6.656
 5889POPC   C3B73797   2.484  30.660   6.991
 5889POPC   C4B73798   2.510  30.439   7.375
 5890POPC   NC373799  39.970   3.143   5.246
 5890POPC   PO473800  39.954   2.550   5.296
 5890POPC   GL173801  40.149   2.685   5.654
 5890POPC   GL273802  39.865   2.527   5.814
 5890POPC   C1A73803  40.313   2.628   6.094
 5890POPC   D2A73804  40.298   2.637   6.561
 5890POPC   C3A73805  40.200   2.968   6.887
 5890POPC   C4A73806  39.990   2.800   7.203
 5890POPC   C1B73807  39.818   2.628   6.243
 5890POPC   C2B73808  39.796   2.700   6.678
 5890POPC   C3B73809  39.744   2.401   6.995
 5890POPC   C4B73810  39.407   2.448   7.257
 5891POPC   NC373811  30.185  39.616   5.295
 5891POPC   PO473812  30.167  38.926   5.318
 5891POPC   GL173813  29.992  39.241   5.617
 5891POPC   GL273814  30.313  39.301   5.768
 5891POPC   C1A73815  29.824  39.351   6.067
 5891POPC   D2A73816  29.857  39.209   6.531
 5891POPC   C3A73817  29.638  39.460   6.886
 5891POPC   C4A73818  29.470  39.529   7.304
 5891POPC   C1B73819  30.315  39.251   6.216
 5891POPC   C2B73820  30.353  39.428   6.638
 5891POPC   C3B73821  30.122  39.261   6.994
 5891POPC   C4B73822  30.159  38.793   7.106
 5892POPC   NC373823   5.376  21.348   5.398
 5892POPC   PO473824   4.928  21.863   5.463
 5892POPC   GL173825   5.027  21.515   5.731
 5892POPC   GL273826   5.353  21.670   5.830
 5892POPC   C1A73827   5.065  21.251   6.120
 5892POPC   D2A73828   4.842  21.134   6.514
 5892POPC   C3A73829   5.022  21.221   6.945
 5892POPC   C4A73830   5.207  21.004   7.292
 5892POPC   C1B73831   5.053  21.781   6.158
 5892POPC   C2B73832   5.139  21.575   6.545
 5892POPC   C3B73833   5.222  21.715   6.950
 5892POPC   C4B73834   5.260  21.568   7.361
 5893POPC   NC373835  34.918  18.557   5.358
 5893POPC   PO473836  34.281  18.315   5.186
 5893POPC   GL173837  34.582  18.131   5.606
 5893POPC   GL273838  34.824  18.303   5.762
 5893POPC   C1A73839  34.538  18.134   6.125
 5893POPC   D2A73840  34.405  18.470   6.449
 5893POPC   C3A73841  34.195  18.268   6.804
 5893POPC   C4A73842  34.381  18.037   7.160
 5893POPC   C1B73843  34.840  18.573   6.132
 5893POPC   C2B73844  34.940  18.480   6.568
 5893POPC   C3B73845  34.708  18.451   6.971
 5893POPC   C4B73846  34.838  18.569   7.396
 5894POPC   NC373847  26.480  16.476   5.455
 5894POPC   PO473848  27.019  16.956   5.316
 5894POPC   GL173849  26.945  16.659   5.658
 5894POPC   GL273850  26.711  16.804   5.808
 5894POPC   C1A73851  27.095  16.536   6.083
 5894POPC   D2A73852  26.947  16.424   6.503
 5894POPC   C3A73853  27.034  16.611   6.914
 5894POPC   C4A73854  26.778  16.462   7.296
 5894POPC   C1B73855  26.661  16.796   6.245
 5894POPC   C2B73856  26.601  16.978   6.665
 5894POPC   C3B73857  26.692  16.936   7.127
 5894POPC   C4B73858  26.646  16.875   7.590
 5895POPC   NC373859  42.941  12.576   5.292
 5895POPC   PO473860  43.434  11.989   5.297
 5895POPC   GL173861  43.163  12.090   5.687
 5895POPC   GL273862  43.148  12.472   5.758
 5895POPC   C1A73863  43.000  11.820   6.069
 5895POPC   D2A73864  43.147  11.506   6.383
 5895POPC   C3A73865  43.210  11.599   6.821
 5895POPC   C4A73866  42.919  11.720   7.114
 5895POPC   C1B73867  43.101  12.303   6.179
 5895POPC   C2B73868  43.203  12.058   6.558
 5895POPC   C3B73869  43.047  12.169   6.941
 5895POPC   C4B73870  43.006  12.256   7.362
 5896POPC   NC373871  22.597  22.813   5.416
 5896POPC   PO473872  23.126  23.126   5.335
 5896POPC   GL173873  22.858  23.119   5.737
 5896POPC   GL273874  22.918  22.769   5.842
 5896POPC   C1A73875  22.738  23.090   6.201
 5896POPC   D2A73876  22.840  22.911   6.609
 5896POPC   C3A73877  22.781  23.037   7.037
 5896POPC   C4A73878  22.922  22.965   7.468
 5896POPC   C1B73879  23.066  22.588   6.261
 5896POPC   C2B73880  23.269  22.605   6.685
 5896POPC   C3B73881  23.071  22.585   7.101
 5896POPC   C4B73882  23.052  22.475   7.554
 5897POPC   NC373883  17.354   9.057   5.356
 5897POPC   PO473884  18.050   9.170   5.461
 5897POPC   GL173885  17.817   8.930   5.834
 5897POPC   GL273886  17.432   8.907   5.839
 5897POPC   C1A73887  17.684   8.919   6.279
 5897POPC   D2A73888  17.294   9.093   6.510
 5897POPC   C3A73889  17.397   9.167   6.908
 5897POPC   C4A73890  17.735   8.966   7.037
 5897POPC   C1B73891  17.250   8.683   6.188
 5897POPC   C2B73892  17.444   8.631   6.632
 5897POPC   C3B73893  17.250   8.695   6.986
 5897POPC   C4B73894  17.178   8.507   7.321
 5898POPC   NC373895   0.760  16.677   5.643
 5898POPC   PO473896   1.349  16.588   5.291
 5898POPC   GL173897   1.235  16.536   5.783
 5898POPC   GL273898   1.509  16.694   5.891
 5898POPC   C1A73899   1.142  16.788   6.218
 5898POPC   D2A73900   1.244  16.702   6.637
 5898POPC   C3A73901   1.012  16.905   6.972
 5898POPC   C4A73902   0.836  16.807   7.377
 5898POPC   C1B73903   1.524  16.388   6.262
 5898POPC   C2B73904   1.505  16.274   6.719
 5898POPC   C3B73905   1.395  16.506   7.090
 5898POPC   C4B73906   1.626  16.568   7.445
 5899POPC   NC373907  21.928   5.062   4.932
 5899POPC   PO473908  22.230   5.283   5.518
 5899POPC   GL173909  22.255   5.047   5.899
 5899POPC   GL273910  21.969   5.211   5.990
 5899POPC   C1A73911  22.248   5.049   6.380
 5899POPC   D2A73912  22.190   5.302   6.770
 5899POPC   C3A73913  22.278   5.041   7.123
 5899POPC   C4A73914  22.623   4.819   7.164
 5899POPC   C1B73915  21.766   4.916   6.291
 5899POPC   C2B73916  21.903   4.877   6.734
 5899POPC   C3B73917  21.774   5.013   7.114
 5899POPC   C4B73918  21.961   5.422   7.241
 5900POPC   NC373919  26.404   3.578   5.234
 5900POPC   PO473920  27.080   3.376   5.249
 5900POPC   GL173921  26.983   3.653   5.724
 5900POPC   GL273922  26.672   3.528   5.944
 5900POPC   C1A73923  27.055   3.679   6.234
 5900POPC   D2A73924  26.930   3.786   6.699
 5900POPC   C3A73925  27.024   3.511   7.095
 5900POPC   C4A73926  26.978   3.392   7.533
 5900POPC   C1B73927  26.540   3.786   6.234
 5900POPC   C2B73928  26.419   3.669   6.568
 5900POPC   C3B73929  26.545   3.478   6.902
 5900POPC   C4B73930  26.427   3.471   7.282
 5901POPC   NC373931  20.390  39.017   5.529
 5901POPC   PO473932  19.709  39.202   5.407
 5901POPC   GL173933  19.695  39.199   5.811
 5901POPC   GL273934  19.942  38.942   5.813
 5901POPC   C1A73935  19.692  39.371   6.207
 5901POPC   D2A73936  19.851  39.195   6.575
 5901POPC   C3A73937  19.884  39.430   6.901
 5901POPC   C4A73938  19.699  39.242   7.209
 5901POPC   C1B73939  20.068  38.878   6.232
 5901POPC   C2B73940  20.313  38.992   6.606
 5901POPC   C3B73941  20.130  38.978   7.019
 5901POPC   C4B73942  20.115  39.064   7.459
 5902POPC   NC373943   8.469   4.995   5.446
 5902POPC   PO473944   8.172   5.574   5.535
 5902POPC   GL173945   8.201   5.287   5.842
 5902POPC   GL273946   7.971   5.022   5.754
 5902POPC   C1A73947   8.360   5.143   6.229
 5902POPC   D2A73948   8.223   4.960   6.621
 5902POPC   C3A73949   8.430   5.152   6.967
 5902POPC   C4A73950   8.399   5.290   7.383
 5902POPC   C1B73951   7.840   5.118   6.180
 5902POPC   C2B73952   7.978   5.418   6.491
 5902POPC   C3B73953   7.943   5.388   6.919
 5902POPC   C4B73954   7.970   5.091   7.234
 5903POPC   NC373955  30.072  37.724   5.486
 5903POPC   PO473956  29.457  37.460   5.596
 5903POPC   GL173957  29.719  37.683   5.881
 5903POPC   GL273958  30.066  37.560   5.945
 5903POPC   C1A73959  29.774  37.693   6.324
 5903POPC   D2A73960  30.015  37.489   6.642
 5903POPC   C3A73961  29.767  37.576   6.998
 5903POPC   C4A73962  29.676  37.920   7.217
 5903POPC   C1B73963  30.186  37.976   6.111
 5903POPC   C2B73964  30.098  38.022   6.545
 5903POPC   C3B73965  30.236  37.945   6.967
 5903POPC   C4B73966  30.370  37.902   7.408
 5904POPC   NC373967  34.910  43.016   5.469
 5904POPC   PO473968  34.284  42.827   5.460
 5904POPC   GL173969  34.402  43.185   5.738
 5904POPC   GL273970  34.673  43.449   5.721
 5904POPC   C1A73971  34.290  43.307   6.146
 5904POPC   D2A73972  34.476  43.283   6.562
 5904POPC   C3A73973  34.337  43.232   6.992
 5904POPC   C4A73974  34.526  42.862   7.200
 5904POPC   C1B73975  34.811  43.222   6.102
 5904POPC   C2B73976  35.010  43.152   6.504
 5904POPC   C3B73977  34.838  43.122   6.898
 5904POPC   C4B73978  34.785  43.328   7.279
 5905POPC   NC373979  38.274  13.661   5.643
 5905POPC   PO473980  38.910  13.944   5.442
 5905POPC   GL173981  38.776  13.560   5.670
 5905POPC   GL273982  38.633  13.765   5.964
 5905POPC   C1A73983  38.747  13.292   6.068
 5905POPC   D2A73984  38.612  13.519   6.454
 5905POPC   C3A73985  38.393  13.546   6.819
 5905POPC   C4A73986  38.553  13.731   7.182
 5905POPC   C1B73987  38.250  13.809   6.260
 5905POPC   C2B73988  38.156  13.995   6.627
 5905POPC   C3B73989  38.097  13.905   7.048
 5905POPC   C4B73990  38.117  13.993   7.490
 5906POPC   NC373991  11.683   3.824   5.631
 5906POPC   PO473992  11.351   4.386   5.445
 5906POPC   GL173993  11.351   4.262   5.862
 5906POPC   GL273994  11.230   3.975   5.778
 5906POPC   C1A73995  11.236   4.466   6.255
 5906POPC   D2A73996  11.086   4.392   6.654
 5906POPC   C3A73997  11.241   4.155   6.943
 5906POPC   C4A73998  11.282   4.293   7.322
 5906POPC   C1B73999  11.281   3.922   6.247
 5906POPC   C2B74000  11.025   3.797   6.597
 5906POPC   C3B74001  10.740   4.049   6.839
 5906POPC   C4B74002  10.750   4.175   7.256
 5907POPC   NC374003   0.482  34.269   5.348
 5907POPC   PO474004   0.716  33.559   5.398
 5907POPC   GL174005   0.543  33.749   5.774
 5907POPC   GL274006   0.690  34.083   5.781
 5907POPC   C1A74007   0.320  33.601   6.169
 5907POPC   D2A74008   0.435  33.573   6.619
 5907POPC   C3A74009   0.180  33.560   7.012
 5907POPC   C4A74010   0.489  33.525   7.324
 5907POPC   C1B74011   0.322  34.089   6.076
 5907POPC   C2B74012   0.252  34.064   6.517
 5907POPC   C3B74013   0.406  34.015   6.933
 5907POPC   C4B74014   0.255  33.995   7.353
 5908POPC   NC374015  35.533  33.048   5.466
 5908POPC   PO474016  35.137  32.463   5.373
 5908POPC   GL174017  35.048  32.827   5.718
 5908POPC   GL274018  35.254  33.100   5.885
 5908POPC   C1A74019  34.979  32.881   6.218
 5908POPC   D2A74020  35.251  32.704   6.570
 5908POPC   C3A74021  35.181  32.880   6.973
 5908POPC   C4A74022  35.140  33.340   7.117
 5908POPC   C1B74023  35.529  32.960   6.223
 5908POPC   C2B74024  35.575  33.087   6.672
 5908POPC   C3B74025  35.628  33.198   7.090
 5908POPC   C4B74026  35.786  33.547   7.308
 5909POPC   NC374027   0.018  25.848   5.562
 5909POPC   PO474028   0.659  26.063   5.366
 5909POPC   GL174029   0.373  26.144   5.780
 5909POPC   GL274030   0.171  26.450   5.810
 5909POPC   C1A74031   0.422  25.969   6.222
 5909POPC   D2A74032   0.480  25.666   6.569
 5909POPC   C3A74033   0.551  25.931   6.931
 5909POPC   C4A74034   0.435  25.907   7.386
 5909POPC   C1B74035   0.426  26.481   6.184
 5909POPC   C2B74036   0.505  26.362   6.602
 5909POPC   C3B74037   0.274  26.439   6.943
 5909POPC   C4B74038   0.112  26.320   7.301
 5910POPC   NC374039  15.391  21.909   5.491
 5910POPC   PO474040  15.273  21.189   5.460
 5910POPC   GL174041  15.142  21.422   5.868
 5910POPC   GL274042  14.809  21.512   5.891
 5910POPC   C1A74043  14.981  21.335   6.319
 5910POPC   D2A74044  14.935  21.112   6.699
 5910POPC   C3A74045  15.150  21.378   6.951
 5910POPC   C4A74046  15.449  21.554   7.168
 5910POPC   C1B74047  14.849  21.822   6.245
 5910POPC   C2B74048  14.987  21.765   6.649
 5910POPC   C3B74049  14.971  21.866   7.068
 5910POPC   C4B74050  14.876  21.642   7.418
 5911POPC   NC374051  10.748  22.658   5.455
 5911POPC   PO474052  10.285  23.227   5.367
 5911POPC   GL174053  10.275  22.943   5.750
 5911POPC   GL274054  10.618  22.815   5.919
 5911POPC   C1A74055  10.308  23.109   6.183
 5911POPC   D2A74056  10.627  23.078   6.477
 5911POPC   C3A74057  10.598  23.122   6.915
 5911POPC   C4A74058  10.330  23.052   7.245
 5911POPC   C1B74059  10.730  22.597   6.304
 5911POPC   C2B74060  10.647  22.630   6.739
 5911POPC   C3B74061  10.801  22.671   7.161
 5911POPC   C4B74062  10.901  22.503   7.592
 5912POPC   NC374063   0.267  10.680   5.383
 5912POPC   PO474064   0.735  10.390   5.596
 5912POPC   GL174065   0.434  10.272   5.948
 5912POPC   GL274066   0.133  10.076   5.860
 5912POPC   C1A74067   0.431  10.202   6.412
 5912POPC   D2A74068   0.388  10.316   6.865
 5912POPC   C3A74069   0.668  10.602   7.087
 5912POPC   C4A74070   0.653  10.896   7.450
 5912POPC   C1B74071  44.954  10.270   6.249
 5912POPC   C2B74072  44.895  10.212   6.685
 5912POPC   C3B74073  44.954  10.275   7.142
 5912POPC   C4B74074  44.908  10.333   7.602
 5913POPC   NC374075  21.648  40.319   5.407
 5913POPC   PO474076  21.162  39.846   5.509
 5913POPC   GL174077  21.395  40.130   5.857
 5913POPC   GL274078  21.769  40.218   5.897
 5913POPC   C1A74079  21.435  40.106   6.343
 5913POPC   D2A74080  21.229  39.788   6.614
 5913POPC   C3A74081  21.077  40.014   6.967
 5913POPC   C4A74082  21.034  40.112   7.387
 5913POPC   C1B74083  21.720  39.775   6.089
 5913POPC   C2B74084  21.749  39.695   6.546
 5913POPC   C3B74085  21.606  39.856   6.952
 5913POPC   C4B74086  21.357  39.719   7.280
 5914POPC   NC374087  25.182  39.513   5.195
 5914POPC   PO474088  25.182  38.817   5.402
 5914POPC   GL174089  25.370  38.933   5.815
 5914POPC   GL274090  25.489  39.287   5.894
 5914POPC   C1A74091  25.401  38.976   6.287
 5914POPC   D2A74092  24.991  39.017   6.468
 5914POPC   C3A74093  24.892  39.132   6.900
 5914POPC   C4A74094  25.225  39.181   7.206
 5914POPC   C1B74095  25.450  39.469   6.282
 5914POPC   C2B74096  25.432  39.324   6.711
 5914POPC   C3B74097  25.629  39.479   7.095
 5914POPC   C4B74098  25.595  39.348   7.540
 5915POPC   NC374099   0.210  33.543   5.446
 5915POPC   PO474100   0.371  32.812   5.381
 5915POPC   GL174101   0.404  32.952   5.819
 5915POPC   GL274102   0.724  32.811   5.932
 5915POPC   C1A74103   0.504  33.114   6.258
 5915POPC   D2A74104   0.282  33.049   6.613
 5915POPC   C3A74105   0.474  33.147   6.972
 5915POPC   C4A74106   0.200  33.126   7.329
 5915POPC   C1B74107   0.648  32.583   6.339
 5915POPC   C2B74108   0.589  32.625   6.801
 5915POPC   C3B74109   0.506  32.724   7.247
 5915POPC   C4B74110   0.708  32.664   7.676
 5916POPC   NC374111   2.630  43.518   5.467
 5916POPC   PO474112   2.894  42.864   5.547
 5916POPC   GL174113   2.631  43.093   5.796
 5916POPC   GL274114   2.470  42.866   5.983
 5916POPC   C1A74115   2.759  43.321   6.141
 5916POPC   D2A74116   2.983  43.352   6.513
 5916POPC   C3A74117   2.825  43.123   6.862
 5916POPC   C4A74118   2.980  43.193   7.261
 5916POPC   C1B74119   2.867  42.811   6.268
 5916POPC   C2B74120   3.087  42.662   6.659
 5916POPC   C3B74121   3.182  42.748   7.096
 5916POPC   C4B74122   2.987  42.756   7.534
 5917POPC   NC374123  19.574  11.701   5.503
 5917POPC   PO474124  19.947  12.163   5.140
 5917POPC   GL174125  19.764  12.196   5.659
 5917POPC   GL274126  19.731  11.923   5.938
 5917POPC   C1A74127  19.570  12.352   6.111
 5917POPC   D2A74128  19.585  12.080   6.532
 5917POPC   C3A74129  19.801  12.167   6.920
 5917POPC   C4A74130  19.665  12.412   7.275
 5917POPC   C1B74131  19.985  11.822   6.305
 5917POPC   C2B74132  19.917  11.677   6.726
 5917POPC   C3B74133  19.608  11.703   7.026
 5917POPC   C4B74134  19.656  11.898   7.422
 5918POPC   NC374135  44.686  12.983   5.163
 5918POPC   PO474136   0.245  12.743   5.331
 5918POPC   GL174137  44.978  12.652   5.682
 5918POPC   GL274138  44.757  12.935   5.706
 5918POPC   C1A74139  44.833  12.585   6.113
 5918POPC   D2A74140  44.824  12.721   6.561
 5918POPC   C3A74141  44.581  12.679   6.968
 5918POPC   C4A74142  44.931  12.596   7.191
 5918POPC   C1B74143  44.925  13.084   6.109
 5918POPC   C2B74144  44.717  13.214   6.499
 5918POPC   C3B74145  44.834  13.134   6.933
 5918POPC   C4B74146  44.732  13.022   7.346
 5919POPC   NC374147  26.599  40.908   5.504
 5919POPC   PO474148  27.222  40.733   5.507
 5919POPC   GL174149  26.936  40.706   5.829
 5919POPC   GL274150  27.014  41.047   5.893
 5919POPC   C1A74151  26.753  40.798   6.257
 5919POPC   D2A74152  26.771  41.051   6.638
 5919POPC   C3A74153  26.805  40.858   7.034
 5919POPC   C4A74154  26.617  40.495   7.224
 5919POPC   C1B74155  27.214  41.026   6.346
 5919POPC   C2B74156  27.263  41.202   6.800
 5919POPC   C3B74157  27.208  41.106   7.257
 5919POPC   C4B74158  27.175  41.093   7.730
 5920POPC   NC374159   4.704  20.070   5.499
 5920POPC   PO474160   5.134  19.621   5.275
 5920POPC   GL174161   5.060  19.726   5.748
 5920POPC   GL274162   5.046  20.064   5.951
 5920POPC   C1A74163   5.052  19.463   6.116
 5920POPC   D2A74164   5.210  19.433   6.520
 5920POPC   C3A74165   5.066  19.750   6.817
 5920POPC   C4A74166   5.005  19.668   7.232
 5920POPC   C1B74167   4.911  19.938   6.350
 5920POPC   C2B74168   4.816  20.209   6.697
 5920POPC   C3B74169   4.743  20.081   7.101
 5920POPC   C4B74170   4.507  19.890   7.402
 5921POPC   NC374171  33.282   6.743   5.574
 5921POPC   PO474172  32.734   6.411   5.405
 5921POPC   GL174173  32.838   6.532   5.824
 5921POPC   GL274174  32.758   6.899   5.761
 5921POPC   C1A74175  33.160   6.484   6.199
 5921POPC   D2A74176  33.197   6.218   6.588
 5921POPC   C3A74177  33.177   6.318   7.050
 5921POPC   C4A74178  32.898   6.492   7.341
 5921POPC   C1B74179  32.859   6.892   6.199
 5921POPC   C2B74180  32.930   6.721   6.608
 5921POPC   C3B74181  33.106   6.841   7.026
 5921POPC   C4B74182  33.134   6.923   7.488
 5922POPC   NC374183  14.153   1.631   5.512
 5922POPC   PO474184  14.363   1.137   5.043
 5922POPC   GL174185  14.477   1.173   5.529
 5922POPC   GL274186  14.223   0.928   5.654
 5922POPC   C1A74187  14.446   1.166   6.040
 5922POPC   D2A74188  14.566   1.316   6.484
 5922POPC   C3A74189  14.208   1.452   6.779
 5922POPC   C4A74190  14.191   1.456   7.241
 5922POPC   C1B74191  14.050   0.836   6.099
 5922POPC   C2B74192  14.201   0.947   6.537
 5922POPC   C3B74193  14.455   1.045   6.952
 5922POPC   C4B74194  14.347   0.974   7.400
 5923POPC   NC374195  11.106  24.089   5.218
 5923POPC   PO474196  11.101  23.373   5.276
 5923POPC   GL174197  11.374  23.520   5.664
 5923POPC   GL274198  11.435  23.860   5.829
 5923POPC   C1A74199  11.421  23.450   6.135
 5923POPC   D2A74200  11.519  23.717   6.495
 5923POPC   C3A74201  11.539  23.519   6.897
 5923POPC   C4A74202  11.346  23.394   7.309
 5923POPC   C1B74203  11.115  23.894   6.174
 5923POPC   C2B74204  11.062  23.918   6.626
 5923POPC   C3B74205  11.212  23.879   7.042
 5923POPC   C4B74206  11.137  24.034   7.436
 5924POPC   NC374207  33.426  27.464   5.467
 5924POPC   PO474208  32.825  27.906   5.475
 5924POPC   GL174209  32.893  27.898   5.910
 5924POPC   GL274210  33.211  27.711   5.864
 5924POPC   C1A74211  32.897  27.598   6.277
 5924POPC   D2A74212  33.055  27.350   6.646
 5924POPC   C3A74213  32.843  27.550   7.022
 5924POPC   C4A74214  32.784  27.826   7.400
 5924POPC   C1B74215  33.305  27.915   6.249
 5924POPC   C2B74216  33.146  27.866   6.692
 5924POPC   C3B74217  33.182  28.013   7.115
 5924POPC   C4B74218  33.264  27.934   7.547
 5925POPC   NC374219  11.128   2.976   5.209
 5925POPC   PO474220  10.509   2.679   5.435
 5925POPC   GL174221  10.552   2.797   5.815
 5925POPC   GL274222  10.534   2.435   5.923
 5925POPC   C1A74223  10.340   2.984   6.142
 5925POPC   D2A74224  10.177   2.746   6.486
 5925POPC   C3A74225  10.450   2.680   6.860
 5925POPC   C4A74226  10.295   2.935   7.226
 5925POPC   C1B74227  10.644   2.580   6.333
 5925POPC   C2B74228  10.671   2.997   6.546
 5925POPC   C3B74229  10.730   3.102   6.987
 5925POPC   C4B74230  10.872   2.806   7.298
 5926POPC   NC374231  10.339  30.234   5.324
 5926POPC   PO474232  10.259  30.911   5.081
 5926POPC   GL174233  10.259  30.804   5.561
 5926POPC   GL274234  10.369  30.513   5.746
 5926POPC   C1A74235  10.412  30.982   5.998
 5926POPC   D2A74236  10.629  30.969   6.407
 5926POPC   C3A74237  10.411  30.970   6.817
 5926POPC   C4A74238  10.667  30.962   7.183
 5926POPC   C1B74239  10.603  30.518   6.146
 5926POPC   C2B74240  10.409  30.529   6.556
 5926POPC   C3B74241  10.555  30.503   6.988
 5926POPC   C4B74242  10.585  30.505   7.454
 5927POPC   NC374243  11.345   9.553   5.581
 5927POPC   PO474244  11.327   8.980   5.261
 5927POPC   GL174245  11.294   8.899   5.736
 5927POPC   GL274246  11.491   9.171   5.871
 5927POPC   C1A74247  11.088   9.033   6.153
 5927POPC   D2A74248  11.343   9.255   6.453
 5927POPC   C3A74249  11.302   9.132   6.877
 5927POPC   C4A74250  10.988   9.243   7.165
 5927POPC   C1B74251  11.600   8.858   6.182
 5927POPC   C2B74252  11.514   8.720   6.603
 5927POPC   C3B74253  11.479   8.660   7.063
 5927POPC   C4B74254  11.463   8.807   7.508
 5928POPC   NC374255  13.430  28.310   5.473
 5928POPC   PO474256  14.073  28.259   5.456
 5928POPC   GL174257  13.860  28.584   5.778
 5928POPC   GL274258  13.455  28.635   5.865
 5928POPC   C1A74259  13.779  28.536   6.236
 5928POPC   D2A74260  13.703  28.225   6.529
 5928POPC   C3A74261  13.793  28.410   6.872
 5928POPC   C4A74262  13.937  28.312   7.240
 5928POPC   C1B74263  13.319  28.254   6.120
 5928POPC   C2B74264  13.208  28.104   6.537
 5928POPC   C3B74265  13.399  28.066   6.946
 5928POPC   C4B74266  13.425  28.405   7.236
 5929POPC   NC374267  40.970  41.247   5.201
 5929POPC   PO474268  40.897  41.857   5.235
 5929POPC   GL174269  40.788  41.801   5.673
 5929POPC   GL274270  40.811  41.447   5.716
 5929POPC   C1A74271  40.914  41.959   6.092
 5929POPC   D2A74272  41.083  41.710   6.430
 5929POPC   C3A74273  41.048  41.819   6.855
 5929POPC   C4A74274  41.154  41.571   7.194
 5929POPC   C1B74275  40.673  41.511   6.155
 5929POPC   C2B74276  40.596  41.536   6.611
 5929POPC   C3B74277  40.629  41.505   7.060
 5929POPC   C4B74278  40.426  41.329   7.440
 5930POPC   NC374279   6.555  35.558   5.357
 5930POPC   PO474280   6.745  34.945   5.420
 5930POPC   GL174281   6.604  35.133   5.821
 5930POPC   GL274282   6.345  35.407   5.795
 5930POPC   C1A74283   6.800  35.099   6.243
 5930POPC   D2A74284   6.634  35.236   6.645
 5930POPC   C3A74285   6.871  35.350   6.983
 5930POPC   C4A74286   6.924  35.706   7.245
 5930POPC   C1B74287   6.385  35.444   6.239
 5930POPC   C2B74288   6.349  35.669   6.657
 5930POPC   C3B74289   6.368  35.445   7.060
 5930POPC   C4B74290   6.531  35.009   7.167
 5931POPC   NC374291  44.425  28.866   5.461
 5931POPC   PO474292   0.144  29.070   5.378
 5931POPC   GL174293  44.847  29.267   5.699
 5931POPC   GL274294  44.675  29.009   5.900
 5931POPC   C1A74295  44.752  29.432   6.146
 5931POPC   D2A74296  44.737  29.130   6.487
 5931POPC   C3A74297  44.546  29.155   6.883
 5931POPC   C4A74298  44.497  29.403   7.266
 5931POPC   C1B74299  44.891  28.718   6.199
 5931POPC   C2B74300   0.095  28.782   6.578
 5931POPC   C3B74301   0.009  28.956   6.937
 5931POPC   C4B74302  44.771  28.927   7.271
 5932POPC   NC374303  24.570  22.413   5.208
 5932POPC   PO474304  24.305  21.877   5.229
 5932POPC   GL174305  24.380  22.099   5.651
 5932POPC   GL274306  24.659  22.329   5.734
 5932POPC   C1A74307  24.357  22.156   6.119
 5932POPC   D2A74308  24.094  22.151   6.499
 5932POPC   C3A74309  24.248  22.340   6.854
 5932POPC   C4A74310  24.281  22.222   7.295
 5932POPC   C1B74311  24.765  22.503   6.164
 5932POPC   C2B74312  24.751  22.375   6.627
 5932POPC   C3B74313  24.705  22.432   7.097
 5932POPC   C4B74314  24.682  22.366   7.602
 5933POPC   NC374315  24.358  33.607   5.494
 5933POPC   PO474316  24.872  34.071   5.422
 5933POPC   GL174317  24.646  33.909   5.796
 5933POPC   GL274318  24.816  33.584   5.788
 5933POPC   C1A74319  24.487  33.669   6.182
 5933POPC   D2A74320  24.225  33.664   6.539
 5933POPC   C3A74321  24.345  33.603   6.958
 5933POPC   C4A74322  24.165  33.912   7.271
 5933POPC   C1B74323  24.975  33.532   6.220
 5933POPC   C2B74324  24.796  33.674   6.631
 5933POPC   C3B74325  24.848  33.516   7.053
 5933POPC   C4B74326  24.587  33.638   7.403
 5934POPC   NC374327  16.877  15.586   5.506
 5934POPC   PO474328  16.319  15.930   5.510
 5934POPC   GL174329  16.526  15.989   5.905
 5934POPC   GL274330  16.677  15.662   5.988
 5934POPC   C1A74331  16.777  16.080   6.289
 5934POPC   D2A74332  16.998  16.182   6.682
 5934POPC   C3A74333  16.747  16.204   7.050
 5934POPC   C4A74334  16.739  15.990   7.437
 5934POPC   C1B74335  16.412  15.720   6.351
 5934POPC   C2B74336  16.471  15.819   6.771
 5934POPC   C3B74337  16.419  15.699   7.193
 5934POPC   C4B74338  16.462  15.553   7.634
 5935POPC   NC374339  42.637  32.124   5.393
 5935POPC   PO474340  43.247  32.389   5.535
 5935POPC   GL174341  42.906  32.367   5.800
 5935POPC   GL274342  42.963  32.056   5.923
 5935POPC   C1A74343  43.019  32.481   6.230
 5935POPC   D2A74344  43.378  32.459   6.532
 5935POPC   C3A74345  43.288  32.448   6.991
 5935POPC   C4A74346  42.859  32.457   7.168
 5935POPC   C1B74347  43.343  32.016   6.223
 5935POPC   C2B74348  43.494  31.852   6.635
 5935POPC   C3B74349  43.450  31.783   7.081
 5935POPC   C4B74350  43.203  32.057   7.344
 5936POPC   NC374351  13.077  38.474   5.570
 5936POPC   PO474352  13.636  38.450   5.219
 5936POPC   GL174353  13.765  38.493   5.657
 5936POPC   GL274354  13.503  38.629   5.838
 5936POPC   C1A74355  13.845  38.336   6.077
 5936POPC   D2A74356  13.996  38.486   6.470
 5936POPC   C3A74357  13.856  38.363   6.886
 5936POPC   C4A74358  14.179  38.470   7.157
 5936POPC   C1B74359  13.440  38.539   6.306
 5936POPC   C2B74360  13.576  38.762   6.709
 5936POPC   C3B74361  13.580  38.689   7.178
 5936POPC   C4B74362  13.449  38.628   7.618
 5937POPC   NC374363  36.276  19.306   5.377
 5937POPC   PO474364  35.804  18.806   5.354
 5937POPC   GL174365  36.020  19.023   5.704
 5937POPC   GL274366  36.390  18.896   5.666
 5937POPC   C1A74367  35.924  19.234   6.102
 5937POPC   D2A74368  35.658  19.116   6.432
 5937POPC   C3A74369  35.837  19.161   6.792
 5937POPC   C4A74370  35.913  19.110   7.173
 5937POPC   C1B74371  36.404  18.926   6.093
 5937POPC   C2B74372  36.221  19.015   6.480
 5937POPC   C3B74373  36.218  18.840   6.869
 5937POPC   C4B74374  36.451  18.967   7.175
 5938POPC   NC374375   1.399  28.906   5.377
 5938POPC   PO474376   1.050  29.491   5.415
 5938POPC   GL174377   0.978  29.322   5.790
 5938POPC   GL274378   1.064  28.990   5.739
 5938POPC   C1A74379   1.207  29.360   6.198
 5938POPC   D2A74380   1.458  29.363   6.583
 5938POPC   C3A74381   1.184  29.314   6.924
 5938POPC   C4A74382   1.381  29.262   7.275
 5938POPC   C1B74383   0.910  28.938   6.138
 5938POPC   C2B74384   1.095  28.976   6.529
 5938POPC   C3B74385   0.963  28.836   6.914
 5938POPC   C4B74386   1.045  28.889   7.301
 5939POPC   NC374387  28.138  27.851   5.594
 5939POPC   PO474388  28.323  28.395   5.293
 5939POPC   GL174389  28.238  28.379   5.775
 5939POPC   GL274390  27.946  28.631   5.837
 5939POPC   C1A74391  28.414  28.147   6.194
 5939POPC   D2A74392  28.623  28.002   6.616
 5939POPC   C3A74393  28.379  28.089   7.007
 5939POPC   C4A74394  28.404  28.347   7.343
 5939POPC   C1B74395  27.966  28.389   6.257
 5939POPC   C2B74396  28.187  28.418   6.655
 5939POPC   C3B74397  28.097  28.648   7.049
 5939POPC   C4B74398  27.962  28.681   7.485
 5940POPC   NC374399  42.127  34.475   5.275
 5940POPC   PO474400  42.654  34.126   5.455
 5940POPC   GL174401  42.391  34.369   5.746
 5940POPC   GL274402  42.106  34.178   5.865
 5940POPC   C1A74403  42.344  34.676   6.114
 5940POPC   D2A74404  42.313  34.953   6.496
 5940POPC   C3A74405  42.234  34.752   6.907
 5940POPC   C4A74406  42.298  34.992   7.255
 5940POPC   C1B74407  42.438  34.165   6.217
 5940POPC   C2B74408  42.485  34.384   6.607
 5940POPC   C3B74409  42.411  34.192   6.998
 5940POPC   C4B74410  42.532  34.186   7.440
 5941POPC   NC374411  28.440  14.224   5.518
 5941POPC   PO474412  27.881  14.620   5.349
 5941POPC   GL174413  27.993  14.611   5.792
 5941POPC   GL274414  28.151  14.295   5.930
 5941POPC   C1A74415  28.078  14.717   6.228
 5941POPC   D2A74416  28.200  14.404   6.508
 5941POPC   C3A74417  27.981  14.420   6.878
 5941POPC   C4A74418  28.116  14.595   7.247
 5941POPC   C1B74419  28.542  14.475   6.120
 5941POPC   C2B74420  28.674  14.615   6.529
 5941POPC   C3B74421  28.526  14.479   6.930
 5941POPC   C4B74422  28.635  14.698   7.307
 5942POPC   NC374423  22.676  11.559   5.425
 5942POPC   PO474424  23.344  11.455   5.420
 5942POPC   GL174425  23.214  11.354   5.829
 5942POPC   GL274426  22.977  11.100   5.791
 5942POPC   C1A74427  22.903  11.454   6.162
 5942POPC   D2A74428  22.644  11.467   6.519
 5942POPC   C3A74429  22.785  11.479   6.942
 5942POPC   C4A74430  22.490  11.367   7.231
 5942POPC   C1B74431  23.174  11.015   6.241
 5942POPC   C2B74432  23.117  11.169   6.687
 5942POPC   C3B74433  23.231  11.247   7.130
 5942POPC   C4B74434  23.349  11.075   7.559
 5943POPC   NC374435  44.114  40.859   5.518
 5943POPC   PO474436  43.547  40.641   5.611
 5943POPC   GL174437  43.799  40.853   5.933
 5943POPC   GL274438  44.031  40.581   5.958
 5943POPC   C1A74439  43.832  40.851   6.397
 5943POPC   D2A74440  43.919  40.494   6.650
 5943POPC   C3A74441  43.737  40.388   7.020
 5943POPC   C4A74442  43.492  40.429   7.390
 5943POPC   C1B74443  44.299  40.645   6.315
 5943POPC   C2B74444  44.304  40.818   6.728
 5943POPC   C3B74445  44.205  40.682   7.173
 5943POPC   C4B74446  44.061  40.773   7.623
 5944POPC   NC374447   9.121  40.218   5.493
 5944POPC   PO474448   8.632  39.833   5.321
 5944POPC   GL174449   8.769  39.950   5.753
 5944POPC   GL274450   8.729  40.324   5.807
 5944POPC   C1A74451   8.715  40.036   6.229
 5944POPC   D2A74452   8.814  40.048   6.702
 5944POPC   C3A74453   8.618  39.989   7.117
 5944POPC   C4A74454   8.862  39.741   7.417
 5944POPC   C1B74455   9.108  40.359   6.123
 5944POPC   C2B74456   9.168  40.402   6.568
 5944POPC   C3B74457   9.330  40.412   7.008
 5944POPC   C4B74458   9.057  40.175   7.191
 5945POPC   NC374459  30.879  29.367   5.469
 5945POPC   PO474460  30.460  28.886   5.160
 5945POPC   GL174461  30.538  29.007   5.625
 5945POPC   GL274462  30.894  28.917   5.733
 5945POPC   C1A74463  30.579  29.190   6.084
 5945POPC   D2A74464  30.577  29.089   6.572
 5945POPC   C3A74465  30.520  29.388   6.969
 5945POPC   C4A74466  30.381  29.325   7.424
 5945POPC   C1B74467  31.028  28.960   6.177
 5945POPC   C2B74468  31.079  28.911   6.619
 5945POPC   C3B74469  30.844  28.982   7.011
 5945POPC   C4B74470  30.883  29.288   7.345
 5946POPC   NC374471   3.332  34.731   5.483
 5946POPC   PO474472   3.757  34.252   5.388
 5946POPC   GL174473   3.609  34.335   5.793
 5946POPC   GL274474   3.660  34.701   5.881
 5946POPC   C1A74475   3.334  34.318   6.166
 5946POPC   D2A74476   3.301  34.630   6.478
 5946POPC   C3A74477   3.418  34.607   6.906
 5946POPC   C4A74478   3.346  34.922   7.227
 5946POPC   C1B74479   3.822  34.486   6.228
 5946POPC   C2B74480   3.704  34.304   6.594
 5946POPC   C3B74481   3.887  34.346   7.006
 5946POPC   C4B74482   3.696  34.553   7.325
 5947POPC   NC374483  12.835  30.507   5.333
 5947POPC   PO474484  12.647  31.125   5.257
 5947POPC   GL174485  12.590  30.949   5.706
 5947POPC   GL274486  12.780  30.662   5.812
 5947POPC   C1A74487  12.635  30.932   6.193
 5947POPC   D2A74488  12.948  30.927   6.547
 5947POPC   C3A74489  12.657  30.801   6.855
 5947POPC   C4A74490  12.557  30.694   7.274
 5947POPC   C1B74491  13.119  30.620   6.159
 5947POPC   C2B74492  13.048  30.442   6.570
 5947POPC   C3B74493  13.113  30.611   6.978
 5947POPC   C4B74494  12.985  30.462   7.400
 5948POPC   NC374495  29.081  37.161   5.580
 5948POPC   PO474496  29.210  36.580   5.188
 5948POPC   GL174497  29.091  36.651   5.658
 5948POPC   GL274498  29.366  36.848   5.858
 5948POPC   C1A74499  28.986  36.671   6.148
 5948POPC   D2A74500  29.007  36.922   6.587
 5948POPC   C3A74501  29.122  36.760   7.017
 5948POPC   C4A74502  28.836  36.674   7.331
 5948POPC   C1B74503  29.451  36.917   6.290
 5948POPC   C2B74504  29.522  37.259   6.604
 5948POPC   C3B74505  29.367  37.235   7.021
 5948POPC   C4B74506  29.516  36.935   7.301
 5949POPC   NC374507   2.329   1.211   5.331
 5949POPC   PO474508   2.942   1.462   5.225
 5949POPC   GL174509   2.735   1.169   5.622
 5949POPC   GL274510   2.978   1.129   5.865
 5949POPC   C1A74511   2.518   1.083   6.064
 5949POPC   D2A74512   2.536   1.272   6.515
 5949POPC   C3A74513   2.558   1.094   6.957
 5949POPC   C4A74514   2.630   1.344   7.365
 5949POPC   C1B74515   3.145   1.088   6.269
 5949POPC   C2B74516   2.947   0.944   6.633
 5949POPC   C3B74517   3.090   0.987   7.048
 5949POPC   C4B74518   3.121   1.178   7.452
 5950POPC   NC374519   1.267  23.087   5.105
 5950POPC   PO474520   0.947  22.619   5.430
 5950POPC   GL174521   1.053  22.830   5.817
 5950POPC   GL274522   0.778  23.085   5.876
 5950POPC   C1A74523   1.329  22.752   6.189
 5950POPC   D2A74524   1.217  22.588   6.572
 5950POPC   C3A74525   1.326  22.737   6.964
 5950POPC   C4A74526   1.201  22.717   7.376
 5950POPC   C1B74527   0.858  22.899   6.291
 5950POPC   C2B74528   1.060  23.058   6.653
 5950POPC   C3B74529   0.887  22.999   7.059
 5950POPC   C4B74530   0.937  23.130   7.479
 5951POPC   NC374531  28.059  40.759   5.390
 5951POPC   PO474532  28.601  41.120   5.467
 5951POPC   GL174533  28.336  40.951   5.811
 5951POPC   GL274534  28.312  40.570   5.798
 5951POPC   C1A74535  28.384  40.908   6.271
 5951POPC   D2A74536  28.633  41.166   6.590
 5951POPC   C3A74537  28.596  40.968   6.992
 5951POPC   C4A74538  28.167  40.834   7.215
 5951POPC   C1B74539  28.584  40.336   6.068
 5951POPC   C2B74540  28.451  40.289   6.472
 5951POPC   C3B74541  28.355  40.536   6.821
 5951POPC   C4B74542  28.587  40.499   7.206
 5952POPC   NC374543  28.805   0.993   5.630
 5952POPC   PO474544  29.396   1.295   5.544
 5952POPC   GL174545  29.416   1.111   5.919
 5952POPC   GL274546  29.093   1.218   5.984
 5952POPC   C1A74547  29.498   1.213   6.358
 5952POPC   D2A74548  29.549   1.321   6.787
 5952POPC   C3A74549  29.334   1.179   7.113
 5952POPC   C4A74550  29.237   1.052   7.512
 5952POPC   C1B74551  28.807   1.138   6.299
 5952POPC   C2B74552  28.997   1.272   6.667
 5952POPC   C3B74553  28.837   1.272   7.058
 5952POPC   C4B74554  28.576   1.352   7.352
 5953POPC   NC374555  14.709  16.733   5.454
 5953POPC   PO474556  14.094  16.711   5.388
 5953POPC   GL174557  14.299  16.688   5.802
 5953POPC   GL274558  14.607  16.478   5.889
 5953POPC   C1A74559  14.161  16.827   6.240
 5953POPC   D2A74560  14.371  16.834   6.669
 5953POPC   C3A74561  14.296  16.751   7.136
 5953POPC   C4A74562  14.349  17.026   7.476
 5953POPC   C1B74563  14.550  16.501   6.324
 5953POPC   C2B74564  14.590  16.372   6.753
 5953POPC   C3B74565  14.619  16.318   7.205
 5953POPC   C4B74566  14.515  16.552   7.588
 5954POPC   NC374567   1.853   9.851   5.179
 5954POPC   PO474568   2.240   9.440   5.510
 5954POPC   GL174569   1.968   9.409   5.869
 5954POPC   GL274570   1.938   9.763   5.850
 5954POPC   C1A74571   1.655   9.464   6.225
 5954POPC   D2A74572   1.682   9.670   6.646
 5954POPC   C3A74573   2.077   9.634   6.869
 5954POPC   C4A74574   2.167   9.427   7.245
 5954POPC   C1B74575   2.109   9.738   6.279
 5954POPC   C2B74576   2.124  10.083   6.570
 5954POPC   C3B74577   1.926  10.115   6.938
 5954POPC   C4B74578   2.012   9.938   7.281
 5955POPC   NC374579  21.015  21.994   5.491
 5955POPC   PO474580  20.481  22.400   5.291
 5955POPC   GL174581  20.699  22.363   5.687
 5955POPC   GL274582  20.504  22.038   5.731
 5955POPC   C1A74583  20.798  22.197   6.115
 5955POPC   D2A74584  20.936  22.227   6.536
 5955POPC   C3A74585  20.636  22.103   6.831
 5955POPC   C4A74586  20.693  22.205   7.256
 5955POPC   C1B74587  20.313  22.345   6.040
 5955POPC   C2B74588  20.290  22.329   6.498
 5955POPC   C3B74589  20.247  22.404   6.961
 5955POPC   C4B74590  20.256  22.469   7.397
 5956POPC   NC374591  25.829  26.375   5.524
 5956POPC   PO474592  25.257  26.667   5.473
 5956POPC   GL174593  25.418  26.828   5.833
 5956POPC   GL274594  25.635  26.563   5.953
 5956POPC   C1A74595  25.317  26.956   6.250
 5956POPC   D2A74596  25.399  27.144   6.630
 5956POPC   C3A74597  25.180  26.962   6.966
 5956POPC   C4A74598  24.961  27.238   7.229
 5956POPC   C1B74599  25.259  26.460   6.161
 5956POPC   C2B74600  25.096  26.560   6.574
 5956POPC   C3B74601  25.074  26.405   6.995
 5956POPC   C4B74602  24.859  26.654   7.298
 5957POPC   NC374603  25.923  19.962   5.432
 5957POPC   PO474604  26.473  19.551   5.337
 5957POPC   GL174605  26.412  19.703   5.749
 5957POPC   GL274606  26.316  20.010   5.752
 5957POPC   C1A74607  26.084  19.675   6.079
 5957POPC   D2A74608  25.839  19.634   6.450
 5957POPC   C3A74609  26.084  19.666   6.839
 5957POPC   C4A74610  25.976  19.786   7.269
 5957POPC   C1B74611  26.370  20.091   6.169
 5957POPC   C2B74612  26.090  20.066   6.522
 5957POPC   C3B74613  26.116  20.172   6.947
 5957POPC   C4B74614  26.334  20.121   7.350
 5958POPC   NC374615  18.050  26.922   5.481
 5958POPC   PO474616  18.619  26.693   5.448
 5958POPC   GL174617  18.408  26.873   5.825
 5958POPC   GL274618  18.424  27.240   5.811
 5958POPC   C1A74619  18.139  26.766   6.203
 5958POPC   D2A74620  17.989  26.673   6.628
 5958POPC   C3A74621  18.162  26.831   7.001
 5958POPC   C4A74622  18.218  26.624   7.353
 5958POPC   C1B74623  18.426  27.172   6.270
 5958POPC   C2B74624  18.354  27.164   6.677
 5958POPC   C3B74625  18.555  27.149   7.056
 5958POPC   C4B74626  18.466  27.038   7.499
 5959POPC   NC374627  13.951  31.376   5.207
 5959POPC   PO474628  14.516  31.588   5.388
 5959POPC   GL174629  14.281  31.591   5.766
 5959POPC   GL274630  14.586  31.458   5.924
 5959POPC   C1A74631  14.149  31.428   6.180
 5959POPC   D2A74632  14.239  31.286   6.613
 5959POPC   C3A74633  14.230  31.442   7.031
 5959POPC   C4A74634  14.516  31.184   7.250
 5959POPC   C1B74635  14.930  31.655   6.195
 5959POPC   C2B74636  14.887  31.817   6.642
 5959POPC   C3B74637  14.707  31.615   7.025
 5959POPC   C4B74638  14.697  31.578   7.503
 5960POPC   NC374639   5.525  42.729   5.388
 5960POPC   PO474640   6.009  42.190   5.305
 5960POPC   GL174641   5.941  42.211   5.747
 5960POPC   GL274642   5.881  42.589   5.765
 5960POPC   C1A74643   6.079  42.238   6.181
 5960POPC   D2A74644   5.814  42.241   6.560
 5960POPC   C3A74645   5.999  42.314   6.928
 5960POPC   C4A74646   6.111  42.103   7.306
 5960POPC   C1B74647   5.665  42.518   6.157
 5960POPC   C2B74648   5.496  42.670   6.528
 5960POPC   C3B74649   5.571  42.568   6.931
 5960POPC   C4B74650   5.844  42.653   7.265
 5961POPC   NC374651  10.711  36.164   5.504
 5961POPC   PO474652  10.019  36.293   5.654
 5961POPC   GL174653  10.425  36.252   5.912
 5961POPC   GL274654  10.574  35.922   5.992
 5961POPC   C1A74655  10.659  36.381   6.294
 5961POPC   D2A74656  10.389  36.517   6.670
 5961POPC   C3A74657  10.303  36.324   7.055
 5961POPC   C4A74658  10.729  36.195   7.101
 5961POPC   C1B74659  10.390  35.953   6.422
 5961POPC   C2B74660  10.394  35.855   6.886
 5961POPC   C3B74661  10.432  35.896   7.366
 5961POPC   C4B74662  10.436  35.885   7.845
 5962POPC   NC374663   7.463   3.605   5.385
 5962POPC   PO474664   7.603   2.975   5.354
 5962POPC   GL174665   7.433   3.249   5.755
 5962POPC   GL274666   7.623   3.574   5.866
 5962POPC   C1A74667   7.299   3.423   6.221
 5962POPC   D2A74668   7.035   3.426   6.611
 5962POPC   C3A74669   7.210   3.465   7.062
 5962POPC   C4A74670   7.277   3.383   7.526
 5962POPC   C1B74671   7.621   3.824   6.270
 5962POPC   C2B74672   7.495   3.736   6.711
 5962POPC   C3B74673   7.715   3.759   7.133
 5962POPC   C4B74674   7.745   3.615   7.600
 5963POPC   NC374675  33.714  10.457   5.372
 5963POPC   PO474676  34.310  10.209   5.176
 5963POPC   GL174677  34.152  10.373   5.633
 5963POPC   GL274678  33.862  10.206   5.796
 5963POPC   C1A74679  34.137  10.472   6.107
 5963POPC   D2A74680  34.032  10.346   6.546
 5963POPC   C3A74681  33.880  10.571   6.925
 5963POPC   C4A74682  33.967  10.435   7.361
 5963POPC   C1B74683  33.661  10.144   6.201
 5963POPC   C2B74684  33.679   9.976   6.633
 5963POPC   C3B74685  33.693  10.096   7.066
 5963POPC   C4B74686  33.589  10.091   7.547
 5964POPC   NC374687  30.147   8.565   5.473
 5964POPC   PO474688  29.746   9.106   5.539
 5964POPC   GL174689  29.999   8.906   5.842
 5964POPC   GL274690  29.793   8.651   5.903
 5964POPC   C1A74691  30.146   8.988   6.253
 5964POPC   D2A74692  29.981   8.851   6.642
 5964POPC   C3A74693  30.112   9.083   6.985
 5964POPC   C4A74694  30.048   9.118   7.396
 5964POPC   C1B74695  29.635   8.992   6.211
 5964POPC   C2B74696  29.575   9.204   6.631
 5964POPC   C3B74697  29.617   9.042   7.054
 5964POPC   C4B74698  29.838   8.698   7.227
 5965POPC   NC374699  21.616  44.206   5.160
 5965POPC   PO474700  21.157  43.770   5.274
 5965POPC   GL174701  21.139  43.855   5.718
 5965POPC   GL274702  21.399  43.684   5.824
 5965POPC   C1A74703  21.176  44.059   6.164
 5965POPC   D2A74704  21.122  43.956   6.591
 5965POPC   C3A74705  21.348  44.122   6.945
 5965POPC   C4A74706  21.812  44.080   6.993
 5965POPC   C1B74707  21.595  43.729   6.242
 5965POPC   C2B74708  21.761  43.643   6.653
 5965POPC   C3B74709  21.628  43.491   7.079
 5965POPC   C4B74710  21.320  43.715   7.272
 5966POPC   NC374711  36.322  16.352   5.316
 5966POPC   PO474712  35.875  16.916   5.217
 5966POPC   GL174713  36.000  16.841   5.660
 5966POPC   GL274714  36.175  16.530   5.760
 5966POPC   C1A74715  36.046  16.944   6.101
 5966POPC   D2A74716  36.325  16.991   6.462
 5966POPC   C3A74717  36.190  16.728   6.808
 5966POPC   C4A74718  36.224  16.709   7.240
 5966POPC   C1B74719  35.822  16.464   6.013
 5966POPC   C2B74720  35.889  16.474   6.446
 5966POPC   C3B74721  36.028  16.226   6.774
 5966POPC   C4B74722  35.896  16.302   7.161
 5967POPC   NC374723  36.391  27.575   5.498
 5967POPC   PO474724  35.818  27.198   5.238
 5967POPC   GL174725  35.948  27.401   5.642
 5967POPC   GL274726  35.863  27.760   5.696
 5967POPC   C1A74727  35.961  27.505   6.119
 5967POPC   D2A74728  36.065  27.662   6.540
 5967POPC   C3A74729  35.904  27.425   6.894
 5967POPC   C4A74730  36.121  27.280   7.272
 5967POPC   C1B74731  35.908  28.038   6.096
 5967POPC   C2B74732  35.901  28.205   6.539
 5967POPC   C3B74733  35.780  27.976   6.904
 5967POPC   C4B74734  35.923  27.784   7.279
 5968POPC   NC374735  13.760  27.457   5.504
 5968POPC   PO474736  13.229  27.852   5.535
 5968POPC   GL174737  13.485  27.718   5.864
 5968POPC   GL274738  13.566  27.373   5.966
 5968POPC   C1A74739  13.562  27.814   6.263
 5968POPC   D2A74740  13.405  27.635   6.617
 5968POPC   C3A74741  13.608  27.450   6.961
 5968POPC   C4A74742  13.636  27.740   7.286
 5968POPC   C1B74743  13.832  27.176   6.239
 5968POPC   C2B74744  13.948  27.129   6.635
 5968POPC   C3B74745  14.158  27.342   6.916
 5968POPC   C4B74746  14.031  27.405   7.280
 5969POPC   NC374747  24.669  41.318   5.240
 5969POPC   PO474748  24.455  40.683   5.315
 5969POPC   GL174749  24.449  41.022   5.640
 5969POPC   GL274750  24.769  41.206   5.754
 5969POPC   C1A74751  24.436  40.971   6.112
 5969POPC   D2A74752  24.664  40.736   6.453
 5969POPC   C3A74753  24.458  40.684   6.843
 5969POPC   C4A74754  24.509  40.574   7.249
 5969POPC   C1B74755  24.930  41.096   6.190
 5969POPC   C2B74756  24.888  41.174   6.642
 5969POPC   C3B74757  24.775  41.077   7.075
 5969POPC   C4B74758  24.573  41.228   7.460
 5970POPC   NC374759  21.057  36.555   5.516
 5970POPC   PO474760  20.560  36.977   5.369
 5970POPC   GL174761  20.647  36.758   5.772
 5970POPC   GL274762  20.451  36.457   5.766
 5970POPC   C1A74763  20.691  36.669   6.220
 5970POPC   D2A74764  20.881  36.511   6.604
 5970POPC   C3A74765  20.910  36.887   6.867
 5970POPC   C4A74766  20.776  37.156   7.194
 5970POPC   C1B74767  20.188  36.527   6.117
 5970POPC   C2B74768  20.210  36.822   6.486
 5970POPC   C3B74769  20.370  36.889   6.908
 5970POPC   C4B74770  20.261  37.133   7.261
 5971POPC   NC374771   2.305  30.191   5.403
 5971POPC   PO474772   2.922  29.855   5.395
 5971POPC   GL174773   2.933  29.992   5.810
 5971POPC   GL274774   2.864  30.332   5.879
 5971POPC   C1A74775   2.982  29.931   6.245
 5971POPC   D2A74776   2.849  29.861   6.653
 5971POPC   C3A74777   3.084  29.890   7.012
 5971POPC   C4A74778   3.076  29.619   7.376
 5971POPC   C1B74779   2.492  30.088   6.107
 5971POPC   C2B74780   2.356  29.955   6.560
 5971POPC   C3B74781   2.553  30.130   6.967
 5971POPC   C4B74782   2.936  30.408   7.088
 5972POPC   NC374783  38.968  40.159   5.348
 5972POPC   PO474784  39.569  40.094   5.625
 5972POPC   GL174785  39.325  39.817   5.778
 5972POPC   GL274786  39.055  40.045   5.865
 5972POPC   C1A74787  39.314  39.695   6.196
 5972POPC   D2A74788  39.019  39.570   6.521
 5972POPC   C3A74789  39.156  39.795   6.889
 5972POPC   C4A74790  39.236  39.718   7.306
 5972POPC   C1B74791  39.260  40.333   6.185
 5972POPC   C2B74792  39.302  40.476   6.639
 5972POPC   C3B74793  39.338  40.312   7.086
 5972POPC   C4B74794  39.172  40.188   7.491
 5973POPC   NC374795  36.586  41.341   5.276
 5973POPC   PO474796  37.088  41.621   5.234
 5973POPC   GL174797  37.049  41.430   5.692
 5973POPC   GL274798  36.719  41.200   5.752
 5973POPC   C1A74799  37.212  41.603   6.125
 5973POPC   D2A74800  37.066  41.912   6.449
 5973POPC   C3A74801  37.133  41.740   6.863
 5973POPC   C4A74802  36.953  41.683   7.264
 5973POPC   C1B74803  36.687  41.594   6.032
 5973POPC   C2B74804  36.553  41.806   6.432
 5973POPC   C3B74805  36.575  41.804   6.897
 5973POPC   C4B74806  36.439  41.511   7.218
 5974POPC   NC374807  43.887  21.777   5.417
 5974POPC   PO474808  43.440  22.341   5.409
 5974POPC   GL174809  43.834  22.223   5.683
 5974POPC   GL274810  44.091  22.493   5.754
 5974POPC   C1A74811  43.920  22.156   6.132
 5974POPC   D2A74812  43.683  22.350   6.477
 5974POPC   C3A74813  43.685  22.162   6.877
 5974POPC   C4A74814  44.005  21.926   7.080
 5974POPC   C1B74815  43.967  22.674   6.181
 5974POPC   C2B74816  44.176  22.611   6.586
 5974POPC   C3B74817  44.114  22.455   7.015
 5974POPC   C4B74818  43.732  22.560   7.220
 5975POPC   NC374819  11.732   2.844   5.440
 5975POPC   PO474820  12.326   2.879   5.306
 5975POPC   GL174821  12.134   2.638   5.705
 5975POPC   GL274822  11.836   2.427   5.760
 5975POPC   C1A74823  11.970   2.848   6.100
 5975POPC   D2A74824  12.082   2.763   6.520
 5975POPC   C3A74825  11.917   2.718   6.922
 5975POPC   C4A74826  11.776   2.971   7.261
 5975POPC   C1B74827  11.999   2.348   6.202
 5975POPC   C2B74828  12.021   2.236   6.643
 5975POPC   C3B74829  12.244   2.292   7.036
 5975POPC   C4B74830  12.054   2.499   7.370
 5976POPC   NC374831  30.730  10.871   5.437
 5976POPC   PO474832  30.685  10.254   5.410
 5976POPC   GL174833  30.653  10.484   5.809
 5976POPC   GL274834  30.837  10.770   5.917
 5976POPC   C1A74835  30.784  10.393   6.253
 5976POPC   D2A74836  30.829  10.559   6.704
 5976POPC   C3A74837  30.630  10.328   7.080
 5976POPC   C4A74838  30.474  10.364   7.506
 5976POPC   C1B74839  30.610  10.859   6.315
 5976POPC   C2B74840  30.931  11.048   6.581
 5976POPC   C3B74841  30.866  11.017   6.976
 5976POPC   C4B74842  30.570  10.842   7.214
 5977POPC   NC374843  27.547   0.962   5.133
 5977POPC   PO474844  27.777   0.348   5.350
 5977POPC   GL174845  27.671   0.546   5.761
 5977POPC   GL274846  27.864   0.877   5.762
 5977POPC   C1A74847  27.422   0.389   6.168
 5977POPC   D2A74848  27.198   0.095   6.489
 5977POPC   C3A74849  27.414   0.124   6.902
 5977POPC   C4A74850  27.601   0.401   7.182
 5977POPC   C1B74851  27.819   0.749   6.210
 5977POPC   C2B74852  27.729   0.594   6.620
 5977POPC   C3B74853  27.934   0.763   6.964
 5977POPC   C4B74854  28.021   0.709   7.351
 5978POPC   NC374855   9.635  25.193   5.416
 5978POPC   PO474856  10.172  25.538   5.372
 5978POPC   GL174857  10.032  25.349   5.722
 5978POPC   GL274858   9.894  25.636   5.873
 5978POPC   C1A74859   9.903  25.134   6.088
 5978POPC   D2A74860   9.536  25.077   6.341
 5978POPC   C3A74861   9.586  25.154   6.764
 5978POPC   C4A74862   9.337  25.276   7.090
 5978POPC   C1B74863   9.626  25.576   6.233
 5978POPC   C2B74864   9.617  25.685   6.662
 5978POPC   C3B74865   9.731  25.577   7.056
 5978POPC   C4B74866   9.911  25.759   7.378
 5979POPC   NC374867   7.172  35.059   5.251
 5979POPC   PO474868   7.473  35.625   5.329
 5979POPC   GL174869   7.434  35.332   5.688
 5979POPC   GL274870   7.075  35.292   5.708
 5979POPC   C1A74871   7.585  35.255   6.128
 5979POPC   D2A74872   7.665  35.342   6.576
 5979POPC   C3A74873   7.554  35.087   6.928
 5979POPC   C4A74874   7.701  35.296   7.271
 5979POPC   C1B74875   7.132  35.474   6.111
 5979POPC   C2B74876   7.135  35.444   6.554
 5979POPC   C3B74877   7.342  35.567   6.937
 5979POPC   C4B74878   7.432  35.742   7.319
 5980POPC   NC374879  33.587  23.130   5.440
 5980POPC   PO474880  34.100  22.687   5.395
 5980POPC   GL174881  33.897  22.862   5.741
 5980POPC   GL274882  34.023  23.181   5.696
 5980POPC   C1A74883  33.735  23.051   6.134
 5980POPC   D2A74884  33.713  23.260   6.550
 5980POPC   C3A74885  33.683  22.965   6.911
 5980POPC   C4A74886  33.441  22.697   7.169
 5980POPC   C1B74887  34.125  23.392   6.097
 5980POPC   C2B74888  34.143  23.519   6.567
 5980POPC   C3B74889  34.069  23.280   6.961
 5980POPC   C4B74890  33.834  23.113   7.366
 5981POPC   NC374891  16.309  10.461   5.425
 5981POPC   PO474892  16.870  10.069   5.402
 5981POPC   GL174893  16.797  10.450   5.703
 5981POPC   GL274894  16.456  10.512   5.903
 5981POPC   C1A74895  16.869  10.747   6.075
 5981POPC   D2A74896  16.972  10.696   6.519
 5981POPC   C3A74897  16.776  10.796   6.919
 5981POPC   C4A74898  16.721  10.612   7.309
 5981POPC   C1B74899  16.277  10.229   6.222
 5981POPC   C2B74900  16.450  10.064   6.596
 5981POPC   C3B74901  16.638  10.257   6.944
 5981POPC   C4B74902  16.563  10.109   7.334
 5982POPC   NC374903  28.196  43.428   5.356
 5982POPC   PO474904  28.118  42.706   5.362
 5982POPC   GL174905  28.308  42.921   5.751
 5982POPC   GL274906  28.424  43.253   5.787
 5982POPC   C1A74907  28.492  42.941   6.194
 5982POPC   D2A74908  28.348  42.757   6.604
 5982POPC   C3A74909  28.456  42.946   7.008
 5982POPC   C4A74910  28.270  42.839   7.416
 5982POPC   C1B74911  28.247  43.476   6.154
 5982POPC   C2B74912  28.292  43.293   6.555
 5982POPC   C3B74913  28.130  43.407   6.925
 5982POPC   C4B74914  28.341  43.368   7.272
 5983POPC   NC374915  33.628  34.788   5.533
 5983POPC   PO474916  33.999  34.432   5.168
 5983POPC   GL174917  33.922  34.342   5.634
 5983POPC   GL274918  34.068  34.641   5.760
 5983POPC   C1A74919  33.677  34.387   6.064
 5983POPC   D2A74920  33.396  34.463   6.413
 5983POPC   C3A74921  33.605  34.343   6.799
 5983POPC   C4A74922  33.675  34.460   7.213
 5983POPC   C1B74923  34.150  34.505   6.180
 5983POPC   C2B74924  34.121  34.720   6.576
 5983POPC   C3B74925  34.141  34.584   7.006
 5983POPC   C4B74926  34.033  34.808   7.377
 5984POPC   NC374927  38.905  44.933   5.209
 5984POPC   PO474928  39.259  44.506   5.514
 5984POPC   GL174929  39.094  44.804   5.774
 5984POPC   GL274930  39.243  44.592   6.020
 5984POPC   C1A74931  39.075   0.009   6.209
 5984POPC   D2A74932  39.124  44.676   6.526
 5984POPC   C3A74933  39.047  44.791   6.949
 5984POPC   C4A74934  38.902  44.729   7.367
 5984POPC   C1B74935  39.507  44.362   6.345
 5984POPC   C2B74936  39.541  44.293   6.809
 5984POPC   C3B74937  39.308  44.379   7.179
 5984POPC   C4B74938  39.353  44.593   7.570
 5985POPC   NC374939  19.897  44.383   5.314
 5985POPC   PO474940  19.784  43.749   5.304
 5985POPC   GL174941  19.843  43.837   5.753
 5985POPC   GL274942  20.082  44.134   5.723
 5985POPC   C1A74943  19.734  43.627   6.176
 5985POPC   D2A74944  19.778  43.388   6.566
 5985POPC   C3A74945  19.805  43.716   6.877
 5985POPC   C4A74946  19.831  43.719   7.322
 5985POPC   C1B74947  20.015  44.229   6.135
 5985POPC   C2B74948  20.213  44.221   6.528
 5985POPC   C3B74949  20.065  44.248   6.954
 5985POPC   C4B74950  19.629  44.143   7.087
 5986POPC   NC374951  11.501  37.666   5.422
 5986POPC   PO474952  10.801  37.566   5.385
 5986POPC   GL174953  11.102  37.674   5.753
 5986POPC   GL274954  11.096  38.053   5.891
 5986POPC   C1A74955  11.195  37.366   6.115
 5986POPC   D2A74956  11.156  37.188   6.529
 5986POPC   C3A74957  11.468  37.288   6.842
 5986POPC   C4A74958  11.401  37.477   7.241
 5986POPC   C1B74959  10.950  37.795   6.235
 5986POPC   C2B74960  11.256  37.687   6.544
 5986POPC   C3B74961  11.273  37.851   6.926
 5986POPC   C4B74962  10.933  37.873   7.205
 5987POPC   NC374963  11.332  28.507   5.311
 5987POPC   PO474964  10.646  28.364   5.491
 5987POPC   GL174965  10.513  28.344   5.868
 5987POPC   GL274966  10.528  28.688   5.891
 5987POPC   C1A74967  10.558  28.128   6.245
 5987POPC   D2A74968  10.830  28.265   6.579
 5987POPC   C3A74969  10.644  28.340   6.990
 5987POPC   C4A74970  10.403  28.313   7.366
 5987POPC   C1B74971  10.719  28.689   6.259
 5987POPC   C2B74972  10.599  28.726   6.664
 5987POPC   C3B74973  10.724  28.820   7.077
 5987POPC   C4B74974  10.617  28.789   7.501
 5988POPC   NC374975  27.277  16.501   5.308
 5988POPC   PO474976  27.872  16.910   5.331
 5988POPC   GL174977  27.666  16.648   5.623
 5988POPC   GL274978  27.419  16.793   5.788
 5988POPC   C1A74979  27.744  16.496   6.055
 5988POPC   D2A74980  27.929  16.715   6.428
 5988POPC   C3A74981  27.685  16.677   6.790
 5988POPC   C4A74982  27.690  16.604   7.205
 5988POPC   C1B74983  27.516  16.906   6.225
 5988POPC   C2B74984  27.575  17.145   6.627
 5988POPC   C3B74985  27.467  17.052   7.088
 5988POPC   C4B74986  27.448  17.148   7.561
 5989POPC   NC374987  24.297   6.858   5.376
 5989POPC   PO474988  24.869   6.463   5.442
 5989POPC   GL174989  24.666   6.492   5.796
 5989POPC   GL274990  24.576   6.836   5.812
 5989POPC   C1A74991  24.738   6.333   6.204
 5989POPC   D2A74992  24.479   6.310   6.569
 5989POPC   C3A74993  24.503   6.614   6.895
 5989POPC   C4A74994  24.456   6.551   7.341
 5989POPC   C1B74995  24.385   6.685   6.214
 5989POPC   C2B74996  24.084   6.685   6.569
 5989POPC   C3B74997  24.010   6.987   6.889
 5989POPC   C4B74998  24.331   7.008   7.189
 5990POPC   NC374999  24.910  32.437   5.441
 5990POPC   PO475000  24.273  32.356   5.147
 5990POPC   GL175001  24.537  32.198   5.646
 5990POPC   GL275002  24.557  32.536   5.824
 5990POPC   C1A75003  24.443  32.207   6.194
 5990POPC   D2A75004  24.319  32.298   6.647
 5990POPC   C3A75005  24.185  32.003   7.012
 5990POPC   C4A75006  24.126  32.117   7.476
 5990POPC   C1B75007  24.518  32.720   6.244
 5990POPC   C2B75008  24.706  32.698   6.645
 5990POPC   C3B75009  24.614  32.507   7.028
 5990POPC   C4B75010  24.281  32.673   7.244
 5991POPC   NC375011  29.681  28.544   5.284
 5991POPC   PO475012  30.268  28.231   5.486
 5991POPC   GL175013  30.007  28.502   5.776
 5991POPC   GL275014  29.642  28.551   5.809
 5991POPC   C1A75015  29.941  28.421   6.226
 5991POPC   D2A75016  29.881  28.157   6.573
 5991POPC   C3A75017  30.025  28.171   6.982
 5991POPC   C4A75018  29.744  28.195   7.318
 5991POPC   C1B75019  29.671  28.846   6.205
 5991POPC   C2B75020  29.945  28.786   6.609
 5991POPC   C3B75021  29.826  28.640   7.033
 5991POPC   C4B75022  29.608  28.693   7.437
 5992POPC   NC375023  10.200  18.771   5.377
 5992POPC   PO475024  10.647  19.296   5.343
 5992POPC   GL175025  10.634  19.164   5.794
 5992POPC   GL275026  10.297  19.002   5.855
 5992POPC   C1A75027  10.744  19.109   6.235
 5992POPC   D2A75028  10.582  18.980   6.638
 5992POPC   C3A75029  10.647  19.258   7.014
 5992POPC   C4A75030  10.698  18.946   7.359
 5992POPC   C1B75031  10.170  19.159   6.280
 5992POPC   C2B75032  10.130  19.159   6.745
 5992POPC   C3B75033  10.273  18.924   7.084
 5992POPC   C4B75034  10.254  19.117   7.539
 5993POPC   NC375035  35.603  23.947   5.354
 5993POPC   PO475036  35.134  23.497   5.252
 5993POPC   GL175037  35.327  23.633   5.644
 5993POPC   GL275038  35.030  23.778   5.760
 5993POPC   C1A75039  35.514  23.594   6.091
 5993POPC   D2A75040  35.440  23.483   6.558
 5993POPC   C3A75041  35.656  23.681   6.919
 5993POPC   C4A75042  35.479  24.098   7.088
 5993POPC   C1B75043  34.951  23.910   6.184
 5993POPC   C2B75044  35.196  23.946   6.560
 5993POPC   C3B75045  35.149  23.756   6.933
 5993POPC   C4B75046  34.851  23.889   7.191
 5994POPC   NC375047  34.558  16.892   5.308
 5994POPC   PO475048  35.021  16.398   5.249
 5994POPC   GL175049  34.764  16.615   5.678
 5994POPC   GL275050  34.575  16.972   5.795
 5994POPC   C1A75051  34.773  16.684   6.153
 5994POPC   D2A75052  34.543  17.075   6.365
 5994POPC   C3A75053  34.475  16.979   6.816
 5994POPC   C4A75054  34.735  16.989   7.182
 5994POPC   C1B75055  34.282  16.750   6.065
 5994POPC   C2B75056  34.353  16.595   6.468
 5994POPC   C3B75057  34.224  16.411   6.826
 5994POPC   C4B75058  34.335  16.569   7.201
 5995POPC   NC375059  42.819   9.336   5.330
 5995POPC   PO475060  43.244   8.851   5.458
 5995POPC   GL175061  43.206   9.174   5.754
 5995POPC   GL275062  42.852   9.199   5.800
 5995POPC   C1A75063  43.384   9.217   6.169
 5995POPC   D2A75064  43.222   9.209   6.591
 5995POPC   C3A75065  43.161   8.957   6.954
 5995POPC   C4A75066  43.513   8.774   7.162
 5995POPC   C1B75067  42.871   8.996   6.164
 5995POPC   C2B75068  42.728   9.154   6.533
 5995POPC   C3B75069  42.596   8.984   6.885
 5995POPC   C4B75070  42.774   9.132   7.245
 5996POPC   NC375071  27.545   4.455   5.262
 5996POPC   PO475072  27.893   3.937   5.403
 5996POPC   GL175073  27.665   4.138   5.738
 5996POPC   GL275074  27.718   4.472   5.773
 5996POPC   C1A75075  27.429   4.116   6.143
 5996POPC   D2A75076  27.427   4.036   6.602
 5996POPC   C3A75077  27.780   4.080   6.904
 5996POPC   C4A75078  27.534   4.151   7.255
 5996POPC   C1B75079  27.687   4.565   6.176
 5996POPC   C2B75080  27.785   4.460   6.568
 5996POPC   C3B75081  27.546   4.546   6.924
 5996POPC   C4B75082  27.585   4.740   7.310
 5997POPC   NC375083  40.487  23.240   5.446
 5997POPC   PO475084  40.917  22.743   5.591
 5997POPC   GL175085  40.584  22.842   5.903
 5997POPC   GL275086  40.466  23.205   5.966
 5997POPC   C1A75087  40.624  22.858   6.376
 5997POPC   D2A75088  40.931  22.723   6.716
 5997POPC   C3A75089  40.747  22.761   7.141
 5997POPC   C4A75090  40.476  22.690   7.508
 5997POPC   C1B75091  40.892  23.213   6.098
 5997POPC   C2B75092  41.091  23.175   6.449
 5997POPC   C3B75093  41.068  23.191   6.893
 5997POPC   C4B75094  40.947  23.205   7.330
 5998POPC   NC375095  29.871  23.210   5.533
 5998POPC   PO475096  29.864  22.548   5.554
 5998POPC   GL175097  30.044  22.830   5.822
 5998POPC   GL275098  29.711  22.915   5.917
 5998POPC   C1A75099  30.115  23.113   6.184
 5998POPC   D2A75100  29.888  23.049   6.560
 5998POPC   C3A75101  30.024  23.095   7.000
 5998POPC   C4A75102  29.873  22.808   7.318
 5998POPC   C1B75103  29.616  23.249   6.164
 5998POPC   C2B75104  29.386  23.219   6.532
 5998POPC   C3B75105  29.527  23.091   6.912
 5998POPC   C4B75106  29.391  23.131   7.267
 5999POPC   NC375107  17.849   2.811   5.123
 5999POPC   PO475108  17.295   2.509   5.532
 5999POPC   GL175109  17.632   2.663   5.834
 5999POPC   GL275110  17.724   3.011   5.734
 5999POPC   C1A75111  17.646   2.584   6.300
 5999POPC   D2A75112  17.737   2.556   6.749
 5999POPC   C3A75113  17.420   2.414   7.016
 5999POPC   C4A75114  17.280   2.661   7.309
 5999POPC   C1B75115  17.583   3.084   6.191
 5999POPC   C2B75116  17.337   3.034   6.577
 5999POPC   C3B75117  17.486   3.023   7.007
 5999POPC   C4B75118  17.855   3.219   7.178
 6000POPC   NC375119  38.557  43.726   5.183
 6000POPC   PO475120  38.283  44.311   5.409
 6000POPC   GL175121  38.299  43.951   5.674
 6000POPC   GL275122  38.642  43.871   5.692
 6000POPC   C1A75123  38.334  43.910   6.131
 6000POPC   D2A75124  38.599  43.930   6.519
 6000POPC   C3A75125  38.369  44.033   6.876
 6000POPC   C4A75126  38.366  44.152   7.271
 6000POPC   C1B75127  38.838  43.761   6.102
 6000POPC   C2B75128  39.023  43.607   6.468
 6000POPC   C3B75129  38.856  43.630   6.859
 6000POPC   C4B75130  38.678  43.761   7.226
 6001POPC   NC375131   5.227  17.727   5.477
 6001POPC   PO475132   4.723  17.222   5.423
 6001POPC   GL175133   4.920  17.447   5.786
 6001POPC   GL275134   5.271  17.448   5.915
 6001POPC   C1A75135   4.902  17.296   6.222
 6001POPC   D2A75136   5.166  17.209   6.540
 6001POPC   C3A75137   5.013  17.295   6.936
 6001POPC   C4A75138   4.984  17.471   7.327
 6001POPC   C1B75139   5.250  17.687   6.320
 6001POPC   C2B75140   5.135  17.779   6.750
 6001POPC   C3B75141   5.208  17.893   7.198
 6001POPC   C4B75142   5.100  17.951   7.649
 6002POPC   NC375143   1.170  13.139   5.634
 6002POPC   PO475144   1.502  12.579   5.464
 6002POPC   GL175145   1.224  12.657   5.804
 6002POPC   GL275146   0.844  12.596   5.779
 6002POPC   C1A75147   1.372  12.663   6.226
 6002POPC   D2A75148   1.187  12.875   6.570
 6002POPC   C3A75149   1.275  12.813   6.980
 6002POPC   C4A75150   1.283  12.374   7.096
 6002POPC   C1B75151   0.840  12.791   6.180
 6002POPC   C2B75152   0.677  12.881   6.575
 6002POPC   C3B75153   0.774  12.768   6.966
 6002POPC   C4B75154   0.769  13.067   7.317
 6003POPC   NC375155   8.466  44.960   5.482
 6003POPC   PO475156   7.754  44.908   5.356
 6003POPC   GL175157   7.953  44.847   5.783
 6003POPC   GL275158   8.257  44.637   5.855
 6003POPC   C1A75159   7.930  44.666   6.228
 6003POPC   D2A75160   8.225  44.510   6.519
 6003POPC   C3A75161   8.068  44.591   6.915
 6003POPC   C4A75162   7.784  44.749   7.174
 6003POPC   C1B75163   8.287   0.004   6.125
 6003POPC   C2B75164   8.286   0.020   6.566
 6003POPC   C3B75165   8.520  44.810   6.863
 6003POPC   C4B75166   8.341  44.847   7.263
 6004POPC   NC375167   1.386  22.496   5.593
 6004POPC   PO475168   1.508  21.852   5.387
 6004POPC   GL175169   1.283  22.022   5.805
 6004POPC   GL275170   0.957  22.232   5.773
 6004POPC   C1A75171   1.269  22.022   6.295
 6004POPC   D2A75172   1.402  22.164   6.743
 6004POPC   C3A75173   1.112  21.949   7.040
 6004POPC   C4A75174   0.885  21.758   7.332
 6004POPC   C1B75175   0.924  22.381   6.200
 6004POPC   C2B75176   0.878  22.214   6.630
 6004POPC   C3B75177   0.938  22.417   7.030
 6004POPC   C4B75178   0.935  22.258   7.444
 6005POPC   NC375179   3.990  11.471   5.235
 6005POPC   PO475180   3.308  11.215   5.319
 6005POPC   GL175181   3.491  11.314   5.708
 6005POPC   GL275182   3.744  11.571   5.700
 6005POPC   C1A75183   3.549  11.170   6.125
 6005POPC   D2A75184   3.573  10.923   6.502
 6005POPC   C3A75185   3.359  11.154   6.821
 6005POPC   C4A75186   3.428  11.128   7.257
 6005POPC   C1B75187   3.789  11.633   6.153
 6005POPC   C2B75188   3.660  11.464   6.550
 6005POPC   C3B75189   3.574  11.635   6.966
 6005POPC   C4B75190   3.591  11.619   7.412
 6006POPC   NC375191  17.516  40.880   5.456
 6006POPC   PO475192  18.019  40.461   5.376
 6006POPC   GL175193  17.739  40.547   5.794
 6006POPC   GL275194  17.436  40.833   5.937
 6006POPC   C1A75195  17.594  40.466   6.223
 6006POPC   D2A75196  17.265  40.692   6.448
 6006POPC   C3A75197  17.463  40.762   6.828
 6006POPC   C4A75198  17.734  40.449   7.026
 6006POPC   C1B75199  17.643  41.012   6.285
 6006POPC   C2B75200  17.770  41.271   6.641
 6006POPC   C3B75201  17.485  41.282   6.982
 6006POPC   C4B75202  17.212  40.991   7.200
 6007POPC   NC375203  19.595   2.247   5.143
 6007POPC   PO475204  20.017   1.663   5.271
 6007POPC   GL175205  20.079   1.899   5.678
 6007POPC   GL275206  19.941   2.255   5.775
 6007POPC   C1A75207  19.915   1.775   6.089
 6007POPC   D2A75208  19.628   1.775   6.437
 6007POPC   C3A75209  19.756   1.727   6.855
 6007POPC   C4A75210  19.522   1.903   7.185
 6007POPC   C1B75211  19.633   2.222   6.169
 6007POPC   C2B75212  19.474   2.244   6.608
 6007POPC   C3B75213  19.746   2.295   6.954
 6007POPC   C4B75214  20.001   2.304   7.322
 6008POPC   NC375215  13.077  28.906   5.470
 6008POPC   PO475216  13.226  29.569   5.518
 6008POPC   GL175217  13.017  29.338   5.861
 6008POPC   GL275218  12.721  29.093   5.857
 6008POPC   C1A75219  12.889  29.304   6.316
 6008POPC   D2A75220  12.676  29.281   6.740
 6008POPC   C3A75221  13.007  29.234   7.059
 6008POPC   C4A75222  13.347  29.474   7.254
 6008POPC   C1B75223  12.573  28.889   6.294
 6008POPC   C2B75224  12.719  28.775   6.746
 6008POPC   C3B75225  12.739  28.800   7.209
 6008POPC   C4B75226  12.762  28.854   7.672
 6009POPC   NC375227  29.250   2.364   5.030
 6009POPC   PO475228  29.001   1.693   5.166
 6009POPC   GL175229  29.057   1.652   5.711
 6009POPC   GL275230  29.054   1.956   5.905
 6009POPC   C1A75231  29.401   1.648   6.107
 6009POPC   D2A75232  29.279   1.704   6.589
 6009POPC   C3A75233  29.448   1.757   7.047
 6009POPC   C4A75234  29.233   2.091   7.333
 6009POPC   C1B75235  28.908   1.643   6.235
 6009POPC   C2B75236  28.751   1.734   6.658
 6009POPC   C3B75237  28.925   1.765   7.064
 6009POPC   C4B75238  29.080   1.550   7.426
 6010POPC   NC375239  34.753  25.263   5.347
 6010POPC   PO475240  34.147  25.566   5.336
 6010POPC   GL175241  34.406  25.420   5.730
 6010POPC   GL275242  34.674  25.139   5.841
 6010POPC   C1A75243  34.352  25.347   6.189
 6010POPC   D2A75244  34.520  25.462   6.619
 6010POPC   C3A75245  34.444  25.227   6.995
 6010POPC   C4A75246  34.079  25.053   7.155
 6010POPC   C1B75247  34.853  25.200   6.253
 6010POPC   C2B75248  34.843  25.082   6.694
 6010POPC   C3B75249  34.945  25.165   7.109
 6010POPC   C4B75250  34.746  25.345   7.465
 6011POPC   NC375251  38.600  17.243   5.182
 6011POPC   PO475252  38.039  17.453   5.382
 6011POPC   GL175253  38.292  17.327   5.732
 6011POPC   GL275254  38.548  17.588   5.784
 6011POPC   C1A75255  38.228  17.423   6.173
 6011POPC   D2A75256  38.493  17.591   6.482
 6011POPC   C3A75257  38.383  17.376   6.833
 6011POPC   C4A75258  38.357  17.377   7.256
 6011POPC   C1B75259  38.842  17.786   6.094
 6011POPC   C2B75260  38.956  17.848   6.523
 6011POPC   C3B75261  38.704  17.833   6.914
 6011POPC   C4B75262  38.824  17.593   7.268
 6012POPC   NC375263  29.554  40.292   5.288
 6012POPC   PO475264  29.001  39.927   5.135
 6012POPC   GL175265  29.165  39.965   5.564
 6012POPC   GL275266  28.836  39.929   5.745
 6012POPC   C1A75267  29.279  39.987   6.007
 6012POPC   D2A75268  29.553  40.033   6.325
 6012POPC   C3A75269  29.407  40.150   6.729
 6012POPC   C4A75270  29.522  40.036   7.148
 6012POPC   C1B75271  28.855  39.775   6.156
 6012POPC   C2B75272  28.961  40.133   6.416
 6012POPC   C3B75273  28.858  40.234   6.828
 6012POPC   C4B75274  28.774  39.962   7.165
 6013POPC   NC375275  40.558  18.295   4.989
 6013POPC   PO475276  40.839  18.436   5.597
 6013POPC   GL175277  40.791  18.320   5.950
 6013POPC   GL275278  40.802  18.021   5.892
 6013POPC   C1A75279  40.997  18.361   6.323
 6013POPC   D2A75280  40.842  18.415   6.721
 6013POPC   C3A75281  41.125  18.325   7.019
 6013POPC   C4A75282  41.000  18.553   7.360
 6013POPC   C1B75283  41.023  17.851   6.213
 6013POPC   C2B75284  41.048  17.920   6.651
 6013POPC   C3B75285  40.858  17.916   7.033
 6013POPC   C4B75286  40.609  18.250   7.208
 6014POPC   NC375287  32.137  32.920   5.324
 6014POPC   PO475288  32.753  33.039   5.380
 6014POPC   GL175289  32.429  32.897   5.730
 6014POPC   GL275290  32.135  33.153   5.787
 6014POPC   C1A75291  32.157  32.746   6.094
 6014POPC   D2A75292  32.073  32.923   6.492
 6014POPC   C3A75293  32.271  32.694   6.796
 6014POPC   C4A75294  32.315  32.739   7.238
 6014POPC   C1B75295  32.465  33.198   6.133
 6014POPC   C2B75296  32.574  33.032   6.536
 6014POPC   C3B75297  32.391  33.170   6.928
 6014POPC   C4B75298  32.234  33.389   7.277
 6015POPC   NC375299  30.791  13.088   5.569
 6015POPC   PO475300  30.779  13.591   5.172
 6015POPC   GL175301  30.706  13.522   5.758
 6015POPC   GL275302  30.355  13.620   5.845
 6015POPC   C1A75303  30.752  13.696   6.198
 6015POPC   D2A75304  30.642  13.567   6.615
 6015POPC   C3A75305  30.835  13.783   6.935
 6015POPC   C4A75306  31.038  13.831   7.326
 6015POPC   C1B75307  30.256  13.485   6.262
 6015POPC   C2B75308  30.133  13.429   6.690
 6015POPC   C3B75309  30.382  13.436   7.067
 6015POPC   C4B75310  30.543  13.752   7.352
 6016POPC   NC375311  29.487  36.931   5.346
 6016POPC   PO475312  30.149  37.079   5.377
 6016POPC   GL175313  29.872  37.112   5.738
 6016POPC   GL275314  29.902  36.773   5.892
 6016POPC   C1A75315  29.876  37.176   6.207
 6016POPC   D2A75316  29.922  36.883   6.570
 6016POPC   C3A75317  29.892  37.090   6.967
 6016POPC   C4A75318  29.957  37.152   7.415
 6016POPC   C1B75319  30.266  36.673   6.182
 6016POPC   C2B75320  30.472  36.683   6.599
 6016POPC   C3B75321  30.248  36.727   6.966
 6016POPC   C4B75322  29.958  36.672   7.263
 6017POPC   NC375323  44.996  35.201   5.446
 6017POPC   PO475324  44.344  35.134   5.373
 6017POPC   GL175325  44.593  35.196   5.785
 6017POPC   GL275326  44.809  35.476   5.895
 6017POPC   C1A75327  44.778  35.097   6.218
 6017POPC   D2A75328  44.968  35.302   6.574
 6017POPC   C3A75329  44.884  35.142   6.972
 6017POPC   C4A75330  44.919  34.967   7.379
 6017POPC   C1B75331  44.391  35.583   6.085
 6017POPC   C2B75332  44.307  35.779   6.487
 6017POPC   C3B75333  44.635  35.635   6.792
 6017POPC   C4B75334  44.673  35.515   7.230
 6018POPC   NC375335  11.531  39.440   5.457
 6018POPC   PO475336  11.099  39.053   5.177
 6018POPC   GL175337  11.304  39.016   5.669
 6018POPC   GL275338  11.262  39.326   5.858
 6018POPC   C1A75339  11.435  38.965   6.150
 6018POPC   D2A75340  11.226  39.117   6.537
 6018POPC   C3A75341  11.385  39.051   6.949
 6018POPC   C4A75342  11.458  39.170   7.355
 6018POPC   C1B75343  11.244  39.565   6.246
 6018POPC   C2B75344  11.224  39.609   6.690
 6018POPC   C3B75345  11.196  39.539   7.122
 6018POPC   C4B75346  11.180  39.560   7.589
 6019POPC   NC375347  37.965  16.997   5.475
 6019POPC   PO475348  37.628  16.360   5.377
 6019POPC   GL175349  37.703  16.636   5.744
 6019POPC   GL275350  38.033  16.525   5.697
 6019POPC   C1A75351  37.821  16.932   6.119
 6019POPC   D2A75352  37.952  17.034   6.566
 6019POPC   C3A75353  37.651  16.838   6.899
 6019POPC   C4A75354  37.468  16.841   7.338
 6019POPC   C1B75355  38.058  16.466   6.133
 6019POPC   C2B75356  37.816  16.502   6.497
 6019POPC   C3B75357  37.835  16.329   6.895
 6019POPC   C4B75358  37.940  16.547   7.247
 6020POPC   NC375359  13.564  17.951   5.073
 6020POPC   PO475360  13.975  18.397   5.337
 6020POPC   GL175361  13.857  18.168   5.724
 6020POPC   GL275362  13.538  18.052   5.691
 6020POPC   C1A75363  13.880  18.198   6.186
 6020POPC   D2A75364  13.865  18.588   6.453
 6020POPC   C3A75365  13.543  18.590   6.761
 6020POPC   C4A75366  13.660  18.513   7.172
 6020POPC   C1B75367  13.295  18.116   6.075
 6020POPC   C2B75368  13.430  18.139   6.511
 6020POPC   C3B75369  13.399  18.106   6.963
 6020POPC   C4B75370  13.740  18.017   7.273
 6021POPC   NC375371  25.551  32.341   5.478
 6021POPC   PO475372  26.152  32.170   5.335
 6021POPC   GL175373  25.995  32.320   5.724
 6021POPC   GL275374  25.814  32.017   5.802
 6021POPC   C1A75375  26.025  32.336   6.188
 6021POPC   D2A75376  25.904  32.104   6.544
 6021POPC   C3A75377  25.991  32.356   6.907
 6021POPC   C4A75378  25.794  32.372   7.308
 6021POPC   C1B75379  26.216  31.901   6.043
 6021POPC   C2B75380  26.428  32.058   6.457
 6021POPC   C3B75381  26.413  32.004   6.923
 6021POPC   C4B75382  26.127  32.012   7.269
 6022POPC   NC375383  19.097   5.316   5.153
 6022POPC   PO475384  18.848   4.760   5.440
 6022POPC   GL175385  19.080   5.075   5.690
 6022POPC   GL275386  18.880   5.384   5.795
 6022POPC   C1A75387  19.053   5.026   6.154
 6022POPC   D2A75388  18.912   4.911   6.571
 6022POPC   C3A75389  19.186   4.957   6.927
 6022POPC   C4A75390  18.845   4.939   7.207
 6022POPC   C1B75391  18.706   5.416   6.185
 6022POPC   C2B75392  18.989   5.409   6.534
 6022POPC   C3B75393  18.868   5.362   6.944
 6022POPC   C4B75394  18.981   5.441   7.367
 6023POPC   NC375395  20.151  32.109   5.372
 6023POPC   PO475396  19.959  32.673   5.522
 6023POPC   GL175397  19.792  32.361   5.777
 6023POPC   GL275398  19.538  32.569   5.891
 6023POPC   C1A75399  19.927  32.332   6.206
 6023POPC   D2A75400  19.927  32.649   6.507
 6023POPC   C3A75401  20.027  32.664   6.955
 6023POPC   C4A75402  19.982  32.520   7.420
 6023POPC   C1B75403  19.418  32.278   6.200
 6023POPC   C2B75404  19.557  32.318   6.620
 6023POPC   C3B75405  19.669  32.312   7.054
 6023POPC   C4B75406  19.610  32.051   7.432
 6024POPC   NC375407   5.200  39.331   5.400
 6024POPC   PO475408   4.575  39.320   5.298
 6024POPC   GL175409   4.830  39.155   5.706
 6024POPC   GL275410   5.142  38.935   5.766
 6024POPC   C1A75411   5.072  39.323   6.104
 6024POPC   D2A75412   5.131  39.226   6.563
 6024POPC   C3A75413   5.188  39.467   6.951
 6024POPC   C4A75414   4.901  39.479   7.328
 6024POPC   C1B75415   5.138  38.811   6.243
 6024POPC   C2B75416   5.257  38.755   6.708
 6024POPC   C3B75417   5.195  38.983   7.126
 6024POPC   C4B75418   4.770  38.970   7.325
 6025POPC   NC375419  31.613  13.652   5.499
 6025POPC   PO475420  30.994  13.907   5.622
 6025POPC   GL175421  31.225  13.662   5.862
 6025POPC   GL275422  31.211  13.335   5.733
 6025POPC   C1A75423  31.530  13.606   6.184
 6025POPC   D2A75424  31.643  13.801   6.552
 6025POPC   C3A75425  31.693  13.650   6.931
 6025POPC   C4A75426  31.709  13.927   7.286
 6025POPC   C1B75427  31.089  13.311   6.190
 6025POPC   C2B75428  31.175  13.536   6.589
 6025POPC   C3B75429  31.183  13.416   7.029
 6025POPC   C4B75430  31.460  13.498   7.351
 6026POPC   NC375431  42.866  15.532   5.424
 6026POPC   PO475432  43.001  14.910   5.535
 6026POPC   GL175433  43.221  15.082   5.896
 6026POPC   GL275434  43.148  15.434   5.850
 6026POPC   C1A75435  43.277  15.135   6.355
 6026POPC   D2A75436  43.335  14.783   6.657
 6026POPC   C3A75437  43.220  14.935   7.062
 6026POPC   C4A75438  43.284  15.381   7.011
 6026POPC   C1B75439  42.830  15.327   6.165
 6026POPC   C2B75440  42.901  15.415   6.610
 6026POPC   C3B75441  42.741  15.284   7.016
 6026POPC   C4B75442  42.745  15.437   7.427
 6027POPC   NC375443  44.117   6.571   5.353
 6027POPC   PO475444  43.455   6.598   5.272
 6027POPC   GL175445  43.730   6.508   5.682
 6027POPC   GL275446  43.867   6.854   5.706
 6027POPC   C1A75447  43.952   6.522   6.122
 6027POPC   D2A75448  43.829   6.524   6.578
 6027POPC   C3A75449  44.098   6.418   6.935
 6027POPC   C4A75450  43.857   6.197   7.267
 6027POPC   C1B75451  44.061   7.081   6.027
 6027POPC   C2B75452  43.968   6.983   6.441
 6027POPC   C3B75453  43.885   6.973   6.870
 6027POPC   C4B75454  43.773   6.705   7.186
 6028POPC   NC375455  29.716  38.712   5.369
 6028POPC   PO475456  30.145  38.165   5.426
 6028POPC   GL175457  29.983  38.388   5.780
 6028POPC   GL275458  30.025  38.754   5.783
 6028POPC   C1A75459  29.762  38.273   6.172
 6028POPC   D2A75460  29.596  38.241   6.605
 6028POPC   C3A75461  29.942  38.394   6.864
 6028POPC   C4A75462  30.032  38.299   7.295
 6028POPC   C1B75463  29.704  38.817   6.112
 6028POPC   C2B75464  29.580  38.753   6.556
 6028POPC   C3B75465  29.682  38.907   6.968
 6028POPC   C4B75466  29.729  38.763   7.426
 6029POPC   NC375467  23.890  24.706   5.434
 6029POPC   PO475468  23.505  24.254   5.201
 6029POPC   GL175469  23.500  24.388   5.641
 6029POPC   GL275470  23.287  24.158   5.777
 6029POPC   C1A75471  23.652  24.422   6.107
 6029POPC   D2A75472  23.770  24.305   6.573
 6029POPC   C3A75473  23.878  24.573   6.965
 6029POPC   C4A75474  23.648  24.910   7.170
 6029POPC   C1B75475  23.136  24.456   6.064
 6029POPC   C2B75476  23.277  24.449   6.482
 6029POPC   C3B75477  23.351  24.555   6.883
 6029POPC   C4B75478  23.484  24.403   7.243
 6030POPC   NC375479  12.582  26.220   5.502
 6030POPC   PO475480  12.847  25.607   5.383
 6030POPC   GL175481  12.999  25.901   5.720
 6030POPC   GL275482  13.079  26.237   5.751
 6030POPC   C1A75483  12.816  25.982   6.134
 6030POPC   D2A75484  12.858  25.797   6.549
 6030POPC   C3A75485  12.867  26.077   6.910
 6030POPC   C4A75486  12.621  26.234   7.252
 6030POPC   C1B75487  13.317  26.130   6.112
 6030POPC   C2B75488  13.132  26.267   6.498
 6030POPC   C3B75489  13.290  26.419   6.885
 6030POPC   C4B75490  13.181  26.250   7.279
 6031POPC   NC375491   2.509   5.036   4.775
 6031POPC   PO475492   3.055   4.952   5.271
 6031POPC   GL175493   3.004   5.117   5.678
 6031POPC   GL275494   3.225   5.399   5.791
 6031POPC   C1A75495   2.746   5.022   6.031
 6031POPC   D2A75496   2.525   5.215   6.369
 6031POPC   C3A75497   2.460   4.998   6.762
 6031POPC   C4A75498   2.694   5.099   7.123
 6031POPC   C1B75499   2.961   5.445   6.204
 6031POPC   C2B75500   2.941   5.314   6.677
 6031POPC   C3B75501   2.960   5.519   7.123
 6031POPC   C4B75502   3.066   5.437   7.606
 6032POPC   NC375503   2.937  28.587   5.415
 6032POPC   PO475504   2.451  28.125   5.500
 6032POPC   GL175505   2.714  28.327   5.825
 6032POPC   GL275506   2.723  28.707   5.873
 6032POPC   C1A75507   2.796  28.190   6.241
 6032POPC   D2A75508   2.572  28.007   6.567
 6032POPC   C3A75509   2.757  28.085   6.937
 6032POPC   C4A75510   2.505  28.048   7.254
 6032POPC   C1B75511   2.540  28.659   6.294
 6032POPC   C2B75512   2.698  28.549   6.718
 6032POPC   C3B75513   2.956  28.528   7.123
 6032POPC   C4B75514   3.127  28.644   7.574
 6033POPC   NC375515  17.153  14.730   5.469
 6033POPC   PO475516  17.880  14.844   5.534
 6033POPC   GL175517  17.645  15.138   5.811
 6033POPC   GL275518  17.280  15.198   5.810
 6033POPC   C1A75519  17.601  15.278   6.238
 6033POPC   D2A75520  17.537  14.990   6.541
 6033POPC   C3A75521  17.622  15.079   6.916
 6033POPC   C4A75522  17.614  15.021   7.328
 6033POPC   C1B75523  17.098  15.429   6.182
 6033POPC   C2B75524  16.922  15.655   6.532
 6033POPC   C3B75525  16.848  15.515   6.927
 6033POPC   C4B75526  17.198  15.289   7.124
 6034POPC   NC375527  22.971   6.354   5.481
 6034POPC   PO475528  23.012   5.759   5.115
 6034POPC   GL175529  23.124   5.711   5.596
 6034POPC   GL275530  23.199   6.023   5.808
 6034POPC   C1A75531  23.006   5.591   6.051
 6034POPC   D2A75532  23.172   5.764   6.480
 6034POPC   C3A75533  22.968   5.706   6.870
 6034POPC   C4A75534  23.152   5.644   7.272
 6034POPC   C1B75535  22.890   6.065   6.177
 6034POPC   C2B75536  22.866   6.162   6.623
 6034POPC   C3B75537  22.723   6.136   7.048
 6034POPC   C4B75538  22.797   6.002   7.454
 6035POPC   NC375539   6.443  19.996   5.610
 6035POPC   PO475540   6.824  19.458   5.660
 6035POPC   GL175541   6.600  19.655   5.944
 6035POPC   GL275542   6.753  19.957   6.003
 6035POPC   C1A75543   6.278  19.851   6.208
 6035POPC   D2A75544   6.245  19.998   6.596
 6035POPC   C3A75545   6.499  19.766   6.915
 6035POPC   C4A75546   6.378  19.688   7.367
 6035POPC   C1B75547   6.728  19.818   6.435
 6035POPC   C2B75548   7.070  19.943   6.701
 6035POPC   C3B75549   7.049  20.141   7.073
 6035POPC   C4B75550   6.866  19.797   7.272
 6036POPC   NC375551  27.367  19.565   5.476
 6036POPC   PO475552  27.577  18.919   5.201
 6036POPC   GL175553  27.601  18.990   5.671
 6036POPC   GL275554  27.367  19.239   5.855
 6036POPC   C1A75555  27.649  18.969   6.149
 6036POPC   D2A75556  27.586  18.804   6.566
 6036POPC   C3A75557  27.731  19.059   6.864
 6036POPC   C4A75558  27.671  18.959   7.278
 6036POPC   C1B75559  27.166  19.397   6.229
 6036POPC   C2B75560  27.263  19.213   6.647
 6036POPC   C3B75561  27.316  19.284   7.086
 6036POPC   C4B75562  27.455  19.359   7.505
 6037POPC   NC375563  25.578  21.569   5.581
 6037POPC   PO475564  25.005  21.252   5.574
 6037POPC   GL175565  25.248  21.363   5.911
 6037POPC   GL275566  25.176  21.712   5.875
 6037POPC   C1A75567  25.231  21.456   6.345
 6037POPC   D2A75568  25.410  21.273   6.710
 6037POPC   C3A75569  25.175  21.316   7.114
 6037POPC   C4A75570  25.063  21.527   7.528
 6037POPC   C1B75571  25.523  21.847   6.164
 6037POPC   C2B75572  25.603  21.738   6.585
 6037POPC   C3B75573  25.434  21.736   6.968
 6037POPC   C4B75574  25.442  21.906   7.343
 6038POPC   NC375575  26.735  25.559   5.501
 6038POPC   PO475576  26.668  24.923   5.534
 6038POPC   GL175577  26.811  25.188   5.887
 6038POPC   GL275578  27.055  25.471   5.920
 6038POPC   C1A75579  26.840  25.031   6.303
 6038POPC   D2A75580  26.796  25.084   6.734
 6038POPC   C3A75581  26.581  25.444   6.897
 6038POPC   C4A75582  26.467  25.362   7.323
 6038POPC   C1B75583  27.196  25.380   6.356
 6038POPC   C2B75584  27.230  25.398   6.810
 6038POPC   C3B75585  26.999  25.499   7.173
 6038POPC   C4B75586  26.879  25.126   7.232
 6039POPC   NC375587  23.449  42.438   5.572
 6039POPC   PO475588  24.127  42.591   5.419
 6039POPC   GL175589  23.948  42.487   5.816
 6039POPC   GL275590  23.787  42.157   5.830
 6039POPC   C1A75591  23.885  42.405   6.269
 6039POPC   D2A75592  24.175  42.165   6.541
 6039POPC   C3A75593  24.076  42.011   6.990
 6039POPC   C4A75594  23.980  42.355   7.267
 6039POPC   C1B75595  23.490  42.055   6.161
 6039POPC   C2B75596  23.684  42.013   6.537
 6039POPC   C3B75597  23.734  42.305   6.804
 6039POPC   C4B75598  23.554  42.134   7.141
 6040POPC   NC375599  44.252  13.673   5.599
 6040POPC   PO475600  43.552  13.772   5.431
 6040POPC   GL175601  43.720  13.565   5.826
 6040POPC   GL275602  43.988  13.286   5.789
 6040POPC   C1A75603  43.910  13.627   6.254
 6040POPC   D2A75604  43.744  13.631   6.677
 6040POPC   C3A75605  43.909  13.844   7.028
 6040POPC   C4A75606  43.794  13.819   7.461
 6040POPC   C1B75607  44.242  13.233   6.191
 6040POPC   C2B75608  44.237  13.404   6.630
 6040POPC   C3B75609  44.022  13.315   7.029
 6040POPC   C4B75610  44.236  12.998   7.264
 6041POPC   NC375611  38.356   3.974   5.343
 6041POPC   PO475612  38.700   4.487   5.292
 6041POPC   GL175613  38.574   4.261   5.730
 6041POPC   GL275614  38.600   3.894   5.805
 6041POPC   C1A75615  38.287   4.305   6.123
 6041POPC   D2A75616  38.245   4.560   6.515
 6041POPC   C3A75617  38.289   4.439   6.948
 6041POPC   C4A75618  38.460   4.521   7.343
 6041POPC   C1B75619  38.515   3.882   6.249
 6041POPC   C2B75620  38.530   4.098   6.646
 6041POPC   C3B75621  38.607   4.037   7.088
 6041POPC   C4B75622  38.533   3.808   7.454
 6042POPC   NC375623  22.045  41.885   5.679
 6042POPC   PO475624  22.219  41.428   5.170
 6042POPC   GL175625  22.234  41.421   5.682
 6042POPC   GL275626  22.481  41.694   5.853
 6042POPC   C1A75627  22.034  41.417   6.164
 6042POPC   D2A75628  21.891  41.586   6.639
 6042POPC   C3A75629  22.150  41.485   7.036
 6042POPC   C4A75630  22.165  41.360   7.498
 6042POPC   C1B75631  22.572  41.954   6.239
 6042POPC   C2B75632  22.684  41.981   6.693
 6042POPC   C3B75633  22.380  42.045   7.032
 6042POPC   C4B75634  22.288  41.845   7.405
 6043POPC   NC375635  34.195  26.017   5.103
 6043POPC   PO475636  34.825  25.964   5.425
 6043POPC   GL175637  34.617  25.923   5.805
 6043POPC   GL275638  34.495  26.288   5.798
 6043POPC   C1A75639  34.697  25.726   6.227
 6043POPC   D2A75640  34.712  25.944   6.676
 6043POPC   C3A75641  34.672  25.688   7.063
 6043POPC   C4A75642  34.313  25.573   7.325
 6043POPC   C1B75643  34.508  26.180   6.232
 6043POPC   C2B75644  34.240  25.882   6.458
 6043POPC   C3B75645  34.210  25.826   6.876
 6043POPC   C4B75646  34.383  26.096   7.205
 6044POPC   NC375647   8.048  32.532   5.461
 6044POPC   PO475648   8.100  31.811   5.402
 6044POPC   GL175649   8.133  32.138   5.762
 6044POPC   GL275650   8.454  32.344   5.771
 6044POPC   C1A75651   8.246  32.249   6.219
 6044POPC   D2A75652   8.381  32.306   6.639
 6044POPC   C3A75653   8.037  32.270   6.922
 6044POPC   C4A75654   8.000  32.076   7.319
 6044POPC   C1B75655   8.479  32.685   6.113
 6044POPC   C2B75656   8.287  32.827   6.523
 6044POPC   C3B75657   8.321  32.705   6.965
 6044POPC   C4B75658   8.260  32.580   7.409
 6045POPC   NC375659  21.207  14.451   5.508
 6045POPC   PO475660  21.552  13.929   5.476
 6045POPC   GL175661  21.489  14.237   5.862
 6045POPC   GL275662  21.162  14.442   5.996
 6045POPC   C1A75663  21.591  14.398   6.261
 6045POPC   D2A75664  21.378  14.255   6.628
 6045POPC   C3A75665  21.464  14.357   7.032
 6045POPC   C4A75666  21.751  14.064   7.158
 6045POPC   C1B75667  21.165  14.657   6.362
 6045POPC   C2B75668  21.192  14.709   6.771
 6045POPC   C3B75669  20.958  14.468   7.022
 6045POPC   C4B75670  21.055  14.361   7.417
 6046POPC   NC375671  23.730  37.408   5.522
 6046POPC   PO475672  23.608  38.035   5.412
 6046POPC   GL175673  23.675  37.827   5.843
 6046POPC   GL275674  23.442  37.526   5.943
 6046POPC   C1A75675  23.888  37.586   6.210
 6046POPC   D2A75676  24.072  37.643   6.618
 6046POPC   C3A75677  23.798  37.517   6.946
 6046POPC   C4A75678  23.866  37.440   7.365
 6046POPC   C1B75679  23.225  37.897   6.102
 6046POPC   C2B75680  23.337  38.036   6.514
 6046POPC   C3B75681  23.244  37.836   6.886
 6046POPC   C4B75682  23.406  37.637   7.263
 6047POPC   NC375683  26.780  36.273   5.496
 6047POPC   PO475684  27.174  35.720   5.446
 6047POPC   GL175685  26.945  35.895   5.814
 6047POPC   GL275686  27.023  36.250   5.932
 6047POPC   C1A75687  26.644  36.002   6.176
 6047POPC   D2A75688  26.429  36.019   6.599
 6047POPC   C3A75689  26.612  35.906   7.025
 6047POPC   C4A75690  26.647  36.059   7.458
 6047POPC   C1B75691  27.053  36.286   6.353
 6047POPC   C2B75692  26.887  36.230   6.733
 6047POPC   C3B75693  26.974  36.342   7.128
 6047POPC   C4B75694  27.352  36.440   7.336
 6048POPC   NC375695  30.292  43.268   5.263
 6048POPC   PO475696  29.651  43.163   5.540
 6048POPC   GL175697  30.011  43.347   5.770
 6048POPC   GL275698  30.188  43.050   5.806
 6048POPC   C1A75699  30.062  43.532   6.206
 6048POPC   D2A75700  29.785  43.540   6.567
 6048POPC   C3A75701  30.049  43.418   6.883
 6048POPC   C4A75702  30.056  43.230   7.246
 6048POPC   C1B75703  29.960  43.032   6.198
 6048POPC   C2B75704  29.825  43.021   6.617
 6048POPC   C3B75705  29.682  42.955   7.021
 6048POPC   C4B75706  29.793  42.823   7.434
 6049POPC   NC375707   1.285   5.809   5.422
 6049POPC   PO475708   0.638   5.928   5.545
 6049POPC   GL175709   0.995   5.907   5.847
 6049POPC   GL275710   1.288   6.096   5.853
 6049POPC   C1A75711   1.202   5.766   6.242
 6049POPC   D2A75712   1.123   5.790   6.690
 6049POPC   C3A75713   1.452   5.783   6.998
 6049POPC   C4A75714   1.277   5.564   7.329
 6049POPC   C1B75715   1.460   6.205   6.256
 6049POPC   C2B75716   1.424   6.221   6.698
 6049POPC   C3B75717   1.525   6.270   7.131
 6049POPC   C4B75718   1.297   6.062   7.480
 6050POPC   NC375719  32.371  26.208   5.406
 6050POPC   PO475720  32.828  25.768   5.485
 6050POPC   GL175721  32.515  25.922   5.815
 6050POPC   GL275722  32.160  25.836   5.765
 6050POPC   C1A75723  32.283  26.139   6.187
 6050POPC   D2A75724  32.168  25.939   6.585
 6050POPC   C3A75725  32.108  26.129   6.954
 6050POPC   C4A75726  32.185  26.351   7.289
 6050POPC   C1B75727  31.899  25.788   6.165
 6050POPC   C2B75728  31.698  25.760   6.629
 6050POPC   C3B75729  31.909  25.677   7.060
 6050POPC   C4B75730  32.257  25.827   7.349
 6051POPC   NC375731   1.478  34.345   5.375
 6051POPC   PO475732   1.114  34.954   5.376
 6051POPC   GL175733   1.301  34.692   5.732
 6051POPC   GL275734   1.010  34.574   5.910
 6051POPC   C1A75735   1.474  34.415   6.102
 6051POPC   D2A75736   1.331  34.316   6.569
 6051POPC   C3A75737   1.505  34.340   7.024
 6051POPC   C4A75738   1.440  34.438   7.501
 6051POPC   C1B75739   1.164  34.748   6.307
 6051POPC   C2B75740   1.070  34.748   6.741
 6051POPC   C3B75741   1.203  34.764   7.187
 6051POPC   C4B75742   1.100  35.087   7.512
 6052POPC   NC375743  11.571  32.535   5.494
 6052POPC   PO475744  10.890  32.474   5.449
 6052POPC   GL175745  11.001  32.240   5.809
 6052POPC   GL275746  11.342  32.209   5.820
 6052POPC   C1A75747  11.097  32.160   6.277
 6052POPC   D2A75748  10.985  32.170   6.735
 6052POPC   C3A75749  11.275  32.109   7.074
 6052POPC   C4A75750  11.236  32.302   7.438
 6052POPC   C1B75751  11.615  32.121   6.170
 6052POPC   C2B75752  11.509  32.148   6.600
 6052POPC   C3B75753  11.732  32.317   6.935
 6052POPC   C4B75754  11.754  32.159   7.363
 6053POPC   NC375755  26.512  17.996   5.717
 6053POPC   PO475756  26.664  18.573   5.417
 6053POPC   GL175757  26.832  18.413   5.824
 6053POPC   GL275758  27.135  18.204   5.886
 6053POPC   C1A75759  26.859  18.464   6.278
 6053POPC   D2A75760  26.659  18.371   6.694
 6053POPC   C3A75761  26.918  18.330   7.075
 6053POPC   C4A75762  26.781  18.391   7.493
 6053POPC   C1B75763  27.002  17.972   6.277
 6053POPC   C2B75764  27.010  17.965   6.717
 6053POPC   C3B75765  26.967  17.774   7.106
 6053POPC   C4B75766  26.648  17.909   7.369
 6054POPC   NC375767  32.904  16.780   5.376
 6054POPC   PO475768  33.325  16.309   5.238
 6054POPC   GL175769  33.065  16.348   5.683
 6054POPC   GL275770  32.798  16.585   5.847
 6054POPC   C1A75771  33.118  16.317   6.139
 6054POPC   D2A75772  33.208  16.548   6.512
 6054POPC   C3A75773  32.922  16.582   6.871
 6054POPC   C4A75774  33.047  16.412   7.238
 6054POPC   C1B75775  33.029  16.852   6.137
 6054POPC   C2B75776  32.873  16.973   6.525
 6054POPC   C3B75777  32.828  17.082   6.953
 6054POPC   C4B75778  32.772  16.836   7.326
 6055POPC   NC375779   7.871  20.978   5.508
 6055POPC   PO475780   7.947  20.265   5.395
 6055POPC   GL175781   8.249  20.499   5.719
 6055POPC   GL275782   8.176  20.827   5.876
 6055POPC   C1A75783   8.357  20.494   6.199
 6055POPC   D2A75784   8.351  20.669   6.607
 6055POPC   C3A75785   8.066  20.586   6.947
 6055POPC   C4A75786   8.004  20.602   7.395
 6055POPC   C1B75787   8.476  20.981   6.184
 6055POPC   C2B75788   8.466  21.159   6.599
 6055POPC   C3B75789   8.456  20.984   7.017
 6055POPC   C4B75790   8.428  20.949   7.462
 6056POPC   NC375791  21.127   3.111   5.425
 6056POPC   PO475792  20.641   2.627   5.322
 6056POPC   GL175793  20.479   2.714   5.718
 6056POPC   GL275794  20.732   2.960   5.743
 6056POPC   C1A75795  20.546   2.591   6.150
 6056POPC   D2A75796  20.831   2.676   6.492
 6056POPC   C3A75797  20.715   2.492   6.872
 6056POPC   C4A75798  20.352   2.656   7.093
 6056POPC   C1B75799  20.616   3.104   6.157
 6056POPC   C2B75800  20.721   3.222   6.559
 6056POPC   C3B75801  20.746   3.005   6.913
 6056POPC   C4B75802  21.021   3.105   7.217
 6057POPC   NC375803   9.841   8.770   5.366
 6057POPC   PO475804   9.308   9.288   5.211
 6057POPC   GL175805   9.726   9.290   5.550
 6057POPC   GL275806   9.954   9.046   5.752
 6057POPC   C1A75807   9.749   9.346   6.073
 6057POPC   D2A75808   9.855   9.125   6.447
 6057POPC   C3A75809   9.502   9.128   6.718
 6057POPC   C4A75810   9.465   9.134   7.148
 6057POPC   C1B75811  10.013   8.713   6.069
 6057POPC   C2B75812   9.992   8.607   6.529
 6057POPC   C3B75813   9.898   8.826   6.906
 6057POPC   C4B75814  10.105   8.760   7.271
 6058POPC   NC375815  44.653  38.194   5.493
 6058POPC   PO475816   0.161  38.680   5.514
 6058POPC   GL175817  44.902  38.530   5.836
 6058POPC   GL275818  44.570  38.558   5.848
 6058POPC   C1A75819  44.787  38.324   6.235
 6058POPC   D2A75820  44.686  38.507   6.617
 6058POPC   C3A75821  44.919  38.399   6.943
 6058POPC   C4A75822  44.770  38.033   7.141
 6058POPC   C1B75823  44.470  38.768   6.225
 6058POPC   C2B75824  44.333  38.872   6.625
 6058POPC   C3B75825  44.538  38.808   7.025
 6058POPC   C4B75826  44.299  38.663   7.358
 6059POPC   NC375827   6.547  28.246   5.404
 6059POPC   PO475828   6.153  28.752   5.740
 6059POPC   GL175829   6.531  28.503   5.846
 6059POPC   GL275830   6.389  28.159   5.880
 6059POPC   C1A75831   6.859  28.230   6.094
 6059POPC   D2A75832   7.006  28.155   6.520
 6059POPC   C3A75833   6.646  28.258   6.835
 6059POPC   C4A75834   6.575  28.642   7.130
 6059POPC   C1B75835   6.401  28.290   6.316
 6059POPC   C2B75836   6.150  28.155   6.625
 6059POPC   C3B75837   5.999  28.257   7.009
 6059POPC   C4B75838   6.308  28.252   7.262
 6060POPC   NC375839  43.615  20.644   5.368
 6060POPC   PO475840  44.102  20.116   5.409
 6060POPC   GL175841  43.953  20.401   5.796
 6060POPC   GL275842  43.892  20.793   5.788
 6060POPC   C1A75843  43.626  20.435   6.162
 6060POPC   D2A75844  43.467  20.300   6.579
 6060POPC   C3A75845  43.544  20.482   6.993
 6060POPC   C4A75846  43.556  20.666   7.421
 6060POPC   C1B75847  44.012  20.772   6.240
 6060POPC   C2B75848  43.921  20.599   6.662
 6060POPC   C3B75849  43.945  20.792   7.081
 6060POPC   C4B75850  44.313  20.933   7.340
 6061POPC   NC375851  23.253   5.103   5.045
 6061POPC   PO475852  23.616   5.143   5.620
 6061POPC   GL175853  23.744   5.185   6.029
 6061POPC   GL275854  23.973   4.882   5.940
 6061POPC   C1A75855  23.571   5.278   6.481
 6061POPC   D2A75856  23.758   5.190   6.895
 6061POPC   C3A75857  23.533   5.219   7.262
 6061POPC   C4A75858  23.421   4.903   7.592
 6061POPC   C1B75859  23.896   4.872   6.395
 6061POPC   C2B75860  24.186   4.946   6.717
 6061POPC   C3B75861  24.099   4.802   7.116
 6061POPC   C4B75862  23.709   4.749   7.193
 6062POPC   NC375863   3.352  42.845   5.568
 6062POPC   PO475864   3.708  43.363   5.252
 6062POPC   GL175865   3.714  43.265   5.664
 6062POPC   GL275866   3.873  43.579   5.722
 6062POPC   C1A75867   3.507  43.192   6.067
 6062POPC   D2A75868   3.444  42.887   6.383
 6062POPC   C3A75869   3.348  43.106   6.782
 6062POPC   C4A75870   3.480  43.133   7.231
 6062POPC   C1B75871   3.975  43.379   6.132
 6062POPC   C2B75872   3.758  43.267   6.497
 6062POPC   C3B75873   3.762  43.406   6.896
 6062POPC   C4B75874   3.733  43.569   7.292
 6063POPC   NC375875  20.385   6.246   5.364
 6063POPC   PO475876  20.806   5.785   5.334
 6063POPC   GL175877  20.653   5.851   5.733
 6063POPC   GL275878  20.650   5.537   5.910
 6063POPC   C1A75879  20.688   5.982   6.168
 6063POPC   D2A75880  20.807   5.809   6.554
 6063POPC   C3A75881  20.605   5.954   6.914
 6063POPC   C4A75882  20.671   6.126   7.318
 6063POPC   C1B75883  20.383   5.579   6.282
 6063POPC   C2B75884  20.446   5.453   6.690
 6063POPC   C3B75885  20.269   5.556   7.065
 6063POPC   C4B75886  20.597   5.610   7.307
 6064POPC   NC375887  15.389   5.481   5.105
 6064POPC   PO475888  15.096   5.946   5.500
 6064POPC   GL175889  15.181   5.828   5.906
 6064POPC   GL275890  15.280   5.483   5.767
 6064POPC   C1A75891  15.261   6.013   6.338
 6064POPC   D2A75892  15.466   5.941   6.772
 6064POPC   C3A75893  15.207   6.021   7.144
 6064POPC   C4A75894  14.919   6.051   7.517
 6064POPC   C1B75895  15.436   5.515   6.201
 6064POPC   C2B75896  15.186   5.561   6.576
 6064POPC   C3B75897  15.145   5.517   7.022
 6064POPC   C4B75898  15.118   5.587   7.484
 6065POPC   NC375899  40.646  14.904   5.485
 6065POPC   PO475900  41.281  15.130   5.480
 6065POPC   GL175901  41.019  15.097   5.796
 6065POPC   GL275902  40.860  15.418   5.751
 6065POPC   C1A75903  40.881  14.934   6.173
 6065POPC   D2A75904  41.030  15.077   6.553
 6065POPC   C3A75905  40.790  15.011   6.908
 6065POPC   C4A75906  40.690  14.852   7.307
 6065POPC   C1B75907  40.856  15.469   6.210
 6065POPC   C2B75908  40.745  15.528   6.669
 6065POPC   C3B75909  40.494  15.412   7.058
 6065POPC   C4B75910  40.664  15.375   7.456
 6066POPC   NC375911  17.554   2.369   5.191
 6066POPC   PO475912  17.274   1.762   5.312
 6066POPC   GL175913  17.582   1.812   5.658
 6066POPC   GL275914  17.625   2.150   5.795
 6066POPC   C1A75915  17.768   1.737   6.081
 6066POPC   D2A75916  17.793   2.051   6.421
 6066POPC   C3A75917  17.636   1.900   6.801
 6066POPC   C4A75918  17.442   1.937   7.194
 6066POPC   C1B75919  17.338   2.163   6.210
 6066POPC   C2B75920  17.163   2.062   6.661
 6066POPC   C3B75921  16.967   2.102   7.074
 6066POPC   C4B75922  17.107   2.241   7.489
 6067POPC   NC375923  19.205  40.213   5.236
 6067POPC   PO475924  19.102  40.800   5.591
 6067POPC   GL175925  19.039  40.828   5.984
 6067POPC   GL275926  19.333  40.705   6.091
 6067POPC   C1A75927  18.990  41.062   6.334
 6067POPC   D2A75928  18.936  40.937   6.729
 6067POPC   C3A75929  19.289  40.775   6.919
 6067POPC   C4A75930  19.079  40.944   7.258
 6067POPC   C1B75931  19.118  40.520   6.436
 6067POPC   C2B75932  19.346  40.244   6.702
 6067POPC   C3B75933  19.526  40.304   7.108
 6067POPC   C4B75934  19.261  40.480   7.380
 6068POPC   NC375935  35.291  31.143   5.130
 6068POPC   PO475936  35.511  31.789   5.200
 6068POPC   GL175937  35.396  31.459   5.542
 6068POPC   GL275938  35.585  31.115   5.632
 6068POPC   C1A75939  35.280  31.388   5.981
 6068POPC   D2A75940  35.384  31.469   6.436
 6068POPC   C3A75941  35.171  31.306   6.824
 6068POPC   C4A75942  35.117  31.618   7.171
 6068POPC   C1B75943  35.722  31.161   6.094
 6068POPC   C2B75944  35.855  31.271   6.525
 6068POPC   C3B75945  35.654  31.455   6.887
 6068POPC   C4B75946  35.480  31.236   7.254
 6069POPC   NC375947   2.165  10.763   5.444
 6069POPC   PO475948   2.165  10.173   5.159
 6069POPC   GL175949   1.878  10.238   5.617
 6069POPC   GL275950   1.902  10.583   5.826
 6069POPC   C1A75951   1.862  10.205   6.140
 6069POPC   D2A75952   1.881  10.549   6.509
 6069POPC   C3A75953   2.206  10.533   6.850
 6069POPC   C4A75954   2.224  10.424   7.266
 6069POPC   C1B75955   1.818  10.913   6.135
 6069POPC   C2B75956   1.727  11.093   6.564
 6069POPC   C3B75957   1.850  10.888   6.961
 6069POPC   C4B75958   2.135  10.920   7.318
 6070POPC   NC375959   5.268  30.967   5.248
 6070POPC   PO475960   4.791  30.599   5.471
 6070POPC   GL175961   5.007  30.683   5.828
 6070POPC   GL275962   5.131  30.346   5.811
 6070POPC   C1A75963   5.219  30.703   6.231
 6070POPC   D2A75964   5.044  30.672   6.663
 6070POPC   C3A75965   5.190  30.795   7.072
 6070POPC   C4A75966   4.987  31.026   7.388
 6070POPC   C1B75967   4.948  30.285   6.208
 6070POPC   C2B75968   4.860  30.210   6.632
 6070POPC   C3B75969   5.039  30.299   7.079
 6070POPC   C4B75970   4.999  30.477   7.526
 6071POPC   NC375971  40.665  20.872   5.684
 6071POPC   PO475972  41.183  20.532   5.563
 6071POPC   GL175973  40.960  20.525   5.936
 6071POPC   GL275974  40.618  20.384   5.857
 6071POPC   C1A75975  40.888  20.743   6.318
 6071POPC   D2A75976  40.627  20.708   6.661
 6071POPC   C3A75977  40.784  20.606   7.061
 6071POPC   C4A75978  40.827  20.845   7.461
 6071POPC   C1B75979  40.629  20.282   6.298
 6071POPC   C2B75980  40.490  20.162   6.710
 6071POPC   C3B75981  40.526  20.100   7.159
 6071POPC   C4B75982  40.636  20.380   7.495
 6072POPC   NC375983  29.968  10.242   5.283
 6072POPC   PO475984  29.540  10.818   5.429
 6072POPC   GL175985  29.733  10.538   5.676
 6072POPC   GL275986  30.102  10.593   5.671
 6072POPC   C1A75987  29.733  10.413   6.119
 6072POPC   D2A75988  29.934  10.581   6.472
 6072POPC   C3A75989  29.858  10.421   6.883
 6072POPC   C4A75990  29.625  10.701   7.174
 6072POPC   C1B75991  30.246  10.379   6.084
 6072POPC   C2B75992  30.375  10.328   6.524
 6072POPC   C3B75993  30.326  10.644   6.820
 6072POPC   C4B75994  30.121  10.641   7.244
 6073POPC   NC375995  20.966  35.664   5.500
 6073POPC   PO475996  20.346  35.996   5.537
 6073POPC   GL175997  20.709  35.970   5.819
 6073POPC   GL275998  20.884  36.267   5.928
 6073POPC   C1A75999  20.868  35.742   6.169
 6073POPC   D2A76000  20.710  35.672   6.557
 6073POPC   C3A76001  20.704  36.003   6.806
 6073POPC   C4A76002  20.636  35.952   7.217
 6073POPC   C1B76003  20.625  36.169   6.299
 6073POPC   C2B76004  20.330  36.343   6.588
 6073POPC   C3B76005  20.408  36.385   7.000
 6073POPC   C4B76006  20.845  36.413   7.112
 6074POPC   NC376007   0.514  15.776   5.323
 6074POPC   PO476008   0.302  16.459   5.301
 6074POPC   GL176009   0.272  16.029   5.659
 6074POPC   GL276010   0.617  15.836   5.810
 6074POPC   C1A76011   0.296  15.994   6.143
 6074POPC   D2A76012   0.432  16.112   6.552
 6074POPC   C3A76013   0.218  15.942   6.913
 6074POPC   C4A76014   0.322  16.063   7.314
 6074POPC   C1B76015   0.783  15.837   6.227
 6074POPC   C2B76016   0.768  15.734   6.635
 6074POPC   C3B76017   0.742  15.846   7.045
 6074POPC   C4B76018   0.985  15.528   7.266
 6075POPC   NC376019   0.451  40.144   5.322
 6075POPC   PO476020   0.628  39.551   5.362
 6075POPC   GL176021   0.435  39.699   5.769
 6075POPC   GL276022   0.443  40.069   5.819
 6075POPC   C1A76023   0.322  39.710   6.211
 6075POPC   D2A76024   0.240  39.953   6.584
 6075POPC   C3A76025   0.149  39.813   6.984
 6075POPC   C4A76026   0.410  39.832   7.349
 6075POPC   C1B76027   0.158  40.247   6.139
 6075POPC   C2B76028   0.165  40.449   6.553
 6075POPC   C3B76029   0.299  40.320   6.959
 6075POPC   C4B76030   0.081  40.202   7.323
 6076POPC   NC376031  13.430  16.308   5.372
 6076POPC   PO476032  13.944  15.932   5.221
 6076POPC   GL176033  13.799  16.065   5.720
 6076POPC   GL276034  13.674  15.795   5.862
 6076POPC   C1A76035  13.789  16.015   6.276
 6076POPC   D2A76036  13.884  15.918   6.733
 6076POPC   C3A76037  13.672  16.185   7.069
 6076POPC   C4A76038  13.251  16.304   7.093
 6076POPC   C1B76039  13.342  15.770   6.161
 6076POPC   C2B76040  13.433  15.650   6.580
 6076POPC   C3B76041  13.399  15.778   7.007
 6076POPC   C4B76042  13.360  15.560   7.395
 6077POPC   NC376043  19.109  40.371   5.735
 6077POPC   PO476044  19.033  39.800   5.443
 6077POPC   GL176045  18.889  39.889   5.844
 6077POPC   GL276046  18.609  40.105   5.807
 6077POPC   C1A76047  18.967  40.030   6.260
 6077POPC   D2A76048  19.096  39.793   6.601
 6077POPC   C3A76049  19.010  39.956   6.942
 6077POPC   C4A76050  19.169  39.979   7.298
 6077POPC   C1B76051  18.568  40.369   6.187
 6077POPC   C2B76052  18.615  40.568   6.566
 6077POPC   C3B76053  18.865  40.451   6.925
 6077POPC   C4B76054  18.698  40.198   7.263
 6078POPC   NC376055  13.299   1.776   5.493
 6078POPC   PO476056  13.928   2.117   5.317
 6078POPC   GL176057  13.670   2.086   5.719
 6078POPC   GL276058  13.848   1.840   5.914
 6078POPC   C1A76059  13.352   2.194   6.083
 6078POPC   D2A76060  13.388   2.420   6.517
 6078POPC   C3A76061  13.303   2.204   6.904
 6078POPC   C4A76062  13.475   2.006   7.258
 6078POPC   C1B76063  13.504   1.717   6.199
 6078POPC   C2B76064  13.449   1.752   6.639
 6078POPC   C3B76065  13.695   1.610   6.995
 6078POPC   C4B76066  13.630   1.555   7.436
 6079POPC   NC376067  43.648  32.563   5.345
 6079POPC   PO476068  43.807  31.893   5.398
 6079POPC   GL176069  43.740  32.194   5.686
 6079POPC   GL276070  44.039  32.416   5.655
 6079POPC   C1A76071  43.710  32.369   6.090
 6079POPC   D2A76072  43.823  32.222   6.474
 6079POPC   C3A76073  43.797  32.444   6.846
 6079POPC   C4A76074  43.819  32.320   7.249
 6079POPC   C1B76075  44.241  32.313   6.066
 6079POPC   C2B76076  44.308  32.442   6.495
 6079POPC   C3B76077  44.282  32.267   6.900
 6079POPC   C4B76078  44.326  32.358   7.315
 6080POPC   NC376079  38.799  36.513   5.494
 6080POPC   PO476080  39.248  36.072   5.362
 6080POPC   GL176081  39.349  36.046   5.812
 6080POPC   GL276082  39.378  36.403   5.894
 6080POPC   C1A76083  39.400  35.994   6.281
 6080POPC   D2A76084  39.472  36.152   6.702
 6080POPC   C3A76085  39.287  36.028   7.111
 6080POPC   C4A76086  39.397  36.242   7.491
 6080POPC   C1B76087  39.031  36.329   6.149
 6080POPC   C2B76088  38.969  36.190   6.565
 6080POPC   C3B76089  39.088  36.447   6.912
 6080POPC   C4B76090  38.938  36.376   7.306
 6081POPC   NC376091  38.310   2.643   5.220
 6081POPC   PO476092  38.547   2.462   5.758
 6081POPC   GL176093  38.653   2.844   5.946
 6081POPC   GL276094  38.869   2.642   6.108
 6081POPC   C1A76095  38.599   2.895   6.425
 6081POPC   D2A76096  38.353   2.614   6.668
 6081POPC   C3A76097  38.216   2.774   7.040
 6081POPC   C4A76098  38.171   2.608   7.442
 6081POPC   C1B76099  39.020   3.112   6.211
 6081POPC   C2B76100  38.920   3.305   6.633
 6081POPC   C3B76101  38.635   3.084   6.936
 6081POPC   C4B76102  38.594   2.926   7.382
 6082POPC   NC376103  27.440   7.540   5.410
 6082POPC   PO476104  27.912   7.054   5.465
 6082POPC   GL176105  27.714   7.324   5.772
 6082POPC   GL276106  27.837   7.687   5.723
 6082POPC   C1A76107  27.511   7.379   6.166
 6082POPC   D2A76108  27.743   7.359   6.531
 6082POPC   C3A76109  27.513   7.417   6.852
 6082POPC   C4A76110  27.402   7.414   7.248
 6082POPC   C1B76111  27.859   7.751   6.164
 6082POPC   C2B76112  27.713   7.874   6.569
 6082POPC   C3B76113  27.876   7.763   6.944
 6082POPC   C4B76114  27.763   7.748   7.357
 6083POPC   NC376115   1.593  31.300   5.253
 6083POPC   PO476116   2.180  31.513   5.558
 6083POPC   GL176117   1.979  31.502   5.946
 6083POPC   GL276118   1.656  31.340   5.882
 6083POPC   C1A76119   1.947  31.749   6.341
 6083POPC   D2A76120   2.195  31.913   6.707
 6083POPC   C3A76121   2.072  31.708   7.106
 6083POPC   C4A76122   2.125  31.393   7.449
 6083POPC   C1B76123   1.798  31.242   6.329
 6083POPC   C2B76124   1.850  31.386   6.752
 6083POPC   C3B76125   1.716  31.327   7.185
 6083POPC   C4B76126   1.452  31.376   7.624
 6084POPC   NC376127   6.521  10.712   5.529
 6084POPC   PO476128   6.623  10.064   5.502
 6084POPC   GL176129   6.489  10.292   5.907
 6084POPC   GL276130   6.553  10.658   6.023
 6084POPC   C1A76131   6.572  10.301   6.369
 6084POPC   D2A76132   6.673  10.625   6.659
 6084POPC   C3A76133   6.884  10.447   7.014
 6084POPC   C4A76134   6.783  10.532   7.476
 6084POPC   C1B76135   6.313  10.839   6.362
 6084POPC   C2B76136   6.151  10.790   6.765
 6084POPC   C3B76137   6.104  10.521   7.094
 6084POPC   C4B76138   6.281  10.615   7.490
 6085POPC   NC376139  41.129  27.029   5.548
 6085POPC   PO476140  41.584  26.537   5.371
 6085POPC   GL176141  41.643  26.795   5.765
 6085POPC   GL276142  41.732  27.164   5.667
 6085POPC   C1A76143  41.618  26.707   6.253
 6085POPC   D2A76144  41.841  26.633   6.681
 6085POPC   C3A76145  41.594  26.643   7.066
 6085POPC   C4A76146  41.266  26.990   7.042
 6085POPC   C1B76147  41.596  27.215   6.101
 6085POPC   C2B76148  41.803  27.130   6.503
 6085POPC   C3B76149  41.780  27.094   6.942
 6085POPC   C4B76150  42.040  26.896   7.264
 6086POPC   NC376151  28.704  18.224   5.420
 6086POPC   PO476152  29.292  17.917   5.334
 6086POPC   GL176153  29.111  17.992   5.834
 6086POPC   GL276154  28.787  18.172   5.919
 6086POPC   C1A76155  28.992  17.996   6.342
 6086POPC   D2A76156  29.329  18.020   6.682
 6086POPC   C3A76157  29.207  18.231   7.068
 6086POPC   C4A76158  29.174  18.053   7.510
 6086POPC   C1B76159  28.994  18.483   6.232
 6086POPC   C2B76160  29.080  18.577   6.653
 6086POPC   C3B76161  28.872  18.616   7.055
 6086POPC   C4B76162  29.002  18.513   7.457
 6087POPC   NC376163  24.632  12.495   5.120
 6087POPC   PO476164  24.195  12.977   5.205
 6087POPC   GL176165  24.288  12.873   5.693
 6087POPC   GL276166  24.604  12.681   5.683
 6087POPC   C1A76167  24.250  12.992   6.196
 6087POPC   D2A76168  24.233  12.737   6.662
 6087POPC   C3A76169  24.279  12.930   7.104
 6087POPC   C4A76170  24.670  13.059   7.388
 6087POPC   C1B76171  24.529  12.579   6.147
 6087POPC   C2B76172  24.701  12.848   6.508
 6087POPC   C3B76173  24.732  12.754   6.950
 6087POPC   C4B76174  24.468  12.447   7.136
 6088POPC   NC376175  18.372  19.098   5.249
 6088POPC   PO476176  17.778  19.146   5.572
 6088POPC   GL176177  18.033  19.007   5.853
 6088POPC   GL276178  18.367  19.124   5.778
 6088POPC   C1A76179  18.042  19.116   6.273
 6088POPC   D2A76180  18.217  19.199   6.680
 6088POPC   C3A76181  18.056  18.991   7.031
 6088POPC   C4A76182  18.190  19.034   7.438
 6088POPC   C1B76183  18.459  18.849   6.166
 6088POPC   C2B76184  18.556  18.808   6.629
 6088POPC   C3B76185  18.571  18.963   7.070
 6088POPC   C4B76186  18.620  18.778   7.477
 6089POPC   NC376187  34.545  20.158   5.392
 6089POPC   PO476188  34.216  19.548   5.444
 6089POPC   GL176189  34.456  19.804   5.767
 6089POPC   GL276190  34.342  20.166   5.852
 6089POPC   C1A76191  34.731  19.943   6.109
 6089POPC   D2A76192  34.860  19.783   6.507
 6089POPC   C3A76193  34.664  19.909   6.892
 6089POPC   C4A76194  34.814  19.885   7.307
 6089POPC   C1B76195  34.287  20.341   6.261
 6089POPC   C2B76196  34.291  20.239   6.700
 6089POPC   C3B76197  34.237  20.346   7.127
 6089POPC   C4B76198  34.403  20.132   7.458
 6090POPC   NC376199  42.760  44.206   5.405
 6090POPC   PO476200  43.324  44.008   5.282
 6090POPC   GL176201  43.248  44.041   5.727
 6090POPC   GL276202  43.260  43.661   5.845
 6090POPC   C1A76203  43.192  44.054   6.185
 6090POPC   D2A76204  43.292  43.786   6.550
 6090POPC   C3A76205  43.395  44.005   6.941
 6090POPC   C4A76206  43.196  43.938   7.338
 6090POPC   C1B76207  42.924  43.600   6.188
 6090POPC   C2B76208  42.682  43.479   6.582
 6090POPC   C3B76209  42.873  43.583   6.975
 6090POPC   C4B76210  43.035  43.430   7.326
 6091POPC   NC376211   1.549  17.017   5.416
 6091POPC   PO476212   2.300  16.887   5.380
 6091POPC   GL176213   2.120  16.633   5.730
 6091POPC   GL276214   1.948  16.911   5.796
 6091POPC   C1A76215   2.022  16.599   6.203
 6091POPC   D2A76216   1.780  16.732   6.599
 6091POPC   C3A76217   1.921  16.588   7.018
 6091POPC   C4A76218   2.135  16.631   7.436
 6091POPC   C1B76219   1.751  17.055   6.179
 6091POPC   C2B76220   1.817  17.273   6.587
 6091POPC   C3B76221   1.932  17.098   6.980
 6091POPC   C4B76222   1.542  16.992   7.180
 6092POPC   NC376223   6.930  12.950   5.092
 6092POPC   PO476224   6.529  13.447   5.435
 6092POPC   GL176225   6.675  13.594   5.806
 6092POPC   GL276226   6.365  13.664   5.953
 6092POPC   C1A76227   6.728  13.499   6.245
 6092POPC   D2A76228   6.711  13.772   6.584
 6092POPC   C3A76229   6.695  13.531   6.919
 6092POPC   C4A76230   6.561  13.593   7.333
 6092POPC   C1B76231   6.304  13.933   6.272
 6092POPC   C2B76232   6.335  14.146   6.664
 6092POPC   C3B76233   6.453  14.029   7.075
 6092POPC   C4B76234   6.376  14.157   7.478
 6093POPC   NC376235  32.160  34.197   5.175
 6093POPC   PO476236  32.488  34.741   5.505
 6093POPC   GL176237  32.212  34.400   5.657
 6093POPC   GL276238  32.399  34.111   5.756
 6093POPC   C1A76239  32.009  34.277   6.056
 6093POPC   D2A76240  32.113  34.486   6.439
 6093POPC   C3A76241  32.000  34.394   6.853
 6093POPC   C4A76242  32.313  34.441   7.152
 6093POPC   C1B76243  32.499  34.170   6.209
 6093POPC   C2B76244  32.406  34.057   6.659
 6093POPC   C3B76245  32.693  34.155   7.008
 6093POPC   C4B76246  32.743  34.301   7.466
 6094POPC   NC376247  36.137  29.553   5.199
 6094POPC   PO476248  35.806  30.126   5.319
 6094POPC   GL176249  36.012  29.912   5.731
 6094POPC   GL276250  35.924  29.522   5.766
 6094POPC   C1A76251  36.114  29.804   6.198
 6094POPC   D2A76252  36.381  29.706   6.598
 6094POPC   C3A76253  36.274  29.820   7.055
 6094POPC   C4A76254  36.146  30.004   7.488
 6094POPC   C1B76255  35.598  29.587   6.117
 6094POPC   C2B76256  35.551  29.764   6.537
 6094POPC   C3B76257  35.773  29.698   6.921
 6094POPC   C4B76258  35.797  29.665   7.339
 6095POPC   NC376259  40.039  28.923   5.047
 6095POPC   PO476260  40.186  29.272   5.581
 6095POPC   GL176261  39.971  29.099   5.910
 6095POPC   GL276262  39.793  29.395   5.978
 6095POPC   C1A76263  39.979  29.121   6.363
 6095POPC   D2A76264  40.107  28.995   6.766
 6095POPC   C3A76265  39.998  29.187   7.137
 6095POPC   C4A76266  39.852  28.834   7.337
 6095POPC   C1B76267  39.699  29.649   6.279
 6095POPC   C2B76268  39.807  29.538   6.684
 6095POPC   C3B76269  39.779  29.753   7.050
 6095POPC   C4B76270  39.871  29.625   7.435
 6096POPC   NC376271   3.424  20.982   5.520
 6096POPC   PO476272   3.846  20.401   5.546
 6096POPC   GL176273   3.567  20.597   5.838
 6096POPC   GL276274   3.793  20.883   5.870
 6096POPC   C1A76275   3.423  20.466   6.248
 6096POPC   D2A76276   3.616  20.502   6.673
 6096POPC   C3A76277   3.321  20.482   6.999
 6096POPC   C4A76278   2.979  20.210   7.033
 6096POPC   C1B76279   3.674  20.913   6.293
 6096POPC   C2B76280   3.824  20.972   6.702
 6096POPC   C3B76281   3.712  20.837   7.093
 6096POPC   C4B76282   3.819  20.901   7.527
 6097POPC   NC376283  36.745   9.169   5.438
 6097POPC   PO476284  37.194   8.682   5.637
 6097POPC   GL176285  37.069   9.033   5.852
 6097POPC   GL276286  36.723   8.938   5.883
 6097POPC   C1A76287  36.969   9.028   6.306
 6097POPC   D2A76288  37.058   8.847   6.683
 6097POPC   C3A76289  36.869   8.996   7.048
 6097POPC   C4A76290  37.110   8.919   7.398
 6097POPC   C1B76291  36.519   8.749   6.245
 6097POPC   C2B76292  36.475   8.819   6.696
 6097POPC   C3B76293  36.349   8.826   7.126
 6097POPC   C4B76294  36.631   8.752   7.467
 6098POPC   NC376295  38.566  23.987   5.604
 6098POPC   PO476296  38.263  23.376   5.401
 6098POPC   GL176297  38.291  23.560   5.795
 6098POPC   GL276298  38.616  23.464   5.814
 6098POPC   C1A76299  38.348  23.723   6.218
 6098POPC   D2A76300  38.501  23.844   6.629
 6098POPC   C3A76301  38.329  23.647   6.995
 6098POPC   C4A76302  38.293  23.954   7.297
 6098POPC   C1B76303  38.817  23.547   6.183
 6098POPC   C2B76304  38.732  23.408   6.568
 6098POPC   C3B76305  38.822  23.576   6.936
 6098POPC   C4B76306  38.840  23.621   7.349
 6099POPC   NC376307  35.023  22.351   5.280
 6099POPC   PO476308  35.547  21.934   5.465
 6099POPC   GL176309  35.434  22.052   5.884
 6099POPC   GL276310  35.082  22.085   5.845
 6099POPC   C1A76311  35.506  21.970   6.348
 6099POPC   D2A76312  35.770  22.174   6.683
 6099POPC   C3A76313  35.612  22.232   7.086
 6099POPC   C4A76314  35.499  21.949   7.337
 6099POPC   C1B76315  35.151  22.318   6.251
 6099POPC   C2B76316  35.274  22.277   6.683
 6099POPC   C3B76317  35.179  22.501   7.021
 6099POPC   C4B76318  35.102  22.363   7.383
 6100POPC   NC376319  16.513  26.507   5.424
 6100POPC   PO476320  16.928  26.976   5.213
 6100POPC   GL176321  16.816  26.916   5.672
 6100POPC   GL276322  16.865  26.570   5.797
 6100POPC   C1A76323  16.672  26.891   6.136
 6100POPC   D2A76324  16.918  26.855   6.559
 6100POPC   C3A76325  16.795  26.831   7.016
 6100POPC   C4A76326  16.461  26.844   7.336
 6100POPC   C1B76327  16.775  26.395   6.229
 6100POPC   C2B76328  16.664  26.408   6.678
 6100POPC   C3B76329  16.523  26.378   7.114
 6100POPC   C4B76330  16.781  26.482   7.490
 6101POPC   NC376331  14.200   7.690   5.301
 6101POPC   PO476332  14.737   7.334   5.460
 6101POPC   GL176333  14.497   7.589   5.715
 6101POPC   GL276334  14.776   7.732   5.825
 6101POPC   C1A76335  14.259   7.527   6.096
 6101POPC   D2A76336  14.127   7.382   6.530
 6101POPC   C3A76337  14.411   7.540   6.845
 6101POPC   C4A76338  14.479   7.665   7.254
 6101POPC   C1B76339  14.761   7.397   6.158
 6101POPC   C2B76340  14.630   7.176   6.550
 6101POPC   C3B76341  14.816   7.125   6.962
 6101POPC   C4B76342  14.740   7.222   7.355
 6102POPC   NC376343  18.184  41.595   5.250
 6102POPC   PO476344  17.909  41.121   5.488
 6102POPC   GL176345  17.842  41.523   5.784
 6102POPC   GL276346  17.604  41.844   5.844
 6102POPC   C1A76347  17.638  41.506   6.218
 6102POPC   D2A76348  17.264  41.606   6.530
 6102POPC   C3A76349  17.255  41.731   6.993
 6102POPC   C4A76350  17.469  41.631   7.417
 6102POPC   C1B76351  17.562  41.978   6.308
 6102POPC   C2B76352  17.696  41.824   6.734
 6102POPC   C3B76353  17.656  42.042   7.159
 6102POPC   C4B76354  17.767  42.004   7.617
 6103POPC   NC376355   1.067  10.088   5.479
 6103POPC   PO476356   1.452  10.725   5.589
 6103POPC   GL176357   1.200  10.454   5.885
 6103POPC   GL276358   0.978  10.129   5.969
 6103POPC   C1A76359   1.405  10.411   6.266
 6103POPC   D2A76360   1.547  10.177   6.592
 6103POPC   C3A76361   1.560  10.447   6.964
 6103POPC   C4A76362   1.347  10.405   7.329
 6103POPC   C1B76363   0.962  10.203   6.400
 6103POPC   C2B76364   1.071  10.288   6.820
 6103POPC   C3B76365   0.923  10.144   7.209
 6103POPC   C4B76366   0.878  10.451   7.524
 6104POPC   NC376367  27.261  36.872   5.347
 6104POPC   PO476368  27.914  36.916   5.505
 6104POPC   GL176369  27.681  36.993   5.846
 6104POPC   GL276370  27.320  36.947   5.866
 6104POPC   C1A76371  27.660  36.874   6.254
 6104POPC   D2A76372  27.556  37.081   6.584
 6104POPC   C3A76373  27.723  36.841   6.894
 6104POPC   C4A76374  27.820  36.660   7.267
 6104POPC   C1B76375  27.153  36.774   6.272
 6104POPC   C2B76376  27.258  36.655   6.704
 6104POPC   C3B76377  27.261  36.895   7.089
 6104POPC   C4B76378  27.110  36.870   7.496
 6105POPC   NC376379  12.416   1.696   5.596
 6105POPC   PO476380  12.929   2.084   5.288
 6105POPC   GL176381  12.877   2.043   5.754
 6105POPC   GL276382  12.826   2.418   5.796
 6105POPC   C1A76383  12.969   1.791   6.181
 6105POPC   D2A76384  12.881   1.617   6.626
 6105POPC   C3A76385  13.100   1.706   7.019
 6105POPC   C4A76386  12.973   1.907   7.406
 6105POPC   C1B76387  12.782   2.257   6.211
 6105POPC   C2B76388  12.897   2.134   6.612
 6105POPC   C3B76389  12.780   2.332   6.995
 6105POPC   C4B76390  12.621   2.272   7.425
 6106POPC   NC376391  35.134   8.369   5.454
 6106POPC   PO476392  35.310   7.751   5.288
 6106POPC   GL176393  35.445   8.001   5.636
 6106POPC   GL276394  35.121   7.934   5.748
 6106POPC   C1A76395  35.555   8.244   6.048
 6106POPC   D2A76396  35.755   8.260   6.482
 6106POPC   C3A76397  35.527   8.393   6.871
 6106POPC   C4A76398  35.574   8.207   7.326
 6106POPC   C1B76399  35.005   8.122   6.130
 6106POPC   C2B76400  35.221   8.097   6.508
 6106POPC   C3B76401  35.071   8.009   6.893
 6106POPC   C4B76402  35.107   8.299   7.208
 6107POPC   NC376403   0.376   5.524   5.490
 6107POPC   PO476404   0.072   6.133   5.297
 6107POPC   GL176405   0.189   6.093   5.757
 6107POPC   GL276406   0.521   6.245   5.918
 6107POPC   C1A76407   0.145   5.991   6.185
 6107POPC   D2A76408   0.105   5.755   6.553
 6107POPC   C3A76409   0.225   5.912   6.975
 6107POPC   C4A76410   0.335   5.714   7.364
 6107POPC   C1B76411   0.671   5.986   6.243
 6107POPC   C2B76412   0.610   5.882   6.638
 6107POPC   C3B76413   0.678   5.648   6.967
 6107POPC   C4B76414   0.849   5.829   7.290
 6108POPC   NC376415  39.319  32.643   5.155
 6108POPC   PO476416  39.011  32.087   5.324
 6108POPC   GL176417  39.214  32.264   5.737
 6108POPC   GL276418  39.094  32.601   5.891
 6108POPC   C1A76419  39.418  32.251   6.159
 6108POPC   D2A76420  39.219  32.076   6.530
 6108POPC   C3A76421  39.356  32.157   6.938
 6108POPC   C4A76422  38.932  32.214   7.130
 6108POPC   C1B76423  39.338  32.754   6.230
 6108POPC   C2B76424  39.400  32.564   6.631
 6108POPC   C3B76425  39.255  32.640   7.063
 6108POPC   C4B76426  39.336  32.366   7.402
 6109POPC   NC376427  11.736  26.241   5.484
 6109POPC   PO476428  12.253  25.819   5.531
 6109POPC   GL176429  12.052  26.026   5.832
 6109POPC   GL276430  12.338  26.175   5.972
 6109POPC   C1A76431  11.740  25.987   6.135
 6109POPC   D2A76432  11.724  25.781   6.510
 6109POPC   C3A76433  11.883  25.953   6.887
 6109POPC   C4A76434  12.118  26.218   7.202
 6109POPC   C1B76435  12.299  25.755   6.197
 6109POPC   C2B76436  12.216  25.639   6.610
 6109POPC   C3B76437  12.378  25.824   6.983
 6109POPC   C4B76438  12.392  25.789   7.438
 6110POPC   NC376439  11.485  23.115   5.346
 6110POPC   PO476440  11.373  22.568   5.537
 6110POPC   GL176441  11.147  22.776   5.838
 6110POPC   GL276442  11.357  23.039   5.835
 6110POPC   C1A76443  11.070  22.985   6.240
 6110POPC   D2A76444  11.069  22.955   6.690
 6110POPC   C3A76445  11.290  22.656   6.912
 6110POPC   C4A76446  11.263  22.760   7.336
 6110POPC   C1B76447  11.564  22.849   6.206
 6110POPC   C2B76448  11.590  23.068   6.617
 6110POPC   C3B76449  11.605  23.032   7.069
 6110POPC   C4B76450  11.650  23.008   7.536
 6111POPC   NC376451   5.643  10.652   5.701
 6111POPC   PO476452   4.934  10.477   5.479
 6111POPC   GL176453   4.862  10.572   5.892
 6111POPC   GL276454   5.153  10.785   5.928
 6111POPC   C1A76455   4.977  10.522   6.327
 6111POPC   D2A76456   5.299  10.273   6.578
 6111POPC   C3A76457   5.137  10.268   6.985
 6111POPC   C4A76458   4.821  10.600   7.125
 6111POPC   C1B76459   5.287  10.926   6.355
 6111POPC   C2B76460   5.190  10.765   6.782
 6111POPC   C3B76461   5.392  10.668   7.190
 6111POPC   C4B76462   5.475  10.972   7.572
 6112POPC   NC376463  23.703   6.613   5.512
 6112POPC   PO476464  24.238   6.430   5.246
 6112POPC   GL176465  24.146   6.546   5.752
 6112POPC   GL276466  23.872   6.381   5.928
 6112POPC   C1A76467  23.918   6.837   6.113
 6112POPC   D2A76468  23.570   6.711   6.408
 6112POPC   C3A76469  23.648   6.596   6.842
 6112POPC   C4A76470  24.022   6.539   7.102
 6112POPC   C1B76471  23.552   6.184   6.182
 6112POPC   C2B76472  23.389   6.226   6.596
 6112POPC   C3B76473  23.239   6.103   6.983
 6112POPC   C4B76474  23.314   6.141   7.398
 6113POPC   NC376475  43.106  44.953   5.705
 6113POPC   PO476476  42.968   0.492   5.333
 6113POPC   GL176477  43.045   0.439   5.797
 6113POPC   GL276478  42.732   0.307   5.794
 6113POPC   C1A76479  43.324   0.356   6.178
 6113POPC   D2A76480  43.250   0.541   6.576
 6113POPC   C3A76481  43.386   0.344   6.984
 6113POPC   C4A76482  43.335   0.188   7.428
 6113POPC   C1B76483  42.793   0.294   6.245
 6113POPC   C2B76484  42.716   0.492   6.625
 6113POPC   C3B76485  42.937   0.736   6.913
 6113POPC   C4B76486  43.041   0.578   7.306
 6114POPC   NC376487  13.674   0.866   5.313
 6114POPC   PO476488  13.690   1.491   5.549
 6114POPC   GL176489  13.558   1.298   5.897
 6114POPC   GL276490  13.196   1.271   5.845
 6114POPC   C1A76491  13.818   1.280   6.287
 6114POPC   D2A76492  13.759   1.184   6.712
 6114POPC   C3A76493  13.953   0.954   7.024
 6114POPC   C4A76494  13.861   1.112   7.410
 6114POPC   C1B76495  13.161   1.320   6.285
 6114POPC   C2B76496  13.266   1.253   6.700
 6114POPC   C3B76497  13.367   1.240   7.129
 6114POPC   C4B76498  13.133   1.409   7.457
 6115POPC   NC376499  43.110  38.949   5.472
 6115POPC   PO476500  42.858  38.306   5.453
 6115POPC   GL176501  43.085  38.532   5.802
 6115POPC   GL276502  43.454  38.635   5.824
 6115POPC   C1A76503  43.111  38.403   6.236
 6115POPC   D2A76504  42.816  38.343   6.585
 6115POPC   C3A76505  42.852  38.462   6.999
 6115POPC   C4A76506  42.941  38.457   7.427
 6115POPC   C1B76507  43.466  38.774   6.260
 6115POPC   C2B76508  43.272  38.646   6.683
 6115POPC   C3B76509  43.312  38.704   7.150
 6115POPC   C4B76510  43.370  38.649   7.645
 6116POPC   NC376511   2.002  28.234   5.410
 6116POPC   PO476512   1.842  28.886   5.243
 6116POPC   GL176513   1.937  28.722   5.661
 6116POPC   GL276514   2.245  28.530   5.759
 6116POPC   C1A76515   1.869  28.562   6.091
 6116POPC   D2A76516   1.671  28.421   6.455
 6116POPC   C3A76517   1.789  28.397   6.867
 6116POPC   C4A76518   1.808  28.304   7.261
 6116POPC   C1B76519   2.282  28.241   6.143
 6116POPC   C2B76520   2.209  28.373   6.573
 6116POPC   C3B76521   2.291  28.454   7.022
 6116POPC   C4B76522   2.118  28.745   7.295
 6117POPC   NC376523  23.516  33.474   5.286
 6117POPC   PO476524  23.997  33.922   5.379
 6117POPC   GL176525  23.692  33.869   5.734
 6117POPC   GL276526  23.373  34.072   5.778
 6117POPC   C1A76527  23.838  33.745   6.161
 6117POPC   D2A76528  23.753  33.461   6.504
 6117POPC   C3A76529  23.843  33.624   6.895
 6117POPC   C4A76530  23.918  33.458   7.281
 6117POPC   C1B76531  23.376  33.961   6.221
 6117POPC   C2B76532  23.636  34.031   6.585
 6117POPC   C3B76533  23.539  34.001   7.014
 6117POPC   C4B76534  23.434  33.659   7.239
 6118POPC   NC376535  39.051  25.588   5.067
 6118POPC   PO476536  38.528  25.417   5.459
 6118POPC   GL176537  38.616  25.207   5.799
 6118POPC   GL276538  38.602  25.551   5.933
 6118POPC   C1A76539  38.354  25.078   6.171
 6118POPC   D2A76540  38.046  24.955   6.482
 6118POPC   C3A76541  38.274  25.043   6.844
 6118POPC   C4A76542  38.578  24.916   7.184
 6118POPC   C1B76543  38.639  25.482   6.304
 6118POPC   C2B76544  38.494  25.516   6.684
 6118POPC   C3B76545  38.561  25.422   7.097
 6118POPC   C4B76546  38.876  25.380   7.375
 6119POPC   NC376547   6.146  13.817   5.523
 6119POPC   PO476548   5.711  13.341   5.315
 6119POPC   GL176549   5.799  13.552   5.765
 6119POPC   GL276550   6.030  13.347   5.759
 6119POPC   C1A76551   5.780  13.824   6.183
 6119POPC   D2A76552   5.816  13.677   6.611
 6119POPC   C3A76553   5.706  13.848   7.022
 6119POPC   C4A76554   6.004  13.844   7.370
 6119POPC   C1B76555   6.015  13.379   6.213
 6119POPC   C2B76556   6.287  13.477   6.562
 6119POPC   C3B76557   6.183  13.592   6.984
 6119POPC   C4B76558   6.133  13.360   7.428
 6120POPC   NC376559   9.519  19.498   5.471
 6120POPC   PO476560   9.933  19.996   5.326
 6120POPC   GL176561   9.869  19.800   5.736
 6120POPC   GL276562   9.509  19.825   5.865
 6120POPC   C1A76563  10.055  19.780   6.156
 6120POPC   D2A76564   9.958  19.582   6.539
 6120POPC   C3A76565   9.837  19.780   6.928
 6120POPC   C4A76566  10.116  19.963   7.224
 6120POPC   C1B76567   9.571  19.816   6.310
 6120POPC   C2B76568   9.434  19.613   6.651
 6120POPC   C3B76569   9.254  19.618   7.051
 6120POPC   C4B76570   9.506  19.801   7.319
 6121POPC   NC376571  21.195  23.733   5.343
 6121POPC   PO476572  21.792  23.529   5.328
 6121POPC   GL176573  21.675  23.663   5.749
 6121POPC   GL276574  21.321  23.745   5.833
 6121POPC   C1A76575  21.599  23.578   6.233
 6121POPC   D2A76576  21.208  23.613   6.511
 6121POPC   C3A76577  21.240  23.667   6.962
 6121POPC   C4A76578  21.551  23.668   7.285
 6121POPC   C1B76579  21.376  24.031   6.164
 6121POPC   C2B76580  21.306  24.126   6.577
 6121POPC   C3B76581  21.229  24.204   6.988
 6121POPC   C4B76582  21.207  24.039   7.423
 6122POPC   NC376583  21.732  32.017   5.732
 6122POPC   PO476584  22.186  32.412   5.359
 6122POPC   GL176585  22.189  32.395   5.809
 6122POPC   GL276586  21.870  32.572   5.803
 6122POPC   C1A76587  22.227  32.244   6.264
 6122POPC   D2A76588  21.984  32.165   6.663
 6122POPC   C3A76589  22.194  32.297   7.062
 6122POPC   C4A76590  22.495  31.983   7.287
 6122POPC   C1B76591  21.977  32.700   6.234
 6122POPC   C2B76592  21.943  32.650   6.728
 6122POPC   C3B76593  21.923  32.778   7.136
 6122POPC   C4B76594  21.975  32.557   7.514
 6123POPC   NC376595   7.488  39.286   5.270
 6123POPC   PO476596   7.073  38.723   5.256
 6123POPC   GL176597   7.262  38.971   5.690
 6123POPC   GL276598   7.242  39.363   5.747
 6123POPC   C1A76599   7.520  39.154   6.108
 6123POPC   D2A76600   7.680  39.377   6.500
 6123POPC   C3A76601   7.482  39.358   6.939
 6123POPC   C4A76602   7.578  39.295   7.414
 6123POPC   C1B76603   7.226  39.583   6.170
 6123POPC   C2B76604   7.197  39.711   6.591
 6123POPC   C3B76605   6.970  39.739   6.959
 6123POPC   C4B76606   7.213  39.621   7.302
 6124POPC   NC376607  11.912  28.569   5.520
 6124POPC   PO476608  12.307  28.115   5.252
 6124POPC   GL176609  12.269  28.123   5.769
 6124POPC   GL276610  11.945  28.273   5.914
 6124POPC   C1A76611  12.357  28.402   6.185
 6124POPC   D2A76612  12.214  28.562   6.596
 6124POPC   C3A76613  12.391  28.401   7.000
 6124POPC   C4A76614  12.234  28.045   7.261
 6124POPC   C1B76615  11.951  28.086   6.310
 6124POPC   C2B76616  11.808  27.994   6.717
 6124POPC   C3B76617  11.871  28.310   7.024
 6124POPC   C4B76618  11.878  28.709   7.232
 6125POPC   NC376619  34.309   5.211   5.453
 6125POPC   PO476620  33.657   5.358   5.487
 6125POPC   GL176621  33.993   5.418   5.814
 6125POPC   GL276622  33.717   5.565   5.965
 6125POPC   C1A76623  34.092   5.283   6.255
 6125POPC   D2A76624  33.941   4.893   6.506
 6125POPC   C3A76625  33.986   4.920   6.947
 6125POPC   C4A76626  33.881   5.021   7.366
 6125POPC   C1B76627  33.586   5.226   6.213
 6125POPC   C2B76628  33.661   5.313   6.636
 6125POPC   C3B76629  33.556   5.199   7.020
 6125POPC   C4B76630  33.457   5.269   7.446
 6126POPC   NC376631  17.972   5.934   5.426
 6126POPC   PO476632  18.591   5.632   5.435
 6126POPC   GL176633  18.314   5.751   5.821
 6126POPC   GL276634  17.938   5.698   5.875
 6126POPC   C1A76635  18.326   5.781   6.296
 6126POPC   D2A76636  18.493   5.532   6.644
 6126POPC   C3A76637  18.514   5.751   7.015
 6126POPC   C4A76638  18.335   6.150   7.163
 6126POPC   C1B76639  18.009   6.117   6.069
 6126POPC   C2B76640  18.049   6.242   6.520
 6126POPC   C3B76641  17.868   6.183   6.932
 6126POPC   C4B76642  17.863   6.185   7.380
 6127POPC   NC376643  33.173  11.808   5.435
 6127POPC   PO476644  32.911  12.338   5.612
 6127POPC   GL176645  33.011  11.988   5.905
 6127POPC   GL276646  33.119  11.620   5.892
 6127POPC   C1A76647  32.836  11.948   6.308
 6127POPC   D2A76648  32.609  12.249   6.606
 6127POPC   C3A76649  32.751  12.138   7.033
 6127POPC   C4A76650  33.136  12.069   7.258
 6127POPC   C1B76651  33.313  11.688   6.273
 6127POPC   C2B76652  33.192  11.755   6.707
 6127POPC   C3B76653  33.348  11.601   7.101
 6127POPC   C4B76654  33.437  11.751   7.533
 6128POPC   NC376655  42.574  28.230   5.520
 6128POPC   PO476656  42.225  28.751   5.272
 6128POPC   GL176657  42.259  28.614   5.707
 6128POPC   GL276658  42.042  28.341   5.686
 6128POPC   C1A76659  42.279  28.557   6.187
 6128POPC   D2A76660  42.440  28.439   6.631
 6128POPC   C3A76661  42.306  28.361   7.036
 6128POPC   C4A76662  42.326  28.690   7.297
 6128POPC   C1B76663  42.123  28.104   6.032
 6128POPC   C2B76664  42.138  28.066   6.449
 6128POPC   C3B76665  41.935  28.086   6.825
 6128POPC   C4B76666  41.890  27.968   7.250
 6129POPC   NC376667  29.814  41.078   5.516
 6129POPC   PO476668  30.046  40.436   5.251
 6129POPC   GL176669  30.000  40.648   5.724
 6129POPC   GL276670  29.673  40.796   5.924
 6129POPC   C1A76671  30.105  40.914   6.134
 6129POPC   D2A76672  30.148  41.087   6.538
 6129POPC   C3A76673  29.983  40.827   6.838
 6129POPC   C4A76674  29.931  40.727   7.262
 6129POPC   C1B76675  29.603  41.110   6.229
 6129POPC   C2B76676  29.656  41.262   6.651
 6129POPC   C3B76677  29.575  41.070   7.031
 6129POPC   C4B76678  29.567  41.015   7.469
 6130POPC   NC376679  35.114  34.653   5.474
 6130POPC   PO476680  35.806  34.417   5.345
 6130POPC   GL176681  35.506  34.391   5.721
 6130POPC   GL276682  35.467  34.688   5.909
 6130POPC   C1A76683  35.357  34.240   6.154
 6130POPC   D2A76684  35.458  34.361   6.611
 6130POPC   C3A76685  35.269  34.490   7.027
 6130POPC   C4A76686  35.324  34.732   7.409
 6130POPC   C1B76687  35.123  34.701   6.219
 6130POPC   C2B76688  35.076  34.910   6.624
 6130POPC   C3B76689  34.982  34.940   7.064
 6130POPC   C4B76690  34.993  35.138   7.477
 6131POPC   NC376691   3.865  41.423   5.599
 6131POPC   PO476692   3.297  41.779   5.469
 6131POPC   GL176693   3.459  41.671   5.839
 6131POPC   GL276694   3.432  41.300   5.862
 6131POPC   C1A76695   3.412  41.906   6.196
 6131POPC   D2A76696   3.606  41.958   6.559
 6131POPC   C3A76697   3.511  41.827   6.937
 6131POPC   C4A76698   3.574  41.963   7.331
 6131POPC   C1B76699   3.649  41.444   6.262
 6131POPC   C2B76700   3.588  41.355   6.691
 6131POPC   C3B76701   3.758  41.384   7.058
 6131POPC   C4B76702   4.023  41.384   7.372
 6132POPC   NC376703  18.500   4.435   5.432
 6132POPC   PO476704  18.170   3.820   5.555
 6132POPC   GL176705  18.156   4.198   5.868
 6132POPC   GL276706  18.444   4.417   5.936
 6132POPC   C1A76707  18.055   4.444   6.274
 6132POPC   D2A76708  18.145   4.437   6.725
 6132POPC   C3A76709  18.312   4.089   6.892
 6132POPC   C4A76710  18.199   4.032   7.291
 6132POPC   C1B76711  18.502   4.206   6.341
 6132POPC   C2B76712  18.675   4.412   6.708
 6132POPC   C3B76713  18.523   4.528   7.106
 6132POPC   C4B76714  18.688   4.182   7.303
 6133POPC   NC376715  17.355  30.742   5.345
 6133POPC   PO476716  16.745  30.577   5.395
 6133POPC   GL176717  16.740  30.746   5.800
 6133POPC   GL276718  17.105  30.751   5.834
 6133POPC   C1A76719  16.786  30.544   6.213
 6133POPC   D2A76720  17.056  30.586   6.575
 6133POPC   C3A76721  16.839  30.597   6.963
 6133POPC   C4A76722  16.855  30.240   7.268
 6133POPC   C1B76723  17.071  30.984   6.235
 6133POPC   C2B76724  17.118  31.101   6.693
 6133POPC   C3B76725  17.157  31.014   7.142
 6133POPC   C4B76726  17.135  30.678   7.457
 6134POPC   NC376727   5.026  41.027   5.485
 6134POPC   PO476728   5.453  40.482   5.560
 6134POPC   GL176729   5.194  40.730   5.869
 6134POPC   GL276730   5.257  41.108   5.942
 6134POPC   C1A76731   4.995  40.803   6.269
 6134POPC   D2A76732   5.105  40.950   6.665
 6134POPC   C3A76733   4.925  40.781   7.001
 6134POPC   C4A76734   4.791  40.874   7.387
 6134POPC   C1B76735   5.493  40.857   6.279
 6134POPC   C2B76736   5.528  40.632   6.674
 6134POPC   C3B76737   5.441  40.807   7.068
 6134POPC   C4B76738   5.329  41.228   7.156
 6135POPC   NC376739  26.795   6.807   5.343
 6135POPC   PO476740  27.273   6.365   5.124
 6135POPC   GL176741  27.096   6.413   5.583
 6135POPC   GL276742  26.717   6.444   5.689
 6135POPC   C1A76743  27.117   6.679   5.981
 6135POPC   D2A76744  26.994   6.750   6.439
 6135POPC   C3A76745  26.727   6.546   6.776
 6135POPC   C4A76746  26.857   6.662   7.195
 6135POPC   C1B76747  26.621   6.813   5.998
 6135POPC   C2B76748  26.564   7.025   6.428
 6135POPC   C3B76749  26.692   7.040   6.876
 6135POPC   C4B76750  26.474   7.000   7.311
 6136POPC   NC376751  14.669  32.693   5.752
 6136POPC   PO476752  15.079  32.305   5.393
 6136POPC   GL176753  15.142  32.040   5.745
 6136POPC   GL276754  15.499  31.966   5.644
 6136POPC   C1A76755  14.971  32.169   6.192
 6136POPC   D2A76756  15.025  32.436   6.596
 6136POPC   C3A76757  14.857  32.311   7.020
 6136POPC   C4A76758  15.084  32.341   7.423
 6136POPC   C1B76759  15.554  32.053   6.094
 6136POPC   C2B76760  15.346  32.022   6.505
 6136POPC   C3B76761  15.378  32.217   6.933
 6136POPC   C4B76762  15.562  32.303   7.326
 6137POPC   NC376763  21.573  44.155   5.659
 6137POPC   PO476764  21.653  44.701   5.183
 6137POPC   GL176765  21.441  44.661   5.624
 6137POPC   GL276766  21.188  44.897   5.768
 6137POPC   C1A76767  21.447  44.648   6.118
 6137POPC   D2A76768  21.384  44.452   6.531
 6137POPC   C3A76769  21.613  44.649   6.885
 6137POPC   C4A76770  21.811  44.910   7.213
 6137POPC   C1B76771  20.953  44.829   6.184
 6137POPC   C2B76772  20.847  44.953   6.622
 6137POPC   C3B76773  21.063  44.789   6.979
 6137POPC   C4B76774  21.284  44.526   7.263
 6138POPC   NC376775  24.197  36.627   5.367
 6138POPC   PO476776  24.768  36.981   5.476
 6138POPC   GL176777  24.506  36.968   5.827
 6138POPC   GL276778  24.153  36.850   5.838
 6138POPC   C1A76779  24.697  36.950   6.208
 6138POPC   D2A76780  24.572  36.802   6.580
 6138POPC   C3A76781  24.802  37.077   6.856
 6138POPC   C4A76782  24.732  37.138   7.258
 6138POPC   C1B76783  24.133  37.053   6.258
 6138POPC   C2B76784  23.828  37.130   6.622
 6138POPC   C3B76785  23.940  37.023   7.080
 6138POPC   C4B76786  24.247  37.110   7.434
 6139POPC   NC376787  35.613   6.000   5.546
 6139POPC   PO476788  35.056   5.650   5.308
 6139POPC   GL176789  35.148   5.694   5.758
 6139POPC   GL276790  35.496   5.610   5.859
 6139POPC   C1A76791  35.226   5.930   6.154
 6139POPC   D2A76792  35.425   5.915   6.551
 6139POPC   C3A76793  35.173   5.964   6.944
 6139POPC   C4A76794  35.238   6.170   7.369
 6139POPC   C1B76795  35.736   5.500   6.219
 6139POPC   C2B76796  35.854   5.599   6.639
 6139POPC   C3B76797  35.676   5.800   7.001
 6139POPC   C4B76798  35.588   5.789   7.435
 6140POPC   NC376799  21.497  43.393   5.312
 6140POPC   PO476800  21.201  42.805   5.262
 6140POPC   GL176801  21.251  42.892   5.707
 6140POPC   GL276802  21.414  43.176   5.806
 6140POPC   C1A76803  21.256  42.861   6.178
 6140POPC   D2A76804  21.104  43.003   6.576
 6140POPC   C3A76805  21.413  43.021   6.907
 6140POPC   C4A76806  21.485  42.896   7.294
 6140POPC   C1B76807  21.214  43.385   6.223
 6140POPC   C2B76808  21.270  43.481   6.690
 6140POPC   C3B76809  21.062  43.334   7.069
 6140POPC   C4B76810  21.143  43.231   7.488
 6141POPC   NC376811   7.053   7.979   4.994
 6141POPC   PO476812   6.859   7.580   5.545
 6141POPC   GL176813   6.617   7.500   5.906
 6141POPC   GL276814   6.867   7.264   5.974
 6141POPC   C1A76815   6.632   7.467   6.360
 6141POPC   D2A76816   6.762   7.566   6.726
 6141POPC   C3A76817   6.454   7.571   6.971
 6141POPC   C4A76818   6.462   7.769   7.310
 6141POPC   C1B76819   6.467   7.035   6.159
 6141POPC   C2B76820   6.275   7.070   6.600
 6141POPC   C3B76821   6.459   7.066   7.039
 6141POPC   C4B76822   6.869   7.298   7.152
 6142POPC   NC376823   9.011  33.461   5.376
 6142POPC   PO476824   9.248  32.847   5.568
 6142POPC   GL176825   8.899  32.990   5.826
 6142POPC   GL276826   9.076  33.294   5.855
 6142POPC   C1A76827   8.896  33.050   6.281
 6142POPC   D2A76828   9.182  32.896   6.626
 6142POPC   C3A76829   8.899  33.031   6.964
 6142POPC   C4A76830   8.662  32.893   7.352
 6142POPC   C1B76831   9.200  33.495   6.233
 6142POPC   C2B76832   9.172  33.398   6.663
 6142POPC   C3B76833   9.189  33.498   7.074
 6142POPC   C4B76834   9.173  33.170   7.372
 6143POPC   NC376835  38.138   2.211   5.671
 6143POPC   PO476836  38.600   1.885   5.360
 6143POPC   GL176837  38.482   1.871   5.827
 6143POPC   GL276838  38.749   2.043   6.002
 6143POPC   C1A76839  38.270   1.701   6.247
 6143POPC   D2A76840  38.064   1.697   6.690
 6143POPC   C3A76841  38.402   1.705   7.010
 6143POPC   C4A76842  38.654   1.952   7.253
 6143POPC   C1B76843  38.438   2.183   6.312
 6143POPC   C2B76844  38.382   2.089   6.697
 6143POPC   C3B76845  38.266   2.247   7.070
 6143POPC   C4B76846  38.616   2.463   7.212
 6144POPC   NC376847  28.019   8.131   5.112
 6144POPC   PO476848  28.621   8.184   5.386
 6144POPC   GL176849  28.326   7.970   5.680
 6144POPC   GL276850  28.092   8.208   5.815
 6144POPC   C1A76851  28.349   7.876   6.132
 6144POPC   D2A76852  28.183   8.036   6.543
 6144POPC   C3A76853  28.332   8.010   6.979
 6144POPC   C4A76854  28.152   8.072   7.430
 6144POPC   C1B76855  28.285   8.414   6.215
 6144POPC   C2B76856  28.332   8.553   6.675
 6144POPC   C3B76857  28.292   8.475   7.131
 6144POPC   C4B76858  28.589   8.320   7.437
 6145POPC   NC376859   6.422   1.348   5.483
 6145POPC   PO476860   6.966   1.537   5.157
 6145POPC   GL176861   6.891   1.241   5.670
 6145POPC   GL276862   6.608   1.327   5.935
 6145POPC   C1A76863   6.902   0.990   6.107
 6145POPC   D2A76864   6.676   1.171   6.488
 6145POPC   C3A76865   6.692   1.054   6.927
 6145POPC   C4A76866   6.800   1.327   7.225
 6145POPC   C1B76867   6.334   1.500   6.220
 6145POPC   C2B76868   6.392   1.582   6.655
 6145POPC   C3B76869   6.243   1.336   6.968
 6145POPC   C4B76870   6.293   1.258   7.387
 6146POPC   NC376871  27.196  18.712   5.392
 6146POPC   PO476872  27.845  18.501   5.543
 6146POPC   GL176873  27.641  18.352   5.883
 6146POPC   GL276874  27.646  17.998   5.794
 6146POPC   C1A76875  27.430  18.401   6.277
 6146POPC   D2A76876  27.270  18.416   6.693
 6146POPC   C3A76877  27.581  18.518   7.045
 6146POPC   C4A76878  27.653  18.493   7.522
 6146POPC   C1B76879  27.490  17.896   6.164
 6146POPC   C2B76880  27.492  17.960   6.582
 6146POPC   C3B76881  27.427  18.036   7.000
 6146POPC   C4B76882  27.703  18.062   7.290
 6147POPC   NC376883  38.804  15.708   5.551
 6147POPC   PO476884  38.266  15.838   5.193
 6147POPC   GL176885  38.398  16.021   5.645
 6147POPC   GL276886  38.370  15.764   5.827
 6147POPC   C1A76887  38.414  16.106   6.174
 6147POPC   D2A76888  38.291  16.293   6.610
 6147POPC   C3A76889  38.258  16.014   7.001
 6147POPC   C4A76890  38.654  15.932   7.209
 6147POPC   C1B76891  38.212  15.622   6.229
 6147POPC   C2B76892  38.386  15.733   6.599
 6147POPC   C3B76893  38.470  15.522   6.982
 6147POPC   C4B76894  38.121  15.533   7.251
 6148POPC   NC376895  40.778   0.183   5.346
 6148POPC   PO476896  40.598   0.860   5.544
 6148POPC   GL176897  40.804   0.520   5.825
 6148POPC   GL276898  40.959   0.164   5.833
 6148POPC   C1A76899  40.524   0.233   6.097
 6148POPC   D2A76900  40.479   0.137   6.548
 6148POPC   C3A76901  40.565   0.558   6.758
 6148POPC   C4A76902  40.843   0.781   7.048
 6148POPC   C1B76903  40.959   0.037   6.284
 6148POPC   C2B76904  40.981   0.285   6.647
 6148POPC   C3B76905  40.844   0.236   7.069
 6148POPC   C4B76906  41.037   0.028   7.415
 6149POPC   NC376907  32.025  23.059   5.311
 6149POPC   PO476908  32.635  22.667   5.533
 6149POPC   GL176909  32.432  23.033   5.773
 6149POPC   GL276910  32.136  22.885   5.778
 6149POPC   C1A76911  32.206  23.117   6.210
 6149POPC   D2A76912  32.365  23.171   6.626
 6149POPC   C3A76913  32.066  23.067   6.989
 6149POPC   C4A76914  31.992  22.938   7.444
 6149POPC   C1B76915  32.250  22.618   6.178
 6149POPC   C2B76916  32.226  22.673   6.667
 6149POPC   C3B76917  32.213  22.580   7.139
 6149POPC   C4B76918  31.918  22.430   7.481
 6150POPC   NC376919   1.067  28.000   5.639
 6150POPC   PO476920   1.188  27.446   5.352
 6150POPC   GL176921   1.251  27.526   5.772
 6150POPC   GL276922   1.544  27.752   5.728
 6150POPC   C1A76923   1.056  27.506   6.194
 6150POPC   D2A76924   0.726  27.616   6.520
 6150POPC   C3A76925   0.884  27.539   6.964
 6150POPC   C4A76926   1.108  27.611   7.373
 6150POPC   C1B76927   1.619  27.578   6.126
 6150POPC   C2B76928   1.629  27.525   6.549
 6150POPC   C3B76929   1.591  27.833   6.934
 6150POPC   C4B76930   1.505  27.914   7.353
 6151POPC   NC376931   3.113   9.218   5.383
 6151POPC   PO476932   2.549   8.799   5.203
 6151POPC   GL176933   2.706   8.872   5.657
 6151POPC   GL276934   2.676   9.199   5.768
 6151POPC   C1A76935   2.693   8.828   6.139
 6151POPC   D2A76936   2.704   8.944   6.580
 6151POPC   C3A76937   2.840   8.846   7.019
 6151POPC   C4A76938   2.979   9.212   7.203
 6151POPC   C1B76939   3.079   9.152   6.049
 6151POPC   C2B76940   3.210   8.854   6.396
 6151POPC   C3B76941   3.313   8.793   6.851
 6151POPC   C4B76942   3.349   8.614   7.301
 6152POPC   NC376943  23.159  41.173   5.599
 6152POPC   PO476944  22.787  40.628   5.362
 6152POPC   GL176945  22.798  40.825   5.738
 6152POPC   GL276946  23.140  40.706   5.838
 6152POPC   C1A76947  22.663  40.698   6.133
 6152POPC   D2A76948  22.507  40.846   6.531
 6152POPC   C3A76949  22.645  40.715   6.928
 6152POPC   C4A76950  22.881  40.908   7.237
 6152POPC   C1B76951  23.132  40.767   6.297
 6152POPC   C2B76952  23.063  40.909   6.700
 6152POPC   C3B76953  23.339  40.954   7.016
 6152POPC   C4B76954  23.508  40.593   7.174
 6153POPC   NC376955  41.012  43.615   5.394
 6153POPC   PO476956  40.656  44.177   5.334
 6153POPC   GL176957  40.977  44.113   5.662
 6153POPC   GL276958  40.781  43.853   5.816
 6153POPC   C1A76959  41.104  44.088   6.129
 6153POPC   D2A76960  40.948  43.915   6.505
 6153POPC   C3A76961  40.984  44.166   6.883
 6153POPC   C4A76962  41.010  43.875   7.212
 6153POPC   C1B76963  40.590  44.107   6.170
 6153POPC   C2B76964  40.452  44.055   6.587
 6153POPC   C3B76965  40.523  43.971   7.021
 6153POPC   C4B76966  40.665  44.204   7.434
 6154POPC   NC376967  22.678  27.726   5.397
 6154POPC   PO476968  23.304  27.871   5.404
 6154POPC   GL176969  23.230  27.535   5.738
 6154POPC   GL276970  22.891  27.487   5.819
 6154POPC   C1A76971  23.267  27.405   6.190
 6154POPC   D2A76972  23.033  27.415   6.584
 6154POPC   C3A76973  23.205  27.590   6.977
 6154POPC   C4A76974  23.186  27.464   7.418
 6154POPC   C1B76975  22.679  27.333   6.196
 6154POPC   C2B76976  22.525  27.205   6.595
 6154POPC   C3B76977  22.544  27.153   7.042
 6154POPC   C4B76978  22.717  27.498   7.254
 6155POPC   NC376979  42.995  10.008   4.949
 6155POPC   PO476980  43.205   9.641   5.471
 6155POPC   GL176981  43.077   9.662   5.877
 6155POPC   GL276982  43.228   9.966   5.894
 6155POPC   C1A76983  42.967   9.511   6.245
 6155POPC   D2A76984  42.949   9.664   6.642
 6155POPC   C3A76985  43.045   9.477   6.985
 6155POPC   C4A76986  42.869   9.631   7.343
 6155POPC   C1B76987  43.159   9.991   6.313
 6155POPC   C2B76988  43.403  10.150   6.629
 6155POPC   C3B76989  43.189  10.005   6.987
 6155POPC   C4B76990  42.985  10.168   7.321
 6156POPC   NC376991   1.477   1.638   5.368
 6156POPC   PO476992   0.799   1.862   5.269
 6156POPC   GL176993   1.019   1.830   5.704
 6156POPC   GL276994   1.329   1.706   5.851
 6156POPC   C1A76995   0.982   2.031   6.128
 6156POPC   D2A76996   1.176   2.262   6.470
 6156POPC   C3A76997   1.095   2.229   6.913
 6156POPC   C4A76998   1.459   2.280   7.144
 6156POPC   C1B76999   1.084   1.515   6.182
 6156POPC   C2B77000   1.123   1.751   6.558
 6156POPC   C3B77001   1.403   1.820   6.891
 6156POPC   C4B77002   1.117   1.770   7.176
 6157POPC   NC377003  43.134   0.099   5.154
 6157POPC   PO477004  43.375  44.608   5.565
 6157POPC   GL177005  43.237  44.559   5.993
 6157POPC   GL277006  42.905  44.478   5.854
 6157POPC   C1A77007  43.082  44.866   6.345
 6157POPC   D2A77008  43.035   0.092   6.716
 6157POPC   C3A77009  43.185  44.856   7.058
 6157POPC   C4A77010  43.268  44.447   7.228
 6157POPC   C1B77011  42.838  44.432   6.307
 6157POPC   C2B77012  43.008  44.396   6.728
 6157POPC   C3B77013  42.791  44.531   7.069
 6157POPC   C4B77014  42.693  44.959   7.101
 6158POPC   NC377015  41.524   7.192   5.333
 6158POPC   PO477016  41.407   7.830   5.482
 6158POPC   GL177017  41.656   7.510   5.717
 6158POPC   GL277018  41.450   7.250   5.850
 6158POPC   C1A77019  41.843   7.428   6.145
 6158POPC   D2A77020  41.651   7.271   6.541
 6158POPC   C3A77021  41.618   7.426   6.990
 6158POPC   C4A77022  41.644   7.709   7.343
 6158POPC   C1B77023  41.348   7.575   6.186
 6158POPC   C2B77024  41.286   7.609   6.653
 6158POPC   C3B77025  41.198   7.777   7.072
 6158POPC   C4B77026  41.135   7.672   7.534
 6159POPC   NC377027  19.970  43.331   5.370
 6159POPC   PO477028  19.360  43.483   5.663
 6159POPC   GL177029  19.705  43.243   5.819
 6159POPC   GL277030  20.060  43.380   5.868
 6159POPC   C1A77031  19.614  42.992   6.166
 6159POPC   D2A77032  19.735  42.771   6.518
 6159POPC   C3A77033  19.702  42.989   6.915
 6159POPC   C4A77034  19.465  43.353   7.007
 6159POPC   C1B77035  20.105  43.134   6.242
 6159POPC   C2B77036  20.200  43.096   6.680
 6159POPC   C3B77037  20.063  43.314   7.048
 6159POPC   C4B77038  20.127  43.149   7.424
 6160POPC   NC377039  43.811  42.893   5.477
 6160POPC   PO477040  44.092  43.525   5.373
 6160POPC   GL177041  44.076  43.234   5.760
 6160POPC   GL277042  44.213  42.881   5.794
 6160POPC   C1A77043  43.923  43.246   6.202
 6160POPC   D2A77044  43.685  43.196   6.599
 6160POPC   C3A77045  43.882  43.226   6.989
 6160POPC   C4A77046  43.732  42.851   7.187
 6160POPC   C1B77047  44.171  42.756   6.215
 6160POPC   C2B77048  44.141  42.925   6.619
 6160POPC   C3B77049  44.219  42.830   7.051
 6160POPC   C4B77050  44.123  43.045   7.454
 6161POPC   NC377051  34.898  16.037   5.537
 6161POPC   PO477052  34.386  15.739   5.746
 6161POPC   GL177053  34.563  15.894   6.065
 6161POPC   GL277054  34.736  16.185   5.994
 6161POPC   C1A77055  34.459  16.099   6.434
 6161POPC   D2A77056  34.631  16.049   6.822
 6161POPC   C3A77057  34.319  15.957   7.091
 6161POPC   C4A77058  34.288  16.163   7.494
 6161POPC   C1B77059  34.962  16.035   6.365
 6161POPC   C2B77060  35.021  16.345   6.644
 6161POPC   C3B77061  34.734  16.530   6.904
 6161POPC   C4B77062  34.844  16.486   7.331
 6162POPC   NC377063  10.738  32.937   5.502
 6162POPC   PO477064  10.644  33.703   5.409
 6162POPC   GL177065  10.700  33.405   5.795
 6162POPC   GL277066  10.375  33.246   5.937
 6162POPC   C1A77067  10.794  33.247   6.228
 6162POPC   D2A77068  10.431  33.218   6.519
 6162POPC   C3A77069  10.556  33.254   6.942
 6162POPC   C4A77070  10.917  33.040   7.151
 6162POPC   C1B77071  10.472  32.850   6.168
 6162POPC   C2B77072  10.555  32.708   6.623
 6162POPC   C3B77073  10.450  32.770   7.072
 6162POPC   C4B77074  10.272  32.651   7.458
 6163POPC   NC377075  14.195  12.514   5.001
 6163POPC   PO477076  14.528  12.021   5.390
 6163POPC   GL177077  14.411  12.265   5.749
 6163POPC   GL277078  14.263  11.957   5.834
 6163POPC   C1A77079  14.299  12.287   6.211
 6163POPC   D2A77080  14.196  12.089   6.620
 6163POPC   C3A77081  14.497  12.202   6.948
 6163POPC   C4A77082  14.565  12.069   7.360
 6163POPC   C1B77083  14.320  11.749   6.229
 6163POPC   C2B77084  14.202  11.565   6.625
 6163POPC   C3B77085  14.324  11.730   7.046
 6163POPC   C4B77086  14.198  11.765   7.485
 6164POPC   NC377087  11.393  15.492   5.389
 6164POPC   PO477088  11.251  14.787   5.308
 6164POPC   GL177089  11.258  15.095   5.691
 6164POPC   GL277090  10.937  15.216   5.785
 6164POPC   C1A77091  11.286  15.189   6.165
 6164POPC   D2A77092  11.192  14.969   6.576
 6164POPC   C3A77093  11.529  14.867   6.913
 6164POPC   C4A77094  11.560  15.113   7.333
 6164POPC   C1B77095  10.806  15.477   6.156
 6164POPC   C2B77096  10.680  15.583   6.603
 6164POPC   C3B77097  10.878  15.535   7.007
 6164POPC   C4B77098  11.122  15.126   7.059
 6165POPC   NC377099  21.691  35.797   5.548
 6165POPC   PO477100  21.129  36.102   5.491
 6165POPC   GL177101  21.360  36.108   5.845
 6165POPC   GL277102  21.294  35.781   5.894
 6165POPC   C1A77103  21.207  36.124   6.282
 6165POPC   D2A77104  21.184  35.850   6.625
 6165POPC   C3A77105  21.207  36.044   7.013
 6165POPC   C4A77106  21.103  35.902   7.425
 6165POPC   C1B77107  21.523  35.717   6.259
 6165POPC   C2B77108  21.715  36.037   6.531
 6165POPC   C3B77109  21.720  36.231   6.940
 6165POPC   C4B77110  21.643  36.050   7.327
 6166POPC   NC377111   4.143   9.522   5.511
 6166POPC   PO477112   4.566   9.968   5.333
 6166POPC   GL177113   4.449   9.907   5.794
 6166POPC   GL277114   4.098   9.981   5.837
 6166POPC   C1A77115   4.527   9.713   6.240
 6166POPC   D2A77116   4.793   9.610   6.636
 6166POPC   C3A77117   4.586   9.506   7.027
 6166POPC   C4A77118   4.190   9.583   7.220
 6166POPC   C1B77119   4.029   9.865   6.279
 6166POPC   C2B77120   3.965   9.699   6.716
 6166POPC   C3B77121   3.749   9.826   7.098
 6166POPC   C4B77122   3.880   9.944   7.517
 6167POPC   NC377123   8.438  12.536   5.532
 6167POPC   PO477124   8.082  13.136   5.697
 6167POPC   GL177125   7.801  12.924   5.972
 6167POPC   GL277126   7.883  12.623   5.794
 6167POPC   C1A77127   7.912  12.900   6.422
 6167POPC   D2A77128   8.282  13.174   6.498
 6167POPC   C3A77129   8.423  13.121   6.903
 6167POPC   C4A77130   8.056  13.015   7.155
 6167POPC   C1B77131   8.175  12.568   6.151
 6167POPC   C2B77132   8.244  12.383   6.558
 6167POPC   C3B77133   8.315  12.576   6.951
 6167POPC   C4B77134   8.019  12.491   7.220
 6168POPC   NC377135  15.393  29.559   5.528
 6168POPC   PO477136  14.738  29.688   5.429
 6168POPC   GL177137  15.005  29.897   5.792
 6168POPC   GL277138  15.307  29.694   6.005
 6168POPC   C1A77139  15.038  30.030   6.238
 6168POPC   D2A77140  15.158  29.752   6.576
 6168POPC   C3A77141  15.083  29.966   6.946
 6168POPC   C4A77142  14.903  30.085   7.333
 6168POPC   C1B77143  15.566  29.943   6.299
 6168POPC   C2B77144  15.617  29.925   6.750
 6168POPC   C3B77145  15.521  30.211   7.078
 6168POPC   C4B77146  15.533  30.178   7.538
 6169POPC   NC377147  44.841  28.024   5.476
 6169POPC   PO477148  44.525  27.398   5.390
 6169POPC   GL177149  44.785  27.530   5.746
 6169POPC   GL277150  44.594  27.231   5.872
 6169POPC   C1A77151  44.902  27.812   6.135
 6169POPC   D2A77152  44.770  27.732   6.563
 6169POPC   C3A77153   0.009  27.714   6.930
 6169POPC   C4A77154  44.820  27.786   7.320
 6169POPC   C1B77155  44.759  27.308   6.224
 6169POPC   C2B77156  44.633  27.195   6.600
 6169POPC   C3B77157  44.556  27.428   6.952
 6169POPC   C4B77158  44.776  27.262   7.285
 6170POPC   NC377159   4.120  32.430   5.321
 6170POPC   PO477160   4.356  31.805   5.297
 6170POPC   GL177161   4.377  32.061   5.669
 6170POPC   GL277162   4.481  32.360   5.715
 6170POPC   C1A77163   4.293  31.978   6.126
 6170POPC   D2A77164   4.338  32.128   6.557
 6170POPC   C3A77165   4.194  32.036   6.974
 6170POPC   C4A77166   4.218  32.188   7.403
 6170POPC   C1B77167   4.609  32.378   6.168
 6170POPC   C2B77168   4.538  32.576   6.584
 6170POPC   C3B77169   4.547  32.425   6.993
 6170POPC   C4B77170   4.556  32.628   7.396
 6171POPC   NC377171  42.185  19.634   5.431
 6171POPC   PO477172  42.230  18.946   5.519
 6171POPC   GL177173  42.223  19.160   5.873
 6171POPC   GL277174  42.567  19.046   5.924
 6171POPC   C1A77175  42.209  19.064   6.296
 6171POPC   D2A77176  42.343  18.816   6.623
 6171POPC   C3A77177  42.226  19.046   6.982
 6171POPC   C4A77178  42.390  19.041   7.395
 6171POPC   C1B77179  42.634  18.681   6.206
 6171POPC   C2B77180  42.849  18.681   6.618
 6171POPC   C3B77181  42.676  18.752   7.040
 6171POPC   C4B77182  42.845  18.840   7.444
 6172POPC   NC377183  40.952  20.576   5.158
 6172POPC   PO477184  41.608  20.687   5.169
 6172POPC   GL177185  41.651  20.570   5.711
 6172POPC   GL277186  41.434  20.779   5.934
 6172POPC   C1A77187  41.685  20.325   6.075
 6172POPC   D2A77188  41.657  20.161   6.482
 6172POPC   C3A77189  41.503  20.403   6.824
 6172POPC   C4A77190  41.531  20.424   7.257
 6172POPC   C1B77191  41.391  20.636   6.359
 6172POPC   C2B77192  41.232  20.819   6.722
 6172POPC   C3B77193  41.215  20.865   7.140
 6172POPC   C4B77194  41.389  20.872   7.521
 6173POPC   NC377195   8.375  16.010   5.413
 6173POPC   PO477196   7.792  16.417   5.441
 6173POPC   GL177197   8.030  16.172   5.818
 6173POPC   GL277198   8.228  15.853   5.871
 6173POPC   C1A77199   8.087  16.073   6.290
 6173POPC   D2A77200   8.147  15.800   6.617
 6173POPC   C3A77201   8.217  16.015   6.987
 6173POPC   C4A77202   8.248  15.887   7.410
 6173POPC   C1B77203   8.494  15.758   6.186
 6173POPC   C2B77204   8.657  15.852   6.586
 6173POPC   C3B77205   8.531  15.602   6.915
 6173POPC   C4B77206   8.462  15.451   7.304
 6174POPC   NC377207  36.736   1.414   5.425
 6174POPC   PO477208  37.278   1.189   5.610
 6174POPC   GL177209  36.897   1.086   5.817
 6174POPC   GL277210  36.624   1.345   5.906
 6174POPC   C1A77211  36.763   0.919   6.189
 6174POPC   D2A77212  36.912   1.103   6.553
 6174POPC   C3A77213  36.618   1.130   6.868
 6174POPC   C4A77214  36.837   1.014   7.227
 6174POPC   C1B77215  36.993   1.444   6.164
 6174POPC   C2B77216  37.052   1.598   6.589
 6174POPC   C3B77217  37.012   1.450   7.019
 6174POPC   C4B77218  36.942   1.473   7.491
 6175POPC   NC377219   0.065  19.043   5.066
 6175POPC   PO477220   0.503  18.920   5.557
 6175POPC   GL177221   0.442  18.853   5.936
 6175POPC   GL277222   0.748  19.072   6.006
 6175POPC   C1A77223   0.258  18.662   6.295
 6175POPC   D2A77224   0.325  18.951   6.607
 6175POPC   C3A77225   0.205  19.032   7.030
 6175POPC   C4A77226   0.502  18.950   7.357
 6175POPC   C1B77227   0.798  18.685   6.240
 6175POPC   C2B77228   0.704  18.568   6.641
 6175POPC   C3B77229   0.736  18.924   6.904
 6175POPC   C4B77230   1.001  19.093   7.215
 6176POPC   NC377231   4.868   5.424   5.172
 6176POPC   PO477232   5.240   5.908   5.433
 6176POPC   GL177233   5.112   5.979   5.845
 6176POPC   GL277234   4.764   5.958   5.882
 6176POPC   C1A77235   5.215   5.987   6.288
 6176POPC   D2A77236   5.237   5.730   6.670
 6176POPC   C3A77237   5.217   6.008   7.035
 6176POPC   C4A77238   5.095   6.082   7.476
 6176POPC   C1B77239   4.729   5.795   6.306
 6176POPC   C2B77240   4.747   5.910   6.748
 6176POPC   C3B77241   4.796   5.747   7.177
 6176POPC   C4B77242   4.732   5.772   7.649
 6177POPC   NC377243   5.525   8.655   5.481
 6177POPC   PO477244   6.017   9.131   5.385
 6177POPC   GL177245   5.820   9.254   5.740
 6177POPC   GL277246   5.796   8.917   5.825
 6177POPC   C1A77247   5.944   9.251   6.184
 6177POPC   D2A77248   5.968   9.029   6.558
 6177POPC   C3A77249   6.159   9.098   6.931
 6177POPC   C4A77250   5.837   9.019   7.228
 6177POPC   C1B77251   5.944   8.686   6.156
 6177POPC   C2B77252   6.108   8.550   6.557
 6177POPC   C3B77253   5.893   8.609   6.923
 6177POPC   C4B77254   5.678   8.520   7.292
 6178POPC   NC377255  18.303  40.876   5.426
 6178POPC   PO477256  18.780  40.333   5.397
 6178POPC   GL177257  18.630  40.618   5.732
 6178POPC   GL277258  18.288  40.545   5.808
 6178POPC   C1A77259  18.549  40.890   6.118
 6178POPC   D2A77260  18.329  41.033   6.512
 6178POPC   C3A77261  18.438  40.919   6.905
 6178POPC   C4A77262  18.588  40.712   7.262
 6178POPC   C1B77263  18.061  40.744   6.154
 6178POPC   C2B77264  17.918  40.706   6.585
 6178POPC   C3B77265  17.930  40.924   6.969
 6178POPC   C4B77266  18.094  40.797   7.319
 6179POPC   NC377267  35.126  21.679   5.512
 6179POPC   PO477268  35.515  21.129   5.310
 6179POPC   GL177269  35.362  21.246   5.705
 6179POPC   GL277270  35.531  21.548   5.829
 6179POPC   C1A77271  35.354  21.157   6.135
 6179POPC   D2A77272  35.456  21.386   6.490
 6179POPC   C3A77273  35.243  21.256   6.830
 6179POPC   C4A77274  35.397  21.134   7.215
 6179POPC   C1B77275  35.162  21.642   6.140
 6179POPC   C2B77276  35.067  21.776   6.549
 6179POPC   C3B77277  35.334  21.784   6.878
 6179POPC   C4B77278  35.142  21.582   7.234
 6180POPC   NC377279  37.073   5.255   5.400
 6180POPC   PO477280  36.860   4.619   5.348
 6180POPC   GL177281  36.991   4.869   5.721
 6180POPC   GL277282  36.739   5.160   5.798
 6180POPC   C1A77283  37.082   4.967   6.155
 6180POPC   D2A77284  37.059   5.171   6.580
 6180POPC   C3A77285  37.075   4.982   6.988
 6180POPC   C4A77286  37.129   5.036   7.466
 6180POPC   C1B77287  36.691   5.322   6.237
 6180POPC   C2B77288  36.697   5.503   6.692
 6180POPC   C3B77289  36.666   5.299   7.079
 6180POPC   C4B77290  36.620   4.902   7.230
 6181POPC   NC377291  26.147  14.089   5.342
 6181POPC   PO477292  25.983  14.728   5.319
 6181POPC   GL177293  25.919  14.426   5.694
 6181POPC   GL277294  26.197  14.165   5.849
 6181POPC   C1A77295  25.953  14.515   6.151
 6181POPC   D2A77296  26.106  14.300   6.492
 6181POPC   C3A77297  25.935  14.328   6.859
 6181POPC   C4A77298  25.950  14.641   7.083
 6181POPC   C1B77299  26.413  13.983   6.249
 6181POPC   C2B77300  26.499  13.989   6.730
 6181POPC   C3B77301  26.507  14.123   7.173
 6181POPC   C4B77302  26.229  14.214   7.524
 6182POPC   NC377303  42.823  20.657   5.370
 6182POPC   PO477304  43.351  20.849   5.678
 6182POPC   GL177305  43.053  20.663   5.914
 6182POPC   GL277306  42.882  20.359   5.774
 6182POPC   C1A77307  43.163  20.658   6.353
 6182POPC   D2A77308  43.419  20.838   6.666
 6182POPC   C3A77309  43.225  20.883   7.086
 6182POPC   C4A77310  43.390  21.153   7.396
 6182POPC   C1B77311  43.115  20.214   6.129
 6182POPC   C2B77312  42.977  20.179   6.544
 6182POPC   C3B77313  43.016  20.448   6.881
 6182POPC   C4B77314  43.145  20.357   7.303
 6183POPC   NC377315  11.402  42.619   5.508
 6183POPC   PO477316  11.093  42.029   5.661
 6183POPC   GL177317  11.433  42.226   5.848
 6183POPC   GL277318  11.227  42.485   5.977
 6183POPC   C1A77319  11.523  42.136   6.240
 6183POPC   D2A77320  11.184  42.266   6.496
 6183POPC   C3A77321  11.327  42.264   6.879
 6183POPC   C4A77322  11.413  42.206   7.283
 6183POPC   C1B77323  11.463  42.663   6.269
 6183POPC   C2B77324  11.349  42.741   6.677
 6183POPC   C3B77325  11.520  42.712   7.092
 6183POPC   C4B77326  11.529  42.642   7.523
 6184POPC   NC377327  43.769  14.194   5.397
 6184POPC   PO477328  43.966  14.861   5.409
 6184POPC   GL177329  43.782  14.588   5.768
 6184POPC   GL277330  44.048  14.574   6.048
 6184POPC   C1A77331  43.597  14.417   6.182
 6184POPC   D2A77332  43.814  14.539   6.587
 6184POPC   C3A77333  43.655  14.608   7.021
 6184POPC   C4A77334  43.569  14.217   7.210
 6184POPC   C1B77335  44.133  14.143   6.203
 6184POPC   C2B77336  44.253  13.912   6.580
 6184POPC   C3B77337  44.386  14.031   6.978
 6184POPC   C4B77338  44.101  14.357   7.139
 6185POPC   NC377339  10.127   7.837   5.497
 6185POPC   PO477340  10.728   8.246   5.348
 6185POPC   GL177341  10.466   8.276   5.746
 6185POPC   GL277342  10.431   7.975   5.889
 6185POPC   C1A77343  10.277   8.302   6.215
 6185POPC   D2A77344  10.477   8.367   6.589
 6185POPC   C3A77345  10.241   8.365   6.956
 6185POPC   C4A77346  10.463   8.399   7.309
 6185POPC   C1B77347  10.770   8.168   6.201
 6185POPC   C2B77348  10.897   8.063   6.625
 6185POPC   C3B77349  10.881   8.228   7.047
 6185POPC   C4B77350  10.899   8.165   7.525
 6186POPC   NC377351  24.239  42.137   5.342
 6186POPC   PO477352  24.856  42.435   5.384
 6186POPC   GL177353  24.527  42.362   5.705
 6186POPC   GL277354  24.619  42.000   5.679
 6186POPC   C1A77355  24.398  42.507   6.138
 6186POPC   D2A77356  24.225  42.693   6.530
 6186POPC   C3A77357  24.309  42.503   6.907
 6186POPC   C4A77358  24.280  42.756   7.279
 6186POPC   C1B77359  24.505  41.999   6.105
 6186POPC   C2B77360  24.680  42.163   6.465
 6186POPC   C3B77361  24.567  42.015   6.857
 6186POPC   C4B77362  24.501  42.152   7.239
 6187POPC   NC377363  23.613  27.509   5.390
 6187POPC   PO477364  23.971  27.902   5.600
 6187POPC   GL177365  23.657  27.827   5.825
 6187POPC   GL277366  23.713  27.493   5.914
 6187POPC   C1A77367  23.534  27.864   6.229
 6187POPC   D2A77368  23.566  27.613   6.583
 6187POPC   C3A77369  23.843  27.697   6.909
 6187POPC   C4A77370  23.610  27.687   7.276
 6187POPC   C1B77371  23.745  27.233   6.289
 6187POPC   C2B77372  23.469  27.113   6.669
 6187POPC   C3B77373  23.530  27.185   7.137
 6187POPC   C4B77374  23.471  27.094   7.595
 6188POPC   NC377375  15.786  17.289   5.249
 6188POPC   PO477376  16.227  17.669   5.584
 6188POPC   GL177377  16.135  17.516   5.923
 6188POPC   GL277378  16.335  17.235   5.910
 6188POPC   C1A77379  15.979  17.685   6.290
 6188POPC   D2A77380  15.748  17.508   6.605
 6188POPC   C3A77381  15.961  17.512   7.029
 6188POPC   C4A77382  15.737  17.463   7.414
 6188POPC   C1B77383  16.432  17.377   6.308
 6188POPC   C2B77384  16.200  17.288   6.620
 6188POPC   C3B77385  16.197  17.027   6.952
 6188POPC   C4B77386  16.311  17.224   7.317
 6189POPC   NC377387  16.208  42.903   5.464
 6189POPC   PO477388  15.714  43.413   5.457
 6189POPC   GL177389  15.856  43.228   5.837
 6189POPC   GL277390  16.214  43.195   5.906
 6189POPC   C1A77391  15.866  43.314   6.285
 6189POPC   D2A77392  16.225  43.282   6.530
 6189POPC   C3A77393  16.078  43.252   6.938
 6189POPC   C4A77394  15.844  43.207   7.317
 6189POPC   C1B77395  16.073  42.870   6.207
 6189POPC   C2B77396  15.911  42.865   6.622
 6189POPC   C3B77397  15.898  42.771   7.061
 6189POPC   C4B77398  16.116  42.789   7.446
 6190POPC   NC377399  20.345  32.837   5.329
 6190POPC   PO477400  20.978  32.916   5.321
 6190POPC   GL177401  20.785  32.999   5.711
 6190POPC   GL277402  20.606  32.703   5.774
 6190POPC   C1A77403  20.672  33.046   6.163
 6190POPC   D2A77404  20.924  32.939   6.551
 6190POPC   C3A77405  20.940  33.218   6.901
 6190POPC   C4A77406  20.801  33.096   7.331
 6190POPC   C1B77407  20.326  32.667   6.141
 6190POPC   C2B77408  20.383  32.860   6.547
 6190POPC   C3B77409  20.460  33.034   6.936
 6190POPC   C4B77410  20.355  32.845   7.316
 6191POPC   NC377411   9.266   7.574   5.501
 6191POPC   PO477412   9.147   6.983   5.198
 6191POPC   GL177413   8.982   7.177   5.665
 6191POPC   GL277414   8.808   7.502   5.793
 6191POPC   C1A77415   9.144   7.275   6.136
 6191POPC   D2A77416   8.997   7.437   6.558
 6191POPC   C3A77417   9.191   7.220   6.935
 6191POPC   C4A77418   9.171   7.259   7.411
 6191POPC   C1B77419   9.032   7.779   6.136
 6191POPC   C2B77420   9.249   7.889   6.545
 6191POPC   C3B77421   9.153   7.729   6.961
 6191POPC   C4B77422   8.805   7.503   7.162
 6192POPC   NC377423   7.695  25.937   5.073
 6192POPC   PO477424   7.415  25.672   5.608
 6192POPC   GL177425   7.508  25.880   5.969
 6192POPC   GL277426   7.215  26.089   6.014
 6192POPC   C1A77427   7.562  25.986   6.399
 6192POPC   D2A77428   7.305  26.064   6.759
 6192POPC   C3A77429   7.445  25.806   7.086
 6192POPC   C4A77430   7.670  25.842   7.442
 6192POPC   C1B77431   6.930  26.042   6.388
 6192POPC   C2B77432   6.782  26.137   6.783
 6192POPC   C3B77433   7.004  26.408   7.034
 6192POPC   C4B77434   7.387  26.301   7.253
 6193POPC   NC377435  17.685  39.896   5.409
 6193POPC   PO477436  17.097  40.220   5.418
 6193POPC   GL177437  17.372  40.146   5.787
 6193POPC   GL277438  17.334  39.805   5.800
 6193POPC   C1A77439  17.281  40.067   6.252
 6193POPC   D2A77440  17.419  40.250   6.666
 6193POPC   C3A77441  17.383  39.986   7.017
 6193POPC   C4A77442  16.996  39.996   7.204
 6193POPC   C1B77443  17.724  39.845   6.046
 6193POPC   C2B77444  17.777  39.929   6.473
 6193POPC   C3B77445  17.875  39.941   6.907
 6193POPC   C4B77446  17.820  39.753   7.313
 6194POPC   NC377447  19.692  25.951   5.012
 6194POPC   PO477448  20.065  26.341   5.343
 6194POPC   GL177449  20.112  26.229   5.800
 6194POPC   GL277450  19.846  25.996   5.862
 6194POPC   C1A77451  20.197  26.010   6.248
 6194POPC   D2A77452  19.951  25.891   6.646
 6194POPC   C3A77453  20.039  25.942   7.107
 6194POPC   C4A77454  19.800  25.949   7.506
 6194POPC   C1B77455  19.701  26.197   6.267
 6194POPC   C2B77456  19.483  26.208   6.674
 6194POPC   C3B77457  19.578  26.208   7.105
 6194POPC   C4B77458  19.325  26.257   7.489
 6195POPC   NC377459  11.796  38.466   5.445
 6195POPC   PO477460  12.316  38.853   5.227
 6195POPC   GL177461  12.206  38.628   5.699
 6195POPC   GL277462  11.882  38.664   5.905
 6195POPC   C1A77463  12.286  38.453   6.154
 6195POPC   D2A77464  12.051  38.335   6.542
 6195POPC   C3A77465  12.173  38.625   6.887
 6195POPC   C4A77466  12.103  38.639   7.342
 6195POPC   C1B77467  11.887  38.781   6.336
 6195POPC   C2B77468  11.620  38.679   6.676
 6195POPC   C3B77469  11.628  38.574   7.122
 6195POPC   C4B77470  11.576  38.719   7.541
 6196POPC   NC377471  38.803  34.575   5.253
 6196POPC   PO477472  38.123  34.843   5.431
 6196POPC   GL177473  38.341  34.581   5.758
 6196POPC   GL277474  38.722  34.587   5.743
 6196POPC   C1A77475  38.329  34.374   6.181
 6196POPC   D2A77476  38.474  34.155   6.555
 6196POPC   C3A77477  38.520  34.353   6.940
 6196POPC   C4A77478  38.251  34.398   7.277
 6196POPC   C1B77479  38.827  34.515   6.142
 6196POPC   C2B77480  38.642  34.661   6.506
 6196POPC   C3B77481  38.515  34.859   6.869
 6196POPC   C4B77482  38.466  34.874   7.284
 6197POPC   NC377483  25.582   5.448   5.456
 6197POPC   PO477484  25.233   4.894   5.446
 6197POPC   GL177485  25.357   5.015   5.850
 6197POPC   GL277486  25.295   5.376   5.903
 6197POPC   C1A77487  25.326   4.949   6.301
 6197POPC   D2A77488  25.413   5.251   6.622
 6197POPC   C3A77489  25.568   5.094   6.999
 6197POPC   C4A77490  25.455   5.148   7.441
 6197POPC   C1B77491  25.007   5.366   6.271
 6197POPC   C2B77492  24.938   5.175   6.730
 6197POPC   C3B77493  25.091   4.970   7.085
 6197POPC   C4B77494  24.885   4.882   7.471
 6198POPC   NC377495  33.122  32.770   5.405
 6198POPC   PO477496  33.514  33.355   5.457
 6198POPC   GL177497  33.103  33.237   5.766
 6198POPC   GL277498  32.943  32.936   5.841
 6198POPC   C1A77499  32.984  33.200   6.248
 6198POPC   D2A77500  33.076  32.996   6.610
 6198POPC   C3A77501  32.899  33.195   6.919
 6198POPC   C4A77502  32.704  33.183   7.352
 6198POPC   C1B77503  33.213  32.724   6.127
 6198POPC   C2B77504  33.413  32.640   6.500
 6198POPC   C3B77505  33.269  32.604   6.930
 6198POPC   C4B77506  33.093  32.873   7.262
 6199POPC   NC377507  20.706  43.748   5.402
 6199POPC   PO477508  21.003  44.373   5.614
 6199POPC   GL177509  20.688  44.057   5.853
 6199POPC   GL277510  20.432  43.762   5.823
 6199POPC   C1A77511  20.728  43.828   6.255
 6199POPC   D2A77512  20.624  43.969   6.680
 6199POPC   C3A77513  20.868  43.816   7.017
 6199POPC   C4A77514  20.823  43.660   7.416
 6199POPC   C1B77515  20.228  43.740   6.215
 6199POPC   C2B77516  20.256  43.615   6.636
 6199POPC   C3B77517  20.298  43.803   7.049
 6199POPC   C4B77518  20.327  43.605   7.426
 6200POPC   NC377519  19.801  31.175   5.294
 6200POPC   PO477520  19.818  31.780   5.462
 6200POPC   GL177521  19.937  31.474   5.744
 6200POPC   GL277522  19.617  31.482   5.918
 6200POPC   C1A77523  20.056  31.424   6.189
 6200POPC   D2A77524  19.882  31.501   6.608
 6200POPC   C3A77525  20.142  31.415   6.984
 6200POPC   C4A77526  20.165  31.173   7.393
 6200POPC   C1B77527  19.752  31.851   6.193
 6200POPC   C2B77528  19.952  32.005   6.608
 6200POPC   C3B77529  19.854  31.839   7.018
 6200POPC   C4B77530  19.818  31.580   7.380
 6201POPC   NC377531  16.047  28.843   5.501
 6201POPC   PO477532  15.783  29.416   5.306
 6201POPC   GL177533  16.003  29.348   5.726
 6201POPC   GL277534  15.683  29.312   5.883
 6201POPC   C1A77535  16.096  29.247   6.205
 6201POPC   D2A77536  16.226  29.317   6.645
 6201POPC   C3A77537  16.143  29.044   7.018
 6201POPC   C4A77538  16.166  29.130   7.482
 6201POPC   C1B77539  15.631  29.438   6.324
 6201POPC   C2B77540  15.718  29.303   6.750
 6201POPC   C3B77541  15.702  29.217   7.199
 6201POPC   C4B77542  15.728  28.821   7.447
 6202POPC   NC377543  40.592  39.085   5.429
 6202POPC   PO477544  41.218  39.358   5.399
 6202POPC   GL177545  41.025  39.224   5.794
 6202POPC   GL277546  40.730  39.437   5.769
 6202POPC   C1A77547  40.801  39.140   6.214
 6202POPC   D2A77548  40.593  38.936   6.575
 6202POPC   C3A77549  40.655  39.153   6.937
 6202POPC   C4A77550  40.830  39.156   7.356
 6202POPC   C1B77551  40.483  39.530   6.100
 6202POPC   C2B77552  40.405  39.425   6.509
 6202POPC   C3B77553  40.475  39.632   6.851
 6202POPC   C4B77554  40.385  39.502   7.205
 6203POPC   NC377555  11.796  18.481   5.609
 6203POPC   PO477556  12.436  18.199   5.484
 6203POPC   GL177557  12.258  18.041   5.861
 6203POPC   GL277558  11.893  17.960   5.795
 6203POPC   C1A77559  12.281  18.276   6.230
 6203POPC   D2A77560  12.044  18.469   6.554
 6203POPC   C3A77561  12.324  18.408   6.859
 6203POPC   C4A77562  12.323  18.232   7.224
 6203POPC   C1B77563  11.787  18.186   6.174
 6203POPC   C2B77564  11.699  18.066   6.573
 6203POPC   C3B77565  11.886  18.126   6.943
 6203POPC   C4B77566  11.739  18.155   7.336
 6204POPC   NC377567  43.633  33.427   5.359
 6204POPC   PO477568  43.369  33.974   5.385
 6204POPC   GL177569  43.106  33.936   5.752
 6204POPC   GL277570  42.917  33.681   5.908
 6204POPC   C1A77571  43.262  33.956   6.179
 6204POPC   D2A77572  43.465  33.793   6.534
 6204POPC   C3A77573  43.402  33.943   6.949
 6204POPC   C4A77574  43.211  33.700   7.268
 6204POPC   C1B77575  43.090  33.482   6.245
 6204POPC   C2B77576  42.986  33.300   6.591
 6204POPC   C3B77577  42.911  33.387   6.977
 6204POPC   C4B77578  42.931  33.252   7.373
 6205POPC   NC377579  16.110  22.486   5.528
 6205POPC   PO477580  15.785  23.008   5.459
 6205POPC   GL177581  15.943  22.837   5.856
 6205POPC   GL277582  16.308  22.884   5.799
 6205POPC   C1A77583  15.806  22.764   6.288
 6205POPC   D2A77584  15.608  22.903   6.677
 6205POPC   C3A77585  15.891  22.763   6.967
 6205POPC   C4A77586  16.018  22.831   7.368
 6205POPC   C1B77587  16.299  22.919   6.246
 6205POPC   C2B77588  16.138  23.052   6.640
 6205POPC   C3B77589  16.329  23.089   7.051
 6205POPC   C4B77590  16.628  23.071   7.394
 6206POPC   NC377591  10.719  39.623   5.529
 6206POPC   PO477592  10.241  40.062   5.460
 6206POPC   GL177593  10.477  40.143   5.840
 6206POPC   GL277594  10.674  40.467   5.841
 6206POPC   C1A77595  10.588  39.901   6.234
 6206POPC   D2A77596  10.762  39.851   6.661
 6206POPC   C3A77597  10.503  39.784   7.029
 6206POPC   C4A77598  10.702  39.639   7.403
 6206POPC   C1B77599  10.607  40.425   6.279
 6206POPC   C2B77600  10.868  40.390   6.636
 6206POPC   C3B77601  10.719  40.263   7.005
 6206POPC   C4B77602  10.312  40.361   7.130
 6207POPC   NC377603   3.463   0.116   5.366
 6207POPC   PO477604   3.410   0.728   5.133
 6207POPC   GL177605   3.653   0.517   5.593
 6207POPC   GL277606   3.350   0.408   5.801
 6207POPC   C1A77607   3.758   0.489   6.088
 6207POPC   D2A77608   3.614   0.286   6.509
 6207POPC   C3A77609   3.606   0.450   6.939
 6207POPC   C4A77610   3.625   0.321   7.379
 6207POPC   C1B77611   3.255   0.574   6.253
 6207POPC   C2B77612   3.144   0.477   6.699
 6207POPC   C3B77613   3.142   0.488   7.154
 6207POPC   C4B77614   3.317   0.718   7.494
 6208POPC   NC377615   9.300  26.513   5.473
 6208POPC   PO477616   8.726  26.184   5.439
 6208POPC   GL177617   8.950  26.236   5.847
 6208POPC   GL277618   9.301  26.102   5.803
 6208POPC   C1A77619   8.955  26.030   6.293
 6208POPC   D2A77620   8.754  25.898   6.704
 6208POPC   C3A77621   8.849  26.216   7.037
 6208POPC   C4A77622   9.058  26.211   7.454
 6208POPC   C1B77623   9.368  26.377   6.145
 6208POPC   C2B77624   9.431  26.386   6.570
 6208POPC   C3B77625   9.243  26.040   6.760
 6208POPC   C4B77626   9.249  25.815   7.134
 6209POPC   NC377627  44.274  31.930   5.432
 6209POPC   PO477628  44.684  32.457   5.439
 6209POPC   GL177629  44.847  32.189   5.801
 6209POPC   GL277630  44.910  31.873   5.628
 6209POPC   C1A77631  44.968  32.216   6.260
 6209POPC   D2A77632  44.729  32.134   6.654
 6209POPC   C3A77633  44.761  32.394   7.050
 6209POPC   C4A77634  44.797  32.234   7.497
 6209POPC   C1B77635   0.043  31.754   6.048
 6209POPC   C2B77636   0.122  31.759   6.490
 6209POPC   C3B77637  44.924  31.733   6.923
 6209POPC   C4B77638  44.592  31.919   7.150
 6210POPC   NC377639  25.755  30.115   5.279
 6210POPC   PO477640  26.402  29.780   5.423
 6210POPC   GL177641  26.123  30.074   5.710
 6210POPC   GL277642  25.755  30.025   5.777
 6210POPC   C1A77643  26.083  30.116   6.192
 6210POPC   D2A77644  26.030  29.816   6.551
 6210POPC   C3A77645  26.163  29.865   6.986
 6210POPC   C4A77646  26.301  29.865   7.414
 6210POPC   C1B77647  25.566  29.856   6.151
 6210POPC   C2B77648  25.542  29.636   6.520
 6210POPC   C3B77649  25.683  29.722   6.906
 6210POPC   C4B77650  25.722  30.105   7.173
 6211POPC   NC377651  26.983  37.833   5.343
 6211POPC   PO477652  26.353  37.681   5.417
 6211POPC   GL177653  26.627  37.727   5.732
 6211POPC   GL277654  26.712  38.058   5.764
 6211POPC   C1A77655  26.708  37.597   6.146
 6211POPC   D2A77656  26.882  37.604   6.533
 6211POPC   C3A77657  26.627  37.760   6.835
 6211POPC   C4A77658  26.706  37.719   7.252
 6211POPC   C1B77659  26.790  38.109   6.186
 6211POPC   C2B77660  27.002  38.094   6.567
 6211POPC   C3B77661  27.037  38.019   7.005
 6211POPC   C4B77662  26.936  38.114   7.462
 6212POPC   NC377663  42.360   6.915   5.506
 6212POPC   PO477664  41.938   6.449   5.448
 6212POPC   GL177665  42.212   6.527   5.834
 6212POPC   GL277666  42.610   6.544   5.935
 6212POPC   C1A77667  42.271   6.725   6.245
 6212POPC   D2A77668  42.393   6.875   6.643
 6212POPC   C3A77669  42.128   6.650   6.953
 6212POPC   C4A77670  41.907   6.769   7.297
 6212POPC   C1B77671  42.705   6.495   6.427
 6212POPC   C2B77672  42.610   6.497   6.901
 6212POPC   C3B77673  42.450   6.571   7.339
 6212POPC   C4B77674  42.668   6.679   7.742
 6213POPC   NC377675  43.088  35.287   5.385
 6213POPC   PO477676  43.052  35.958   5.434
 6213POPC   GL177677  42.966  35.671   5.742
 6213POPC   GL277678  43.316  35.582   5.768
 6213POPC   C1A77679  42.989  35.522   6.168
 6213POPC   D2A77680  42.887  35.243   6.477
 6213POPC   C3A77681  43.007  35.462   6.832
 6213POPC   C4A77682  43.001  35.275   7.236
 6213POPC   C1B77683  43.444  35.301   6.106
 6213POPC   C2B77684  43.397  35.227   6.555
 6213POPC   C3B77685  43.446  35.151   6.994
 6213POPC   C4B77686  43.487  35.106   7.431
 6214POPC   NC377687  11.072  14.241   5.401
 6214POPC   PO477688  11.722  14.329   5.616
 6214POPC   GL177689  11.366  14.578   5.808
 6214POPC   GL277690  10.980  14.675   5.718
 6214POPC   C1A77691  11.540  14.724   6.225
 6214POPC   D2A77692  11.746  14.448   6.539
 6214POPC   C3A77693  11.558  14.348   6.894
 6214POPC   C4A77694  11.632  14.483   7.263
 6214POPC   C1B77695  11.031  14.686   6.160
 6214POPC   C2B77696  11.190  14.457   6.536
 6214POPC   C3B77697  11.087  14.594   6.964
 6214POPC   C4B77698  11.191  14.711   7.384
 6215POPC   NC377699  18.955  34.388   5.341
 6215POPC   PO477700  18.364  34.825   5.352
 6215POPC   GL177701  18.456  34.633   5.753
 6215POPC   GL277702  18.128  34.667   5.832
 6215POPC   C1A77703  18.504  34.764   6.211
 6215POPC   D2A77704  18.504  34.450   6.558
 6215POPC   C3A77705  18.405  34.496   6.990
 6215POPC   C4A77706  18.512  34.220   7.291
 6215POPC   C1B77707  18.094  34.474   6.230
 6215POPC   C2B77708  17.994  34.525   6.675
 6215POPC   C3B77709  17.883  34.565   7.125
 6215POPC   C4B77710  17.821  34.876   7.501
 6216POPC   NC377711  15.488  39.222   5.504
 6216POPC   PO477712  15.345  38.633   5.322
 6216POPC   GL177713  15.315  38.819   5.772
 6216POPC   GL277714  14.962  38.829   5.853
 6216POPC   C1A77715  15.303  39.103   6.189
 6216POPC   D2A77716  15.316  39.398   6.581
 6216POPC   C3A77717  15.450  39.287   6.985
 6216POPC   C4A77718  15.194  38.958   7.138
 6216POPC   C1B77719  14.813  38.998   6.265
 6216POPC   C2B77720  14.821  39.208   6.670
 6216POPC   C3B77721  14.889  39.363   7.093
 6216POPC   C4B77722  14.903  39.565   7.497
 6217POPC   NC377723  25.610  38.596   5.428
 6217POPC   PO477724  24.939  38.290   5.421
 6217POPC   GL177725  25.197  38.442   5.742
 6217POPC   GL277726  25.497  38.299   5.828
 6217POPC   C1A77727  25.153  38.572   6.142
 6217POPC   D2A77728  25.202  38.452   6.572
 6217POPC   C3A77729  25.294  38.789   6.848
 6217POPC   C4A77730  25.343  38.673   7.271
 6217POPC   C1B77731  25.364  38.096   6.203
 6217POPC   C2B77732  25.565  38.077   6.617
 6217POPC   C3B77733  25.401  38.094   7.014
 6217POPC   C4B77734  25.549  38.213   7.408
 6218POPC   NC377735  29.010  16.239   5.302
 6218POPC   PO477736  29.360  15.679   5.508
 6218POPC   GL177737  29.255  16.010   5.798
 6218POPC   GL277738  29.445  16.330   5.755
 6218POPC   C1A77739  29.038  15.968   6.203
 6218POPC   D2A77740  28.979  15.642   6.522
 6218POPC   C3A77741  29.139  15.696   6.932
 6218POPC   C4A77742  28.931  15.611   7.276
 6218POPC   C1B77743  29.493  16.244   6.222
 6218POPC   C2B77744  29.328  16.089   6.635
 6218POPC   C3B77745  29.167  16.198   7.066
 6218POPC   C4B77746  29.367  16.162   7.483
 6219POPC   NC377747   0.727  18.492   5.575
 6219POPC   PO477748   0.267  18.331   5.119
 6219POPC   GL177749   0.276  18.235   5.626
 6219POPC   GL277750   0.037  18.000   5.792
 6219POPC   C1A77751   0.461  18.185   6.108
 6219POPC   D2A77752   0.572  17.938   6.520
 6219POPC   C3A77753   0.621  18.156   6.937
 6219POPC   C4A77754   0.384  18.544   7.062
 6219POPC   C1B77755  44.969  18.179   6.235
 6219POPC   C2B77756   0.178  18.271   6.639
 6219POPC   C3B77757   0.118  18.111   7.065
 6219POPC   C4B77758   0.141  18.345   7.489
 6220POPC   NC377759  37.287  13.215   5.468
 6220POPC   PO477760  37.896  12.874   5.319
 6220POPC   GL177761  37.656  12.899   5.752
 6220POPC   GL277762  37.359  12.678   5.854
 6220POPC   C1A77763  37.827  12.880   6.196
 6220POPC   D2A77764  38.053  13.044   6.569
 6220POPC   C3A77765  37.997  12.801   6.965
 6220POPC   C4A77766  37.950  12.837   7.412
 6220POPC   C1B77767  37.526  12.468   6.234
 6220POPC   C2B77768  37.763  12.490   6.606
 6220POPC   C3B77769  37.600  12.466   7.015
 6220POPC   C4B77770  37.307  12.690   7.262
 6221POPC   NC377771   9.835  42.605   5.390
 6221POPC   PO477772   9.438  42.115   5.768
 6221POPC   GL177773   9.776  42.325   5.838
 6221POPC   GL277774   9.528  42.651   5.783
 6221POPC   C1A77775   9.867  42.178   6.288
 6221POPC   D2A77776   9.642  42.067   6.690
 6221POPC   C3A77777   9.821  42.188   7.065
 6221POPC   C4A77778  10.024  42.635   7.175
 6221POPC   C1B77779   9.684  42.658   6.187
 6221POPC   C2B77780   9.528  42.560   6.520
 6221POPC   C3B77781   9.584  42.593   6.896
 6221POPC   C4B77782   9.337  42.404   7.179
 6222POPC   NC377783  42.129  32.955   5.440
 6222POPC   PO477784  42.777  33.211   5.570
 6222POPC   GL177785  42.406  33.240   5.798
 6222POPC   GL277786  42.370  32.888   5.895
 6222POPC   C1A77787  42.264  33.273   6.227
 6222POPC   D2A77788  42.464  33.161   6.641
 6222POPC   C3A77789  42.402  33.352   7.067
 6222POPC   C4A77790  42.421  33.289   7.518
 6222POPC   C1B77791  42.698  32.917   6.221
 6222POPC   C2B77792  42.905  32.806   6.616
 6222POPC   C3B77793  42.715  32.916   7.019
 6222POPC   C4B77794  42.309  32.839   7.143
 6223POPC   NC377795  32.729  37.765   5.495
 6223POPC   PO477796  32.185  37.408   5.311
 6223POPC   GL177797  32.252  37.593   5.750
 6223POPC   GL277798  32.080  37.305   5.914
 6223POPC   C1A77799  32.309  37.893   6.150
 6223POPC   D2A77800  32.097  37.892   6.604
 6223POPC   C3A77801  32.137  37.713   7.046
 6223POPC   C4A77802  32.370  37.360   7.246
 6223POPC   C1B77803  32.293  37.402   6.291
 6223POPC   C2B77804  32.298  37.345   6.723
 6223POPC   C3B77805  31.959  37.197   6.983
 6223POPC   C4B77806  31.928  37.200   7.432
 6224W        W77807  19.226  15.533   4.277
 6225W        W77808  23.511  21.450   0.862
 6226W        W77809  30.855  18.653   5.192
 6227W        W77810  12.154  26.992  12.013
 6228W        W77811   6.800  18.263   3.222
 6229W        W77812  24.639  38.941  11.964
 6230W        W77813  22.512  36.269  13.388
 6231W        W77814  21.150   2.427   0.401
 6232W        W77815  38.220  34.303   2.394
 6233W        W77816   5.644  23.617  13.432
 6234W        W77817  42.034   1.336   0.394
 6235W        W77818  21.551  20.772  12.066
 6236W        W77819  19.857  36.470   2.665
 6237W        W77820   3.534  15.231  12.757
 6238W        W77821  16.512   1.397  10.972
 6239W        W77822  44.500   9.612  13.104
 6240W        W77823  16.170   1.928   0.829
 6241W        W77824  42.596  12.188   3.755
 6242W        W77825  39.776  34.111   2.054
 6243W        W77826  29.631  30.697   2.931
 6244W        W77827  39.495  18.783  13.044
 6245W        W77828  34.304  22.156  11.315
 6246W        W77829  33.984   2.445   2.834
 6247W        W77830  17.601   8.487  10.784
 6248W        W77831   7.439  23.166   2.721
 6249W        W77832  43.199  42.622   0.654
 6250W        W77833  43.271  41.906   1.306
 6251W        W77834  18.761  38.442  14.173
 6252W        W77835  31.712  20.330   4.688
 6253W        W77836  42.109  27.178  12.579
 6254W        W77837  36.840   7.615  13.270
 6255W        W77838  12.618   7.483   0.323
 6256W        W77839  19.047  13.138   0.764
 6257W        W77840  23.143  38.959  14.051
 6258W        W77841  10.328  28.706   2.698
 6259W        W77842  24.192  43.293   4.047
 6260W        W77843  32.921   3.273  12.031
 6261W        W77844   1.266  22.069  11.466
 6262W        W77845   1.471   4.671   0.049
 6263W        W77846  22.540  16.747   2.772
 6264W        W77847  38.512  44.408   4.177
 6265W        W77848   1.403   9.804   3.276
 6266W        W77849  19.693  29.089   3.577
 6267W        W77850  24.951  18.144  13.442
 6268W        W77851  34.424  25.006  12.822
 6269W        W77852   5.753   3.856   2.015
 6270W        W77853   6.392   5.914   5.079
 6271W        W77854   8.121  32.442   3.099
 6272W        W77855   4.908  18.458  11.258
 6273W        W77856  35.501  13.339  13.531
 6274W        W77857  20.597  20.314  11.223
 6275W        W77858  32.520  17.741  13.180
 6276W        W77859  14.652  33.445  13.383
 6277W        W77860  40.363   6.321  14.997
 6278W        W77861  19.870  27.244  14.232
 6279W        W77862  30.938  29.164   0.946
 6280W        W77863   7.612   8.200   0.879
 6281W        W77864  33.997  30.931  11.876
 6282W        W77865  19.506  19.736  10.228
 6283W        W77866  18.178  39.864   1.501
 6284W        W77867  16.924  23.770  13.935
 6285W        W77868  29.597  37.393   4.574
 6286W        W77869  32.041  16.563  11.449
 6287W        W77870  44.340  44.047   1.805
 6288W        W77871   3.308  21.009   3.356
 6289W        W77872  25.583  30.883   4.885
 6290W        W77873  42.524  39.309  11.552
 6291W        W77874  27.346  12.269   5.463
 6292W        W77875  12.072  39.238  12.278
 6293W        W77876  17.571   6.627  14.958
 6294W        W77877   7.363   4.888   0.328
 6295W        W77878  14.966  34.081   3.155
 6296W        W77879   4.664  25.999  12.436
 6297W        W77880   2.293  36.561   5.020
 6298W        W77881  39.891  36.177  11.876
 6299W        W77882   0.504  32.538   0.806
 6300W        W77883  35.577   2.635   2.545
 6301W        W77884  10.609   7.235   3.371
 6302W        W77885   4.905   8.715   3.840
 6303W        W77886  27.190   7.417  13.926
 6304W        W77887  41.849  38.591  14.072
 6305W        W77888  17.362  11.950  12.274
 6306W        W77889   0.015  39.375  12.387
 6307W        W77890   4.023  28.202  10.272
 6308W        W77891   3.215  29.093  11.003
 6309W        W77892  31.971  33.874   1.391
 6310W        W77893  11.655  14.755   1.367
 6311W        W77894  18.943  15.821  11.280
 6312W        W77895   1.892  19.178  14.388
 6313W        W77896  28.185  12.503   1.177
 6314W        W77897  22.250  21.010  11.417
 6315W        W77898  38.019  43.814  13.659
 6316W        W77899  11.944   5.918  11.155
 6317W        W77900  42.399   2.896  12.365
 6318W        W77901  10.698  23.531   4.046
 6319W        W77902  26.441  36.106   0.839
 6320W        W77903  11.761  14.848  13.420
 6321W        W77904  41.574  25.552   0.079
 6322W        W77905  19.974  26.598  10.739
 6323W        W77906  17.153  20.493   1.228
 6324W        W77907  18.439  27.693   0.783
 6325W        W77908  31.050   2.328   2.891
 6326W        W77909  40.403   4.940   0.196
 6327W        W77910  35.962  28.588   4.145
 6328W        W77911   9.772   3.762  14.832
 6329W        W77912  21.168   6.438  13.422
 6330W        W77913  20.556  30.470   4.943
 6331W        W77914  33.127   6.721   1.729
 6332W        W77915   4.900  22.228  11.194
 6333W        W77916  17.439  40.783   2.611
 6334W        W77917   9.402  23.169   1.669
 6335W        W77918  32.391  24.617   3.353
 6336W        W77919  23.652   0.501   0.267
 6337W        W77920  15.749   2.529   3.318
 6338W        W77921  15.054  13.567   4.188
 6339W        W77922   1.521   4.165   2.306
 6340W        W77923  28.298   4.252   1.267
 6341W        W77924   3.084  23.442   3.448
 6342W        W77925  29.610   4.851   0.143
 6343W        W77926  37.965  25.140   3.031
 6344W        W77927  24.061  15.990   2.343
 6345W        W77928  22.315  19.466   9.862
 6346W        W77929  35.488  20.803   3.427
 6347W        W77930   3.393  12.889   3.715
 6348W        W77931  26.728  44.308   1.639
 6349W        W77932  44.304  21.137  11.581
 6350W        W77933  37.272  27.013   2.213
 6351W        W77934  34.990   7.880  11.078
 6352W        W77935  31.266   7.365  14.814
 6353W        W77936   4.842  34.932  14.278
 6354W        W77937   2.838   2.448   2.744
 6355W        W77938  25.215   2.766  14.152
 6356W        W77939  22.062   5.176   2.719
 6357W        W77940  15.739  18.266  12.865
 6358W        W77941  32.486   7.327   1.761
 6359W        W77942  26.233   4.837   1.834
 6360W        W77943  42.886  44.485  11.090
 6361W        W77944   7.163  38.908  10.597
 6362W        W77945  20.011   4.368  11.238
 6363W        W77946  18.192  39.978   1.003
 6364W        W77947  29.376   2.330   1.890
 6365W        W77948  37.389  18.827  13.988
 6366W        W77949  37.534  30.467   3.399
 6367W        W77950  19.282   8.210   0.799
 6368W        W77951   5.997  33.762   3.104
 6369W        W77952  23.604  34.507  11.649
 6370W        W77953  14.674  36.513   4.269
 6371W        W77954  36.099  10.171  14.254
 6372W        W77955  17.401  20.346   3.957
 6373W        W77956   4.289   2.577  13.989
 6374W        W77957  13.476  17.065   1.165
 6375W        W77958   2.446  40.446   4.596
 6376W        W77959   0.187  26.235   0.297
 6377W        W77960  33.574  17.123   2.752
 6378W        W77961  11.164  20.133  13.874
 6379W        W77962  14.411   8.772   3.081
 6380W        W77963  42.339  14.769  10.737
 6381W        W77964  19.545  16.664   2.605
 6382W        W77965  13.261  29.660  13.131
 6383W        W77966  24.723  36.874  10.670
 6384W        W77967  42.776  25.159  13.350
 6385W        W77968  43.903  44.944   2.190
 6386W        W77969  40.125  36.351  13.500
 6387W        W77970  41.938   2.594   2.650
 6388W        W77971  19.047  12.027  12.147
 6389W        W77972  39.242  19.104  13.945
 6390W        W77973  28.531  33.769  14.904
 6391W        W77974  21.268   3.293   1.325
 6392W        W77975  29.885  30.810   2.483
 6393W        W77976  16.846  18.644  12.101
 6394W        W77977   5.179  23.558  12.076
 6395W        W77978  42.480  33.096  10.558
 6396W        W77979  14.183  10.856   4.892
 6397W        W77980   7.411  34.334   4.313
 6398W        W77981  15.602   5.451  12.903
 6399W        W77982  32.198   0.392   4.487
 6400W        W77983  10.724  42.034   3.708
 6401W        W77984  17.641  31.834  12.021
 6402W        W77985   3.780  30.411   3.404
 6403W        W77986  30.398  42.545   1.448
 6404W        W77987  17.494  20.562   2.197
 6405W        W77988  37.326  39.817   1.710
 6406W        W77989  37.049  12.722   2.716
 6407W        W77990  18.082  43.123   4.156
 6408W        W77991   6.668  22.584   2.838
 6409W        W77992   5.866  43.305  13.470
 6410W        W77993  43.244  28.512  11.094
 6411W        W77994  13.225   1.313   3.661
 6412W        W77995   0.614  40.059   0.785
 6413W        W77996  37.843  13.166  10.632
 6414W        W77997  35.661  25.941   0.851
 6415W        W77998  42.800  39.934  14.381
 6416W        W77999  27.376   1.706   3.197
 6417W        W78000   2.958  38.234  12.867
 6418W        W78001  28.430  18.544   2.553
 6419W        W78002  39.579  38.532   1.669
 6420W        W78003  32.001  25.210  14.322
 6421W        W78004  16.452  14.324   3.251
 6422W        W78005   2.338  41.383   3.312
 6423W        W78006  16.753  33.890  11.476
 6424W        W78007  11.246  35.132  11.531
 6425W        W78008  41.049  25.903  14.240
 6426W        W78009   6.947   5.127   3.819
 6427W        W78010  42.569   6.417  14.009
 6428W        W78011  25.425   0.655  13.082
 6429W        W78012  18.907   1.054   2.349
 6430W        W78013   5.720  44.244  10.883
 6431W        W78014   9.267   8.686   3.691
 6432W        W78015  35.067  22.569   0.839
 6433W        W78016  28.124  17.737  12.864
 6434W        W78017  39.016  41.136  11.219
 6435W        W78018  31.856   3.348   2.139
 6436W        W78019   0.430  24.839  13.049
 6437W        W78020  30.543  11.084  13.981
 6438W        W78021  11.384   4.456   2.733
 6439W        W78022  21.525  23.212  13.859
 6440W        W78023  40.877  32.946  10.612
 6441W        W78024   8.429  42.684  12.226
 6442W        W78025  15.557  15.749  11.233
 6443W        W78026  44.948   1.997   4.103
 6444W        W78027  21.278  42.835   1.868
 6445W        W78028  40.778  10.131  13.520
 6446W        W78029  15.709  28.512   3.524
 6447W        W78030   2.911  42.919   0.012
 6448W        W78031  25.657   8.585  11.523
 6449W        W78032  29.614  36.635  11.190
 6450W        W78033  25.303  34.544   4.303
 6451W        W78034  16.106  39.373   3.371
 6452W        W78035  22.409  24.533   3.063
 6453W        W78036  23.065  37.577  13.870
 6454W        W78037   9.103  21.478  14.389
 6455W        W78038  36.530   6.408   4.627
 6456W        W78039  21.287  34.262  14.050
 6457W        W78040  25.033   9.858   2.678
 6458W        W78041  35.325  15.984   4.214
 6459W        W78042  39.032   6.203   0.019
 6460W        W78043  42.922  35.631   2.971
 6461W        W78044   2.375  27.007   2.796
 6462W        W78045   9.366  31.876  10.526
 6463W        W78046  37.326  34.569   1.976
 6464W        W78047  29.590  36.823  14.220
 6465W        W78048  41.297  27.049  12.924
 6466W        W78049  39.593  12.727  13.837
 6467W        W78050  32.308  13.568  13.598
 6468W        W78051   5.392  34.433  12.119
 6469W        W78052  44.885   0.800   1.411
 6470W        W78053  18.312  18.129  14.475
 6471W        W78054  34.582  15.287   1.355
 6472W        W78055   4.460   4.461   4.711
 6473W        W78056  38.960  34.851   1.356
 6474W        W78057  28.208  35.312  14.250
 6475W        W78058  29.063  11.319  11.799
 6476W        W78059  32.408  30.751   0.357
 6477W        W78060  37.569  35.566  13.255
 6478W        W78061  43.095  28.339   0.479
 6479W        W78062  40.257  43.551   1.953
 6480W        W78063  42.878  35.606   3.953
 6481W        W78064  32.382  40.417  11.211
 6482W        W78065   2.684  34.421  14.305
 6483W        W78066   9.629  40.525   3.727
 6484W        W78067   7.804   8.796  13.960
 6485W        W78068   2.566  13.603  11.915
 6486W        W78069  44.790  30.005   1.805
 6487W        W78070   3.227  14.881   4.110
 6488W        W78071  33.484  42.963   3.330
 6489W        W78072   4.214  38.426   4.557
 6490W        W78073  44.098  31.322   1.273
 6491W        W78074  15.711  22.766   4.058
 6492W        W78075   0.257  36.362   2.297
 6493W        W78076  25.212  23.045  12.442
 6494W        W78077  20.405   6.221   4.439
 6495W        W78078   6.677  14.784   2.278
 6496W        W78079  32.022   8.997  14.959
 6497W        W78080   0.691  40.580  14.829
 6498W        W78081  22.233  18.548  12.815
 6499W        W78082  14.658  17.011  12.635
 6500W        W78083   3.469  18.282  14.080
 6501W        W78084  36.574  33.446  14.264
 6502W        W78085  43.009  11.807   0.315
 6503W        W78086   8.112   6.414   4.131
 6504W        W78087   2.833  12.414   1.749
 6505W        W78088   1.641  36.420   4.580
 6506W        W78089  35.869  27.435   1.338
 6507W        W78090  13.089   1.345   4.594
 6508W        W78091  33.026  19.659  11.843
 6509W        W78092  40.407  37.987   4.366
 6510W        W78093   5.197  37.373   0.049
 6511W        W78094  18.960  31.611  10.907
 6512W        W78095  31.423  24.462  10.592
 6513W        W78096  40.084   6.273   2.244
 6514W        W78097   6.274  43.252   2.217
 6515W        W78098  23.386  19.247  14.315
 6516W        W78099  30.143  12.157   1.366
 6517W        W78100  26.076   6.025  10.686
 6518W        W78101  28.145  32.616   4.609
 6519W        W78102  22.193  32.011  10.861
 6520W        W78103   5.795   4.366  11.949
 6521W        W78104  17.245  30.739   0.244
 6522W        W78105   7.009  43.611   3.652
 6523W        W78106   8.221  24.626   2.762
 6524W        W78107  15.722   8.927  12.450
 6525W        W78108  26.217  18.860  11.379
 6526W        W78109  36.047  13.584  13.859
 6527W        W78110  25.720  22.592   4.353
 6528W        W78111  28.265  22.244   2.298
 6529W        W78112   7.201  14.888   3.683
 6530W        W78113  24.555   3.557  13.014
 6531W        W78114  28.946  31.462  11.130
 6532W        W78115  40.031  28.363   3.220
 6533W        W78116  37.888   1.470   3.617
 6534W        W78117  21.652   8.698  12.424
 6535W        W78118   0.460  39.215  14.341
 6536W        W78119  38.793  39.897   3.620
 6537W        W78120   6.429  16.523   1.698
 6538W        W78121  32.861  20.791  12.969
 6539W        W78122  43.952  33.279   2.203
 6540W        W78123   3.247  23.211   4.423
 6541W        W78124  13.573  43.976   1.433
 6542W        W78125   7.015  38.873   4.274
 6543W        W78126   0.552  19.325  13.825
 6544W        W78127  35.235  28.160   4.597
 6545W        W78128  12.422  28.508   0.360
 6546W        W78129   2.907  15.017  11.078
 6547W        W78130  20.645  15.849  14.735
 6548W        W78131   5.402  43.050   1.484
 6549W        W78132  15.871  10.430   1.802
 6550W        W78133  38.459  11.686  13.887
 6551W        W78134  40.334  42.787  11.784
 6552W        W78135  18.304  23.459   3.726
 6553W        W78136  25.731  30.012   1.844
 6554W        W78137  16.640  12.076  10.575
 6555W        W78138  43.859   7.603  10.994
 6556W        W78139   1.584  29.527   4.600
 6557W        W78140   7.506  40.880   2.206
 6558W        W78141  27.482  11.586   1.705
 6559W        W78142  17.790  19.649  13.105
 6560W        W78143   2.223   9.206   0.251
 6561W        W78144  40.306  38.322  13.256
 6562W        W78145  26.547  42.490  12.963
 6563W        W78146  34.982  36.536   1.690
 6564W        W78147  37.495  14.924   0.363
 6565W        W78148  25.932  33.488   2.248
 6566W        W78149  10.849   5.116  13.840
 6567W        W78150  25.349   0.174  11.171
 6568W        W78151  34.919  19.587  13.850
 6569W        W78152  39.019  29.976  14.136
 6570W        W78153  26.494  13.345   1.141
 6571W        W78154   2.951  26.618   0.722
 6572W        W78155   4.014   6.703  13.650
 6573W        W78156  14.207   6.007  13.388
 6574W        W78157  22.844  19.384  10.389
 6575W        W78158  21.980  38.986  12.954
 6576W        W78159  33.877  20.199   2.842
 6577W        W78160  23.160  13.098  13.460
 6578W        W78161   5.684   9.325  13.413
 6579W        W78162  33.144  39.503  12.145
 6580W        W78163  38.066  44.940  12.348
 6581W        W78164  16.070   3.168  10.660
 6582W        W78165  24.349   7.200  10.738
 6583W        W78166  17.514  35.502  13.805
 6584W        W78167  40.808  44.522  13.758
 6585W        W78168  31.470  35.878   0.075
 6586W        W78169   9.522  32.863   2.157
 6587W        W78170  19.359  20.566  12.968
 6588W        W78171  31.280  20.557  10.851
 6589W        W78172   2.793   4.198  12.870
 6590W        W78173  31.211  42.452   0.322
 6591W        W78174  20.519   8.124   5.101
 6592W        W78175  29.943  43.807  13.464
 6593W        W78176   5.028  22.110   4.078
 6594W        W78177  30.895  24.867   5.041
 6595W        W78178  44.323  32.674  11.007
 6596W        W78179  29.528  36.425  13.909
 6597W        W78180  29.705   6.211   3.179
 6598W        W78181  36.648  17.014  14.520
 6599W        W78182  31.879  41.317  14.391
 6600W        W78183  18.555   5.151   1.438
 6601W        W78184  10.542  30.735  10.186
 6602W        W78185  30.909  41.468   3.785
 6603W        W78186  14.756   5.456  12.893
 6604W        W78187  43.802  36.684  14.448
 6605W        W78188  14.812  25.321   3.132
 6606W        W78189  43.847   0.294   4.634
 6607W        W78190  32.328  43.814  10.618
 6608W        W78191  40.307  32.995  11.606
 6609W        W78192  18.209   5.124   3.006
 6610W        W78193   4.377  26.052   1.629
 6611W        W78194  31.856  19.240   3.309
 6612W        W78195  25.028  37.890  12.905
 6613W        W78196  17.173  36.993  13.730
 6614W        W78197  14.199  28.671  12.710
 6615W        W78198  32.647  22.606  13.985
 6616W        W78199  26.769  18.148  14.126
 6617W        W78200  13.432  21.947  11.009
 6618W        W78201  35.172  43.158   2.961
 6619W        W78202  24.502  27.977  12.517
 6620W        W78203   1.845   3.158  12.574
 6621W        W78204  35.517  17.088   0.709
 6622W        W78205  24.049  15.950   3.095
 6623W        W78206  14.275  29.086  11.846
 6624W        W78207  39.000  18.570   2.210
 6625W        W78208  36.291  37.803  10.644
 6626W        W78209  10.843   6.392  14.504
 6627W        W78210   5.904  14.147  12.080
 6628W        W78211   2.163  25.919   3.742
 6629W        W78212  15.883  44.668  11.958
 6630W        W78213   2.624   0.592  11.235
 6631W        W78214  41.309  33.948   4.351
 6632W        W78215  29.811  11.296   4.883
 6633W        W78216   4.251  23.308   3.927
 6634W        W78217  31.575  41.623  13.449
 6635W        W78218  13.520  40.789  11.709
 6636W        W78219  36.888  11.807  11.150
 6637W        W78220  20.274  17.718  10.087
 6638W        W78221  16.566  25.320  10.201
 6639W        W78222  20.059  12.327  14.103
 6640W        W78223   8.563   3.596   3.626
 6641W        W78224   9.757  22.171   4.812
 6642W        W78225   7.420  43.540  11.080
 6643W        W78226  26.747  10.251   2.629
 6644W        W78227  41.523  30.304   4.134
 6645W        W78228   7.941  18.692   1.287
 6646W        W78229  34.380  37.008  11.578
 6647W        W78230   3.248   8.751  13.963
 6648W        W78231   1.011  12.067   0.738
 6649W        W78232  28.671  11.621  11.084
 6650W        W78233  30.078  14.340   3.732
 6651W        W78234  44.447  25.760  14.853
 6652W        W78235   4.337  43.950   2.302
 6653W        W78236  18.715  39.108  14.907
 6654W        W78237  44.618   9.426   1.791
 6655W        W78238  25.442  26.236   3.345
 6656W        W78239  35.328   0.780  10.847
 6657W        W78240  30.136  11.324   1.404
 6658W        W78241  19.482  36.804   2.524
 6659W        W78242  39.829  20.704   1.341
 6660W        W78243   3.941  37.724  10.672
 6661W        W78244  20.417  15.602  11.132
 6662W        W78245  23.688  12.463   1.185
 6663W        W78246  31.568   1.719   4.635
 6664W        W78247   7.568   1.893   1.262
 6665W        W78248  27.165   8.371  13.914
 6666W        W78249  40.066  15.045  10.759
 6667W        W78250  24.682  28.960  13.451
 6668W        W78251  33.340  33.034  12.997
 6669W        W78252  22.855  38.412   0.201
 6670W        W78253  35.954  19.386   0.813
 6671W        W78254  26.111  14.927   1.795
 6672W        W78255  19.278  28.046  12.853
 6673W        W78256  31.112  36.099  14.751
 6674W        W78257  32.670  13.252  11.119
 6675W        W78258  20.709  17.565   2.792
 6676W        W78259   9.747  10.550  13.397
 6677W        W78260  26.963  24.042   4.550
 6678W        W78261   1.262  42.797  11.235
 6679W        W78262  36.739  24.015  14.383
 6680W        W78263  17.085  38.210  13.645
 6681W        W78264   5.923  19.295   1.882
 6682W        W78265  28.178  36.712   0.827
 6683W        W78266  35.110  15.991   3.748
 6684W        W78267  15.687   8.451  14.349
 6685W        W78268   7.340  32.346  12.977
 6686W        W78269  40.985  36.699  12.878
 6687W        W78270  18.363   6.596   2.166
 6688W        W78271  35.271  16.771  14.325
 6689W        W78272  28.917  22.303   1.705
 6690W        W78273  31.853  41.928   2.441
 6691W        W78274   6.669  32.999   4.152
 6692W        W78275   0.959  10.291  13.174
 6693W        W78276  39.543  28.577   1.854
 6694W        W78277  32.163  18.305   1.843
 6695W        W78278  10.889  33.274   2.515
 6696W        W78279  13.841  21.705   2.805
 6697W        W78280  10.700  42.897  10.453
 6698W        W78281  38.944  13.272   2.758
 6699W        W78282   0.386  42.749   0.063
 6700W        W78283  26.047  20.221  14.019
 6701W        W78284  25.621   2.497  14.903
 6702W        W78285  36.097  34.507   1.255
 6703W        W78286  24.936   9.321   0.232
 6704W        W78287  16.030  16.857  10.617
 6705W        W78288  28.788  43.004   5.134
 6706W        W78289   7.312  44.057   3.685
 6707W        W78290  41.296  23.645  10.658
 6708W        W78291  39.090  34.654   2.334
 6709W        W78292   7.369  30.388   1.866
 6710W        W78293  16.151  12.346   0.764
 6711W        W78294  19.073  22.169  10.575
 6712W        W78295  36.287  40.950  11.168
 6713W        W78296  24.654  16.370  13.805
 6714W        W78297  16.338  11.253  10.828
 6715W        W78298  18.777  18.736  13.364
 6716W        W78299   3.254  34.778   0.359
 6717W        W78300  21.546  12.023   3.741
 6718W        W78301  35.011  22.952   4.059
 6719W        W78302  18.918  22.088   0.191
 6720W        W78303  20.038  21.589  11.436
 6721W        W78304  28.508   1.549  11.093
 6722W        W78305  20.036   8.638   3.041
 6723W        W78306   1.167   9.500  13.704
 6724W        W78307  41.554   4.991   1.917
 6725W        W78308  22.156  42.940  14.580
 6726W        W78309  20.547  18.251   4.587
 6727W        W78310  39.812  30.435  11.005
 6728W        W78311  28.006  37.097   3.636
 6729W        W78312  12.255   4.694  14.491
 6730W        W78313  35.687  13.173  12.085
 6731W        W78314  38.996  39.414  11.971
 6732W        W78315  19.740  16.273   1.366
 6733W        W78316  37.239  18.699   4.548
 6734W        W78317  42.622  12.624   9.859
 6735W        W78318  26.556  21.222   4.222
 6736W        W78319   9.217   9.162  14.888
 6737W        W78320  32.485  25.222   4.373
 6738W        W78321  20.041  24.186  10.994
 6739W        W78322  12.971  35.938  11.645
 6740W        W78323   1.701  42.070  11.129
 6741W        W78324   3.573  27.904  13.056
 6742W        W78325   5.500  35.605  11.229
 6743W        W78326  39.407   7.928   2.324
 6744W        W78327  44.266  39.612   1.359
 6745W        W78328  23.520   4.450  11.622
 6746W        W78329  15.038  16.682  14.855
 6747W        W78330  18.461   0.295   2.560
 6748W        W78331  44.968  11.248  12.892
 6749W        W78332  20.107  34.456   4.268
 6750W        W78333  23.296  42.105   2.899
 6751W        W78334  32.523  10.310   4.847
 6752W        W78335   7.974  15.530  13.068
 6753W        W78336  12.762  13.550   0.330
 6754W        W78337  29.813  40.369  11.262
 6755W        W78338  13.582  27.012   4.188
 6756W        W78339  18.230  32.077  10.652
 6757W        W78340  23.502   8.582   1.326
 6758W        W78341  10.101  43.866   2.468
 6759W        W78342  28.495   0.667   3.263
 6760W        W78343   8.856  17.520   2.862
 6761W        W78344  29.652  16.201   4.011
 6762W        W78345  15.646  35.599   3.708
 6763W        W78346  32.845   5.261  12.041
 6764W        W78347   1.780  44.832   2.252
 6765W        W78348  37.415  21.653   0.995
 6766W        W78349  27.612  24.003  11.864
 6767W        W78350  27.697  27.733   3.767
 6768W        W78351  20.666  41.741  11.159
 6769W        W78352  22.623  10.374   1.742
 6770W        W78353   9.354  20.583  14.106
 6771W        W78354  29.156  40.846  13.402
 6772W        W78355  35.736  18.868  11.493
 6773W        W78356  18.303  14.099  12.222
 6774W        W78357   4.776   4.909   1.008
 6775W        W78358   0.157  20.616   2.875
 6776W        W78359  17.365  21.763   4.807
 6777W        W78360  15.302  39.871  12.490
 6778W        W78361  33.459  12.255   1.759
 6779W        W78362  27.103  34.382   2.296
 6780W        W78363  14.784  21.700  10.926
 6781W        W78364  20.553  12.904  14.764
 6782W        W78365   2.755  16.681   3.703
 6783W        W78366  22.282  30.622   0.936
 6784W        W78367   7.379  34.831   2.666
 6785W        W78368   4.391  10.263  12.190
 6786W        W78369  11.413  21.861   4.567
 6787W        W78370  43.754  10.646  14.397
 6788W        W78371  44.302  20.688  11.859
 6789W        W78372   6.144  37.947   4.640
 6790W        W78373  16.397  17.182  10.775
 6791W        W78374  33.695   9.181   4.606
 6792W        W78375  18.293  35.780  12.531
 6793W        W78376   1.847  26.255  11.892
 6794W        W78377   8.290  28.601  11.611
 6795W        W78378  32.953  23.688  10.664
 6796W        W78379  13.709  18.267  10.764
 6797W        W78380   7.445  16.748  11.093
 6798W        W78381  36.094   1.945  12.962
 6799W        W78382  41.031  37.297   2.675
 6800W        W78383  17.033  15.904   3.654
 6801W        W78384  11.599  32.883  10.624
 6802W        W78385  12.398   4.534  11.160
 6803W        W78386  42.303  33.682   2.846
 6804W        W78387  33.376   5.896  14.616
 6805W        W78388  30.200  11.166   4.288
 6806W        W78389  20.235  23.580  14.087
 6807W        W78390  40.210  21.590   2.679
 6808W        W78391   9.011  22.784  13.086
 6809W        W78392  31.670  16.941  12.435
 6810W        W78393  27.089  41.021  11.029
 6811W        W78394  27.606  41.543   2.659
 6812W        W78395   2.572   5.687  12.131
 6813W        W78396  22.917   5.904  12.038
 6814W        W78397   6.910  18.556   4.313
 6815W        W78398  15.742   9.930   2.961
 6816W        W78399  29.750  19.543  14.790
 6817W        W78400  38.869  15.057  12.516
 6818W        W78401   4.335  20.494   3.321
 6819W        W78402  29.899  34.842  10.815
 6820W        W78403  27.895  39.450  12.144
 6821W        W78404  41.787  13.381  12.854
 6822W        W78405  10.247   0.530  12.643
 6823W        W78406  23.713  29.358   3.814
 6824W        W78407  37.752  30.012  12.346
 6825W        W78408  16.940   8.160   2.130
 6826W        W78409  44.480   4.725   1.434
 6827W        W78410   5.824  20.632  13.828
 6828W        W78411  22.506  25.790  13.009
 6829W        W78412   3.879  41.570  11.116
 6830W        W78413  24.298  41.879  10.829
 6831W        W78414  21.121  44.470  12.890
 6832W        W78415  34.756   2.944  10.534
 6833W        W78416  13.182  44.390  14.451
 6834W        W78417   3.293   1.222   3.129
 6835W        W78418  36.587   8.778   0.501
 6836W        W78419  10.918   5.933   1.791
 6837W        W78420  19.222   7.197  10.734
 6838W        W78421  21.153  30.469  13.553
 6839W        W78422   0.978  29.303  13.754
 6840W        W78423  26.144  26.644   2.829
 6841W        W78424  17.906  34.937  12.574
 6842W        W78425  29.663  38.609   1.234
 6843W        W78426  41.541  32.492   4.544
 6844W        W78427  24.672   7.684   1.303
 6845W        W78428  30.539  36.619   1.769
 6846W        W78429  42.466  15.079   2.231
 6847W        W78430  12.214  15.267  13.539
 6848W        W78431  32.221   3.376  14.897
 6849W        W78432  30.910  23.592   2.949
 6850W        W78433  19.584   0.545  11.112
 6851W        W78434  21.284  26.606   2.241
 6852W        W78435  31.937  33.070  13.129
 6853W        W78436  41.741   8.758  12.913
 6854W        W78437   4.359   1.850   2.136
 6855W        W78438  24.720   2.885  14.330
 6856W        W78439  18.645  37.639  12.103
 6857W        W78440  25.219   5.404  13.928
 6858W        W78441  22.911  36.453  11.704
 6859W        W78442   7.918  22.650  14.821
 6860W        W78443  17.597  41.961  13.486
 6861W        W78444   3.973   0.558  11.173
 6862W        W78445  35.182  22.004  12.473
 6863W        W78446  35.701  12.140   2.302
 6864W        W78447  18.280  18.655  11.159
 6865W        W78448   5.684  18.111  13.066
 6866W        W78449  23.858   4.030  12.936
 6867W        W78450  22.667   7.980   0.255
 6868W        W78451  43.900  27.420   2.462
 6869W        W78452  19.617  36.603  11.687
 6870W        W78453   9.833  12.397  12.061
 6871W        W78454  42.465  32.555   0.638
 6872W        W78455  14.806  44.915   1.228
 6873W        W78456  31.340  10.367   0.331
 6874W        W78457  25.776   8.277  12.265
 6875W        W78458  28.000  16.177  12.451
 6876W        W78459  19.687   6.687   0.202
 6877W        W78460  38.445  11.345   4.003
 6878W        W78461  37.086  31.438   1.891
 6879W        W78462  41.876  40.918  14.299
 6880W        W78463   3.177  32.221   2.803
 6881W        W78464  22.959  35.904   4.574
 6882W        W78465  39.615  42.325   3.241
 6883W        W78466   9.627   2.396   3.700
 6884W        W78467  14.316  12.690   1.436
 6885W        W78468  12.865   7.275   2.671
 6886W        W78469   3.541  40.726  14.789
 6887W        W78470  23.026  16.313  13.348
 6888W        W78471  13.883  10.309   4.176
 6889W        W78472  40.514  36.823  11.944
 6890W        W78473   4.019  10.638  13.810
 6891W        W78474  12.356   0.469   0.763
 6892W        W78475   9.516   8.320   0.399
 6893W        W78476   3.880  11.334   2.008
 6894W        W78477  23.268  37.336  12.960
 6895W        W78478  14.274   0.012   0.730
 6896W        W78479  15.342  43.890   0.203
 6897W        W78480  29.005  29.680  13.703
 6898W        W78481   3.658   3.309  11.527
 6899W        W78482  10.215  27.673   1.295
 6900W        W78483  11.443  30.149  11.906
 6901W        W78484  20.387   4.711  11.170
 6902W        W78485   4.843  11.344   2.666
 6903W        W78486  38.051   9.695  12.906
 6904W        W78487   7.299  38.807   2.449
 6905W        W78488  33.132  41.586   1.329
 6906W        W78489  18.537  16.064  14.076
 6907W        W78490  31.682  27.007  10.709
 6908W        W78491   1.767   6.373   0.048
 6909W        W78492  36.106  36.630   3.726
 6910W        W78493   8.841  30.486  10.672
 6911W        W78494   5.812   3.851  13.738
 6912W        W78495  31.900  36.275  12.066
 6913W        W78496   7.245   9.707   0.663
 6914W        W78497  24.216  19.230   4.098
 6915W        W78498  14.200  34.472  11.662
 6916W        W78499  11.842  32.796  11.453
 6917W        W78500  29.871  37.464  14.761
 6918W        W78501   1.367   1.399  12.419
 6919W        W78502  36.497  29.666   3.482
 6920W        W78503  20.200  28.089  14.808
 6921W        W78504   2.478  11.671   2.922
 6922W        W78505   7.955   6.277   2.440
 6923W        W78506  34.526  26.053   0.673
 6924W        W78507  43.456   2.896   0.669
 6925W        W78508  33.450  36.941   9.712
 6926W        W78509  34.175   4.654  14.412
 6927W        W78510   5.891  10.940  11.509
 6928W        W78511  31.346  15.009   1.684
 6929W        W78512  37.855  13.656   4.797
 6930W        W78513  25.162  14.349  13.412
 6931W        W78514  34.342  38.390  14.353
 6932W        W78515  26.256  31.987  13.515
 6933W        W78516  26.214   4.255   4.693
 6934W        W78517   6.959  29.023   3.262
 6935W        W78518  28.927  39.068   0.029
 6936W        W78519   6.671  40.535   3.231
 6937W        W78520  25.105  29.972   0.365
 6938W        W78521  44.302  14.349   4.549
 6939W        W78522  42.272  39.773  11.494
 6940W        W78523  36.070  15.422   4.415
 6941W        W78524  30.650  13.197  13.513
 6942W        W78525  21.988  22.122   1.376
 6943W        W78526   5.254  36.730   1.930
 6944W        W78527   8.471  20.594   0.774
 6945W        W78528   6.429  22.049   4.222
 6946W        W78529  29.071  19.667   0.884
 6947W        W78530  35.024  20.764  11.151
 6948W        W78531  18.354  15.232   3.205
 6949W        W78532   4.056  20.725  10.423
 6950W        W78533   3.117   5.228   4.167
 6951W        W78534   7.940   8.714  12.488
 6952W        W78535  39.909  39.732  11.829
 6953W        W78536   7.947  23.118  10.961
 6954W        W78537   4.374  31.051  10.365
 6955W        W78538  13.814  19.138   3.280
 6956W        W78539  24.169   5.303  11.039
 6957W        W78540   0.406  14.663  11.161
 6958W        W78541  33.939  40.089   3.903
 6959W        W78542  40.786  27.885  10.697
 6960W        W78543   4.778  38.957  11.247
 6961W        W78544  34.026  24.141  14.288
 6962W        W78545  19.575  11.890   4.507
 6963W        W78546  12.373  13.406  11.480
 6964W        W78547  41.234  15.768   1.237
 6965W        W78548  30.678  39.648   4.184
 6966W        W78549  39.420  33.048  11.664
 6967W        W78550  37.430  32.882  13.474
 6968W        W78551  24.669  14.710   3.967
 6969W        W78552  41.904  40.109  13.946
 6970W        W78553   6.561  18.660   1.811
 6971W        W78554  38.438  24.456  10.657
 6972W        W78555   0.409  12.912  14.517
 6973W        W78556  32.974  10.798  11.106
 6974W        W78557   4.055  20.719   3.725
 6975W        W78558  36.202  25.160  10.583
 6976W        W78559   6.415  33.364  14.105
 6977W        W78560   5.174  20.591   2.519
 6978W        W78561  24.630  42.366   1.501
 6979W        W78562  33.412  40.781   1.493
 6980W        W78563  30.885   7.815   2.709
 6981W        W78564  38.949  13.836   2.923
 6982W        W78565  39.211   5.864   5.005
 6983W        W78566  16.034   6.263   3.565
 6984W        W78567  43.996  38.495   3.757
 6985W        W78568  36.045  37.545   3.745
 6986W        W78569  25.611  22.021   0.184
 6987W        W78570  13.093  38.937  14.958
 6988W        W78571  39.450  16.567   0.875
 6989W        W78572  23.327  37.716  14.557
 6990W        W78573   1.145   6.691   0.380
 6991W        W78574   2.356   4.130   4.080
 6992W        W78575   7.118  10.831  12.355
 6993W        W78576  31.940  13.399  12.885
 6994W        W78577  25.888  39.969  14.544
 6995W        W78578  15.750   7.014   3.785
 6996W        W78579  13.850  13.367   0.381
 6997W        W78580   2.753  31.135   0.840
 6998W        W78581  34.021  23.518   3.385
 6999W        W78582  31.538  43.789  11.841
 7000W        W78583  35.998  21.988  14.336
 7001W        W78584  10.342  27.937  10.669
 7002W        W78585  44.477  22.484  11.492
 7003W        W78586  12.871  12.140   4.453
 7004W        W78587  40.644  22.647  14.896
 7005W        W78588   9.299   1.054  14.264
 7006W        W78589  26.386  21.106   4.707
 7007W        W78590  14.153  13.836  14.994
 7008W        W78591   7.800  12.293   4.929
 7009W        W78592  41.870  19.464   3.288
 7010W        W78593  27.342  43.903   0.957
 7011W        W78594  43.607  28.542   0.412
 7012W        W78595   9.562  17.724   4.280
 7013W        W78596  23.682  34.532  10.307
 7014W        W78597  11.372   5.356  11.451
 7015W        W78598  28.419   5.897   2.735
 7016W        W78599  18.698  41.453  12.842
 7017W        W78600  12.332  32.084   0.699
 7018W        W78601   4.460  38.768  14.336
 7019W        W78602  21.655  41.942  11.486
 7020W        W78603  36.594  19.578  14.503
 7021W        W78604  14.737  36.989   0.936
 7022W        W78605  11.421  19.686  13.838
 7023W        W78606  20.236  14.782  10.732
 7024W        W78607  15.488  28.146  13.545
 7025W        W78608  42.862  11.556   4.053
 7026W        W78609  20.018  25.305   0.559
 7027W        W78610  14.789  18.007  12.571
 7028W        W78611  16.535  43.919   0.835
 7029W        W78612  19.615   4.436   1.273
 7030W        W78613  33.730  38.994  10.178
 7031W        W78614  34.436  37.249   4.176
 7032W        W78615  19.193   2.553  11.636
 7033W        W78616   1.541   1.769   4.190
 7034W        W78617   4.531  27.037   3.651
 7035W        W78618  24.967  34.491  14.991
 7036W        W78619  38.247  38.792  10.608
 7037W        W78620  17.067  27.206   3.883
 7038W        W78621  25.648  17.316   2.585
 7039W        W78622  27.461   2.884  10.716
 7040W        W78623  37.903   7.125  11.523
 7041W        W78624   4.794  38.994   2.333
 7042W        W78625  42.984   0.974   1.370
 7043W        W78626  23.579  33.148  14.363
 7044W        W78627   1.174  10.846  11.433
 7045W        W78628  44.380  33.597  12.023
 7046W        W78629  18.793   2.895  14.915
 7047W        W78630  14.280  31.910   2.363
 7048W        W78631  35.857  43.297   2.148
 7049W        W78632  42.493   6.190  14.981
 7050W        W78633  26.223  40.833  13.011
 7051W        W78634  34.739  24.990  13.231
 7052W        W78635  15.353   0.457   5.064
 7053W        W78636  24.227  24.645  10.704
 7054W        W78637  25.505  23.068  11.989
 7055W        W78638  30.944   1.438  13.910
 7056W        W78639  39.528  28.725   3.631
 7057W        W78640  16.543   2.650  13.128
 7058W        W78641  36.547  27.276  10.724
 7059W        W78642  26.133  19.809   3.823
 7060W        W78643  31.601  44.640  10.812
 7061W        W78644  24.805  40.301   5.056
 7062W        W78645   9.793  36.113   4.097
 7063W        W78646  26.407  27.655  10.705
 7064W        W78647  36.461   1.212  13.379
 7065W        W78648  42.039  43.901   0.301
 7066W        W78649  41.370  31.202   1.385
 7067W        W78650  21.809  31.488  14.407
 7068W        W78651  21.361  30.161  10.690
 7069W        W78652  30.006  38.748   4.190
 7070W        W78653  12.920  20.098  13.473
 7071W        W78654  16.405  33.785   5.008
 7072W        W78655  13.029  22.184  13.504
 7073W        W78656  16.382   2.169   4.844
 7074W        W78657   1.452  37.314  14.666
 7075W        W78658  44.000  41.798   1.885
 7076W        W78659  18.023  42.242   0.830
 7077W        W78660  42.487  40.807   3.344
 7078W        W78661  32.008  30.081   4.529
 7079W        W78662  31.520  40.186  14.990
 7080W        W78663  25.156  35.901   0.252
 7081W        W78664   1.835  30.202   1.404
 7082W        W78665  15.720  25.595   3.149
 7083W        W78666  20.126   5.257  12.420
 7084W        W78667  42.182  41.921  13.425
 7085W        W78668  19.970  28.516   4.200
 7086W        W78669  18.220   0.824  10.870
 7087W        W78670  12.737   3.760  11.022
 7088W        W78671   3.193   6.171   4.662
 7089W        W78672   3.886   9.783   1.688
 7090W        W78673  35.542  21.800  12.097
 7091W        W78674  12.535  34.508  13.412
 7092W        W78675  31.140  14.975   4.763
 7093W        W78676  21.775  31.076   4.575
 7094W        W78677  31.876   5.717  12.722
 7095W        W78678  37.608  17.188   4.136
 7096W        W78679   1.316  13.658   4.557
 7097W        W78680  13.412  15.474  12.181
 7098W        W78681  25.684  18.703   0.232
 7099W        W78682  10.317   0.900   1.815
 7100W        W78683   7.366   4.986  14.252
 7101W        W78684  28.119   1.942  13.603
 7102W        W78685  36.872  18.352  10.533
 7103W        W78686   7.073   6.906  14.437
 7104W        W78687  22.520  19.790  13.891
 7105W        W78688  43.025  32.499   0.049
 7106W        W78689  38.208   6.246  10.328
 7107W        W78690  14.386  27.919  11.205
 7108W        W78691   4.443  44.860   3.868
 7109W        W78692  13.486   3.737   2.184
 7110W        W78693   8.893  30.913   3.814
 7111W        W78694  39.275  38.964   1.938
 7112W        W78695  28.993  33.416   2.187
 7113W        W78696   2.259  10.285  10.835
 7114W        W78697  22.686  12.448  14.946
 7115W        W78698  19.680  29.466  13.947
 7116W        W78699  36.918  30.053   0.402
 7117W        W78700  18.735  25.999  10.322
 7118W        W78701  20.403   4.538   2.169
 7119W        W78702   0.350  28.148  14.422
 7120W        W78703  32.511  32.170   4.617
 7121W        W78704  26.105  27.289  10.502
 7122W        W78705   8.582  29.447   0.953
 7123W        W78706  23.489  17.573   1.287
 7124W        W78707  22.288  11.871   1.079
 7125W        W78708  14.084   3.670  10.899
 7126W        W78709  42.404  26.575   5.269
 7127W        W78710  43.849  25.765  11.239
 7128W        W78711  18.085  17.706   4.026
 7129W        W78712  34.262  13.884  13.295
 7130W        W78713  32.931   5.140   4.148
 7131W        W78714   7.276  32.637  14.492
 7132W        W78715  40.147  39.532   0.321
 7133W        W78716  32.838  24.367  12.112
 7134W        W78717  14.105  16.302  14.789
 7135W        W78718  29.503  20.996   5.009
 7136W        W78719   3.489  13.187   4.540
 7137W        W78720  16.781  22.993   0.193
 7138W        W78721  25.293   4.372  10.907
 7139W        W78722  38.087   7.896  11.092
 7140W        W78723  22.775  21.724   0.046
 7141W        W78724  11.212  12.048  14.950
 7142W        W78725  32.573  20.302   1.726
 7143W        W78726  44.361  24.627  11.225
 7144W        W78727   9.149  22.100   2.588
 7145W        W78728  40.593  32.055   1.320
 7146W        W78729  15.352  28.535  10.712
 7147W        W78730  29.167   3.751   4.192
 7148W        W78731  28.148  44.390   2.586
 7149W        W78732  32.497  20.785   2.681
 7150W        W78733   7.844  16.817  10.732
 7151W        W78734   3.768  42.918  13.568
 7152W        W78735   5.781  35.552  11.658
 7153W        W78736  29.597  33.725   1.233
 7154W        W78737  23.722  28.689   0.336
 7155W        W78738  44.304  43.363  11.584
 7156W        W78739  10.772  18.226  13.335
 7157W        W78740  42.525  44.306  12.205
 7158W        W78741   7.099  23.020  11.992
 7159W        W78742  34.023  28.866   3.269
 7160W        W78743   7.001  27.652   0.415
 7161W        W78744  23.227  25.788  12.538
 7162W        W78745  37.987  36.522  11.947
 7163W        W78746  33.579  35.910  10.935
 7164W        W78747   6.806  12.933   2.218
 7165W        W78748  23.760  26.104   0.312
 7166W        W78749  18.478  11.281   1.236
 7167W        W78750  33.865  23.801   1.465
 7168W        W78751  32.056  18.035   4.857
 7169W        W78752  37.100  38.305   1.883
 7170W        W78753  30.942  43.049   0.823
 7171W        W78754   1.515  32.574  12.354
 7172W        W78755  44.022  39.425  11.482
 7173W        W78756  21.050  28.915  12.614
 7174W        W78757  38.612   0.772   2.694
 7175W        W78758  31.226  12.183   2.780
 7176W        W78759  39.548  30.196   0.779
 7177W        W78760  38.323   7.241   3.304
 7178W        W78761  18.045  19.222   4.774
 7179W        W78762  26.180  26.506   3.698
 7180W        W78763  21.380  15.559  11.078
 7181W        W78764  10.429  41.365  11.513
 7182W        W78765  39.643  12.170  10.781
 7183W        W78766  10.183  42.855   1.458
 7184W        W78767  44.485  25.102   0.419
 7185W        W78768  35.082  30.312  13.463
 7186W        W78769  13.746  19.027  12.415
 7187W        W78770  32.544  40.076   2.086
 7188W        W78771  16.703  11.487   3.163
 7189W        W78772   4.868   1.248   4.954
 7190W        W78773  23.526   4.227   3.365
 7191W        W78774  10.202  19.453   0.331
 7192W        W78775  40.509  24.051  10.743
 7193W        W78776   7.481  39.100  14.392
 7194W        W78777  26.127  42.488  14.414
 7195W        W78778  17.620  22.400   2.361
 7196W        W78779  19.717  14.607  10.743
 7197W        W78780  10.235   2.987  12.315
 7198W        W78781  27.151   6.153  11.182
 7199W        W78782  11.381  40.938   0.684
 7200W        W78783   9.876  33.480   1.707
 7201W        W78784  25.612  42.926   3.886
 7202W        W78785  10.211  19.247  13.529
 7203W        W78786  28.927   6.349   1.831
 7204W        W78787  34.648   8.810   3.184
 7205W        W78788  16.051   6.694   0.889
 7206W        W78789   7.458  42.516  11.066
 7207W        W78790  29.434  24.980   3.623
 7208W        W78791  11.437  16.826  13.848
 7209W        W78792   2.532  34.870  11.650
 7210W        W78793  27.599  41.838   1.434
 7211W        W78794  38.487   1.440   1.842
 7212W        W78795  38.569  28.144   0.466
 7213W        W78796  17.641  18.059  13.885
 7214W        W78797  39.510  24.115  11.649
 7215W        W78798  19.413  16.748  11.255
 7216W        W78799  39.089  17.501   0.215
 7217W        W78800  38.119  20.146   3.866
 7218W        W78801  32.463  42.921   3.261
 7219W        W78802  22.056  18.091  10.702
 7220W        W78803  27.280  24.158   1.659
 7221W        W78804   9.905  13.340  12.277
 7222W        W78805  18.559  12.091   4.122
 7223W        W78806  28.141   9.185   2.372
 7224W        W78807   6.601  44.751  11.145
 7225W        W78808  21.648  18.272  13.577
 7226W        W78809  29.464  13.080   0.255
 7227W        W78810  17.545  17.527   2.665
 7228W        W78811   1.160  32.082  11.130
 7229W        W78812  16.560   5.764  12.906
 7230W        W78813  40.128  29.559  11.175
 7231W        W78814  20.283   5.431  10.799
 7232W        W78815   0.200   4.478   3.037
 7233W        W78816  44.710  10.096   1.771
 7234W        W78817  16.634  23.677   3.844
 7235W        W78818  10.609  37.928   2.759
 7236W        W78819  40.546  11.053   3.624
 7237W        W78820  10.350  25.989  12.500
 7238W        W78821  35.592  17.167  14.407
 7239W        W78822  16.436  14.837  13.272
 7240W        W78823  29.711  35.397  12.949
 7241W        W78824  27.674  15.705   5.013
 7242W        W78825  44.892  17.579  11.305
 7243W        W78826  42.708  25.466  12.065
 7244W        W78827  32.035   4.147   1.860
 7245W        W78828  17.163   7.196  10.739
 7246W        W78829  16.244  42.303  10.876
 7247W        W78830  15.435  42.352  12.984
 7248W        W78831  25.010  31.553  14.011
 7249W        W78832  33.892  13.039   0.219
 7250W        W78833   7.898  25.000  10.675
 7251W        W78834  31.452  14.185   2.380
 7252W        W78835  21.990   8.377  13.950
 7253W        W78836  39.707  30.549   2.427
 7254W        W78837   1.478  13.031   0.369
 7255W        W78838  30.590  27.004  14.120
 7256W        W78839  27.035  35.774  12.447
 7257W        W78840  10.056   9.753   2.775
 7258W        W78841  34.154  26.555  10.963
 7259W        W78842   0.411   1.015  12.411
 7260W        W78843  41.025  23.414  14.022
 7261W        W78844  27.202  25.124  13.381
 7262W        W78845  19.211  41.955  11.478
 7263W        W78846   1.798   7.897  14.299
 7264W        W78847   1.852  18.503   0.022
 7265W        W78848  31.001   6.654  14.374
 7266W        W78849   0.856  43.261   1.072
 7267W        W78850   3.471  43.431   2.683
 7268W        W78851  25.229   5.921  11.072
 7269W        W78852  41.858  10.321   4.715
 7270W        W78853  22.093  14.806  13.991
 7271W        W78854  23.958  23.055   3.159
 7272W        W78855  21.516  27.691   0.761
 7273W        W78856  38.983  26.704   1.903
 7274W        W78857  40.519   0.360   3.602
 7275W        W78858  41.477  14.127  14.792
 7276W        W78859  30.509  31.454   2.335
 7277W        W78860  30.536  35.971  12.674
 7278W        W78861   2.450  39.540   1.937
 7279W        W78862  14.738   4.804   1.367
 7280W        W78863  34.421  26.934  13.924
 7281W        W78864  13.804  31.065  11.659
 7282W        W78865   2.001  26.724  14.372
 7283W        W78866  10.159   2.834  10.860
 7284W        W78867  26.012  43.406  12.860
 7285W        W78868  32.182  18.651   2.252
 7286W        W78869  20.253  43.956   2.278
 7287W        W78870   4.205  42.938  14.843
 7288W        W78871   3.938  29.216  12.546
 7289W        W78872   7.264  20.325   1.321
 7290W        W78873   4.976  16.798  13.809
 7291W        W78874  16.397   3.903   1.292
 7292W        W78875   7.373  39.561  13.427
 7293W        W78876  18.557   8.859  10.716
 7294W        W78877  39.356  11.102   4.336
 7295W        W78878  12.157  15.214   0.493
 7296W        W78879  44.558  32.166  12.171
 7297W        W78880  14.412   1.841   0.568
 7298W        W78881  10.733  25.886  13.556
 7299W        W78882  35.814   8.007  12.412
 7300W        W78883   9.181   3.451  13.395
 7301W        W78884  39.950  11.445   3.132
 7302W        W78885  31.481  18.803  11.097
 7303W        W78886  34.862  43.842  12.476
 7304W        W78887  34.021  28.539  12.493
 7305W        W78888  23.685  37.368  12.106
 7306W        W78889   6.781  11.171  10.647
 7307W        W78890  26.182  34.309  12.698
 7308W        W78891  26.121  38.293   4.016
 7309W        W78892  18.025   2.935   4.659
 7310W        W78893   3.871   8.061   0.210
 7311W        W78894   2.294  40.384   1.791
 7312W        W78895  27.102   8.701   0.158
 7313W        W78896  31.003  22.559  11.902
 7314W        W78897  16.288  44.255  12.853
 7315W        W78898  14.752   5.980   3.639
 7316W        W78899  27.000  19.032  11.138
 7317W        W78900   4.587  11.370  11.179
 7318W        W78901  35.850  44.780  12.044
 7319W        W78902  44.457  28.646  14.720
 7320W        W78903  36.097   8.806  12.927
 7321W        W78904  11.745  36.315  11.249
 7322W        W78905  10.347  42.802  10.078
 7323W        W78906   4.844  40.218  14.417
 7324W        W78907  18.797  11.298  13.943
 7325W        W78908   4.731  32.183  10.759
 7326W        W78909  33.962   7.273  11.721
 7327W        W78910  39.341  24.739  13.045
 7328W        W78911  44.473  39.045  10.851
 7329W        W78912  13.023  11.673   1.921
 7330W        W78913  17.574  31.529  13.368
 7331W        W78914   3.451  35.495   2.156
 7332W        W78915   4.151  13.559  13.649
 7333W        W78916  33.484  19.011   4.801
 7334W        W78917  23.080  32.188  12.986
 7335W        W78918  36.539  22.693  14.438
 7336W        W78919  41.983  26.704  11.508
 7337W        W78920  26.629   2.429   1.678
 7338W        W78921   4.709  34.091   1.222
 7339W        W78922  35.891  41.817  14.991
 7340W        W78923  40.863  35.405  12.476
 7341W        W78924  28.629   2.888  11.425
 7342W        W78925   6.700  44.200  11.967
 7343W        W78926  44.779  44.085  11.553
 7344W        W78927  32.372  30.577  12.478
 7345W        W78928  38.080  40.533  13.037
 7346W        W78929  26.762  18.450  14.540
 7347W        W78930  12.043  13.401  11.078
 7348W        W78931  13.160  39.675  10.231
 7349W        W78932  43.383   1.778   3.680
 7350W        W78933  33.077  10.488  14.345
 7351W        W78934  23.260  26.018   0.430
 7352W        W78935  20.602  36.383  14.406
 7353W        W78936  12.689  31.200   3.800
 7354W        W78937  11.865  10.208  10.394
 7355W        W78938  28.687   9.858  12.529
 7356W        W78939   9.641   8.261  13.538
 7357W        W78940  39.208  21.971  12.082
 7358W        W78941  38.886   1.540  14.291
 7359W        W78942  27.063  44.281  11.394
 7360W        W78943  21.939  25.149   3.727
 7361W        W78944  18.740   2.549   3.626
 7362W        W78945   7.635  21.560  13.376
 7363W        W78946   2.338   9.779  10.741
 7364W        W78947  40.736  12.757  11.981
 7365W        W78948  41.521  31.657  11.851
 7366W        W78949  17.234  33.380  12.552
 7367W        W78950   3.957  37.492   1.873
 7368W        W78951  30.545  31.268   0.287
 7369W        W78952  44.764  26.210   1.295
 7370W        W78953  23.579  41.056  13.963
 7371W        W78954  37.094  22.548   1.940
 7372W        W78955  11.272  30.086  10.588
 7373W        W78956   2.869   1.362   3.416
 7374W        W78957  27.767  42.809  14.958
 7375W        W78958  33.458  29.112   4.049
 7376W        W78959  27.947  11.670   0.066
 7377W        W78960  38.265  29.500   2.317
 7378W        W78961   5.079  29.090  11.107
 7379W        W78962  19.165  43.862   4.421
 7380W        W78963  35.597  11.374  13.959
 7381W        W78964   0.871  34.510   2.670
 7382W        W78965  37.111  35.596   3.656
 7383W        W78966   9.631  20.744  13.369
 7384W        W78967  14.160  19.259  14.738
 7385W        W78968  37.658  10.132  14.288
 7386W        W78969  21.245   5.553   4.526
 7387W        W78970  44.481  12.170  11.584
 7388W        W78971   9.846  14.412  13.350
 7389W        W78972  14.260  30.027  11.986
 7390W        W78973  25.104   9.116   2.425
 7391W        W78974   2.894   5.835  13.820
 7392W        W78975   2.813  43.476  10.745
 7393W        W78976  40.779  13.970   0.063
 7394W        W78977  13.267   5.250  13.766
 7395W        W78978  36.051  36.250  14.312
 7396W        W78979  40.833  16.161  10.919
 7397W        W78980   5.413  29.149  12.444
 7398W        W78981  23.787   6.383   0.494
 7399W        W78982   0.754  18.356   2.792
 7400W        W78983  40.561  13.801   1.272
 7401W        W78984  11.681  14.266   3.062
 7402W        W78985   4.230  37.923  14.055
 7403W        W78986  13.151  18.322  12.013
 7404W        W78987  17.613  16.637   1.492
 7405W        W78988  37.456  37.551   5.049
 7406W        W78989  20.747  32.943  12.460
 7407W        W78990  33.352  14.374   4.058
 7408W        W78991  38.833  10.676   1.251
 7409W        W78992  30.673  30.130   1.662
 7410W        W78993  31.481  10.454   3.529
 7411W        W78994  22.717  32.460   3.718
 7412W        W78995  37.271  21.691  11.559
 7413W        W78996  19.916  22.620  13.449
 7414W        W78997   2.809  22.334   2.749
 7415W        W78998   9.522  10.300  13.796
 7416W        W78999  34.883  25.581  12.596
 7417W        W79000  21.821  26.736   9.805
 7418W        W79001   2.672  29.198   2.860
 7419W        W79002   8.815  27.369   3.225
 7420W        W79003  19.162  14.681  14.929
 7421W        W79004  35.264   9.679   4.105
 7422W        W79005   8.353  18.705   2.564
 7423W        W79006  11.202  34.142  11.540
 7424W        W79007  33.490  34.027  14.007
 7425W        W79008  16.338  27.444   4.547
 7426W        W79009  35.508  27.910   4.150
 7427W        W79010  21.158   3.499  14.551
 7428W        W79011  16.506  41.495   4.158
 7429W        W79012   9.360  22.667   0.768
 7430W        W79013  21.425  25.155   3.614
 7431W        W79014   2.782  13.049   3.404
 7432W        W79015  33.132  18.800   2.238
 7433W        W79016  44.507  43.912   2.271
 7434W        W79017  15.689  37.892   1.696
 7435W        W79018   8.581  42.737  13.519
 7436W        W79019  26.709  33.627   3.352
 7437W        W79020  44.541  20.085   0.305
 7438W        W79021  18.011   8.142   3.159
 7439W        W79022  33.538  22.238   3.003
 7440W        W79023  42.051  28.444   4.595
 7441W        W79024  17.902   9.803  14.939
 7442W        W79025  10.643  12.155   4.567
 7443W        W79026   3.446  28.621  14.790
 7444W        W79027   2.425  28.240   0.772
 7445W        W79028   9.525   2.296   2.825
 7446W        W79029  12.249  10.328  12.913
 7447W        W79030  18.698  19.609   1.633
 7448W        W79031  13.699  39.811  11.450
 7449W        W79032  24.557  44.053  11.170
 7450W        W79033   6.675  24.046  13.909
 7451W        W79034  25.852  26.176  12.973
 7452W        W79035  42.437  43.988   4.593
 7453W        W79036  25.092  39.905   4.855
 7454W        W79037  29.572  12.172   2.919
 7455W        W79038   1.696  39.886  12.795
 7456W        W79039  19.881   3.663   0.848
 7457W        W79040  40.917  18.323   1.679
 7458W        W79041   9.396   8.444  14.485
 7459W        W79042  42.352  14.366   2.689
 7460W        W79043  40.389  38.922   4.525
 7461W        W79044  19.336  31.917  10.359
 7462W        W79045  19.357   6.659  10.698
 7463W        W79046   3.674  35.961   2.289
 7464W        W79047  25.189   6.434  12.642
 7465W        W79048  23.542  22.285   2.696
 7466W        W79049   4.313  33.684  10.613
 7467W        W79050   6.576   8.428  12.424
 7468W        W79051  35.161   4.733  11.193
 7469W        W79052  10.445   9.798   1.224
 7470W        W79053  22.307  14.153  13.488
 7471W        W79054   2.647   9.939   2.691
 7472W        W79055  44.012  25.655  14.435
 7473W        W79056  30.987  23.649   0.393
 7474W        W79057  21.921  19.770   3.673
 7475W        W79058  19.258  15.327   3.768
 7476W        W79059  17.842  42.441   4.558
 7477W        W79060   1.798  32.413  11.944
 7478W        W79061  35.027  31.143  14.973
 7479W        W79062  19.519  41.172   2.702
 7480W        W79063  35.816  26.421   3.776
 7481W        W79064  24.474  10.120   0.886
 7482W        W79065  37.444  29.651   5.074
 7483W        W79066  21.162  27.460   9.769
 7484W        W79067  31.153  30.004   0.185
 7485W        W79068  15.751  10.097   4.158
 7486W        W79069   9.482  22.494   9.945
 7487W        W79070  25.257  25.714  10.702
 7488W        W79071  39.054  24.600  12.626
 7489W        W79072  12.372   0.397  14.711
 7490W        W79073  15.924  14.065  14.791
 7491W        W79074   0.043  34.590   2.798
 7492W        W79075  40.322  28.127   2.823
 7493W        W79076  30.285   0.886  12.122
 7494W        W79077  22.707  16.318   2.446
 7495W        W79078   9.911   2.928   1.763
 7496W        W79079  38.783  35.902   5.090
 7497W        W79080   8.173   1.717  12.417
 7498W        W79081  38.589  24.388  12.655
 7499W        W79082  29.702  20.612   0.523
 7500W        W79083  31.973  26.034  13.836
 7501W        W79084  11.045   8.871  10.915
 7502W        W79085  25.243   9.705  12.970
 7503W        W79086  13.399  15.242  14.846
 7504W        W79087   3.198  37.344   0.623
 7505W        W79088  14.574   6.877   2.148
 7506W        W79089  11.356  44.319   3.823
 7507W        W79090  16.535  19.179   2.701
 7508W        W79091  29.422  35.445   3.844
 7509W        W79092   0.921  43.675  13.570
 7510W        W79093  27.124  24.622  13.350
 7511W        W79094  18.611  10.787  13.953
 7512W        W79095  27.181  24.093  12.111
 7513W        W79096  27.968  23.265  13.977
 7514W        W79097   6.344  12.031   0.311
 7515W        W79098   9.109  12.985  12.516
 7516W        W79099  23.178  35.332  12.326
 7517W        W79100  19.617  11.541   3.132
 7518W        W79101  19.251  26.543   1.318
 7519W        W79102  43.906  29.144  10.643
 7520W        W79103  40.624  29.142  12.062
 7521W        W79104  39.183  10.593  12.909
 7522W        W79105  16.428  35.395   1.877
 7523W        W79106   9.607  39.920   0.143
 7524W        W79107  14.879   7.070  11.481
 7525W        W79108   2.372  10.866  13.970
 7526W        W79109  43.943  33.891  11.979
 7527W        W79110   0.341  38.014   2.814
 7528W        W79111   0.359   0.779   1.665
 7529W        W79112  26.042  11.355  14.247
 7530W        W79113   2.004   9.336   1.832
 7531W        W79114  36.864   5.432  13.635
 7532W        W79115  17.122  15.982  13.658
 7533W        W79116  11.093  12.240   4.868
 7534W        W79117   3.645  44.025  11.128
 7535W        W79118   2.377  28.144  14.353
 7536W        W79119   7.316  40.516  11.405
 7537W        W79120  29.856  35.053   0.226
 7538W        W79121  44.626  21.686  12.188
 7539W        W79122  22.728  31.582  11.489
 7540W        W79123  33.482  26.829  14.496
 7541W        W79124  40.548   6.946   4.741
 7542W        W79125  16.570  41.459  11.204
 7543W        W79126  17.627  39.882  12.066
 7544W        W79127  17.349  31.288  11.148
 7545W        W79128  13.455  40.470  12.539
 7546W        W79129  40.298  20.595  13.527
 7547W        W79130  18.105   4.812   1.253
 7548W        W79131  17.854   3.432   4.511
 7549W        W79132  28.917  34.656   2.687
 7550W        W79133  13.534  27.554   1.358
 7551W        W79134  43.286  21.719   3.122
 7552W        W79135   0.516  41.310   3.083
 7553W        W79136  40.222  16.248  12.054
 7554W        W79137   1.894   7.210   0.589
 7555W        W79138  31.394  12.042  12.263
 7556W        W79139  28.505  36.403   4.623
 7557W        W79140   7.803  35.146  14.017
 7558W        W79141  16.368  44.833  12.026
 7559W        W79142  24.135   1.851   4.127
 7560W        W79143   1.312  40.393  12.120
 7561W        W79144  26.051  17.742   4.370
 7562W        W79145  21.741  28.812   5.062
 7563W        W79146   2.883   4.885   4.479
 7564W        W79147   8.859  23.086  10.744
 7565W        W79148  19.500  41.775   4.126
 7566W        W79149   6.667  37.624  10.687
 7567W        W79150   4.729  43.874   1.908
 7568W        W79151  25.075  35.939   0.763
 7569W        W79152  10.868  33.469   3.901
 7570W        W79153  10.279   1.144  13.470
 7571W        W79154  41.768  34.280  11.169
 7572W        W79155   3.832  32.293   2.277
 7573W        W79156   5.378   2.944  12.649
 7574W        W79157  39.992  19.756   4.445
 7575W        W79158  13.657  35.085   2.893
 7576W        W79159   6.210  28.169   4.603
 7577W        W79160  20.964  10.740  12.309
 7578W        W79161  35.520  42.393  13.759
 7579W        W79162  42.331   0.760  13.486
 7580W        W79163  33.578  10.374  13.097
 7581W        W79164  25.624  43.360   0.298
 7582W        W79165  40.967  18.330   4.613
 7583W        W79166   3.433  40.613   3.226
 7584W        W79167  39.246   6.358  12.348
 7585W        W79168  35.969  12.033   3.696
 7586W        W79169  27.257  17.685   3.206
 7587W        W79170  15.223  21.109  11.429
 7588W        W79171  10.228  10.408   3.726
 7589W        W79172  33.522  14.047   3.703
 7590W        W79173   3.579  27.274   3.109
 7591W        W79174  19.646   5.848   4.416
 7592W        W79175  22.600  31.414  14.907
 7593W        W79176  22.917  42.239   3.261
 7594W        W79177  14.199  16.040   4.774
 7595W        W79178  43.502   9.823   0.922
 7596W        W79179   4.093  23.691   1.272
 7597W        W79180  25.222  41.310  12.658
 7598W        W79181  44.728   1.532   0.903
 7599W        W79182  24.579   9.973   2.413
 7600W        W79183   6.621  41.035  13.420
 7601W        W79184  15.184  36.489   4.371
 7602W        W79185  31.841  19.248   5.005
 7603W        W79186  40.477  35.030   2.438
 7604W        W79187  31.547  29.945  11.383
 7605W        W79188   5.218  31.447   4.343
 7606W        W79189  37.912  27.352   3.319
 7607W        W79190  14.225  38.120   2.837
 7608W        W79191   7.140  39.467  12.926
 7609W        W79192  29.622  10.320  14.337
 7610W        W79193  11.739  39.647   4.496
 7611W        W79194  12.307  14.299   4.618
 7612W        W79195  42.929  16.618   0.233
 7613W        W79196  11.613   0.599   3.762
 7614W        W79197  35.102  16.067   1.337
 7615W        W79198  28.467  34.944   3.570
 7616W        W79199  13.783  24.218   1.722
 7617W        W79200  10.175  36.710   1.740
 7618W        W79201  39.194  31.414  10.126
 7619W        W79202  41.918  27.616  14.817
 7620W        W79203  36.184   8.472  11.130
 7621W        W79204  27.642  18.513   4.334
 7622W        W79205  37.991  22.242   0.113
 7623W        W79206  41.640  13.815  13.077
 7624W        W79207   4.643  22.212  12.064
 7625W        W79208  41.988  32.626   0.851
 7626W        W79209  33.311   2.062   2.336
 7627W        W79210  30.771   8.567  11.720
 7628W        W79211  10.314  34.871  10.537
 7629W        W79212  30.354  11.402   1.878
 7630W        W79213  20.229  10.830   4.327
 7631W        W79214  22.445   6.367  12.904
 7632W        W79215  43.385  36.860  11.383
 7633W        W79216   2.804  22.269   0.996
 7634W        W79217   9.823  13.375   3.332
 7635W        W79218  34.364  27.319   0.438
 7636W        W79219  21.376  41.071  11.788
 7637W        W79220  32.452   2.249   1.678
 7638W        W79221   2.829   1.448   0.546
 7639W        W79222  39.106  40.221  11.338
 7640W        W79223  27.085  21.454  12.518
 7641W        W79224  21.866   8.122  10.777
 7642W        W79225  32.405   4.989  12.021
 7643W        W79226   9.598  19.681  14.292
 7644W        W79227  31.609   1.868  10.764
 7645W        W79228  11.781  37.829  11.491
 7646W        W79229  32.898  10.455   3.757
 7647W        W79230  25.858  26.965  12.091
 7648W        W79231  22.004  44.831   4.117
 7649W        W79232  30.474  44.852  14.488
 7650W        W79233  36.037  21.730   2.344
 7651W        W79234  24.153  27.747   0.637
 7652W        W79235  21.003  16.441   5.013
 7653W        W79236  43.433   4.216  13.994
 7654W        W79237  30.016   7.024   4.747
 7655W        W79238  31.630   1.432   1.264
 7656W        W79239  29.065  27.897   3.633
 7657W        W79240  19.696   0.505   3.868
 7658W        W79241  42.616  23.982   4.628
 7659W        W79242   2.395  27.430   1.274
 7660W        W79243  16.814  37.458  10.651
 7661W        W79244  11.961   8.915  13.918
 7662W        W79245   9.593  18.515  13.337
 7663W        W79246   1.038  40.528  11.642
 7664W        W79247  27.939  20.572   3.120
 7665W        W79248  36.352  36.787  13.248
 7666W        W79249  10.601  15.609  10.832
 7667W        W79250  18.083   4.290  13.828
 7668W        W79251  36.811  13.082   5.111
 7669W        W79252   6.319  11.839   3.407
 7670W        W79253   4.689   8.131   2.099
 7671W        W79254  43.323  36.845  11.899
 7672W        W79255  23.559  27.600  10.681
 7673W        W79256  37.999  14.067  14.293
 7674W        W79257   0.715  24.552  11.562
 7675W        W79258  15.660  27.162   1.821
 7676W        W79259  28.147  29.127   0.379
 7677W        W79260  17.802  40.276   3.698
 7678W        W79261   9.183  38.514   3.909
 7679W        W79262  29.379  34.860  10.713
 7680W        W79263  23.052   3.116   4.839
 7681W        W79264   8.889  37.568  13.514
 7682W        W79265  38.594  19.595  14.894
 7683W        W79266  35.554  26.592   4.208
 7684W        W79267   4.452  18.496   0.508
 7685W        W79268   7.689  15.705   3.219
 7686W        W79269  24.279  40.821  12.963
 7687W        W79270  11.454  18.250   4.100
 7688W        W79271  26.445  38.082  12.959
 7689W        W79272  10.429  34.741  13.494
 7690W        W79273   1.335  17.353  12.752
 7691W        W79274  35.224   2.501  10.610
 7692W        W79275  44.460   0.452   0.221
 7693W        W79276  38.387  29.136   0.835
 7694W        W79277  12.348  11.978  11.501
 7695W        W79278  29.998  31.837   2.429
 7696W        W79279  23.689   6.218   0.021
 7697W        W79280  11.700  24.819   3.703
 7698W        W79281   3.704   4.404   2.359
 7699W        W79282  10.354  42.938   3.798
 7700W        W79283   6.904   4.730  10.983
 7701W        W79284  32.555   2.305  11.004
 7702W        W79285   8.050   7.155  13.235
 7703W        W79286  32.186  39.424  13.366
 7704W        W79287  30.970  17.671   4.163
 7705W        W79288   7.762  31.915   2.106
 7706W        W79289   9.588  28.765   3.747
 7707W        W79290  21.557  25.646   4.088
 7708W        W79291  14.728  35.368  11.876
 7709W        W79292  23.717  42.523   3.654
 7710W        W79293  17.250  11.806   0.427
 7711W        W79294  15.698  11.660  10.665
 7712W        W79295  36.579  26.158   1.905
 7713W        W79296  41.027  28.686  13.963
 7714W        W79297  10.889  19.646  13.011
 7715W        W79298  13.107  29.055  12.535
 7716W        W79299  21.188  19.556   3.150
 7717W        W79300  22.712  27.383  10.524
 7718W        W79301  24.040  14.135   3.649
 7719W        W79302   2.626   4.455   4.359
 7720W        W79303  15.813   1.539   4.660
 7721W        W79304   3.409   7.360  10.165
 7722W        W79305  38.588   4.886  10.394
 7723W        W79306  18.768  39.136  11.176
 7724W        W79307   5.599  20.648   4.699
 7725W        W79308  27.229  20.600   0.096
 7726W        W79309  44.578   9.429   4.197
 7727W        W79310   1.414  35.567  13.329
 7728W        W79311  23.742   0.776  12.916
 7729W        W79312  19.282  14.001  12.184
 7730W        W79313  13.098  41.104  11.051
 7731W        W79314  18.077   2.333  12.534
 7732W        W79315  16.861  44.973  14.695
 7733W        W79316  40.579  28.942  14.020
 7734W        W79317  13.904   3.109   3.494
 7735W        W79318   3.322   4.527   3.236
 7736W        W79319  16.991  24.454   0.839
 7737W        W79320  11.046  14.008   1.861
 7738W        W79321  43.477  26.137   0.871
 7739W        W79322  37.429  11.430  13.651
 7740W        W79323  15.789  13.595   1.271
 7741W        W79324  23.639  23.297   0.980
 7742W        W79325  32.062  37.574   2.376
 7743W        W79326  29.014  15.572   4.565
 7744W        W79327  39.045  24.798   2.393
 7745W        W79328  25.700   9.264   1.237
 7746W        W79329  19.476   9.354  13.869
 7747W        W79330  34.593  17.509   2.984
 7748W        W79331   0.349  13.389  14.330
 7749W        W79332   7.759  18.658  13.042
 7750W        W79333  25.665  44.849   1.483
 7751W        W79334  16.255  16.310  14.911
 7752W        W79335  31.282  19.725   0.745
 7753W        W79336  19.600  43.295   3.319
 7754W        W79337  41.745  39.521   2.326
 7755W        W79338  25.346  44.178   2.589
 7756W        W79339  44.973  16.177   0.224
 7757W        W79340   6.495  10.428   4.238
 7758W        W79341  19.527   2.365   1.051
 7759W        W79342   6.379   2.930  14.071
 7760W        W79343  25.445  26.587  11.533
 7761W        W79344  36.398  21.242  11.868
 7762W        W79345  16.290  15.671  11.040
 7763W        W79346   3.137  18.095   2.844
 7764W        W79347  14.050  43.246   3.334
 7765W        W79348  10.845   7.469  11.243
 7766W        W79349  16.398  20.581  10.689
 7767W        W79350  40.658   7.680   1.780
 7768W        W79351  44.809  12.127   2.784
 7769W        W79352  27.097  21.114  11.663
 7770W        W79353  29.410  22.390   0.371
 7771W        W79354  10.663  21.200   0.833
 7772W        W79355  27.991  36.759  14.420
 7773W        W79356  11.449  29.610  10.690
 7774W        W79357  27.950   7.935  13.839
 7775W        W79358  11.985   4.844  11.037
 7776W        W79359  26.537   8.854  12.101
 7777W        W79360  24.047  20.498  10.367
 7778W        W79361  31.094  15.356  13.019
 7779W        W79362  19.031  11.382  12.981
 7780W        W79363  29.804  13.744  11.601
 7781W        W79364  35.173  26.682   0.941
 7782W        W79365  42.052  40.537   3.309
 7783W        W79366   8.957  30.596   1.782
 7784W        W79367  41.459   0.203   1.663
 7785W        W79368  29.684  43.291   1.422
 7786W        W79369   3.694   2.611  13.841
 7787W        W79370  40.859   5.761   1.324
 7788W        W79371  33.608  43.027   4.836
 7789W        W79372  44.987  31.721   0.665
 7790W        W79373  41.276  40.729  10.712
 7791W        W79374   2.239   9.199   4.008
 7792W        W79375  39.938  42.867  14.938
 7793W        W79376  18.511  44.464  10.147
 7794W        W79377  34.335  24.137  11.951
 7795W        W79378  18.004  16.333  11.610
 7796W        W79379  22.516  28.982   4.597
 7797W        W79380   1.509  20.054   1.772
 7798W        W79381   1.922  23.108  11.269
 7799W        W79382  19.124  43.847  10.822
 7800W        W79383   4.667  28.993  12.076
 7801W        W79384  44.995   6.213   1.882
 7802W        W79385  33.066  37.357  12.184
 7803W        W79386  25.265  24.094  11.317
 7804W        W79387  22.947  10.582  10.817
 7805W        W79388  33.848  29.605   0.972
 7806W        W79389   7.821  41.536  14.292
 7807W        W79390  10.847  35.815  13.093
 7808W        W79391  33.983  43.161  13.948
 7809W        W79392  29.104  12.622  10.360
 7810W        W79393  12.760   2.910  12.896
 7811W        W79394   7.544  23.966   1.784
 7812W        W79395  17.753  10.915   4.027
 7813W        W79396   6.322   3.462   3.207
 7814W        W79397  38.007  15.314   1.803
 7815W        W79398  32.009  42.906   2.290
 7816W        W79399  24.020  27.691  12.482
 7817W        W79400   1.744  33.403  13.291
 7818W        W79401  28.185   5.803   2.067
 7819W        W79402  18.224  34.455   3.342
 7820W        W79403   3.919  34.665   0.807
 7821W        W79404  22.523  21.384   4.122
 7822W        W79405  11.311  15.653  10.090
 7823W        W79406  39.069  41.845  12.594
 7824W        W79407  24.026  44.262   3.101
 7825W        W79408  30.901  30.689  11.655
 7826W        W79409  41.875  28.441  12.089
 7827W        W79410   6.729  38.066  13.443
 7828W        W79411  23.798  33.014  12.396
 7829W        W79412  17.148   1.978   1.450
 7830W        W79413  23.040   9.873  12.409
 7831W        W79414  40.371  24.276   0.774
 7832W        W79415  16.552  34.052  13.772
 7833W        W79416   4.785  14.971  13.419
 7834W        W79417   7.081  34.000  11.962
 7835W        W79418   2.434  11.687   2.386
 7836W        W79419  39.111  34.029  14.873
 7837W        W79420  12.266  24.604   4.506
 7838W        W79421   5.326  39.819   3.120
 7839W        W79422  27.732   6.979  13.954
 7840W        W79423   5.349   5.710  12.902
 7841W        W79424  19.132  37.879   4.861
 7842W        W79425  40.389  19.167  11.490
 7843W        W79426  28.569   1.446  13.749
 7844W        W79427  39.433   8.705  11.004
 7845W        W79428  16.971  14.311  11.619
 7846W        W79429  38.343  36.863  12.124
 7847W        W79430   9.836   0.904   0.543
 7848W        W79431  11.687  24.021  14.882
 7849W        W79432  12.328  20.144   1.274
 7850W        W79433  14.870  29.983  13.236
 7851W        W79434   0.533  21.017   2.130
 7852W        W79435  40.888  14.616  12.142
 7853W        W79436  37.273  17.573  12.973
 7854W        W79437   9.751  35.435  10.743
 7855W        W79438   4.166   4.404  13.985
 7856W        W79439  43.778   6.204  13.472
 7857W        W79440  44.276  33.393   0.356
 7858W        W79441  27.617  28.680  14.278
 7859W        W79442  42.817  25.913   3.148
 7860W        W79443  26.483  16.098   3.270
 7861W        W79444   1.931   7.347   4.035
 7862W        W79445  10.164  12.605  12.875
 7863W        W79446  30.511   5.870  12.505
 7864W        W79447   4.415  36.454   3.796
 7865W        W79448  19.190   7.447  14.809
 7866W        W79449  28.565  31.861  11.163
 7867W        W79450  27.022   0.462  13.485
 7868W        W79451  34.598  25.602  11.990
 7869W        W79452   1.728  17.132   3.118
 7870W        W79453   8.752  11.298   0.760
 7871W        W79454  10.466  38.987  10.357
 7872W        W79455  28.131  26.911   3.683
 7873W        W79456   3.317   2.306  11.495
 7874W        W79457  17.094  41.548  11.963
 7875W        W79458  39.062  32.385  14.806
 7876W        W79459  31.991   0.310   1.891
 7877W        W79460   9.883   7.282  13.203
 7878W        W79461  27.823  17.861  10.956
 7879W        W79462  35.054  39.620  13.619
 7880W        W79463  10.740  17.129   1.357
 7881W        W79464   3.035   5.228  11.933
 7882W        W79465  24.840   1.293   4.876
 7883W        W79466  41.405   6.199   0.018
 7884W        W79467  17.583  27.045   3.868
 7885W        W79468  29.939  20.958  14.474
 7886W        W79469   8.696   8.885  13.436
 7887W        W79470  16.912   3.881   1.203
 7888W        W79471  32.284  38.418  13.218
 7889W        W79472   0.673   0.007  13.883
 7890W        W79473   9.698   9.972   4.070
 7891W        W79474   4.184   3.531   0.220
 7892W        W79475  38.713  21.769  13.122
 7893W        W79476   6.704  23.517  14.638
 7894W        W79477   5.488  39.606   1.433
 7895W        W79478  33.291  25.030   0.627
 7896W        W79479  41.466  12.433  11.537
 7897W        W79480  17.490  44.767  13.931
 7898W        W79481  29.601   6.762   1.255
 7899W        W79482  20.082  32.464  11.630
 7900W        W79483  17.861  18.014  14.939
 7901W        W79484  26.457  39.955  14.475
 7902W        W79485  33.940  17.797   3.134
 7903W        W79486  41.925  43.026  12.011
 7904W        W79487  25.508  13.527   0.431
 7905W        W79488  24.571  25.918  14.817
 7906W        W79489  41.903  42.318   4.181
 7907W        W79490  37.419   6.854  11.484
 7908W        W79491  20.754  14.800  10.794
 7909W        W79492  39.885  13.606  11.214
 7910W        W79493  42.199  38.285   1.250
 7911W        W79494  38.961  43.515  14.373
 7912W        W79495  26.352  20.499   0.443
 7913W        W79496  21.124  41.561   0.434
 7914W        W79497  41.313  33.078   2.704
 7915W        W79498  19.845  41.020  12.883
 7916W        W79499   1.834   1.546  13.024
 7917W        W79500  19.189   6.785   1.796
 7918W        W79501  29.943  35.324  14.441
 7919W        W79502   8.884  26.840   3.272
 7920W        W79503  22.602   2.005  14.818
 7921W        W79504  41.499  22.050   1.898
 7922W        W79505  31.666  22.048  11.552
 7923W        W79506  38.524  35.696   4.568
 7924W        W79507  38.963   4.573   4.028
 7925W        W79508   0.737   2.257   2.748
 7926W        W79509  37.463  15.309  14.390
 7927W        W79510  18.154  22.202  12.053
 7928W        W79511   4.162  10.109   2.688
 7929W        W79512  41.469  24.610   3.392
 7930W        W79513  19.395  44.692   4.502
 7931W        W79514  42.036  25.369   4.940
 7932W        W79515  23.623  28.230   3.163
 7933W        W79516  14.343  33.104   0.834
 7934W        W79517  14.384  23.074   1.026
 7935W        W79518  33.990   4.443  11.630
 7936W        W79519  27.560  23.127  11.293
 7937W        W79520  19.904  10.234  13.817
 7938W        W79521  14.790  21.237  11.693
 7939W        W79522  38.951  35.069  12.779
 7940W        W79523  13.608  42.826  13.794
 7941W        W79524   8.829  37.381  10.792
 7942W        W79525  38.416  19.723   3.882
 7943W        W79526  22.058  13.793  11.820
 7944W        W79527  30.402  11.643  12.912
 7945W        W79528  21.115  10.634  11.443
 7946W        W79529  26.180  22.863  14.710
 7947W        W79530  15.839  30.319  10.694
 7948W        W79531  28.862   1.813   1.190
 7949W        W79532   6.690   8.829   4.767
 7950W        W79533  31.787  17.874   0.495
 7951W        W79534  25.746  19.502  11.887
 7952W        W79535  12.659  33.109  11.182
 7953W        W79536  24.955  27.204   3.493
 7954W        W79537  41.262  20.189  11.047
 7955W        W79538  31.851  16.738  11.945
 7956W        W79539   6.015  24.261  12.562
 7957W        W79540  32.563  28.123   2.599
 7958W        W79541  30.854  31.082   0.921
 7959W        W79542  37.615  37.144  13.039
 7960W        W79543  30.622  41.753  11.545
 7961W        W79544  10.851  24.167  13.430
 7962W        W79545  38.047  19.079  13.518
 7963W        W79546  37.836  33.574   0.381
 7964W        W79547  16.896   5.315  13.582
 7965W        W79548  25.746  39.963  10.835
 7966W        W79549  40.951  23.857   1.446
 7967W        W79550   1.881   8.863   4.195
 7968W        W79551   6.272  19.067  11.143
 7969W        W79552  15.537  15.358   0.381
 7970W        W79553  42.428   2.391   2.758
 7971W        W79554   1.478  33.442  14.349
 7972W        W79555  27.056  30.737  13.326
 7973W        W79556  29.427  18.151   0.528
 7974W        W79557   2.485  35.238   2.253
 7975W        W79558   0.434  36.167  11.593
 7976W        W79559   7.418  14.515   1.466
 7977W        W79560  37.360  43.237  11.534
 7978W        W79561  11.682  18.753  12.882
 7979W        W79562  37.174  41.383   1.925
 7980W        W79563  32.963  34.600   3.756
 7981W        W79564  15.320  25.995   1.328
 7982W        W79565  36.286  23.440  12.454
 7983W        W79566  12.731   2.694   1.957
 7984W        W79567  17.561  18.597  14.486
 7985W        W79568  16.662  28.619  10.908
 7986W        W79569  32.940  10.306  10.181
 7987W        W79570  40.904   0.817  14.566
 7988W        W79571  44.651   2.705   3.100
 7989W        W79572  36.015  17.875   2.812
 7990W        W79573   9.163  44.278   4.475
 7991W        W79574  20.707  12.589  11.586
 7992W        W79575  11.019   9.272   4.506
 7993W        W79576   6.692  28.404   2.246
 7994W        W79577   6.349  37.089  14.474
 7995W        W79578  33.996  15.040  10.787
 7996W        W79579   3.965  43.445   1.772
 7997W        W79580  36.448  40.360   1.768
 7998W        W79581  43.107  32.663   2.205
 7999W        W79582   7.297   0.269  10.512
 8000W        W79583   2.863  13.170   0.903
 8001W        W79584  29.530  35.378  14.839
 8002W        W79585  37.840  36.534   4.411
 8003W        W79586  15.586  17.504  12.452
 8004W        W79587  29.055   4.351  13.197
 8005W        W79588   5.443  22.583  13.019
 8006W        W79589   7.723  16.812   2.803
 8007W        W79590   0.933  20.455   4.090
 8008W        W79591  37.110  10.260   1.034
 8009W        W79592  26.706  42.019  12.875
 8010W        W79593  40.486  27.636   5.190
 8011W        W79594  16.976  29.754   1.275
 8012W        W79595   0.343  24.434   0.771
 8013W        W79596   2.245  32.109   3.763
 8014W        W79597   1.310  34.315   1.894
 8015W        W79598  29.858  26.275   3.231
 8016W        W79599  39.331   5.031   4.866
 8017W        W79600  20.124  44.783   4.113
 8018W        W79601  29.654  17.895   2.167
 8019W        W79602  22.692  34.402   4.158
 8020W        W79603  13.820  10.088  14.368
 8021W        W79604  33.296  16.097   0.310
 8022W        W79605  41.925  25.261  14.078
 8023W        W79606   4.717  38.603   4.686
 8024W        W79607  27.512  39.959   4.258
 8025W        W79608  21.493  37.172   4.533
 8026W        W79609  44.834  29.503   4.183
 8027W        W79610  36.171   0.547  12.412
 8028W        W79611  20.358  21.891   0.515
 8029W        W79612   3.896  21.163  10.688
 8030W        W79613  38.320  20.798   0.386
 8031W        W79614  31.148  22.801  14.039
 8032W        W79615  35.705  30.387   3.756
 8033W        W79616  30.508   5.455  11.282
 8034W        W79617  27.250  22.042  14.227
 8035W        W79618  28.046  16.870   0.349
 8036W        W79619  20.277  30.006  10.366
 8037W        W79620  12.250  13.614  13.471
 8038W        W79621  15.164  19.707   3.175
 8039W        W79622   4.910   2.367  10.483
 8040W        W79623   7.393  29.957   0.899
 8041W        W79624  28.198  42.273   3.641
 8042W        W79625  34.568  24.947  11.494
 8043W        W79626   6.006  24.200   3.849
 8044W        W79627  25.684   8.948  10.750
 8045W        W79628  40.392  39.825   2.871
 8046W        W79629  33.117   0.555   3.659
 8047W        W79630  34.583  18.303   0.434
 8048W        W79631  36.568  12.715  11.219
 8049W        W79632  10.284  16.087   3.227
 8050W        W79633  13.192   1.190  13.022
 8051W        W79634  24.750  40.364   0.354
 8052W        W79635  37.599   6.315   2.851
 8053W        W79636  39.269  33.570  12.051
 8054W        W79637  10.645  18.779  12.529
 8055W        W79638   2.956   3.770  12.096
 8056W        W79639   8.978  41.743  12.084
 8057W        W79640  34.418  38.869  14.571
 8058W        W79641  22.631  14.131   3.686
 8059W        W79642  19.166   1.982  12.324
 8060W        W79643  29.122  43.356   1.354
 8061W        W79644  23.987  27.372  11.172
 8062W        W79645  18.669  17.340   0.983
 8063W        W79646   1.213   0.243   2.399
 8064W        W79647   7.194   6.674   3.707
 8065W        W79648   6.205  31.801   2.375
 8066W        W79649   7.823  30.538  10.418
 8067W        W79650  35.788  22.752   2.687
 8068W        W79651  14.589   2.701  11.215
 8069W        W79652   9.222  13.456   0.649
 8070W        W79653   1.989   4.973   9.763
 8071W        W79654   3.440  11.874   0.203
 8072W        W79655  19.316  19.745  13.827
 8073W        W79656  24.434  14.400  11.551
 8074W        W79657   2.427  38.385  14.075
 8075W        W79658  36.937  31.501  13.898
 8076W        W79659  26.542  39.559  12.840
 8077W        W79660  17.255  13.772  11.608
 8078W        W79661   5.432  14.666   3.308
 8079W        W79662  21.454  30.669   9.848
 8080W        W79663  14.421   0.294  14.372
 8081W        W79664  38.943  23.802   2.147
 8082W        W79665  16.247  29.648   3.771
 8083W        W79666  29.637  20.919   4.031
 8084W        W79667   0.524  32.370  10.721
 8085W        W79668  13.184  18.158   1.477
 8086W        W79669  21.786  28.578   3.213
 8087W        W79670  14.146  24.536  14.842
 8088W        W79671  27.848  22.568   0.268
 8089W        W79672  43.355  17.313   4.707
 8090W        W79673  26.389  21.437  13.457
 8091W        W79674  33.864  26.163  12.990
 8092W        W79675  33.397   1.711   2.911
 8093W        W79676  44.887   5.981  11.052
 8094W        W79677  27.566  39.575  14.374
 8095W        W79678  16.050  30.483   1.886
 8096W        W79679  38.926   1.807   4.492
 8097W        W79680   5.501  37.443  11.618
 8098W        W79681  13.292   7.832   4.966
 8099W        W79682  38.034  10.758  11.954
 8100W        W79683  26.837  44.526  10.212
 8101W        W79684  40.620  23.639   1.786
 8102W        W79685  27.117  10.807  13.530
 8103W        W79686  25.688   3.004   1.136
 8104W        W79687  17.530  20.694  12.431
 8105W        W79688  12.422  16.316   0.333
 8106W        W79689  22.675  17.773   2.105
 8107W        W79690  30.047  21.595   4.102
 8108W        W79691  13.334  36.856   4.104
 8109W        W79692  22.118  39.420  12.700
 8110W        W79693  14.871  31.565   0.862
 8111W        W79694   0.209  44.966   1.389
 8112W        W79695  26.297  30.592   1.332
 8113W        W79696   1.255  43.275   3.223
 8114W        W79697  18.520  41.342  10.759
 8115W        W79698   9.797   1.007   0.028
 8116W        W79699  29.579   1.418  12.595
 8117W        W79700  27.497  12.810   3.357
 8118W        W79701  12.117  41.928   0.942
 8119W        W79702   0.906  25.028   4.558
 8120W        W79703  18.189  33.670   0.758
 8121W        W79704  14.617  28.635  12.431
 8122W        W79705  19.877  10.234   0.630
 8123W        W79706  11.286  30.073  12.391
 8124W        W79707   5.047  41.254  11.934
 8125W        W79708  10.367   7.658  11.104
 8126W        W79709  44.301   2.767   2.193
 8127W        W79710  31.093   2.292   3.416
 8128W        W79711  24.469  13.743   2.445
 8129W        W79712  35.998  31.889   0.531
 8130W        W79713  13.767  36.500   2.406
 8131W        W79714  41.817  32.109   2.110
 8132W        W79715   1.674  26.633   3.135
 8133W        W79716  43.609  24.550   0.567
 8134W        W79717  38.094  27.664  13.910
 8135W        W79718  34.316  38.963  12.418
 8136W        W79719  44.339  37.560  10.693
 8137W        W79720  26.242  16.337  13.770
 8138W        W79721   4.243  13.067   1.690
 8139W        W79722  39.848  23.113  10.875
 8140W        W79723  25.411   8.849   1.370
 8141W        W79724  21.662  39.480   2.865
 8142W        W79725  10.092  44.165   1.148
 8143W        W79726  26.505  42.765   4.949
 8144W        W79727  28.038  35.430  13.762
 8145W        W79728   4.235  12.593  10.962
 8146W        W79729   4.914  19.461   3.738
 8147W        W79730  36.670  11.221   1.879
 8148W        W79731  13.269   2.084   4.878
 8149W        W79732  18.340   8.325   0.703
 8150W        W79733  37.223  12.834   3.795
 8151W        W79734  30.037   1.778  11.540
 8152W        W79735   9.384  36.079   1.736
 8153W        W79736  44.472   3.515  10.938
 8154W        W79737   7.651  13.199   3.814
 8155W        W79738  19.738   4.688   3.899
 8156W        W79739   1.003   5.408  13.617
 8157W        W79740  16.825  26.191   2.275
 8158W        W79741  43.726  11.190  10.714
 8159W        W79742   1.396   2.780   4.505
 8160W        W79743  22.984  35.031  13.452
 8161W        W79744  20.840  17.528  12.886
 8162W        W79745  25.455  10.531   1.330
 8163W        W79746  44.382   6.748  12.989
 8164W        W79747  15.037   2.403   2.223
 8165W        W79748  24.167   3.724   0.818
 8166W        W79749   2.957  43.552   1.887
 8167W        W79750   4.190   6.358   3.802
 8168W        W79751   2.441  14.223   0.325
 8169W        W79752  21.179  40.378   3.881
 8170W        W79753  15.217  21.577   3.033
 8171W        W79754  40.241  23.168   1.445
 8172W        W79755   2.830   3.897  11.608
 8173W        W79756  20.056  34.358   0.001
 8174W        W79757   4.844  27.625  10.613
 8175W        W79758  17.560  22.728  13.000
 8176W        W79759  25.065  39.034   4.504
 8177W        W79760  20.712  13.647   2.661
 8178W        W79761   8.298  42.332   1.143
 8179W        W79762   6.768  18.976  14.951
 8180W        W79763  39.513   2.034   3.346
 8181W        W79764  18.048  24.195  11.714
 8182W        W79765   5.104  14.653   0.890
 8183W        W79766   2.254  25.987   4.586
 8184W        W79767  13.125  26.061  13.519
 8185W        W79768  34.482  28.543   1.708
 8186W        W79769  22.064  29.375  14.515
 8187W        W79770  40.569  28.539   1.702
 8188W        W79771  34.522   5.905   0.621
 8189W        W79772   6.912   2.705  12.346
 8190W        W79773  13.734  35.804  12.768
 8191W        W79774  16.737  10.664   2.897
 8192W        W79775  22.784  15.964   2.789
 8193W        W79776  16.113  36.148   4.141
 8194W        W79777  16.288  11.683  14.471
 8195W        W79778  16.221  20.085  12.813
 8196W        W79779  13.776  25.383   0.934
 8197W        W79780  16.255   5.538   2.812
 8198W        W79781   5.277  12.089   3.025
 8199W        W79782   2.751  34.721   2.835
 8200W        W79783   9.507  33.559   4.556
 8201W        W79784  17.554  21.073   2.338
 8202W        W79785  26.474   1.354  13.632
 8203W        W79786  38.420  33.590   2.364
 8204W        W79787   5.954  33.516  14.358
 8205W        W79788  44.837   3.898   4.262
 8206W        W79789  12.342  41.263   3.994
 8207W        W79790  11.398   4.382   3.633
 8208W        W79791  30.781  12.143  14.302
 8209W        W79792  42.408  35.728   2.745
 8210W        W79793  41.448  18.890  13.843
 8211W        W79794  31.950  36.463   0.834
 8212W        W79795  39.491   2.087  10.642
 8213W        W79796  10.233   2.754  11.857
 8214W        W79797  28.139  41.502   4.222
 8215W        W79798  24.093  21.751  12.187
 8216W        W79799  34.317  42.232   3.271
 8217W        W79800   7.372  15.078   4.121
 8218W        W79801  16.810   1.309   1.122
 8219W        W79802  38.203  39.247  11.563
 8220W        W79803  44.980  29.622  13.807
 8221W        W79804  19.426  36.129   4.549
 8222W        W79805   6.602  14.680  13.342
 8223W        W79806  32.483  17.341  12.437
 8224W        W79807   2.727  39.354  14.797
 8225W        W79808   5.661  29.191  11.095
 8226W        W79809   7.448  20.564  14.297
 8227W        W79810   3.050  41.919  11.194
 8228W        W79811  34.028  18.663   1.224
 8229W        W79812   9.490  38.598   0.995
 8230W        W79813   1.678  20.258   3.781
 8231W        W79814  41.272  17.708   1.016
 8232W        W79815  29.068  37.983   4.030
 8233W        W79816  32.629  42.947   1.814
 8234W        W79817  14.707  15.823   3.605
 8235W        W79818  41.563  24.065   4.635
 8236W        W79819  19.638  36.393  13.600
 8237W        W79820   7.656   0.359   3.276
 8238W        W79821  40.520  18.762  11.775
 8239W        W79822   5.904  40.893   3.290
 8240W        W79823  18.172   6.124   0.709
 8241W        W79824  41.108  30.846   0.386
 8242W        W79825  38.577   3.427  11.093
 8243W        W79826  18.571  38.450   0.517
 8244W        W79827   3.053  24.992   2.184
 8245W        W79828   8.339  23.334  13.171
 8246W        W79829  38.058  28.837   4.201
 8247W        W79830  10.349  43.726  14.786
 8248W        W79831   4.049  15.663   4.322
 8249W        W79832  24.086  44.802  12.024
 8250W        W79833  14.204   9.450   3.710
 8251W        W79834  21.310  19.328   5.451
 8252W        W79835  12.345  42.885  13.210
 8253W        W79836  11.063   4.232   1.486
 8254W        W79837  41.437  18.152   4.444
 8255W        W79838  11.048  23.181   4.167
 8256W        W79839  19.692  29.941  12.037
 8257W        W79840  24.675   8.876   0.038
 8258W        W79841  30.375  35.610   4.586
 8259W        W79842  23.124  23.901   3.308
 8260W        W79843  16.335  28.571  13.831
 8261W        W79844   3.391  17.134  11.143
 8262W        W79845  44.901  11.135   1.838
 8263W        W79846  26.023   3.452  11.949
 8264W        W79847  41.398  42.296  12.546
 8265W        W79848  21.525  23.323  10.669
 8266W        W79849  44.392   0.018   1.933
 8267W        W79850  40.950   4.270  12.918
 8268W        W79851  30.390  16.021   2.452
 8269W        W79852  33.113  35.115  13.386
 8270W        W79853  32.054   1.551   1.955
 8271W        W79854  27.257  17.589  13.136
 8272W        W79855  18.257  10.881   3.892
 8273W        W79856   1.442  15.072   1.905
 8274W        W79857   9.656   9.723  12.489
 8275W        W79858   2.530  39.542  13.823
 8276W        W79859   8.722  44.770   3.243
 8277W        W79860   3.273  44.918  13.916
 8278W        W79861  29.634  22.432  12.782
 8279W        W79862  29.072  30.701  10.635
 8280W        W79863  31.812  31.677   2.232
 8281W        W79864   6.500  40.668  11.682
 8282W        W79865   1.897  27.707  11.656
 8283W        W79866  23.604  34.778   3.819
 8284W        W79867   0.047  34.421   0.057
 8285W        W79868   0.578   2.160  10.509
 8286W        W79869  27.822   8.691  13.127
 8287W        W79870   9.225   1.029   3.679
 8288W        W79871   9.263  18.089  13.341
 8289W        W79872  18.130  18.629  13.766
 8290W        W79873  24.628  13.799  12.760
 8291W        W79874  42.918  17.024  13.926
 8292W        W79875  38.531  35.269  13.043
 8293W        W79876  28.872  26.667   4.977
 8294W        W79877  35.892  18.248  14.747
 8295W        W79878   0.728  28.668   2.306
 8296W        W79879  17.263  33.945   1.423
 8297W        W79880  22.489  35.609   3.367
 8298W        W79881  17.072  43.151  10.138
 8299W        W79882  13.842   9.191  11.558
 8300W        W79883   7.817  33.194   3.511
 8301W        W79884  10.553  33.000   1.263
 8302W        W79885   3.432  10.759  10.635
 8303W        W79886  15.776  15.294  13.083
 8304W        W79887  27.063  41.876   1.404
 8305W        W79888  22.194   0.803  13.748
 8306W        W79889  39.375  10.664   3.875
 8307W        W79890  18.099   2.047   1.424
 8308W        W79891  12.058  32.464   1.916
 8309W        W79892  22.910   3.823  13.996
 8310W        W79893  41.809  15.062  12.005
 8311W        W79894  28.456  39.891   3.305
 8312W        W79895  31.485  25.497  12.577
 8313W        W79896  31.405  38.286  14.319
 8314W        W79897  13.142  38.643   2.230
 8315W        W79898   5.912  25.215  11.501
 8316W        W79899  40.571  19.312   1.261
 8317W        W79900  12.798  28.609   1.862
 8318W        W79901  20.262  27.519   1.417
 8319W        W79902  32.455  33.627   2.238
 8320W        W79903  39.539  27.480  14.349
 8321W        W79904  39.462   2.507   0.413
 8322W        W79905   8.703  29.232   3.735
 8323W        W79906   7.931   2.972   1.845
 8324W        W79907  38.570  34.672   2.215
 8325W        W79908  24.400  30.146  13.957
 8326W        W79909   0.350  34.514  13.152
 8327W        W79910  31.070  29.671   4.752
 8328W        W79911  21.802  42.581   2.619
 8329W        W79912   4.532  26.932   0.480
 8330W        W79913  34.066  22.734   4.494
 8331W        W79914  43.244  19.307  10.898
 8332W        W79915   0.730  44.055   0.909
 8333W        W79916  37.802   6.168   5.011
 8334W        W79917  11.227   1.002   0.393
 8335W        W79918  18.607  35.111   3.666
 8336W        W79919  29.389  43.914   4.106
 8337W        W79920  17.105  16.168  12.052
 8338W        W79921   3.655  25.608   0.709
 8339W        W79922  21.799   7.282   4.118
 8340W        W79923  35.034  11.135   1.623
 8341W        W79924  30.748  29.322   4.985
 8342W        W79925  40.822  39.581  10.807
 8343W        W79926  15.879  25.656  11.522
 8344W        W79927  40.173   2.729   2.632
 8345W        W79928  40.400  37.887  14.957
 8346W        W79929  37.107   3.747   0.467
 8347W        W79930   7.284   3.719  13.628
 8348W        W79931  13.293  10.567   3.712
 8349W        W79932  25.805  39.173   2.399
 8350W        W79933  36.608  17.346  13.365
 8351W        W79934  30.355  10.267   0.534
 8352W        W79935  16.280   8.003   1.870
 8353W        W79936  15.736   8.110  11.472
 8354W        W79937  36.465  16.406   2.175
 8355W        W79938  43.755  17.349   1.519
 8356W        W79939  27.607  36.080   4.675
 8357W        W79940  17.659   5.280  11.602
 8358W        W79941  14.203  25.141  10.444
 8359W        W79942   9.429  27.733  13.447
 8360W        W79943   9.614   3.119   0.820
 8361W        W79944   9.272  28.687   2.229
 8362W        W79945   1.721  36.990  10.318
 8363W        W79946  31.919  32.082   1.865
 8364W        W79947  32.591  34.342   1.750
 8365W        W79948  22.051  24.092   0.854
 8366W        W79949   0.771  43.484   1.686
 8367W        W79950   8.883  25.577   4.872
 8368W        W79951  13.314  25.995  12.089
 8369W        W79952   9.104  27.918   0.456
 8370W        W79953  19.589  12.011   2.229
 8371W        W79954  10.383  27.653   0.816
 8372W        W79955  32.965   5.651   4.233
 8373W        W79956  29.817   1.948   3.838
 8374W        W79957  17.307  35.317  13.352
 8375W        W79958   1.903  32.924   4.383
 8376W        W79959  37.585   3.876  10.854
 8377W        W79960  22.249  24.432   4.814
 8378W        W79961  24.865  38.269  11.585
 8379W        W79962  27.685  31.158  13.465
 8380W        W79963  32.099   6.716   4.529
 8381W        W79964  17.940  32.228   1.783
 8382W        W79965  17.799  31.405   2.315
 8383W        W79966  17.528   5.653   3.286
 8384W        W79967   6.299  20.936  14.087
 8385W        W79968  31.886  37.461  13.412
 8386W        W79969  11.891  40.430   4.538
 8387W        W79970  31.470  14.133  12.889
 8388W        W79971   4.705   5.895   2.948
 8389W        W79972  34.847  25.455  13.497
 8390W        W79973  29.755  39.245   5.109
 8391W        W79974  38.900  19.075  13.535
 8392W        W79975  12.902  15.898   3.719
 8393W        W79976  10.662  30.701   1.187
 8394W        W79977  15.256  10.747   0.329
 8395W        W79978  11.144  11.308  10.746
 8396W        W79979  23.676  14.531  14.600
 8397W        W79980  16.632  16.137  11.819
 8398W        W79981   4.537  32.418   1.827
 8399W        W79982   1.719  23.092  14.957
 8400W        W79983  27.314  27.937  14.433
 8401W        W79984  32.525  44.727   1.307
 8402W        W79985  44.232  26.177   4.129
 8403W        W79986   2.393   1.931   1.917
 8404W        W79987  22.394  43.153  11.140
 8405W        W79988  33.478  44.866   1.866
 8406W        W79989  36.906  23.660   1.383
 8407W        W79990  35.171  26.772  14.981
 8408W        W79991  26.981  43.835   4.879
 8409W        W79992   5.273  12.845  13.579
 8410W        W79993   8.654   5.335   4.145
 8411W        W79994  17.648  22.104   1.455
 8412W        W79995  37.034  27.443   1.278
 8413W        W79996  22.670  22.011  12.553
 8414W        W79997  11.805  40.484  12.032
 8415W        W79998  38.521  33.083  14.219
 8416W        W79999  36.632   1.982   0.305
 8417W        W80000   2.252   0.391  13.396
 8418W        W80001  19.725  27.459   1.253
 8419W        W80002  22.273  30.538   0.048
 8420W        W80003  38.509  31.823  10.565
 8421W        W80004   7.415  31.490  14.728
 8422W        W80005  43.922  16.828  10.424
 8423W        W80006  20.029  26.442   0.267
 8424W        W80007  43.955  25.180   0.342
 8425W        W80008  19.795  28.896  12.974
 8426W        W80009   7.249   3.454  14.934
 8427W        W80010  28.154  42.926   9.916
 8428W        W80011  33.601  39.800   2.766
 8429W        W80012  41.329   5.977   2.618
 8430W        W80013  43.396  26.318   4.242
 8431W        W80014  38.909  30.977   3.699
 8432W        W80015  27.027   1.524   2.231
 8433W        W80016  24.186  18.117  13.935
 8434W        W80017  18.275  35.480   0.912
 8435W        W80018  10.164  33.022   2.860
 8436W        W80019  26.693  24.321  11.504
 8437W        W80020  41.396   8.945   3.222
 8438W        W80021   5.232   4.851  10.975
 8439W        W80022   1.674  25.027  14.078
 8440W        W80023  22.184  25.177  10.384
 8441W        W80024   5.875  35.959  14.721
 8442W        W80025  44.834  36.021   2.724
 8443W        W80026  44.976  38.981   1.907
 8444W        W80027  24.249  40.342  11.145
 8445W        W80028  14.090  10.116   3.351
 8446W        W80029  15.887  23.196   2.769
 8447W        W80030  12.322  43.860  13.285
 8448W        W80031  13.682   8.055  14.497
 8449W        W80032  34.861  17.356  14.743
 8450W        W80033  24.616  28.001   3.690
 8451W        W80034  15.548  12.835  14.971
 8452W        W80035  30.565  24.277   2.309
 8453W        W80036   2.759   0.438  14.486
 8454W        W80037  13.655  33.102  11.076
 8455W        W80038  36.959  29.497   2.710
 8456W        W80039  29.172   7.889  13.361
 8457W        W80040  25.845  13.660   2.286
 8458W        W80041  23.543   4.360   2.310
 8459W        W80042  15.787  13.768  14.329
 8460W        W80043   0.194  33.007  13.246
 8461W        W80044  21.567  33.845  10.668
 8462W        W80045   3.894  28.718  12.475
 8463W        W80046  27.577  38.594  11.948
 8464W        W80047  13.338  42.011   0.565
 8465W        W80048  16.179  32.659   1.823
 8466W        W80049  29.463  23.023   0.902
 8467W        W80050  41.979  34.449   3.717
 8468W        W80051  27.401  12.797  12.430
 8469W        W80052  35.653  25.462  12.990
 8470W        W80053  32.403  13.847  10.232
 8471W        W80054  31.856  28.419  11.977
 8472W        W80055  28.604   6.983   3.183
 8473W        W80056  36.104   9.595   0.121
 8474W        W80057   1.726  36.423  12.357
 8475W        W80058  21.250  28.238  14.006
 8476W        W80059   2.749   5.860   4.727
 8477W        W80060  43.442  14.916  13.122
 8478W        W80061  24.185  20.696  11.139
 8479W        W80062  36.664  22.041  11.575
 8480W        W80063   9.072  17.096   0.985
 8481W        W80064   5.299  27.391  10.904
 8482W        W80065  14.022   9.948   5.023
 8483W        W80066  40.528  20.291  14.992
 8484W        W80067  39.422  12.717   3.118
 8485W        W80068  36.584  40.106   1.327
 8486W        W80069   9.271  43.285   4.395
 8487W        W80070  16.206  35.517   2.718
 8488W        W80071  42.511  18.413  13.563
 8489W        W80072  44.938  29.329  11.838
 8490W        W80073   3.927   6.438  14.318
 8491W        W80074   1.143  22.725   2.460
 8492W        W80075  23.059   3.328  12.459
 8493W        W80076  17.206  11.457  13.921
 8494W        W80077  25.134  37.351   0.770
 8495W        W80078   8.270   2.326   2.512
 8496W        W80079  22.108  24.033  12.027
 8497W        W80080  28.397  21.703   3.861
 8498W        W80081  27.475  22.422  14.947
 8499W        W80082  19.497   1.744   3.324
 8500W        W80083   9.953  15.314  12.013
 8501W        W80084  41.556  17.556  11.947
 8502W        W80085  42.385   1.511  13.710
 8503W        W80086  39.446  30.800  12.056
 8504W        W80087  19.336  20.304   2.449
 8505W        W80088  17.527  22.517   9.806
 8506W        W80089   2.222  31.586  11.606
 8507W        W80090  35.519   6.347   3.858
 8508W        W80091  16.702  39.728  12.605
 8509W        W80092  37.732   7.758  12.845
 8510W        W80093  10.873  28.131   1.442
 8511W        W80094  10.956  26.597  11.371
 8512W        W80095  34.363  20.188  11.588
 8513W        W80096  20.018  27.753   0.968
 8514W        W80097   1.218  12.565   1.269
 8515W        W80098   6.545  36.562  14.435
 8516W        W80099  17.786  33.872   1.654
 8517W        W80100  42.305  37.894  13.655
 8518W        W80101  24.044   2.243  12.002
 8519W        W80102  22.792   3.510  13.491
 8520W        W80103   9.366  10.443   2.443
 8521W        W80104  12.914  16.279  13.589
 8522W        W80105  33.291  24.582  12.415
 8523W        W80106  26.503   1.172   1.256
 8524W        W80107  36.966  35.067  12.281
 8525W        W80108  36.284  37.449   4.412
 8526W        W80109   4.351  34.979  14.459
 8527W        W80110   6.781   0.775   1.700
 8528W        W80111   4.947  20.112   2.724
 8529W        W80112  42.390   7.870  11.572
 8530W        W80113   0.333  37.385  12.041
 8531W        W80114  36.429  32.430  10.719
 8532W        W80115   4.902  41.841   0.334
 8533W        W80116  26.673  11.041   4.027
 8534W        W80117  32.123  37.511  12.469
 8535W        W80118  32.084   3.330   4.545
 8536W        W80119  40.338  23.790  10.328
 8537W        W80120  13.505  10.471   2.912
 8538W        W80121   7.717  14.069  13.180
 8539W        W80122  36.497  35.957   0.052
 8540W        W80123  32.916  31.648   0.296
 8541W        W80124  11.821  42.412  11.897
 8542W        W80125  18.606  32.569  14.821
 8543W        W80126  30.950  33.033   2.914
 8544W        W80127  42.588  11.130  13.867
 8545W        W80128   2.328   9.706   4.076
 8546W        W80129  42.034  20.274  14.816
 8547W        W80130  36.601   4.967   4.098
 8548W        W80131  15.804  26.246   1.360
 8549W        W80132  36.023  27.041  14.344
 8550W        W80133  42.560  26.472   0.999
 8551W        W80134   3.791  44.826   4.594
 8552W        W80135  38.750  10.419   0.264
 8553W        W80136  21.193  41.501   1.294
 8554W        W80137  20.089  18.381   4.406
 8555W        W80138  29.373  25.545   1.211
 8556W        W80139  37.586   7.319  13.125
 8557W        W80140  23.654  10.866   4.670
 8558W        W80141   3.795  25.739   2.326
 8559W        W80142   3.304  38.603   9.812
 8560W        W80143  35.597   6.146  11.265
 8561W        W80144  17.865  33.105   4.347
 8562W        W80145  44.957   9.266   4.527
 8563W        W80146  20.072  15.858  13.431
 8564W        W80147  33.235  11.392  14.916
 8565W        W80148  28.668   7.700  13.458
 8566W        W80149  15.730   3.532   3.253
 8567W        W80150  37.124  16.603  12.601
 8568W        W80151   1.434  26.538  12.060
 8569W        W80152  36.388  42.983  12.622
 8570W        W80153  21.681   9.792   9.966
 8571W        W80154  33.426   0.552   0.481
 8572W        W80155   2.259   6.113  12.057
 8573W        W80156  40.927  22.147  12.619
 8574W        W80157   2.774  17.117   1.964
 8575W        W80158  25.724  11.883  12.056
 8576W        W80159  30.722   2.019   3.683
 8577W        W80160   0.801  20.645   4.559
 8578W        W80161  37.382  17.649  11.735
 8579W        W80162   4.266   5.324  13.065
 8580W        W80163  42.852  30.203  12.366
 8581W        W80164  17.739  36.647   1.863
 8582W        W80165  32.052   9.795  12.463
 8583W        W80166  29.620   7.409  10.653
 8584W        W80167   6.692  26.551   3.311
 8585W        W80168  36.585  18.255   2.366
 8586W        W80169  13.579   2.881   4.758
 8587W        W80170  28.876   4.268   2.802
 8588W        W80171  15.574  36.064  13.346
 8589W        W80172   3.680  43.026   1.803
 8590W        W80173  38.381   0.894  13.992
 8591W        W80174  35.025  39.432   4.687
 8592W        W80175  31.801  35.034  10.535
 8593W        W80176  44.249   4.948  11.322
 8594W        W80177  20.649  23.669  12.969
 8595W        W80178  32.878   2.379   4.647
 8596W        W80179   7.637  37.995  10.652
 8597W        W80180   3.449  43.960   2.576
 8598W        W80181  36.145  33.647   5.060
 8599W        W80182  35.153  43.508  11.639
 8600W        W80183  39.873  34.380   3.217
 8601W        W80184   0.959  36.461   1.001
 8602W        W80185  36.439  19.274  12.467
 8603W        W80186  42.709  18.945   0.715
 8604W        W80187   3.937  36.427  11.593
 8605W        W80188  31.159  17.697  14.823
 8606W        W80189  16.054  22.236  13.509
 8607W        W80190  28.912  38.340  14.289
 8608W        W80191  24.429  39.857  11.188
 8609W        W80192  21.528  11.709  10.314
 8610W        W80193  30.648  43.705   1.851
 8611W        W80194  36.846  32.462   3.868
 8612W        W80195  24.002  34.714  13.958
 8613W        W80196  29.147   0.735   2.250
 8614W        W80197   3.080  31.898   1.936
 8615W        W80198  15.756  35.895  13.815
 8616W        W80199  43.246  36.525  13.853
 8617W        W80200  37.921  12.152  11.786
 8618W        W80201  43.744  26.125  14.513
 8619W        W80202  15.156   5.163   1.022
 8620W        W80203  29.008  10.079   1.360
 8621W        W80204  35.154   7.221   2.941
 8622W        W80205  10.675  35.564   0.505
 8623W        W80206  32.557   4.665  11.568
 8624W        W80207  15.713  37.890   4.173
 8625W        W80208   9.327  30.671  13.115
 8626W        W80209  26.191  26.606   1.415
 8627W        W80210  18.504  43.540  11.204
 8628W        W80211  11.647  39.850   0.381
 8629W        W80212  26.153  22.041  14.353
 8630W        W80213  39.913  35.648   3.727
 8631W        W80214  31.182  23.484  13.110
 8632W        W80215  12.130   4.439  13.589
 8633W        W80216  29.894  19.806  12.621
 8634W        W80217  36.124  17.314   4.263
 8635W        W80218  13.178  23.674   1.048
 8636W        W80219   4.949  39.140  11.739
 8637W        W80220  27.032  27.265   1.244
 8638W        W80221  20.743  22.945   2.072
 8639W        W80222  14.402  27.415  13.977
 8640W        W80223   3.897  23.190  14.477
 8641W        W80224  38.863  26.122   2.654
 8642W        W80225  35.787  13.843  12.450
 8643W        W80226  29.177  17.106   4.794
 8644W        W80227  19.264  39.944  14.988
 8645W        W80228  38.548  36.806   4.327
 8646W        W80229  43.781   6.482   0.378
 8647W        W80230  22.723  37.078   4.138
 8648W        W80231  20.700  36.996   2.550
 8649W        W80232  26.016  40.294   1.290
 8650W        W80233  27.047  12.532   1.772
 8651W        W80234  42.093  23.932  12.067
 8652W        W80235  14.579   0.989  13.924
 8653W        W80236   2.146  29.711   1.692
 8654W        W80237   0.141  43.930  10.664
 8655W        W80238   1.741   7.431  12.066
 8656W        W80239  14.081  35.442   5.421
 8657W        W80240  34.948  23.286   0.305
 8658W        W80241   5.492  37.937   2.837
 8659W        W80242  26.687  34.445   1.573
 8660W        W80243  27.562  19.592   5.014
 8661W        W80244  19.490  32.931   1.870
 8662W        W80245  40.403  33.827  14.805
 8663W        W80246  22.682   8.158   3.759
 8664W        W80247  28.415  24.475   0.343
 8665W        W80248  36.626   1.850  10.661
 8666W        W80249   5.971  32.149   0.292
 8667W        W80250  27.577  10.124   4.833
 8668W        W80251  26.673  24.548   2.685
 8669W        W80252  20.448   4.359   3.444
 8670W        W80253  14.137  32.435  11.538
 8671W        W80254  21.219  24.202  13.366
 8672W        W80255  20.436  19.245   2.237
 8673W        W80256  30.073  40.041   2.178
 8674W        W80257  12.765  44.406  13.551
 8675W        W80258  23.391  15.448  10.333
 8676W        W80259  25.741   0.716   1.219
 8677W        W80260  11.782   3.129   3.737
 8678W        W80261  39.937   9.638  12.589
 8679W        W80262  11.700  22.843   3.632
 8680W        W80263  29.050  12.866   3.340
 8681W        W80264  23.407   5.239  10.665
 8682W        W80265  30.093  42.387   0.228
 8683W        W80266  20.971  35.173  11.955
 8684W        W80267  26.921  11.515   1.712
 8685W        W80268  11.885  39.944  10.847
 8686W        W80269  27.358  38.785  12.632
 8687W        W80270   8.188  43.093  13.679
 8688W        W80271  28.135  36.093  13.581
 8689W        W80272   5.747  18.488   1.511
 8690W        W80273   3.662   9.324   3.816
 8691W        W80274  44.556   7.546   5.240
 8692W        W80275   7.030  43.329  12.874
 8693W        W80276  15.758  35.755   4.188
 8694W        W80277  11.304   0.285  13.177
 8695W        W80278  39.938  21.998  12.529
 8696W        W80279  35.466  19.085   3.412
 8697W        W80280  13.330  43.370  10.339
 8698W        W80281  28.524  18.752  11.561
 8699W        W80282   9.326  22.659   3.801
 8700W        W80283  27.704  18.032  13.947
 8701W        W80284   4.631  22.231  14.995
 8702W        W80285   3.742  21.753   0.889
 8703W        W80286  39.608  44.463  11.602
 8704W        W80287  34.843  14.548  13.042
 8705W        W80288  40.017  17.588   3.250
 8706W        W80289  15.544  33.674  14.508
 8707W        W80290  42.839   7.826   3.197
 8708W        W80291  23.237   8.355  13.331
 8709W        W80292   1.919  16.645  14.000
 8710W        W80293  42.875   0.426  14.348
 8711W        W80294  29.656  23.612   3.659
 8712W        W80295  19.193   4.834  12.556
 8713W        W80296   9.497  25.577  11.866
 8714W        W80297   3.527  20.805  13.036
 8715W        W80298  37.381  19.267   1.315
 8716W        W80299  35.165   5.897   1.760
 8717W        W80300  23.034  14.486  13.079
 8718W        W80301  16.746  10.950  10.717
 8719W        W80302  41.945  39.604  14.011
 8720W        W80303  24.569   1.395   2.593
 8721W        W80304  13.326   5.083   5.144
 8722W        W80305  28.367  22.026  10.229
 8723W        W80306  16.710  40.830   1.938
 8724W        W80307  28.645  27.391  12.765
 8725W        W80308  24.066  36.882  11.884
 8726W        W80309  29.629   0.034  14.795
 8727W        W80310  26.230  42.962  12.222
 8728W        W80311  34.613  11.337  12.508
 8729W        W80312  17.608  21.295  12.963
 8730W        W80313  25.459  35.995  11.166
 8731W        W80314   0.305   2.364  12.171
 8732W        W80315  20.117  26.687   2.721
 8733W        W80316  12.220  21.284   4.216
 8734W        W80317   6.292  33.994  10.760
 8735W        W80318  15.037  38.009  14.449
 8736W        W80319  37.643  34.022  14.035
 8737W        W80320  25.507  40.253   4.270
 8738W        W80321  43.977   7.403   2.512
 8739W        W80322  15.842  33.468  12.409
 8740W        W80323   6.745  19.752  11.701
 8741W        W80324   5.260   8.288   2.832
 8742W        W80325   2.506   3.342  11.035
 8743W        W80326  19.807  43.278   1.576
 8744W        W80327  16.664  22.137   2.317
 8745W        W80328  37.493   5.268   1.913
 8746W        W80329   5.204  13.814   2.695
 8747W        W80330   5.636  23.086  12.913
 8748W        W80331  42.742  39.056   4.588
 8749W        W80332  35.949  39.642   4.190
 8750W        W80333  40.025   9.774   1.984
 8751W        W80334   4.683   6.912   1.860
 8752W        W80335   7.105   4.641  13.487
 8753W        W80336   1.334  38.290  14.908
 8754W        W80337  31.561   2.827  11.929
 8755W        W80338   5.519  13.560  11.098
 8756W        W80339  28.358   9.220  14.354
 8757W        W80340  38.564  21.560   1.720
 8758W        W80341   4.681  19.288  12.169
 8759W        W80342  38.473  37.996  13.548
 8760W        W80343   5.089   4.391   0.255
 8761W        W80344  44.249  15.364  12.949
 8762W        W80345   5.873  12.497  14.108
 8763W        W80346   1.920  23.058  10.748
 8764W        W80347  35.363   5.337  11.622
 8765W        W80348   1.939   8.989   2.389
 8766W        W80349  26.958  29.150   0.810
 8767W        W80350  19.206  12.523   3.288
 8768W        W80351  40.837  22.118  10.794
 8769W        W80352  15.950  17.633   3.575
 8770W        W80353   1.707  37.385   4.646
 8771W        W80354  43.356  19.697   1.427
 8772W        W80355  22.478  38.800  11.599
 8773W        W80356  37.756  18.053   0.021
 8774W        W80357   5.759  11.075  14.043
 8775W        W80358  43.348  11.382  12.363
 8776W        W80359  19.196  37.549  14.851
 8777W        W80360   4.753  28.227  14.813
 8778W        W80361  20.019  34.067   3.469
 8779W        W80362  40.838   3.454   0.741
 8780W        W80363  27.076  24.215   2.672
 8781W        W80364  10.111  25.434   3.660
 8782W        W80365  26.368  17.650  13.367
 8783W        W80366  10.179  14.622  13.004
 8784W        W80367   1.156  27.377   4.259
 8785W        W80368  28.684  43.828  12.088
 8786W        W80369  22.774   4.890   3.226
 8787W        W80370  40.454  43.438  11.554
 8788W        W80371  25.130  22.703   1.637
 8789W        W80372   1.846  17.330  12.817
 8790W        W80373  25.483  32.809  12.577
 8791W        W80374   4.333  27.521   3.790
 8792W        W80375  37.892  44.456  14.853
 8793W        W80376  26.656  33.113  13.480
 8794W        W80377  31.688  37.937   0.841
 8795W        W80378  41.101  33.669  13.407
 8796W        W80379  13.054  34.414  10.722
 8797W        W80380  26.110  34.874  14.420
 8798W        W80381   3.656  36.468   4.486
 8799W        W80382  10.889  11.911  14.466
 8800W        W80383   0.695  27.056  12.151
 8801W        W80384  22.982  44.416   2.198
 8802W        W80385  36.061  20.651   2.716
 8803W        W80386  20.713  41.532   2.761
 8804W        W80387  44.214   1.741  13.666
 8805W        W80388  42.007  29.524  12.144
 8806W        W80389   4.478  36.294   1.210
 8807W        W80390  16.068  44.257   3.258
 8808W        W80391  28.184  14.560  11.632
 8809W        W80392  16.210  39.776   3.070
 8810W        W80393  17.748  33.149  14.937
 8811W        W80394  39.505  34.047   0.217
 8812W        W80395  26.746  10.301   0.423
 8813W        W80396  25.753   6.782   1.412
 8814W        W80397  37.265  38.408  14.936
 8815W        W80398   5.768  28.179  12.374
 8816W        W80399  20.755   5.439   4.017
 8817W        W80400  29.204  37.043   1.257
 8818W        W80401  27.013  23.547  11.218
 8819W        W80402  41.584  21.570  12.052
 8820W        W80403  12.664  13.662   1.227
 8821W        W80404  32.580  37.001  11.994
 8822W        W80405  14.959  23.497  11.469
 8823W        W80406   9.207   1.346  11.056
 8824W        W80407   4.912  26.172   1.743
 8825W        W80408  14.252  29.876   1.740
 8826W        W80409  12.062  40.301  12.980
 8827W        W80410   2.190  31.607   0.286
 8828W        W80411   1.936  44.901  11.170
 8829W        W80412  10.329   2.917   0.919
 8830W        W80413  11.395  23.551   1.001
 8831W        W80414   5.714   2.291   4.104
 8832W        W80415   3.614   9.731  12.669
 8833W        W80416   1.454  28.700  13.027
 8834W        W80417  18.620  11.091   4.242
 8835W        W80418   9.384  30.513  10.793
 8836W        W80419  10.307   3.503   4.851
 8837W        W80420  22.682   6.974   2.851
 8838W        W80421  17.152  43.801   4.622
 8839W        W80422  12.761  13.713  14.825
 8840W        W80423  42.521  37.547   1.670
 8841W        W80424  12.224  39.870  11.626
 8842W        W80425  10.901  14.858  13.538
 8843W        W80426  26.485   7.741   4.460
 8844W        W80427   3.803   8.789   3.784
 8845W        W80428  13.036   4.386   1.870
 8846W        W80429  10.783  28.936  11.156
 8847W        W80430  35.774  29.393  12.128
 8848W        W80431  28.247  17.082  11.038
 8849W        W80432  18.473   8.145  11.762
 8850W        W80433  11.790  10.636   3.341
 8851W        W80434  21.229  23.297   0.403
 8852W        W80435  33.047   8.977   2.363
 8853W        W80436  18.207  12.108   2.241
 8854W        W80437  39.281  24.022  12.604
 8855W        W80438  27.447  13.660   1.325
 8856W        W80439   4.504  13.612  13.259
 8857W        W80440  22.202  15.577  12.327
 8858W        W80441  41.010  10.380  13.131
 8859W        W80442  26.186  30.501  13.236
 8860W        W80443  34.946  14.195   3.844
 8861W        W80444   5.523   7.095   0.901
 8862W        W80445  43.899  35.114  14.744
 8863W        W80446  22.737  15.450   2.704
 8864W        W80447  14.855  12.808   4.585
 8865W        W80448   6.999  37.569   0.483
 8866W        W80449  29.156  14.575   2.171
 8867W        W80450   3.921   4.880   1.237
 8868W        W80451  26.596  44.409   0.688
 8869W        W80452  35.424   0.851  11.683
 8870W        W80453  37.573  43.845   1.282
 8871W        W80454   8.878  43.770  10.470
 8872W        W80455  23.178  34.209   0.129
 8873W        W80456  29.743  29.788   4.672
 8874W        W80457  22.654  29.742   9.777
 8875W        W80458   0.757  12.345  11.580
 8876W        W80459  39.915  11.096  12.399
 8877W        W80460  29.487  10.817   1.354
 8878W        W80461  31.414   8.805   4.625
 8879W        W80462  12.329  12.683   2.700
 8880W        W80463  13.336   7.352  12.605
 8881W        W80464  34.892   4.898   4.471
 8882W        W80465   0.581  27.385  14.778
 8883W        W80466  10.762  44.479   1.832
 8884W        W80467   7.153  36.360  13.020
 8885W        W80468  42.743  13.330  12.737
 8886W        W80469  12.741  22.283   1.735
 8887W        W80470  21.150  43.246  12.945
 8888W        W80471  21.263  27.711   0.059
 8889W        W80472  17.398   5.361   4.244
 8890W        W80473  22.620   7.110  10.866
 8891W        W80474  26.444  33.664  14.322
 8892W        W80475   5.558  35.923   4.775
 8893W        W80476  37.893  11.320  14.850
 8894W        W80477  35.317  29.365  11.891
 8895W        W80478  36.047  12.300   3.267
 8896W        W80479  21.184  24.702   3.637
 8897W        W80480  18.153  10.713  14.807
 8898W        W80481  16.199  10.289   0.001
 8899W        W80482  12.574  33.973  10.619
 8900W        W80483  16.748   0.928  10.861
 8901W        W80484  11.245  10.220  12.927
 8902W        W80485  18.375  37.537   2.772
 8903W        W80486   8.801   6.651   3.677
 8904W        W80487   3.806  31.484  13.818
 8905W        W80488  30.562   8.248   3.297
 8906W        W80489   3.703  38.584  13.392
 8907W        W80490  12.447  23.986  10.935
 8908W        W80491  41.428  18.336  10.813
 8909W        W80492  43.573   9.128  13.004
 8910W        W80493  36.633  27.526  12.358
 8911W        W80494   4.418  12.175  12.978
 8912W        W80495  24.687  16.886  13.857
 8913W        W80496   3.978  43.563  14.306
 8914W        W80497  33.590  28.227   2.728
 8915W        W80498  35.609   1.791  11.595
 8916W        W80499  19.609   4.198  13.608
 8917W        W80500  32.408  32.213  13.223
 8918W        W80501  43.362  30.362  12.340
 8919W        W80502  31.150  37.832   3.717
 8920W        W80503  37.299  39.943   4.670
 8921W        W80504  37.851  22.054   0.576
 8922W        W80505  33.542  35.073   3.196
 8923W        W80506  44.329  34.080   2.510
 8924W        W80507  35.384  24.182  13.083
 8925W        W80508  40.787  34.028  10.586
 8926W        W80509   0.427  25.435   1.012
 8927W        W80510   3.395  17.608   4.951
 8928W        W80511  13.846  23.469  14.847
 8929W        W80512  11.460  23.968   2.811
 8930W        W80513  31.969  26.905   2.359
 8931W        W80514  26.999  17.342   1.683
 8932W        W80515   8.808  40.965  10.704
 8933W        W80516   6.660  33.152  11.072
 8934W        W80517  18.581   7.854   1.394
 8935W        W80518  20.386  12.131   0.023
 8936W        W80519  39.548   9.947  11.027
 8937W        W80520  32.775  21.848   5.521
 8938W        W80521   6.873  24.044  11.489
 8939W        W80522   2.366  32.802   2.715
 8940W        W80523  27.159  10.207   5.588
 8941W        W80524   4.048  30.620  14.336
 8942W        W80525  17.669  41.850  12.522
 8943W        W80526   3.813  16.583  13.156
 8944W        W80527  17.198  21.478   0.749
 8945W        W80528  22.477  38.869  14.409
 8946W        W80529  42.909   1.368   4.890
 8947W        W80530  13.887   9.158  13.681
 8948W        W80531  10.726  21.658  11.378
 8949W        W80532   8.698  35.557   4.867
 8950W        W80533  11.322  35.113   3.742
 8951W        W80534  13.824  36.506   1.863
 8952W        W80535  14.091  17.679  10.926
 8953W        W80536  40.517  13.084  11.627
 8954W        W80537   0.779  21.849  12.644
 8955W        W80538  23.035  13.647   0.275
 8956W        W80539  32.173  28.650   2.092
 8957W        W80540  40.835   9.274  14.469
 8958W        W80541  40.437  10.773  11.529
 8959W        W80542  19.665  22.425  13.942
 8960W        W80543  15.939   6.847  11.955
 8961W        W80544  22.461  10.742  12.429
 8962W        W80545  24.850   9.913   4.591
 8963W        W80546  32.689   2.695  12.018
 8964W        W80547   6.814  37.616  14.910
 8965W        W80548  19.117   3.497  13.828
 8966W        W80549  24.189  36.631   0.548
 8967W        W80550   6.694  24.205   3.164
 8968W        W80551  42.696  11.450  14.433
 8969W        W80552  43.522  28.216   2.812
 8970W        W80553  36.943  25.544   0.995
 8971W        W80554  24.306  20.093   3.799
 8972W        W80555  44.467  19.504   3.368
 8973W        W80556  10.396  43.903   3.819
 8974W        W80557  20.538  22.833   4.259
 8975W        W80558  27.600   7.395   3.223
 8976W        W80559   0.226   7.233   4.096
 8977W        W80560   6.315  29.301   1.087
 8978W        W80561  28.459  18.235  12.749
 8979W        W80562  30.706  19.738   0.033
 8980W        W80563  34.199   2.831  13.797
 8981W        W80564  36.587   1.359   1.422
 8982W        W80565   7.228  18.534  13.464
 8983W        W80566   8.435  20.777  14.322
 8984W        W80567  30.208  25.142   2.402
 8985W        W80568  10.485  43.329   1.198
 8986W        W80569  20.078   0.806  14.876
 8987W        W80570  26.943  36.046   1.890
 8988W        W80571  27.673   6.468   0.030
 8989W        W80572   9.892  35.529  13.284
 8990W        W80573   1.280  22.247   0.830
 8991W        W80574  20.928  32.502   1.845
 8992W        W80575  32.487  20.561   2.184
 8993W        W80576  35.577  28.496  10.771
 8994W        W80577  32.668  40.376   3.336
 8995W        W80578  25.864  16.336   2.642
 8996W        W80579  22.690   6.658   0.944
 8997W        W80580  30.913   4.285  14.528
 8998W        W80581  23.667  29.601  12.862
 8999W        W80582  32.025   3.245  13.100
 9000W        W80583   3.445  22.948   0.272
 9001W        W80584  27.957  20.148  14.421
 9002W        W80585  13.045  13.913   4.520
 9003W        W80586  40.040  31.378  11.936
 9004W        W80587  28.954   2.025   3.100
 9005W        W80588   3.983  35.645   3.977
 9006W        W80589  38.336  14.840   2.451
 9007W        W80590  28.084  25.669  10.785
 9008W        W80591  39.288   6.804  13.844
 9009W        W80592  19.294   4.264   2.261
 9010W        W80593  20.747  16.358   1.460
 9011W        W80594  26.963   1.271  12.830
 9012W        W80595  33.043  38.389  14.351
 9013W        W80596   1.842  34.306  12.895
 9014W        W80597   8.732  27.235  13.125
 9015W        W80598   9.909   9.170  11.641
 9016W        W80599  22.067   9.325   2.190
 9017W        W80600  29.834  42.525  11.605
 9018W        W80601   9.269   2.623  11.626
 9019W        W80602  32.728  34.809  12.509
 9020W        W80603  44.903  42.257  11.916
 9021W        W80604  33.167  17.227   1.269
 9022W        W80605  13.516  17.346  13.382
 9023W        W80606  19.194  10.671  12.468
 9024W        W80607   1.415  31.165  11.952
 9025W        W80608  41.846  13.895   0.307
 9026W        W80609  32.380  39.575   1.969
 9027W        W80610  22.613  35.095   0.378
 9028W        W80611  15.337  10.972  11.763
 9029W        W80612  34.646  42.520   3.610
 9030W        W80613  22.630   3.678   1.320
 9031W        W80614   8.108  40.055  11.085
 9032W        W80615  19.248  38.488  11.121
 9033W        W80616  35.414   6.042   2.191
 9034W        W80617   0.535   5.851   3.166
 9035W        W80618  39.831  34.642   1.233
 9036W        W80619  37.663  21.193  14.840
 9037W        W80620  34.543   1.562   1.278
 9038W        W80621   6.137  15.638  13.438
 9039W        W80622  16.199  25.674   3.924
 9040W        W80623  31.648   6.305   0.336
 9041W        W80624   9.017  10.088   1.772
 9042W        W80625  29.626  43.886   2.128
 9043W        W80626  22.501   5.768   0.424
 9044W        W80627  25.855   0.770   4.696
 9045W        W80628  26.438  23.675   3.138
 9046W        W80629  12.239   9.960   0.351
 9047W        W80630  34.348  42.675  14.393
 9048W        W80631   4.444  35.606   1.819
 9049W        W80632  23.367  34.500  10.729
 9050W        W80633  22.956  29.984   2.206
 9051W        W80634  10.812  25.623  10.848
 9052W        W80635  34.708  41.692  11.957
 9053W        W80636   9.335  23.179  10.505
 9054W        W80637  14.851  35.647  11.467
 9055W        W80638  12.892  12.268  13.933
 9056W        W80639  36.884  37.295  14.441
 9057W        W80640  30.693   3.426  13.377
 9058W        W80641   6.389  26.694  14.908
 9059W        W80642  33.001  20.176   2.901
 9060W        W80643  42.095  40.947   3.665
 9061W        W80644   9.101   0.776  12.058
 9062W        W80645  12.057  18.142   3.242
 9063W        W80646  12.820   4.732  13.373
 9064W        W80647  25.918  11.381  12.537
 9065W        W80648  35.259  16.136  12.939
 9066W        W80649  34.856  41.117  14.860
 9067W        W80650   1.936  25.261   0.332
 9068W        W80651  44.384  14.629  12.096
 9069W        W80652  44.338  36.826  11.084
 9070W        W80653  26.216  37.107  11.525
 9071W        W80654   2.521  20.603   2.239
 9072W        W80655  25.032  23.957   3.244
 9073W        W80656  24.735  26.461   1.528
 9074W        W80657  31.516  14.903  14.451
 9075W        W80658  11.567  40.693  13.573
 9076W        W80659  32.813  43.826   2.278
 9077W        W80660  28.461  36.112   4.108
 9078W        W80661  12.824  32.507   4.724
 9079W        W80662  19.343  13.119  13.039
 9080W        W80663  21.921  22.818   0.831
 9081W        W80664   0.237  42.371  12.687
 9082W        W80665  27.714   0.778   2.192
 9083W        W80666   7.409  17.736  11.132
 9084W        W80667  18.922  14.375  12.439
 9085W        W80668  33.420  20.671   4.604
 9086W        W80669  15.235  37.619  11.685
 9087W        W80670  17.214   9.316   4.406
 9088W        W80671  31.399  26.232   2.903
 9089W        W80672  19.821  30.383   2.730
 9090W        W80673  23.535  36.795   4.531
 9091W        W80674   0.206  38.457  12.466
 9092W        W80675  22.948  18.154  13.394
 9093W        W80676  16.271  22.237   1.496
 9094W        W80677   1.124  22.147  12.983
 9095W        W80678  30.476  26.508   2.244
 9096W        W80679  14.810  21.177  12.712
 9097W        W80680   9.272  12.167   1.983
 9098W        W80681   3.420  42.585  13.400
 9099W        W80682   6.636  37.621  11.612
 9100W        W80683   5.768  11.676  13.053
 9101W        W80684  14.861  44.269  11.682
 9102W        W80685  35.046  13.138  14.780
 9103W        W80686   1.988  31.486   3.269
 9104W        W80687  22.055  25.233  13.582
 9105W        W80688  16.349  16.652   0.929
 9106W        W80689  32.506  21.245  13.947
 9107W        W80690  14.822  15.869  12.080
 9108W        W80691   7.656  17.520  13.794
 9109W        W80692  20.193  33.593   3.642
 9110W        W80693   2.840   9.264   0.527
 9111W        W80694  44.789  19.772   3.794
 9112W        W80695  23.141  12.162   3.166
 9113W        W80696  23.498   5.618   3.278
 9114W        W80697  21.247   2.009   1.673
 9115W        W80698  22.147   9.893  11.078
 9116W        W80699  44.866  28.934  14.441
 9117W        W80700  32.019  42.005   3.715
 9118W        W80701  18.734   7.813  14.066
 9119W        W80702  27.669   4.175  14.632
 9120W        W80703  43.483  33.844  14.415
 9121W        W80704  41.045  41.216  11.945
 9122W        W80705  20.128   3.862  11.209
 9123W        W80706  14.189  22.629  11.813
 9124W        W80707  14.526  44.319  12.077
 9125W        W80708  17.033  15.637   1.259
 9126W        W80709  20.404  11.607  12.415
 9127W        W80710  42.570  25.595  14.885
 9128W        W80711   9.738  17.542   2.365
 9129W        W80712   5.222  29.200   0.881
 9130W        W80713  15.326  34.011  12.569
 9131W        W80714  10.778  22.466   1.301
 9132W        W80715  39.829  23.511   0.341
 9133W        W80716  42.268  19.680  12.592
 9134W        W80717   6.724  28.115   3.392
 9135W        W80718   7.187  23.263   3.182
 9136W        W80719  33.980   9.685  12.595
 9137W        W80720  23.622  37.825  13.786
 9138W        W80721   0.354   5.923  10.630
 9139W        W80722   2.088  38.797   0.363
 9140W        W80723   3.939  43.385   3.796
 9141W        W80724   5.185  27.966  14.675
 9142W        W80725  14.641  35.395   1.313
 9143W        W80726  28.427  15.612   1.407
 9144W        W80727  30.803  17.492  12.346
 9145W        W80728  35.200  19.848  11.102
 9146W        W80729  42.502  22.497   3.576
 9147W        W80730  17.195   7.340   0.220
 9148W        W80731   3.971  15.223   0.528
 9149W        W80732  11.837  20.992  14.414
 9150W        W80733  28.939  15.696   1.328
 9151W        W80734   0.484  37.866   1.448
 9152W        W80735  16.292   7.517   0.195
 9153W        W80736   4.852  44.417   4.571
 9154W        W80737  43.160  12.680  12.079
 9155W        W80738  33.425  15.367   4.085
 9156W        W80739  24.575  15.709   0.419
 9157W        W80740  17.532  36.606   2.837
 9158W        W80741  15.043   5.137   1.948
 9159W        W80742  14.076  17.387   2.304
 9160W        W80743  25.281   8.699  12.952
 9161W        W80744  28.815  34.473  13.383
 9162W        W80745   2.126  17.825   4.638
 9163W        W80746  32.153  11.549   4.519
 9164W        W80747   1.832   9.378   4.270
 9165W        W80748  40.495  20.559  12.441
 9166W        W80749  34.814  37.724  13.224
 9167W        W80750  11.240   6.801   4.612
 9168W        W80751  30.184  12.146  14.312
 9169W        W80752  44.951  36.138   1.345
 9170W        W80753  24.509  34.537  13.937
 9171W        W80754  42.783  13.851   4.617
 9172W        W80755  41.566   5.272   0.494
 9173W        W80756   9.847  26.593   0.485
 9174W        W80757  35.684   9.742  10.728
 9175W        W80758  29.927  24.056   3.689
 9176W        W80759   3.197  14.824   1.810
 9177W        W80760  15.503  34.825   2.695
 9178W        W80761   3.225  18.464  11.382
 9179W        W80762  23.854   6.157   5.017
 9180W        W80763   8.192  21.869   4.179
 9181W        W80764  23.154  37.592   0.836
 9182W        W80765  26.825  20.633  12.909
 9183W        W80766  24.550   7.584  13.569
 9184W        W80767   9.808  12.324  11.199
 9185W        W80768  35.877  13.138   2.230
 9186W        W80769  32.193  40.796  10.947
 9187W        W80770  35.173  26.977   3.589
 9188W        W80771   3.769  43.615   4.814
 9189W        W80772  14.596  15.930  10.290
 9190W        W80773  18.509  32.815   3.203
 9191W        W80774  34.760  33.991  11.782
 9192W        W80775  13.280  18.751  13.562
 9193W        W80776  38.440  40.869  11.176
 9194W        W80777   8.881   6.225   4.574
 9195W        W80778  20.078  41.056  10.673
 9196W        W80779  18.649   5.821  14.340
 9197W        W80780  26.413  43.670  11.114
 9198W        W80781  24.106  24.146  10.581
 9199W        W80782  30.058   7.748  12.391
 9200W        W80783  35.919  29.404  14.108
 9201W        W80784  43.746  20.572   4.497
 9202W        W80785  31.022  43.367   1.782
 9203W        W80786  21.063  32.397  12.021
 9204W        W80787  38.926  17.970  10.039
 9205W        W80788  39.824   8.763  13.174
 9206W        W80789  17.639  27.792   3.324
 9207W        W80790   6.804  14.347  12.334
 9208W        W80791   7.361  25.906   4.205
 9209W        W80792  33.009   1.777   1.339
 9210W        W80793   3.502   6.795  12.807
 9211W        W80794  15.719  36.599  11.610
 9212W        W80795  31.865  35.291   3.040
 9213W        W80796  24.505  44.039   4.727
 9214W        W80797   4.930  17.198   4.333
 9215W        W80798  20.701   1.918   0.914
 9216W        W80799   5.217  19.061   0.903
 9217W        W80800  19.178  25.333   4.148
 9218W        W80801  11.690   8.836   1.962
 9219W        W80802  44.316  11.398  13.378
 9220W        W80803  29.530  30.064  12.595
 9221W        W80804   2.852  24.241   2.953
 9222W        W80805  16.274  16.530  12.492
 9223W        W80806   1.820  30.580  12.667
 9224W        W80807  12.961   4.915   4.284
 9225W        W80808  43.782   1.515  12.896
 9226W        W80809  36.572  42.239  14.399
 9227W        W80810  15.041  24.919  12.816
 9228W        W80811  41.947  43.252  13.387
 9229W        W80812   7.926  10.408  10.653
 9230W        W80813  22.067   5.698   2.650
 9231W        W80814  34.613  20.657   1.912
 9232W        W80815   4.908  20.637  11.453
 9233W        W80816  34.944   3.939  14.809
 9234W        W80817   1.863   2.321  13.323
 9235W        W80818  41.506  36.570   0.840
 9236W        W80819  42.196  43.995   2.337
 9237W        W80820  27.242   9.219   5.485
 9238W        W80821  24.730  21.833   4.075
 9239W        W80822  36.968  39.182   1.397
 9240W        W80823  26.605  12.772   1.933
 9241W        W80824  41.943  41.424   4.683
 9242W        W80825   3.032  31.797   0.397
 9243W        W80826  40.866   1.625   2.661
 9244W        W80827  22.252   4.943   3.128
 9245W        W80828  22.571   8.642  14.386
 9246W        W80829  38.896  24.814  11.033
 9247W        W80830   3.310  16.701   4.763
 9248W        W80831  26.958  36.436   4.104
 9249W        W80832  13.200   7.697  11.130
 9250W        W80833   0.407  21.970  14.315
 9251W        W80834  36.151  41.239  12.053
 9252W        W80835  14.851  33.690   2.273
 9253W        W80836   1.477  14.132   4.714
 9254W        W80837   4.846   8.823   1.859
 9255W        W80838  16.855  19.227   1.679
 9256W        W80839  11.075   8.926  13.750
 9257W        W80840  18.261  19.500  11.291
 9258W        W80841  23.729  42.264   2.685
 9259W        W80842  32.412  25.738   3.577
 9260W        W80843  30.663  28.959  11.647
 9261W        W80844  22.645  44.277  14.222
 9262W        W80845  26.474  34.792  13.374
 9263W        W80846  15.577  17.639   3.970
 9264W        W80847  39.004   9.663   0.246
 9265W        W80848   4.455   5.838  10.218
 9266W        W80849  26.227  19.955   5.006
 9267W        W80850   8.225  42.930  13.191
 9268W        W80851  27.895  25.039   3.536
 9269W        W80852  24.489  27.894   1.311
 9270W        W80853  28.467  23.237   4.046
 9271W        W80854  22.285  12.247  13.296
 9272W        W80855   4.640  25.905  14.752
 9273W        W80856  14.044   1.850   1.547
 9274W        W80857  34.575  20.840  14.565
 9275W        W80858   4.842  17.549  12.607
 9276W        W80859  25.427  33.326   3.469
 9277W        W80860  20.492  29.197  14.434
 9278W        W80861  21.145   7.174  13.873
 9279W        W80862  13.288   6.718   2.758
 9280W        W80863  43.277  44.219   4.279
 9281W        W80864  18.287  29.153  14.743
 9282W        W80865  42.935  13.843  14.542
 9283W        W80866  25.635   6.420   4.287
 9284W        W80867  41.393  13.795   4.616
 9285W        W80868  16.493   0.517  13.435
 9286W        W80869  26.578  39.761  10.629
 9287W        W80870  26.392  41.915   3.925
 9288W        W80871   3.137  36.367  11.973
 9289W        W80872  31.038  12.445   0.371
 9290W        W80873  40.807  31.123  13.904
 9291W        W80874  12.377  25.505   4.603
 9292W        W80875   7.301  19.249   2.702
 9293W        W80876  13.862  20.218  13.812
 9294W        W80877   2.483  30.089   1.675
 9295W        W80878   4.817  24.403   1.385
 9296W        W80879  21.776  33.039   1.238
 9297W        W80880  18.294   7.685  12.505
 9298W        W80881  18.552  21.445   1.679
 9299W        W80882  44.228  17.136   1.625
 9300W        W80883  10.734   2.480  13.557
 9301W        W80884  24.724  39.422   2.837
 9302W        W80885   9.766  35.709  11.178
 9303W        W80886  28.552   1.157   3.432
 9304W        W80887  37.873  40.126   0.921
 9305W        W80888  24.353  32.591  11.063
 9306W        W80889   9.753  29.168   0.828
 9307W        W80890  37.988  43.030  12.975
 9308W        W80891  34.158  31.007   3.350
 9309W        W80892  36.354   4.679   1.832
 9310W        W80893  14.670   4.776  13.731
 9311W        W80894  36.964  21.813  14.346
 9312W        W80895  35.971  44.606   3.520
 9313W        W80896  34.953   2.428  13.342
 9314W        W80897  33.043  30.602  11.925
 9315W        W80898  24.482   3.251   0.885
 9316W        W80899  22.898  13.264   2.389
 9317W        W80900  38.812   6.558  12.170
 9318W        W80901  30.442  21.710  13.563
 9319W        W80902   5.592  42.965  10.068
 9320W        W80903  20.585  33.043  14.647
 9321W        W80904  24.265   2.372  11.121
 9322W        W80905  21.032  18.270  11.646
 9323W        W80906  29.352   2.362  14.809
 9324W        W80907  43.090  43.815   3.314
 9325W        W80908  43.810   4.184  10.985
 9326W        W80909  18.147  39.931  12.323
 9327W        W80910  40.203  33.872  12.750
 9328W        W80911  31.419  20.710   3.650
 9329W        W80912   4.118  35.362   0.232
 9330W        W80913  29.514   7.657   0.871
 9331W        W80914  41.965  35.008   5.189
 9332W        W80915  21.208   2.353  11.126
 9333W        W80916  11.328  19.186   0.495
 9334W        W80917  14.016   0.142  10.219
 9335W        W80918  42.752   1.755  12.918
 9336W        W80919  43.316  24.991  11.132
 9337W        W80920  25.474  27.764   3.327
 9338W        W80921  33.418  22.685   4.288
 9339W        W80922  11.308  11.401   3.224
 9340W        W80923  16.362  25.600  13.904
 9341W        W80924   5.001  43.009   2.391
 9342W        W80925  18.179  19.686  13.932
 9343W        W80926  38.487  30.384   3.163
 9344W        W80927  26.041  17.777  13.752
 9345W        W80928  17.271  44.953   3.747
 9346W        W80929  35.458  43.938  13.593
 9347W        W80930  14.541  13.732   2.325
 9348W        W80931  38.432  15.403   3.765
 9349W        W80932  37.980   2.697  13.328
 9350W        W80933  43.341   0.167  14.409
 9351W        W80934  39.366  16.099  14.008
 9352W        W80935  43.172  43.306  13.936
 9353W        W80936  15.606  34.078   0.450
 9354W        W80937   9.711  37.146  13.516
 9355W        W80938  14.812  38.117   4.088
 9356W        W80939  44.819  14.784   0.867
 9357W        W80940  40.394  32.506  14.301
 9358W        W80941  40.241  35.033  11.773
 9359W        W80942  12.336  14.554   4.110
 9360W        W80943   6.940  16.860   0.745
 9361W        W80944  37.115  33.356   3.382
 9362W        W80945  29.119   4.432  10.673
 9363W        W80946   0.633  27.027  10.461
 9364W        W80947  33.116  17.726   0.876
 9365W        W80948  26.609  22.659   4.871
 9366W        W80949  31.101   3.985   2.146
 9367W        W80950  28.665  35.270   2.309
 9368W        W80951  36.909  20.287  12.091
 9369W        W80952  38.765  32.053   3.939
 9370W        W80953   7.918  44.415  12.432
 9371W        W80954   9.116  32.991   1.431
 9372W        W80955  17.541  13.096   4.279
 9373W        W80956   2.829  28.338  11.592
 9374W        W80957  16.089  21.358  10.917
 9375W        W80958  38.941  25.083   1.169
 9376W        W80959  11.657  42.865  11.696
 9377W        W80960  43.480  18.815  12.973
 9378W        W80961  23.307  19.726  14.533
 9379W        W80962  24.264  43.808   3.997
 9380W        W80963   1.361   1.554   3.630
 9381W        W80964  24.223  36.020  14.374
 9382W        W80965  16.142  27.067   1.840
 9383W        W80966   6.885   3.492   0.313
 9384W        W80967  41.395  27.720  13.486
 9385W        W80968  40.322  42.940  10.842
 9386W        W80969  27.409  17.542  11.034
 9387W        W80970  19.596  25.281   0.278
 9388W        W80971  17.601   6.337   0.400
 9389W        W80972   7.382   3.864  12.110
 9390W        W80973  32.403  39.956   1.601
 9391W        W80974  42.960  22.545  12.185
 9392W        W80975  22.605  26.169  13.997
 9393W        W80976  13.743  23.452  12.562
 9394W        W80977  33.465   0.257  12.121
 9395W        W80978  10.876  29.912  12.069
 9396W        W80979  32.528   3.579  10.747
 9397W        W80980   9.268  44.661   3.663
 9398W        W80981   3.430  23.988  14.309
 9399W        W80982  11.730  22.871  14.004
 9400W        W80983  18.584   1.784   4.242
 9401W        W80984  25.008  18.018   0.264
 9402W        W80985  19.770  28.370   2.331
 9403W        W80986  14.168   4.169   0.982
 9404W        W80987  21.008  23.139  12.962
 9405W        W80988  37.381  36.431   0.644
 9406W        W80989  20.669  11.387  12.831
 9407W        W80990  41.917   0.712   4.989
 9408W        W80991  44.726  39.250   4.727
 9409W        W80992   6.418  25.416   1.397
 9410W        W80993  30.380  26.063   0.768
 9411W        W80994   0.365  12.901   3.727
 9412W        W80995  20.064   7.941  14.031
 9413W        W80996   5.917   2.404   3.091
 9414W        W80997  21.733  32.201  13.082
 9415W        W80998   8.266   5.071  14.862
 9416W        W80999  22.780  40.497   1.298
 9417W        W81000   5.666  36.976  10.989
 9418W        W81001  41.291  29.606   2.802
 9419W        W81002  34.555  34.836   4.174
 9420W        W81003  16.567   5.867   1.297
 9421W        W81004   6.358  15.749   0.709
 9422W        W81005  17.784  34.695   3.166
 9423W        W81006  30.540  34.913   1.499
 9424W        W81007  10.816  13.519   4.150
 9425W        W81008  38.599  27.471  14.061
 9426W        W81009  39.477   3.397  12.483
 9427W        W81010  27.685  19.268  11.533
 9428W        W81011  25.780   5.262   0.154
 9429W        W81012  23.142  34.152  13.844
 9430W        W81013  31.384  10.297  12.877
 9431W        W81014  34.054   6.388  14.669
 9432W        W81015  26.507  36.538  14.975
 9433W        W81016  25.078  32.155   3.927
 9434W        W81017  32.013  26.136  11.445
 9435W        W81018  25.069  10.248   3.736
 9436W        W81019  39.325  12.365   0.014
 9437W        W81020  33.099  18.033   2.853
 9438W        W81021  17.732  22.595   1.370
 9439W        W81022  11.102   1.394  10.666
 9440W        W81023   2.725   6.852   2.154
 9441W        W81024  26.644   5.276  14.266
 9442W        W81025  40.829  29.331   2.669
 9443W        W81026  25.668   0.310   4.480
 9444W        W81027  26.229  44.147  14.536
 9445W        W81028  12.684  32.921   4.421
 9446W        W81029  22.260  13.574   4.473
 9447W        W81030   2.904  34.908   2.362
 9448W        W81031  38.039   8.945  11.093
 9449W        W81032  31.971  43.427   3.811
 9450W        W81033   3.042  23.504   2.040
 9451W        W81034  16.523  20.201  14.141
 9452W        W81035  15.110  13.326   1.753
 9453W        W81036  34.459  37.247  12.023
 9454W        W81037  44.348  32.628  13.047
 9455W        W81038  14.825  12.585   1.440
 9456W        W81039  22.550  12.361  13.939
 9457W        W81040  38.978  39.754   1.861
 9458W        W81041   5.242  17.527   0.808
 9459W        W81042  33.583  19.142  13.032
 9460W        W81043  25.048  19.317  12.101
 9461W        W81044  41.871   2.453  11.651
 9462W        W81045   4.482  30.044   2.202
 9463W        W81046   6.592   1.212  13.448
 9464W        W81047   6.413  32.022  13.524
 9465W        W81048  41.429  11.397   0.254
 9466W        W81049  39.443  40.598   0.494
 9467W        W81050  21.356  14.785   4.115
 9468W        W81051  16.653  34.469   2.703
 9469W        W81052  18.314   7.681   3.658
 9470W        W81053   0.860   1.571   2.152
 9471W        W81054   8.910  42.377  11.705
 9472W        W81055  39.724   0.782   3.768
 9473W        W81056  32.208   1.323   0.386
 9474W        W81057  41.377  15.177  10.737
 9475W        W81058   2.160  34.114  12.014
 9476W        W81059  28.455   8.186   3.717
 9477W        W81060  22.072  22.820  11.844
 9478W        W81061   9.193  39.790   3.621
 9479W        W81062  19.298   1.958   0.825
 9480W        W81063  31.562  35.483  14.382
 9481W        W81064  27.940  26.649  14.309
 9482W        W81065   2.354  25.226  11.854
 9483W        W81066  37.390   3.192  14.516
 9484W        W81067  27.114   3.323  14.922
 9485W        W81068  20.600  30.355   0.347
 9486W        W81069  34.794  39.128  11.070
 9487W        W81070  24.472  42.262  13.084
 9488W        W81071  11.336  19.210   4.097
 9489W        W81072  20.485  41.761   3.610
 9490W        W81073   5.286   0.037   4.254
 9491W        W81074  25.609  15.341  10.530
 9492W        W81075  36.309   5.262  14.253
 9493W        W81076  19.054   0.006   3.238
 9494W        W81077  32.285   9.392   2.341
 9495W        W81078  39.747  21.680  14.375
 9496W        W81079  32.061  28.522   4.524
 9497W        W81080   4.540  17.898   1.216
 9498W        W81081  20.370  44.699  11.542
 9499W        W81082   8.887  15.659  11.738
 9500W        W81083   9.604  19.601  12.420
 9501W        W81084  13.540  11.415   2.553
 9502W        W81085   9.568   8.940   4.146
 9503W        W81086  14.663  37.209  15.000
 9504W        W81087  13.820   4.912  12.589
 9505W        W81088   1.296   5.299   4.710
 9506W        W81089   0.974   6.261   2.214
 9507W        W81090  36.424  28.111   4.654
 9508W        W81091  10.290  28.486   0.245
 9509W        W81092  17.270  23.002   9.845
 9510W        W81093  30.647   8.280   2.773
 9511W        W81094  19.919  24.562   5.460
 9512W        W81095  34.758   3.758   3.671
 9513W        W81096   1.005  41.254   0.595
 9514W        W81097  12.617   3.439  11.456
 9515W        W81098  15.320   8.582   5.073
 9516W        W81099   7.299  35.680   1.655
 9517W        W81100  41.165   5.265  12.543
 9518W        W81101   9.846   1.868   2.807
 9519W        W81102  37.885  25.245   0.438
 9520W        W81103  16.655  40.565  12.890
 9521W        W81104  35.901   1.419   3.675
 9522W        W81105  22.182   2.830   0.971
 9523W        W81106  41.570  24.086  10.803
 9524W        W81107  36.851  37.374   2.419
 9525W        W81108  44.000  22.571   2.701
 9526W        W81109  37.617  12.825  12.851
 9527W        W81110  21.883   5.923   2.206
 9528W        W81111  19.419   1.117   2.613
 9529W        W81112  41.855  21.773   0.862
 9530W        W81113  42.653  22.012  14.386
 9531W        W81114   7.689   4.327   1.732
 9532W        W81115  20.218  29.738  12.922
 9533W        W81116  15.973  25.701  10.632
 9534W        W81117  28.051  13.377   1.451
 9535W        W81118  16.178  31.788   1.098
 9536W        W81119  12.347  33.481  10.547
 9537W        W81120   9.171  35.941  12.496
 9538W        W81121  12.527  44.667  13.953
 9539W        W81122  32.281  16.925   4.251
 9540W        W81123   4.697  10.495   4.609
 9541W        W81124  17.751  24.091   4.772
 9542W        W81125   5.877  40.449   2.753
 9543W        W81126  10.376  33.249   1.691
 9544W        W81127  44.916   8.367  14.527
 9545W        W81128  33.582  28.224  11.974
 9546W        W81129  26.446   4.862  11.142
 9547W        W81130  10.143  32.105  11.526
 9548W        W81131  31.706  18.484  13.518
 9549W        W81132   8.700  43.227  11.514
 9550W        W81133  19.423   7.279  11.915
 9551W        W81134  35.021   3.247   2.263
 9552W        W81135   5.811   7.251  14.304
 9553W        W81136  40.301  30.932   0.857
 9554W        W81137  17.541  38.481  14.563
 9555W        W81138  11.762  17.819   4.144
 9556W        W81139  26.219  14.345  12.920
 9557W        W81140  24.139  11.824  12.899
 9558W        W81141  27.368  21.074   2.572
 9559W        W81142  41.242  42.811  11.305
 9560W        W81143  28.562  42.924   0.458
 9561W        W81144  19.164  13.749  12.638
 9562W        W81145  38.543   6.648   4.112
 9563W        W81146   3.150  17.123  14.105
 9564W        W81147  21.291  35.779   2.725
 9565W        W81148  34.582   6.867   1.527
 9566W        W81149   8.435  18.525  13.205
 9567W        W81150  23.490  29.126   3.327
 9568W        W81151  21.487  27.572  12.066
 9569W        W81152  16.561  19.725  11.636
 9570W        W81153  33.489  41.629   4.660
 9571W        W81154  16.232  22.679   4.160
 9572W        W81155   9.882  35.499  12.038
 9573W        W81156   9.440  37.814   2.204
 9574W        W81157   0.222  21.235   3.556
 9575W        W81158  21.778  24.162  14.401
 9576W        W81159   0.838   4.832   2.278
 9577W        W81160  30.990  37.495   3.178
 9578W        W81161  12.797  32.933  12.920
 9579W        W81162  41.006   0.856   3.304
 9580W        W81163   3.727  19.308  11.019
 9581W        W81164   7.742  27.212   1.914
 9582W        W81165  10.117   2.302   5.383
 9583W        W81166  17.463  37.849  13.580
 9584W        W81167  24.216   7.001  11.358
 9585W        W81168  42.413  11.362  13.410
 9586W        W81169  43.999  33.111  12.445
 9587W        W81170  39.929   0.944   2.357
 9588W        W81171  22.578  36.893   1.949
 9589W        W81172  28.285  42.402  13.409
 9590W        W81173   5.381  36.967  11.405
 9591W        W81174  32.024   7.620  14.311
 9592W        W81175   0.786  38.332   2.811
 9593W        W81176  40.109   3.203   2.229
 9594W        W81177  38.997  22.098   2.886
 9595W        W81178  36.707  14.501   1.375
 9596W        W81179  20.483  28.111  14.355
 9597W        W81180  24.684  10.225  10.924
 9598W        W81181  43.286  18.795   2.373
 9599W        W81182   1.798  36.519  13.591
 9600W        W81183  42.766  31.030   3.791
 9601W        W81184  19.691  44.958  13.402
 9602W        W81185  35.317  34.827   3.697
 9603W        W81186   8.972   1.979   3.168
 9604W        W81187  25.043  27.145  11.148
 9605W        W81188  24.481  33.359   2.263
 9606W        W81189  24.390  21.496   1.849
 9607W        W81190  20.751  32.010  13.998
 9608W        W81191  12.308  13.569  12.557
 9609W        W81192   3.304  35.693  10.634
 9610W        W81193  11.144  31.871  12.033
 9611W        W81194  18.330  24.121  12.145
 9612W        W81195  28.496  22.023   1.738
 9613W        W81196  20.218  39.399  13.237
 9614W        W81197  26.024  25.939  12.494
 9615W        W81198  43.448   2.079   5.003
 9616W        W81199  39.487  26.206   3.394
 9617W        W81200   1.214  32.035  12.440
 9618W        W81201  28.469  25.023  12.789
 9619W        W81202  27.020   0.977  14.980
 9620W        W81203   8.826  11.830   0.786
 9621W        W81204   0.380   5.893   4.708
 9622W        W81205  28.630  27.293   1.338
 9623W        W81206  15.894  16.435   2.274
 9624W        W81207  24.623  44.796  14.812
 9625W        W81208  22.185  30.143  13.389
 9626W        W81209   9.773  36.795   3.252
 9627W        W81210  28.966   4.450   1.942
 9628W        W81211   7.365  30.946   2.992
 9629W        W81212  18.272  23.129   0.766
 9630W        W81213  18.473   2.309   1.124
 9631W        W81214  30.415  12.685   1.351
 9632W        W81215   1.044  42.874  14.296
 9633W        W81216  32.508   5.241  14.844
 9634W        W81217  24.683   4.097   1.513
 9635W        W81218  29.880  28.750  10.608
 9636W        W81219   2.372   0.213  11.931
 9637W        W81220  16.722  12.268  11.963
 9638W        W81221  10.869  41.040   0.686
 9639W        W81222  29.811  34.930   0.745
 9640W        W81223  36.250   9.690  12.211
 9641W        W81224  30.083  34.718  11.782
 9642W        W81225   1.810  21.447  14.542
 9643W        W81226  20.786  22.198   3.732
 9644W        W81227   1.142   1.796  10.760
 9645W        W81228  12.144   4.655  13.039
 9646W        W81229  27.056   1.705   2.757
 9647W        W81230  22.762  26.994   2.182
 9648W        W81231  26.585  14.806  14.516
 9649W        W81232  11.207  12.933   3.309
 9650W        W81233  23.027  29.653  11.609
 9651W        W81234  17.660  22.162   2.830
 9652W        W81235  31.443  36.662   1.787
 9653W        W81236  34.279  21.002   0.430
 9654W        W81237  28.867  13.614   1.906
 9655W        W81238  31.633  19.633  10.548
 9656W        W81239  40.931  24.698  11.230
 9657W        W81240  41.296  21.929   3.882
 9658W        W81241  28.966  33.838  11.542
 9659W        W81242  35.136  16.592  13.853
 9660W        W81243   1.350   9.911  14.720
 9661W        W81244  39.223  38.926  14.007
 9662W        W81245   7.364  24.495   3.203
 9663W        W81246  17.473  26.985   2.991
 9664W        W81247  34.660  25.164  12.365
 9665W        W81248  13.981   2.125  10.748
 9666W        W81249   5.242  26.488  11.878
 9667W        W81250  22.726  12.603   3.735
 9668W        W81251  37.924   4.817  14.808
 9669W        W81252  29.664   7.413  11.504
 9670W        W81253   1.358  34.078  14.480
 9671W        W81254  12.202  35.535   1.887
 9672W        W81255  41.883  31.109  11.877
 9673W        W81256  34.706  43.050   2.736
 9674W        W81257   5.275  43.556   3.187
 9675W        W81258  27.121  20.080  12.274
 9676W        W81259  36.588  16.859   2.389
 9677W        W81260  14.193  13.718  11.573
 9678W        W81261   8.692   9.799  11.438
 9679W        W81262  28.809  27.906   1.678
 9680W        W81263  35.321  23.023  12.493
 9681W        W81264  29.864  33.992   0.838
 9682W        W81265  43.823  22.558  14.683
 9683W        W81266   1.210  30.177   3.051
 9684W        W81267  42.886   2.022  11.174
 9685W        W81268  37.607  18.131   2.370
 9686W        W81269  31.252  42.909  14.964
 9687W        W81270  11.304   0.283   0.975
 9688W        W81271  28.106  13.283  12.309
 9689W        W81272   1.951  16.532  10.987
 9690W        W81273  10.347  42.490  14.231
 9691W        W81274  36.322  12.290  14.039
 9692W        W81275   2.671  24.832  12.003
 9693W        W81276  38.342  12.807   3.236
 9694W        W81277   4.244  24.233  14.066
 9695W        W81278   1.010   2.859   2.833
 9696W        W81279  17.090  34.015   3.736
 9697W        W81280  34.065  41.922   0.293
 9698W        W81281  37.606  19.852   1.935
 9699W        W81282  16.741  39.216  12.665
 9700W        W81283   5.414   2.340  10.581
 9701W        W81284  19.445  23.152  12.835
 9702W        W81285  37.470  11.688  10.588
 9703W        W81286  13.274   5.673   9.980
 9704W        W81287  41.168  38.942   5.076
 9705W        W81288  30.371  40.091  13.599
 9706W        W81289  22.677   1.238   4.173
 9707W        W81290   9.318  15.655  12.029
 9708W        W81291  28.023  11.578  13.487
 9709W        W81292  42.559   4.785  11.709
 9710W        W81293  30.580  32.696   3.325
 9711W        W81294   8.808  37.272   0.318
 9712W        W81295  12.650  12.095  11.107
 9713W        W81296  13.215  20.155   4.709
 9714W        W81297  13.337   0.156   1.099
 9715W        W81298   3.805  38.869  11.494
 9716W        W81299  26.541  16.652  12.831
 9717W        W81300   9.381  33.413   2.701
 9718W        W81301   9.074  41.998  14.939
 9719W        W81302  16.313  15.626  12.533
 9720W        W81303  31.033   4.818  14.946
 9721W        W81304  14.258  27.107  10.929
 9722W        W81305  21.545  31.573   2.470
 9723W        W81306  42.991  38.400  10.664
 9724W        W81307  35.846  13.235  13.012
 9725W        W81308   0.534  28.628   3.520
 9726W        W81309  17.122  12.795   4.300
 9727W        W81310  26.634  20.217  12.428
 9728W        W81311   4.756   9.660  12.389
 9729W        W81312  24.178  25.521  14.012
 9730W        W81313  24.584  16.863   2.402
 9731W        W81314   6.094   1.301  13.394
 9732W        W81315   8.256  24.891   3.218
 9733W        W81316  11.191  18.479  12.022
 9734W        W81317   5.867  31.655   1.262
 9735W        W81318  18.340  30.179  12.027
 9736W        W81319  32.970  25.647   4.954
 9737W        W81320  32.606  17.869  11.609
 9738W        W81321  42.128   1.276  14.409
 9739W        W81322  31.637   1.051  12.984
 9740W        W81323  37.542  20.740  12.442
 9741W        W81324  26.173  19.371  12.639
 9742W        W81325  27.135  33.228  10.262
 9743W        W81326  39.382  18.478   0.389
 9744W        W81327  18.590  41.680   0.387
 9745W        W81328  24.809  20.682  13.499
 9746W        W81329  10.165  31.011  10.644
 9747W        W81330   3.757  34.836   1.720
 9748W        W81331   8.927  32.990   0.016
 9749W        W81332   0.283  32.941  14.612
 9750W        W81333  39.099  30.483   0.900
 9751W        W81334   2.699  31.744  14.975
 9752W        W81335  43.440  28.099   1.386
 9753W        W81336   2.280  24.488   1.419
 9754W        W81337  36.303  22.647   2.625
 9755W        W81338   6.668   6.278   3.028
 9756W        W81339   4.287  18.333  11.157
 9757W        W81340  44.783  13.060   2.441
 9758W        W81341   0.800  14.740  12.303
 9759W        W81342  27.598  23.809   0.392
 9760W        W81343  27.635  27.762   2.401
 9761W        W81344  37.481  10.331  10.059
 9762W        W81345  14.011   5.607   4.209
 9763W        W81346  29.599  32.013  11.556
 9764W        W81347  36.034   4.251   2.407
 9765W        W81348  37.952  28.652  11.157
 9766W        W81349  41.446   6.296   4.133
 9767W        W81350   0.984   7.717   4.549
 9768W        W81351   5.867   9.620  12.910
 9769W        W81352  30.903  37.768   4.160
 9770W        W81353  33.932  23.293  10.562
 9771W        W81354  25.113   8.160   3.904
 9772W        W81355  15.122  39.496  14.309
 9773W        W81356  13.633  29.370  10.719
 9774W        W81357  25.571  28.409  14.403
 9775W        W81358  29.097   9.355  11.483
 9776W        W81359  31.617  12.569   2.680
 9777W        W81360  32.898  39.047  12.078
 9778W        W81361  22.288  27.034  11.083
 9779W        W81362  18.999   6.184  14.473
 9780W        W81363  43.250  13.819   1.384
 9781W        W81364  42.802  28.359   3.155
 9782W        W81365  38.398   0.994  11.580
 9783W        W81366   8.890  18.683   4.736
 9784W        W81367  32.867  12.658  12.360
 9785W        W81368   4.250   1.782  11.691
 9786W        W81369   6.788  15.712   2.999
 9787W        W81370   7.107   1.989  12.949
 9788W        W81371  15.443  23.805  11.082
 9789W        W81372  33.545  41.274   1.282
 9790W        W81373  41.817  27.360   0.250
 9791W        W81374   3.736  24.111   4.325
 9792W        W81375   5.620  37.785  12.414
 9793W        W81376  25.125  25.585   4.664
 9794W        W81377  37.591  32.376  10.668
 9795W        W81378  16.607  32.672  13.816
 9796W        W81379  32.457  44.214   1.376
 9797W        W81380  13.397  15.643  12.894
 9798W        W81381  32.561   3.972  13.117
 9799W        W81382  24.290   3.478   1.799
 9800W        W81383  34.610  26.758  12.733
 9801W        W81384  15.807  43.547   0.281
 9802W        W81385  36.178  17.636  14.866
 9803W        W81386   2.523  35.439  11.006
 9804W        W81387   0.733   6.297   4.661
 9805W        W81388   1.809  37.619   0.544
 9806W        W81389  34.857  19.766   0.339
 9807W        W81390   7.718  23.382   0.309
 9808W        W81391   7.985   2.797  12.116
 9809W        W81392  23.689  16.756   2.161
 9810W        W81393  12.501  19.694  11.037
 9811W        W81394  19.134  15.605  12.097
 9812W        W81395  15.691  26.462  11.130
 9813W        W81396  22.348  26.735   1.210
 9814W        W81397  23.889   2.450  14.405
 9815W        W81398  20.585  22.491  14.886
 9816W        W81399  20.351  34.625  14.017
 9817W        W81400  24.578   0.445   2.632
 9818W        W81401  42.403  14.337  10.452
 9819W        W81402  10.288  22.354  12.839
 9820W        W81403  40.973  11.402  14.962
 9821W        W81404  22.002  19.291   2.356
 9822W        W81405  11.091  16.229   3.813
 9823W        W81406  15.055  26.537   3.992
 9824W        W81407  37.811  18.041   0.526
 9825W        W81408  29.604  44.035   2.647
 9826W        W81409  15.832  30.198   3.594
 9827W        W81410   7.847  29.560   4.087
 9828W        W81411  13.658  33.965   0.722
 9829W        W81412   1.738   8.151  11.265
 9830W        W81413   8.406  21.101  13.398
 9831W        W81414   0.538  13.418   4.101
 9832W        W81415  44.506   9.981   3.696
 9833W        W81416  12.788  19.332  12.856
 9834W        W81417  14.867  24.308  14.509
 9835W        W81418  18.740  35.544  12.458
 9836W        W81419   5.662  18.562   2.195
 9837W        W81420  15.708  17.662   0.756
 9838W        W81421  36.307  23.980   3.858
 9839W        W81422  20.311   9.726  11.914
 9840W        W81423  42.546  36.963   2.213
 9841W        W81424  44.432  20.600   3.335
 9842W        W81425  12.217   0.662  11.405
 9843W        W81426  22.641  23.566  13.377
 9844W        W81427  25.372  14.756   2.844
 9845W        W81428  15.787  38.012  12.486
 9846W        W81429  20.955   0.812   0.015
 9847W        W81430   8.764  29.988  14.130
 9848W        W81431  43.983  40.633   3.720
 9849W        W81432  28.020  10.273  14.721
 9850W        W81433  37.763  19.793  11.896
 9851W        W81434  36.407   3.303   0.423
 9852W        W81435  23.665  16.298   3.961
 9853W        W81436  11.740  28.459  12.798
 9854W        W81437   2.760  26.675   3.695
 9855W        W81438  14.559   5.850   1.334
 9856W        W81439  21.863  19.163   4.074
 9857W        W81440  25.537  35.473  11.125
 9858W        W81441  28.132  25.042   1.074
 9859W        W81442   2.271  33.337  14.730
 9860W        W81443  36.577  28.695  10.562
 9861W        W81444  35.878  29.916   3.708
 9862W        W81445  36.076   8.814  13.828
 9863W        W81446  10.475  14.254   2.568
 9864W        W81447   9.852  43.947   1.566
 9865W        W81448  26.590  32.598   1.300
 9866W        W81449  14.621  14.845   4.580
 9867W        W81450  15.150  15.719   4.259
 9868W        W81451  42.785  22.654   1.225
 9869W        W81452  14.528  19.253   4.411
 9870W        W81453  22.599   1.505  14.754
 9871W        W81454  18.675  38.140   4.790
 9872W        W81455  27.678  42.070  12.928
 9873W        W81456  25.971  36.417  12.990
 9874W        W81457   1.795  10.480  10.992
 9875W        W81458   7.455  17.558   2.159
 9876W        W81459  44.290   8.164   2.375
 9877W        W81460   8.903   0.729  10.665
 9878W        W81461  31.836   2.406   4.582
 9879W        W81462  22.069  21.302   0.131
 9880W        W81463  38.513  33.513  11.625
 9881W        W81464   4.358   8.598  10.688
 9882W        W81465  38.790   5.176   0.797
 9883W        W81466  34.622   6.342   2.816
 9884W        W81467  21.635  35.894  11.168
 9885W        W81468  39.775  42.516   0.353
 9886W        W81469   1.525  26.444  14.319
 9887W        W81470  26.933  34.478  13.909
 9888W        W81471  17.779  41.842   2.095
 9889W        W81472  31.934  10.391   3.265
 9890W        W81473  24.534   8.521   3.320
 9891W        W81474  19.315  24.544   2.235
 9892W        W81475  32.605  12.904   4.932
 9893W        W81476  19.182   1.276   3.680
 9894W        W81477  37.628   8.561   0.461
 9895W        W81478  18.620  10.274  14.075
 9896W        W81479  40.954  44.408   2.129
 9897W        W81480  18.206   9.955  13.978
 9898W        W81481  26.547  19.511  10.341
 9899W        W81482  22.927  26.477  13.276
 9900W        W81483  17.881  24.029   3.784
 9901W        W81484  16.596  29.530  12.532
 9902W        W81485   5.301  22.180   0.916
 9903W        W81486   1.721  35.442   1.216
 9904W        W81487   0.294  26.078  10.580
 9905W        W81488  25.562   4.753  11.681
 9906W        W81489  18.082  27.565  11.141
 9907W        W81490  11.906  16.195   0.312
 9908W        W81491  25.304  24.656   4.567
 9909W        W81492  13.097  12.273   0.760
 9910W        W81493  17.773  28.320   1.935
 9911W        W81494  24.024  30.965   1.238
 9912W        W81495  12.715  27.140   0.801
 9913W        W81496  35.100  11.882   3.763
 9914W        W81497   6.676  36.002  12.433
 9915W        W81498  40.524  42.343   4.612
 9916W        W81499   2.443  19.026   3.718
 9917W        W81500   4.921  24.492   3.558
 9918W        W81501  35.906  39.937  10.711
 9919W        W81502  30.160  15.193  13.528
 9920W        W81503   9.220  21.647  13.524
 9921W        W81504  38.014  22.413   0.944
 9922W        W81505  33.180  17.640  10.974
 9923W        W81506  24.874  13.688   3.701
 9924W        W81507  17.814  44.508   2.275
 9925W        W81508   0.733   6.346   3.130
 9926W        W81509  42.835  15.705  14.992
 9927W        W81510  11.452  21.543   2.822
 9928W        W81511   2.819   0.048   3.238
 9929W        W81512  18.667  43.852   4.593
 9930W        W81513  26.104  15.265   3.320
 9931W        W81514  21.273  23.114  12.510
 9932W        W81515  17.301  20.544  14.503
 9933W        W81516  20.692  12.156  14.291
 9934W        W81517  25.171  10.763  11.630
 9935W        W81518  32.439  18.931  13.882
 9936W        W81519  22.221  17.601  10.715
 9937W        W81520  43.927  17.351   2.500
 9938W        W81521  19.238   0.799  13.574
 9939W        W81522  17.191  38.282   3.401
 9940W        W81523  27.906  27.334   1.715
 9941W        W81524  17.365  35.429   3.097
 9942W        W81525   5.757  17.290  12.644
 9943W        W81526  29.179   5.188   2.791
 9944W        W81527  23.916  14.609  14.163
 9945W        W81528   1.363   5.182   4.203
 9946W        W81529  16.105  19.471  14.736
 9947W        W81530  10.969  40.586   3.171
 9948W        W81531   0.322  14.591   0.748
 9949W        W81532  27.476  23.471   0.810
 9950W        W81533  11.736  14.203  14.724
 9951W        W81534  18.525  16.043  13.567
 9952W        W81535  40.861   2.294  12.549
 9953W        W81536  21.533   4.136  13.209
 9954W        W81537  10.832  23.492   1.305
 9955W        W81538  23.030  31.188   3.290
 9956W        W81539   1.827   8.670  14.798
 9957W        W81540  27.081  25.139   3.091
 9958W        W81541   5.413   4.939   0.298
 9959W        W81542   3.975   7.140  12.408
 9960W        W81543  13.688  24.739  13.568
 9961W        W81544  35.197  38.984   3.639
 9962W        W81545  43.483   2.805   4.488
 9963W        W81546  18.671  42.404  10.682
 9964W        W81547  12.056  36.999  14.413
 9965W        W81548  40.817   2.218   3.374
 9966W        W81549  33.049  25.127   3.138
 9967W        W81550   6.760  20.084  14.892
 9968W        W81551   4.292   4.457  14.853
 9969W        W81552  31.580  17.549  14.077
 9970W        W81553   6.832  30.920   4.729
 9971W        W81554  20.561   1.233  10.687
 9972W        W81555  16.069  14.724  14.245
 9973W        W81556  31.801  21.720   5.391
 9974W        W81557  40.782  35.480   2.278
 9975W        W81558  19.521  24.510  11.523
 9976W        W81559  18.707  20.018   1.236
 9977W        W81560  14.715  42.367  13.492
 9978W        W81561  16.267  42.479   5.144
 9979W        W81562   7.414  14.168   0.270
 9980W        W81563  18.767   3.258   3.418
 9981W        W81564  14.276  41.904  11.540
 9982W        W81565   9.796  35.238  14.801
 9983W        W81566  42.530  30.748  12.471
 9984W        W81567  37.119  28.893  11.030
 9985W        W81568  11.476  24.712   2.359
 9986W        W81569   5.612  36.149  13.861
 9987W        W81570  40.349  12.371   3.614
 9988W        W81571   5.034  19.232   0.438
 9989W        W81572  27.605  38.066  14.459
 9990W        W81573  44.955  27.546   1.854
 9991W        W81574   1.389  33.851  14.020
 9992W        W81575  13.199  39.312   4.192
 9993W        W81576  21.277  12.121   0.812
 9994W        W81577   9.410  40.895  13.011
 9995W        W81578   2.846  35.445  14.886
 9996W        W81579  13.722  29.179   4.612
 9997W        W81580  43.825  44.251   4.845
 9998W        W81581  34.851  39.510   1.424
 9999W        W81582  28.915  20.300  12.611
10000W        W81583  24.182  24.645   0.697
10001W        W81584   6.609  38.583  13.372
10002W        W81585  39.928  38.850   3.750
10003W        W81586  31.175  18.492   2.231
10004W        W81587  37.151  28.261  13.879
10005W        W81588  30.554  33.978  11.663
10006W        W81589   6.828  35.053  14.697
10007W        W81590   2.446  20.327  12.139
10008W        W81591  30.402  41.456   3.837
10009W        W81592  37.397  20.365   3.238
10010W        W81593  25.609  27.750  12.500
10011W        W81594  38.557  11.785   4.218
10012W        W81595   5.003   6.454  13.108
10013W        W81596  12.065  25.983   2.842
10014W        W81597  24.239  18.263  10.417
10015W        W81598  37.612  44.750  13.403
10016W        W81599   2.981  38.095  11.581
10017W        W81600   4.054  18.778  11.213
10018W        W81601  24.044  24.620   2.582
10019W        W81602   9.887   8.302  11.572
10020W        W81603  28.107  19.572  11.665
10021W        W81604  25.111  10.997  10.270
10022W        W81605  40.222  12.818  11.235
10023W        W81606  23.020   0.263  13.490
10024W        W81607  39.861  31.866   4.278
10025W        W81608   6.124  37.048   2.201
10026W        W81609   5.703  10.815  12.356
10027W        W81610  34.966  27.238   4.828
10028W        W81611   1.756  33.446  12.773
10029W        W81612  28.909  42.813   2.383
10030W        W81613  24.977  23.667  13.215
10031W        W81614  40.846  40.106  13.414
10032W        W81615  22.872   3.972  11.847
10033W        W81616  15.329  30.179  13.904
10034W        W81617  19.804  43.994   0.836
10035W        W81618   0.314  39.950   1.692
10036W        W81619   2.968  20.492  11.683
10037W        W81620  10.691  30.529   1.711
10038W        W81621  23.001   8.300   3.142
10039W        W81622  20.735  20.336  11.705
10040W        W81623   8.995  14.926  11.980
10041W        W81624   5.219  23.121   3.043
10042W        W81625  36.164  39.550  10.943
10043W        W81626  33.474  32.921  12.102
10044W        W81627  13.866  33.026  11.529
10045W        W81628  19.381  13.368  14.452
10046W        W81629  39.901  13.645  12.106
10047W        W81630  29.962  39.599   1.866
10048W        W81631  29.264  15.004  12.044
10049W        W81632  35.488  33.194   4.577
10050W        W81633  34.028  14.848  12.442
10051W        W81634  19.660  20.507   4.722
10052W        W81635  14.646   2.291   3.573
10053W        W81636   7.097  29.931  12.882
10054W        W81637  29.982  34.968  13.076
10055W        W81638  34.592  19.354   0.483
10056W        W81639  16.547  30.915   2.589
10057W        W81640  31.602  36.392  13.605
10058W        W81641  10.994  26.101  11.179
10059W        W81642  35.650  18.229  13.795
10060W        W81643  34.404   1.266  14.745
10061W        W81644  39.030  32.906   0.582
10062W        W81645   4.374  10.155  11.691
10063W        W81646  16.750  27.026  11.590
10064W        W81647  42.414  43.280   0.031
10065W        W81648  27.843  28.983   1.240
10066W        W81649  13.847  27.615  13.332
10067W        W81650   8.771  15.597   0.450
10068W        W81651   9.773  38.410   2.604
10069W        W81652  33.653   4.462   3.298
10070W        W81653  28.435  22.059   4.214
10071W        W81654  17.207  20.175   0.786
10072W        W81655  36.035  41.005   0.255
10073W        W81656  29.966  25.217   3.822
10074W        W81657  30.656  19.990  11.184
10075W        W81658   6.661  18.631  11.194
10076W        W81659  41.803  37.522   2.223
10077W        W81660  32.594  17.812   2.876
10078W        W81661  39.139  15.318   4.138
10079W        W81662  11.586  36.797   3.307
10080W        W81663  14.917  44.548  14.869
10081W        W81664  40.706  10.046   0.742
10082W        W81665  15.194  44.485   1.895
10083W        W81666   0.217   2.494  13.981
10084W        W81667  40.486  44.480   1.946
10085W        W81668  13.730  18.614   3.268
10086W        W81669   8.187  44.334  14.973
10087W        W81670  22.056  36.362  13.124
10088W        W81671  30.816  13.623   1.269
10089W        W81672  35.888  35.318   4.235
10090W        W81673   9.108   5.750  11.769
10091W        W81674  44.413  11.231  12.006
10092W        W81675   6.481  39.000  12.052
10093W        W81676  26.903   0.322   0.744
10094W        W81677  44.819  27.365  10.608
10095W        W81678  24.134  28.415  13.939
10096W        W81679  25.681  41.430  12.390
10097W        W81680  31.006  12.745  11.424
10098W        W81681  26.667  37.159  13.391
10099W        W81682  35.147  42.450   3.648
10100W        W81683  26.141  21.461  11.590
10101W        W81684  31.646  37.726   3.616
10102W        W81685  20.956  39.856   0.614
10103W        W81686  33.397  29.015  14.006
10104W        W81687   2.778  15.991   0.233
10105W        W81688   4.954  41.941   3.496
10106W        W81689  19.520  19.439   0.276
10107W        W81690  42.989  29.698   1.829
10108W        W81691  36.499  24.769   0.911
10109W        W81692  41.924  13.125  11.300
10110W        W81693  42.160  12.659   3.229
10111W        W81694  43.391   2.455  11.579
10112W        W81695  10.613  31.559   2.335
10113W        W81696  40.203   6.197   3.556
10114W        W81697   5.752  39.610  12.784
10115W        W81698  11.629   9.625  12.499
10116W        W81699  38.440  10.294  11.005
10117W        W81700   4.931  17.193  14.798
10118W        W81701   5.454  12.884   4.174
10119W        W81702  23.201  44.968  12.921
10120W        W81703  26.423  22.823   1.874
10121W        W81704  39.028  10.478   2.338
10122W        W81705  28.818  11.838   1.360
10123W        W81706  35.744  33.083  11.994
10124W        W81707   1.271  42.857   3.655
10125W        W81708  38.884  33.380   0.426
10126W        W81709  19.138  25.445   0.468
10127W        W81710  14.835  13.843   3.750
10128W        W81711  16.969  37.068  10.204
10129W        W81712  22.061  41.765   3.703
10130W        W81713   4.293  26.432   4.098
10131W        W81714  17.371  35.657  12.456
10132W        W81715  18.135  39.284  12.945
10133W        W81716  21.693  27.529   5.483
10134W        W81717  36.946  22.222  14.013
10135W        W81718  10.019  29.617   1.878
10136W        W81719  22.571  11.394  14.737
10137W        W81720  24.233  17.298   0.928
10138W        W81721   0.983   6.721   4.503
10139W        W81722  36.512  28.578  11.650
10140W        W81723  42.726  36.464   2.203
10141W        W81724   5.242  44.219   2.257
10142W        W81725   4.239  23.081  12.005
10143W        W81726  43.860   9.602   2.223
10144W        W81727  25.814  27.182  14.834
10145W        W81728  22.789  26.983  10.876
10146W        W81729  15.338   1.845  12.377
10147W        W81730  29.052   0.995  10.763
10148W        W81731  31.686  37.982  13.967
10149W        W81732  26.575  38.487   3.845
10150W        W81733   5.675  18.447   4.595
10151W        W81734  42.298  38.444   2.567
10152W        W81735  29.574  23.186   2.773
10153W        W81736  18.098  11.847   4.243
10154W        W81737  37.878  13.715   2.251
10155W        W81738  36.394   3.326  14.359
10156W        W81739   6.156  15.267   4.904
10157W        W81740  39.500  22.616   2.257
10158W        W81741  16.518  31.417   2.718
10159W        W81742  38.278  37.097  10.826
10160W        W81743  40.922   1.045  11.200
10161W        W81744  14.610  13.214  12.467
10162W        W81745  23.691   0.713  11.115
10163W        W81746  40.089   5.506  13.660
10164W        W81747  22.712  29.764  12.548
10165W        W81748  23.124  35.014   1.327
10166W        W81749  31.501   6.342   2.325
10167W        W81750   6.319  19.953   1.448
10168W        W81751  28.896  20.025  14.445
10169W        W81752  13.346  30.636  13.876
10170W        W81753  39.629   2.673   1.716
10171W        W81754  35.978  29.244  14.604
10172W        W81755  13.959   3.632  14.115
10173W        W81756  18.138   7.347  10.666
10174W        W81757  23.649  15.846  14.468
10175W        W81758  40.478  34.475  13.563
10176W        W81759  18.547  15.033  10.623
10177W        W81760   5.181  14.413  14.923
10178W        W81761  29.930  30.842   1.701
10179W        W81762  33.313  44.732   3.298
10180W        W81763  15.337  34.621  13.549
10181W        W81764   7.911   5.893   3.207
10182W        W81765  22.786  13.780   3.294
10183W        W81766  34.168  41.941   4.159
10184W        W81767  31.656  38.275  10.759
10185W        W81768   7.008  25.018   0.442
10186W        W81769  28.429  22.510  11.609
10187W        W81770  26.584  35.618  13.038
10188W        W81771  18.994   0.939   4.168
10189W        W81772  40.922  18.619  14.725
10190W        W81773  26.910  28.801   1.256
10191W        W81774  25.829  44.733   0.362
10192W        W81775  35.984   9.606  14.313
10193W        W81776   0.229  27.306   4.510
10194W        W81777   7.160  39.424   0.711
10195W        W81778  31.941   5.338   3.321
10196W        W81779  25.513   8.773   2.370
10197W        W81780   8.663  32.929   4.610
10198W        W81781  17.666   5.809  13.452
10199W        W81782  16.013  43.947   4.526
10200W        W81783  33.968  14.841   4.463
10201W        W81784   6.192   6.364  12.112
10202W        W81785  14.030  35.913   2.782
10203W        W81786  43.290  17.219   1.760
10204W        W81787  43.588  42.148  14.825
10205W        W81788  31.444  18.523   1.806
10206W        W81789  25.650  43.881   4.401
10207W        W81790  28.601   6.940   0.089
10208W        W81791  40.976   8.745  14.563
10209W        W81792  39.492  16.738   4.252
10210W        W81793  33.901   2.504  11.873
10211W        W81794  33.020  28.675  13.967
10212W        W81795   4.838  42.584   1.585
10213W        W81796  22.524   6.852  11.878
10214W        W81797  38.476  18.227  10.903
10215W        W81798  12.262   0.698   3.743
10216W        W81799  25.786  14.179   2.323
10217W        W81800  37.508  43.897   3.725
10218W        W81801  32.391  30.956   1.638
10219W        W81802  20.743  14.678  11.598
10220W        W81803  38.961  35.922  13.310
10221W        W81804  21.646  20.180   4.540
10222W        W81805  33.908  25.997   4.652
10223W        W81806  40.430   0.764   4.627
10224W        W81807  21.013  32.652  13.645
10225W        W81808   1.017  41.012  12.934
10226W        W81809  22.497  27.707  13.613
10227W        W81810   2.380  16.816  13.827
10228W        W81811  40.806  20.978   1.918
10229W        W81812   9.998  16.358  12.794
10230W        W81813  18.693  23.197  10.614
10231W        W81814  43.253   8.869  13.957
10232W        W81815  34.032  31.524   4.734
10233W        W81816  24.196  17.728  13.319
10234W        W81817  36.407  23.026  13.398
10235W        W81818   8.293  38.986  12.490
10236W        W81819  29.528  12.549   0.359
10237W        W81820  22.492   8.764  13.387
10238W        W81821  42.747   4.181   1.678
10239W        W81822  25.065  22.112  12.271
10240W        W81823  17.139  37.987   4.618
10241W        W81824  27.271  28.507   3.590
10242W        W81825  37.884  35.041  11.891
10243W        W81826  34.353  11.541   4.189
10244W        W81827   0.978  34.391   0.226
10245W        W81828   2.464  26.736   4.120
10246W        W81829  22.979  35.468  11.490
10247W        W81830   4.970  14.079  12.455
10248W        W81831  36.997  33.587  12.982
10249W        W81832  34.906  11.181   0.639
10250W        W81833   9.156   8.826   2.360
10251W        W81834  24.814  11.208   3.816
10252W        W81835  14.348  22.312  10.911
10253W        W81836  31.144  10.264   3.886
10254W        W81837  16.788  26.935   4.230
10255W        W81838   8.219  29.135   2.826
10256W        W81839  17.042  17.633  14.911
10257W        W81840  12.816   8.399  10.877
10258W        W81841  22.976  39.966  12.000
10259W        W81842  38.819  23.108  10.923
10260W        W81843   4.665  39.390  12.107
10261W        W81844  10.126   2.733  13.679
10262W        W81845   7.484  29.597  14.742
10263W        W81846  36.641  21.120  11.453
10264W        W81847  38.851  44.254   3.582
10265W        W81848  17.366  44.469   3.581
10266W        W81849  22.415   1.968  13.855
10267W        W81850   4.425  17.705   2.934
10268W        W81851  22.704  22.543  11.114
10269W        W81852   2.010  20.482  13.896
10270W        W81853  36.559  16.751   3.443
10271W        W81854  13.766  40.796  14.811
10272W        W81855   8.305  15.182  13.391
10273W        W81856   7.411  42.723  11.944
10274W        W81857  39.134  35.502   3.352
10275W        W81858   5.654  31.458  14.415
10276W        W81859  29.508   5.149   4.094
10277W        W81860  25.175  16.657   1.883
10278W        W81861  34.707  33.443   1.661
10279W        W81862  30.975  35.386  14.476
10280W        W81863  34.614  41.411  12.380
10281W        W81864   2.476   9.850  13.876
10282W        W81865  11.798  24.439   0.800
10283W        W81866  16.788   3.083  12.102
10284W        W81867  15.722  19.502   1.939
10285W        W81868  19.664   1.435  14.502
10286W        W81869  29.658  22.312   2.220
10287W        W81870  19.123  18.329  13.007
10288W        W81871  36.930  43.098   0.210
10289W        W81872  30.131  38.569  10.580
10290W        W81873  18.837  42.859   3.114
10291W        W81874   2.953  39.879  11.061
10292W        W81875  17.060  25.408   5.111
10293W        W81876  15.382  44.302  13.337
10294W        W81877  17.769  14.756   2.682
10295W        W81878   2.196  16.643   0.358
10296W        W81879   0.863  31.076   4.116
10297W        W81880  31.140  18.071   1.166
10298W        W81881  11.833  41.223  13.084
10299W        W81882  30.589  40.580   2.676
10300W        W81883   8.596  41.545   4.247
10301W        W81884  37.155   2.362  10.759
10302W        W81885  17.074  43.301  13.902
10303W        W81886   4.313  34.237  12.811
10304W        W81887   7.925  35.406  12.019
10305W        W81888  42.799  30.257   2.097
10306W        W81889   3.919  38.427  11.259
10307W        W81890  27.818  34.044   0.948
10308W        W81891  35.173  39.917  12.453
10309W        W81892  34.985  15.110  13.866
10310W        W81893  38.083   7.063   0.712
10311W        W81894  15.853  15.079  13.917
10312W        W81895  22.748  41.856  12.962
10313W        W81896  27.455   5.578   0.964
10314W        W81897  15.013  35.082   4.574
10315W        W81898  14.462   4.049  11.584
10316W        W81899  10.740  44.209   1.342
10317W        W81900  27.555  36.249  14.029
10318W        W81901  31.251  16.357  12.902
10319W        W81902  44.395  44.557   1.697
10320W        W81903  16.224  15.708   1.750
10321W        W81904  36.651   6.799  12.606
10322W        W81905  34.993   8.788  11.399
10323W        W81906  36.963  42.257   1.495
10324W        W81907   1.850  19.654   1.651
10325W        W81908   7.878  16.268   0.298
10326W        W81909   9.376  10.888   1.498
10327W        W81910  17.756   5.755   0.690
10328W        W81911  13.361  30.642  11.273
10329W        W81912  17.733  23.708   2.832
10330W        W81913  12.335  19.964   3.112
10331W        W81914  26.333  38.127   0.357
10332W        W81915  32.088  25.301  11.358
10333W        W81916  33.955  37.415  10.627
10334W        W81917  10.311  24.662  11.900
10335W        W81918  42.843  24.942   2.856
10336W        W81919  11.621  31.128  11.467
10337W        W81920  31.378   0.913   2.166
10338W        W81921  44.300  37.055  13.337
10339W        W81922  34.824  24.692   0.483
10340W        W81923  38.959  42.764   2.608
10341W        W81924   3.402  10.109  13.383
10342W        W81925  16.205   0.356  14.213
10343W        W81926  14.333   3.737  12.399
10344W        W81927  44.321   9.569   4.664
10345W        W81928   1.790   5.204  11.765
10346W        W81929  33.123  14.833  11.671
10347W        W81930  39.355  24.967   0.282
10348W        W81931  33.613  37.871  11.093
10349W        W81932  30.150  22.001  11.192
10350W        W81933  11.794  11.311   4.613
10351W        W81934   4.483  41.946  10.717
10352W        W81935  17.167  26.678  14.832
10353W        W81936  44.786   0.243   4.586
10354W        W81937  41.450  35.164  11.353
10355W        W81938  11.068  11.853   4.535
10356W        W81939   3.924  23.199   0.317
10357W        W81940  23.410  12.840   1.740
10358W        W81941  11.734  34.517  12.255
10359W        W81942  23.192  38.453  14.780
10360W        W81943   9.605   9.282   4.577
10361W        W81944  24.457  39.408   2.319
10362W        W81945  11.884   6.725  11.539
10363W        W81946  38.103   6.427   2.753
10364W        W81947  22.159  23.526   2.284
10365W        W81948  21.740  36.624  10.628
10366W        W81949  30.644  39.565  12.193
10367W        W81950  24.445  21.227  12.919
10368W        W81951  31.489  26.166  13.994
10369W        W81952  16.640  26.727  11.995
10370W        W81953   7.004  42.900  12.248
10371W        W81954  33.882   3.744   3.768
10372W        W81955  26.398  38.476   1.440
10373W        W81956  34.157  44.180   4.076
10374W        W81957  39.496  39.384  13.900
10375W        W81958   6.462  18.573   2.962
10376W        W81959  34.389  14.754   2.638
10377W        W81960  35.082   6.917  11.219
10378W        W81961  44.755  10.784   3.995
10379W        W81962   1.346  11.627   4.677
10380W        W81963  38.531   6.584  11.114
10381W        W81964   4.880  42.062  12.959
10382W        W81965  40.262  23.411  13.474
10383W        W81966  21.021  25.452  14.751
10384W        W81967  25.731  33.548  12.587
10385W        W81968  12.545  21.109   4.596
10386W        W81969   7.089  12.553   1.368
10387W        W81970  38.458  15.739   2.360
10388W        W81971   1.430  30.561   4.590
10389W        W81972  33.122  31.929   2.464
10390W        W81973   1.313  16.635   3.879
10391W        W81974  11.180  16.656   0.974
10392W        W81975  30.588  13.686  13.797
10393W        W81976  37.383  11.242  12.085
10394W        W81977  17.066  32.293   2.283
10395W        W81978   8.697  42.265   3.681
10396W        W81979  35.559  28.475   2.658
10397W        W81980  35.101  15.510   4.126
10398W        W81981   3.826  24.926   3.352
10399W        W81982  42.319   8.348  10.737
10400W        W81983  36.600  33.430  11.871
10401W        W81984   5.285  36.173  12.020
10402W        W81985  34.071   5.476   2.668
10403W        W81986  29.542  25.004   4.510
10404W        W81987  27.480  25.171   2.737
10405W        W81988   2.700   9.174  12.464
10406W        W81989  20.184  38.015   0.266
10407W        W81990  21.319  18.230  12.458
10408W        W81991   6.283   8.799  14.135
10409W        W81992  37.985  20.433   1.343
10410W        W81993  40.809  27.216  12.890
10411W        W81994  25.659  41.073   4.756
10412W        W81995  22.884  14.213  11.375
10413W        W81996   7.260  10.210  13.951
10414W        W81997  10.373  11.830  14.550
10415W        W81998  35.533  16.096  10.471
10416W        W81999  24.686  34.026  10.908
10417W        W82000  36.313  23.765   2.143
10418W        W82001   3.943  40.374   2.114
10419W        W82002  39.273   2.719   1.342
10420W        W82003  44.813  13.756  12.422
10421W        W82004  36.177  15.854  13.999
10422W        W82005  37.868  29.684  14.403
10423W        W82006  40.815  32.384  10.982
10424W        W82007  23.101   8.576   4.121
10425W        W82008  22.502  36.700  12.447
10426W        W82009  34.608   5.760  12.963
10427W        W82010  22.639   2.758   1.225
10428W        W82011  20.589  40.080  14.566
10429W        W82012  42.923  12.259  13.287
10430W        W82013  27.585   2.822  11.924
10431W        W82014  26.304  11.256  10.887
10432W        W82015   0.676  10.091   2.193
10433W        W82016  37.614  33.090   0.451
10434W        W82017   4.967  14.751  14.584
10435W        W82018  40.501  32.209  12.034
10436W        W82019  14.975  39.772  12.868
10437W        W82020  16.642  22.889   2.216
10438W        W82021  23.142  26.729  11.458
10439W        W82022  11.816   8.759  13.094
10440W        W82023  30.024   0.018  13.191
10441W        W82024  38.110  43.240  12.515
10442W        W82025  18.121   4.415  14.344
10443W        W82026  19.724  43.525   1.127
10444W        W82027  17.091   4.773  14.280
10445W        W82028  23.116  29.141  10.317
10446W        W82029  21.154  35.856  11.632
10447W        W82030  26.281  16.522   3.640
10448W        W82031  14.142  13.297   0.811
10449W        W82032  12.382   4.462   4.733
10450W        W82033  13.348   6.741   4.137
10451W        W82034  23.609   9.141  14.861
10452W        W82035   0.401  22.771  13.936
10453W        W82036  19.201  27.831   2.023
10454W        W82037  29.186  30.126  13.453
10455W        W82038  28.115   2.447   1.567
10456W        W82039   4.769   2.157   3.698
10457W        W82040   0.661   2.641   3.904
10458W        W82041  23.194   4.596   3.224
10459W        W82042  33.401  22.463  14.447
10460W        W82043   8.813  40.275  13.392
10461W        W82044  38.849  22.432  14.937
10462W        W82045  22.445  37.589   4.134
10463W        W82046  42.929  35.106   1.005
10464W        W82047  16.123   0.708   4.708
10465W        W82048  21.032  12.650  11.048
10466W        W82049  12.450   3.609  10.614
10467W        W82050   1.437  36.474   3.948
10468W        W82051  18.726   5.854  13.450
10469W        W82052  40.907  40.459  10.975
10470W        W82053  24.492   3.519  13.802
10471W        W82054   1.066  43.074   0.629
10472W        W82055   3.666  37.962   2.450
10473W        W82056  33.357  16.735  12.597
10474W        W82057  25.990  34.398   3.219
10475W        W82058  17.944   5.828   3.635
10476W        W82059  14.414  23.605   3.733
10477W        W82060  19.844  41.003  11.358
10478W        W82061  38.869  10.025   0.616
10479W        W82062  21.989   7.541   3.106
10480W        W82063  42.012  37.450  13.397
10481W        W82064   0.794  41.606   2.778
10482W        W82065  15.696  31.662   0.264
10483W        W82066  10.914  35.189   3.403
10484W        W82067   3.605  40.240  12.931
10485W        W82068  44.903   4.924   2.273
10486W        W82069  42.739  35.258  11.124
10487W        W82070   7.625   1.224  13.585
10488W        W82071  26.219   2.756  11.424
10489W        W82072  38.059  29.652   2.812
10490W        W82073  15.529  35.360  11.106
10491W        W82074  29.442  29.036   2.206
10492W        W82075   5.943   7.626  11.942
10493W        W82076   2.789   4.663   0.279
10494W        W82077   0.800  35.854   2.960
10495W        W82078  33.126   6.793   2.270
10496W        W82079   2.476  42.394   4.881
10497W        W82080  23.150  20.414  12.985
10498W        W82081  40.136  12.690  11.721
10499W        W82082   1.647  34.661   1.276
10500W        W82083   3.038   5.239   4.807
10501W        W82084   6.166  28.819  14.375
10502W        W82085  19.997  33.485   4.153
10503W        W82086  23.270  39.170   0.830
10504W        W82087   3.947  33.439  12.468
10505W        W82088   4.021  12.285  11.981
10506W        W82089  31.949  32.844  11.202
10507W        W82090  40.904   5.703   2.748
10508W        W82091  13.337  11.604   0.892
10509W        W82092  12.252  19.104   0.410
10510W        W82093  38.796  41.651  11.701
10511W        W82094  18.022  32.088   2.750
10512W        W82095  19.150  17.547   0.736
10513W        W82096  21.646  26.810  13.215
10514W        W82097  36.492  29.612   1.450
10515W        W82098   6.537  14.287   4.080
10516W        W82099  26.015  23.060  14.264
10517W        W82100   8.783  29.564  11.057
10518W        W82101  20.454  32.237  10.950
10519W        W82102  35.455   9.311  10.928
10520W        W82103  25.719   7.315  12.526
10521W        W82104  16.595  36.411  12.051
10522W        W82105  29.924   5.871  10.726
10523W        W82106  37.204  19.285   0.307
10524W        W82107  44.408  20.619   0.868
10525W        W82108  26.480  38.073   4.531
10526W        W82109  34.170  27.549   0.932
10527W        W82110  29.210  14.293  12.599
10528W        W82111  32.895  30.261   3.266
10529W        W82112   1.974   1.895   0.379
10530W        W82113  33.695   3.701  10.649
10531W        W82114  19.163  25.573   3.085
10532W        W82115  22.241  16.555   2.353
10533W        W82116  41.982   9.915   2.396
10534W        W82117   3.445   9.661  13.613
10535W        W82118  39.419  28.191   0.974
10536W        W82119   3.171  44.406   2.644
10537W        W82120  20.178  44.797   2.435
10538W        W82121  35.783  31.103  11.119
10539W        W82122  11.720  15.078   2.184
10540W        W82123  41.500  22.712   3.757
10541W        W82124  13.194  34.637  10.266
10542W        W82125  16.726  12.350   0.882
10543W        W82126  30.641  34.122   3.394
10544W        W82127  24.959  21.215   1.239
10545W        W82128  11.912   7.072   1.792
10546W        W82129  27.394  16.851  11.538
10547W        W82130   6.792   7.250   2.261
10548W        W82131   0.958  26.732  11.854
10549W        W82132  35.210  13.713   1.242
10550W        W82133   2.674   1.835  12.532
10551W        W82134  13.181  40.153  13.881
10552W        W82135  32.441  30.856  11.033
10553W        W82136  24.454  30.555  14.578
10554W        W82137  30.009  27.977   3.612
10555W        W82138  29.612  24.438  11.038
10556W        W82139  16.907  17.772   3.772
10557W        W82140  17.367   2.830   1.824
10558W        W82141  30.016   5.363  11.443
10559W        W82142   1.870  37.788  11.936
10560W        W82143  22.166   1.043  11.314
10561W        W82144  44.727   1.784   3.157
10562W        W82145  27.831  34.216  11.458
10563W        W82146  44.500  36.122   5.195
10564W        W82147  25.572  28.664  12.856
10565W        W82148  33.037  37.110  10.712
10566W        W82149  15.462  33.210  13.571
10567W        W82150  37.341   4.894  13.854
10568W        W82151  14.715  38.375   2.631
10569W        W82152   1.430  23.691   0.849
10570W        W82153  27.134  40.790  12.758
10571W        W82154  11.351   2.374  12.940
10572W        W82155  11.134   1.725   2.307
10573W        W82156  24.895  32.451   3.247
10574W        W82157   9.323   1.113  10.176
10575W        W82158  30.065   2.245   4.417
10576W        W82159  26.877  35.838   0.529
10577W        W82160  10.118  18.681   3.861
10578W        W82161  26.488   8.368   1.273
10579W        W82162  33.921  40.905  11.563
10580W        W82163   2.864  11.791  10.721
10581W        W82164   9.866  20.152  14.486
10582W        W82165  10.171  23.207  12.115
10583W        W82166  16.741  31.076   1.492
10584W        W82167  25.009  16.239  12.079
10585W        W82168  17.140  24.568  12.925
10586W        W82169  13.357   3.996  10.304
10587W        W82170  38.548  27.854  11.089
10588W        W82171  11.158  22.179  13.380
10589W        W82172  19.067  13.269   3.750
10590W        W82173  36.441  24.980  14.019
10591W        W82174   7.393  34.620   4.735
10592W        W82175  44.936  29.310   3.234
10593W        W82176  36.531   2.869  12.517
10594W        W82177   1.626  38.016   5.054
10595W        W82178  13.274  28.778   0.837
10596W        W82179  19.261   0.901  11.764
10597W        W82180  24.255  39.826   3.218
10598W        W82181  41.558  32.882   2.281
10599W        W82182  18.629  34.602  12.048
10600W        W82183   7.666   9.745  11.328
10601W        W82184  27.680  13.244   1.092
10602W        W82185  19.271  22.278  12.574
10603W        W82186   2.338  15.020   2.824
10604W        W82187  42.593  42.538  12.083
10605W        W82188  28.038  35.268  12.978
10606W        W82189  16.180  26.915   0.519
10607W        W82190   3.686   8.700  11.678
10608W        W82191   1.355   4.683  13.804
10609W        W82192  22.787   0.515  14.892
10610W        W82193  30.202   0.903  13.058
10611W        W82194  21.388  23.064   0.838
10612W        W82195  36.223  23.661   0.713
10613W        W82196   4.353   3.444  14.742
10614W        W82197   5.213  44.888  13.946
10615W        W82198   0.474   7.862   4.532
10616W        W82199  27.082  33.446  12.605
10617W        W82200  24.200  19.070   4.600
10618W        W82201   9.571  20.837   3.211
10619W        W82202  29.629   7.377   0.415
10620W        W82203   7.181  22.687   2.920
10621W        W82204  43.366  15.907  12.846
10622W        W82205  14.957   2.492  13.002
10623W        W82206  10.193   3.697   4.118
10624W        W82207  43.811  29.085   4.751
10625W        W82208   9.074  19.019  11.468
10626W        W82209   5.275  33.539   1.893
10627W        W82210  27.648  37.495   2.994
10628W        W82211  36.107  36.121   4.596
10629W        W82212  44.710  11.793   2.354
10630W        W82213  28.353  26.596  10.588
10631W        W82214  38.952  17.262  14.273
10632W        W82215  32.078   6.573   3.721
10633W        W82216  29.013  20.224   4.083
10634W        W82217  14.661   8.375   4.260
10635W        W82218  28.696  31.011  14.557
10636W        W82219  34.408   9.353   4.140
10637W        W82220   6.076   3.827   1.223
10638W        W82221  21.570   0.772   3.138
10639W        W82222  22.800  15.319  13.393
10640W        W82223  36.188   0.252  10.813
10641W        W82224  23.636   3.786   4.600
10642W        W82225   7.278   7.391  11.204
10643W        W82226  43.669  43.061  11.109
10644W        W82227  29.898  41.531   3.753
10645W        W82228  30.720  17.774  14.339
10646W        W82229  35.602  28.643  11.774
10647W        W82230  16.348  27.531   1.708
10648W        W82231  29.604  40.926   1.084
10649W        W82232   5.441  40.599  11.434
10650W        W82233  30.751  20.482  11.061
10651W        W82234   5.163   1.352   0.368
10652W        W82235  42.386  15.841  14.781
10653W        W82236   1.190  14.817   0.995
10654W        W82237  12.919  44.740   3.269
10655W        W82238   9.574   4.560   0.884
10656W        W82239  14.746  23.467   0.963
10657W        W82240  10.616  36.023  12.314
10658W        W82241  43.085   3.959  14.319
10659W        W82242  32.411  12.400   0.999
10660W        W82243  27.492  21.215   3.803
10661W        W82244  19.923   0.843   1.266
10662W        W82245  29.737  31.844  12.430
10663W        W82246  27.564  27.148  10.663
10664W        W82247  24.726  11.309   0.526
10665W        W82248  36.628  33.435  11.358
10666W        W82249  20.196  17.142   0.419
10667W        W82250  20.042  34.132   2.295
10668W        W82251  41.402   0.793   5.101
10669W        W82252  31.820  13.810   0.036
10670W        W82253  19.181   2.079  13.991
10671W        W82254  11.419  29.662   1.251
10672W        W82255   3.840  36.011   4.300
10673W        W82256  26.487  31.971   3.675
10674W        W82257   3.151  16.142  11.763
10675W        W82258  36.573  40.754  10.767
10676W        W82259   5.130   4.541   2.780
10677W        W82260  26.016  43.269   3.607
10678W        W82261   0.319  24.499  12.223
10679W        W82262  22.171  17.090   1.460
10680W        W82263  20.170   7.744  11.465
10681W        W82264  33.853  23.785   2.525
10682W        W82265  41.587  23.622  12.690
10683W        W82266   8.936  36.390  11.922
10684W        W82267  34.409  30.519  14.011
10685W        W82268  33.019   1.572  14.587
10686W        W82269  33.845  26.532   3.872
10687W        W82270  44.967  19.301  12.991
10688W        W82271   8.783   4.184   2.824
10689W        W82272  12.413  25.550   1.214
10690W        W82273   5.391  23.252   4.613
10691W        W82274   1.674  15.122  12.996
10692W        W82275   2.507   6.503   3.852
10693W        W82276  27.658  12.842  13.387
10694W        W82277   4.430  43.862  14.929
10695W        W82278  19.525  30.849  13.012
10696W        W82279  12.269  10.120   3.770
10697W        W82280   3.422   6.956   0.254
10698W        W82281   9.361  19.980  10.733
10699W        W82282  22.893  14.872   2.290
10700W        W82283  22.230  17.413  13.747
10701W        W82284   4.338   2.182  12.490
10702W        W82285  24.089  32.615   2.714
10703W        W82286  24.248  29.364   3.803
10704W        W82287   4.731  11.248   4.104
10705W        W82288  42.575  16.632   1.291
10706W        W82289   6.676  44.730  12.087
10707W        W82290   5.295  40.417  14.218
10708W        W82291  24.010  39.786   4.095
10709W        W82292   1.262  22.340   5.120
10710W        W82293  40.339  28.563   4.082
10711W        W82294   1.034  11.621  12.552
10712W        W82295  34.715  19.831  14.842
10713W        W82296  44.973  36.350  11.755
10714W        W82297  21.719  31.196   1.871
10715W        W82298  23.154  17.770   2.830
10716W        W82299  18.112  25.202  13.934
10717W        W82300  16.798  44.513  12.433
10718W        W82301   9.662  29.373   3.344
10719W        W82302  33.868   0.884   1.546
10720W        W82303   3.319  16.684  12.386
10721W        W82304  11.300  43.289  12.140
10722W        W82305  39.866  14.167  14.412
10723W        W82306  10.070  13.109   2.310
10724W        W82307  24.158   5.742   1.098
10725W        W82308  32.665  33.510   4.198
10726W        W82309  15.766  32.530   3.614
10727W        W82310  40.866  28.059   1.640
10728W        W82311   0.387  15.127   1.872
10729W        W82312  28.169  39.809   0.423
10730W        W82313   7.868  15.536  13.976
10731W        W82314   8.833  19.995  14.505
10732W        W82315  25.778  41.723   4.207
10733W        W82316  29.860  19.543   3.347
10734W        W82317  27.398  34.785   1.197
10735W        W82318  15.133  31.038   2.687
10736W        W82319  18.614  26.683   1.011
10737W        W82320   3.924  39.513   1.883
10738W        W82321  22.639  30.566  14.264
10739W        W82322   6.871   7.895  14.907
10740W        W82323  18.210  37.878   0.215
10741W        W82324  28.111  23.470   2.491
10742W        W82325  20.932  14.703   3.172
10743W        W82326  29.682   6.155  12.770
10744W        W82327   7.853  28.961   4.300
10745W        W82328  39.168  18.626   2.698
10746W        W82329  37.461  30.421   3.903
10747W        W82330  42.919  30.215  14.453
10748W        W82331   3.770   6.890  13.223
10749W        W82332  17.611  32.167  12.910
10750W        W82333  22.712  31.667   1.951
10751W        W82334  11.807  28.903   1.268
10752W        W82335  39.417  21.106   2.927
10753W        W82336  30.629  22.200  13.360
10754W        W82337  19.659  28.329   2.826
10755W        W82338  21.313   7.204   4.248
10756W        W82339   9.182  22.313  12.054
10757W        W82340  15.896  11.798  11.130
10758W        W82341  14.285   9.882   2.237
10759W        W82342  19.610   8.265   0.361
10760W        W82343  21.249  19.671  14.922
10761W        W82344  11.108  26.242  12.145
10762W        W82345  34.570  40.269   1.811
10763W        W82346   8.271  22.051  12.913
10764W        W82347   2.384  16.518  10.669
10765W        W82348  44.951  22.055  14.013
10766W        W82349   9.799  20.738   4.226
10767W        W82350  25.729  34.540  14.469
10768W        W82351   0.668  43.959   2.045
10769W        W82352  44.194  20.315  12.567
10770W        W82353  18.135  34.380   4.393
10771W        W82354  20.619  39.402   4.118
10772W        W82355  40.202  24.955   2.293
10773W        W82356  18.119  23.630  13.316
10774W        W82357  41.613   0.368  14.710
10775W        W82358  16.087  22.478  12.117
10776W        W82359  11.852  31.467   0.378
10777W        W82360  12.723  11.841  14.304
10778W        W82361  44.085  26.542  13.382
10779W        W82362  12.853  30.178   3.278
10780W        W82363  31.426  37.663   4.937
10781W        W82364  42.975   9.811   0.897
10782W        W82365  25.116   1.580   4.518
10783W        W82366  37.268  29.065   4.734
10784W        W82367  34.898  31.867  11.126
10785W        W82368  39.409  36.506  11.657
10786W        W82369  28.882   5.461   1.698
10787W        W82370  24.515  28.028  13.585
10788W        W82371  14.884  39.770   4.630
10789W        W82372  39.911  37.102  14.087
10790W        W82373  37.480  10.862  12.900
10791W        W82374   6.471  33.501  12.886
10792W        W82375   2.928   1.950   0.676
10793W        W82376   3.825   3.029   1.419
10794W        W82377   6.888   9.869   3.186
10795W        W82378  14.680   7.968   0.687
10796W        W82379  16.804  15.128   1.316
10797W        W82380  14.661  18.168  11.297
10798W        W82381  25.701  35.017   0.602
10799W        W82382  23.653  38.030   2.912
10800W        W82383  40.731   8.809  13.024
10801W        W82384   3.903  25.388  12.066
10802W        W82385  12.915  26.305  12.556
10803W        W82386  14.553   4.214   1.915
10804W        W82387   3.869   1.905   0.232
10805W        W82388   3.832   9.168  11.545
10806W        W82389  39.858  31.041  14.898
10807W        W82390   1.943  11.884  11.597
10808W        W82391  38.976  44.498  12.685
10809W        W82392  13.345  23.338  14.659
10810W        W82393  43.857  18.150   3.406
10811W        W82394   5.756  11.915  11.341
10812W        W82395   3.183  37.328  10.173
10813W        W82396  35.546  28.702   0.830
10814W        W82397  25.957  39.841   0.832
10815W        W82398  35.300  22.107   3.889
10816W        W82399   2.224  10.634  11.346
10817W        W82400  19.182  32.101  12.214
10818W        W82401  13.412  10.823  10.965
10819W        W82402  28.995  38.300  10.519
10820W        W82403   1.571  26.041  12.635
10821W        W82404  14.713  36.135  13.801
10822W        W82405   8.205   4.590   1.313
10823W        W82406  38.470  44.722  12.110
10824W        W82407  14.802  26.154   0.456
10825W        W82408  16.108  35.784   0.434
10826W        W82409  23.801  27.166   3.741
10827W        W82410  41.969   3.657   4.600
10828W        W82411   7.441  15.131  11.115
10829W        W82412   9.408  17.100  10.718
10830W        W82413  44.511  22.483   3.388
10831W        W82414  29.328  29.720   4.396
10832W        W82415  43.656   7.475   4.582
10833W        W82416   9.874  37.191  10.595
10834W        W82417  11.314   1.186  11.089
10835W        W82418  37.398  19.143   4.333
10836W        W82419  20.964  31.738   3.598
10837W        W82420  21.517  23.786   3.994
10838W        W82421  18.142  23.367   5.004
10839W        W82422  21.070  42.376   1.710
10840W        W82423  27.393   3.787   1.340
10841W        W82424  13.143   4.341  12.301
10842W        W82425  37.658  44.352   1.266
10843W        W82426  31.950   9.666  10.377
10844W        W82427  21.286  25.556   0.673
10845W        W82428  34.861  42.025   3.650
10846W        W82429  34.870   0.363   0.019
10847W        W82430  23.182  30.611  13.976
10848W        W82431  42.479  38.477   1.658
10849W        W82432  43.540   9.886   3.180
10850W        W82433   5.487  41.126   3.561
10851W        W82434  30.757   0.127  13.776
10852W        W82435  12.602  30.870  13.371
10853W        W82436  40.361  21.401   5.282
10854W        W82437  34.962  39.455   3.754
10855W        W82438   7.434  21.794   3.241
10856W        W82439   0.645  24.880  11.175
10857W        W82440  34.180   9.288   1.796
10858W        W82441  20.911  37.980  14.182
10859W        W82442  23.735  29.650  14.351
10860W        W82443  24.125  13.157   4.148
10861W        W82444  18.487   5.131   3.504
10862W        W82445   2.379  25.620  11.533
10863W        W82446   0.519   5.767  12.875
10864W        W82447  34.096  40.533   0.823
10865W        W82448   9.788  35.863  14.694
10866W        W82449  10.455   9.526  14.912
10867W        W82450  24.720  39.733   1.525
10868W        W82451   3.186  30.477  12.293
10869W        W82452  10.690  36.485  11.125
10870W        W82453  13.830  27.178  11.194
10871W        W82454  12.365  38.550   0.369
10872W        W82455  19.851  29.929  11.128
10873W        W82456  15.692  13.565   2.906
10874W        W82457  37.783  15.541  12.525
10875W        W82458   1.176  22.557   3.731
10876W        W82459  29.082  25.684   4.104
10877W        W82460   9.705  14.416   1.978
10878W        W82461  21.931  42.464  12.990
10879W        W82462  28.675  12.787  14.048
10880W        W82463  28.671  42.363  12.770
10881W        W82464  41.731  16.119   1.977
10882W        W82465   3.036  15.702   3.420
10883W        W82466  23.652   4.954   4.751
10884W        W82467  30.739  25.351  13.820
10885W        W82468   6.842  27.142   0.585
10886W        W82469  29.527  26.482  10.534
10887W        W82470   9.119   9.673  12.453
10888W        W82471  34.338  31.361   2.267
10889W        W82472  38.816  36.788  11.618
10890W        W82473  37.325   1.771   4.261
10891W        W82474  31.207  40.606   0.418
10892W        W82475   0.934  25.917  14.947
10893W        W82476   1.846   7.723   0.990
10894W        W82477  32.769   5.423  11.161
10895W        W82478  35.926  41.731  13.802
10896W        W82479  35.111   0.501   2.206
10897W        W82480  29.428  17.811   4.205
10898W        W82481  44.938  41.414  10.856
10899W        W82482   7.662  14.604  10.894
10900W        W82483  32.892   5.777   4.725
10901W        W82484  28.024  15.551   3.604
10902W        W82485  34.510   0.835   1.269
10903W        W82486  43.874  37.531  10.428
10904W        W82487  21.819  15.769   4.233
10905W        W82488  44.026  27.155   3.148
10906W        W82489  17.290  31.096   0.757
10907W        W82490   7.387  27.569  11.050
10908W        W82491   1.920  27.661  10.792
10909W        W82492  43.373  32.607   4.935
10910W        W82493  38.578  37.507  10.928
10911W        W82494  29.277  41.042   4.249
10912W        W82495  41.169   6.902   0.784
10913W        W82496  38.991  40.276   1.296
10914W        W82497  15.872  13.945   3.853
10915W        W82498  12.196  18.156   1.370
10916W        W82499  41.147  40.958  12.372
10917W        W82500  27.619  29.600   4.919
10918W        W82501  13.452  22.689   2.746
10919W        W82502   8.129  15.223  10.645
10920W        W82503   2.366  18.163  13.053
10921W        W82504  10.691  43.905  10.738
10922W        W82505  39.436  12.691  14.346
10923W        W82506  26.276  36.015  12.903
10924W        W82507  11.928   3.714  12.084
10925W        W82508  25.112  12.298   0.957
10926W        W82509  22.134  19.920  11.394
10927W        W82510  37.110  16.109  14.810
10928W        W82511   1.990   2.164   4.102
10929W        W82512  29.898  28.589  13.121
10930W        W82513  17.997   9.864   4.576
10931W        W82514  14.111  43.513  13.303
10932W        W82515  16.320  20.308  12.365
10933W        W82516  42.509   1.684  12.463
10934W        W82517   4.877  30.431  13.053
10935W        W82518   3.301  25.716   0.003
10936W        W82519  25.560  11.109  11.567
10937W        W82520   7.085  23.998  12.099
10938W        W82521  24.481  43.184   1.056
10939W        W82522  24.473  20.996  11.465
10940W        W82523  33.743  42.471   3.467
10941W        W82524  15.746  27.601  11.898
10942W        W82525   3.773  13.216  13.563
10943W        W82526   8.563  23.695  11.537
10944W        W82527  11.757  39.252  14.409
10945W        W82528   3.673  15.679  13.500
10946W        W82529  25.172   4.851   2.466
10947W        W82530  30.381   1.578  12.422
10948W        W82531  29.907   2.368  13.968
10949W        W82532  22.549  24.380   4.103
10950W        W82533  17.214  23.057  12.813
10951W        W82534  42.250  25.655  11.818
10952W        W82535   5.906  18.599   2.686
10953W        W82536  16.738  34.913  14.049
10954W        W82537  35.508  34.028   0.657
10955W        W82538  13.029  22.834   5.078
10956W        W82539  43.836  29.394  13.748
10957W        W82540  13.291   9.580   3.672
10958W        W82541  22.556  28.941   4.100
10959W        W82542  42.917  37.157  12.484
10960W        W82543   7.767  38.973   2.260
10961W        W82544   9.728  40.528  13.294
10962W        W82545  17.765   9.410  12.002
10963W        W82546  42.575  43.061   2.232
10964W        W82547   2.858   3.545   4.039
10965W        W82548   8.316  36.201  11.859
10966W        W82549   3.456  26.586  13.389
10967W        W82550  29.505   8.885   1.303
10968W        W82551  17.570  33.974   3.603
10969W        W82552  16.555   6.133  11.031
10970W        W82553  25.670  19.779   9.977
10971W        W82554  11.201  12.553  12.075
10972W        W82555  14.821  19.979  10.759
10973W        W82556  36.576  13.761  11.094
10974W        W82557   9.868  19.602  13.866
10975W        W82558  19.568   7.702   5.059
10976W        W82559   8.981  29.329   1.255
10977W        W82560  38.074  34.038   3.479
10978W        W82561   3.836   0.716   1.911
10979W        W82562  19.305  27.089  14.407
10980W        W82563   6.224  21.075  11.557
10981W        W82564  21.601  14.545  10.952
10982W        W82565  42.392  33.365  12.887
10983W        W82566  29.434  17.963  11.200
10984W        W82567  12.631  26.535   0.003
10985W        W82568  44.792  36.364   4.831
10986W        W82569  12.715  12.661  14.952
10987W        W82570  29.608  13.755   0.890
10988W        W82571  11.319   6.812  13.302
10989W        W82572  12.767  31.029  13.830
10990W        W82573   8.035  16.813   2.375
10991W        W82574   2.991  16.375  14.937
10992W        W82575  19.275   5.161   4.659
10993W        W82576  26.050  19.692   0.023
10994W        W82577  23.230  31.585  11.722
10995W        W82578  23.880   1.854  13.407
10996W        W82579  25.003  31.241  13.580
10997W        W82580  23.751  29.054  11.441
10998W        W82581  30.023   6.868   0.875
10999W        W82582  14.019  37.217  12.374
11000W        W82583  21.197  35.049   1.298
11001W        W82584  21.821  34.512  11.472
11002W        W82585  41.991  16.506   3.198
11003W        W82586   9.889  28.842   0.414
11004W        W82587  43.066  30.897  11.086
11005W        W82588  24.523  25.152   1.712
11006W        W82589  19.232   2.468  12.507
11007W        W82590  11.285   0.840   4.391
11008W        W82591  39.534   3.408  11.093
11009W        W82592  19.748  14.604  11.549
11010W        W82593  30.559  38.567   2.396
11011W        W82594  30.700  10.299  10.446
11012W        W82595   2.205  35.048   4.178
11013W        W82596   2.580  42.869  12.049
11014W        W82597   7.747  30.656   3.195
11015W        W82598  24.991  21.627  13.416
11016W        W82599  15.104   6.275  11.637
11017W        W82600   4.175  34.839   1.357
11018W        W82601  37.893  18.822   1.906
11019W        W82602   7.146  17.167   2.429
11020W        W82603  31.468  19.766  13.899
11021W        W82604  12.278  43.966  14.834
11022W        W82605  17.598   5.230  10.799
11023W        W82606  23.481  17.029  14.109
11024W        W82607  19.661  17.054   3.152
11025W        W82608  42.928   9.268   3.780
11026W        W82609  23.894   3.328   4.169
11027W        W82610  13.735  42.260   4.597
11028W        W82611   6.617  42.000  12.567
11029W        W82612  37.033  31.229  13.467
11030W        W82613   7.230  18.164   4.343
11031W        W82614  36.591  33.601  13.306
11032W        W82615   7.111  11.773   2.490
11033W        W82616  12.567  35.032   0.409
11034W        W82617  18.433  43.531   4.214
11035W        W82618   0.034  39.319  13.321
11036W        W82619  10.610  21.459  12.936
11037W        W82620  39.677  35.941  11.065
11038W        W82621  33.773   9.805  11.157
11039W        W82622  33.027  33.174  11.989
11040W        W82623  29.818  34.378   1.883
11041W        W82624  42.461  19.216   4.881
11042W        W82625  16.588  21.022  13.083
11043W        W82626  19.798  34.910   1.345
11044W        W82627  33.292  33.539   4.545
11045W        W82628  37.371  28.936  14.797
11046W        W82629  16.902  25.039  12.907
11047W        W82630   3.747  24.232  13.997
11048W        W82631  36.023  14.575   2.421
11049W        W82632  30.557  13.721   3.935
11050W        W82633  44.091  41.977  14.848
11051W        W82634   1.283  38.514   4.217
11052W        W82635  39.927  23.767  11.089
11053W        W82636  33.021  15.983  12.426
11054W        W82637  17.123  37.653   4.066
11055W        W82638  21.760  28.620   1.857
11056W        W82639  13.774  21.745  11.874
11057W        W82640   3.577  14.844   4.482
11058W        W82641   1.203  44.257   0.832
11059W        W82642  38.550  12.408  14.436
11060W        W82643   6.800  37.727  13.849
11061W        W82644  37.547   2.759  12.616
11062W        W82645   7.489   4.347  11.012
11063W        W82646  33.812  24.063   4.149
11064W        W82647   0.397  34.515  12.113
11065W        W82648  26.000  35.306  12.018
11066W        W82649  30.026  28.561  12.112
11067W        W82650  20.187  44.770  13.456
11068W        W82651  44.834   0.528  11.836
11069W        W82652  15.209  43.910   2.421
11070W        W82653  25.769  37.528   1.423
11071W        W82654  18.390  18.413  13.290
11072W        W82655  31.032  16.108  11.961
11073W        W82656  34.431  11.870   1.636
11074W        W82657   8.419  14.568   1.720
11075W        W82658  22.087  37.372  14.497
11076W        W82659  23.115   4.743  11.512
11077W        W82660  42.476   6.367  10.642
11078W        W82661  41.458   9.426   1.887
11079W        W82662  11.901  40.473  11.100
11080W        W82663  19.029  24.707  11.540
11081W        W82664  20.287  43.798  12.504
11082W        W82665  18.693   8.436  12.113
11083W        W82666   5.363   3.337   4.780
11084W        W82667  39.009  33.390  12.494
11085W        W82668  12.683  20.148  14.019
11086W        W82669  29.402   1.169   2.309
11087W        W82670  35.501  41.326  11.056
11088W        W82671   3.908  21.580  11.327
11089W        W82672  31.696  24.306   1.717
11090W        W82673  31.860  19.918   4.972
11091W        W82674  44.189  21.369   4.956
11092W        W82675  21.010   3.202   4.247
11093W        W82676  16.127  26.099   4.215
11094W        W82677  17.433  29.651   3.641
11095W        W82678  28.461   8.007  13.946
11096W        W82679   5.327  24.709   3.273
11097W        W82680  15.656  25.076   4.572
11098W        W82681  44.008  12.377   0.946
11099W        W82682  29.962  33.822  14.511
11100W        W82683  27.531  35.384  13.871
11101W        W82684  13.091   4.289  13.387
11102W        W82685   5.442   4.642   1.393
11103W        W82686   7.911  42.541   1.411
11104W        W82687  42.523   6.828   3.211
11105W        W82688  32.595  35.310   0.809
11106W        W82689  29.782  21.068  13.985
11107W        W82690  31.243  36.261  10.381
11108W        W82691  23.606  30.974  10.695
11109W        W82692   3.932  40.971   1.092
11110W        W82693  15.548  28.463  12.374
11111W        W82694  15.231   1.499  11.483
11112W        W82695  22.852  26.060  10.732
11113W        W82696   4.438  24.253   3.541
11114W        W82697  38.814   1.329  11.520
11115W        W82698  38.894  16.225  13.758
11116W        W82699  15.120  24.586  11.947
11117W        W82700  21.495  14.389  11.952
11118W        W82701  29.055  19.019   3.131
11119W        W82702   2.807   6.905   0.727
11120W        W82703  24.501  13.236  10.729
11121W        W82704  40.514   7.892   0.852
11122W        W82705   5.456   3.207   3.318
11123W        W82706   1.350  43.741  13.863
11124W        W82707   4.610  11.827   4.138
11125W        W82708  10.968  37.411   1.278
11126W        W82709   1.872  20.938   1.266
11127W        W82710  12.397  26.054   1.468
11128W        W82711  26.238  27.274  11.842
11129W        W82712  34.487  29.224   2.427
11130W        W82713  23.112   7.699   0.353
11131W        W82714  33.116  39.937   2.738
11132W        W82715  12.042  18.006  14.435
11133W        W82716   8.512  29.132   1.407
11134W        W82717  40.993   7.272   1.872
11135W        W82718   3.722  38.818  13.839
11136W        W82719  33.867  39.145   1.683
11137W        W82720  25.054   4.234   4.167
11138W        W82721  44.213  11.646  12.931
11139W        W82722   3.381  32.173   1.189
11140W        W82723  32.514  43.747  12.436
11141W        W82724   6.313  20.790  13.071
11142W        W82725  21.024  26.697  10.655
11143W        W82726  22.122  39.502   2.636
11144W        W82727  21.217  42.764   2.837
11145W        W82728  15.519  20.722  12.510
11146W        W82729  23.487  26.245   4.718
11147W        W82730  14.543  32.125   0.253
11148W        W82731  40.761  18.535   0.702
11149W        W82732  41.456  40.290   0.704
11150W        W82733  33.967  24.011   3.655
11151W        W82734  20.722  38.526  11.179
11152W        W82735  12.595  29.021  12.532
11153W        W82736  22.782  26.684   1.473
11154W        W82737  33.197  42.134  10.527
11155W        W82738  12.199  22.618  13.115
11156W        W82739   7.970  29.579   2.656
11157W        W82740  34.956  37.107  10.996
11158W        W82741  39.484  23.664   3.211
11159W        W82742  12.437  10.152   2.314
11160W        W82743  11.942  42.995  10.416
11161W        W82744  29.919  19.801   0.981
11162W        W82745  27.863  30.392  12.457
11163W        W82746  29.214  29.728  11.675
11164W        W82747  18.100   9.267   1.331
11165W        W82748  13.681  28.881  13.804
11166W        W82749  23.546   8.779  10.085
11167W        W82750   7.634  18.676   0.036
11168W        W82751  35.743  38.016   3.852
11169W        W82752  18.692  42.711   0.307
11170W        W82753  32.097   4.075   2.844
11171W        W82754  44.689  23.639   2.922
11172W        W82755  12.114  15.595   1.370
11173W        W82756  11.708  12.828  14.498
11174W        W82757  22.201  34.126   0.056
11175W        W82758  36.297  12.796  14.904
11176W        W82759  16.159   1.740   3.284
11177W        W82760   8.317   1.349   4.703
11178W        W82761  44.984  10.537   9.860
11179W        W82762   4.872  34.989  10.709
11180W        W82763  18.354  20.809  12.011
11181W        W82764  35.415  22.629   1.384
11182W        W82765  35.607   6.425   4.476
11183W        W82766  43.793  35.134  10.718
11184W        W82767  16.966  38.022  10.661
11185W        W82768  30.786  14.795  14.885
11186W        W82769  30.282  33.349   4.983
11187W        W82770  12.234  13.279   4.625
11188W        W82771  43.865  10.635  12.516
11189W        W82772  36.026   9.913  14.727
11190W        W82773   8.075  31.840   1.305
11191W        W82774  32.829  31.646   2.143
11192W        W82775  25.695  29.110   2.994
11193W        W82776  24.958  42.576   2.838
11194W        W82777  20.294  32.912  12.177
11195W        W82778   8.234  36.682   4.603
11196W        W82779  28.010  26.289  13.954
11197W        W82780  21.896   7.170  14.405
11198W        W82781  40.371  26.578  13.436
11199W        W82782  40.545  12.518  10.954
11200W        W82783   5.307  25.663   3.337
11201W        W82784  43.930  29.785   2.669
11202W        W82785   1.758   9.149   3.789
11203W        W82786  30.215  40.567   0.390
11204W        W82787  37.448  43.362  14.494
11205W        W82788   2.708  20.519  12.545
11206W        W82789  21.323  30.429   2.771
11207W        W82790   3.310  23.923  12.064
11208W        W82791  19.099  30.860   2.260
11209W        W82792  26.576  28.977   2.969
11210W        W82793  32.697  13.301   3.659
11211W        W82794  19.500  41.501  11.468
11212W        W82795  10.201  18.185   1.393
11213W        W82796  32.009   5.926   2.648
11214W        W82797  43.493  34.470  10.696
11215W        W82798  38.973  17.050  13.812
11216W        W82799  31.066  13.066   3.626
11217W        W82800  11.698  38.541  10.547
11218W        W82801  42.000  30.043   0.073
11219W        W82802   6.765  16.158  13.143
11220W        W82803  12.912  25.697   1.236
11221W        W82804  25.579  14.160   3.698
11222W        W82805  30.850  38.724   4.608
11223W        W82806   0.395  37.456  14.795
11224W        W82807  27.050   5.364  12.510
11225W        W82808   2.990  17.330  13.661
11226W        W82809  42.085  33.816   2.083
11227W        W82810   0.843   6.182  11.343
11228W        W82811  23.704  41.330  12.980
11229W        W82812  44.980  21.654  11.424
11230W        W82813  26.049   3.021   2.860
11231W        W82814   3.103  13.080  10.777
11232W        W82815  37.372  13.418  11.671
11233W        W82816  39.126  32.006  12.030
11234W        W82817  37.046  13.163   3.420
11235W        W82818   3.180  35.055  11.122
11236W        W82819  39.684  28.242   3.683
11237W        W82820   1.440  14.748   3.216
11238W        W82821   8.891  43.990   1.849
11239W        W82822  17.665   7.254  12.588
11240W        W82823  40.905  32.165  13.414
11241W        W82824   7.196  14.099   1.272
11242W        W82825   1.854  26.956  13.941
11243W        W82826  39.590  35.125   0.577
11244W        W82827  35.515  12.358   1.026
11245W        W82828  23.563  27.987   4.210
11246W        W82829  21.503  35.512  13.800
11247W        W82830  36.614  39.553  11.213
11248W        W82831   2.814  27.567  14.832
11249W        W82832  42.235  42.820  14.896
11250W        W82833  44.513  33.897  14.435
11251W        W82834  13.774  42.763  14.314
11252W        W82835  36.988   3.534  13.666
11253W        W82836   4.873  39.317   2.727
11254W        W82837   5.210  13.085   0.874
11255W        W82838  18.304  40.266   2.863
11256W        W82839  32.964  40.196   0.882
11257W        W82840  13.863  17.072   1.492
11258W        W82841   0.361  33.329  12.426
11259W        W82842  27.641  14.274  12.824
11260W        W82843   5.341   7.220  12.419
11261W        W82844   1.468  18.189   0.929
11262W        W82845  28.124  20.046   0.727
11263W        W82846  30.440   8.394  13.227
11264W        W82847   7.290  28.854   0.191
11265W        W82848  24.700  34.869   0.388
11266W        W82849  21.133  41.400   3.682
11267W        W82850  26.844  33.433   3.816
11268W        W82851  11.758  30.687  12.608
11269W        W82852  25.975  42.564   1.317
11270W        W82853  34.181  18.946  14.850
11271W        W82854  12.938  22.013   1.324
11272W        W82855  25.556  18.530  12.977
11273W        W82856  19.623  40.251  10.139
11274W        W82857  38.835  17.626  12.409
11275W        W82858  10.344  13.140  12.065
11276W        W82859  41.440  24.455   5.006
11277W        W82860  27.658  33.601   2.201
11278W        W82861   9.204  35.051   1.326
11279W        W82862  14.250  14.095  10.541
11280W        W82863  13.636   3.530   0.830
11281W        W82864  18.065   2.185  13.040
11282W        W82865  26.104  14.613  14.314
11283W        W82866  24.037  44.307   1.251
11284W        W82867  35.430   3.873  11.660
11285W        W82868  28.006  17.078  14.890
11286W        W82869  34.987   3.323  13.713
11287W        W82870  18.163  30.438   0.204
11288W        W82871  22.187  26.536   2.356
11289W        W82872  35.136  27.563  12.339
11290W        W82873  16.673  37.789   4.532
11291W        W82874  15.778  42.278   1.105
11292W        W82875  32.080  25.612   0.689
11293W        W82876  24.195  12.426   1.796
11294W        W82877  34.476  33.480  13.570
11295W        W82878  19.693   6.710  13.393
11296W        W82879  22.100  15.747   2.199
11297W        W82880  14.222  12.492   1.936
11298W        W82881  29.771  14.177  13.486
11299W        W82882  35.032  29.480  14.346
11300W        W82883  17.660  42.644  13.152
11301W        W82884  30.461  25.414   3.774
11302W        W82885  18.168  43.730   1.905
11303W        W82886  30.434  28.702  11.267
11304W        W82887  34.418  39.738  14.163
11305W        W82888  17.199  43.498   3.647
11306W        W82889   7.950   0.387   2.412
11307W        W82890   6.682  40.796   0.753
11308W        W82891  34.464   1.574   4.900
11309W        W82892  29.199  41.599   2.576
11310W        W82893  10.811  22.681   3.525
11311W        W82894  18.473  37.141  14.021
11312W        W82895  29.257  12.292  11.523
11313W        W82896  44.104  39.291   1.764
11314W        W82897  18.229  34.604  10.560
11315W        W82898  29.627  28.738   0.801
11316W        W82899   3.643  18.215   2.774
11317W        W82900   6.915  33.225  12.916
11318W        W82901  24.142   6.743   0.675
11319W        W82902  16.387  38.460  12.920
11320W        W82903  38.743  26.491   1.264
11321W        W82904  25.191  39.801   4.343
11322W        W82905  26.938  19.188  12.867
11323W        W82906  17.053  17.759   0.411
11324W        W82907  28.935   8.172  12.878
11325W        W82908   3.781   3.866  12.961
11326W        W82909  19.294  26.738   4.944
11327W        W82910   6.589   5.897  11.465
11328W        W82911  14.135  25.202   2.576
11329W        W82912  36.208  37.539  12.919
11330W        W82913  42.275  22.156  13.810
11331W        W82914  32.959   3.716   4.284
11332W        W82915  36.445  16.802  11.035
11333W        W82916  18.989  37.000  13.934
11334W        W82917  37.817  13.567   3.250
11335W        W82918  28.411  12.208   3.260
11336W        W82919  38.894  22.539   4.763
11337W        W82920   8.440  29.984  12.800
11338W        W82921  41.794  41.436   1.135
11339W        W82922  12.240  33.687  14.896
11340W        W82923  26.612   8.944   1.926
11341W        W82924   6.227  27.522   4.029
11342W        W82925  32.034  17.411   0.303
11343W        W82926  37.421  36.512  13.307
11344W        W82927  14.229  24.753  11.009
11345W        W82928  18.804   2.194  12.680
11346W        W82929  27.130  13.419  13.395
11347W        W82930  25.552  43.909   3.870
11348W        W82931  26.612  24.057   2.477
11349W        W82932  38.023  12.859   1.304
11350W        W82933  16.761  17.649   2.287
11351W        W82934  31.769  25.193   0.833
11352W        W82935   3.983  34.273   4.071
11353W        W82936  41.260  36.533  12.445
11354W        W82937  20.589  24.297   3.501
11355W        W82938   3.247  11.569   3.347
11356W        W82939   3.504  15.618   2.216
11357W        W82940   8.429   0.894  10.612
11358W        W82941  39.968  22.068   1.930
11359W        W82942   5.283  14.859  13.706
11360W        W82943  28.131  41.010  12.480
11361W        W82944   5.138   7.043   2.050
11362W        W82945  10.228   6.705   2.834
11363W        W82946  37.905  39.574   4.126
11364W        W82947  42.207  14.843   1.400
11365W        W82948   6.029  32.393  13.547
11366W        W82949   5.017  37.198  10.116
11367W        W82950  17.485  29.102  14.185
11368W        W82951  33.024  23.418  11.966
11369W        W82952  38.298  17.793   0.709
11370W        W82953  38.485  19.149  14.639
11371W        W82954  37.169  38.862  10.728
11372W        W82955  10.319  35.942   2.812
11373W        W82956  38.499  36.871   3.815
11374W        W82957  24.741  11.613   1.524
11375W        W82958  12.553   5.818   4.176
11376W        W82959  39.026  13.638  11.096
11377W        W82960   0.881   3.723   0.771
11378W        W82961  19.613  11.373   4.636
11379W        W82962  22.805  33.902   4.254
11380W        W82963   4.492  11.133  12.577
11381W        W82964  15.251  32.997   2.914
11382W        W82965  10.951  29.199   2.774
11383W        W82966   3.349  36.905  13.422
11384W        W82967  28.910   5.596   4.925
11385W        W82968  29.579  31.344  12.974
11386W        W82969  27.673  18.525   2.436
11387W        W82970  10.702  28.713  14.940
11388W        W82971  35.137  25.635   4.457
11389W        W82972   6.375  16.602   2.723
11390W        W82973  25.730  36.908  11.668
11391W        W82974  26.061   4.776   2.332
11392W        W82975  22.934  17.859  11.890
11393W        W82976  20.151  28.704  10.413
11394W        W82977  22.676  44.851   2.248
11395W        W82978  17.768  39.996   4.148
11396W        W82979   6.090  34.337  12.394
11397W        W82980  39.963  41.377   2.402
11398W        W82981  13.231  42.928   4.465
11399W        W82982  16.753  41.604   4.583
11400W        W82983  19.026   4.303  14.945
11401W        W82984   4.621  33.575   3.193
11402W        W82985   6.318  18.620  12.026
11403W        W82986  30.199  28.333  10.532
11404W        W82987   5.436  35.605  14.785
11405W        W82988  21.265   5.764  12.897
11406W        W82989   6.396  38.138  14.598
11407W        W82990  31.657  12.148  14.714
11408W        W82991  34.900  26.735  13.947
11409W        W82992  30.623  14.174   3.670
11410W        W82993  44.507  41.502   3.245
11411W        W82994  23.500  16.237   4.459
11412W        W82995   6.163  29.410  14.389
11413W        W82996  20.227   1.001   0.785
11414W        W82997  12.292   1.743  11.145
11415W        W82998   3.343   0.164   0.016
11416W        W82999  16.527  34.089   4.621
11417W        W83000  43.808   2.323  11.278
11418W        W83001  12.761  35.170  12.832
11419W        W83002  22.151  15.682   4.629
11420W        W83003  34.877  12.708   2.829
11421W        W83004  16.772  42.510   2.485
11422W        W83005  24.689   3.693  12.071
11423W        W83006  37.883  15.170   1.300
11424W        W83007  32.970   4.486  12.514
11425W        W83008  31.993   8.353   1.248
11426W        W83009  31.628  11.522   4.520
11427W        W83010  13.639  31.218   2.700
11428W        W83011  24.323  44.655   2.297
11429W        W83012  20.614  20.249  14.327
11430W        W83013  26.412  14.664   4.962
11431W        W83014  36.215   4.839   0.977
11432W        W83015   8.130  10.289   3.689
11433W        W83016   6.260  27.642   1.788
11434W        W83017  39.343  31.987   3.164
11435W        W83018  38.028  32.190  12.743
11436W        W83019   2.251  15.818   3.731
11437W        W83020   5.410  30.720   3.827
11438W        W83021  30.106  38.263   0.367
11439W        W83022   7.326  32.693   1.504
11440W        W83023  17.657  23.725   2.301
11441W        W83024  29.423  10.681   3.856
11442W        W83025  43.170   3.893  11.142
11443W        W83026  32.518  28.023   3.100
11444W        W83027  21.290  42.933   0.423
11445W        W83028   0.203  31.086   3.370
11446W        W83029   0.523  20.638  13.979
11447W        W83030  36.388  26.662  11.528
11448W        W83031  16.284  20.312   4.568
11449W        W83032  15.257  19.251  10.661
11450W        W83033  40.087  12.768   4.291
11451W        W83034   7.945  13.745   1.784
11452W        W83035   3.193  38.837   4.130
11453W        W83036   8.238  23.438  12.520
11454W        W83037  31.341  30.949   3.815
11455W        W83038   3.204   6.179   2.327
11456W        W83039  11.821  10.219  10.932
11457W        W83040  18.343  24.774   3.251
11458W        W83041  44.569   4.859  13.174
11459W        W83042  32.551  12.170  10.396
11460W        W83043   2.253  20.158   1.261
11461W        W83044  22.992  19.734   2.804
11462W        W83045  39.238  10.581   4.403
11463W        W83046  16.618  15.659   3.899
11464W        W83047  34.797  12.560  13.113
11465W        W83048  11.411  28.122   1.456
11466W        W83049  16.921   9.564   0.811
11467W        W83050  21.510   6.074   1.834
11468W        W83051  22.791   7.152   4.136
11469W        W83052  25.205  38.251   3.477
11470W        W83053  20.182  11.774   3.817
11471W        W83054  11.568  40.444  12.645
11472W        W83055   6.255  22.747  12.505
11473W        W83056   2.805  44.240  11.214
11474W        W83057  11.305  29.132   2.414
11475W        W83058  30.194   6.804  13.975
11476W        W83059   6.678  35.709   1.291
11477W        W83060  27.800  21.008   1.415
11478W        W83061  43.768  11.635   3.252
11479W        W83062   1.499  10.211   4.058
11480W        W83063   2.347  20.561   4.612
11481W        W83064  38.426   0.541  12.802
11482W        W83065   7.734   2.531   3.224
11483W        W83066   4.652  23.544  10.286
11484W        W83067  32.391  10.616   3.779
11485W        W83068  42.462  44.165   2.798
11486W        W83069   1.182  40.909   1.150
11487W        W83070   2.193  11.937  14.923
11488W        W83071   4.276  36.021   4.605
11489W        W83072  36.809  34.722   1.963
11490W        W83073   5.196  32.142   2.340
11491W        W83074  19.338  20.245   3.387
11492W        W83075  21.756  40.405  11.201
11493W        W83076  23.097  36.918  11.650
11494W        W83077  18.629  44.721  12.463
11495W        W83078  29.060  22.501   2.576
11496W        W83079   0.498  26.220  11.041
11497W        W83080   8.151  18.413  12.793
11498W        W83081  34.391  23.517  12.355
11499W        W83082  24.165   5.684  11.389
11500W        W83083   5.755  10.636  11.889
11501W        W83084  28.900  11.727  13.547
11502W        W83085  34.534   3.690  11.595
11503W        W83086  39.485  13.067   0.866
11504W        W83087  13.234   2.917   1.289
11505W        W83088  10.962   3.322   1.284
11506W        W83089  30.378  10.778   3.989
11507W        W83090   3.175  28.006  10.663
11508W        W83091  34.640  27.988  11.222
11509W        W83092  42.747  41.076   4.332
11510W        W83093  38.958  28.386  14.771
11511W        W83094   0.671  14.811   1.540
11512W        W83095  33.000  23.795  14.177
11513W        W83096   9.266  39.088   2.209
11514W        W83097  42.029  14.871   1.927
11515W        W83098   8.160  13.317   4.181
11516W        W83099  24.578   4.383  12.634
11517W        W83100  25.721  30.639   3.220
11518W        W83101  13.326  27.583  14.256
11519W        W83102  36.752  37.481  10.507
11520W        W83103  20.708   2.226   3.891
11521W        W83104  12.350  36.291   1.231
11522W        W83105   4.006  40.498  11.426
11523W        W83106  39.925  18.776   4.168
11524W        W83107  26.540  42.025   2.730
11525W        W83108  21.830   1.689  13.036
11526W        W83109  20.537  30.656  12.940
11527W        W83110  43.051   3.948   3.776
11528W        W83111  36.840  39.526   2.959
11529W        W83112   3.401  28.668   4.360
11530W        W83113  17.717  24.992  12.198
11531W        W83114  13.365  29.055   1.843
11532W        W83115  11.204   4.629  12.594
11533W        W83116  31.322  25.100  11.635
11534W        W83117  37.686   2.262  14.325
11535W        W83118   9.083  24.143   1.877
11536W        W83119  40.284  43.602   2.468
11537W        W83120  26.253   5.915   3.180
11538W        W83121  37.530  20.714   0.032
11539W        W83122  43.235  23.578   0.279
11540W        W83123  30.087   2.417   0.393
11541W        W83124  27.024  42.955   2.147
11542W        W83125  35.226   8.768  12.786
11543W        W83126  25.510  42.949  11.495
11544W        W83127   8.783  20.576   3.640
11545W        W83128   8.420  22.697  14.857
11546W        W83129  44.263  28.581  14.247
11547W        W83130  36.106  16.191   4.623
11548W        W83131  25.501   1.095   3.382
11549W        W83132  17.251  12.227   0.769
11550W        W83133  31.170  36.556  12.349
11551W        W83134  37.856  33.945  13.542
11552W        W83135  24.617  23.023  13.626
11553W        W83136  31.387  14.312   4.227
11554W        W83137  11.375  14.242   4.332
11555W        W83138   3.693  44.494   3.477
11556W        W83139   9.488  18.268  12.892
11557W        W83140  30.087   9.249  13.315
11558W        W83141  28.144  14.855   1.651
11559W        W83142  20.873  16.659   5.478
11560W        W83143  39.793   4.774  11.446
11561W        W83144  17.123  33.076   3.609
11562W        W83145   4.414  35.100   2.122
11563W        W83146   3.279  25.279   3.131
11564W        W83147  39.076  18.635   4.823
11565W        W83148  27.826  17.322  10.843
11566W        W83149   0.381  15.434  10.698
11567W        W83150  24.916  35.541  10.493
11568W        W83151  34.336  40.840  14.228
11569W        W83152  32.901  13.252  13.024
11570W        W83153  26.039  16.799  11.034
11571W        W83154  44.254  15.029  13.818
11572W        W83155  30.701  22.365   4.943
11573W        W83156  10.395  15.524  13.004
11574W        W83157  12.550  38.379   0.815
11575W        W83158  32.390   4.413   3.172
11576W        W83159  21.029   4.421  12.396
11577W        W83160  30.958  40.564  12.908
11578W        W83161  12.164  31.545  13.961
11579W        W83162  42.263  16.758   2.799
11580W        W83163  16.550  37.611   2.385
11581W        W83164   3.528  19.981  13.482
11582W        W83165   8.664  32.077   0.039
11583W        W83166  29.883  24.707   2.603
11584W        W83167  20.683  25.926  11.901
11585W        W83168  29.490  14.340  13.919
11586W        W83169  15.139  40.329   2.772
11587W        W83170  29.746  39.397  12.087
11588W        W83171  12.754  43.942   3.654
11589W        W83172  14.270   1.394  14.723
11590W        W83173   2.952  19.374   2.853
11591W        W83174   1.341  32.558  11.179
11592W        W83175   3.511   8.931   4.203
11593W        W83176  29.037   7.961  11.165
11594W        W83177   7.616  18.778   0.886
11595W        W83178  32.637  40.059   2.617
11596W        W83179  38.374  15.671  10.458
11597W        W83180  33.966  19.361   3.121
11598W        W83181  13.215  18.216  13.462
11599W        W83182  33.707  37.033   4.059
11600W        W83183  39.870  17.343   3.699
11601W        W83184  44.640  15.250  12.088
11602W        W83185  22.565  18.526   0.929
11603W        W83186  42.853  12.770  14.042
11604W        W83187  13.352   4.199  14.521
11605W        W83188  43.437  33.754   4.209
11606W        W83189   9.670  34.446   1.695
11607W        W83190   9.265   5.887   3.557
11608W        W83191  19.221  40.756   3.863
11609W        W83192  26.569  31.082  12.097
11610W        W83193  16.690  36.516   3.311
11611W        W83194  16.628  35.003  12.544
11612W        W83195   8.319  13.899  14.653
11613W        W83196  21.416   1.782   3.894
11614W        W83197  14.688  43.484   2.623
11615W        W83198  28.075  10.529   5.486
11616W        W83199  12.679  43.766   2.346
11617W        W83200  12.272  17.271  10.618
11618W        W83201  25.225   4.027   0.259
11619W        W83202  26.276  13.540  14.425
11620W        W83203  24.555  33.338  12.510
11621W        W83204   4.369  39.765  11.896
11622W        W83205   8.767  24.913   1.281
11623W        W83206  23.646   1.740   2.752
11624W        W83207   5.740  43.355  11.646
11625W        W83208  35.090   1.499  12.725
11626W        W83209  14.914  10.111   0.609
11627W        W83210   9.839  39.419  14.353
11628W        W83211   1.851  24.706   4.602
11629W        W83212  31.883  22.034   0.309
11630W        W83213  17.850  40.263  10.628
11631W        W83214  15.524   4.294   1.597
11632W        W83215  10.731  27.896  11.137
11633W        W83216   7.891  12.757   3.649
11634W        W83217  31.050  35.751   2.927
11635W        W83218  40.182  35.141   4.636
11636W        W83219   3.571  27.427   0.489
11637W        W83220   0.791  28.946   1.809
11638W        W83221  24.762   9.925   1.942
11639W        W83222  37.894  20.672  12.084
11640W        W83223  30.289  42.029   1.329
11641W        W83224  44.487  28.633   4.506
11642W        W83225  41.760  33.079  14.499
11643W        W83226  17.997  14.424  11.014
11644W        W83227  18.599  35.867   2.237
11645W        W83228  40.668  42.970   9.911
11646W        W83229   3.943  30.538   9.768
11647W        W83230  24.398  30.476  12.725
11648W        W83231  37.362  31.332   0.360
11649W        W83232   3.267  24.228  11.134
11650W        W83233  30.770  26.394   4.160
11651W        W83234  20.980  11.101   0.823
11652W        W83235  19.805   2.751  10.510
11653W        W83236   5.454  16.279  14.112
11654W        W83237  18.529  23.511   2.291
11655W        W83238  29.769  32.138   0.968
11656W        W83239   0.692  17.874  12.615
11657W        W83240  18.566   0.290   1.261
11658W        W83241  27.810  39.927   1.245
11659W        W83242  31.413   8.207   0.578
11660W        W83243   0.714   5.903  11.926
11661W        W83244   0.895  32.274  10.320
11662W        W83245  32.089  10.178   3.706
11663W        W83246  35.357  28.769   3.612
11664W        W83247   9.912  17.064   4.913
11665W        W83248   8.947  17.353  11.594
11666W        W83249  13.238  39.688   1.408
11667W        W83250  33.925  38.933  10.683
11668W        W83251   2.518  12.181   0.788
11669W        W83252  13.318  12.890   4.750
11670W        W83253  17.198   5.384  14.868
11671W        W83254   9.005   6.900   2.272
11672W        W83255  44.242  21.210   1.744
11673W        W83256   1.490   2.821   0.326
11674W        W83257  13.316   3.901  11.995
11675W        W83258   7.704  10.199   2.812
11676W        W83259  11.372   1.246   1.827
11677W        W83260  35.135   6.258   0.979
11678W        W83261  13.050   8.843  10.306
11679W        W83262  44.748  14.851   1.419
11680W        W83263  33.524  16.702  13.949
11681W        W83264   4.934  11.611   3.810
11682W        W83265   8.723  43.692  14.321
11683W        W83266   1.018  33.694  14.443
11684W        W83267  26.475  14.494   1.265
11685W        W83268  44.291  25.932  12.025
11686W        W83269  23.759   6.226   2.267
11687W        W83270  25.156   9.285   1.232
11688W        W83271  35.642   3.873  10.670
11689W        W83272  19.028  38.781  11.931
11690W        W83273  29.132  11.039   1.696
11691W        W83274  38.874  10.564   3.115
11692W        W83275   8.227  25.147   2.752
11693W        W83276  42.747  26.111  14.813
11694W        W83277   3.420  13.746  12.929
11695W        W83278  20.735  12.413  14.755
11696W        W83279  22.213  37.060   3.247
11697W        W83280  41.113  14.926  14.824
11698W        W83281  38.411  19.727   2.287
11699W        W83282  17.619  26.014  13.303
11700W        W83283  27.515  41.948  10.784
11701W        W83284  17.355   5.516   1.600
11702W        W83285  44.917  19.475   4.199
11703W        W83286  44.986  28.032   1.313
11704W        W83287   6.192  37.943   1.217
11705W        W83288   2.984  38.866  11.116
11706W        W83289  38.662  41.395   4.337
11707W        W83290  35.618  32.840  12.428
11708W        W83291  28.903  37.505  13.978
11709W        W83292  11.107  17.018  12.829
11710W        W83293  35.975  26.173   2.919
11711W        W83294  40.847   3.509  14.322
11712W        W83295  22.121  20.267   0.976
11713W        W83296   9.824  35.843   1.579
11714W        W83297  13.159  31.692  13.994
11715W        W83298  21.080  34.311   2.693
11716W        W83299  27.259  13.906   0.867
11717W        W83300  11.815  19.838  12.121
11718W        W83301  14.401  44.297  13.607
11719W        W83302   9.257   1.492   3.436
11720W        W83303  26.658  33.181  14.392
11721W        W83304   1.453  17.618  10.570
11722W        W83305   4.658   7.518  11.716
11723W        W83306  43.250  17.698   2.972
11724W        W83307  39.058  22.645   5.267
11725W        W83308  21.039  12.082   1.274
11726W        W83309   3.831  27.433  13.057
11727W        W83310  22.478  43.355  11.615
11728W        W83311   4.627  24.735   1.811
11729W        W83312  38.464  20.992   3.763
11730W        W83313  13.781  19.706   0.440
11731W        W83314  36.906  23.394  12.002
11732W        W83315  21.263  33.066  13.858
11733W        W83316  22.006   3.187   2.834
11734W        W83317   8.776  39.865   2.891
11735W        W83318  33.332  37.317   3.189
11736W        W83319  18.818  39.431   4.040
11737W        W83320  22.824  33.036  12.636
11738W        W83321   8.733   4.876  15.000
11739W        W83322  17.807   6.401  12.113
11740W        W83323  36.402  43.217  13.316
11741W        W83324  40.412  21.620  11.426
11742W        W83325  21.255   8.869  13.866
11743W        W83326  27.598  38.178   2.318
11744W        W83327  20.961  13.206  14.887
11745W        W83328   2.859   4.475   1.870
11746W        W83329   1.411  41.965   3.118
11747W        W83330  13.605  26.910  12.582
11748W        W83331   4.660  43.881  14.032
11749W        W83332  20.164  30.121  11.931
11750W        W83333   4.920  15.692  13.787
11751W        W83334  40.737  12.097  11.187
11752W        W83335   6.866  17.310   0.257
11753W        W83336  33.328  15.424  11.210
11754W        W83337  17.621  31.586  14.846
11755W        W83338   1.731   9.560  13.498
11756W        W83339  16.413   3.954   2.311
11757W        W83340  13.249  12.390  14.947
11758W        W83341  27.207  27.432   4.362
11759W        W83342  15.087  38.011   2.787
11760W        W83343  13.557   3.726  11.572
11761W        W83344   1.772  19.003  10.694
11762W        W83345   3.420  28.518   3.847
11763W        W83346  37.005  30.339   3.250
11764W        W83347  30.568  41.469   4.697
11765W        W83348  12.866   3.986  13.846
11766W        W83349  39.508  30.546   4.473
11767W        W83350   2.403  37.508  12.984
11768W        W83351  29.627   0.329   1.126
11769W        W83352   9.278  30.645   2.965
11770W        W83353  21.171   4.564  14.566
11771W        W83354  18.588  10.004   1.741
11772W        W83355   0.419  11.267   3.228
11773W        W83356   0.335  10.417   1.474
11774W        W83357  16.635  20.309   4.181
11775W        W83358  22.759  41.501   0.446
11776W        W83359  35.410   1.406   2.341
11777W        W83360  40.832  23.643  10.432
11778W        W83361  44.524   6.905  11.012
11779W        W83362  11.627   4.460   4.126
11780W        W83363  35.035  23.720   2.699
11781W        W83364  11.006  40.533  10.724
11782W        W83365  42.087  33.873  12.011
11783W        W83366  44.670  28.600   0.711
11784W        W83367  41.457  32.555   0.706
11785W        W83368  24.197   0.361  13.168
11786W        W83369  12.952  33.109  14.432
11787W        W83370   3.819  29.003   0.625
11788W        W83371  28.092  39.010  14.086
11789W        W83372  30.650   3.832   2.365
11790W        W83373  23.554   4.469   0.800
11791W        W83374  32.424  25.093  12.512
11792W        W83375  19.139  14.790  11.582
11793W        W83376   6.012  12.298   2.708
11794W        W83377  38.708   9.328   4.995
11795W        W83378  42.878  36.996  14.275
11796W        W83379   2.443   6.732  14.040
11797W        W83380  11.203   4.436  14.517
11798W        W83381   4.095  39.621   1.386
11799W        W83382  14.639  25.417   0.960
11800W        W83383  18.425  33.672  12.071
11801W        W83384  30.205  27.723  13.723
11802W        W83385  22.042   6.402  10.047
11803W        W83386  17.820  35.960  12.520
11804W        W83387  17.540  20.752   3.141
11805W        W83388  18.524  12.592   4.173
11806W        W83389  39.307  29.176   3.578
11807W        W83390   9.446  10.781  13.040
11808W        W83391   7.898  22.707   2.209
11809W        W83392  29.077  31.347  12.860
11810W        W83393   5.969  33.344  14.879
11811W        W83394  17.770   0.966  14.988
11812W        W83395  26.350   0.002   3.285
11813W        W83396  29.896  35.874   1.853
11814W        W83397  32.117  34.601   0.967
11815W        W83398   2.165   2.750  13.461
11816W        W83399  22.147  26.205   0.327
11817W        W83400  44.953   1.132  14.045
11818W        W83401   6.460  17.799   1.573
11819W        W83402  38.574  37.540  13.790
11820W        W83403  19.589  30.122  12.518
11821W        W83404  13.187   3.194  12.867
11822W        W83405  15.418  33.523   5.101
11823W        W83406  15.103  39.304  11.130
11824W        W83407  43.489  26.462   2.208
11825W        W83408  12.144  25.558   0.760
11826W        W83409  32.043  32.869   1.365
11827W        W83410  34.412   5.248  11.296
11828W        W83411  38.367  40.032  12.442
11829W        W83412  17.076  17.505   0.912
11830W        W83413  22.743  22.498   1.215
11831W        W83414  18.717  12.234   0.968
11832W        W83415  15.197  27.637   0.870
11833W        W83416  16.240  12.225  14.811
11834W        W83417  13.735  19.524  12.482
11835W        W83418   2.167  18.457  13.908
11836W        W83419   5.893   1.402  10.679
11837W        W83420   2.400   9.445   0.734
11838W        W83421  25.945  10.318   0.789
11839W        W83422  21.255  43.025  12.500
11840W        W83423  22.456  24.226  11.135
11841W        W83424  39.648   3.925   4.061
11842W        W83425  30.508  17.443   2.175
11843W        W83426  43.928  32.419   3.124
11844W        W83427  17.487  14.602  13.487
11845W        W83428  17.846  24.094   0.591
11846W        W83429  10.796  16.531  12.153
11847W        W83430  32.087  31.613   0.896
11848W        W83431  39.572   0.932  13.523
11849W        W83432   0.300  12.996  12.636
11850W        W83433  30.036  24.078  12.510
11851W        W83434  13.845  14.198   0.919
11852W        W83435   9.279  17.035  14.731
11853W        W83436  17.653  14.293  11.387
11854W        W83437   6.636  35.617   2.606
11855W        W83438   8.179  33.000  13.569
11856W        W83439  23.565  18.208  11.604
11857W        W83440   6.306  10.268   1.434
11858W        W83441  21.954  14.945  11.145
11859W        W83442  13.797   3.232  10.684
11860W        W83443  27.983  26.884  11.441
11861W        W83444  42.767  15.786   4.993
11862W        W83445  10.839  42.048  12.398
11863W        W83446   8.603  35.594  12.981
11864W        W83447   8.155  37.300   3.115
11865W        W83448  36.115   6.833  11.775
11866W        W83449  35.836  19.621   0.324
11867W        W83450  22.658  40.081  10.308
11868W        W83451  22.243  19.181   2.821
11869W        W83452  36.924  41.518   1.478
11870W        W83453  35.556  15.201   2.254
11871W        W83454  15.057  24.749  10.905
11872W        W83455  30.863  11.275   3.204
11873W        W83456   7.137  34.384   3.381
11874W        W83457  14.080  17.486   3.678
11875W        W83458  13.738  25.535  11.956
11876W        W83459   1.397   8.193  11.833
11877W        W83460   8.851   0.374  13.432
11878W        W83461  39.077  20.953   3.824
11879W        W83462  20.644  26.840  12.929
11880W        W83463  26.469   1.276   4.133
11881W        W83464  12.794   4.748  12.465
11882W        W83465  28.896  44.193   2.241
11883W        W83466  23.187  22.659  12.540
11884W        W83467  20.194  19.562  13.530
11885W        W83468  42.904  10.349  14.209
11886W        W83469  13.404  17.654   4.231
11887W        W83470   4.531  42.913  12.560
11888W        W83471  27.007  15.562   0.922
11889W        W83472  24.162  18.471  12.249
11890W        W83473   9.413  35.599   1.980
11891W        W83474  36.860  20.839   5.025
11892W        W83475  26.049  41.094  12.541
11893W        W83476  23.600  17.180   3.291
11894W        W83477   8.969  17.653  13.443
11895W        W83478  17.510  18.277   2.344
11896W        W83479   2.718  31.925  11.185
11897W        W83480   1.449   8.800   2.917
11898W        W83481  31.034  10.756  10.456
11899W        W83482  24.396  42.700   2.282
11900W        W83483  14.056  13.644  14.492
11901W        W83484  32.856  28.654  11.134
11902W        W83485  42.012  15.688   1.906
11903W        W83486  39.911  39.636  10.935
11904W        W83487  32.171  37.574  13.858
11905W        W83488  32.193  28.147  13.315
11906W        W83489  39.037   2.853  14.724
11907W        W83490  20.441  17.812   3.838
11908W        W83491  16.105  16.347  12.995
11909W        W83492  15.186   9.922  10.887
11910W        W83493   4.544   6.209  10.604
11911W        W83494  35.930  23.138   1.947
11912W        W83495  36.957  27.941  11.249
11913W        W83496  31.943  42.718   3.387
11914W        W83497  41.063  40.431   0.373
11915W        W83498  32.129   0.542   1.416
11916W        W83499  26.149  12.185  13.106
11917W        W83500  10.635  21.531   3.209
11918W        W83501  43.014   9.890   3.141
11919W        W83502  35.525  39.204   4.824
11920W        W83503  35.082  43.783   0.046
11921W        W83504  20.091  16.690   3.502
11922W        W83505  37.323  17.155   0.310
11923W        W83506  32.059   4.234  12.859
11924W        W83507  12.324  17.535   2.614
11925W        W83508  21.600  34.215  12.948
11926W        W83509   1.794  38.370   9.774
11927W        W83510   2.450   5.953  14.057
11928W        W83511   3.802  41.078  13.482
11929W        W83512  15.225   8.152   0.007
11930W        W83513  28.918   4.471   0.847
11931W        W83514  25.059  26.448   2.780
11932W        W83515   3.431  28.668   3.350
11933W        W83516  18.950  20.146  13.480
11934W        W83517  21.463  37.568  12.805
11935W        W83518  19.802  34.560  11.452
11936W        W83519  41.415  23.541  11.682
11937W        W83520   6.431  43.321  14.859
11938W        W83521  34.582  10.189  11.102
11939W        W83522  14.531  14.308  11.332
11940W        W83523   7.378  27.933  10.668
11941W        W83524  39.926  32.170  11.551
11942W        W83525  38.454  20.311   1.143
11943W        W83526  23.572  35.769   1.793
11944W        W83527  20.784   2.464   4.351
11945W        W83528  23.057   6.984  10.460
11946W        W83529  43.214  41.007  12.665
11947W        W83530  25.918   6.785  14.387
11948W        W83531   1.744  38.408  11.142
11949W        W83532  36.173  21.216   0.762
11950W        W83533  22.767  36.984  13.990
11951W        W83534  12.528   6.176   0.849
11952W        W83535  44.050  40.459  13.392
11953W        W83536  17.870  25.067  14.375
11954W        W83537  40.855  34.491   4.391
11955W        W83538  40.839  22.153  13.593
11956W        W83539  17.120  12.274   2.220
11957W        W83540   6.381  29.598  13.443
11958W        W83541   7.380  40.568  13.482
11959W        W83542  18.470  21.221   0.418
11960W        W83543  38.445   9.265   0.382
11961W        W83544   7.045  36.271  13.808
11962W        W83545  32.727   8.812  13.095
11963W        W83546  36.035  12.694  13.832
11964W        W83547  21.543  40.506  13.950
11965W        W83548   6.643  34.568  11.600
11966W        W83549   0.389   6.679  13.937
11967W        W83550  27.250  28.681   4.075
11968W        W83551  19.309   1.427   0.826
11969W        W83552  21.207  42.884   0.927
11970W        W83553   6.833  12.777  10.846
11971W        W83554  19.868   8.592   1.955
11972W        W83555   7.439  18.685   2.702
11973W        W83556  26.868  11.250  10.205
11974W        W83557   5.297   5.262  13.124
11975W        W83558  12.629  14.440  13.579
11976W        W83559  11.196   8.263   4.074
11977W        W83560   8.408  22.616   2.448
11978W        W83561   0.908  36.415  11.498
11979W        W83562   8.863   0.503   2.158
11980W        W83563  32.902  23.419   2.398
11981W        W83564  12.968  27.238  11.044
11982W        W83565   1.807  13.094  10.920
11983W        W83566  26.053  40.523  11.680
11984W        W83567  29.554  31.665   9.822
11985W        W83568  10.771  30.123  12.502
11986W        W83569  34.458  29.673   0.967
11987W        W83570  37.243  25.625   5.044
11988W        W83571  21.605   7.883   2.904
11989W        W83572  44.748   5.209  12.828
11990W        W83573  44.280  16.550  10.183
11991W        W83574  40.457  29.220   4.856
11992W        W83575  40.244   4.202   2.760
11993W        W83576  16.167   2.377  14.912
11994W        W83577  20.267  39.222  14.446
11995W        W83578  40.818  36.010   1.516
11996W        W83579  10.010  30.506  11.252
11997W        W83580   7.001  38.356   1.392
11998W        W83581  26.993   4.771   1.305
11999W        W83582  24.032  34.456   3.576
12000W        W83583  36.563  23.247   2.788
12001W        W83584  15.749  12.183   4.520
12002W        W83585  18.626  33.075   0.074
12003W        W83586  10.850  36.038  10.837
12004W        W83587  43.818   9.076   2.191
12005W        W83588  33.691  34.324  11.709
12006W        W83589  28.478  17.132   0.153
12007W        W83590  24.689  41.035  11.426
12008W        W83591  25.696  26.068  10.688
12009W        W83592  18.784  43.037  14.464
12010W        W83593  40.989  11.675  10.988
12011W        W83594  42.523   2.529  14.847
12012W        W83595  36.733  30.168  12.562
12013W        W83596  12.766  26.649  14.077
12014W        W83597  14.921  39.393   4.287
12015W        W83598  30.759  30.227   0.459
12016W        W83599   7.786  28.556   4.005
12017W        W83600  40.644   5.122  11.522
12018W        W83601  40.571   1.531   0.159
12019W        W83602  13.565  31.734   2.854
12020W        W83603   2.507  42.783   4.157
12021W        W83604  25.001   6.321   1.012
12022W        W83605  43.084  16.739  11.160
12023W        W83606   7.164  24.190   2.321
12024W        W83607  33.599  11.514   2.181
12025W        W83608  23.135  28.054   3.322
12026W        W83609   3.921  34.530  11.112
12027W        W83610  31.045   3.317   3.860
12028W        W83611   5.751   8.409  11.523
12029W        W83612  13.110  44.778   0.799
12030W        W83613  19.629  14.502  14.780
12031W        W83614  34.833  30.325  11.152
12032W        W83615  14.520  37.360  12.414
12033W        W83616  20.200  38.281   3.790
12034W        W83617  13.605  12.098  11.965
12035W        W83618  36.887  31.014  12.077
12036W        W83619  38.876  20.968  13.856
12037W        W83620   6.570  29.341  13.043
12038W        W83621   0.702  12.374  13.379
12039W        W83622  38.407   7.442  10.704
12040W        W83623  38.531  23.515   1.726
12041W        W83624  30.935  17.646   1.936
12042W        W83625  40.436  23.790  11.193
12043W        W83626  42.253   4.804  13.030
12044W        W83627  31.103  11.754   3.176
12045W        W83628  37.097   6.386  14.785
12046W        W83629  22.051  25.722   4.219
12047W        W83630  35.324  15.731   3.349
12048W        W83631  29.531  34.989   4.128
12049W        W83632  37.816  17.565   2.402
12050W        W83633   9.179  28.484  13.045
12051W        W83634  10.116  10.892   3.854
12052W        W83635  36.719  28.847  14.437
12053W        W83636  44.447   4.912   2.998
12054W        W83637  25.013  29.445   4.584
12055W        W83638   9.195  34.341   2.726
12056W        W83639   5.910  33.490   1.685
12057W        W83640   4.966  27.141  13.370
12058W        W83641   3.916  18.751  13.404
12059W        W83642   6.318  24.544  14.845
12060W        W83643   5.701  39.868  10.954
12061W        W83644  35.612  34.131  14.844
12062W        W83645   3.646  41.127   3.717
12063W        W83646   0.342  41.205  13.545
12064W        W83647  12.609  32.075   2.833
12065W        W83648  13.352  19.982   0.611
12066W        W83649  12.115  13.698   2.704
12067W        W83650  28.564  28.526  11.092
12068W        W83651  43.271  35.131   3.718
12069W        W83652  10.103  19.710  14.331
12070W        W83653  33.476  19.600  11.599
12071W        W83654  26.941  44.528   3.244
12072W        W83655   5.244   1.249   3.123
12073W        W83656  20.100  23.459   3.653
12074W        W83657   4.303  19.009   3.363
12075W        W83658  26.427  37.603  11.595
12076W        W83659  18.735  18.112   3.213
12077W        W83660  24.443  13.881   0.763
12078W        W83661  35.100  39.922   2.438
12079W        W83662  43.752   1.442   1.421
12080W        W83663  25.553  38.573   3.225
12081W        W83664  36.096  23.094   2.965
12082W        W83665  28.188  38.913   4.952
12083W        W83666  30.068  28.273   1.151
12084W        W83667   6.308  12.906  14.825
12085W        W83668  37.112  22.161   3.409
12086W        W83669  33.411   5.709   4.647
12087W        W83670  22.582  26.683  14.079
12088W        W83671  18.148  35.255  14.450
12089W        W83672  21.316   6.241   2.447
12090W        W83673  19.995  23.230  13.778
12091W        W83674  21.750  10.654   0.844
12092W        W83675   2.353  43.458  11.322
12093W        W83676  32.804  38.906   0.244
12094W        W83677   3.636   3.827  14.720
12095W        W83678  14.115   3.023   4.085
12096W        W83679  36.669   3.756  11.629
12097W        W83680  11.190   6.334   3.116
12098W        W83681  38.078  23.414  14.981
12099W        W83682   1.516   2.747  12.462
12100W        W83683   3.702  37.922  14.062
12101W        W83684  44.810  29.151   4.772
12102W        W83685  43.333  26.774  11.125
12103W        W83686  25.470  43.302   3.583
12104W        W83687  22.922  16.880  10.539
12105W        W83688  26.472  30.971  11.115
12106W        W83689  25.556  17.515   1.393
12107W        W83690  44.231   5.403   3.148
12108W        W83691  34.567  35.198   1.271
12109W        W83692   5.275  11.606   2.846
12110W        W83693   0.254  15.081   0.888
12111W        W83694  39.108   0.373   1.313
12112W        W83695  15.589   9.238  11.001
12113W        W83696  30.846  43.944  12.573
12114W        W83697  30.343  35.005  14.493
12115W        W83698  14.615  26.118  14.009
12116W        W83699  14.598  30.173   2.778
12117W        W83700  28.980  33.947  13.300
12118W        W83701   9.676  20.669   3.721
12119W        W83702   4.732  36.581  13.976
12120W        W83703  41.733  20.629  13.291
12121W        W83704  24.586  35.459   3.637
12122W        W83705  24.462  37.845   0.156
12123W        W83706  18.454   8.385   2.572
12124W        W83707  27.231   2.577   3.694
12125W        W83708  28.556  28.526   4.714
12126W        W83709  41.875  43.559   3.340
12127W        W83710  36.425  44.379  10.297
12128W        W83711  29.497  16.734   0.515
12129W        W83712  17.117  38.198  12.600
12130W        W83713   1.924  39.091  12.506
12131W        W83714  20.308  20.326   0.674
12132W        W83715  35.668  35.975   0.818
12133W        W83716  34.121  29.712  14.613
12134W        W83717  17.981  22.016  10.645
12135W        W83718  40.292  25.025  10.796
12136W        W83719   7.659  22.239   2.192
12137W        W83720  40.534  31.871  12.572
12138W        W83721  20.764  37.010  12.781
12139W        W83722  10.100   9.345   3.237
12140W        W83723   0.566   0.634  14.684
12141W        W83724  22.646  38.590  11.104
12142W        W83725   3.529  33.576   1.711
12143W        W83726  23.685  18.823  14.361
12144W        W83727  13.030  17.666   1.423
12145W        W83728  22.766  42.708  12.465
12146W        W83729  19.116   6.845   3.859
12147W        W83730   5.870  29.076  11.572
12148W        W83731  38.867  11.020   0.785
12149W        W83732  24.120  36.280   2.221
12150W        W83733  40.834  30.046   5.115
12151W        W83734  20.190  13.791  14.026
12152W        W83735   6.289  13.545  11.976
12153W        W83736  13.467  43.696  11.681
12154W        W83737   1.381  24.559   0.268
12155W        W83738   6.773   9.307   2.333
12156W        W83739  37.407  13.650  14.845
12157W        W83740  30.820  20.224   4.774
12158W        W83741  31.088  29.935  12.885
12159W        W83742  36.915   7.411   1.841
12160W        W83743   9.317  38.533  11.575
12161W        W83744  44.378  26.785   2.322
12162W        W83745   6.334  26.185  11.734
12163W        W83746   8.588  34.533   3.845
12164W        W83747  37.814  13.710  11.672
12165W        W83748  39.913  13.881   0.338
12166W        W83749  12.638  16.305   4.007
12167W        W83750  17.378  17.266   3.296
12168W        W83751   0.734  26.200   3.611
12169W        W83752   5.168   4.746  14.395
12170W        W83753  42.514  36.640  11.141
12171W        W83754  17.694  36.609  12.980
12172W        W83755  32.309  43.729   2.254
12173W        W83756  41.288  34.030   2.776
12174W        W83757   8.358  34.478  10.781
12175W        W83758  31.697  22.527   9.854
12176W        W83759   7.765   7.699  12.410
12177W        W83760  38.963  36.676  14.014
12178W        W83761   8.170   1.787  11.091
12179W        W83762  44.325   6.382   2.908
12180W        W83763  37.241  31.450   1.389
12181W        W83764   9.813  30.642  14.885
12182W        W83765  33.462  29.567  14.915
12183W        W83766   8.377  10.695   4.381
12184W        W83767  43.253  43.066  13.485
12185W        W83768  33.144   2.963   2.656
12186W        W83769  42.296  31.529   2.831
12187W        W83770  28.676  41.804   1.660
12188W        W83771  17.987   9.702   2.307
12189W        W83772   7.744  42.811   1.814
12190W        W83773   4.693  40.359  12.625
12191W        W83774  18.998  22.137   3.013
12192W        W83775  39.978  38.186   1.656
12193W        W83776  14.694  28.606   1.715
12194W        W83777   8.710  26.470  11.990
12195W        W83778  10.590  12.358  11.584
12196W        W83779   5.774  21.123   4.081
12197W        W83780  16.434  24.908   0.304
12198W        W83781  32.184   5.115   3.712
12199W        W83782   4.383  23.438  14.394
12200W        W83783  39.347  17.387   4.955
12201W        W83784   2.251  17.136   4.243
12202W        W83785  29.875  14.853  13.847
12203W        W83786   4.943  32.274   0.443
12204W        W83787   5.745  29.614   0.289
12205W        W83788  14.352  36.539  11.699
12206W        W83789  32.405  22.141   1.042
12207W        W83790  37.355  43.751  10.220
12208W        W83791   3.341  27.901   0.338
12209W        W83792  11.397   6.896   2.976
12210W        W83793  44.354   1.181   0.804
12211W        W83794  44.736  41.003   1.998
12212W        W83795  39.787   4.192   0.461
12213W        W83796  36.609   3.747   1.910
12214W        W83797  15.855  26.774  10.765
12215W        W83798  21.278  32.986  13.345
12216W        W83799  12.028   7.430  10.615
12217W        W83800   6.637  39.962  11.214
12218W        W83801  34.396  34.859  13.390
12219W        W83802  41.519  27.121  10.875
12220W        W83803  43.071  44.363   3.832
12221W        W83804  40.604   3.497  10.241
12222W        W83805  30.152  28.931   3.355
12223W        W83806  44.506  27.802  14.045
12224W        W83807  25.161  15.135  14.983
12225W        W83808  20.737  29.229   3.878
12226W        W83809   2.827  20.983  11.614
12227W        W83810   5.066  42.953  10.142
12228W        W83811  31.122  39.845   2.139
12229W        W83812  40.932  34.644   1.591
12230W        W83813  13.297  17.314   4.595
12231W        W83814  31.956  29.399  12.982
12232W        W83815  22.672   9.479  11.729
12233W        W83816  13.579  35.662   4.630
12234W        W83817  42.434  15.817  14.284
12235W        W83818  44.041  30.895  13.317
12236W        W83819  14.644  34.915   5.073
12237W        W83820   1.690  36.305   2.734
12238W        W83821  12.087   6.232   2.812
12239W        W83822   4.013  39.364  11.540
12240W        W83823   3.173   9.930  14.553
12241W        W83824  14.309  26.200  14.445
12242W        W83825  42.816  21.691  12.518
12243W        W83826  42.213   6.378  11.638
12244W        W83827  33.366  15.771  14.931
12245W        W83828  27.305  39.008   1.768
12246W        W83829  15.673  34.358   2.856
12247W        W83830  17.469  18.762  12.375
12248W        W83831  32.587   9.267  14.665
12249W        W83832  23.299  42.862   1.219
12250W        W83833  11.807   2.158  14.869
12251W        W83834  13.367  43.799   0.575
12252W        W83835  17.893  32.815   0.361
12253W        W83836  42.274  29.052  14.285
12254W        W83837  25.043   9.884  12.130
12255W        W83838  39.438  13.743   3.182
12256W        W83839  29.738  38.107   3.594
12257W        W83840  25.433  29.243  13.501
12258W        W83841  18.285  30.235  10.545
12259W        W83842  33.604   0.235  13.509
12260W        W83843  12.372  18.593   0.226
12261W        W83844  11.268  13.773   4.120
12262W        W83845  13.176  22.135   0.267
12263W        W83846  35.614  44.335   4.820
12264W        W83847  10.066  31.624  14.008
12265W        W83848   6.303  28.367  12.927
12266W        W83849   8.277  44.906  10.826
12267W        W83850  41.282   9.643  12.103
12268W        W83851  44.562   7.059  14.341
12269W        W83852   5.888  16.946  10.551
12270W        W83853  20.137  31.978  11.857
12271W        W83854   8.409  39.557   2.697
12272W        W83855  41.946  21.087  13.270
12273W        W83856  31.056  14.176   1.019
12274W        W83857  37.490  26.169   3.218
12275W        W83858   8.004  23.028   1.816
12276W        W83859  21.459  25.008   1.781
12277W        W83860  14.125  25.070  14.771
12278W        W83861  31.034  37.215  12.891
12279W        W83862   7.234   5.913   0.275
12280W        W83863   3.502  12.388   0.953
12281W        W83864  17.007  44.251   3.216
12282W        W83865  28.423   8.896  14.791
12283W        W83866   2.236  28.441   1.257
12284W        W83867  10.798   0.522  14.815
12285W        W83868  33.053  11.884   0.791
12286W        W83869   1.002  17.492   4.123
12287W        W83870  29.646  18.208  10.738
12288W        W83871  18.737  22.982   1.735
12289W        W83872   6.289  20.164  12.432
12290W        W83873   5.982  26.121  13.618
12291W        W83874  29.526  20.506   4.585
12292W        W83875  27.463  10.416   2.308
12293W        W83876  31.352  23.215  11.450
12294W        W83877  27.394  21.151  13.895
12295W        W83878  32.504   4.614   2.293
12296W        W83879  29.844  20.127   3.058
12297W        W83880  32.529  43.416   3.522
12298W        W83881  33.044  33.776  13.918
12299W        W83882  23.745  21.294   2.741
12300W        W83883   4.330  32.810   0.067
12301W        W83884   6.549  44.962   3.240
12302W        W83885  40.876  38.475   2.425
12303W        W83886  29.047  39.538  11.411
12304W        W83887  27.343  33.938   3.252
12305W        W83888  37.306   0.615   2.407
12306W        W83889  12.762   8.598   4.580
12307W        W83890  31.288  22.119  11.880
12308W        W83891  42.362   0.393   2.643
12309W        W83892  35.591  23.034   4.334
12310W        W83893  21.278  21.494   2.302
12311W        W83894  21.228  44.979  14.266
12312W        W83895   1.774  34.321   0.266
12313W        W83896  37.067   1.948   3.834
12314W        W83897   6.508  18.083   5.109
12315W        W83898  35.383  17.329  10.792
12316W        W83899  15.847  34.742  13.537
12317W        W83900  37.487  13.651  11.228
12318W        W83901  31.631  21.604  11.915
12319W        W83902  40.461   4.360  13.937
12320W        W83903  25.591   1.177   0.306
12321W        W83904   9.776   0.278  11.009
12322W        W83905  33.195  25.590  11.563
12323W        W83906  28.562  24.760  12.355
12324W        W83907  27.619   1.707   2.301
12325W        W83908  35.943  38.955  13.538
12326W        W83909  21.712  10.448   1.789
12327W        W83910  32.718  16.780  10.934
12328W        W83911  14.641   9.692   3.889
12329W        W83912   1.944  29.844   4.819
12330W        W83913   0.915  27.432   0.194
12331W        W83914  14.528  12.188   1.240
12332W        W83915  27.240  36.886   4.056
12333W        W83916   4.909  34.917   0.746
12334W        W83917  24.827  38.759  12.440
12335W        W83918   9.294  32.982  13.026
12336W        W83919   9.668  24.882  10.432
12337W        W83920  17.331  33.428  12.001
12338W        W83921   6.783  24.309  14.872
12339W        W83922  38.377  25.362   4.229
12340W        W83923   3.585  29.750   2.690
12341W        W83924   8.427  10.218   2.277
12342W        W83925  43.544  17.522  11.839
12343W        W83926  28.003  37.922   2.539
12344W        W83927   8.874   2.972  11.199
12345W        W83928   4.417  27.509  10.867
12346W        W83929  16.224  43.561   1.662
12347W        W83930   1.712  44.347  14.318
12348W        W83931  34.951  40.779   4.106
12349W        W83932  12.904  39.285   1.383
12350W        W83933   6.363   3.174  12.889
12351W        W83934   5.333  36.988  14.541
12352W        W83935   0.582  12.322  10.794
12353W        W83936  28.079  40.299   4.909
12354W        W83937   4.916  11.071  13.434
12355W        W83938   0.422  17.273  14.750
12356W        W83939  20.547  30.632  10.190
12357W        W83940  29.987  24.322   0.741
12358W        W83941  44.258  35.802  10.994
12359W        W83942   5.021  43.952   1.452
12360W        W83943  34.868  31.345  14.297
12361W        W83944  11.106  37.059  13.763
12362W        W83945  18.814  41.491  13.338
12363W        W83946  24.627  39.945   3.552
12364W        W83947  28.546  29.677  14.002
12365W        W83948  28.816  30.361   4.282
12366W        W83949  26.984  19.079   4.599
12367W        W83950   8.917  36.978   3.399
12368W        W83951  18.237  19.431  13.480
12369W        W83952  18.079  29.606  11.663
12370W        W83953  10.894  11.790  10.671
12371W        W83954  38.115  29.225  14.394
12372W        W83955   8.553  34.549  11.255
12373W        W83956  18.745  24.843   3.731
12374W        W83957  26.950  12.256  10.098
12375W        W83958  41.332  10.434  11.492
12376W        W83959  41.288  21.663   1.305
12377W        W83960  30.389  17.220  13.659
12378W        W83961  26.535  42.728   1.410
12379W        W83962  30.567  11.137   0.418
12380W        W83963  15.656   2.469   4.639
12381W        W83964  17.666   7.802   0.930
12382W        W83965  26.090  40.006   2.548
12383W        W83966  17.534  15.641  14.578
12384W        W83967   0.174  38.670   4.212
12385W        W83968  42.117  38.962   9.913
12386W        W83969  12.215  43.956   4.130
12387W        W83970  10.183  18.925  11.530
12388W        W83971   9.125  25.528  13.353
12389W        W83972  22.009  43.507   0.548
12390W        W83973  35.416  28.861   2.274
12391W        W83974  35.872  13.028  14.695
12392W        W83975  37.044   8.404  13.915
12393W        W83976   2.299  12.355   2.632
12394W        W83977   3.811  16.774  13.641
12395W        W83978  11.537  17.083  14.289
12396W        W83979  41.720  17.590   0.780
12397W        W83980  18.251  25.572   0.755
12398W        W83981  34.363  40.419  12.305
12399W        W83982  44.582  28.629   0.209
12400W        W83983  40.494  17.191  10.798
12401W        W83984  30.581  19.184   1.322
12402W        W83985  20.523  12.346  13.846
12403W        W83986   7.236  19.294   1.189
12404W        W83987  41.255  16.950  11.109
12405W        W83988  42.831   9.785  13.414
12406W        W83989   0.033  44.198   3.452
12407W        W83990  31.073  40.404  13.398
12408W        W83991  43.466  27.585  10.770
12409W        W83992   5.983  32.903  12.531
12410W        W83993   5.897  19.381   3.236
12411W        W83994  41.277  30.955  14.910
12412W        W83995  27.030  29.186   2.850
12413W        W83996  44.551  20.613  14.044
12414W        W83997  19.201   5.693  14.829
12415W        W83998  22.165   9.878  10.115
12416W        W83999   1.413  42.070  14.511
12417W        W84000   9.335  12.222  12.066
12418W        W84001  11.796  44.226  13.968
12419W        W84002  38.898   9.432  14.343
12420W        W84003  27.078  11.770   3.377
12421W        W84004  42.108  11.313  10.326
12422W        W84005  14.241  22.666   0.230
12423W        W84006  38.768   4.284  14.779
12424W        W84007   2.946  33.388  12.997
12425W        W84008  13.609  11.837  14.284
12426W        W84009  34.502  31.113  13.454
12427W        W84010  39.868  41.686  14.987
12428W        W84011  24.653  32.889   1.243
12429W        W84012  35.923   0.598   1.961
12430W        W84013  25.415  43.981  11.307
12431W        W84014  23.268   0.517  12.839
12432W        W84015  10.618  19.140   3.150
12433W        W84016  24.595  27.409   0.900
12434W        W84017   2.140  36.002  10.158
12435W        W84018  41.541  34.417  10.733
12436W        W84019   1.322  10.255   1.877
12437W        W84020  35.028  17.864   1.797
12438W        W84021  37.970  23.738   4.123
12439W        W84022  18.592   5.158  13.800
12440W        W84023   2.453  14.055   1.318
12441W        W84024  18.420  35.951  13.381
12442W        W84025  20.172  44.210  14.151
12443W        W84026  37.593  36.418   1.636
12444W        W84027  26.490  28.162   4.104
12445W        W84028  21.984  16.789   0.750
12446W        W84029   9.902  17.395  11.907
12447W        W84030  17.483  38.023   4.182
12448W        W84031  22.006  17.734   3.697
12449W        W84032  33.267  33.491   3.174
12450W        W84033  10.075  40.294  10.734
12451W        W84034   2.442  39.410   3.777
12452W        W84035   7.716  20.500  14.823
12453W        W84036  12.777  12.438   2.680
12454W        W84037  19.863  31.989   4.573
12455W        W84038   9.626  25.316  13.786
12456W        W84039  38.064  41.897  14.235
12457W        W84040  21.021  28.897  10.649
12458W        W84041   7.283  16.216  12.979
12459W        W84042   4.434  38.544  12.155
12460W        W84043  38.695  44.401   1.379
12461W        W84044   4.151   3.284   3.184
12462W        W84045  28.635  28.113   3.324
12463W        W84046  41.435  27.201  13.402
12464W        W84047  40.323  29.062  13.610
12465W        W84048  29.632  24.491   4.403
12466W        W84049  25.284   6.383   0.067
12467W        W84050  10.575   0.662   2.653
12468W        W84051   6.770  29.337  12.547
12469W        W84052  42.544  15.170   4.748
12470W        W84053  15.354  11.284   3.596
12471W        W84054   1.057  34.562  10.347
12472W        W84055  33.610  39.900   2.249
12473W        W84056  15.192  14.660   3.305
12474W        W84057   6.676  25.911   1.197
12475W        W84058  44.801  28.996  12.203
12476W        W84059  25.647  16.015   2.251
12477W        W84060  28.221  42.539   2.705
12478W        W84061  19.356  37.366  13.937
12479W        W84062  20.473   3.791  12.036
12480W        W84063  21.025  28.978   1.374
12481W        W84064  28.550  19.270  12.493
12482W        W84065  13.281  15.283  11.732
12483W        W84066  42.865  17.182  11.234
12484W        W84067  42.284  41.489   3.922
12485W        W84068  27.489  38.792  11.048
12486W        W84069   4.216   9.300   0.483
12487W        W84070  19.467  37.019   4.946
12488W        W84071  36.815  30.563   0.264
12489W        W84072   0.003   6.847   3.212
12490W        W84073  12.126   8.230  12.545
12491W        W84074  13.634  23.606  11.282
12492W        W84075  18.477   3.959  12.007
12493W        W84076   5.690  41.058   0.818
12494W        W84077  20.325   2.234  14.832
12495W        W84078  20.957  32.154   5.234
12496W        W84079  21.585   4.310   4.655
12497W        W84080  43.963  43.372   2.474
12498W        W84081  40.558  28.645   0.300
12499W        W84082  31.671  24.170   2.884
12500W        W84083  13.761  11.125   1.618
12501W        W84084  23.571  16.305  14.730
12502W        W84085  11.773  35.827   3.159
12503W        W84086  17.866  12.881   2.244
12504W        W84087  29.383  15.298  13.919
12505W        W84088  43.613  26.779   3.941
12506W        W84089  25.558  33.214  12.251
12507W        W84090  26.443   7.001  11.569
12508W        W84091   7.813   8.692   0.941
12509W        W84092  43.544  43.473   1.911
12510W        W84093  27.962   9.950   0.583
12511W        W84094  18.677  41.181   1.242
12512W        W84095   1.617   5.312   0.020
12513W        W84096  44.612  41.306  12.430
12514W        W84097  23.975  38.139  12.532
12515W        W84098  35.509  13.319  14.944
12516W        W84099  17.408   5.346   0.725
12517W        W84100  30.603  42.568  11.023
12518W        W84101   1.242  20.189   1.354
12519W        W84102  25.313  44.675   0.397
12520W        W84103  10.691   2.804   2.246
12521W        W84104   5.531  18.900   1.837
12522W        W84105  15.383  39.114   1.243
12523W        W84106   2.258  16.164   2.904
12524W        W84107   9.775  31.150  14.768
12525W        W84108  18.922   1.956   2.146
12526W        W84109  27.554  17.725   4.757
12527W        W84110  16.142  30.958   4.902
12528W        W84111  36.419  17.140  10.648
12529W        W84112  37.525  13.262   1.196
12530W        W84113  39.072  41.475   4.635
12531W        W84114  15.601  10.841   3.591
12532W        W84115  42.958   3.921   2.400
12533W        W84116  39.276  21.261  13.663
12534W        W84117  42.143  23.991   2.755
12535W        W84118  14.635  24.504  14.068
12536W        W84119  40.995  16.605  14.101
12537W        W84120  44.641  27.174  11.956
12538W        W84121  21.511  31.162   4.998
12539W        W84122   0.220  37.392   1.367
12540W        W84123   2.976  17.554   0.362
12541W        W84124  43.160  43.238   0.687
12542W        W84125   7.393  26.892  11.771
12543W        W84126  10.729  24.440  14.477
12544W        W84127  14.387   5.351  12.010
12545W        W84128  32.928  36.401  12.943
12546W        W84129  36.274  10.821   2.323
12547W        W84130  34.432  43.348   1.228
12548W        W84131  31.531  28.987   1.795
12549W        W84132  13.867  43.788   0.452
12550W        W84133  14.190  14.293  13.813
12551W        W84134  18.761  10.167   3.303
12552W        W84135  40.616  41.846   0.699
12553W        W84136  15.814  20.611   0.849
12554W        W84137   0.603  36.640  13.046
12555W        W84138  22.827  44.966   1.377
12556W        W84139  34.371  27.182  11.007
12557W        W84140  39.755  25.621  12.021
12558W        W84141   8.751   7.330  12.465
12559W        W84142  12.394  17.554   1.948
12560W        W84143  15.589  33.684  10.943
12561W        W84144   1.758  11.807   1.029
12562W        W84145  34.341  28.582  13.445
12563W        W84146   6.615   0.527  13.012
12564W        W84147  11.369   9.164   4.119
12565W        W84148  18.074  31.726   3.145
12566W        W84149  12.525  36.915   3.608
12567W        W84150  35.166  19.860   1.894
12568W        W84151  30.796   6.647   4.159
12569W        W84152  32.369  31.083   3.590
12570W        W84153  39.958  35.048  13.140
12571W        W84154   3.779   1.851  14.708
12572W        W84155  23.296  18.753  12.919
12573W        W84156  36.531  43.062  14.834
12574W        W84157  18.109  43.375   0.937
12575W        W84158  10.197   8.923  10.653
12576W        W84159  18.288   6.783  14.443
12577W        W84160  31.234  14.920  13.306
12578W        W84161  13.660  26.706  12.053
12579W        W84162  40.778  19.811  12.085
12580W        W84163  43.567  25.577   3.377
12581W        W84164  28.987  33.629  12.495
12582W        W84165   6.325  13.139  14.142
12583W        W84166  11.202   8.276   4.607
12584W        W84167  40.825   3.896   3.140
12585W        W84168   5.007  39.302  14.912
12586W        W84169  30.230  18.107   3.826
12587W        W84170   6.253  34.920  12.891
12588W        W84171  33.092  25.612   0.910
12589W        W84172  31.497  32.616  12.357
12590W        W84173  32.368  31.027  11.530
12591W        W84174  37.671   1.320   4.074
12592W        W84175  23.755  24.722   1.010
12593W        W84176  42.202  18.575   3.699
12594W        W84177  35.869   4.463   2.862
12595W        W84178  21.002  35.558  14.978
12596W        W84179  39.472  12.884  11.194
12597W        W84180  16.062   2.713   0.353
12598W        W84181   9.804  22.305  10.759
12599W        W84182   2.602  41.813   4.164
12600W        W84183  15.362  40.771   0.562
12601W        W84184  32.068   6.383  11.609
12602W        W84185  22.675   9.403   0.498
12603W        W84186  32.988  24.714  11.182
12604W        W84187  20.876   9.979   3.759
12605W        W84188  44.250   4.176   0.825
12606W        W84189  13.744  22.933  12.590
12607W        W84190  26.890  14.148   0.600
12608W        W84191  34.593  25.479   4.454
12609W        W84192  30.396  41.310  13.301
12610W        W84193   6.934  25.746  14.328
12611W        W84194  32.039  13.051   3.547
12612W        W84195   3.876   7.370   1.686
12613W        W84196  36.940  23.318  10.707
12614W        W84197  12.048  19.072  13.482
12615W        W84198  39.348  33.122  10.741
12616W        W84199  19.535   3.812   3.329
12617W        W84200  17.873  17.303  13.423
12618W        W84201  35.589  38.968   0.282
12619W        W84202  14.257  14.712   4.227
12620W        W84203  11.352  42.106  13.366
12621W        W84204  38.842  28.044  14.397
12622W        W84205  37.894  26.548   3.849
12623W        W84206  19.175  21.017   4.928
12624W        W84207   9.979  32.383   1.057
12625W        W84208   1.879  11.797  10.717
12626W        W84209  31.698   8.291   2.587
12627W        W84210  24.016  16.230  11.797
12628W        W84211   4.917  34.907   3.702
12629W        W84212   4.732  20.175   3.183
12630W        W84213  41.833  34.770  13.406
12631W        W84214  38.363   4.663  11.401
12632W        W84215  39.923  42.729   3.533
12633W        W84216  18.294  44.073   0.432
12634W        W84217  27.696  27.429   4.195
12635W        W84218   6.998  37.093  13.429
12636W        W84219  42.641  43.462  12.181
12637W        W84220  12.091  25.016   2.778
12638W        W84221   0.333  20.356   3.357
12639W        W84222  19.708  42.202   3.912
12640W        W84223  13.616   6.025  14.367
12641W        W84224   2.710  31.488  14.481
12642W        W84225  38.566  29.997  11.657
12643W        W84226  17.786  15.348   0.475
12644W        W84227   7.832  13.723  10.436
12645W        W84228   6.473   3.058   3.490
12646W        W84229  39.439  40.914   3.210
12647W        W84230  41.307   6.348   3.596
12648W        W84231  23.589  21.066  14.852
12649W        W84232  34.963   9.185  12.925
12650W        W84233  43.228  41.510   3.512
12651W        W84234  36.869   0.276  11.422
12652W        W84235  17.402  20.626   0.694
12653W        W84236  22.096  20.461  11.450
12654W        W84237   8.677   1.516   2.432
12655W        W84238  23.101  25.416   1.535
12656W        W84239   1.512  11.743  14.365
12657W        W84240  26.482  31.468  13.327
12658W        W84241  42.181   5.438   4.178
12659W        W84242  20.834  37.632  11.064
12660W        W84243  12.646  32.436   2.434
12661W        W84244  34.988   9.226  11.141
12662W        W84245   7.249  10.230  14.497
12663W        W84246   6.467   8.300  13.429
12664W        W84247  40.505  22.100   1.369
12665W        W84248   8.628  28.269  13.736
12666W        W84249  17.302  28.239  10.350
12667W        W84250  44.330   9.868   1.432
12668W        W84251  28.007  43.421   3.354
12669W        W84252  27.597  25.988  14.818
12670W        W84253  37.918   5.430   4.496
12671W        W84254  30.959  16.361  14.251
12672W        W84255  38.324  22.669   2.838
12673W        W84256  23.986  36.405  14.125
12674W        W84257  28.598  31.950   5.190
12675W        W84258  32.893  25.021   0.250
12676W        W84259  36.451   9.270  14.235
12677W        W84260  32.560  13.072  14.790
12678W        W84261  26.051  41.716   0.013
12679W        W84262   3.760   3.541   1.504
12680W        W84263   9.679  21.470  13.839
12681W        W84264  15.752  23.968   1.780
12682W        W84265  38.482  33.046  10.438
12683W        W84266  25.725  15.036  12.548
12684W        W84267  37.890  27.850   2.714
12685W        W84268  33.191   3.429   1.597
12686W        W84269   1.077  10.680   4.781
12687W        W84270   5.529   6.771   1.873
12688W        W84271  26.405  22.320   1.899
12689W        W84272  16.105   5.628  10.657
12690W        W84273  36.916   7.766  14.721
12691W        W84274  44.129  21.305  14.990
12692W        W84275  24.672  20.948  10.467
12693W        W84276   0.412  36.993  11.087
12694W        W84277  41.361  16.226   4.078
12695W        W84278   0.373  35.423  14.779
12696W        W84279   6.658  35.130  10.709
12697W        W84280  42.485  19.723   4.125
12698W        W84281  41.911  40.220   3.733
12699W        W84282  32.298  36.940  13.262
12700W        W84283   2.027  32.045  12.918
12701W        W84284  25.543   2.155  10.381
12702W        W84285  32.531  44.783  11.568
12703W        W84286  11.762  10.301   1.344
12704W        W84287   8.774  40.825   1.786
12705W        W84288  29.514   6.219  13.258
12706W        W84289  40.311  21.783   2.212
12707W        W84290  16.166  36.811   2.388
12708W        W84291  32.465   7.010  14.880
12709W        W84292  32.956   9.920   2.896
12710W        W84293  20.304   3.958   0.891
12711W        W84294  30.450   1.703   3.384
12712W        W84295  33.632   8.798   4.233
12713W        W84296  19.576  29.218  14.406
12714W        W84297  31.512   6.853  14.389
12715W        W84298  29.083  26.868  13.533
12716W        W84299  28.999   0.978  13.085
12717W        W84300   5.176  35.420  12.525
12718W        W84301  44.583  10.753   3.142
12719W        W84302  39.537  17.038   2.438
12720W        W84303  23.909  31.722   0.006
12721W        W84304   6.291   9.880   1.814
12722W        W84305   2.244   8.253   4.592
12723W        W84306   0.913  39.632   2.315
12724W        W84307  35.479  36.506  14.268
12725W        W84308  38.360  16.515   2.634
12726W        W84309   3.668  40.476  12.454
12727W        W84310  15.748  12.388   3.504
12728W        W84311  21.645  11.863   4.730
12729W        W84312  26.257   0.695   1.405
12730W        W84313  13.202  31.426   3.811
12731W        W84314  19.084  42.861   3.958
12732W        W84315  18.101   3.292  14.895
12733W        W84316  42.301  12.852  10.567
12734W        W84317  27.463   2.232   3.194
12735W        W84318  35.022  15.925  14.452
12736W        W84319  30.450  26.381  11.476
12737W        W84320  22.518  28.411  11.958
12738W        W84321  27.567  10.951  13.311
12739W        W84322  25.733  27.959   0.818
12740W        W84323  14.344   2.497  11.608
12741W        W84324  38.317  37.529  11.359
12742W        W84325  20.363  38.610  11.939
12743W        W84326  11.622  20.894  11.979
12744W        W84327   6.312  29.641   4.552
12745W        W84328  32.311   9.999   4.477
12746W        W84329  29.770  18.550  12.807
12747W        W84330   0.947   2.302   4.184
12748W        W84331  43.924   9.593  12.344
12749W        W84332  14.373  23.636  13.936
12750W        W84333  28.690  27.071  11.838
12751W        W84334  15.279  17.709  11.997
12752W        W84335  25.679  14.327  10.949
12753W        W84336  12.151  27.696   1.174
12754W        W84337  15.426  14.014  11.060
12755W        W84338  22.885   5.655   2.401
12756W        W84339  10.851  16.181   1.306
12757W        W84340  16.851  20.267  14.537
12758W        W84341   8.669  32.309   4.795
12759W        W84342  27.091  34.992  10.675
12760W        W84343  23.906  12.859   1.787
12761W        W84344  10.610  13.800   3.344
12762W        W84345  33.977   9.899   4.755
12763W        W84346  34.938   5.823   2.225
12764W        W84347  35.872  36.949   0.800
12765W        W84348  18.570  29.479   2.325
12766W        W84349  19.673  33.726  13.454
12767W        W84350  20.787  39.249   1.765
12768W        W84351   0.530   0.849  10.671
12769W        W84352  28.922  29.393  10.763
12770W        W84353  16.531   9.132   0.062
12771W        W84354  13.705  34.934  12.840
12772W        W84355  44.355  42.534  10.688
12773W        W84356  32.882   7.630   1.600
12774W        W84357  18.233  17.718  14.788
12775W        W84358   1.750  32.838   1.909
12776W        W84359  27.862  37.372  14.865
12777W        W84360   4.902  30.806   3.993
12778W        W84361   9.500  41.464   2.612
12779W        W84362  21.714   6.313   4.120
12780W        W84363  31.027   7.730  12.287
12781W        W84364  39.739   0.347  13.151
12782W        W84365  23.244  16.160  14.307
12783W        W84366  33.296  23.132   1.671
12784W        W84367   7.675  29.122  11.458
12785W        W84368   5.293   9.431   2.320
12786W        W84369   9.336  10.375   0.025
12787W        W84370  14.251  44.974   1.674
12788W        W84371  10.875  20.184  11.598
12789W        W84372  35.105  11.345   3.737
12790W        W84373  35.489  28.392  12.204
12791W        W84374  25.682  16.025   4.618
12792W        W84375  14.783  42.770   3.191
12793W        W84376  22.725  41.486  12.036
12794W        W84377  28.240   7.016   1.482
12795W        W84378  17.820  21.022  13.382
12796W        W84379  31.944  14.328  12.879
12797W        W84380  38.694   9.906  14.374
12798W        W84381  25.066  11.059   3.240
12799W        W84382  29.644   0.332  12.063
12800W        W84383  10.074  38.303  12.700
12801W        W84384  14.808  32.894   4.137
12802W        W84385  15.632  35.335   1.939
12803W        W84386  18.136  22.995   2.782
12804W        W84387   6.144  22.723  13.362
12805W        W84388  16.721  43.503  12.262
12806W        W84389  21.365   2.611   2.954
12807W        W84390  11.782  12.171  11.508
12808W        W84391  14.836  37.817   0.934
12809W        W84392  16.061  33.007  12.994
12810W        W84393  10.890   4.824  14.498
12811W        W84394  29.565  29.644  10.891
12812W        W84395  34.844  29.189  13.964
12813W        W84396  21.042  40.256   1.789
12814W        W84397  25.892  13.235   4.277
12815W        W84398  26.903  16.832  10.784
12816W        W84399  32.338  17.305  14.610
12817W        W84400   9.389  35.391   3.719
12818W        W84401  19.567  34.422   1.254
12819W        W84402  44.718   1.296   1.363
12820W        W84403  13.653  31.990   0.309
12821W        W84404  23.926   1.719  12.875
12822W        W84405   6.931  15.336   4.231
12823W        W84406  42.003   4.917  10.696
12824W        W84407   5.112   9.294  14.322
12825W        W84408   6.359  31.829   1.298
12826W        W84409  18.042  35.072  11.691
12827W        W84410  44.481  22.181  12.012
12828W        W84411  12.241  13.322   1.101
12829W        W84412  38.203   3.571   1.687
12830W        W84413  12.369  37.878  12.553
12831W        W84414   7.725  35.625  11.520
12832W        W84415   6.288   9.609   2.439
12833W        W84416  17.668  37.852  10.421
12834W        W84417  29.563  28.378  11.952
12835W        W84418   2.408   1.917   0.827
12836W        W84419  10.620  31.039   0.311
12837W        W84420  29.076   2.975   0.019
12838W        W84421  43.245  25.955   2.238
12839W        W84422  12.315  35.389  11.695
12840W        W84423   6.252  15.978   1.273
12841W        W84424  13.851  40.536  12.995
12842W        W84425  35.123  21.523  12.298
12843W        W84426  34.289  41.914  11.051
12844W        W84427  37.072  22.002  13.574
12845W        W84428  21.020   3.774  12.059
12846W        W84429   6.106  27.452  12.835
12847W        W84430  19.815  19.958  12.061
12848W        W84431  40.463  11.600  10.313
12849W        W84432  32.337  17.317  14.065
12850W        W84433  11.602  41.729   4.234
12851W        W84434  10.735  43.722   0.438
12852W        W84435   6.494  28.963   1.429
12853W        W84436  27.372  18.138   1.767
12854W        W84437  28.736  34.502   4.296
12855W        W84438  18.200  21.965   1.424
12856W        W84439  12.848  42.026  13.096
12857W        W84440   5.397  10.313  11.167
12858W        W84441   6.329  40.127  13.745
12859W        W84442  44.713  37.605  11.130
12860W        W84443  26.906  33.706  11.084
12861W        W84444  25.644  11.560  10.765
12862W        W84445  30.410  43.252   1.718
12863W        W84446   7.712  34.359  14.985
12864W        W84447  32.477  37.390  14.932
12865W        W84448  33.211  34.508  11.134
12866W        W84449  34.598  43.551   2.710
12867W        W84450  41.029   3.909   4.469
12868W        W84451  19.008  15.308  10.564
12869W        W84452  35.629  21.902  13.965
12870W        W84453   3.421  27.927  13.956
12871W        W84454  32.660  35.965  14.558
12872W        W84455  28.119  35.338   0.674
12873W        W84456  20.309  21.535   4.264
12874W        W84457  14.149   9.036   4.518
12875W        W84458  32.511   1.763   2.673
12876W        W84459  16.379  24.171  14.416
12877W        W84460  37.579  42.827  12.723
12878W        W84461  37.093  29.239  14.428
12879W        W84462  28.577  13.500   2.740
12880W        W84463  44.390  28.042   2.777
12881W        W84464   9.111  42.131   0.458
12882W        W84465  32.689   5.885  12.052
12883W        W84466  36.562  26.376   3.132
12884W        W84467   5.475  23.121  11.169
12885W        W84468   5.326   0.471   2.624
12886W        W84469  31.898   5.362  13.947
12887W        W84470  13.157  16.232  14.060
12888W        W84471   7.331  14.499   2.830
12889W        W84472  30.381  37.899  13.111
12890W        W84473  38.426   9.827   3.679
12891W        W84474  27.641  35.040   4.552
12892W        W84475   5.645  22.433   0.637
12893W        W84476   4.220   5.450  10.478
12894W        W84477  26.860  44.801   2.416
12895W        W84478  10.865  34.888  11.282
12896W        W84479  42.951  27.685   0.849
12897W        W84480   5.766  20.154   0.790
12898W        W84481  19.555   9.544   1.815
12899W        W84482   8.093  34.954  14.441
12900W        W84483  11.692  32.401   4.332
12901W        W84484  37.432  36.881  14.479
12902W        W84485  36.652  15.105   1.952
12903W        W84486  39.541  44.234   2.961
12904W        W84487   2.991   9.659   2.371
12905W        W84488   0.218   9.680   4.361
12906W        W84489  21.028  34.907   0.406
12907W        W84490   9.459  39.040  11.660
12908W        W84491  38.873  20.522   4.785
12909W        W84492  43.260  11.231   1.330
12910W        W84493  34.799  13.765   3.588
12911W        W84494  22.596  15.920   4.488
12912W        W84495  36.081  30.614   1.249
12913W        W84496  41.103   4.937   3.647
12914W        W84497  27.920   5.414   2.804
12915W        W84498   8.492   0.352  13.900
12916W        W84499  10.875   2.713   0.420
12917W        W84500   3.594  39.597   3.145
12918W        W84501  29.062  34.136  13.795
12919W        W84502   1.212  20.075  14.039
12920W        W84503  28.731   5.854   3.251
12921W        W84504  15.782  20.457   4.649
12922W        W84505   3.721  14.066  14.491
12923W        W84506  29.658  17.268  13.621
12924W        W84507  20.185  31.724  10.932
12925W        W84508   4.961  12.580  10.418
12926W        W84509  37.852  44.830   1.276
12927W        W84510   4.853  39.819   2.881
12928W        W84511  13.873  13.428   3.481
12929W        W84512  36.101  23.599   2.683
12930W        W84513   2.416  27.897  14.815
12931W        W84514  40.774  36.751   0.837
12932W        W84515  25.492  28.926  14.306
12933W        W84516  22.163  41.312  11.201
12934W        W84517  22.248  18.759  14.339
12935W        W84518  18.810  30.175   3.645
12936W        W84519  12.013  15.005   4.102
12937W        W84520   1.812  35.521  14.794
12938W        W84521   1.324  44.514   3.766
12939W        W84522  11.342  43.787   0.741
12940W        W84523  23.771  36.091  13.792
12941W        W84524  14.148   8.529   0.332
12942W        W84525  40.635  14.635  11.656
12943W        W84526  42.965   8.886   2.942
12944W        W84527  18.719  23.110  13.505
12945W        W84528  30.941  33.812  11.975
12946W        W84529   8.710   3.699  13.407
12947W        W84530  22.153  34.438   1.007
12948W        W84531  37.388  30.441   4.401
12949W        W84532  34.726   8.709  12.900
12950W        W84533  14.812  35.507  12.379
12951W        W84534  25.091  20.927   3.127
12952W        W84535  35.401  43.259  14.274
12953W        W84536  42.768  15.386  12.786
12954W        W84537   7.342  38.398   2.798
12955W        W84538  34.370   8.190   0.845
12956W        W84539  17.506  40.016  13.438
12957W        W84540  35.168   8.341  11.192
12958W        W84541  15.844  27.000   3.271
12959W        W84542  30.348  37.776   1.318
12960W        W84543  11.690   5.952   1.408
12961W        W84544  34.546   8.202  14.396
12962W        W84545  33.975  37.272   4.441
12963W        W84546  11.480  15.582   4.540
12964W        W84547  44.047  44.522   0.446
12965W        W84548  41.312  29.227  14.442
12966W        W84549  16.858  18.731  10.991
12967W        W84550   4.205  38.323  14.413
12968W        W84551  11.419  32.042   2.326
12969W        W84552   0.598  32.831  14.226
12970W        W84553  17.184  43.716   2.708
12971W        W84554   6.257   6.150   1.721
12972W        W84555  18.146  36.143   1.206
12973W        W84556  41.725  18.824  12.446
12974W        W84557   7.643  40.466  11.773
12975W        W84558  11.356  20.238   0.304
12976W        W84559  26.608  24.062  13.912
12977W        W84560   1.812  32.556   0.144
12978W        W84561   6.974   2.649   4.157
12979W        W84562  31.031  28.894   3.143
12980W        W84563  16.419  24.813  10.287
12981W        W84564  34.964  13.317  13.462
12982W        W84565   4.352  24.645   1.372
12983W        W84566  28.557   4.325  13.037
12984W        W84567  44.639  19.324   5.020
12985W        W84568  28.668  42.015   3.562
12986W        W84569  25.957  21.311  14.896
12987W        W84570  19.140  35.349  12.203
12988W        W84571  21.311   6.605   2.833
12989W        W84572  43.182  29.152  14.846
12990W        W84573  33.630  42.262   1.162
12991W        W84574  34.766  16.855  14.374
12992W        W84575  11.825  38.537  12.871
12993W        W84576  10.259  40.458  14.398
12994W        W84577   0.236  38.282  14.405
12995W        W84578  26.972  15.504  14.968
12996W        W84579  44.406  40.608  14.279
12997W        W84580  12.101  30.464   3.094
12998W        W84581  36.991  28.428  11.927
12999W        W84582  38.220  27.893  13.405
13000W        W84583  11.263  28.907  14.895
13001W        W84584  14.086  44.379   5.028
13002W        W84585   9.390   1.908  12.123
13003W        W84586  42.052  10.176  14.719
13004W        W84587   4.507  36.846   3.252
13005W        W84588  20.393  23.174   0.836
13006W        W84589  23.890  31.456  11.008
13007W        W84590   1.428  12.689  13.537
13008W        W84591  40.501   8.586   1.686
13009W        W84592  10.327  31.626  11.652
13010W        W84593  35.742  36.023  13.960
13011W        W84594  35.478  12.531  12.465
13012W        W84595  39.316  38.287  11.441
13013W        W84596   9.004   5.628   1.621
13014W        W84597   8.245  19.793  12.108
13015W        W84598   4.295  26.947   4.141
13016W        W84599   5.179  14.718   1.762
13017W        W84600  10.716   1.036  14.812
13018W        W84601  42.306  28.716  11.270
13019W        W84602  10.603  22.538  11.067
13020W        W84603  34.959  37.762   2.440
13021W        W84604  27.499  42.879   1.880
13022W        W84605  13.393  35.938   0.869
13023W        W84606  15.274   6.197  10.757
13024W        W84607  27.960  38.898   1.123
13025W        W84608  31.043  42.059  11.620
13026W        W84609  25.713  20.051  11.222
13027W        W84610  44.383  11.361   1.133
13028W        W84611  36.505  20.663   2.996
13029W        W84612  18.761  22.270   2.590
13030W        W84613  39.165  21.977  12.917
13031W        W84614  28.757  13.868  14.651
13032W        W84615  21.546  10.713  11.041
13033W        W84616   4.975  38.127   2.946
13034W        W84617  15.288  14.555  14.385
13035W        W84618  30.848  22.113  12.179
13036W        W84619  26.241  21.326  10.864
13037W        W84620  30.614   1.895  14.865
13038W        W84621  17.365  38.316  11.132
13039W        W84622  18.722   1.033   3.742
13040W        W84623  23.024  36.954   4.623
13041W        W84624  24.741  28.004  11.211
13042W        W84625  11.763   8.264  10.771
13043W        W84626   4.446   8.833  14.724
13044W        W84627  39.338  30.590  13.229
13045W        W84628   8.770  30.590   3.069
13046W        W84629  14.810  42.453   3.612
13047W        W84630  14.598   2.933  11.923
13048W        W84631  24.084  41.205  14.724
13049W        W84632  37.531  35.334   2.866
13050W        W84633  35.996  30.926  12.099
13051W        W84634   6.402  12.882  13.331
13052W        W84635   1.246  28.146   3.844
13053W        W84636  41.130  31.373   0.186
13054W        W84637  44.012   8.786  14.239
13055W        W84638  10.785   4.471  14.880
13056W        W84639  15.067   0.427   1.441
13057W        W84640  17.671  32.676  12.366
13058W        W84641  32.394  13.739   2.904
13059W        W84642  39.853  11.305   0.331
13060W        W84643  25.827  23.041   2.768
13061W        W84644   1.993  28.617  14.879
13062W        W84645   1.997   0.727  10.590
13063W        W84646  13.755   5.850  14.895
13064W        W84647  27.514  21.705  12.631
13065W        W84648  25.639  11.561   1.388
13066W        W84649  18.219  15.659  13.889
13067W        W84650  22.702  24.057  13.566
13068W        W84651  27.375  19.616   1.410
13069W        W84652  14.607  13.600  14.820
13070W        W84653   3.695  21.148  11.635
13071W        W84654  43.545  16.338   1.442
13072W        W84655  33.454  36.662  14.266
13073W        W84656  27.149  36.628  11.541
13074W        W84657  39.322  39.641   0.701
13075W        W84658  39.832  23.095   4.728
13076W        W84659   6.925  23.050   2.659
13077W        W84660  33.580  43.403   3.638
13078W        W84661  38.635   6.439   3.649
13079W        W84662  40.038   0.251  10.740
13080W        W84663  18.231  38.820  13.142
13081W        W84664  39.210  19.193  12.101
13082W        W84665  43.469  16.612   0.027
13083W        W84666  25.772  18.516   3.393
13084W        W84667  28.117  37.381  11.624
13085W        W84668  22.695  33.877  13.801
13086W        W84669  18.797   5.706   3.244
13087W        W84670  31.463  24.845   0.336
13088W        W84671  29.355  15.264  11.602
13089W        W84672   6.717  11.394  12.980
13090W        W84673  23.217  23.448   1.447
13091W        W84674   7.611  23.975  14.762
13092W        W84675  11.611   9.801   0.769
13093W        W84676  35.978  41.533  14.275
13094W        W84677  38.444  15.219  10.747
13095W        W84678  21.716  37.014  11.896
13096W        W84679  31.367  22.311   3.306
13097W        W84680  42.666  23.726   4.183
13098W        W84681  35.831   8.913   1.304
13099W        W84682   4.709   1.201   3.904
13100W        W84683   9.296  40.106  10.528
13101W        W84684  37.407  26.257   4.636
13102W        W84685  19.739  41.960  11.610
13103W        W84686  16.288  33.131   0.800
13104W        W84687   9.240  32.140   9.862
13105W        W84688  15.621  26.192  12.478
13106W        W84689  27.919  27.984  12.106
13107W        W84690  30.365  22.791  14.341
13108W        W84691  16.262  15.187  10.871
13109W        W84692  37.343   7.475   5.036
13110W        W84693  27.601  31.410   4.549
13111W        W84694  13.626   7.758  12.882
13112W        W84695  12.292  17.547  12.998
13113W        W84696  40.425  20.579   4.746
13114W        W84697   4.807  31.897  11.182
13115W        W84698  40.887  18.482  10.849
13116W        W84699  29.999  35.246  11.165
13117W        W84700  11.760  25.186   2.399
13118W        W84701  17.817  34.248  11.479
13119W        W84702  36.800  42.072  12.568
13120W        W84703  15.630  12.652   1.964
13121W        W84704  39.845  19.752   0.373
13122W        W84705  42.895  41.221  12.039
13123W        W84706  17.023  24.571   1.411
13124W        W84707  29.984  22.731  11.133
13125W        W84708  17.783   6.784   3.644
13126W        W84709  13.260  35.456   2.913
13127W        W84710   8.554  44.549  11.055
13128W        W84711  10.202  37.846  14.487
13129W        W84712   2.488   8.191  12.958
13130W        W84713  21.323  32.405   2.665
13131W        W84714   9.684  37.080  14.036
13132W        W84715  10.271   0.702  12.139
13133W        W84716  12.873   8.894   2.434
13134W        W84717  33.065  29.628   2.617
13135W        W84718  25.125   6.978   0.372
13136W        W84719  20.782  19.695  10.663
13137W        W84720  39.507  21.930   3.680
13138W        W84721  23.123  29.659   0.230
13139W        W84722  12.657  25.620  12.056
13140W        W84723  30.044  25.717   3.943
13141W        W84724   9.092   6.963   0.909
13142W        W84725   7.404  24.579  12.866
13143W        W84726  39.039  18.834  11.757
13144W        W84727  36.940  33.710   1.860
13145W        W84728  24.324  44.329  13.562
13146W        W84729  30.679   1.430   2.268
13147W        W84730   2.208  18.244   4.359
13148W        W84731  18.027  31.958   3.716
13149W        W84732  37.545  38.954  12.808
13150W        W84733  32.244   0.780  11.480
13151W        W84734  43.580  20.796   2.179
13152W        W84735  10.159  20.988  13.007
13153W        W84736  31.415   7.673   3.728
13154W        W84737  16.042   1.457  14.881
13155W        W84738  32.167  20.090   4.570
13156W        W84739  37.433  15.524   3.327
13157W        W84740   4.275  28.849  10.819
13158W        W84741  16.402  23.910   1.212
13159W        W84742   3.258  37.031   4.044
13160W        W84743  44.356  24.200   0.493
13161W        W84744  40.940   2.278   0.867
13162W        W84745  17.591  17.095   1.825
13163W        W84746   7.014   0.211  14.060
13164W        W84747  30.963  13.867   0.008
13165W        W84748   6.076   9.839  14.178
13166W        W84749  21.346  31.472   3.795
13167W        W84750  15.200   8.400   4.607
13168W        W84751  35.135   1.242   0.781
13169W        W84752  36.805   7.821   1.457
13170W        W84753   5.670  14.577  14.949
13171W        W84754  34.020  17.161  13.560
13172W        W84755  22.439  13.112   4.599
13173W        W84756  25.731   8.852   4.183
13174W        W84757   1.015  26.646  12.993
13175W        W84758  18.074  16.789  14.436
13176W        W84759   7.761  35.878   4.768
13177W        W84760  41.783  42.001  13.927
13178W        W84761  32.043  19.108   2.750
13179W        W84762  10.796  39.403   0.352
13180W        W84763  31.812  14.976  11.676
13181W        W84764  12.586  33.475  14.432
13182W        W84765  34.871   5.309   2.341
13183W        W84766   5.752   2.492   4.609
13184W        W84767   6.356  31.854   2.886
13185W        W84768  31.329  10.583  14.090
13186W        W84769   4.350  44.435   4.675
13187W        W84770   2.811  24.030  12.919
13188W        W84771  20.054   4.118   1.315
13189W        W84772   8.228   9.440  10.991
13190W        W84773  30.667  23.043   2.805
13191W        W84774  40.591  21.589   1.801
13192W        W84775   7.774  11.404  10.697
13193W        W84776  22.316   8.901   5.078
13194W        W84777   2.517  43.720  12.130
13195W        W84778  33.902  40.529  11.120
13196W        W84779  38.429  13.885   3.675
13197W        W84780   1.909   3.632   2.787
13198W        W84781   2.947  26.626  14.711
13199W        W84782  11.743  20.939   1.238
13200W        W84783  35.933  25.625   1.894
13201W        W84784  19.520  36.883  13.796
13202W        W84785  16.358   3.721  11.393
13203W        W84786  16.950  38.087   1.716
13204W        W84787  19.230  26.607  13.374
13205W        W84788  29.199  12.108   3.721
13206W        W84789  34.025   4.826   0.803
13207W        W84790  43.493  21.569   0.240
13208W        W84791  41.139  16.528  12.049
13209W        W84792  43.695   0.828   0.694
13210W        W84793  11.079  29.401   0.923
13211W        W84794  30.401   1.882  11.122
13212W        W84795  22.934  22.696  10.682
13213W        W84796  41.472  15.227  13.061
13214W        W84797  37.505  24.110  12.916
13215W        W84798  11.173  19.540  12.591
13216W        W84799  19.748  24.679   4.984
13217W        W84800   3.683  17.162  11.554
13218W        W84801  11.302  19.970  12.290
13219W        W84802  14.155  26.936  12.106
13220W        W84803  16.070  36.235   2.293
13221W        W84804  17.143  42.375  11.547
13222W        W84805  18.627  31.897   1.291
13223W        W84806   9.668  37.050   4.122
13224W        W84807  30.963  38.462   0.876
13225W        W84808  16.305  37.440  12.066
13226W        W84809  27.182  29.939   3.738
13227W        W84810  21.619  20.596  13.515
13228W        W84811   3.282   3.584   0.045
13229W        W84812  23.038  26.170   0.898
13230W        W84813  22.954  40.406   1.793
13231W        W84814  18.504   7.858  10.896
13232W        W84815  35.094  41.992   1.298
13233W        W84816  35.277  29.167   3.295
13234W        W84817  27.628   9.388   4.118
13235W        W84818  14.328  25.105   3.059
13236W        W84819   7.229  27.200  11.391
13237W        W84820  19.090  27.979   5.060
13238W        W84821  33.616  14.843   1.322
13239W        W84822   8.789   9.690   4.555
13240W        W84823  24.687  30.408   2.553
13241W        W84824  23.568  38.387   1.222
13242W        W84825   3.690  37.058   3.465
13243W        W84826   7.722   7.993  11.998
13244W        W84827  32.502  33.375  11.612
13245W        W84828  10.879  21.453   1.365
13246W        W84829  27.471  26.087   2.871
13247W        W84830   8.036  41.943  14.969
13248W        W84831   8.975  10.687  14.474
13249W        W84832   0.401   1.834   2.808
13250W        W84833  17.526   0.686   4.211
13251W        W84834   4.174   8.487  13.991
13252W        W84835  14.881  39.510   1.877
13253W        W84836  10.681  26.119  10.758
13254W        W84837  16.673  38.855  14.929
13255W        W84838  44.895  21.642  14.532
13256W        W84839  36.606  12.580   1.868
13257W        W84840  26.238  43.722   3.338
13258W        W84841  38.362  13.816   2.360
13259W        W84842  10.208  38.041  13.999
13260W        W84843  25.653  25.024  13.546
13261W        W84844  14.032  41.873   2.824
13262W        W84845  16.584  22.091   2.863
13263W        W84846  14.050  34.446  12.525
13264W        W84847  20.965  42.516  11.442
13265W        W84848  24.546  12.668   0.491
13266W        W84849  36.842  31.389  14.820
13267W        W84850  15.365  32.742   1.242
13268W        W84851  15.901   4.873   0.852
13269W        W84852  17.181  21.742  13.352
13270W        W84853  10.155  17.012   3.098
13271W        W84854  34.851  32.515  12.115
13272W        W84855  11.334  39.278   4.333
13273W        W84856  20.991   4.274   2.580
13274W        W84857  28.714   2.878   2.883
13275W        W84858  41.635  34.285  13.374
13276W        W84859  23.417   0.503   3.166
13277W        W84860  14.457  35.123  10.268
13278W        W84861   6.814  42.418   3.080
13279W        W84862  12.312  15.204   4.481
13280W        W84863  27.898  10.971  10.233
13281W        W84864  17.092  44.951  12.541
13282W        W84865   2.759   7.390   0.934
13283W        W84866  12.643   9.674  12.531
13284W        W84867  12.690  20.156   2.373
13285W        W84868  39.912  42.510   4.720
13286W        W84869  18.531  43.078  14.902
13287W        W84870  39.831  13.836   4.631
13288W        W84871   1.466  25.043   1.938
13289W        W84872  41.921  30.662   4.982
13290W        W84873  13.290  31.182  13.867
13291W        W84874   6.911  22.607  14.850
13292W        W84875  11.399  17.498  11.563
13293W        W84876  41.255  24.210  14.356
13294W        W84877  14.365   9.932  11.561
13295W        W84878  23.240  22.477   3.286
13296W        W84879  28.114   6.712   2.320
13297W        W84880  27.524  44.459  12.278
13298W        W84881  29.070  31.382  14.564
13299W        W84882  12.138  21.155  11.974
13300W        W84883  10.904  37.569  13.821
13301W        W84884   6.908   0.920   3.287
13302W        W84885   9.312  32.584   0.398
13303W        W84886  31.582  43.360   2.632
13304W        W84887  36.342   9.685  12.956
13305W        W84888  37.864  22.225   1.534
13306W        W84889  29.043   6.278  13.048
13307W        W84890  40.317   6.435   4.678
13308W        W84891  13.138  44.374  11.039
13309W        W84892  20.164  16.129   2.284
13310W        W84893  10.244  34.045   4.676
13311W        W84894   0.770  20.209  14.307
13312W        W84895  29.629   7.304   1.775
13313W        W84896   1.399   0.761  13.058
13314W        W84897   3.602  31.100   0.520
13315W        W84898  10.777  30.754  14.865
13316W        W84899  39.991  27.564   2.931
13317W        W84900   3.149  30.736  14.054
13318W        W84901  27.709   3.059   5.127
13319W        W84902   3.219  28.975   3.716
13320W        W84903  10.106  14.219  11.954
13321W        W84904  24.119  10.432  10.723
13322W        W84905   7.670  12.773   0.427
13323W        W84906   1.400  37.630   1.071
13324W        W84907  30.611  25.725  14.175
13325W        W84908  35.043  38.654   0.453
13326W        W84909  17.698  20.156  13.159
13327W        W84910   2.891   4.048   0.916
13328W        W84911  20.705   4.654  13.333
13329W        W84912  32.170  33.490  12.926
13330W        W84913  17.252  35.775  14.264
13331W        W84914  23.765  43.864  12.961
13332W        W84915  30.989  14.203  14.565
13333W        W84916   2.021   6.155   1.760
13334W        W84917  28.897  14.211   3.121
13335W        W84918  39.961  43.350   4.588
13336W        W84919  19.209  40.205   3.693
13337W        W84920  15.673  40.970  10.742
13338W        W84921  28.974  13.996   4.489
13339W        W84922  34.350  40.425   1.313
13340W        W84923  30.958  21.638   0.364
13341W        W84924  17.941   8.384   2.651
13342W        W84925  24.545  34.179  13.356
13343W        W84926   4.438  18.250  10.678
13344W        W84927   3.277  34.023   1.802
13345W        W84928  18.972  34.454  14.449
13346W        W84929  15.557   5.187   1.966
13347W        W84930  17.625  28.165  13.325
13348W        W84931   6.739  17.361   1.653
13349W        W84932  14.801  43.545  14.898
13350W        W84933  29.203  42.374  10.530
13351W        W84934  11.903  35.535   2.321
13352W        W84935  30.085  41.017   1.217
13353W        W84936  36.954  29.894   1.959
13354W        W84937  33.412  33.722   2.271
13355W        W84938  34.108   1.956   4.758
13356W        W84939  29.685   6.864  14.079
13357W        W84940  40.383  20.758   3.706
13358W        W84941  25.547  13.836  11.159
13359W        W84942   5.237  32.112  13.615
13360W        W84943  40.708  30.406   3.795
13361W        W84944  43.227  24.067   4.848
13362W        W84945  27.738  23.080   3.238
13363W        W84946  11.081  25.039  13.175
13364W        W84947  28.331   0.876  14.341
13365W        W84948   0.544  35.020   2.293
13366W        W84949   6.637  24.866   1.444
13367W        W84950   8.824  36.012  10.686
13368W        W84951  39.625  20.137   3.778
13369W        W84952  36.081   7.763   0.712
13370W        W84953   9.446  26.196  12.460
13371W        W84954  21.354  16.496   5.407
13372W        W84955   7.963  28.083   0.788
13373W        W84956  10.737   3.968   1.848
13374W        W84957  23.220  37.390   1.402
13375W        W84958   2.167  33.437   1.381
13376W        W84959  36.057  44.466   4.560
13377W        W84960   2.719   6.284  12.929
13378W        W84961  28.439  26.697  12.120
13379W        W84962  37.331  42.997  10.630
13380W        W84963  36.550  32.563   2.259
13381W        W84964  44.230  41.822  13.907
13382W        W84965  32.384  33.553   3.192
13383W        W84966  39.123  19.538  13.293
13384W        W84967  10.678   9.816  13.992
13385W        W84968  39.536   6.344  13.835
13386W        W84969  13.643   9.089  14.529
13387W        W84970  36.656  40.073  13.556
13388W        W84971  20.047  12.137   1.345
13389W        W84972  23.395  41.756  14.553
13390W        W84973  15.159  41.803  12.025
13391W        W84974   5.038  35.806  14.405
13392W        W84975   8.780  36.976  11.126
13393W        W84976  32.052  33.923  12.490
13394W        W84977  39.675  34.171   1.096
13395W        W84978  19.960  28.099   3.161
13396W        W84979  12.294   1.971  13.507
13397W        W84980  16.172  43.043   1.529
13398W        W84981  33.048  43.739  14.885
13399W        W84982  34.431  19.198   2.387
13400W        W84983  18.141  33.571   1.367
13401W        W84984  29.981  31.750   5.579
13402W        W84985  34.552  12.545  11.586
13403W        W84986  32.087  41.484   1.199
13404W        W84987  27.379  39.513   2.185
13405W        W84988   8.498   3.960  12.006
13406W        W84989   7.820  27.665  12.487
13407W        W84990  36.477  44.064   2.556
13408W        W84991   6.705  33.994  12.771
13409W        W84992  19.101  30.043  10.736
13410W        W84993   5.711  14.605   1.708
13411W        W84994   6.403   7.764  11.735
13412W        W84995  23.907  23.596  13.961
13413W        W84996  16.381  38.296  13.832
13414W        W84997  14.386  38.519  10.733
13415W        W84998  23.523  43.946  13.491
13416W        W84999   4.992  10.369   4.207
13417W        W85000   6.282  30.422   0.297
13418W        W85001  42.070  40.316  10.647
13419W        W85002   5.325  33.814  14.559
13420W        W85003  31.351  23.832   3.114
13421W        W85004  37.751  10.160   1.864
13422W        W85005   5.864  21.863  10.712
13423W        W85006  27.232  18.567  11.099
13424W        W85007  25.445  27.552   1.014
13425W        W85008  14.394  16.031  14.420
13426W        W85009   1.001  10.382  14.070
13427W        W85010  36.767  40.984  12.993
13428W        W85011  29.173  41.924   3.310
13429W        W85012   2.021   2.974   3.720
13430W        W85013  31.360  13.885  12.462
13431W        W85014  19.732  38.444  14.406
13432W        W85015  25.254  43.361  13.546
13433W        W85016  33.327  24.202  13.066
13434W        W85017  31.256  17.161  12.917
13435W        W85018   8.916  17.796  14.387
13436W        W85019  19.171  10.363  12.940
13437W        W85020  20.955  36.362  14.020
13438W        W85021  29.619  39.987   4.335
13439W        W85022  34.451  11.193  14.109
13440W        W85023  42.237  14.423  14.363
13441W        W85024  42.966  16.731  12.115
13442W        W85025  32.097  27.173   3.631
13443W        W85026  16.127  24.533  12.946
13444W        W85027  38.872  31.919  14.585
13445W        W85028   7.242   5.778   2.360
13446W        W85029   2.023  17.055  13.397
13447W        W85030  26.492  18.546  12.843
13448W        W85031   0.496  33.631   0.919
13449W        W85032  38.198  15.012  11.893
13450W        W85033  36.030  20.034  13.999
13451W        W85034  34.883  43.298   0.959
13452W        W85035  40.095  29.206  14.042
13453W        W85036   0.967  39.030  14.466
13454W        W85037  15.732  31.998   2.889
13455W        W85038  10.602  32.464   2.277
13456W        W85039  12.598   5.942   1.340
13457W        W85040   3.999  13.179  14.964
13458W        W85041  37.275   0.578   5.204
13459W        W85042  17.558  37.381   1.261
13460W        W85043  17.005  20.839   3.694
13461W        W85044  34.569   9.956   1.100
13462W        W85045  42.441  19.960  14.835
13463W        W85046  43.179   9.344  13.339
13464W        W85047  12.684  20.279   2.899
13465W        W85048   7.854   5.877  11.976
13466W        W85049   7.989  42.511   0.603
13467W        W85050  37.047  43.542  12.541
13468W        W85051   7.132  38.492  14.453
13469W        W85052   1.662  29.298   2.780
13470W        W85053  19.718  26.941   2.913
13471W        W85054  32.635  20.302  12.916
13472W        W85055  22.805  11.270   0.218
13473W        W85056  24.745  29.209   3.812
13474W        W85057   6.944  14.330   0.431
13475W        W85058  37.382  22.926  13.652
13476W        W85059  14.541   5.044   0.949
13477W        W85060   9.134   1.894  13.313
13478W        W85061   9.696   7.088  14.491
13479W        W85062  19.704  17.303  12.066
13480W        W85063   3.709   8.453  12.152
13481W        W85064   4.615  21.304  14.804
13482W        W85065   3.147  13.561  10.580
13483W        W85066  16.055  21.026  14.299
13484W        W85067  41.551   8.847  13.410
13485W        W85068  32.149  30.925   4.089
13486W        W85069  32.511   9.829   3.547
13487W        W85070   4.651  36.501  13.098
13488W        W85071  29.475  24.289  12.711
13489W        W85072  28.227  23.118   3.422
13490W        W85073   1.157  26.663   2.330
13491W        W85074  41.403  20.119  13.299
13492W        W85075  17.571   3.822   3.940
13493W        W85076  43.963  40.102   1.379
13494W        W85077  20.403  19.133   3.114
13495W        W85078   9.434  37.333  10.059
13496W        W85079  26.052  12.151   3.255
13497W        W85080  31.454   3.927  13.540
13498W        W85081  39.652  24.207  11.130
13499W        W85082  28.926  26.608   2.298
13500W        W85083  27.315   1.418   5.067
13501W        W85084  12.585  43.963  13.733
13502W        W85085  25.740  26.824  10.105
13503W        W85086  39.103  13.788   1.345
13504W        W85087  29.221  44.247  11.560
13505W        W85088  26.111   5.374   4.464
13506W        W85089  20.997  37.127  14.872
13507W        W85090  41.735  30.654  11.171
13508W        W85091  24.089  19.780   0.272
13509W        W85092  21.064  28.438  13.557
13510W        W85093   9.900  17.100  13.831
13511W        W85094  23.698  43.707  12.456
13512W        W85095  39.394  16.048   3.635
13513W        W85096  17.886  31.029  13.492
13514W        W85097  28.685  32.863  14.856
13515W        W85098  19.992   5.714   1.195
13516W        W85099   6.414   0.889   0.718
13517W        W85100  10.326   8.593  13.585
13518W        W85101  19.133  23.221  10.248
13519W        W85102  24.987  21.099   4.549
13520W        W85103   8.592   9.405   3.533
13521W        W85104  23.304  18.123   4.672
13522W        W85105  41.308  13.120   4.215
13523W        W85106  25.067  41.565   2.976
13524W        W85107  24.659  39.864   2.556
13525W        W85108   4.195  15.700   5.101
13526W        W85109  19.812  35.595   2.785
13527W        W85110  12.220  44.564  11.175
13528W        W85111  10.364   4.181  14.756
13529W        W85112  41.891  22.487  14.491
13530W        W85113  35.322  26.495   3.699
13531W        W85114  14.190   4.631   1.217
13532W        W85115  35.597   7.398  13.046
13533W        W85116  25.108   3.158   0.035
13534W        W85117  20.762  14.094  12.451
13535W        W85118  22.482  21.715   4.527
13536W        W85119  25.964  10.917  14.504
13537W        W85120  40.533  28.769   4.574
13538W        W85121  30.696  36.432  14.794
13539W        W85122  32.156  34.385  12.962
13540W        W85123  38.008  41.969   3.301
13541W        W85124   8.487  19.586  11.129
13542W        W85125  20.139   6.893  13.560
13543W        W85126  39.832   1.893  11.126
13544W        W85127  37.495  42.856   4.608
13545W        W85128   5.153   7.844   4.601
13546W        W85129  15.659   3.753  12.949
13547W        W85130  20.785   4.773  14.874
13548W        W85131  25.016   5.955   2.742
13549W        W85132  40.544  21.643  11.929
13550W        W85133   8.292  28.303   1.572
13551W        W85134  21.413  40.329   4.388
13552W        W85135  39.487   3.119  12.925
13553W        W85136  27.864   5.124   4.028
13554W        W85137   1.618  24.534   0.712
13555W        W85138  33.277   0.570  14.808
13556W        W85139  10.738  32.563   4.419
13557W        W85140  38.560  12.669  10.732
13558W        W85141  24.131  34.420  11.698
13559W        W85142  44.842  15.296   1.644
13560W        W85143  32.068  13.127  13.334
13561W        W85144  17.149  34.120  10.590
13562W        W85145  31.419  40.407  14.534
13563W        W85146  16.608   8.024   3.363
13564W        W85147  34.432   4.200   1.945
13565W        W85148  27.472  14.713  14.812
13566W        W85149   4.709  12.659   2.851
13567W        W85150   8.878   9.268  11.645
13568W        W85151  17.526  13.765  14.573
13569W        W85152  28.097  36.566  13.359
13570W        W85153  20.263   2.567  14.430
13571W        W85154  42.031  40.217  11.543
13572W        W85155  12.759  26.977   1.313
13573W        W85156  39.977  16.614   1.861
13574W        W85157  12.885  29.178  12.994
13575W        W85158  30.531  40.970   0.924
13576W        W85159   0.209  28.615  14.220
13577W        W85160  38.646  16.341  14.933
13578W        W85161  29.365  29.381  10.484
13579W        W85162   8.305  21.953  11.591
13580W        W85163  18.305  10.697   2.304
13581W        W85164  11.390   9.139  11.657
13582W        W85165  15.754  42.431   4.967
13583W        W85166  34.101  42.362  14.964
13584W        W85167  43.958  15.742   3.170
13585W        W85168   0.800  44.597   0.796
13586W        W85169  26.499  19.736  14.735
13587W        W85170  17.773  20.659  13.746
13588W        W85171  18.061  27.104  10.098
13589W        W85172  30.128  43.292  14.287
13590W        W85173  28.735   8.740  14.401
13591W        W85174  28.048  17.684   2.360
13592W        W85175  21.281  30.862   4.602
13593W        W85176  28.633  15.066  11.194
13594W        W85177  39.478  18.237   2.910
13595W        W85178  25.191  35.056  12.957
13596W        W85179  19.745   8.177  10.427
13597W        W85180  39.941  20.226  13.459
13598W        W85181  42.492  10.178  13.893
13599W        W85182  34.077  27.514   3.201
13600W        W85183  43.267  31.791   4.345
13601W        W85184  36.796  26.962   2.406
13602W        W85185  30.391  10.087   0.017
13603W        W85186  43.842  12.553   1.414
13604W        W85187  39.803   5.835  10.206
13605W        W85188  39.572  26.760  14.766
13606W        W85189  42.236  33.413  12.199
13607W        W85190  38.718  34.001   1.792
13608W        W85191  17.246  40.820   3.089
13609W        W85192  36.655  13.125   0.898
13610W        W85193  27.964  42.755   2.142
13611W        W85194  35.073  28.594  11.671
13612W        W85195  41.774  19.336  14.291
13613W        W85196  42.833  44.178  11.491
13614W        W85197   4.938  31.694   1.204
13615W        W85198  16.801  22.191  12.285
13616W        W85199   3.475  19.596   3.082
13617W        W85200  16.630  15.728  14.836
13618W        W85201  34.753   0.290   0.886
13619W        W85202  21.240  22.965   2.128
13620W        W85203  19.106  30.651  10.938
13621W        W85204  15.275   3.914   0.334
13622W        W85205   1.916  22.422  13.054
13623W        W85206   8.008  10.909  14.403
13624W        W85207  22.409  37.462  14.937
13625W        W85208   3.277  15.723   3.896
13626W        W85209  39.977  18.761   1.150
13627W        W85210   3.949  36.429  12.418
13628W        W85211  38.387  26.440  11.415
13629W        W85212  20.347  22.460   3.533
13630W        W85213  36.505  22.801   1.333
13631W        W85214  37.048  29.738  12.522
13632W        W85215   7.344  32.095   4.914
13633W        W85216  14.066   8.864   0.753
13634W        W85217  33.042   6.157   4.339
13635W        W85218  10.302  39.338  11.694
13636W        W85219   4.387  22.184   1.785
13637W        W85220  10.731   0.171   2.694
13638W        W85221   6.852  33.198  13.875
13639W        W85222  13.678   8.579  14.492
13640W        W85223  19.625  12.694  12.959
13641W        W85224  26.614  25.623  10.404
13642W        W85225  19.284  36.565   4.254
13643W        W85226  43.585  14.706  11.179
13644W        W85227   6.363  37.740  11.123
13645W        W85228   0.477   2.552   4.406
13646W        W85229  37.444   6.644  11.969
13647W        W85230   7.009  11.831   3.840
13648W        W85231  30.105   6.989   3.243
13649W        W85232   5.827  13.645  12.226
13650W        W85233   9.631   9.462   0.042
13651W        W85234  15.581  22.940  13.275
13652W        W85235   7.279   4.301  12.404
13653W        W85236  11.726  11.405   2.822
13654W        W85237  39.141  15.798  11.537
13655W        W85238  11.600   7.279  12.655
13656W        W85239  15.582   0.277  13.575
13657W        W85240  23.228  38.011  10.701
13658W        W85241   7.044  20.197   3.635
13659W        W85242  35.888  38.620   0.043
13660W        W85243   6.925  12.357   4.107
13661W        W85244   0.303  31.683   1.917
13662W        W85245   8.943  22.810  13.900
13663W        W85246  37.726  11.213   2.265
13664W        W85247   0.861  40.792  14.388
13665W        W85248  19.352   3.259  14.561
13666W        W85249  44.527  39.926  14.804
13667W        W85250  23.100  27.702  10.422
13668W        W85251  35.924  34.600   1.741
13669W        W85252  16.734  13.665   1.833
13670W        W85253  36.457   4.260   0.691
13671W        W85254  22.668  39.927   4.595
13672W        W85255   2.054   6.249   0.491
13673W        W85256  30.066  44.101   3.287
13674W        W85257  15.340  14.043  14.354
13675W        W85258   5.262  12.846  12.292
13676W        W85259  28.692   8.848   2.735
13677W        W85260  23.917  36.478  13.056
13678W        W85261   8.910  25.986  10.360
13679W        W85262  13.360   4.872   4.629
13680W        W85263   2.761   5.588  14.257
13681W        W85264   5.177  31.954   4.197
13682W        W85265  31.665  24.935  10.752
13683W        W85266  19.244  36.320  11.489
13684W        W85267  30.533   9.442  14.370
13685W        W85268  14.658  11.479  14.022
13686W        W85269  29.576   7.121   0.875
13687W        W85270  35.107  37.715  14.541
13688W        W85271  19.168   3.921  13.501
13689W        W85272   1.458   2.926  13.946
13690W        W85273  22.613  25.880   2.153
13691W        W85274  20.440  18.698  14.413
13692W        W85275  19.325   9.339  11.923
13693W        W85276  31.695  29.085  13.327
13694W        W85277  44.106   7.346   1.999
13695W        W85278  23.665  24.085  14.787
13696W        W85279  29.317  39.760   4.701
13697W        W85280  22.964  16.284   4.547
13698W        W85281  38.638  17.790   4.129
13699W        W85282  23.095  18.824   2.924
13700W        W85283  24.460   2.954  11.233
13701W        W85284  43.524  19.310  12.878
13702W        W85285  42.520  29.304  12.410
13703W        W85286  39.271  44.336  13.084
13704W        W85287  28.594  35.972   1.317
13705W        W85288   9.921  35.040   4.898
13706W        W85289  13.817   4.890  10.813
13707W        W85290  28.631   0.430  14.399
13708W        W85291  23.851  31.431  10.493
13709W        W85292   9.007  18.058   0.775
13710W        W85293  19.443   6.221  12.829
13711W        W85294  22.762  32.428   2.389
13712W        W85295  30.123  22.149  13.514
13713W        W85296  39.771  32.510   1.349
13714W        W85297  24.181  18.727   1.846
13715W        W85298  12.269  34.022  12.629
13716W        W85299  24.645   5.456   0.973
13717W        W85300   2.307   3.914  14.194
13718W        W85301  11.947  40.533   1.242
13719W        W85302  20.322   6.360  13.714
13720W        W85303   6.867   8.268   4.248
13721W        W85304  38.180  31.732   2.665
13722W        W85305  40.585  11.786  14.997
13723W        W85306   3.371  29.363   2.421
13724W        W85307  14.338  41.523   0.726
13725W        W85308  15.605  30.140  12.018
13726W        W85309   2.675  40.007   1.983
13727W        W85310  33.940  34.882  12.992
13728W        W85311  22.134  13.698   1.276
13729W        W85312  16.051  27.699  13.024
13730W        W85313  18.451  37.921  13.512
13731W        W85314  36.462  42.771   0.263
13732W        W85315  28.506  31.072   1.122
13733W        W85316  33.970   8.749  13.846
13734W        W85317  18.664  30.927  11.033
13735W        W85318  39.847  40.788   0.853
13736W        W85319  29.910  21.652   3.597
13737W        W85320  41.763  14.229   3.245
13738W        W85321  30.386  11.328  11.572
13739W        W85322  10.296   0.829   4.070
13740W        W85323   1.747  18.058  13.894
13741W        W85324  44.949  41.063  14.773
13742W        W85325  37.546  10.335   1.378
13743W        W85326   0.212  31.238   0.733
13744W        W85327  35.346  21.024   1.386
13745W        W85328  17.095  34.878  12.768
13746W        W85329   9.689  35.968  13.418
13747W        W85330   6.412  44.883  12.914
13748W        W85331  37.307   0.850   0.250
13749W        W85332   5.930  37.958   0.769
13750W        W85333  17.920  25.791   4.017
13751W        W85334   1.812   8.400  10.764
13752W        W85335   2.000  29.773  10.736
13753W        W85336  10.354  17.774  13.852
13754W        W85337  31.626  19.135  12.358
13755W        W85338  10.312  39.279   4.030
13756W        W85339   1.744  42.001   0.407
13757W        W85340  27.465  26.483  14.964
13758W        W85341   7.306  15.681   2.273
13759W        W85342  11.181  22.685   1.001
13760W        W85343  24.962   6.348  13.615
13761W        W85344  16.729  22.478  10.864
13762W        W85345  19.921  43.054   3.671
13763W        W85346  24.540  11.806  14.827
13764W        W85347   9.254  19.044   0.737
13765W        W85348  32.428  33.862  11.617
13766W        W85349   5.751  41.265  12.413
13767W        W85350  16.245  40.571  11.208
13768W        W85351  33.241   6.653  10.775
13769W        W85352   2.739  38.291  14.852
13770W        W85353   1.448  41.302  11.646
13771W        W85354   5.774  29.627  14.043
13772W        W85355  14.544  17.140   4.289
13773W        W85356  35.123  18.119  11.197
13774W        W85357  16.946   3.675  12.936
13775W        W85358  34.557  40.840  13.257
13776W        W85359   8.567  29.397   0.438
13777W        W85360  26.667  20.128  13.689
13778W        W85361   4.480  11.757  14.444
13779W        W85362  16.167   2.195   0.394
13780W        W85363  22.760  36.138   2.578
13781W        W85364   4.933   6.139   2.292
13782W        W85365  41.960   7.693  13.877
13783W        W85366  25.170  22.621   0.290
13784W        W85367   9.149  32.109   2.420
13785W        W85368   3.928  16.543   1.856
13786W        W85369  11.114   5.407  13.492
13787W        W85370  37.762   8.239   1.357
13788W        W85371   2.964   7.361  12.484
13789W        W85372  44.471  44.790  13.272
13790W        W85373   0.263  44.058   2.831
13791W        W85374  20.038  43.012  13.885
13792W        W85375  21.983  34.929   0.857
13793W        W85376   7.433   1.453  12.397
13794W        W85377  15.232  40.621   3.204
13795W        W85378  38.324  23.787  14.365
13796W        W85379  38.154   4.625   0.268
13797W        W85380   5.707  12.479   1.358
13798W        W85381  31.920  39.936  11.693
13799W        W85382  32.539   3.200   0.278
13800W        W85383  39.742   5.613  14.054
13801W        W85384  32.383  22.458  14.405
13802W        W85385  26.135  10.313   5.432
13803W        W85386  19.647   0.530   1.603
13804W        W85387   8.834  34.653   3.404
13805W        W85388   2.177  39.392   2.925
13806W        W85389  15.674  39.135  11.107
13807W        W85390  15.355  35.610   3.287
13808W        W85391  13.914  42.989   3.756
13809W        W85392  37.598   9.111  13.783
13810W        W85393  15.558  15.606  10.740
13811W        W85394  33.607  20.168  13.085
13812W        W85395  35.171  42.087  11.638
13813W        W85396   5.697  43.944   2.265
13814W        W85397   4.637  19.125   4.113
13815W        W85398  44.779   8.347   0.802
13816W        W85399  20.316   8.789   2.130
13817W        W85400  14.667  43.684   3.117
13818W        W85401  44.235  36.506  14.162
13819W        W85402   7.289  36.058   3.170
13820W        W85403  33.864  43.851   3.768
13821W        W85404  23.114  44.902  12.010
13822W        W85405   5.278  40.277   3.556
13823W        W85406  38.601  13.262  14.497
13824W        W85407  26.052  24.032  13.011
13825W        W85408  32.567  12.628  14.014
13826W        W85409  15.565   5.134  13.914
13827W        W85410  29.514   8.778  12.027
13828W        W85411   4.889  25.572  11.097
13829W        W85412  14.550  22.719   3.111
13830W        W85413   9.520  19.620  11.921
13831W        W85414  30.226  44.790   0.810
13832W        W85415  35.017  34.062   1.861
13833W        W85416  26.692  18.238  13.617
13834W        W85417  18.207   8.296  12.825
13835W        W85418  30.573  26.019   4.555
13836W        W85419  17.769   5.642  14.846
13837W        W85420  21.400  31.853   5.345
13838W        W85421  31.125  30.175   4.912
13839W        W85422   8.329  12.102  10.422
13840W        W85423   7.367   2.544   5.151
13841W        W85424  40.342   2.438  13.880
13842W        W85425   1.177  41.737  11.692
13843W        W85426  23.384   1.702  13.580
13844W        W85427   1.777  40.456   2.710
13845W        W85428  15.293  15.208  12.424
13846W        W85429   5.710  11.885   2.712
13847W        W85430   5.514   8.688   0.994
13848W        W85431  13.230   3.760   2.702
13849W        W85432   2.759  42.975   4.549
13850W        W85433  28.165  17.720  13.397
13851W        W85434  16.181  29.936  12.595
13852W        W85435   0.969  22.575   2.943
13853W        W85436  22.994  20.635   4.171
13854W        W85437  40.337   3.436   0.510
13855W        W85438  26.524  34.397  10.201
13856W        W85439  24.480  17.785   0.348
13857W        W85440  10.975  17.618   3.769
13858W        W85441  34.547  31.051   0.695
13859W        W85442   1.395   5.037  14.190
13860W        W85443   5.270  42.738   1.873
13861W        W85444  14.556  41.885   1.020
13862W        W85445  32.622  11.839   1.652
13863W        W85446  34.180  42.248  11.429
13864W        W85447  27.030  42.050  14.997
13865W        W85448   3.395  14.387  14.763
13866W        W85449  24.293  36.680   1.207
13867W        W85450  33.683  15.732   0.339
13868W        W85451  31.917  14.375  13.390
13869W        W85452  22.434  31.181   4.122
13870W        W85453   9.668  39.363  13.873
13871W        W85454  19.452  19.103   1.321
13872W        W85455  10.507  16.176   1.728
13873W        W85456  25.267   2.434   1.907
13874W        W85457   8.393   7.365   2.710
13875W        W85458   7.640  31.510   2.730
13876W        W85459   3.362   5.991   0.334
13877W        W85460  27.910  12.417   4.196
13878W        W85461  43.257  10.439   2.337
13879W        W85462  23.617  31.474   0.377
13880W        W85463  34.885   1.636  11.552
13881W        W85464   5.900  15.483  13.863
13882W        W85465   2.838  41.484   0.905
13883W        W85466  12.661  39.405  11.518
13884W        W85467  12.947  18.583   1.295
13885W        W85468  17.565  31.909  14.328
13886W        W85469  35.867  35.481  14.771
13887W        W85470  11.142   6.733  10.233
13888W        W85471  12.258  41.225  12.040
13889W        W85472  31.947  19.266   0.164
13890W        W85473  43.895  13.705   4.277
13891W        W85474  11.737   9.278   1.652
13892W        W85475  23.026  23.496   0.305
13893W        W85476  14.011  16.803  14.760
13894W        W85477   2.395  35.824   1.573
13895W        W85478  34.921  29.168  10.275
13896W        W85479   5.412  33.094   3.770
13897W        W85480  32.348   3.766  11.200
13898W        W85481  40.354  25.722  14.819
13899W        W85482  30.654  20.498   1.323
13900W        W85483  29.026  42.870   4.659
13901W        W85484  36.586  24.981   1.806
13902W        W85485  43.397  37.555  10.191
13903W        W85486  44.235  27.223   2.111
13904W        W85487  26.418   8.132  10.669
13905W        W85488  31.040  38.373   2.310
13906W        W85489  26.553  43.867   4.038
13907W        W85490  13.140  16.052   5.027
13908W        W85491  25.963  40.939  13.484
13909W        W85492  33.214  43.028   2.815
13910W        W85493  17.450  27.714  12.448
13911W        W85494  44.461  14.850  11.626
13912W        W85495  25.137  36.798  14.357
13913W        W85496  14.007  22.678   3.792
13914W        W85497  14.663  35.135  11.422
13915W        W85498  27.292  25.012   0.823
13916W        W85499   1.459  23.813   3.193
13917W        W85500  44.413   0.642  10.763
13918W        W85501  12.720  30.717   3.597
13919W        W85502  33.856  27.752  11.024
13920W        W85503  31.257  34.867  13.484
13921W        W85504   1.896  15.747  11.877
13922W        W85505  13.102  17.287  12.311
13923W        W85506  15.776  27.430  13.990
13924W        W85507  30.950  13.267   1.815
13925W        W85508  20.688  24.498   0.100
13926W        W85509  32.435  11.616  14.497
13927W        W85510  29.967  34.703  11.300
13928W        W85511   2.803   9.782   0.653
13929W        W85512  27.275  21.035   4.227
13930W        W85513   5.766  43.978  14.838
13931W        W85514  13.080  39.644   2.337
13932W        W85515   2.365  44.744   3.202
13933W        W85516  19.999  43.980   3.750
13934W        W85517   7.250  13.112  14.520
13935W        W85518  20.033   8.639  11.533
13936W        W85519  11.370  17.593   0.746
13937W        W85520  14.039  35.423   0.183
13938W        W85521  43.878  22.975   0.538
13939W        W85522  30.392   9.154   3.778
13940W        W85523  21.625  44.085  11.595
13941W        W85524  28.214  38.576  12.424
13942W        W85525  37.952  38.273   3.881
13943W        W85526  41.788  28.067   1.778
13944W        W85527  12.631  19.301   1.767
13945W        W85528  44.830   6.888  13.901
13946W        W85529   5.619  42.370   1.746
13947W        W85530  41.374  31.081  11.015
13948W        W85531  36.383   7.726  13.869
13949W        W85532  43.417  18.226   1.458
13950W        W85533  42.928   4.279   4.555
13951W        W85534  10.897  23.053  12.992
13952W        W85535   5.064  32.212  11.572
13953W        W85536  35.407  21.474   4.577
13954W        W85537  39.123   6.939  12.030
13955W        W85538  17.564  11.165  10.631
13956W        W85539  36.441   5.763   2.689
13957W        W85540  24.628  18.474  13.030
13958W        W85541   8.837  44.451  12.273
13959W        W85542  15.289  18.694   0.090
13960W        W85543  34.578  33.392  14.503
13961W        W85544  20.118  15.500   1.477
13962W        W85545  42.983  21.578   3.842
13963W        W85546  33.658  42.522   4.685
13964W        W85547  38.898  24.412   0.295
13965W        W85548  34.931   9.595   1.007
13966W        W85549  42.265  43.532  14.173
13967W        W85550  25.645  20.296  14.410
13968W        W85551  21.047  40.777   1.887
13969W        W85552  13.164  42.523   0.384
13970W        W85553  41.033  12.647   0.440
13971W        W85554  14.629  15.693  12.513
13972W        W85555  34.563   0.055   2.772
13973W        W85556   9.338  35.427  14.046
13974W        W85557  12.736  42.857   3.084
13975W        W85558  32.960  16.845  13.412
13976W        W85559  43.205  32.055   0.912
13977W        W85560  21.266  15.888  11.463
13978W        W85561  19.454   2.353  12.053
13979W        W85562  31.479  11.769   0.873
13980W        W85563  40.743  17.841  14.221
13981W        W85564  13.453  10.880   2.543
13982W        W85565  22.744  31.244   4.881
13983W        W85566  19.069  42.109  14.409
13984W        W85567  30.508  33.216  13.751
13985W        W85568  31.372   7.104   0.708
13986W        W85569  29.218   5.287  11.038
13987W        W85570  42.970  15.104  14.354
13988W        W85571  42.312  37.425   2.138
13989W        W85572  36.414  32.557   4.139
13990W        W85573  32.848  12.371   0.055
13991W        W85574  35.166  23.251   2.162
13992W        W85575  39.817  21.121  12.870
13993W        W85576  22.102  33.384   2.493
13994W        W85577   3.791  26.968   4.051
13995W        W85578  41.279  44.710   1.844
13996W        W85579  21.836  35.992  12.403
13997W        W85580  41.972  32.366  13.359
13998W        W85581  12.590   5.472   1.620
13999W        W85582  43.948  11.328  14.941
14000W        W85583  10.170  30.321   1.679
14001W        W85584  22.034  15.300   2.477
14002W        W85585  24.706   3.937   4.695
14003W        W85586  30.569  23.325  13.281
14004W        W85587   2.110  10.478   3.630
14005W        W85588  16.791  42.536  14.290
14006W        W85589  35.153  17.626   1.353
14007W        W85590   3.740  33.699   0.752
14008W        W85591  31.499  10.198  13.778
14009W        W85592   9.658  15.725   3.163
14010W        W85593   2.175   8.601  12.942
14011W        W85594  11.456   4.287  14.078
14012W        W85595  36.607  17.125   4.250
14013W        W85596  21.812  13.189  14.240
14014W        W85597   9.934   5.979  11.501
14015W        W85598   2.255   9.107  12.799
14016W        W85599  20.712  25.407  12.629
14017W        W85600  42.164  35.669   1.755
14018W        W85601  25.183  34.969  14.293
14019W        W85602  28.198  14.200   0.257
14020W        W85603   1.361  40.361  13.923
14021W        W85604  33.111  22.870   2.437
14022W        W85605  42.793  31.867  10.496
14023W        W85606  20.367  12.050   3.387
14024W        W85607  37.932   8.387   4.050
14025W        W85608  15.116  15.667  14.284
14026W        W85609  15.270  32.902  10.932
14027W        W85610   8.057  10.108   0.813
14028W        W85611   5.112  19.769  10.908
14029W        W85612  37.129  15.350   1.955
14030W        W85613   2.810  37.357   3.298
14031W        W85614  28.498  31.457   3.458
14032W        W85615  13.443  35.106   3.815
14033W        W85616  28.572  15.639   1.938
14034W        W85617  20.974  37.887   0.920
14035W        W85618   3.837  20.158   2.096
14036W        W85619  27.615  20.826  10.543
14037W        W85620   9.416  42.929  14.325
14038W        W85621  14.513  43.071  14.872
14039W        W85622  14.271  14.792   0.694
14040W        W85623   6.350  44.631  12.485
14041W        W85624  28.746  17.609   0.102
14042W        W85625  19.195  10.151  12.437
14043W        W85626  41.627  33.101   3.193
14044W        W85627   1.987   9.672   0.958
14045W        W85628   4.625   0.747   1.356
14046W        W85629  26.568  12.577   2.400
14047W        W85630  31.092   5.289  12.859
14048W        W85631  44.009   5.414  14.351
14049W        W85632  38.021  34.837  12.345
14050W        W85633   7.790  32.207  11.170
14051W        W85634  32.975  22.390  10.997
14052W        W85635  25.154   5.846   2.224
14053W        W85636   5.990  41.827   2.717
14054W        W85637  34.293   1.049  13.368
14055W        W85638  28.538   0.748  14.850
14056W        W85639  23.491  11.204   2.263
14057W        W85640  16.704  35.141  10.184
14058W        W85641  20.161   2.712  14.956
14059W        W85642   2.986  36.402  11.078
14060W        W85643  23.142  10.285   3.740
14061W        W85644  41.486  41.306  13.430
14062W        W85645  27.029  37.288   0.233
14063W        W85646  41.263   6.464  13.845
14064W        W85647   9.806   8.960   0.098
14065W        W85648  42.760  10.877  14.289
14066W        W85649  33.595  43.437   2.724
14067W        W85650  37.075  10.204   2.402
14068W        W85651  14.646  32.363  13.997
14069W        W85652  42.569  29.483   2.822
14070W        W85653  31.956   4.452   1.408
14071W        W85654  43.254  27.018   3.653
14072W        W85655  34.129  26.725  13.460
14073W        W85656  40.811  15.857  14.766
14074W        W85657  21.033   1.676   2.619
14075W        W85658  17.091   3.502  10.605
14076W        W85659  16.920  10.458   1.700
14077W        W85660  44.050  25.666  13.483
14078W        W85661  38.632  21.040  10.307
14079W        W85662  22.591   7.834  11.893
14080W        W85663  18.832  40.257   1.460
14081W        W85664  30.446  24.993   1.423
14082W        W85665  26.468  22.155  13.950
14083W        W85666  24.009  25.961   0.728
14084W        W85667  17.074  23.782   4.159
14085W        W85668  35.448   2.984   4.593
14086W        W85669  23.226  27.451   1.412
14087W        W85670  27.561   1.378  12.185
14088W        W85671  32.023  30.664   0.705
14089W        W85672  42.341  14.984   0.049
14090W        W85673  37.056   4.828   4.345
14091W        W85674   4.285  39.924  10.380
14092W        W85675  20.723  23.561   4.773
14093W        W85676  17.522   1.396  14.910
14094W        W85677  40.796  41.516  12.884
14095W        W85678  15.539  25.890   0.818
14096W        W85679  36.075  31.355   3.228
14097W        W85680  24.596  27.473   3.791
14098W        W85681   3.908   8.229   0.736
14099W        W85682  39.438  37.024   2.197
14100W        W85683  20.891  29.333   2.177
14101W        W85684  14.732   0.380   2.338
14102W        W85685  19.774  32.178  13.558
14103W        W85686  30.708  22.598   3.661
14104W        W85687  10.664  36.053  13.541
14105W        W85688  11.669   3.992   0.141
14106W        W85689   1.502   3.514  11.181
14107W        W85690   6.859  32.724   4.552
14108W        W85691  20.169  11.877   2.890
14109W        W85692  34.403  22.731  11.976
14110W        W85693  40.591  24.460  12.478
14111W        W85694   5.889  11.474   1.379
14112W        W85695  32.589  38.946   3.700
14113W        W85696  27.925  15.730   4.541
14114W        W85697  39.249   9.197  14.052
14115W        W85698   7.275  37.643  14.129
14116W        W85699  44.535  29.799   1.413
14117W        W85700   4.859  33.086   1.131
14118W        W85701  41.219  29.955   0.132
14119W        W85702  33.946  17.624  10.676
14120W        W85703  37.124  21.364  14.546
14121W        W85704  28.969  23.024  12.642
14122W        W85705  16.395  38.139   4.301
14123W        W85706   5.279  15.351  14.954
14124W        W85707   8.422  19.662   3.501
14125W        W85708  25.405   5.195  13.418
14126W        W85709  40.936   0.773  11.628
14127W        W85710  13.167  12.580  13.571
14128W        W85711  11.771  28.154   3.773
14129W        W85712  39.868  22.590  12.954
14130W        W85713  26.815  42.663   4.208
14131W        W85714  34.596  41.315   2.381
14132W        W85715  12.868   5.516  11.588
14133W        W85716  19.634  41.333   0.857
14134W        W85717  16.906  40.579   4.599
14135W        W85718   9.817  33.006  13.912
14136W        W85719  36.549  15.822  11.202
14137W        W85720  24.243  17.479   3.699
14138W        W85721  40.910  24.925   0.366
14139W        W85722   7.296  38.885   3.397
14140W        W85723  40.202  25.099  14.791
14141W        W85724   4.699   7.753   0.688
14142W        W85725  42.831  27.065  13.806
14143W        W85726  23.306  17.058   0.546
14144W        W85727  44.623  17.038   2.428
14145W        W85728  33.022  24.696   2.797
14146W        W85729  10.395  14.193   3.090
14147W        W85730  20.632  35.913  12.519
14148W        W85731  44.423  23.235  14.244
14149W        W85732  38.456  41.803  12.094
14150W        W85733  43.517  27.755   1.789
14151W        W85734   4.141  25.717   3.661
14152W        W85735  22.388   5.884  12.074
14153W        W85736  21.510   6.335  10.880
14154W        W85737  21.462  39.176  11.566
14155W        W85738  32.568   1.669   0.164
14156W        W85739   9.075  30.021   2.344
14157W        W85740  42.895  42.739  11.715
14158W        W85741  13.252  39.768   2.828
14159W        W85742   1.832  29.422   3.620
14160W        W85743  20.619  30.563   4.107
14161W        W85744  28.660  16.935  13.360
14162W        W85745   0.426  12.798   0.041
14163W        W85746  12.744   2.404  13.041
14164W        W85747  42.100  12.655  10.999
14165W        W85748  39.285  36.433   2.419
14166W        W85749   0.281  28.045  12.057
14167W        W85750  35.998  32.550   1.931
14168W        W85751  33.206  32.408  13.849
14169W        W85752  19.542  27.596   4.046
14170W        W85753   5.176  33.007  14.800
14171W        W85754   3.895  14.515  12.386
14172W        W85755   8.373   6.401   2.160
14173W        W85756   9.219   9.302  13.855
14174W        W85757   7.360   7.254   0.940
14175W        W85758  33.603  30.166  10.587
14176W        W85759  15.133  37.825   3.760
14177W        W85760   5.400  32.054  12.610
14178W        W85761  20.276  42.413   1.013
14179W        W85762   2.780   9.704  12.901
14180W        W85763  21.749  38.317   2.899
14181W        W85764  15.534  12.554  10.602
14182W        W85765   9.385  29.023  10.350
14183W        W85766  38.088  12.107  12.278
14184W        W85767  15.772  38.579   3.674
14185W        W85768  20.754  27.667  13.391
14186W        W85769  18.143  40.136   1.965
14187W        W85770  18.190  29.869  12.510
14188W        W85771   6.755   6.327   1.739
14189W        W85772  31.388  28.263   2.414
14190W        W85773  44.440  33.663  11.153
14191W        W85774  18.016  37.406   2.428
14192W        W85775  40.326  29.039  13.105
14193W        W85776   8.882  12.843  14.916
14194W        W85777  27.709  37.587  11.396
14195W        W85778  21.042  42.884   1.417
14196W        W85779  27.147  17.205  14.928
14197W        W85780   9.364   7.809  11.019
14198W        W85781  19.515  23.369   5.049
14199W        W85782  30.118  10.328  14.150
14200W        W85783  18.519  26.116  13.846
14201W        W85784  27.881  15.642   1.399
14202W        W85785  20.002   2.022  11.143
14203W        W85786  19.597  13.435  13.358
14204W        W85787  30.602  35.357   0.264
14205W        W85788  35.481   2.516   1.132
14206W        W85789   0.978   2.409   3.175
14207W        W85790  39.980  14.647   4.888
14208W        W85791  29.064   6.418  11.951
14209W        W85792  19.608  21.624   3.232
14210W        W85793   6.078  16.847  14.033
14211W        W85794   7.225  21.415   4.167
14212W        W85795   4.920  10.683   3.727
14213W        W85796  35.477  17.378   0.261
14214W        W85797  31.954  25.620   1.198
14215W        W85798  27.007  26.235  14.945
14216W        W85799   6.555  15.183   4.555
14217W        W85800  30.913  24.051   1.340
14218W        W85801  29.576   0.657  10.952
14219W        W85802  16.727  33.219   0.025
14220W        W85803  41.911  18.993  12.983
14221W        W85804  29.947  29.665  13.526
14222W        W85805  22.661  31.881  12.817
14223W        W85806  35.064  13.667   2.678
14224W        W85807  28.469  35.453   3.706
14225W        W85808  19.610  13.701   1.376
14226W        W85809   3.976   5.830  14.901
14227W        W85810  20.235  26.178  10.654
14228W        W85811  33.939   6.191   4.069
14229W        W85812   4.701  26.551  14.032
14230W        W85813  10.655   7.965   4.572
14231W        W85814  22.975  16.523  12.872
14232W        W85815  34.056  16.384  12.069
14233W        W85816  33.918  12.988  13.992
14234W        W85817  28.572  31.010   4.718
14235W        W85818  34.096   7.135  13.903
14236W        W85819   7.095  10.343  10.124
14237W        W85820   2.668  22.030   4.813
14238W        W85821   9.868  18.502  11.491
14239W        W85822  23.917  38.359  11.083
14240W        W85823   5.984  33.600   1.184
14241W        W85824   2.327  16.651  14.337
14242W        W85825   7.788  16.065   2.270
14243W        W85826  38.602  32.215  13.788
14244W        W85827  19.101  33.187  11.214
14245W        W85828  22.130  34.373   0.502
14246W        W85829  37.812  17.257   2.816
14247W        W85830  38.503  41.461  13.092
14248W        W85831  14.804  40.233  11.096
14249W        W85832  27.721  10.809   4.593
14250W        W85833  10.218  10.892  13.891
14251W        W85834  34.558   1.443   3.393
14252W        W85835  21.560  32.696   3.005
14253W        W85836  32.907  13.514   4.078
14254W        W85837  15.109  35.893  13.575
14255W        W85838   5.298  14.927   3.753
14256W        W85839  39.290  23.074  12.526
14257W        W85840  18.691  24.932   0.808
14258W        W85841  33.953  14.827  14.886
14259W        W85842   4.198  40.107   1.276
14260W        W85843  37.927  31.668   3.132
14261W        W85844   0.940   5.007  13.944
14262W        W85845  25.657  42.542   1.735
14263W        W85846  21.506   3.729  11.923
14264W        W85847  36.595  26.868  11.935
14265W        W85848  39.540  16.088  11.516
14266W        W85849  44.707  11.712  12.959
14267W        W85850  18.114  10.198   2.349
14268W        W85851  33.423   4.419  13.948
14269W        W85852  12.791  16.055   1.860
14270W        W85853   6.583  22.992  14.648
14271W        W85854  17.375   7.404   2.582
14272W        W85855  37.014   9.217   0.016
14273W        W85856  40.707  41.047  12.620
14274W        W85857   4.211  37.519  13.241
14275W        W85858  17.135  43.536  11.169
14276W        W85859  30.094   1.021   1.782
14277W        W85860  23.146   0.370  14.540
14278W        W85861  19.929  21.781   2.888
14279W        W85862  29.922  19.295  13.084
14280W        W85863  41.052  38.165  11.212
14281W        W85864  42.009  36.418  11.175
14282W        W85865  40.350   0.927   1.430
14283W        W85866  37.189  13.073   0.830
14284W        W85867  17.561  29.787  13.276
14285W        W85868  28.120  10.077   1.171
14286W        W85869  27.014  40.507   3.642
14287W        W85870  33.868  42.139  12.213
14288W        W85871  43.797  42.760  13.055
14289W        W85872  26.308  10.275  13.474
14290W        W85873   1.690  38.618   0.709
14291W        W85874  20.448  41.007   2.845
14292W        W85875   3.344  20.533   3.139
14293W        W85876  23.443  12.327  14.428
14294W        W85877  33.535  33.657   4.990
14295W        W85878  29.264  43.318   2.752
14296W        W85879   5.408  29.350   4.534
14297W        W85880  18.604  39.958   1.823
14298W        W85881   7.768  43.871  12.789
14299W        W85882  12.827  14.831   2.566
14300W        W85883  35.439  44.026   2.027
14301W        W85884  39.570  28.384   0.509
14302W        W85885  27.519  11.609  11.542
14303W        W85886  13.894  11.667   3.299
14304W        W85887   4.699  30.868  11.140
14305W        W85888  31.060  27.883  14.283
14306W        W85889  31.721  18.737  10.658
14307W        W85890  41.736  32.471  11.027
14308W        W85891  21.484   8.162  12.203
14309W        W85892  27.916  19.582  13.000
14310W        W85893   0.482   1.451   3.318
14311W        W85894  33.587  15.820  12.507
14312W        W85895  31.587  13.826   3.699
14313W        W85896  32.390  19.941   5.002
14314W        W85897  10.112  25.664  14.435
14315W        W85898  24.899  28.712  14.923
14316W        W85899  30.892  37.555  14.371
14317W        W85900  33.423  14.184   0.313
14318W        W85901   7.578  22.373  13.974
14319W        W85902  31.731  22.369  12.499
14320W        W85903  11.097  36.450  10.630
14321W        W85904  26.292  42.356   4.720
14322W        W85905  43.426  29.009   1.214
14323W        W85906  32.073  33.875   2.515
14324W        W85907  15.339   7.256  10.760
14325W        W85908  41.119  25.156  11.980
14326W        W85909   7.262   4.135  10.598
14327W        W85910   1.483  26.403  10.992
14328W        W85911  22.102   5.336  11.151
14329W        W85912  30.653  14.144   2.646
14330W        W85913  34.350  35.523   2.329
14331W        W85914  44.244  40.445   0.793
14332W        W85915   3.402   7.638   1.794
14333W        W85916   9.028   2.628   5.010
14334W        W85917  25.080  35.347   4.934
14335W        W85918   1.896  44.919   4.543
14336W        W85919  37.145  27.574  12.090
14337W        W85920  42.948  38.836  10.368
14338W        W85921  24.749  38.215   4.189
14339W        W85922  34.007  11.450   0.877
14340W        W85923  40.867  11.916  14.089
14341W        W85924  40.496  10.468  11.957
14342W        W85925  26.647  20.039   3.775
14343W        W85926  44.478  15.305  13.417
14344W        W85927   0.937  33.612  10.690
14345W        W85928  25.581  38.890  12.267
14346W        W85929  42.948   2.531   3.692
14347W        W85930  15.540   4.040   0.762
14348W        W85931  37.985  42.423  11.623
14349W        W85932  16.049  28.208  13.010
14350W        W85933  43.918   6.005   1.271
14351W        W85934  41.767  42.247  13.468
14352W        W85935  19.745  26.972  10.480
14353W        W85936  12.930   8.332   0.218
14354W        W85937  12.305  17.024   2.731
14355W        W85938   2.406  30.119   0.235
14356W        W85939  29.948  33.292   4.611
14357W        W85940  35.491   5.124  11.183
14358W        W85941  44.980  15.874  13.913
14359W        W85942  20.993  28.938  13.527
14360W        W85943  41.819   2.023  13.961
14361W        W85944   0.848  44.791  13.436
14362W        W85945   0.763  44.998   2.260
14363W        W85946  25.900  11.336   4.626
14364W        W85947  33.011  12.334  14.534
14365W        W85948  39.485   7.007  11.650
14366W        W85949   6.594  13.856   2.439
14367W        W85950  21.094  38.887   3.903
14368W        W85951  43.214  41.930   2.183
14369W        W85952  34.148  19.441   0.755
14370W        W85953  32.887  39.149   2.375
14371W        W85954  21.465  24.889   2.716
14372W        W85955  10.389   4.340   1.728
14373W        W85956  40.712   2.102   2.873
14374W        W85957  26.162  33.493  12.331
14375W        W85958  27.496  38.091  12.093
14376W        W85959  25.337  43.766   0.435
14377W        W85960  11.874  17.695   0.655
14378W        W85961  26.420  10.104   0.760
14379W        W85962   2.887  36.071  13.783
14380W        W85963  18.329  32.873   4.554
14381W        W85964  30.523  44.481   2.301
14382W        W85965   3.267   8.417  13.526
14383W        W85966  40.071  14.372   0.398
14384W        W85967  28.614  32.878   1.856
14385W        W85968  13.183  33.885   0.927
14386W        W85969  29.340  21.414   5.363
14387W        W85970  26.029  15.094  13.409
14388W        W85971  37.333  10.839   0.911
14389W        W85972  42.585   5.196   3.537
14390W        W85973   9.666  38.566   3.651
14391W        W85974  36.418  41.221   3.562
14392W        W85975  14.830  22.013  14.890
14393W        W85976  25.539   7.158   2.818
14394W        W85977   9.878  15.185  11.147
14395W        W85978  10.077   3.926   4.557
14396W        W85979  42.815  25.690   2.661
14397W        W85980   2.238  35.446   1.256
14398W        W85981  26.680  23.515   2.609
14399W        W85982  37.387  22.588  14.499
14400W        W85983   7.833  16.261  13.449
14401W        W85984  35.450   4.278   4.632
14402W        W85985  44.719  17.041   4.128
14403W        W85986  25.096   3.810   1.301
14404W        W85987  42.769  34.350  13.839
14405W        W85988  22.707   8.625   2.385
14406W        W85989  17.493  29.528  14.944
14407W        W85990  35.941  38.003   0.855
14408W        W85991  12.633  24.082  13.041
14409W        W85992  27.139  26.524   4.547
14410W        W85993   6.543  24.985  14.322
14411W        W85994  23.138  30.614  10.528
14412W        W85995  33.031   5.208  14.791
14413W        W85996  42.742   5.741   0.860
14414W        W85997  44.914  30.655   2.421
14415W        W85998  16.598  37.061  13.002
14416W        W85999  13.956   1.855  12.527
14417W        W86000  34.611   2.421  14.319
14418W        W86001  21.306  12.808   2.281
14419W        W86002  32.372   5.638   2.885
14420W        W86003   1.733  33.912  12.557
14421W        W86004   6.767  36.553   4.709
14422W        W86005   0.229  37.599   4.511
14423W        W86006   5.919  28.690  12.998
14424W        W86007  38.392   5.500   0.874
14425W        W86008   6.718  21.987   4.670
14426W        W86009   8.150  34.015   4.750
14427W        W86010  28.364   9.603   4.869
14428W        W86011   3.389  11.142   1.907
14429W        W86012   7.530   2.905   4.814
14430W        W86013  25.034  39.581   0.957
14431W        W86014   5.429  26.052   1.628
14432W        W86015   8.707  14.051  12.090
14433W        W86016  36.637  25.155   3.581
14434W        W86017  18.574  41.934   4.923
14435W        W86018  37.552   5.381  11.613
14436W        W86019  43.158  34.313   0.778
14437W        W86020  11.474  13.136  12.929
14438W        W86021   3.589  39.060   5.344
14439W        W86022  33.382  40.361   1.161
14440W        W86023   3.807  44.191  13.631
14441W        W86024  44.281   3.012  14.520
14442W        W86025  24.996  18.183  12.478
14443W        W86026  16.049  15.700  13.582
14444W        W86027  39.493  26.421  12.541
14445W        W86028  24.032  16.580  14.842
14446W        W86029   4.314  37.982   4.155
14447W        W86030  20.122  21.481  13.901
14448W        W86031  28.716   5.710  14.484
14449W        W86032   7.406  33.613   4.631
14450W        W86033  43.442  15.707   1.222
14451W        W86034  30.059  15.763   2.775
14452W        W86035  13.666  11.868   2.808
14453W        W86036   6.427  35.374  13.049
14454W        W86037  25.417  24.529   2.426
14455W        W86038  44.718  13.209   1.921
14456W        W86039  31.246  12.308  10.614
14457W        W86040  11.121   1.644  13.356
14458W        W86041  12.071  23.156   1.724
14459W        W86042  28.948  14.793   1.734
14460W        W86043   3.921   3.807   3.120
14461W        W86044  27.465  13.728   2.326
14462W        W86045  19.059  26.917  13.769
14463W        W86046  22.330  34.291   2.807
14464W        W86047  29.536  37.428  10.099
14465W        W86048  36.994   8.715  14.862
14466W        W86049  14.303   4.871  10.606
14467W        W86050  14.357  36.253   3.140
14468W        W86051  21.869  17.683  12.897
14469W        W86052  28.703  23.065  11.048
14470W        W86053  24.039  42.717  11.199
14471W        W86054  30.584   1.468   4.337
14472W        W86055  36.092  25.260  11.490
14473W        W86056  35.633  12.823   0.116
14474W        W86057  32.697  24.675   1.447
14475W        W86058  13.195  25.707   1.729
14476W        W86059   1.068  15.445  10.802
14477W        W86060   3.457  14.790  12.481
14478W        W86061  25.523  36.778  13.475
14479W        W86062  19.147  38.349   4.643
14480W        W86063   9.718  34.455  10.446
14481W        W86064  13.322  11.232  13.903
14482W        W86065  33.473  10.555  11.879
14483W        W86066  26.050   6.799  13.473
14484W        W86067  38.532  12.606  13.752
14485W        W86068   6.217  15.594   4.519
14486W        W86069  11.818  13.718  13.887
14487W        W86070   5.269  33.006  14.275
14488W        W86071  18.294  16.813   3.311
14489W        W86072   5.195  40.482  13.712
14490W        W86073  22.211  30.143   1.460
14491W        W86074  37.333  30.671   2.481
14492W        W86075  43.907   4.600  10.686
14493W        W86076  43.857  15.098   4.597
14494W        W86077  32.860   0.956  13.538
14495W        W86078   3.727  15.193  14.490
14496W        W86079  15.021  21.517   0.026
14497W        W86080  25.564  44.339  12.976
14498W        W86081  38.943  10.882  14.464
14499W        W86082   3.441  21.500   3.336
14500W        W86083  17.797  33.408  13.456
14501W        W86084  36.589   1.921  13.121
14502W        W86085   4.033   2.057  12.944
14503W        W86086   4.564  37.388   5.004
14504W        W86087  24.294   7.329   1.316
14505W        W86088  36.663   9.211  11.094
14506W        W86089  11.239   0.813   0.933
14507W        W86090   9.792   6.710  14.090
14508W        W86091   2.970  20.284  12.168
14509W        W86092  16.618  23.952  11.492
14510W        W86093   2.064  33.532   3.667
14511W        W86094  11.094  38.027  14.035
14512W        W86095  29.410  38.718  12.944
14513W        W86096  23.891  16.251  13.499
14514W        W86097  35.311  11.658   4.190
14515W        W86098  37.905  20.273   1.846
14516W        W86099   9.714  10.562  11.525
14517W        W86100  21.825  29.182  13.149
14518W        W86101   3.555  42.081  13.417
14519W        W86102  22.110  30.145  10.124
14520W        W86103  19.465  34.825   0.949
14521W        W86104  19.755  41.168  12.264
14522W        W86105  40.296  20.560   4.196
14523W        W86106   5.601  11.481  11.099
14524W        W86107  31.051  35.220  13.126
14525W        W86108  22.092  23.251   0.550
14526W        W86109  17.055  43.450   1.210
14527W        W86110  19.771  24.566  12.787
14528W        W86111  18.608  18.618   1.875
14529W        W86112  28.610  44.772  13.353
14530W        W86113   3.212  18.026   4.695
14531W        W86114  21.485  24.115  14.919
14532W        W86115   3.669  24.731   0.738
14533W        W86116  30.031  19.222   4.627
14534W        W86117   9.758  28.081   2.805
14535W        W86118  24.386  24.211   1.830
14536W        W86119  33.015  21.486   5.180
14537W        W86120  28.884  10.454  13.877
14538W        W86121  25.133  34.526  11.658
14539W        W86122  17.981  38.628  14.815
14540W        W86123  30.273  34.964  13.513
14541W        W86124  22.780   9.578  14.502
14542W        W86125   1.387  19.845   4.674
14543W        W86126   7.285  10.853  14.941
14544W        W86127  28.944  13.032  14.977
14545W        W86128  32.376  12.797  10.156
14546W        W86129  18.316   1.998  11.595
14547W        W86130   6.972  10.356   3.318
14548W        W86131   9.847  20.405   3.299
14549W        W86132   0.308   5.311   1.329
14550W        W86133  16.039  38.224   3.425
14551W        W86134   2.440  42.722  13.043
14552W        W86135  14.729   8.389  12.964
14553W        W86136  34.503  35.919   2.044
14554W        W86137  10.365  36.074  11.032
14555W        W86138   5.021   7.301   0.764
14556W        W86139  24.497  33.619   1.406
14557W        W86140  18.674  26.620  10.918
14558W        W86141   7.332  16.713   3.593
14559W        W86142   8.617  19.761   1.235
14560W        W86143  13.714  33.703   2.136
14561W        W86144  36.470  10.121  11.104
14562W        W86145   5.824  19.276  10.928
14563W        W86146   1.440  27.875  12.560
14564W        W86147  20.927  40.337   4.557
14565W        W86148  41.119  38.425   4.405
14566W        W86149   6.346  38.338   1.895
14567W        W86150  37.633  36.874   0.483
14568W        W86151  43.530  22.541  10.673
14569W        W86152  38.092  26.124   1.695
14570W        W86153  24.677  43.000  11.870
14571W        W86154   7.376  10.171  11.453
14572W        W86155  27.534  31.491  14.602
14573W        W86156  37.353  19.516  12.038
14574W        W86157  19.987   8.155  11.735
14575W        W86158  28.127  22.006  14.437
14576W        W86159  40.064  42.561   1.713
14577W        W86160  28.659  36.022   2.274
14578W        W86161  28.384   1.340   4.517
14579W        W86162  43.022   1.237  11.616
14580W        W86163   5.636   2.009   2.879
14581W        W86164   4.972   7.832   2.874
14582W        W86165  40.096  35.475  13.899
14583W        W86166  37.306  12.684   3.309
14584W        W86167  17.149  30.441   3.147
14585W        W86168  22.787   7.429   2.592
14586W        W86169  14.406   7.267   1.175
14587W        W86170  28.069  29.497  13.870
14588W        W86171  16.228   7.431   0.715
14589W        W86172  17.327  30.859   4.367
14590W        W86173  16.818   8.231  12.493
14591W        W86174  40.955  22.638  13.440
14592W        W86175   8.454  35.560   3.746
14593W        W86176  20.056  16.689   1.730
14594W        W86177  11.342  27.518   2.362
14595W        W86178  37.798  16.249   0.236
14596W        W86179  30.466  36.310   0.322
14597W        W86180  18.637  30.410  11.129
14598W        W86181  29.517  18.644   1.703
14599W        W86182  12.077   2.228  11.629
14600W        W86183  35.445  10.210  12.000
14601W        W86184  14.533  36.327   0.296
14602W        W86185  25.080  20.535  12.514
14603W        W86186  37.730  26.443   1.442
14604W        W86187  28.024  11.591   3.799
14605W        W86188  12.537   4.811   5.069
14606W        W86189  13.124  12.130   1.733
14607W        W86190  39.713  21.998  12.062
14608W        W86191  37.886  33.294   1.692
14609W        W86192   2.377   9.035   1.661
14610W        W86193  33.930  12.907   0.708
14611W        W86194   8.658  23.057  13.509
14612W        W86195  34.543  32.103  13.632
14613W        W86196  14.383  12.774   2.332
14614W        W86197  19.321  11.196  11.622
14615W        W86198  26.383  16.683   0.839
14616W        W86199  11.243  19.684   0.253
14617W        W86200  13.187   1.713  13.016
14618W        W86201  23.916  21.539  11.467
14619W        W86202  22.798  16.081   1.458
14620W        W86203  14.094  23.947   3.498
14621W        W86204  10.724   0.224   4.784
14622W        W86205  17.592  37.695   0.834
14623W        W86206  44.811  42.265  10.884
14624W        W86207   0.701  16.189  11.137
14625W        W86208  19.879  21.714  13.490
14626W        W86209   3.290  41.099   3.330
14627W        W86210  28.848  13.251   5.033
14628W        W86211   7.865  10.607   4.510
14629W        W86212  38.915  19.365  10.713
14630W        W86213   4.481   8.205  13.047
14631W        W86214  35.615  41.347  14.585
14632W        W86215   3.864  23.573   4.589
14633W        W86216  43.053   8.977  11.537
14634W        W86217  31.854   4.644   1.921
14635W        W86218  25.909  10.274   4.979
14636W        W86219  17.275  42.040   0.265
14637W        W86220  18.389  27.108   1.246
14638W        W86221  28.874  42.885   0.022
14639W        W86222  28.435   6.880  12.562
14640W        W86223   4.465  43.344   1.785
14641W        W86224  21.129  18.759   0.842
14642W        W86225  34.944  42.806   2.335
14643W        W86226   5.251   3.426  13.890
14644W        W86227  17.591  42.800   3.605
14645W        W86228  40.636  34.813   2.021
14646W        W86229  30.025  44.326   0.076
14647W        W86230  29.040  30.519   1.654
14648W        W86231  29.643  21.972   4.157
14649W        W86232  19.175  19.669   1.382
14650W        W86233  10.708  40.118   9.806
14651W        W86234  19.825  28.004  11.936
14652W        W86235   2.503  38.881   0.675
14653W        W86236  32.994  33.639  14.415
14654W        W86237  16.108  38.631   1.611
14655W        W86238  40.079  12.338   1.773
14656W        W86239  35.262  38.629   1.031
14657W        W86240  23.972  15.487   3.620
14658W        W86241   0.707  32.972  11.810
14659W        W86242   9.039   9.965  11.063
14660W        W86243  40.539   8.073  10.392
14661W        W86244  44.410   8.913   0.463
14662W        W86245  16.831  28.599  13.591
14663W        W86246  39.993  23.410   3.222
14664W        W86247  14.528  22.748  13.765
14665W        W86248  32.884  18.945  14.320
14666W        W86249  12.067  16.840   1.051
14667W        W86250  35.998   1.068  13.592
14668W        W86251  30.423   4.090  14.518
14669W        W86252  36.835  34.868  10.462
14670W        W86253  16.081   1.677   0.394
14671W        W86254  38.402  44.528  14.860
14672W        W86255  32.473  42.726   1.372
14673W        W86256  40.054   3.409   3.148
14674W        W86257   3.672  29.389  14.303
14675W        W86258  23.608   6.784  12.615
14676W        W86259   5.151  40.072  12.530
14677W        W86260  24.022  24.204   0.985
14678W        W86261  43.750  35.582   0.047
14679W        W86262   8.439  27.916  13.412
14680W        W86263  38.481  35.691  13.313
14681W        W86264   4.208  20.465  14.137
14682W        W86265  22.153  26.753   4.145
14683W        W86266  31.830  15.708   2.360
14684W        W86267  17.228  38.030   0.737
14685W        W86268  14.352  12.800  13.935
14686W        W86269  22.646  17.057   5.123
14687W        W86270  27.675  24.899   2.355
14688W        W86271  42.080   2.549  13.044
14689W        W86272   9.291  10.252  10.618
14690W        W86273   5.803   7.193   3.589
14691W        W86274   3.847  17.553  12.441
14692W        W86275  17.398  12.084  11.399
14693W        W86276  36.594   8.406  12.612
14694W        W86277   6.108   8.054   2.269
14695W        W86278  23.551  36.810   0.355
14696W        W86279  36.508  23.927  11.543
14697W        W86280  14.586   0.301  13.516
14698W        W86281   5.182  15.335  12.460
14699W        W86282   5.227  43.932   2.808
14700W        W86283  35.899   8.384   1.428
14701W        W86284  44.175  39.420   3.217
14702W        W86285  10.263  20.074  12.672
14703W        W86286  19.161  14.303   2.744
14704W        W86287  17.157  15.848  14.892
14705W        W86288  42.844   5.700   4.608
14706W        W86289  42.123  34.000  14.266
14707W        W86290  37.557  17.442  12.189
14708W        W86291   9.176  36.813   4.201
14709W        W86292   8.583   4.201   4.190
14710W        W86293  23.220  21.237  13.460
14711W        W86294  41.075  20.278   1.413
14712W        W86295  38.055  11.762  11.481
14713W        W86296  25.203  13.424   1.794
14714W        W86297  39.760   9.815  14.573
14715W        W86298   6.357   9.238  14.940
14716W        W86299  13.317  15.323  13.940
14717W        W86300  23.833  15.165   2.328
14718W        W86301  39.555  39.068   0.992
14719W        W86302   8.771  28.645  11.870
14720W        W86303  41.786  30.144  13.425
14721W        W86304  40.110  18.055   4.217
14722W        W86305  13.979  37.851  10.135
14723W        W86306  24.763  14.813   1.729
14724W        W86307  24.009  33.761   1.314
14725W        W86308  34.625  42.499   4.498
14726W        W86309  30.551  40.917  11.741
14727W        W86310   5.918  32.746   2.376
14728W        W86311  22.741  41.542   5.105
14729W        W86312   5.412   6.415   0.111
14730W        W86313  43.554  39.800  14.543
14731W        W86314  34.883   5.524   3.735
14732W        W86315  44.498   9.903   5.042
14733W        W86316  27.051   1.749  10.579
14734W        W86317  26.741  44.825  14.381
14735W        W86318  34.472  35.062   3.661
14736W        W86319   1.751  20.323   0.438
14737W        W86320  34.888  28.146   1.802
14738W        W86321  38.905  34.973  11.836
14739W        W86322  41.632  17.595  12.992
14740W        W86323   4.021  32.116   4.586
14741W        W86324  21.295  43.338   3.680
14742W        W86325  30.846  23.233   4.243
14743W        W86326  22.018  26.354  14.317
14744W        W86327   8.690  40.482  11.910
14745W        W86328  13.183  11.257  13.009
14746W        W86329   3.978   0.153  14.183
14747W        W86330  28.616  32.502  11.656
14748W        W86331  12.813   1.860   4.692
14749W        W86332  17.753   4.393   2.808
14750W        W86333  31.337  15.369  11.610
14751W        W86334  40.956   9.890   2.600
14752W        W86335  27.437   8.428  13.431
14753W        W86336  38.427  18.872   3.289
14754W        W86337  20.930  10.596   2.124
14755W        W86338  14.407  37.540  10.103
14756W        W86339   8.451   1.331   3.796
14757W        W86340   4.199  33.664  14.009
14758W        W86341  14.602   4.195  14.378
14759W        W86342   7.770  30.092  13.611
14760W        W86343  25.348   8.623   1.850
14761W        W86344  16.640  44.539  14.523
14762W        W86345  27.161  16.740   4.099
14763W        W86346  25.615  12.069  10.747
14764W        W86347  18.147  32.332  14.883
14765W        W86348   9.284  44.724   4.700
14766W        W86349  12.036  26.497   1.109
14767W        W86350   7.312  25.941  11.438
14768W        W86351   8.563   3.708   2.787
14769W        W86352  29.612  11.130   3.717
14770W        W86353  26.073  43.718  13.658
14771W        W86354  26.525   6.777   4.316
14772W        W86355  29.082  32.402  14.232
14773W        W86356  41.354   3.492   3.613
14774W        W86357  26.999  34.237  10.063
14775W        W86358  18.244   2.504  11.619
14776W        W86359  11.825  20.561   0.369
14777W        W86360  38.853  17.767  14.380
14778W        W86361  18.477  28.716  14.953
14779W        W86362  14.448  41.030   0.923
14780W        W86363  41.409  19.154  11.191
14781W        W86364   6.186  14.395  14.725
14782W        W86365   4.843  36.786  12.621
14783W        W86366   0.507  20.114  11.242
14784W        W86367  31.443  13.073  12.107
14785W        W86368  20.084  37.778   1.318
14786W        W86369  34.565  30.114  14.747
14787W        W86370  25.305  23.624   1.368
14788W        W86371  16.405  44.926   2.639
14789W        W86372  33.360  32.945   3.968
14790W        W86373   0.852  36.026   0.583
14791W        W86374   0.953  12.537  12.917
14792W        W86375  23.987  37.545  13.995
14793W        W86376   3.315  28.521  11.730
14794W        W86377  28.998  34.389   3.110
14795W        W86378   1.925  41.922  14.406
14796W        W86379  39.811  13.136   1.306
14797W        W86380  31.636  41.476   0.213
14798W        W86381  20.726  24.881  11.615
14799W        W86382  30.725  17.121   0.723
14800W        W86383  39.758  33.320  14.584
14801W        W86384  27.467  15.021  13.837
14802W        W86385  28.979  42.968   1.886
14803W        W86386   4.784  16.581  12.276
14804W        W86387  39.773  37.638  12.848
14805W        W86388   5.702   3.926  13.248
14806W        W86389  15.525  13.064  10.522
14807W        W86390  17.949  15.739   1.065
14808W        W86391  15.542  24.853   0.019
14809W        W86392  23.144  20.728   2.118
14810W        W86393  17.862  17.605   3.584
14811W        W86394  39.794  43.854   3.340
14812W        W86395   8.491   8.344   0.435
14813W        W86396  37.880  16.577  10.583
14814W        W86397  13.654  23.895   4.022
14815W        W86398   8.184  43.050   1.961
14816W        W86399   1.475  13.779   2.264
14817W        W86400  41.744  19.634  12.496
14818W        W86401  34.560  35.037  13.848
14819W        W86402   7.292  31.976  14.851
14820W        W86403   5.866  15.989   0.011
14821W        W86404  43.540   5.840  10.848
14822W        W86405   5.375  21.749  14.768
14823W        W86406  36.583   5.699   3.559
14824W        W86407  10.692  44.746  10.841
14825W        W86408  22.311  21.712   0.375
14826W        W86409  11.201  18.525  14.854
14827W        W86410   0.065  28.844   3.405
14828W        W86411  18.930  44.530   0.885
14829W        W86412   3.795  41.451   3.279
14830W        W86413  31.911  18.789  13.896
14831W        W86414   4.865  10.577  13.300
14832W        W86415  14.774  42.337  14.007
14833W        W86416  29.187   5.917   2.442
14834W        W86417  19.760  38.440  11.082
14835W        W86418  43.463  23.256   0.733
14836W        W86419  27.820  14.114   3.121
14837W        W86420  10.644  36.809  13.002
14838W        W86421  33.343  35.783   0.370
14839W        W86422  39.784  10.261   1.827
14840W        W86423  36.537  23.812  12.890
14841W        W86424  12.220  10.906   3.356
14842W        W86425   5.959  16.679   3.297
14843W        W86426  33.217  17.100   1.773
14844W        W86427  32.679  27.326  11.581
14845W        W86428  19.913  15.726  11.044
14846W        W86429  13.884  42.843   1.913
14847W        W86430   4.991  41.972  11.566
14848W        W86431  29.944  29.922  12.294
14849W        W86432  16.748  26.170   9.431
14850W        W86433  31.547  42.330   2.390
14851W        W86434  12.928  22.504  12.558
14852W        W86435  27.602  41.058   2.487
14853W        W86436  39.453   9.254  12.088
14854W        W86437  25.698  38.055  11.620
14855W        W86438  12.677  33.983   4.580
14856W        W86439  29.384   1.779  14.286
14857W        W86440   2.181   0.916   2.839
14858W        W86441  33.568  44.291  14.411
14859W        W86442  34.180  28.531   2.163
14860W        W86443  12.671  10.106   3.164
14861W        W86444  16.246   3.459   4.012
14862W        W86445  14.584  22.611   0.816
14863W        W86446  16.808  23.535   3.382
14864W        W86447  40.936  19.437   2.909
14865W        W86448  33.660  35.351   3.607
14866W        W86449  28.396  17.212   0.645
14867W        W86450  31.409  12.523   4.512
14868W        W86451  18.439  15.775  14.505
14869W        W86452   1.893  30.936  14.775
14870W        W86453   5.902  36.527   2.943
14871W        W86454  35.882  12.508  14.791
14872W        W86455  28.417   4.668  13.509
14873W        W86456  12.705  34.690   2.075
14874W        W86457  22.581   2.500  14.741
14875W        W86458  28.127  30.197   4.501
14876W        W86459  12.573   1.420   0.836
14877W        W86460  16.106  16.209   3.313
14878W        W86461   4.800  35.277   1.137
14879W        W86462  24.679   4.445   4.801
14880W        W86463  34.092  26.535  10.457
14881W        W86464  37.464   4.688   4.056
14882W        W86465   8.322   7.201   3.198
14883W        W86466   1.758   4.300  12.900
14884W        W86467  41.999  21.345  10.223
14885W        W86468  32.578  21.870  11.564
14886W        W86469   0.809  29.369  12.905
14887W        W86470  30.268  32.406  14.843
14888W        W86471  34.005   5.444   3.604
14889W        W86472  23.684  23.465  10.848
14890W        W86473  36.132  13.533  12.090
14891W        W86474  38.477  16.661  13.103
14892W        W86475  42.841  37.926  10.836
14893W        W86476   7.959  15.668  11.766
14894W        W86477  15.148  21.999   3.327
14895W        W86478  31.014  25.956   4.279
14896W        W86479  11.906  36.512   2.041
14897W        W86480  14.116  37.741  12.178
14898W        W86481   2.322  32.107   0.021
14899W        W86482  41.022  10.294  11.876
14900W        W86483  15.820   3.244   4.276
14901W        W86484  39.117   3.414  11.918
14902W        W86485  39.074  33.632   5.112
14903W        W86486  17.499  32.108   3.056
14904W        W86487  36.523   0.888   3.290
14905W        W86488  15.806  32.943   2.258
14906W        W86489  21.751  29.306   4.832
14907W        W86490   6.883  40.552  12.525
14908W        W86491  20.737   8.086   0.517
14909W        W86492   9.076   3.739   4.541
14910W        W86493   1.567  15.804   4.134
14911W        W86494  39.798  37.412   3.366
14912W        W86495  36.538  43.793  12.595
14913W        W86496  40.572  44.990  12.982
14914W        W86497  30.515   6.360   0.149
14915W        W86498  12.385  41.737   3.717
14916W        W86499   7.324  26.737   2.393
14917W        W86500   4.311  36.438   0.738
14918W        W86501  12.786  36.048   4.570
14919W        W86502  40.467  30.718   0.423
14920W        W86503  36.346  43.747   3.681
14921W        W86504  19.094  44.021  11.732
14922W        W86505  30.528   5.198  13.601
14923W        W86506  17.983  16.499  14.865
14924W        W86507  24.677  33.210  11.987
14925W        W86508  15.716   4.963   1.331
14926W        W86509  26.493  26.258   0.891
14927W        W86510  31.022  39.816  11.604
14928W        W86511  29.564  41.370   1.429
14929W        W86512  35.265  10.766  11.354
14930W        W86513  12.959  21.928   2.207
14931W        W86514  26.596  14.654  10.522
14932W        W86515  11.596  37.872  14.058
14933W        W86516   1.485   9.910   0.237
14934W        W86517  23.294  41.521   0.474
14935W        W86518  28.540   9.708  13.365
14936W        W86519  32.697  29.177   1.287
14937W        W86520  23.661  42.050   1.318
14938W        W86521  19.737   8.820  11.100
14939W        W86522  36.325  21.609  13.573
14940W        W86523  14.228   6.002  14.709
14941W        W86524   0.522  14.694  13.447
14942W        W86525   5.579  39.813  12.334
14943W        W86526  42.547   5.160  14.207
14944W        W86527  36.079  20.503  12.051
14945W        W86528  42.726   5.729   2.728
14946W        W86529  30.995  37.848   2.266
14947W        W86530   1.985  21.260   4.668
14948W        W86531  34.352  36.655  13.853
14949W        W86532  26.019  16.734   1.453
14950W        W86533   2.619  20.796   0.389
14951W        W86534  36.121  26.278   3.385
14952W        W86535   8.309  43.399  14.464
14953W        W86536  26.982  41.814  13.340
14954W        W86537  25.459   6.659   2.732
14955W        W86538  21.158  26.957  12.404
14956W        W86539  32.565  13.370  14.331
14957W        W86540   8.749   8.679   3.724
14958W        W86541  23.507   2.008   0.386
14959W        W86542  41.061  14.316   3.648
14960W        W86543  21.721  11.757   2.355
14961W        W86544  21.742  38.103  14.804
14962W        W86545   8.881  21.126  12.290
14963W        W86546  30.866  11.872  13.559
14964W        W86547  13.201  22.079  10.560
14965W        W86548  32.152  18.182   3.749
14966W        W86549  23.538  38.947   0.341
14967W        W86550   9.949  29.638   4.128
14968W        W86551  20.569   3.297   0.239
14969W        W86552  12.286   8.055  14.747
14970W        W86553   5.674  41.545  11.072
14971W        W86554   3.919  31.695   1.638
14972W        W86555  19.740  43.852  13.460
14973W        W86556  23.261   5.867  11.574
14974W        W86557  19.820   8.935  10.197
14975W        W86558  10.684  10.662   4.721
14976W        W86559   7.110  24.925  14.429
14977W        W86560  41.064  11.158  11.075
14978W        W86561   4.950   5.659  14.910
14979W        W86562  39.133  16.438  14.790
14980W        W86563   6.835   2.913   0.901
14981W        W86564  40.839  29.378   4.534
14982W        W86565  30.647   8.662   4.998
14983W        W86566   4.625   5.409  11.719
14984W        W86567  31.619  41.374   4.566
14985W        W86568  27.541   9.299  14.066
14986W        W86569  33.237  24.527   4.627
14987W        W86570  25.417  21.169   4.845
14988W        W86571  11.182  14.290   0.251
14989W        W86572  27.410  31.564  11.230
14990W        W86573  10.594   9.038  12.267
14991W        W86574   5.401  18.130  10.661
14992W        W86575  26.750  22.525   1.160
14993W        W86576  38.508  44.939   1.891
14994W        W86577  29.567  15.999   2.797
14995W        W86578  36.430   5.845   4.391
14996W        W86579  38.235  33.961   1.485
14997W        W86580  43.468  17.699  13.832
14998W        W86581  26.278  39.009   1.866
14999W        W86582  18.677  32.088  13.009
15000W        W86583  23.451  26.612  14.629
15001W        W86584  36.963  41.634  12.389
15002W        W86585   7.366  15.993   0.919
15003W        W86586  10.781  22.042   3.262
15004W        W86587  35.857  36.384   2.666
15005W        W86588  28.210   4.774   4.109
15006W        W86589  25.663   7.844   2.313
15007W        W86590  22.573  16.192  14.890
15008W        W86591  42.105   3.648  10.382
15009W        W86592  43.441  15.733   4.492
15010W        W86593  10.326   6.096  12.039
15011W        W86594  32.117  29.823   4.109
15012W        W86595  26.084  20.949  10.535
15013W        W86596  41.989   7.423  12.556
15014W        W86597  29.933  17.475  13.998
15015W        W86598  37.521   6.542  12.513
15016W        W86599   6.314  22.022   1.234
15017W        W86600  27.278  13.760  14.318
15018W        W86601  20.693   9.591   2.373
15019W        W86602  27.099  43.730  10.606
15020W        W86603  32.801  26.051  14.298
15021W        W86604  10.291  30.685   2.786
15022W        W86605  40.865  17.641   2.853
15023W        W86606  32.494  26.151  11.667
15024W        W86607   8.329   0.740   0.994
15025W        W86608   7.747   6.971  12.858
15026W        W86609  14.585  41.647  12.118
15027W        W86610  42.217   6.262   0.412
15028W        W86611  44.257  39.470  11.030
15029W        W86612  24.176  20.166   1.808
15030W        W86613   1.314  20.999  11.384
15031W        W86614   5.192  19.669   0.234
15032W        W86615  25.005  24.195   3.702
15033W        W86616  21.039  21.976  10.918
15034W        W86617   0.944   0.984  12.972
15035W        W86618  40.563  35.370  14.109
15036W        W86619  14.651  14.607   1.897
15037W        W86620  18.591  19.278   2.362
15038W        W86621  25.765  13.177  12.706
15039W        W86622  16.522  29.354  14.497
15040W        W86623  20.575  23.009  14.750
15041W        W86624  33.594  29.929  13.849
15042W        W86625  35.514   2.529   3.739
15043W        W86626  21.040  29.445  13.487
15044W        W86627  18.293   3.413  14.433
15045W        W86628   2.935  34.801  11.980
15046W        W86629  35.982  30.604   2.208
15047W        W86630  18.223  20.704   0.560
15048W        W86631   5.705  35.070  14.249
15049W        W86632  34.561  42.177   0.288
15050W        W86633  29.553  13.186   2.631
15051W        W86634  19.283  16.217  14.403
15052W        W86635  35.002   3.296   3.642
15053W        W86636  22.804  30.501   0.855
15054W        W86637  16.215  37.250   0.225
15055W        W86638  25.790  12.576   0.987
15056W        W86639   0.502  12.830  10.828
15057W        W86640   3.506  21.935  13.516
15058W        W86641  35.468  37.147   3.321
15059W        W86642  23.083   5.760  12.495
15060W        W86643  17.683   3.451  11.914
15061W        W86644   2.255  29.453  11.056
15062W        W86645  37.601  27.410   2.725
15063W        W86646  10.324  42.324  14.718
15064W        W86647  42.895  14.598  13.886
15065W        W86648  43.383  41.322  14.982
15066W        W86649  22.002  18.792   4.520
15067W        W86650  13.246   6.199  11.125
15068W        W86651  18.576  17.558   1.886
15069W        W86652  26.243  24.248   2.866
15070W        W86653   6.169  14.825   4.637
15071W        W86654  43.916  39.600   4.170
15072W        W86655  23.728   4.676  13.329
15073W        W86656  39.110  28.246  11.605
15074W        W86657   2.658   6.756   3.178
15075W        W86658  29.555  32.494   2.703
15076W        W86659  21.650  27.211   0.944
15077W        W86660  24.096  20.602  12.900
15078W        W86661   1.203   1.974   3.360
15079W        W86662   5.326  34.012  13.502
15080W        W86663  33.002  17.563  11.501
15081W        W86664   8.808  20.721   4.579
15082W        W86665  10.810  11.608   3.166
15083W        W86666  10.032  11.109   2.072
15084W        W86667  14.254  13.803  13.996
15085W        W86668  41.419  41.562   3.803
15086W        W86669  13.685  23.234  12.125
15087W        W86670  41.328  20.531  12.042
15088W        W86671  22.266  18.773   1.303
15089W        W86672  18.801  20.970   3.017
15090W        W86673  15.580   3.539   1.510
15091W        W86674  10.110  13.295   0.284
15092W        W86675  33.481  21.153  11.071
15093W        W86676  41.821  27.630  12.568
15094W        W86677  20.524  24.989  12.909
15095W        W86678  33.787  10.347  14.873
15096W        W86679  23.709  21.027  13.437
15097W        W86680  17.596  11.696   1.588
15098W        W86681   5.353  32.845  10.398
15099W        W86682  28.139  32.524   5.127
15100W        W86683  10.608  34.877  12.926
15101W        W86684  22.038  18.621  11.890
15102W        W86685  16.160  15.192   3.452
15103W        W86686  23.652  32.848  11.044
15104W        W86687  21.225   9.230  11.731
15105W        W86688  15.056  15.943  11.590
15106W        W86689   3.433   8.828   0.033
15107W        W86690   1.371  16.700  13.378
15108W        W86691  32.859  29.530  11.732
15109W        W86692  17.821  31.265  12.097
15110W        W86693   5.298  10.129   4.667
15111W        W86694  29.561  28.219   0.852
15112W        W86695  24.543  43.415   1.509
15113W        W86696   6.681  42.604   3.991
15114W        W86697  16.413  11.614  12.047
15115W        W86698  33.433  28.188   4.140
15116W        W86699  11.838  26.512  11.544
15117W        W86700  14.201  23.184  12.626
15118W        W86701   6.987  16.575   0.318
15119W        W86702  21.713  42.054  14.916
15120W        W86703  23.225  14.645  14.359
15121W        W86704   7.880  27.828  10.744
15122W        W86705  25.509  32.547   0.341
15123W        W86706  13.739  39.773  12.570
15124W        W86707   8.201  12.303   2.400
15125W        W86708   1.510  17.151  10.802
15126W        W86709  28.788  31.887  11.988
15127W        W86710  15.321  33.964   2.179
15128W        W86711   7.470  17.051  13.533
15129W        W86712  15.693   8.129  14.758
15130W        W86713  38.111  19.783   1.885
15131W        W86714  15.794  29.984  12.934
15132W        W86715  24.012  19.544  11.614
15133W        W86716  35.177  20.771   2.810
15134W        W86717  20.663  42.455   4.193
15135W        W86718  27.459  13.327  11.101
15136W        W86719  12.563  33.924  13.038
15137W        W86720  29.889  38.498  12.871
15138W        W86721   4.378   5.599   0.757
15139W        W86722  12.344  10.843  12.816
15140W        W86723   2.114  10.797  13.494
15141W        W86724  22.659  21.513  13.490
15142W        W86725   4.892  27.473  12.033
15143W        W86726   6.853   2.450   2.955
15144W        W86727  32.060  33.376   1.359
15145W        W86728  24.655  22.611   0.296
15146W        W86729  24.289  31.035  14.417
15147W        W86730  28.456  30.299  14.934
15148W        W86731  33.352  23.227   2.175
15149W        W86732   6.049  44.622   3.930
15150W        W86733  40.104  11.003  14.983
15151W        W86734   3.276   6.672   1.598
15152W        W86735   8.826  16.608   3.382
15153W        W86736  10.767  25.507   1.844
15154W        W86737  14.791  20.606   4.390
15155W        W86738  14.725  20.613   2.345
15156W        W86739   9.708  19.243   0.494
15157W        W86740  25.154   1.084  13.071
15158W        W86741  39.245  18.655  13.519
15159W        W86742   8.774  12.202   2.153
15160W        W86743  17.119  23.785  13.424
15161W        W86744  41.553  21.724  13.920
15162W        W86745  41.021   1.820   3.676
15163W        W86746   9.430   7.169   2.194
15164W        W86747   3.826  12.132   3.704
15165W        W86748  42.817  44.800  10.659
15166W        W86749  26.212  38.082  11.532
15167W        W86750  14.677  35.925  13.315
15168W        W86751   8.010   5.072  12.464
15169W        W86752  21.690  33.935  12.506
15170W        W86753  26.023  36.394   1.763
15171W        W86754  35.903  17.199  10.750
15172W        W86755   3.019  20.727   3.674
15173W        W86756  32.186  10.822   3.346
15174W        W86757  41.431  43.599   2.169
15175W        W86758  41.957  29.590   0.917
15176W        W86759  20.476  35.594   1.320
15177W        W86760  14.114  17.135  10.835
15178W        W86761  37.296  32.888   3.177
15179W        W86762  10.387  43.089  13.949
15180W        W86763  36.229  41.478  10.330
15181W        W86764   5.135  12.125   0.773
15182W        W86765  31.124   6.681   3.642
15183W        W86766  36.795  26.931  12.995
15184W        W86767  25.700  30.699  11.018
15185W        W86768   2.128  29.719   3.943
15186W        W86769  33.456  24.303   0.202
15187W        W86770  15.139   4.259   1.988
15188W        W86771  10.226  36.101  11.976
15189W        W86772  37.034  27.587   4.346
15190W        W86773   7.853  41.377  14.775
15191W        W86774  10.052  30.380   4.151
15192W        W86775   4.044   9.748   0.293
15193W        W86776  36.885   4.763   1.919
15194W        W86777  18.499  25.266   3.115
15195W        W86778  41.152  43.266   3.343
15196W        W86779  40.549  11.596  11.290
15197W        W86780  19.940   6.905  12.333
15198W        W86781  12.115   1.665   1.182
15199W        W86782  42.854  19.741   1.400
15200W        W86783  19.708  11.922  13.353
15201W        W86784   1.792   6.185  14.157
15202W        W86785  44.077  38.334   2.237
15203W        W86786  24.944  40.149   1.761
15204W        W86787  41.068   7.555   0.899
15205W        W86788   4.633  19.709   5.153
15206W        W86789   1.420  12.577  12.646
15207W        W86790  18.493  26.025   9.849
15208W        W86791  26.108  41.345  12.081
15209W        W86792  30.894  16.716   2.669
15210W        W86793   0.654  44.308  14.337
15211W        W86794   2.899  18.883   3.096
15212W        W86795  25.169  13.664  10.315
15213W        W86796  10.889   9.775   3.061
15214W        W86797  13.623  26.140   1.748
15215W        W86798  28.829  27.425   0.231
15216W        W86799  31.611  37.102   0.940
15217W        W86800  39.920  16.005  14.743
15218W        W86801  33.006  31.365  14.049
15219W        W86802  12.373  11.343  12.673
15220W        W86803  40.329  44.942   3.812
15221W        W86804  17.289  23.150   2.802
15222W        W86805   2.311   6.527   1.505
15223W        W86806  43.879  16.065   3.737
15224W        W86807  21.052  25.035  12.886
15225W        W86808  22.598  21.011   0.829
15226W        W86809  36.525  34.686   2.385
15227W        W86810  41.075   2.763  11.413
15228W        W86811  24.215   4.822  14.990
15229W        W86812   1.183  11.773  11.187
15230W        W86813  32.382  44.837  13.544
15231W        W86814  31.543  32.837   1.937
15232W        W86815   3.450  29.875   0.717
15233W        W86816  44.879  34.674  13.875
15234W        W86817  23.165  14.747   1.821
15235W        W86818  42.802  41.314  14.239
15236W        W86819   3.801   9.301   0.163
15237W        W86820  44.865  22.967  14.587
15238W        W86821  44.767   4.130   1.710
15239W        W86822  29.134  44.936   1.906
15240W        W86823  33.208   2.238   4.248
15241W        W86824  15.748  13.016   2.864
15242W        W86825  31.777  35.363   3.682
15243W        W86826  42.336  39.431  10.643
15244W        W86827   4.876  23.747  14.395
15245W        W86828   5.692  10.170   2.877
15246W        W86829  29.869  31.389  14.021
15247W        W86830  42.836  18.434   4.473
15248W        W86831  33.074  14.271   3.640
15249W        W86832  14.168   6.908   1.840
15250W        W86833   3.308  22.195   0.827
15251W        W86834  20.357  35.081  11.314
15252W        W86835  30.526  23.517   1.116
15253W        W86836  36.855  14.622  12.068
15254W        W86837  44.953   7.702   3.589
15255W        W86838   5.401  12.415   2.176
15256W        W86839  33.542  40.817  10.652
15257W        W86840  39.826  27.750   3.811
15258W        W86841  37.706  39.107   0.822
15259W        W86842  17.863  27.215   4.264
15260W        W86843  42.782   5.694   4.076
15261W        W86844  24.450   0.080   0.267
15262W        W86845   8.690   6.722   4.542
15263W        W86846  21.928  43.506   4.173
15264W        W86847  11.467  12.520   3.743
15265W        W86848  34.984  10.690  10.460
15266W        W86849  32.376  18.273  11.084
15267W        W86850  21.533  35.190  14.497
15268W        W86851  33.446  44.404  13.922
15269W        W86852  31.272  42.919   1.756
15270W        W86853  31.372  19.056   3.401
15271W        W86854  37.190  44.030  13.331
15272W        W86855  25.468   1.130   1.401
15273W        W86856  11.353  10.526   2.002
15274W        W86857  11.052   8.997  12.477
15275W        W86858  39.365   3.801   1.736
15276W        W86859  42.812  35.102  11.609
15277W        W86860  41.311   1.675  14.614
15278W        W86861  44.556   6.258  14.827
15279W        W86862   6.920  44.303   2.885
15280W        W86863   7.493  40.024  12.011
15281W        W86864  34.112  24.937   0.341
15282W        W86865  18.290  24.569  14.285
15283W        W86866  19.490  42.348   1.913
15284W        W86867  40.886  14.793   0.267
15285W        W86868  31.992  23.269   0.095
15286W        W86869  14.298  29.736   0.492
15287W        W86870  32.202  10.406   0.872
15288W        W86871  16.049   5.169   0.477
15289W        W86872  16.033  26.110   2.712
15290W        W86873  31.436  39.994  11.880
15291W        W86874  28.614  19.524  13.846
15292W        W86875  25.759  32.005   0.551
15293W        W86876  28.038  24.675  14.773
15294W        W86877  23.821  43.460  13.411
15295W        W86878  38.731  19.581  14.330
15296W        W86879  32.362   1.939  11.642
15297W        W86880   8.026  44.726   0.357
15298W        W86881  19.565  31.071   3.825
15299W        W86882  43.514  10.683  12.928
15300W        W86883  20.508  13.624  12.426
15301W        W86884   9.739  39.300   2.252
15302W        W86885   4.077  20.565   2.367
15303W        W86886  26.216  29.785   4.502
15304W        W86887  32.925  21.128   1.916
15305W        W86888  31.964  12.248   1.790
15306W        W86889  22.661   7.592   3.820
15307W        W86890  10.269   7.443   0.690
15308W        W86891  19.192  17.825   4.089
15309W        W86892   1.475  16.020  12.563
15310W        W86893  34.794  31.363   1.044
15311W        W86894  42.415  17.857   1.873
15312W        W86895  14.067  19.151   1.805
15313W        W86896  24.697   1.779  13.363
15314W        W86897  44.604  31.020  11.067
15315W        W86898  16.190  37.639   4.313
15316W        W86899  41.942  24.060  11.172
15317W        W86900  44.511  21.688   3.497
15318W        W86901  20.663   4.485   4.279
15319W        W86902  41.979  33.215   4.185
15320W        W86903   4.911  11.064  14.500
15321W        W86904  10.387  19.499  13.955
15322W        W86905  33.068  19.404   0.240
15323W        W86906  17.857  17.097   1.393
15324W        W86907   8.172  11.307   3.727
15325W        W86908   4.849  27.611   3.025
15326W        W86909  15.177  39.018  14.828
15327W        W86910  21.805  34.055   0.895
15328W        W86911  32.677  40.486   3.827
15329W        W86912   3.211  19.232   0.759
15330W        W86913   9.275   2.781   4.093
15331W        W86914  14.875  11.686   3.347
15332W        W86915   5.391  24.133   3.676
15333W        W86916  16.627  32.091   4.876
15334W        W86917  20.590  40.511   1.677
15335W        W86918  33.434  43.975  12.947
15336W        W86919  34.277  40.746  11.906
15337W        W86920  33.200  15.974  13.506
15338W        W86921  31.365  11.361   1.822
15339W        W86922   3.338   7.911   1.374
15340W        W86923  41.347  13.212  13.769
15341W        W86924  43.800  38.105  14.598
15342W        W86925  31.229  24.999   3.210
15343W        W86926  20.499  26.277   0.856
15344W        W86927  35.138  16.326  13.407
15345W        W86928   8.863  15.052  13.868
15346W        W86929  34.081  22.624   3.548
15347W        W86930  35.247  14.506   3.545
15348W        W86931  15.661  31.886  11.541
15349W        W86932   0.833  20.958   4.110
15350W        W86933  17.728  26.563   0.897
15351W        W86934  22.107  20.479   4.104
15352W        W86935  27.693   6.303   4.651
15353W        W86936  37.368  34.906  10.655
15354W        W86937  43.301  12.811   4.111
15355W        W86938  22.165  22.877  11.184
15356W        W86939   3.532  18.576  12.590
15357W        W86940  11.582  27.013   3.198
15358W        W86941  12.375   0.947  13.544
15359W        W86942  13.649  36.817  13.654
15360W        W86943  19.174   0.495  11.459
15361W        W86944   2.751  40.274  14.812
15362W        W86945   7.850  40.879  10.969
15363W        W86946  32.014   6.773   0.080
15364W        W86947   7.405  33.475   3.768
15365W        W86948  17.097  14.290  13.366
15366W        W86949   7.686  22.282  12.041
15367W        W86950  36.223  23.180   0.974
15368W        W86951  20.114   6.225   4.900
15369W        W86952  26.696   6.927  14.830
15370W        W86953  32.876  33.083   3.811
15371W        W86954  35.264  31.104   4.200
15372W        W86955   3.268  44.148  10.597
15373W        W86956  30.970   8.232  12.120
15374W        W86957  33.875   0.904   2.478
15375W        W86958  42.369   7.096  14.558
15376W        W86959  22.688  36.898  11.987
15377W        W86960  41.432  10.684   2.449
15378W        W86961  44.396   3.225   1.076
15379W        W86962   9.368  23.529  11.003
15380W        W86963  23.999   9.236   0.218
15381W        W86964  21.033  10.386  14.474
15382W        W86965   7.086  11.790  14.822
15383W        W86966  36.589  17.825  13.574
15384W        W86967  44.268   1.729   4.004
15385W        W86968   8.877  14.410   1.224
15386W        W86969  20.380  40.748  12.863
15387W        W86970  13.111  37.568  13.531
15388W        W86971  10.200  40.299  12.571
15389W        W86972  12.448  37.911  12.028
15390W        W86973  28.871   0.493  13.922
15391W        W86974   8.882  24.079   2.792
15392W        W86975  16.213   2.583  12.306
15393W        W86976  22.164   5.291   1.696
15394W        W86977  30.579  33.614   3.486
15395W        W86978  38.095  44.393   2.908
15396W        W86979  21.147  18.012  14.273
15397W        W86980   1.379   3.636  14.933
15398W        W86981  10.857  34.510   1.669
15399W        W86982  17.528  27.096  13.834
15400W        W86983   3.995   2.152  13.811
15401W        W86984  31.411  23.922  13.371
15402W        W86985  24.218  16.827   1.260
15403W        W86986  14.615  44.955  10.674
15404W        W86987   3.002  33.004  14.913
15405W        W86988  31.620   7.157  11.306
15406W        W86989  22.716  41.274   4.226
15407W        W86990  31.704   2.749   2.807
15408W        W86991   2.811  36.740   5.086
15409W        W86992  29.960  12.281  14.749
15410W        W86993  14.574  13.256   3.699
15411W        W86994  36.352   8.301  12.168
15412W        W86995  26.524  35.755  11.621
15413W        W86996  34.029  10.487   0.774
15414W        W86997  32.923   4.741  14.987
15415W        W86998  31.318  26.645  13.784
15416W        W86999  23.168  44.394  14.413
15417W        W87000  41.282  17.228  12.927
15418W        W87001   8.657   8.398  13.251
15419W        W87002  26.124  25.170  13.406
15420W        W87003  40.489  35.833  13.846
15421W        W87004  37.461   1.839  12.573
15422W        W87005  29.360   0.978  14.467
15423W        W87006  20.256   4.267   4.518
15424W        W87007  23.768  19.688   3.308
15425W        W87008  35.968  29.515   2.200
15426W        W87009  22.763  10.967  12.051
15427W        W87010  38.364  35.467   1.740
15428W        W87011  34.361  41.125  12.850
15429W        W87012  20.971  28.387  12.107
15430W        W87013  35.115  33.358  12.005
15431W        W87014  20.804  34.394  13.447
15432W        W87015  26.104   5.888  14.496
15433W        W87016  24.477  13.424   1.007
15434W        W87017  26.936  30.172  11.555
15435W        W87018   3.345  11.205   3.802
15436W        W87019   7.925  42.343   2.707
15437W        W87020  36.050  43.822  12.818
15438W        W87021  15.689   5.760   4.321
15439W        W87022  15.081  18.162  10.961
15440W        W87023   9.108  32.568   2.187
15441W        W87024  23.401  30.585   0.306
15442W        W87025  31.023  14.954  11.147
15443W        W87026  38.038  25.085   0.897
15444W        W87027   1.456  43.842  11.482
15445W        W87028   5.277   4.830   4.284
15446W        W87029  29.676  10.799  11.953
15447W        W87030   1.404  27.980  14.308
15448W        W87031  11.723  28.775   3.128
15449W        W87032  43.322   4.819   3.634
15450W        W87033   9.442   9.190   3.705
15451W        W87034  38.969  15.091   0.264
15452W        W87035  39.973   7.395  13.575
15453W        W87036  21.111  12.790  12.428
15454W        W87037  26.001  12.347   2.739
15455W        W87038  44.712   2.266   0.307
15456W        W87039  43.808  35.456  13.872
15457W        W87040   9.281  26.555  14.192
15458W        W87041   5.042  10.406   0.776
15459W        W87042  25.223  26.127  11.561
15460W        W87043  24.492  11.185   1.385
15461W        W87044  22.678  14.814  13.294
15462W        W87045  20.801   0.168  14.499
15463W        W87046  34.676  10.430  12.470
15464W        W87047  40.520  35.919   3.365
15465W        W87048  41.499  26.100  14.095
15466W        W87049  17.279  30.120  10.639
15467W        W87050  41.081  16.746  13.034
15468W        W87051  41.011  43.851   1.990
15469W        W87052  30.946  27.568  10.686
15470W        W87053  18.061  15.556   2.072
15471W        W87054  22.333   5.198   4.638
15472W        W87055  26.430  11.186   0.977
15473W        W87056  43.552  21.161  14.217
15474W        W87057   2.512  17.691  11.988
15475W        W87058  43.799   0.754   0.201
15476W        W87059  21.987   6.830  13.999
15477W        W87060  22.842  13.813   2.291
15478W        W87061  36.826  33.655  12.476
15479W        W87062  35.906  17.632  14.402
15480W        W87063   8.660  10.721   2.244
15481W        W87064  12.347   2.455  11.174
15482W        W87065  41.661  22.207  13.053
15483W        W87066  17.705  23.841  10.299
15484W        W87067  32.852   1.907   0.750
15485W        W87068  43.793  21.470   4.647
15486W        W87069  11.618  18.021  11.483
15487W        W87070  26.226  41.835  12.002
15488W        W87071  25.506  37.696  11.293
15489W        W87072  35.859  25.697   5.010
15490W        W87073  38.810  28.213  12.381
15491W        W87074  15.230  31.391  11.991
15492W        W87075   1.290  37.109  14.233
15493W        W87076  37.286  30.056   4.725
15494W        W87077  23.921  13.302   0.731
15495W        W87078  26.098  22.944   4.228
15496W        W87079  33.787  43.291   4.113
15497W        W87080  15.844  27.470   2.626
15498W        W87081  21.179  44.480   5.145
15499W        W87082  41.417  44.983  13.493
15500W        W87083  21.221  25.038   3.145
15501W        W87084  39.218   3.418   4.660
15502W        W87085  27.159  20.930  13.198
15503W        W87086   7.313  43.245  14.884
15504W        W87087  19.122  42.850   4.960
15505W        W87088   9.710  34.598  13.942
15506W        W87089  39.834  10.815   1.778
15507W        W87090  21.244  44.831  10.626
15508W        W87091  44.374  44.037  14.339
15509W        W87092  11.709  33.634  11.108
15510W        W87093  43.903  41.053   2.761
15511W        W87094  31.880  12.737  14.566
15512W        W87095  23.473  23.350   2.644
15513W        W87096  31.816  19.275  10.008
15514W        W87097  11.878  26.508  11.033
15515W        W87098  18.138  26.783  10.505
15516W        W87099  42.733  33.563  12.146
15517W        W87100  31.913   5.912  10.915
15518W        W87101  12.063  32.989   3.644
15519W        W87102   4.846  11.861  12.916
15520W        W87103  44.298   2.170  10.600
15521W        W87104  33.882  22.698   4.021
15522W        W87105  30.850  25.220   0.374
15523W        W87106   7.023   2.216   3.783
15524W        W87107  28.116   7.754  14.879
15525W        W87108   1.639   6.879  11.660
15526W        W87109  15.096  41.946   2.844
15527W        W87110  26.930   0.790   3.720
15528W        W87111   0.214  31.827   4.321
15529W        W87112   0.921   1.526  12.106
15530W        W87113   3.155  23.317  12.768
15531W        W87114   4.155  22.439  11.185
15532W        W87115   7.636  42.253  12.021
15533W        W87116  26.863   3.523   0.336
15534W        W87117  14.733  13.716  13.789
15535W        W87118  13.328  20.567  12.954
15536W        W87119  39.869  36.618  13.889
15537W        W87120  21.802  27.956   5.775
15538W        W87121  26.425  27.505  10.134
15539W        W87122  41.232  23.470  11.154
15540W        W87123   0.221   8.928  10.793
15541W        W87124  19.067  39.504  14.751
15542W        W87125   3.475  44.292  14.995
15543W        W87126  30.094  22.810  11.956
15544W        W87127  26.971  12.655   3.269
15545W        W87128  29.112  13.601   1.003
15546W        W87129  23.722  38.512   2.131
15547W        W87130  25.456  35.288   2.273
15548W        W87131  20.060   8.510   0.292
15549W        W87132  38.111  17.478   0.349
15550W        W87133  19.031   4.107   1.811
15551W        W87134   2.697  33.569   4.633
15552W        W87135  44.736   4.206   0.376
15553W        W87136   3.912   1.534  13.778
15554W        W87137   0.011  21.647  10.504
15555W        W87138   2.064  34.583  14.013
15556W        W87139  11.303  31.544  11.633
15557W        W87140  15.190  43.599  12.803
15558W        W87141  22.521  30.638  11.034
15559W        W87142  44.793  19.316   2.165
15560W        W87143   1.292  37.788  14.782
15561W        W87144  12.749  21.631  12.644
15562W        W87145  26.261  32.629  11.300
15563W        W87146  18.114  39.573  11.579
15564W        W87147   8.724  11.089   2.895
15565W        W87148  24.113   6.083  11.064
15566W        W87149  12.135  23.233   3.081
15567W        W87150  23.119  32.540  12.600
15568W        W87151   1.383  28.882  14.496
15569W        W87152  44.116  11.338   2.746
15570W        W87153  16.323  36.578   1.953
15571W        W87154  38.732  30.442   2.276
15572W        W87155  36.927  36.465   2.470
15573W        W87156  28.945   9.695   2.169
15574W        W87157  21.354  24.894  12.462
15575W        W87158  23.058  31.927   4.337
15576W        W87159   8.679  16.781   4.379
15577W        W87160   7.905   9.156   0.286
15578W        W87161  14.302  38.975   3.756
15579W        W87162   5.339  20.457  12.284
15580W        W87163  25.958  14.571  12.543
15581W        W87164  25.721  42.508  12.429
15582W        W87165   2.873   7.222   1.812
15583W        W87166   8.139  29.530  13.953
15584W        W87167  30.095  24.136   3.214
15585W        W87168  15.218  34.881   4.069
15586W        W87169  23.264  27.472   4.688
15587W        W87170  41.465  14.827   2.831
15588W        W87171   2.720   9.405   4.250
15589W        W87172  42.556  37.895   1.206
15590W        W87173  27.486  16.128  10.997
15591W        W87174  21.787  44.787  14.580
15592W        W87175  22.736  15.903  14.467
15593W        W87176   7.940  37.131  10.579
15594W        W87177  17.251  44.905   1.363
15595W        W87178  20.587  37.460  12.541
15596W        W87179  17.180  14.174  14.383
15597W        W87180  16.914  14.605   3.422
15598W        W87181  30.960  33.496   2.223
15599W        W87182   9.862  13.446   1.959
15600W        W87183   2.503  37.451  14.537
15601W        W87184  36.443  22.507  10.955
15602W        W87185  43.122  39.961  14.778
15603W        W87186  13.215  36.995  13.910
15604W        W87187  22.174  39.679  14.959
15605W        W87188  34.386  37.773  12.027
15606W        W87189  20.433  21.610   1.457
15607W        W87190  12.759  22.290   0.929
15608W        W87191  16.739  22.963   5.423
15609W        W87192   8.418   6.904   1.450
15610W        W87193  24.895  18.765   3.359
15611W        W87194   2.251  41.325   1.807
15612W        W87195  11.819  16.344  12.976
15613W        W87196  26.177  39.766   3.581
15614W        W87197   1.029   4.251   2.463
15615W        W87198  29.480  15.520   1.949
15616W        W87199  33.371   3.314  12.269
15617W        W87200  39.529  44.438   2.423
15618W        W87201  38.602  25.647   4.614
15619W        W87202  29.055   1.986   4.512
15620W        W87203  15.345  14.257   4.669
15621W        W87204  32.917  43.221  11.956
15622W        W87205  10.793   9.501  12.466
15623W        W87206  26.355   5.576  11.496
15624W        W87207   0.719  14.063  13.024
15625W        W87208  10.026  40.492  11.802
15626W        W87209   2.822  27.959   2.981
15627W        W87210  14.598  42.817  13.819
15628W        W87211  15.096   0.245  13.412
15629W        W87212   9.239   4.827   0.279
15630W        W87213  30.431  35.429  14.234
15631W        W87214   4.649  38.949  10.346
15632W        W87215   5.657  37.395  13.291
15633W        W87216  44.996  13.193  13.506
15634W        W87217  32.559  35.841   2.669
15635W        W87218  42.451  12.718   4.554
15636W        W87219  26.673  31.012  13.538
15637W        W87220  13.076  28.119   5.104
15638W        W87221  38.623  35.398  11.754
15639W        W87222  11.766   0.325  12.941
15640W        W87223  11.100  28.619  11.592
15641W        W87224  20.330  28.013   1.781
15642W        W87225  36.718  29.900  12.124
15643W        W87226  36.759  16.242   1.764
15644W        W87227  11.777  31.538   4.789
15645W        W87228  22.345   3.224   1.273
15646W        W87229   3.922  38.605   3.576
15647W        W87230  15.815  30.383  13.905
15648W        W87231   4.864  29.458   1.925
15649W        W87232  41.858  11.345  14.436
15650W        W87233  29.922  12.877  13.927
15651W        W87234  26.561  10.767  12.023
15652W        W87235  39.375  14.272   3.208
15653W        W87236   3.889  24.433  10.694
15654W        W87237  40.890  34.045  14.912
15655W        W87238   4.082  18.741  14.540
15656W        W87239  37.056  19.881   4.224
15657W        W87240  44.633   1.732  13.353
15658W        W87241  29.698   4.798  12.645
15659W        W87242  21.216   7.742   2.141
15660W        W87243  34.625  40.828   2.189
15661W        W87244  25.680  10.955   2.737
15662W        W87245  40.397  23.612  13.003
15663W        W87246  16.104  19.191   3.066
15664W        W87247  38.692  25.930  13.254
15665W        W87248  27.563  32.416  12.848
15666W        W87249   4.291   2.516   2.872
15667W        W87250  10.495  35.991  14.040
15668W        W87251  30.554  22.065   3.644
15669W        W87252  19.820   3.198   0.554
15670W        W87253  36.332  33.978   3.836
15671W        W87254  11.860  23.738  14.049
15672W        W87255   2.716  23.943  11.367
15673W        W87256  26.651  14.255  12.637
15674W        W87257   0.225  32.087   5.055
15675W        W87258  44.405  43.230   4.161
15676W        W87259   8.667  25.729   2.462
15677W        W87260  10.850  11.250   1.939
15678W        W87261  38.425  20.712  12.312
15679W        W87262   2.813  18.539  10.665
15680W        W87263  34.683  43.515  11.465
15681W        W87264  17.402  17.156  12.560
15682W        W87265  44.375  20.037   3.274
15683W        W87266  11.525  37.989   3.713
15684W        W87267  32.539  13.781   2.373
15685W        W87268  36.226  15.898  10.303
15686W        W87269  33.642   4.711   1.148
15687W        W87270  18.054  21.020  12.910
15688W        W87271  28.095  29.073   3.680
15689W        W87272  41.725   9.299  12.337
15690W        W87273  31.838  27.228   5.042
15691W        W87274  37.433  39.547   2.223
15692W        W87275  37.829  27.566   0.316
15693W        W87276  17.835  18.794   0.383
15694W        W87277  15.372   5.237   2.936
15695W        W87278  37.294  36.888   0.884
15696W        W87279  17.202   7.200   0.731
15697W        W87280  33.941  27.722  11.973
15698W        W87281  41.422  14.277  13.247
15699W        W87282   3.815   3.801  11.638
15700W        W87283  40.486  16.522   1.899
15701W        W87284  30.537  33.905   1.993
15702W        W87285  30.405   3.353   4.757
15703W        W87286  17.045  40.404   3.291
15704W        W87287  31.886  13.899  13.663
15705W        W87288  33.691  33.155  13.390
15706W        W87289  19.799  30.168  11.577
15707W        W87290  14.159  13.327  14.907
15708W        W87291  44.544  10.096  12.894
15709W        W87292  14.716   8.804  10.133
15710W        W87293  13.250  35.794  14.509
15711W        W87294  28.221  30.639  13.939
15712W        W87295  20.750  15.231   0.936
15713W        W87296  11.169  15.157   0.691
15714W        W87297  43.041   3.301   2.298
15715W        W87298  31.195   2.241  11.254
15716W        W87299   1.776  37.498  12.364
15717W        W87300  27.905  27.927   4.242
15718W        W87301   1.298  43.349  11.486
15719W        W87302  14.291  42.211  13.781
15720W        W87303  39.937  12.578  12.590
15721W        W87304  18.129  15.124  13.868
15722W        W87305  22.940  29.600  13.405
15723W        W87306  41.213  25.942   0.010
15724W        W87307  10.683  42.914  11.489
15725W        W87308   1.712  16.663   0.563
15726W        W87309  20.492  24.583   0.625
15727W        W87310  40.443  19.760  14.503
15728W        W87311  13.996  26.603  11.658
15729W        W87312  39.980   8.162  14.027
15730W        W87313   3.879   0.848  11.630
15731W        W87314  21.120  32.599  14.132
15732W        W87315   9.645  29.058   2.203
15733W        W87316  38.466  10.859   3.841
15734W        W87317  23.787  22.786   4.456
15735W        W87318  28.494  11.664   2.321
15736W        W87319  41.252  15.402  11.197
15737W        W87320   7.112   0.612  12.944
15738W        W87321  24.200  33.415  14.572
15739W        W87322  30.115  32.210  12.394
15740W        W87323   2.987   9.121  12.018
15741W        W87324  13.953   7.820  12.443
15742W        W87325  34.400  43.431  12.909
15743W        W87326   7.127  11.053   0.391
15744W        W87327   1.461  32.212  11.552
15745W        W87328   2.892  16.364  13.369
15746W        W87329  19.582  18.375  14.764
15747W        W87330   5.589  21.289   4.516
15748W        W87331  11.413  13.174   0.803
15749W        W87332  28.269   6.431  13.368
15750W        W87333  16.251  15.356  14.833
15751W        W87334  17.296  24.081   4.528
15752W        W87335  23.571  38.437  10.671
15753W        W87336  23.587  32.801  14.900
15754W        W87337  12.716  19.655  11.882
15755W        W87338  15.923  28.495   1.716
15756W        W87339   3.029  28.146  12.492
15757W        W87340  25.399  35.190  12.518
15758W        W87341   6.907  33.014   0.768
15759W        W87342  42.417  11.900  13.429
15760W        W87343  26.268  26.579   0.535
15761W        W87344  26.828  12.600  13.468
15762W        W87345  22.080   5.093  14.864
15763W        W87346   1.382  44.733   0.868
15764W        W87347  43.040  21.494  12.037
15765W        W87348   1.259  36.537   4.926
15766W        W87349  33.791  27.710   2.096
15767W        W87350  44.791  26.066  12.350
15768W        W87351   3.817  19.696  14.513
15769W        W87352  37.109  39.372  11.132
15770W        W87353   8.387  11.354   0.341
15771W        W87354  23.494  39.648   4.157
15772W        W87355  42.569  19.189  12.573
15773W        W87356  43.310  34.333   1.808
15774W        W87357  28.500   9.528  11.137
15775W        W87358  32.561  22.499  14.873
15776W        W87359  26.538  28.522   1.487
15777W        W87360  31.466  38.954  13.770
15778W        W87361  16.585  33.068  12.123
15779W        W87362  40.228  33.168   4.960
15780W        W87363   6.295  19.195  14.822
15781W        W87364   3.336  16.179  13.132
15782W        W87365  24.688   4.367   3.821
15783W        W87366  29.412  29.995   3.309
15784W        W87367  26.562  28.678   4.072
15785W        W87368  34.415   5.175   0.054
15786W        W87369  15.142  23.925  13.829
15787W        W87370  17.278   2.407  11.296
15788W        W87371  20.608  10.565  10.704
15789W        W87372  37.662  43.514  12.455
15790W        W87373  42.699  42.416   3.882
15791W        W87374  27.011  32.908   1.389
15792W        W87375  28.924  36.550   1.429
15793W        W87376  38.528  22.605   4.122
15794W        W87377  21.342   9.742  13.889
15795W        W87378  43.754  10.753   2.850
15796W        W87379   8.201  12.770  13.093
15797W        W87380   6.677  36.264   2.231
15798W        W87381   8.853   1.594  14.982
15799W        W87382  12.668  17.286   0.499
15800W        W87383  11.105  24.290  11.536
15801W        W87384  40.244  10.360   0.718
15802W        W87385  27.256   0.301   3.734
15803W        W87386   2.032  16.644   2.284
15804W        W87387  11.136  30.954   4.704
15805W        W87388  28.520   1.330   2.905
15806W        W87389  26.682  42.711  12.145
15807W        W87390  31.407   5.734   4.948
15808W        W87391  31.464   2.400  10.834
15809W        W87392  18.624  32.840   0.992
15810W        W87393  32.888  17.644   1.771
15811W        W87394   2.268   1.987  12.020
15812W        W87395   8.172  38.657   0.969
15813W        W87396  14.043  15.773  13.938
15814W        W87397  13.912  25.534   3.203
15815W        W87398  21.164  37.480   0.653
15816W        W87399  13.712  43.975   2.761
15817W        W87400  24.537  15.825  11.059
15818W        W87401  42.630  29.470   0.480
15819W        W87402   2.466  27.249   4.079
15820W        W87403   9.186  23.126   3.993
15821W        W87404  19.349   4.818  13.894
15822W        W87405  26.471  25.545  12.540
15823W        W87406  23.407  16.698  12.653
15824W        W87407  15.632  24.019  13.948
15825W        W87408  37.492   6.461  13.469
15826W        W87409  20.995  41.734  14.216
15827W        W87410   0.885   7.620   5.076
15828W        W87411  24.289  39.783  12.937
15829W        W87412   5.344  37.848  13.373
15830W        W87413  26.978   0.009   4.048
15831W        W87414  38.979   5.616   5.399
15832W        W87415  11.319  13.073  14.901
15833W        W87416  17.969  20.169  13.783
15834W        W87417  14.350  20.875   4.355
15835W        W87418  41.828  21.271  14.879
15836W        W87419  28.034  12.886  13.056
15837W        W87420  17.693  28.999   4.560
15838W        W87421  43.330  18.092   4.221
15839W        W87422  12.230   0.894  14.543
15840W        W87423  21.776  39.068  12.455
15841W        W87424  26.605  23.276   0.434
15842W        W87425   4.436   0.262   1.184
15843W        W87426  14.732  20.801  11.379
15844W        W87427  10.227   0.788  14.398
15845W        W87428   5.049  36.743   3.245
15846W        W87429  28.935  18.250   1.447
15847W        W87430  44.980  32.577   5.016
15848W        W87431  14.679  29.658   2.837
15849W        W87432  18.679  30.674  13.944
15850W        W87433  26.573  37.923   2.800
15851W        W87434  39.034  35.630  14.813
15852W        W87435  40.121  28.209   2.331
15853W        W87436  35.994  21.919   0.407
15854W        W87437   6.654  15.163  14.423
15855W        W87438  38.864  40.174   2.776
15856W        W87439  24.337  15.872   3.553
15857W        W87440  25.228  40.784   0.156
15858W        W87441  13.712  17.089  12.471
15859W        W87442  38.668  24.167  13.106
15860W        W87443  25.789  14.757   4.808
15861W        W87444  30.129  35.489  10.729
15862W        W87445   3.163  14.608  12.886
15863W        W87446  13.923  44.320  10.687
15864W        W87447  30.973  26.394   2.401
15865W        W87448  26.746   7.679  10.629
15866W        W87449   3.749  30.497  11.004
15867W        W87450   6.405  22.797   3.753
15868W        W87451  29.360   5.774   4.656
15869W        W87452  10.152  21.045   1.733
15870W        W87453   4.140  39.331  12.045
15871W        W87454  40.939  29.328   4.035
15872W        W87455  22.529  41.461   1.820
15873W        W87456  23.508  24.986   4.619
15874W        W87457  12.635  11.670   0.330
15875W        W87458  15.097  25.897  14.129
15876W        W87459  34.581  22.502   0.251
15877W        W87460  28.134   9.165   0.793
15878W        W87461  20.063  21.580  14.724
15879W        W87462  19.153  38.860   2.638
15880W        W87463   9.912  21.641   0.509
15881W        W87464  41.587  41.001  11.155
15882W        W87465  14.237   8.334  12.487
15883W        W87466   6.379   9.465  13.924
15884W        W87467  17.100   4.039   4.191
15885W        W87468  44.768  41.536   1.937
15886W        W87469  16.713  42.862   1.807
15887W        W87470  21.230  20.240  11.422
15888W        W87471  12.877  32.340   0.564
15889W        W87472  32.050  20.088   3.716
15890W        W87473  42.708  30.401   0.402
15891W        W87474  10.672  22.799   1.711
15892W        W87475   2.578  18.081  14.043
15893W        W87476  21.813  39.015   3.143
15894W        W87477   9.459  37.008   4.603
15895W        W87478  12.260   3.132  12.869
15896W        W87479  24.143  18.322   4.124
15897W        W87480  24.521  33.967  13.833
15898W        W87481   4.309  20.790  12.161
15899W        W87482  20.757  26.962  12.013
15900W        W87483  39.710  38.888  13.808
15901W        W87484  30.454  42.533   4.353
15902W        W87485   5.698   2.249   1.568
15903W        W87486   9.084  23.687  12.814
15904W        W87487  15.589  15.886  11.714
15905W        W87488   4.066  42.014   3.246
15906W        W87489  27.090  19.502   0.989
15907W        W87490   4.921   4.870  10.553
15908W        W87491  43.982  13.821   0.323
15909W        W87492  32.081  16.710  13.985
15910W        W87493  19.791  40.162  11.867
15911W        W87494  21.003  29.769  13.891
15912W        W87495  19.717  29.056  11.450
15913W        W87496  44.506  10.391  10.045
15914W        W87497   2.004   5.089   4.835
15915W        W87498  25.839   7.773   0.849
15916W        W87499   5.347  23.072   0.281
15917W        W87500  15.739  37.301  14.951
15918W        W87501  39.977  16.552   3.209
15919W        W87502  30.541  19.962   9.853
15920W        W87503  42.020   6.986   0.944
15921W        W87504   7.871  41.488  12.512
15922W        W87505  42.809   1.259   0.949
15923W        W87506   6.325  29.116  11.334
15924W        W87507  29.559  32.096  14.346
15925W        W87508   2.887  12.901   1.878
15926W        W87509   6.370  22.280  11.638
15927W        W87510  24.017   4.218  13.371
15928W        W87511  15.928  30.841  12.518
15929W        W87512   6.407  38.776  11.147
15930W        W87513  37.295  25.010  13.794
15931W        W87514  19.578   2.867  11.412
15932W        W87515   3.434  43.361  12.077
15933W        W87516  13.204  41.072  12.016
15934W        W87517  41.096  16.076   4.516
15935W        W87518  29.867   1.877  11.063
15936W        W87519  26.153  24.713   1.984
15937W        W87520  12.174  44.299   4.537
15938W        W87521  15.045  32.047   0.397
15939W        W87522   3.518  22.680   2.350
15940W        W87523   2.638  44.353   2.554
15941W        W87524  32.641   1.448  12.452
15942W        W87525   2.017  38.549  12.419
15943W        W87526  23.789   2.874  14.676
15944W        W87527  27.349  28.597  11.530
15945W        W87528  24.229  22.864   5.156
15946W        W87529  43.507  18.737   1.415
15947W        W87530  32.985  43.516  12.372
15948W        W87531  32.311  26.622   4.616
15949W        W87532   7.568  36.333  14.280
15950W        W87533  12.679  13.064  10.764
15951W        W87534   2.725   0.158  11.548
15952W        W87535  21.948   3.935   0.488
15953W        W87536  28.033  10.789   3.281
15954W        W87537  15.144  16.459  11.606
15955W        W87538  21.177  43.764   3.408
15956W        W87539   5.671  10.704  10.997
15957W        W87540  26.491  32.986  11.573
15958W        W87541  18.568  14.242  13.679
15959W        W87542  41.819   1.707  14.413
15960W        W87543  22.942  39.106   1.227
15961W        W87544   7.237  25.640  14.767
15962W        W87545   0.498   4.667   1.071
15963W        W87546  29.220  11.233  10.788
15964W        W87547  10.743  23.507   0.532
15965W        W87548  44.723  41.308   3.666
15966W        W87549  24.621  27.313   1.902
15967W        W87550  24.612   4.197  12.155
15968W        W87551   5.400  11.725   0.997
15969W        W87552   3.989  12.749  13.732
15970W        W87553  39.329   9.475  11.096
15971W        W87554  35.585  32.601   2.320
15972W        W87555  21.287   6.756   0.720
15973W        W87556  19.269  30.396   3.758
15974W        W87557   6.966  17.455  11.218
15975W        W87558   2.404   8.141  12.023
15976W        W87559  23.653  17.747  13.386
15977W        W87560  32.201   8.279   2.705
15978W        W87561   2.352   1.170   2.411
15979W        W87562  40.611  44.070   4.798
15980W        W87563   3.369  42.890  14.759
15981W        W87564  26.190  16.933   0.218
15982W        W87565  12.207   5.232  14.566
15983W        W87566  18.184  12.631   1.276
15984W        W87567  44.479   7.566  14.286
15985W        W87568  41.439  30.574   3.666
15986W        W87569  27.909  41.053  13.957
15987W        W87570   8.296   3.426   5.088
15988W        W87571  16.817  34.447   3.601
15989W        W87572  18.134  11.877   2.727
15990W        W87573  41.362  28.224  13.529
15991W        W87574  31.501   7.028   1.816
15992W        W87575  34.428  40.257   3.764
15993W        W87576  36.926  23.033  13.403
15994W        W87577  32.198   0.917   3.699
15995W        W87578  35.348  42.508   2.253
15996W        W87579   0.264   4.358  12.901
15997W        W87580  43.377  14.775   4.915
15998W        W87581  40.787  41.512  10.730
15999W        W87582  11.170  39.207   3.436
16000W        W87583  29.459  28.357  10.062
16001W        W87584  21.265   6.903   1.880
16002W        W87585  36.607  35.535   3.607
16003W        W87586  31.951  14.418   0.257
16004W        W87587   9.329  13.178   2.841
16005W        W87588  12.211  27.560   2.614
16006W        W87589  14.775   6.637   0.191
16007W        W87590  17.105  33.446   1.459
16008W        W87591  19.495  26.704   0.064
16009W        W87592   9.313  23.962   4.891
16010W        W87593   3.520  19.748   2.598
16011W        W87594  28.893  33.196  12.211
16012W        W87595  11.862   6.936   4.337
16013W        W87596  19.180  11.075  12.101
16014W        W87597   7.922  23.121  10.426
16015W        W87598   2.814   5.776   3.473
16016W        W87599  16.078  38.580  10.545
16017W        W87600   2.699  41.029   2.582
16018W        W87601   9.729  14.261   4.408
16019W        W87602  32.514   0.235   1.286
16020W        W87603   6.029   1.071   1.022
16021W        W87604  33.905  38.685  12.923
16022W        W87605  20.811  20.137  13.704
16023W        W87606  38.378  29.562  10.615
16024W        W87607  19.867  17.426  14.366
16025W        W87608  29.386  30.052   2.331
16026W        W87609  24.417   9.836   4.893
16027W        W87610  19.223  13.879  14.432
16028W        W87611  22.934  44.731  13.323
16029W        W87612  12.828  24.498  13.585
16030W        W87613   7.672  42.922   3.276
16031W        W87614  20.497  37.430   2.291
16032W        W87615  30.124   5.965   3.293
16033W        W87616  12.233  33.629  12.297
16034W        W87617  13.808  30.202   2.877
16035W        W87618  36.460   8.828  14.526
16036W        W87619  35.777  32.557   2.833
16037W        W87620  43.585  38.739   2.846
16038W        W87621  13.740  13.659   1.712
16039W        W87622  27.155  40.537   1.325
16040W        W87623   8.874  39.346   2.826
16041W        W87624   0.016  22.127  12.047
16042W        W87625  40.792   5.733   5.042
16043W        W87626   2.678  40.592   2.869
16044W        W87627  32.123   8.351  13.819
16045W        W87628  14.287  31.738   0.796
16046W        W87629  32.952  29.264   1.749
16047W        W87630   5.859   6.060   4.977
16048W        W87631  33.518  23.244   2.659
16049W        W87632  40.562   3.022   4.387
16050W        W87633  15.502  10.490  14.426
16051W        W87634  26.517  15.513   4.604
16052W        W87635  38.913  30.981  13.995
16053W        W87636  34.393  13.386  13.475
16054W        W87637  44.703  29.913   4.961
16055W        W87638  39.439   9.767   3.330
16056W        W87639  18.826  25.915   4.925
16057W        W87640  22.941  22.859   4.117
16058W        W87641  10.831  43.212  14.291
16059W        W87642  18.219  17.585   2.277
16060W        W87643  19.057  34.742  14.898
16061W        W87644  42.573  13.550   2.377
16062W        W87645   2.140  31.084  13.320
16063W        W87646  43.843   8.972   4.114
16064W        W87647  40.751  27.685   1.234
16065W        W87648   6.685   3.475   4.600
16066W        W87649  14.569  32.611   0.802
16067W        W87650   9.525  15.572   0.280
16068W        W87651  11.555  44.828   4.049
16069W        W87652  25.053   3.670  14.906
16070W        W87653  44.866  15.859   1.220
16071W        W87654   6.795  17.702   3.368
16072W        W87655   4.077  18.872   0.523
16073W        W87656  27.064  15.050   2.594
16074W        W87657  19.635   4.203   3.705
16075W        W87658  11.200  13.167   3.795
16076W        W87659   4.407  38.516  10.131
16077W        W87660  19.171  23.545   0.235
16078W        W87661  28.444  19.575  12.065
16079W        W87662  14.239   0.734   4.528
16080W        W87663  39.821  41.572  12.890
16081W        W87664  42.477  33.401  11.743
16082W        W87665  37.920  43.446   1.655
16083W        W87666   5.794  14.538  12.618
16084W        W87667  35.141  32.519  11.274
16085W        W87668  33.549  36.359  13.368
16086W        W87669  16.082   2.694  10.870
16087W        W87670  41.039  36.146  12.100
16088W        W87671   4.868   0.173   2.659
16089W        W87672  27.036  18.623  13.591
16090W        W87673  18.106  15.048   1.850
16091W        W87674  18.331  12.645  10.704
16092W        W87675  22.996  30.615   3.775
16093W        W87676  34.717  21.065   0.155
16094W        W87677  35.120  40.753   2.338
16095W        W87678  37.766  11.014  11.561
16096W        W87679  26.780  36.792   0.345
16097W        W87680  18.050  12.602  14.925
16098W        W87681  19.051  19.854   0.854
16099W        W87682  30.940  22.991  10.334
16100W        W87683   3.669   3.118   3.270
16101W        W87684  12.108  32.179  10.384
16102W        W87685  18.044  31.850   0.044
16103W        W87686   8.339   7.869   4.136
16104W        W87687  20.409  43.246   3.359
16105W        W87688  16.786  38.409   4.575
16106W        W87689   6.303   0.435  14.815
16107W        W87690  11.715  14.342  13.268
16108W        W87691  33.417  31.430   4.188
16109W        W87692  27.885   2.494  11.679
16110W        W87693  31.976   6.930   3.357
16111W        W87694  15.510  24.450   1.248
16112W        W87695  26.281  41.354   4.108
16113W        W87696  33.146   7.124   1.382
16114W        W87697  11.596  11.195   1.266
16115W        W87698  34.557  17.735  13.461
16116W        W87699  22.008  44.358   4.332
16117W        W87700  24.618  42.894   0.188
16118W        W87701   2.830  36.192   0.230
16119W        W87702  34.033   5.128   1.742
16120W        W87703  43.745  39.335  10.916
16121W        W87704   9.201  36.538   4.625
16122W        W87705  11.729  41.970   2.761
16123W        W87706  27.590  36.257   1.254
16124W        W87707   1.544   5.518  12.073
16125W        W87708   5.406  26.500   0.778
16126W        W87709  33.354  35.093  10.316
16127W        W87710  14.790  19.539   0.912
16128W        W87711  40.590   5.456   4.564
16129W        W87712  24.104   7.839  12.807
16130W        W87713  28.135   8.251   1.611
16131W        W87714  36.399  39.769  14.491
16132W        W87715  24.926  34.391   0.497
16133W        W87716  11.010   9.245  10.498
16134W        W87717   9.956  33.116   4.705
16135W        W87718  33.649   7.701   0.922
16136W        W87719  20.410   6.886  12.546
16137W        W87720   2.720  42.262  12.481
16138W        W87721  40.319   6.304   0.506
16139W        W87722  32.914  13.821   0.732
16140W        W87723   6.109  13.110   2.717
16141W        W87724  23.675  26.000  11.601
16142W        W87725  15.102  19.644  11.523
16143W        W87726  19.462  18.027   1.788
16144W        W87727  28.925   3.186   1.751
16145W        W87728   5.397   6.275  12.729
16146W        W87729  38.139  12.065   4.325
16147W        W87730  29.576  22.037  10.702
16148W        W87731  39.714  16.340  11.936
16149W        W87732  30.193  12.740  14.895
16150W        W87733  21.708  12.098  13.082
16151W        W87734  21.605  13.145  11.063
16152W        W87735   1.036   4.847   4.705
16153W        W87736  44.807  42.387   1.769
16154W        W87737  15.743  42.803   1.737
16155W        W87738   6.224  42.786  11.121
16156W        W87739  30.170  20.683  11.381
16157W        W87740  10.583  18.872  11.199
16158W        W87741   7.242  19.785   1.369
16159W        W87742  44.630  26.483   0.413
16160W        W87743   1.202  28.332  12.593
16161W        W87744   1.522   3.717  13.446
16162W        W87745   8.279  18.672   3.583
16163W        W87746   6.881  38.109   2.788
16164W        W87747  25.938   8.700  14.344
16165W        W87748   1.771  44.787   3.649
16166W        W87749  35.455  21.071  11.623
16167W        W87750  29.134  21.479   0.399
16168W        W87751  16.494   3.417  14.925
16169W        W87752  17.846  33.922   1.083
16170W        W87753  40.462   1.207   3.698
16171W        W87754  28.096  29.076  13.120
16172W        W87755   2.258  17.855  14.947
16173W        W87756  24.067  42.958   1.896
16174W        W87757  10.186  25.680   4.140
16175W        W87758   5.000  18.273   4.839
16176W        W87759  44.490  19.459   1.518
16177W        W87760  28.072   2.171   1.110
16178W        W87761   6.949   5.294  14.284
16179W        W87762  16.632   2.629  12.611
16180W        W87763  13.377   8.794   1.671
16181W        W87764  18.990  16.741   1.818
16182W        W87765  21.603  19.798   1.704
16183W        W87766   0.323  15.595   4.748
16184W        W87767  12.047  15.655  12.487
16185W        W87768  35.059   4.332   0.487
16186W        W87769   4.772  39.305  13.471
16187W        W87770   2.487   0.004   3.647
16188W        W87771  19.424  18.755  14.375
16189W        W87772   6.847  19.634  13.108
16190W        W87773  44.567  39.333   9.977
16191W        W87774  20.385  16.293   3.316
16192W        W87775   6.178  21.688   0.398
16193W        W87776  40.366   2.527   3.134
16194W        W87777  12.355  38.973  11.404
16195W        W87778  29.075  27.374  13.548
16196W        W87779  41.870  37.859  11.440
16197W        W87780  32.431   1.517  12.907
16198W        W87781  23.008  28.380  14.268
16199W        W87782  25.060  17.349   1.342
16200W        W87783  44.456   5.854   4.691
16201W        W87784  24.199  36.510   1.721
16202W        W87785   8.651  24.959  11.217
16203W        W87786   1.922  23.786  11.711
16204W        W87787  37.378   7.157   1.780
16205W        W87788  17.621  21.229   4.157
16206W        W87789  14.784  10.162  12.427
16207W        W87790  12.122  29.405   3.977
16208W        W87791  36.849  19.127  11.052
16209W        W87792  43.980  22.002  12.012
16210W        W87793  33.482   5.468  14.886
16211W        W87794  43.924  24.484  14.800
16212W        W87795   1.517  43.721   3.220
16213W        W87796  41.579  30.424   1.745
16214W        W87797  21.661   7.409   2.712
16215W        W87798  19.147  19.678  13.334
16216W        W87799  19.248   1.271   4.486
16217W        W87800  35.135  36.315   1.242
16218W        W87801  19.898  13.135  13.050
16219W        W87802  24.768  35.831  11.650
16220W        W87803  33.959  35.116  13.457
16221W        W87804  15.617  44.136  10.176
16222W        W87805  29.237  31.349   1.856
16223W        W87806   8.851   9.805   3.065
16224W        W87807   4.777   6.652  12.126
16225W        W87808  19.760  26.141   2.175
16226W        W87809  20.719  27.907  13.867
16227W        W87810  26.093  44.889   1.216
16228W        W87811  24.935   8.711   3.712
16229W        W87812  36.690   1.719   5.024
16230W        W87813  25.051   9.197  12.919
16231W        W87814  35.256  21.138   0.890
16232W        W87815  22.737  16.590  11.644
16233W        W87816   0.336  16.121   1.141
16234W        W87817   1.881  15.071   1.636
16235W        W87818  30.969  24.712  13.542
16236W        W87819  40.381   8.925   4.102
16237W        W87820  20.986  28.991   3.467
16238W        W87821  15.575   2.703  10.997
16239W        W87822   7.210  30.597   4.283
16240W        W87823   5.796  41.712  12.149
16241W        W87824  40.970  15.152  10.392
16242W        W87825   9.707   3.509  13.353
16243W        W87826   0.906  43.837  13.067
16244W        W87827  10.743   6.087  11.451
16245W        W87828  15.902  22.714  14.098
16246W        W87829  10.337  17.341   4.152
16247W        W87830  31.277   5.186  12.395
16248W        W87831   4.315  38.092  11.392
16249W        W87832  24.490  40.840  10.990
16250W        W87833  36.108  14.666  14.711
16251W        W87834  22.570   2.781  12.967
16252W        W87835   0.727  28.614   1.106
16253W        W87836  27.056   9.309   2.330
16254W        W87837  35.858  42.856   1.421
16255W        W87838  43.287  39.517  14.992
16256W        W87839  26.256  30.132  14.608
16257W        W87840  25.272  35.067  10.932
16258W        W87841  37.818  30.368   4.717
16259W        W87842  30.075   4.863   2.929
16260W        W87843  31.761  23.567  10.699
16261W        W87844  42.917  28.854   3.244
16262W        W87845   2.896   5.435   0.776
16263W        W87846  38.755  19.934   1.899
16264W        W87847  38.343   1.500  11.651
16265W        W87848  20.166   5.711  12.639
16266W        W87849   1.959  43.419   1.800
16267W        W87850  31.599  20.901  11.370
16268W        W87851  28.940  35.112   3.616
16269W        W87852  23.468  38.478   3.103
16270W        W87853  15.930   4.292  13.580
16271W        W87854  19.465   1.499   4.073
16272W        W87855  36.066  20.080   3.531
16273W        W87856  17.217   5.828   0.688
16274W        W87857  34.240  35.386  12.083
16275W        W87858  14.564  37.052   4.154
16276W        W87859   5.236  23.191   1.909
16277W        W87860   8.249   2.959  13.440
16278W        W87861  34.947  16.854   4.125
16279W        W87862  10.309  18.521   3.202
16280W        W87863   7.371  19.871  13.062
16281W        W87864  38.960  30.225  10.766
16282W        W87865  18.643  38.796   0.925
16283W        W87866  34.406  17.529  11.596
16284W        W87867  44.463  43.867  12.581
16285W        W87868  28.521  10.212   0.517
16286W        W87869  18.546  25.502  11.519
16287W        W87870  21.090  35.577   2.199
16288W        W87871  27.207  17.257   4.935
16289W        W87872  19.723  28.222   0.996
16290W        W87873  13.843  37.025  14.533
16291W        W87874   5.299  20.933  12.101
16292W        W87875  38.868  26.651   0.420
16293W        W87876  33.844  27.178   0.209
16294W        W87877  15.825   4.472   4.809
16295W        W87878  28.463  44.546   0.885
16296W        W87879  11.239  30.585  11.664
16297W        W87880  13.563  19.596  14.971
16298W        W87881   0.462  25.255   4.751
16299W        W87882  37.071  38.619  13.875
16300W        W87883   8.319  32.513   3.582
16301W        W87884   0.496  36.274   0.248
16302W        W87885  35.989  29.021   2.958
16303W        W87886  32.483  26.131   4.898
16304W        W87887  25.099  36.508   4.423
16305W        W87888  33.983  42.994   0.785
16306W        W87889  43.454  36.365   0.802
16307W        W87890  10.258  12.180  14.949
16308W        W87891  21.780  19.548  10.629
16309W        W87892  34.647  26.752  13.263
16310W        W87893  42.338  18.367   4.173
16311W        W87894  28.980  43.850   1.483
16312W        W87895  29.142  12.576  11.950
16313W        W87896  39.082  31.553  12.343
16314W        W87897   3.385  24.507  14.328
16315W        W87898  15.777  31.683   9.951
16316W        W87899  14.308  21.329  10.675
16317W        W87900  26.205  39.276   3.770
16318W        W87901  27.961  42.005   1.781
16319W        W87902  34.323  35.342  11.245
16320W        W87903  24.024  15.671  10.950
16321W        W87904   7.609  17.042   2.155
16322W        W87905  36.857  25.094   4.442
16323W        W87906   3.445  25.068   3.674
16324W        W87907  36.446  20.836  14.934
16325W        W87908  18.260  43.094  14.424
16326W        W87909  41.462  21.423   2.776
16327W        W87910  28.347   1.714   1.193
16328W        W87911  26.485  31.880   0.032
16329W        W87912   2.454  13.168   1.822
16330W        W87913  34.741  28.381   2.939
16331W        W87914  20.284  19.793  13.062
16332W        W87915  19.962  16.880  12.011
16333W        W87916   3.740  41.748  14.907
16334W        W87917  14.240  20.336   1.701
16335W        W87918  19.765  37.064  10.914
16336W        W87919  33.773   0.991  13.387
16337W        W87920  22.222   3.448  14.383
16338W        W87921  18.484  17.696   1.382
16339W        W87922   6.189   3.587  11.924
16340W        W87923   1.721   2.769   4.107
16341W        W87924  36.055  18.201   2.403
16342W        W87925  16.322  24.685   3.831
16343W        W87926  31.673  27.487  14.237
16344W        W87927  13.864   6.918   4.173
16345W        W87928   2.394   9.794   4.586
16346W        W87929   4.885  27.733  11.550
16347W        W87930  27.111  34.764   5.064
16348W        W87931  17.655  19.048  11.817
16349W        W87932  28.834  34.071   0.955
16350W        W87933  12.187  29.391  13.537
16351W        W87934  11.875  31.942  12.765
16352W        W87935  22.727  33.356  13.794
16353W        W87936  38.474  39.541   2.279
16354W        W87937  19.395  24.007  13.859
16355W        W87938  21.033  26.991   1.382
16356W        W87939  17.414   9.358  11.058
16357W        W87940  44.775   7.500   4.091
16358W        W87941  37.326  24.603  12.900
16359W        W87942   8.725   7.881   2.327
16360W        W87943   1.384  12.781   2.288
16361W        W87944   5.617  26.600  14.500
16362W        W87945  31.393  24.691  13.877
16363W        W87946  33.681  23.174  13.887
16364W        W87947  21.764  32.049   5.060
16365W        W87948  19.283   9.434  10.970
16366W        W87949  22.438   4.765   4.370
16367W        W87950  41.683  29.839   4.273
16368W        W87951  30.337  26.539  14.077
16369W        W87952  25.597  39.099  13.033
16370W        W87953  30.855  30.664  10.833
16371W        W87954  35.643  11.580  12.512
16372W        W87955  21.158   6.394  10.515
16373W        W87956  18.985  25.846   9.895
16374W        W87957  44.952  40.176  14.994
16375W        W87958  23.273  29.657   5.493
16376W        W87959  39.123  25.608   4.556
16377W        W87960   2.079  12.420  14.837
16378W        W87961  40.766  18.812  11.268
16379W        W87962  20.502  24.665   1.973
16380W        W87963  33.501  12.075  12.471
16381W        W87964   7.164  21.673   1.690
16382W        W87965  15.489  16.765   2.258
16383W        W87966  11.762  11.643  14.364
16384W        W87967   6.307  44.246   4.184
16385W        W87968  38.824  36.131  14.788
16386W        W87969  36.297  11.815   3.281
16387W        W87970   8.219  32.309   1.466
16388W        W87971  34.134  15.752   1.299
16389W        W87972   2.469   2.324   1.472
16390W        W87973  31.193  42.530  11.858
16391W        W87974  18.861   3.820  14.814
16392W        W87975  14.069  24.492   1.386
16393W        W87976   4.030  39.461   0.027
16394W        W87977  16.617  29.426  13.545
16395W        W87978  33.297  31.833  11.635
16396W        W87979  29.959  41.029   0.695
16397W        W87980  24.957  11.375  14.688
16398W        W87981  35.091  26.996  13.450
16399W        W87982  25.027   2.591   0.220
16400W        W87983  26.677  22.297   3.214
16401W        W87984  41.384  25.770  10.639
16402W        W87985  39.874  26.929  12.004
16403W        W87986  33.370  17.205  11.388
16404W        W87987  26.697  28.209   1.881
16405W        W87988   8.736   6.693   1.883
16406W        W87989  17.696  38.328   4.754
16407W        W87990  32.844  25.649  12.564
16408W        W87991  40.221  13.058   2.546
16409W        W87992   5.397  41.297  14.812
16410W        W87993   7.430  15.790  14.125
16411W        W87994  23.516   2.645  11.208
16412W        W87995  31.372  18.727  13.854
16413W        W87996   1.887  11.401   1.716
16414W        W87997  16.753  34.854  11.844
16415W        W87998   9.037   3.317  10.443
16416W        W87999  14.309  40.150   1.891
16417W        W88000   1.456   0.534   3.793
16418W        W88001  42.848  37.495   4.847
16419W        W88002  40.992  15.229  12.869
16420W        W88003  23.688  22.566  14.895
16421W        W88004  28.986   9.814   3.630
16422W        W88005  44.717  35.115  12.428
16423W        W88006  17.034  43.528   0.699
16424W        W88007  41.593  29.928   3.758
16425W        W88008   1.696  19.458   4.177
16426W        W88009  37.305  34.156  11.100
16427W        W88010  41.509  11.926   1.280
16428W        W88011  12.067   5.982   4.118
16429W        W88012   5.930   9.554  10.702
16430W        W88013  29.933   1.541   1.531
16431W        W88014  42.829  39.382   1.447
16432W        W88015   6.235  43.313   4.135
16433W        W88016  37.980  34.091  13.051
16434W        W88017  22.982   5.359  13.731
16435W        W88018  24.691  20.658   4.520
16436W        W88019  10.095  19.050   2.237
16437W        W88020  13.325  19.873  13.946
16438W        W88021  13.165  34.468  13.960
16439W        W88022  23.974  42.338  14.932
16440W        W88023  41.891   7.289  14.454
16441W        W88024  21.951   3.443   2.289
16442W        W88025  32.020   0.795   3.170
16443W        W88026  16.788  36.776   9.827
16444W        W88027  28.466  32.481  13.538
16445W        W88028  44.314  41.402   5.013
16446W        W88029  38.980  40.255  13.555
16447W        W88030  18.872  16.035   3.116
16448W        W88031  41.830   0.694  13.455
16449W        W88032  21.340  10.188   0.985
16450W        W88033  11.381  41.370   1.408
16451W        W88034  34.993  24.925   3.120
16452W        W88035  20.099   7.734   2.382
16453W        W88036  43.000  34.443   2.229
16454W        W88037  21.081   7.491   4.628
16455W        W88038   2.496  34.998   4.589
16456W        W88039  35.949  23.554   3.192
16457W        W88040  33.532  40.430   3.866
16458W        W88041  14.877  16.850  14.370
16459W        W88042  40.153  27.558   0.019
16460W        W88043  23.026  25.965  13.105
16461W        W88044  38.092  38.769   3.636
16462W        W88045  41.848  39.195   3.573
16463W        W88046  15.073  39.539  11.572
16464W        W88047  25.090   1.355   2.699
16465W        W88048  28.121  15.820  10.668
16466W        W88049  11.965  21.938  13.107
16467W        W88050  23.789   5.284   1.351
16468W        W88051  23.072  41.159   0.165
16469W        W88052  38.474   2.462  13.405
16470W        W88053   4.690  26.716  13.536
16471W        W88054  15.775  29.627   2.886
16472W        W88055  33.486  41.298   0.765
16473W        W88056  24.143  12.273  12.056
16474W        W88057  30.055  16.278   2.783
16475W        W88058  11.304  12.267   1.397
16476W        W88059  43.097  33.445  13.533
16477W        W88060   6.434  31.524  12.051
16478W        W88061  42.716  43.967  11.039
16479W        W88062  31.709   1.307   2.302
16480W        W88063  19.012  23.744   1.876
16481W        W88064  31.015  27.345  11.136
16482W        W88065  10.428  18.655   2.269
16483W        W88066   6.191  21.292  11.093
16484W        W88067   2.480  18.998  12.528
16485W        W88068  34.727  26.050  12.219
16486W        W88069   2.745  11.695   0.876
16487W        W88070  31.568   6.562  14.885
16488W        W88071  44.013   6.896   1.318
16489W        W88072  29.438  33.698   2.143
16490W        W88073  24.320  16.225  12.778
16491W        W88074   5.882  28.469  11.976
16492W        W88075  34.476  40.896   3.151
16493W        W88076   0.851  30.488   2.303
16494W        W88077  29.907  37.771   1.615
16495W        W88078  42.005   1.891  10.806
16496W        W88079  11.670   0.914   0.643
16497W        W88080   1.299   2.749  10.558
16498W        W88081  43.534  35.424  14.603
16499W        W88082  15.718   3.684  10.760
16500W        W88083  24.545  36.195   1.938
16501W        W88084  43.340  30.717  13.969
16502W        W88085  31.514  13.117  13.008
16503W        W88086  21.176  36.132  11.192
16504W        W88087  23.184   1.283  14.426
16505W        W88088  44.251  22.621   4.896
16506W        W88089  12.823   0.195   1.844
16507W        W88090  25.227  34.697  12.508
16508W        W88091   2.505  39.197   3.291
16509W        W88092  38.852   7.709  11.581
16510W        W88093  27.949  27.479  12.437
16511W        W88094  16.921   2.472  13.898
16512W        W88095   7.883  43.293   2.637
16513W        W88096  36.868  17.364  10.489
16514W        W88097  31.946  23.652  13.524
16515W        W88098  16.475   0.725   4.319
16516W        W88099   0.394  34.668   4.200
16517W        W88100   7.618  34.313  12.533
16518W        W88101  41.710  24.307  12.156
16519W        W88102  41.417  41.379   0.285
16520W        W88103   1.584   6.900   0.213
16521W        W88104  23.971  21.738  13.589
16522W        W88105  35.526  44.335  12.122
16523W        W88106  14.186  34.065   0.010
16524W        W88107  36.392  38.460   4.655
16525W        W88108  23.497   2.076  14.437
16526W        W88109   4.120   8.887   1.641
16527W        W88110  18.853   1.777  13.014
16528W        W88111   4.260  39.468  13.456
16529W        W88112  42.783  22.734  12.637
16530W        W88113  34.850   4.993   2.848
16531W        W88114   5.765  36.565  10.694
16532W        W88115  27.049  38.031   2.587
16533W        W88116  23.768  37.899  14.315
16534W        W88117  36.064   6.635   4.594
16535W        W88118  17.477  22.954   5.507
16536W        W88119  11.116  28.041  10.255
16537W        W88120  44.554  28.965   1.408
16538W        W88121   2.851  21.819   0.680
16539W        W88122  26.302   6.781   3.808
16540W        W88123  24.211   2.095  11.548
16541W        W88124  36.014  40.476  12.564
16542W        W88125  27.455  36.973  12.147
16543W        W88126  37.410   5.479   3.404
16544W        W88127  20.039  40.487   3.337
16545W        W88128  16.704  31.940   2.420
16546W        W88129  32.100  27.135   1.434
16547W        W88130  24.785  28.760   4.068
16548W        W88131   7.656  20.628   0.334
16549W        W88132  16.769  31.963  10.789
16550W        W88133  19.137  35.838  10.500
16551W        W88134  25.273  44.290  10.739
16552W        W88135   1.211  41.876   2.652
16553W        W88136  16.988  17.948   1.261
16554W        W88137  30.544  14.312  12.121
16555W        W88138   9.050  35.001  14.198
16556W        W88139  24.467  14.785  14.910
16557W        W88140  20.653   5.152   3.601
16558W        W88141  44.545   4.206   3.618
16559W        W88142  39.370   2.026  14.440
16560W        W88143  28.962  17.882   2.433
16561W        W88144   7.856  18.200   0.203
16562W        W88145  38.236  20.665  13.661
16563W        W88146  20.759  40.749   2.482
16564W        W88147  33.090  17.147  10.682
16565W        W88148   4.516   7.889   3.827
16566W        W88149  14.316  14.255   3.153
16567W        W88150  25.791  34.569  12.479
16568W        W88151  38.411   8.443  14.045
16569W        W88152  10.061   4.588  11.260
16570W        W88153  37.926  11.233   5.020
16571W        W88154  17.735  25.570   2.947
16572W        W88155  44.941  44.677  13.447
16573W        W88156  38.801  15.690   4.429
16574W        W88157  40.290  18.686  11.309
16575W        W88158  10.788  32.178  11.244
16576W        W88159  12.550  20.680  11.145
16577W        W88160  21.646  42.655   0.758
16578W        W88161  29.262  19.763  14.841
16579W        W88162  16.075  13.799  13.858
16580W        W88163  19.842   4.758  14.827
16581W        W88164  16.753  43.991   2.810
16582W        W88165  19.812  19.224  12.752
16583W        W88166  39.409  27.996   0.163
16584W        W88167  25.233  39.960  10.774
16585W        W88168  27.719   3.236   2.129
16586W        W88169  37.489  39.610  11.922
16587W        W88170  17.612  29.717  13.779
16588W        W88171  28.160  29.957  10.467
16589W        W88172  30.942   7.084  10.214
16590W        W88173  20.731  14.445   2.173
16591W        W88174  21.980  29.062   3.218
16592W        W88175  36.056  20.001  12.066
16593W        W88176  30.936  27.264   3.789
16594W        W88177  40.260   0.012  12.578
16595W        W88178   4.309  27.952   2.000
16596W        W88179   6.119  12.493  11.877
16597W        W88180  43.004   2.832   0.957
16598W        W88181   3.364  13.392  13.884
16599W        W88182  37.319  41.473  14.324
16600W        W88183  43.842  26.161  10.492
16601W        W88184  18.526   3.291   0.782
16602W        W88185  31.557  43.969  14.348
16603W        W88186   3.817  40.517  13.342
16604W        W88187   6.573   5.491   4.557
16605W        W88188  25.377  43.553  11.642
16606W        W88189  33.408  10.639  12.416
16607W        W88190  34.872  36.802   2.099
16608W        W88191  15.206  28.882   4.562
16609W        W88192  13.582  12.085  14.742
16610W        W88193   4.692  44.488  13.323
16611W        W88194  24.716  16.628  14.316
16612W        W88195   1.450   5.595  13.403
16613W        W88196  22.425  39.859   0.843
16614W        W88197   2.787   2.281   1.890
16615W        W88198  27.402  39.455  12.027
16616W        W88199  20.204  39.881  12.506
16617W        W88200   0.939   4.862  11.019
16618W        W88201  31.273  13.628  10.672
16619W        W88202  30.614  12.642   2.307
16620W        W88203  20.182  33.354   4.625
16621W        W88204  20.166  15.741  12.954
16622W        W88205  26.702   1.495   0.775
16623W        W88206  19.124  22.454  13.952
16624W        W88207   1.478  11.602   1.446
16625W        W88208   2.291  26.274  12.204
16626W        W88209   8.837   5.112   3.727
16627W        W88210   4.461  21.046   1.169
16628W        W88211  41.772  24.997  11.074
16629W        W88212  23.851  12.142   3.939
16630W        W88213   5.302  28.674   0.979
16631W        W88214  23.668  11.958   1.273
16632W        W88215  16.168   5.290  14.997
16633W        W88216  32.897  44.395  14.001
16634W        W88217  34.455   1.755  10.790
16635W        W88218  21.310  39.292  12.455
16636W        W88219   6.121   8.257  10.647
16637W        W88220  31.169  19.479   2.001
16638W        W88221  32.976  37.923  12.865
16639W        W88222  37.016  20.053  13.911
16640W        W88223  39.045   9.413  13.478
16641W        W88224  11.644  13.776   2.900
16642W        W88225  17.583   2.552   0.793
16643W        W88226  11.748  41.551  13.979
16644W        W88227  13.135   8.313  12.394
16645W        W88228  33.520   8.903   1.460
16646W        W88229  16.037  14.589  11.643
16647W        W88230   3.353  22.467   1.281
16648W        W88231  44.985  25.747   4.591
16649W        W88232   0.393  33.502  12.903
16650W        W88233   5.122  13.893  14.873
16651W        W88234  21.001  20.096   1.125
16652W        W88235  14.905  38.568   3.358
16653W        W88236  16.731  31.937   1.913
16654W        W88237  23.169  19.290   4.299
16655W        W88238  13.888  29.738  14.853
16656W        W88239  11.307  14.466  11.737
16657W        W88240  23.926  39.921  11.226
16658W        W88241   2.282  32.117  14.501
16659W        W88242  19.937  32.380  11.085
16660W        W88243  34.817  17.777  12.623
16661W        W88244  40.808  14.034   1.812
16662W        W88245   2.215  23.931  12.094
16663W        W88246   4.726   1.900  10.679
16664W        W88247   7.172  34.779  11.129
16665W        W88248   5.154  42.132   5.219
16666W        W88249  11.617  27.993  12.576
16667W        W88250   4.383  11.655  12.816
16668W        W88251  37.548  35.866   2.768
16669W        W88252  11.859  18.661   2.126
16670W        W88253  43.289   9.862   4.017
16671W        W88254   7.076  18.257  11.557
16672W        W88255   7.887  17.054  13.841
16673W        W88256  27.551  20.178   0.018
16674W        W88257   0.665   6.994   4.189
16675W        W88258  35.735  30.124  10.740
16676W        W88259   7.344  12.663   4.216
16677W        W88260  29.297  42.397  13.337
16678W        W88261   5.796  25.610  12.824
16679W        W88262  24.443  32.979  14.784
16680W        W88263  17.985   7.642   4.522
16681W        W88264   7.470  41.977  11.042
16682W        W88265  38.899   8.891   0.792
16683W        W88266  26.742   7.480  12.384
16684W        W88267  13.352  42.262  12.984
16685W        W88268  19.064   4.731   0.313
16686W        W88269  44.400  38.978   5.012
16687W        W88270  34.332  39.111   0.881
16688W        W88271   1.359  40.384   4.937
16689W        W88272  40.817  31.259   2.728
16690W        W88273  21.484  42.496   4.924
16691W        W88274  25.475  25.234   3.346
16692W        W88275  29.568  15.149   4.628
16693W        W88276  33.063   6.237   1.538
16694W        W88277  27.833   7.733   4.261
16695W        W88278  39.329  29.987   3.230
16696W        W88279  12.833  23.401  12.483
16697W        W88280   2.942  33.068  14.032
16698W        W88281   6.805  35.525  11.561
16699W        W88282   4.384  24.119   1.295
16700W        W88283   4.820   3.451   0.722
16701W        W88284  41.894  12.525  13.909
16702W        W88285  25.702   9.719   3.321
16703W        W88286  11.849  16.593  11.077
16704W        W88287  36.580  30.202  14.059
16705W        W88288  10.367  17.106   5.193
16706W        W88289  41.333  10.355   1.475
16707W        W88290  13.843   7.311   4.537
16708W        W88291  42.302  39.957  14.251
16709W        W88292  17.865   8.653  11.275
16710W        W88293  27.960  38.482   3.794
16711W        W88294  35.454  41.533   3.256
16712W        W88295  42.729  26.005   2.159
16713W        W88296  20.456   5.434   1.215
16714W        W88297   4.598   4.498  12.206
16715W        W88298  30.361  15.873  13.114
16716W        W88299  21.527  41.886  10.954
16717W        W88300  23.589  22.534   2.237
16718W        W88301  16.780   8.896  13.792
16719W        W88302  37.504   7.723   4.220
16720W        W88303  24.737   9.694  11.603
16721W        W88304  24.166   9.359  13.424
16722W        W88305  31.296  20.082   3.322
16723W        W88306  21.548  12.631  11.207
16724W        W88307  28.453  36.153  14.598
16725W        W88308  44.965  23.230   1.923
16726W        W88309   1.763  15.066  14.404
16727W        W88310  41.511  11.826   2.386
16728W        W88311  40.815  21.711   4.008
16729W        W88312  29.372  17.878  12.159
16730W        W88313  11.153  11.356   2.334
16731W        W88314  17.991   8.968  12.160
16732W        W88315  36.595  37.503  13.298
16733W        W88316  18.946  44.647  13.772
16734W        W88317  21.601  35.568   2.353
16735W        W88318  32.699  42.993   4.111
16736W        W88319  39.672  40.956   1.328
16737W        W88320  27.204   1.996   2.360
16738W        W88321  38.026  33.141  11.477
16739W        W88322   6.552  21.884   0.720
16740W        W88323  28.680  14.564  11.296
16741W        W88324  21.685  13.901  12.147
16742W        W88325  11.837  27.023  13.364
16743W        W88326  42.788   3.515   2.683
16744W        W88327  22.659  38.475  14.740
16745W        W88328  43.397   7.687   1.875
16746W        W88329   9.624   8.356  10.685
16747W        W88330   5.478  11.269   4.153
16748W        W88331  26.519  19.453  14.313
16749W        W88332  24.540   2.082  13.759
16750W        W88333  25.588  25.751  12.817
16751W        W88334   7.350   9.206   4.451
16752W        W88335  15.673   9.207  10.487
16753W        W88336   1.915   7.339  11.594
16754W        W88337   9.475  43.363   1.922
16755W        W88338  12.469  39.155  10.658
16756W        W88339  40.811   7.127  11.588
16757W        W88340  20.072   7.330   2.851
16758W        W88341  44.374  11.660  10.697
16759W        W88342   9.036  29.121  11.165
16760W        W88343   2.397  14.787   3.681
16761W        W88344   1.465   1.046   3.777
16762W        W88345  27.976  38.538  13.932
16763W        W88346   0.852   9.303  14.059
16764W        W88347   7.332  31.885   3.903
16765W        W88348  39.015  32.020   1.426
16766W        W88349  11.691  35.911   2.667
16767W        W88350  34.383  12.835   4.682
16768W        W88351   8.217  38.941  10.674
16769W        W88352  35.567  36.939  12.631
16770W        W88353   6.488  24.004   1.791
16771W        W88354  34.985  38.231  13.116
16772W        W88355  44.164  20.911  13.430
16773W        W88356   6.432  37.448  12.352
16774W        W88357   0.819  21.208   0.264
16775W        W88358  31.916  22.175   1.195
16776W        W88359  33.378  40.801  14.509
16777W        W88360  32.026  28.357  12.866
16778W        W88361  28.673  10.590  11.116
16779W        W88362  24.211   8.314  12.539
16780W        W88363   3.233  27.037  12.639
16781W        W88364  43.635  15.334   3.197
16782W        W88365  12.230   4.722   3.127
16783W        W88366   6.259  16.641  12.974
16784W        W88367  36.101   0.994  13.063
16785W        W88368  40.515   7.562  10.258
16786W        W88369  13.644  20.584  13.386
16787W        W88370  40.053  19.503  14.917
16788W        W88371  39.998   6.959  11.727
16789W        W88372  36.639  24.742  12.474
16790W        W88373  12.362  27.630   0.076
16791W        W88374  41.871  28.101  14.994
16792W        W88375  42.346  40.958  10.710
16793W        W88376  28.117  33.613  14.108
16794W        W88377  36.906  37.009  10.696
16795W        W88378  44.986  43.390  14.515
16796W        W88379   0.960  43.888  10.729
16797W        W88380   1.246   0.301  14.354
16798W        W88381  13.254  29.042  12.050
16799W        W88382  36.596  37.921   3.162
16800W        W88383  18.576   2.333   1.622
16801W        W88384   5.644   1.806  13.971
16802W        W88385  19.623  37.685   1.551
16803W        W88386   4.000  44.939   3.586
16804W        W88387  17.661  18.689   1.760
16805W        W88388  12.413  20.018  13.551
16806W        W88389  19.570  17.451  13.029
16807W        W88390  40.833  39.863   2.047
16808W        W88391  13.978  10.707  11.669
16809W        W88392  22.919  44.341  10.479
16810W        W88393   2.863  15.251   3.619
16811W        W88394  41.053   3.130   3.126
16812W        W88395  23.294  21.181   1.900
16813W        W88396  34.591  20.937  11.905
16814W        W88397  11.306   5.394   1.837
16815W        W88398  17.470  26.156  10.151
16816W        W88399   8.014   5.876  10.747
16817W        W88400   5.782  43.408   2.282
16818W        W88401   1.039  11.356  11.448
16819W        W88402  39.519  24.086   3.520
16820W        W88403  39.292  18.997  12.559
16821W        W88404  24.811  15.170   1.239
16822W        W88405   0.698  32.385   0.333
16823W        W88406  36.325  19.675   0.497
16824W        W88407  10.784  11.744   1.710
16825W        W88408  17.178  12.368  13.784
16826W        W88409   2.845  12.352  13.299
16827W        W88410   8.732  30.148   0.100
16828W        W88411  42.363   8.178  14.163
16829W        W88412   2.422  13.244   4.146
16830W        W88413  22.493  39.297  14.751
16831W        W88414  24.976  31.972   3.440
16832W        W88415  23.589  40.542   2.238
16833W        W88416  41.892  11.911  13.026
16834W        W88417  26.177  44.682   2.275
16835W        W88418  37.096  34.414   4.615
16836W        W88419  30.877  26.877  11.062
16837W        W88420  31.649  21.132   0.302
16838W        W88421  36.869   3.338  14.127
16839W        W88422   7.201  31.489   4.202
16840W        W88423  30.411  18.356   1.967
16841W        W88424  13.656  17.144  11.636
16842W        W88425  24.516  26.085   3.571
16843W        W88426  37.831  36.482   2.155
16844W        W88427  33.880   9.735   2.924
16845W        W88428   9.283  27.967   1.726
16846W        W88429   6.800  31.644  11.200
16847W        W88430   8.593   1.894   1.294
16848W        W88431  16.274  40.211  12.942
16849W        W88432  22.184  12.819  10.534
16850W        W88433  12.653  19.464   0.497
16851W        W88434  11.397  19.315  10.666
16852W        W88435  33.365  14.555  14.395
16853W        W88436  29.473  19.997   0.849
16854W        W88437  10.829  32.419   0.499
16855W        W88438  31.654  32.942   2.424
16856W        W88439   3.919  20.557  12.812
16857W        W88440  18.631  41.848  14.483
16858W        W88441  27.783  10.580   1.902
16859W        W88442  18.798   1.477   0.941
16860W        W88443   4.105  13.081  11.000
16861W        W88444  27.076  42.541  11.224
16862W        W88445  39.508  32.605  14.398
16863W        W88446  22.141  26.528  10.945
16864W        W88447   3.784  15.875   3.894
16865W        W88448  41.787  44.765  12.482
16866W        W88449  20.613   3.943   2.433
16867W        W88450  38.888  13.296  10.726
16868W        W88451  22.732  42.861   0.417
16869W        W88452   7.893   0.135   2.863
16870W        W88453  38.821   0.822   1.458
16871W        W88454  33.110  22.587   0.565
16872W        W88455   0.475  33.870  11.541
16873W        W88456  11.836  20.693  12.913
16874W        W88457  28.101  21.667   2.915
16875W        W88458   7.719  23.115  14.698
16876W        W88459  23.423  31.514  10.762
16877W        W88460  38.186  16.555  13.961
16878W        W88461  29.627   0.842  13.792
16879W        W88462  26.021   2.438  11.850
16880W        W88463  16.504  12.732   0.600
16881W        W88464  29.446  28.657  12.367
16882W        W88465  14.116  35.022  14.023
16883W        W88466  10.602  14.659   4.305
16884W        W88467  18.627  13.358   3.214
16885W        W88468   9.751  15.735   2.661
16886W        W88469  23.188  30.406   4.715
16887W        W88470   6.275  42.437  12.629
16888W        W88471  21.263  11.142  12.263
16889W        W88472   5.016   7.221   3.278
16890W        W88473  42.879   7.738  13.537
16891W        W88474  44.019  32.157  14.854
16892W        W88475  42.989  40.564   3.153
16893W        W88476  29.036  10.253  11.868
16894W        W88477  16.075  41.230  12.967
16895W        W88478  14.572  10.779   1.712
16896W        W88479  43.802  19.095   1.656
16897W        W88480  35.621  29.515   3.951
16898W        W88481  31.324   8.690  12.524
16899W        W88482  36.403  22.256  12.965
16900W        W88483   3.948  35.605   2.028
16901W        W88484  22.608  29.406  13.768
16902W        W88485  39.107   1.314   1.266
16903W        W88486  21.514  17.072   9.915
16904W        W88487  37.972  15.362  14.280
16905W        W88488  37.420  19.298  11.579
16906W        W88489  16.621  33.081  14.558
16907W        W88490  12.893   0.703   4.120
16908W        W88491  43.348  11.913   2.211
16909W        W88492  42.637  22.615   2.617
16910W        W88493  17.080   5.688  12.873
16911W        W88494  25.924  14.112  10.541
16912W        W88495  19.627  22.951   3.410
16913W        W88496  13.176  40.041   0.076
16914W        W88497  23.911  21.351   1.723
16915W        W88498  23.732   5.812   1.926
16916W        W88499   6.658   6.609  11.944
16917W        W88500  12.774   9.292   4.117
16918W        W88501  43.592  40.446   4.116
16919W        W88502  43.903  13.844   2.173
16920W        W88503  12.422  36.930  10.795
16921W        W88504  34.004  16.841   2.754
16922W        W88505  19.216   6.259   1.826
16923W        W88506   5.157  38.017   2.439
16924W        W88507  17.472  38.439   0.494
16925W        W88508  40.557  22.540  12.085
16926W        W88509   1.826  12.315  12.499
16927W        W88510   9.837  38.328   1.305
16928W        W88511  30.482   0.229  12.502
16929W        W88512  44.828  30.972  14.578
16930W        W88513  28.779  33.554   5.454
16931W        W88514  37.480   3.292  13.519
16932W        W88515  21.147   9.281  10.682
16933W        W88516  21.877  18.533  14.618
16934W        W88517   1.935  31.121  13.802
16935W        W88518  28.842  27.709  10.710
16936W        W88519  43.605   4.704  13.384
16937W        W88520  26.028  32.672   0.393
16938W        W88521  34.062   8.924   2.276
16939W        W88522  31.153   5.892  12.023
16940W        W88523  39.940   6.003  13.784
16941W        W88524  19.811  32.167  14.879
16942W        W88525   8.391  10.250  11.555
16943W        W88526  25.974  10.740   2.311
16944W        W88527   4.781  23.125   1.646
16945W        W88528  15.597  20.750  11.576
16946W        W88529   5.598  39.280  12.433
16947W        W88530  16.083  39.771   0.696
16948W        W88531  37.554  15.404  11.127
16949W        W88532  37.804   4.805   3.120
16950W        W88533  20.031   8.843  12.004
16951W        W88534  29.185  38.117  14.767
16952W        W88535  44.770  15.663   0.278
16953W        W88536  29.787   9.643  13.106
16954W        W88537  42.460  20.635   0.468
16955W        W88538  29.045   7.483   4.758
16956W        W88539  22.069  39.565   0.611
16957W        W88540   9.737  21.486   2.307
16958W        W88541  19.347  38.869   0.358
16959W        W88542  17.723  11.162   0.433
16960W        W88543  22.248   9.187   1.739
16961W        W88544  44.878   9.196  14.642
16962W        W88545  42.823  36.158   3.255
16963W        W88546  19.711  15.621  11.605
16964W        W88547  32.323  42.978  12.396
16965W        W88548  29.208  13.535   2.323
16966W        W88549  42.959  42.254  10.452
16967W        W88550  37.102   8.433  11.052
16968W        W88551  31.284   8.168   3.556
16969W        W88552  15.769  39.281  12.982
16970W        W88553  30.940   2.311  10.797
16971W        W88554   9.203  27.453  13.055
16972W        W88555   1.041   9.412  10.968
16973W        W88556  19.361  12.109   0.024
16974W        W88557  13.933  41.933   3.713
16975W        W88558  38.623  24.183  14.483
16976W        W88559  32.338  16.702   3.795
16977W        W88560  26.251  25.668   2.982
16978W        W88561   6.378  16.808  11.239
16979W        W88562  12.606  14.765  12.428
16980W        W88563  13.908   9.168   3.400
16981W        W88564   9.854  34.363   0.667
16982W        W88565  19.101   5.509   2.868
16983W        W88566   1.961  33.938  10.611
16984W        W88567  11.726  29.011  10.261
16985W        W88568  26.156  44.487  10.736
16986W        W88569   6.574   4.864   0.445
16987W        W88570  14.677  15.616  14.550
16988W        W88571   2.066  10.843  14.387
16989W        W88572  19.753   3.832   4.681
16990W        W88573  29.238  23.234  12.033
16991W        W88574   3.421  12.560   4.640
16992W        W88575  30.456  37.436   4.102
16993W        W88576  16.036  28.057  13.535
16994W        W88577  13.100   3.855  12.496
16995W        W88578  42.428   0.743  12.090
16996W        W88579  21.631   6.481   0.435
16997W        W88580  16.671  37.662   0.758
16998W        W88581  42.227   2.346  14.018
16999W        W88582  43.002  26.514  12.552
17000W        W88583  29.875   9.473   4.539
17001W        W88584  18.226  32.947  11.045
17002W        W88585  19.986  21.338   1.317
17003W        W88586  32.878  20.107  13.330
17004W        W88587  19.779   1.958   1.887
17005W        W88588  37.085  34.540   1.018
17006W        W88589  44.344  29.969   0.217
17007W        W88590  15.486  35.571  13.485
17008W        W88591  12.572  11.673   2.281
17009W        W88592   7.932  16.449   1.936
17010W        W88593  23.776  11.791   4.525
17011W        W88594   4.943   2.456  11.786
17012W        W88595  15.079  21.620  12.682
17013W        W88596  39.271  42.445   0.327
17014W        W88597  18.307  10.621  12.569
17015W        W88598   3.821  16.808   0.447
17016W        W88599   7.780  36.859   0.339
17017W        W88600  19.572   4.836   0.354
17018W        W88601   4.649   5.489   0.339
17019W        W88602  37.326  44.723   3.095
17020W        W88603  41.960  40.529  12.506
17021W        W88604   5.309   6.118   1.091
17022W        W88605  13.131  10.337   3.289
17023W        W88606  28.316  23.657  13.078
17024W        W88607  33.080  24.805  12.000
17025W        W88608   6.126  11.995   0.842
17026W        W88609  35.928  24.527   2.144
17027W        W88610   2.720   3.645   0.561
17028W        W88611  42.912  39.317  10.575
17029W        W88612   3.274  38.340  14.789
17030W        W88613  36.322   2.989   1.433
17031W        W88614  30.934  20.771   3.508
17032W        W88615   1.260   8.139  13.382
17033W        W88616  11.265  11.909   3.182
17034W        W88617  26.965  29.891  11.987
17035W        W88618  22.686  35.463   4.628
17036W        W88619  15.003   0.750   2.801
17037W        W88620  34.488   3.043  13.416
17038W        W88621  13.337   4.719  10.708
17039W        W88622  39.594  28.243   1.455
17040W        W88623  44.694  31.916   4.326
17041W        W88624   0.886  25.869  11.051
17042W        W88625  25.540   6.867  13.419
17043W        W88626  23.069  39.388   3.030
17044W        W88627  36.161   8.174  11.523
17045W        W88628  16.262  42.972   4.137
17046W        W88629  12.864  10.120  13.282
17047W        W88630   9.164  30.600  11.673
17048W        W88631  28.589  27.678   3.602
17049W        W88632  35.097   0.544   4.301
17050W        W88633  39.693  16.707   0.434
17051W        W88634   7.694  14.185  11.191
17052W        W88635  22.189  31.605  11.191
17053W        W88636  21.455  31.025  14.820
17054W        W88637  25.792   4.908   2.773
17055W        W88638  10.753   0.411  13.948
17056W        W88639  28.308  16.526  13.446
17057W        W88640  42.049  27.951  12.197
17058W        W88641  33.538   1.431  10.997
17059W        W88642  22.506  30.344   0.472
17060W        W88643  25.460   4.134  12.342
17061W        W88644  16.068  10.933  11.152
17062W        W88645  12.252  25.506  12.880
17063W        W88646  24.169  20.805  11.931
17064W        W88647  15.803   6.793   4.583
17065W        W88648  27.157  28.136   0.777
17066W        W88649  17.531  17.568  13.755
17067W        W88650   1.943  27.104   1.935
17068W        W88651  18.920  31.463  12.091
17069W        W88652  26.858  20.992  11.210
17070W        W88653  29.881  29.990  11.110
17071W        W88654  28.158  13.644  11.007
17072W        W88655  29.667  35.207  13.490
17073W        W88656  35.784  42.043   3.857
17074W        W88657  20.660  12.332  10.683
17075W        W88658  24.122  20.703   0.100
17076W        W88659  22.759  11.755   2.409
17077W        W88660  26.589   7.801   0.300
17078W        W88661  35.856  41.500  13.344
17079W        W88662  37.874  10.651   1.658
17080W        W88663   3.638  29.156  12.132
17081W        W88664  26.281  29.785   0.747
17082W        W88665  32.688  13.412  10.344
17083W        W88666  44.470   6.122  11.769
17084W        W88667  30.872   0.226  14.302
17085W        W88668   1.901  30.477  14.534
17086W        W88669  12.059   7.938  13.874
17087W        W88670  38.234  12.874  11.958
17088W        W88671  38.306  38.845  11.924
17089W        W88672   3.690  36.082  10.681
17090W        W88673  42.256  36.125  12.495
17091W        W88674   3.717  21.079  10.177
17092W        W88675  31.104  21.253   2.621
17093W        W88676  15.495  32.532  14.769
17094W        W88677  43.698  22.067  13.456
17095W        W88678  39.069  10.231   2.784
17096W        W88679  21.689  34.735   3.909
17097W        W88680   0.112   8.175  13.845
17098W        W88681  17.317   0.899  12.954
17099W        W88682  43.085  23.173  14.931
17100W        W88683   7.261  42.863  14.079
17101W        W88684  26.272  20.663   2.319
17102W        W88685   6.185  28.675   4.518
17103W        W88686  14.703   8.604  12.483
17104W        W88687   7.477   1.292   2.134
17105W        W88688  15.756  12.298  12.071
17106W        W88689   0.876  21.782   0.399
17107W        W88690  13.016  19.236  11.048
17108W        W88691   7.640  40.249   3.374
17109W        W88692  35.347  37.660   0.259
17110W        W88693   7.875  17.508  11.183
17111W        W88694  24.691  40.394   1.363
17112W        W88695  38.149  20.702  11.008
17113W        W88696   2.720  38.589   2.608
17114W        W88697   9.052  40.720  12.695
17115W        W88698   9.680   9.631  11.596
17116W        W88699  26.344   2.442  14.144
17117W        W88700  36.007  22.559   1.212
17118W        W88701   1.029  33.369   5.011
17119W        W88702  25.971   0.972  14.257
17120W        W88703  10.822  10.678   1.273
17121W        W88704  42.985  11.579  12.677
17122W        W88705   9.593   9.278  13.119
17123W        W88706  18.716  41.928   3.509
17124W        W88707  36.620  29.500  13.479
17125W        W88708   2.265  21.774  14.985
17126W        W88709   1.471  38.109  14.404
17127W        W88710  34.041  24.213   4.594
17128W        W88711  28.589  16.397  11.779
17129W        W88712  10.175   1.701   2.410
17130W        W88713  27.568  11.663   4.068
17131W        W88714  11.127   5.659   2.250
17132W        W88715  21.283  25.798  13.883
17133W        W88716  23.058   6.461  10.597
17134W        W88717  13.363  15.721   3.196
17135W        W88718  23.979   1.302  11.397
17136W        W88719   6.473  28.651  11.185
17137W        W88720  44.192  41.487   3.713
17138W        W88721  30.437  15.154   3.872
17139W        W88722  43.031  13.391   4.594
17140W        W88723  10.415  30.173  12.088
17141W        W88724  25.433  21.117   3.821
17142W        W88725  22.342  36.456   1.780
17143W        W88726  20.458  15.075  11.134
17144W        W88727  35.419  16.796  13.458
17145W        W88728  19.921  23.984  13.910
17146W        W88729  44.130  25.573   4.208
17147W        W88730   1.991  18.703   4.480
17148W        W88731  36.784  11.636   4.154
17149W        W88732  44.966   3.968   1.269
17150W        W88733  17.160   7.265  13.802
17151W        W88734  39.041  15.613   2.252
17152W        W88735  36.894  30.419   1.912
17153W        W88736  21.725  30.026  14.337
17154W        W88737   3.981  22.077   4.263
17155W        W88738  26.198  32.137  11.139
17156W        W88739  26.051  13.121   3.273
17157W        W88740  43.238  22.703  11.089
17158W        W88741  28.309  22.956  13.080
17159W        W88742  28.270  27.213   2.314
17160W        W88743  34.095  33.534  12.131
17161W        W88744  18.672  17.824   2.348
17162W        W88745  39.861   6.799  14.875
17163W        W88746  31.959   9.140  11.240
17164W        W88747  20.866  15.752  12.376
17165W        W88748  38.763  33.330   1.438
17166W        W88749  22.294  24.582   0.886
17167W        W88750  39.834  17.362  13.794
17168W        W88751  36.031  33.097   1.854
17169W        W88752  30.075  37.935  13.549
17170W        W88753  26.430  38.845  11.073
17171W        W88754  10.175  13.148  11.234
17172W        W88755  36.257  41.105   1.232
17173W        W88756   0.362  12.446   4.003
17174W        W88757  10.325  38.750   1.931
17175W        W88758  13.204  16.392   1.687
17176W        W88759  38.305  38.836  14.450
17177W        W88760   9.830   1.845   4.823
17178W        W88761  26.897  14.058   4.808
17179W        W88762  19.639  23.086   2.915
17180W        W88763  15.176   2.037  14.024
17181W        W88764  27.778  25.583   2.850
17182W        W88765  18.709  44.087  10.497
17183W        W88766  42.928  28.950   1.432
17184W        W88767   1.299  24.575   1.262
17185W        W88768   8.338   5.945  11.161
17186W        W88769   9.181  13.702  12.997
17187W        W88770  10.326  29.081   1.448
17188W        W88771   8.366  36.298   1.323
17189W        W88772   5.023  34.023  13.092
17190W        W88773  44.421  31.844   4.771
17191W        W88774  15.149  17.499   4.868
17192W        W88775  21.060  34.518   1.376
17193W        W88776  24.993  21.964  14.538
17194W        W88777  24.589  21.305   4.311
17195W        W88778  30.201  36.058   1.439
17196W        W88779  44.123  26.609   0.406
17197W        W88780  24.594  36.829   4.550
17198W        W88781  18.958  28.483  11.475
17199W        W88782  39.014  21.262   1.678
17200W        W88783  35.693  15.169  11.100
17201W        W88784  32.975  30.020  12.337
17202W        W88785  39.065   2.355   3.393
17203W        W88786  33.109  38.583  12.146
17204W        W88787   1.072   8.477   4.140
17205W        W88788  17.343  25.956  12.857
17206W        W88789  44.719  15.120   4.091
17207W        W88790  23.243  20.155   0.698
17208W        W88791  32.084  17.112  11.665
17209W        W88792  27.211   3.200   2.195
17210W        W88793  27.172  26.495   0.386
17211W        W88794   6.947  37.305  12.934
17212W        W88795  28.681  42.369  10.480
17213W        W88796   7.169  18.252  13.902
17214W        W88797  41.880   9.389   2.385
17215W        W88798  43.460   6.946   0.693
17216W        W88799   6.856  29.755  13.312
17217W        W88800   4.840  38.001  10.134
17218W        W88801  41.544  37.005  11.912
17219W        W88802  11.390  18.084   0.955
17220W        W88803  29.366  28.379   0.355
17221W        W88804  44.383  30.557  13.515
17222W        W88805  13.911   7.221   1.379
17223W        W88806  19.506   6.040  14.551
17224W        W88807  16.315  35.125  11.864
17225W        W88808  32.221  41.284   2.394
17226W        W88809  12.163   8.721  13.461
17227W        W88810   1.468  42.825   4.175
17228W        W88811  42.088  20.397   2.201
17229W        W88812  44.941  35.207  10.610
17230W        W88813  32.484  10.704  12.770
17231W        W88814  11.982  24.161  11.723
17232W        W88815  33.037  42.528   0.592
17233W        W88816  41.075  18.605  11.660
17234W        W88817  28.975  29.208  11.594
17235W        W88818  12.144   8.237  14.290
17236W        W88819  39.306   3.856  13.633
17237W        W88820  30.496   0.025  14.990
17238W        W88821  26.633  19.225   0.545
17239W        W88822  30.512  11.647  11.985
17240W        W88823  20.204   4.244   2.544
17241W        W88824  27.886  40.346   3.559
17242W        W88825  35.399  26.758   3.208
17243W        W88826  13.169  18.717  10.766
17244W        W88827   8.860   3.544  14.515
17245W        W88828  25.715  36.071   1.424
17246W        W88829  28.519  44.844   0.253
17247W        W88830  22.850  28.477   3.208
17248W        W88831   8.726  11.552   1.253
17249W        W88832  18.275  12.306   1.758
17250W        W88833  35.952   5.804   2.923
17251W        W88834   0.050  31.690   3.183
17252W        W88835  36.290  44.945   3.273
17253W        W88836  43.652  13.304  11.604
17254W        W88837  23.665  12.968   1.309
17255W        W88838  44.690  44.395   4.230
17256W        W88839  16.269  23.208  11.582
17257W        W88840  17.191   2.946   0.841
17258W        W88841  34.013  42.926   3.354
17259W        W88842  41.356  20.811  13.994
17260W        W88843  29.392   1.791  10.142
17261W        W88844  38.829   0.280  11.027
17262W        W88845   4.920  21.399   4.530
17263W        W88846  32.146   9.658   2.773
17264W        W88847  15.499  15.556   2.216
17265W        W88848  19.732  10.611  11.135
17266W        W88849   9.303   7.158   3.112
17267W        W88850  42.735  11.851   1.647
17268W        W88851  38.299  17.159  13.142
17269W        W88852  22.502  18.853   4.628
17270W        W88853  16.125   6.362   4.102
17271W        W88854   2.456  24.028   2.713
17272W        W88855  29.954   9.976   4.689
17273W        W88856  16.540   7.088   4.905
17274W        W88857  43.918  11.367  14.008
17275W        W88858  28.787  10.959   2.680
17276W        W88859   0.310  34.869  14.565
17277W        W88860  28.010  17.380  14.478
17278W        W88861  34.311  35.691  12.996
17279W        W88862  30.899  33.830  14.462
17280W        W88863  18.875  33.631   2.453
17281W        W88864   5.166   5.296   2.227
17282W        W88865  27.949  15.046   3.694
17283W        W88866   0.309  28.327  13.262
17284W        W88867   0.526  26.674  12.807
17285W        W88868   5.021  38.881   5.240
17286W        W88869  20.639  13.178   4.102
17287W        W88870   7.796   3.502   0.219
17288W        W88871  43.218  39.367  10.986
17289W        W88872  29.741  25.689   1.936
17290W        W88873   0.780   8.358  13.373
17291W        W88874  12.853  17.742   0.349
17292W        W88875  40.845  31.219  14.789
17293W        W88876   3.731  22.088   0.495
17294W        W88877  40.437  44.928   1.583
17295W        W88878  22.575  23.101  13.120
17296W        W88879  25.784   0.289  13.032
17297W        W88880   7.477  34.112   2.118
17298W        W88881   0.428   5.035  14.285
17299W        W88882   2.881  41.443  12.056
17300W        W88883  14.798   9.132  10.548
17301W        W88884   1.988  25.047   2.249
17302W        W88885  13.792  13.659  11.895
17303W        W88886   8.454   7.495  11.130
17304W        W88887  31.555  23.365   3.216
17305W        W88888  36.714  32.985   4.088
17306W        W88889  36.135  17.391   2.736
17307W        W88890  21.593  15.157   2.752
17308W        W88891  10.479  23.284  13.155
17309W        W88892  43.564  38.787   0.170
17310W        W88893  17.815  40.218  11.463
17311W        W88894  28.343  20.130   2.323
17312W        W88895  21.934  10.656   2.267
17313W        W88896  24.639  15.196   4.111
17314W        W88897  16.191  16.867  12.989
17315W        W88898  24.176   9.232   1.152
17316W        W88899  12.783  38.715   3.664
17317W        W88900   3.337   6.163  10.993
17318W        W88901  31.155  15.874  13.080
17319W        W88902  36.538   1.516   0.429
17320W        W88903  32.982  12.298   2.703
17321W        W88904  20.591   0.057   4.158
17322W        W88905  28.665  15.091  13.210
17323W        W88906  26.476  29.756  14.889
17324W        W88907  23.313  13.709   4.614
17325W        W88908  40.851   4.742   4.069
17326W        W88909  44.441  17.759  12.542
17327W        W88910  35.055  35.744  10.821
17328W        W88911  41.052   3.985   3.594
17329W        W88912   7.689   8.213  12.483
17330W        W88913   6.345  25.942   2.894
17331W        W88914   8.277   7.946   1.615
17332W        W88915  12.306   2.446   1.676
17333W        W88916  22.106  37.993   3.877
17334W        W88917  26.800  32.443   1.913
17335W        W88918  36.567  17.135  11.643
17336W        W88919  37.518  39.282   0.300
17337W        W88920   3.465  44.433  13.954
17338W        W88921  14.886   3.855   2.280
17339W        W88922  20.343  16.464   9.919
17340W        W88923  42.766   9.817   3.971
17341W        W88924   3.797  35.475   1.162
17342W        W88925  34.875  16.229  11.142
17343W        W88926  11.606  30.652   3.147
17344W        W88927  44.044  19.507   4.095
17345W        W88928  32.636  35.839  11.997
17346W        W88929  43.797  25.110   3.252
17347W        W88930  36.901  37.346   2.935
17348W        W88931  26.970  25.183   2.580
17349W        W88932  20.743  25.595   0.803
17350W        W88933  28.661  11.616  10.225
17351W        W88934  44.327  27.710  12.659
17352W        W88935  20.597   5.990   4.885
17353W        W88936  14.275  20.040   4.485
17354W        W88937  41.288  28.129   1.931
17355W        W88938  39.993  17.311   1.650
17356W        W88939  29.639  20.828   3.536
17357W        W88940  24.246  14.079  12.994
17358W        W88941   5.734   7.703   2.347
17359W        W88942  41.306  10.701  11.056
17360W        W88943   1.447  17.773   1.264
17361W        W88944  42.536   8.093   2.853
17362W        W88945  15.682  31.871   0.984
17363W        W88946  23.081   7.318   3.655
17364W        W88947  15.857  39.301   2.896
17365W        W88948  30.560  12.326  12.492
17366W        W88949  29.211   6.313  10.976
17367W        W88950  36.599  38.303   2.822
17368W        W88951   1.668  43.567   0.220
17369W        W88952   4.899   9.722  13.266
17370W        W88953  39.306   7.175   4.205
17371W        W88954  15.095  19.731   4.327
17372W        W88955  41.519  26.108  12.032
17373W        W88956  37.922   1.899  12.839
17374W        W88957  14.033  38.297   4.453
17375W        W88958   3.857  15.558   1.715
17376W        W88959  28.399  28.204   0.966
17377W        W88960  40.487  14.412  10.419
17378W        W88961   0.325  18.086   2.661
17379W        W88962   9.794  19.065   4.078
17380W        W88963  35.433  39.428   1.504
17381W        W88964  27.629  22.165   1.361
17382W        W88965  23.767   4.810  14.735
17383W        W88966  22.552  28.954   0.362
17384W        W88967  16.468   2.431   1.676
17385W        W88968  18.593  36.863   2.012
17386W        W88969  39.104  12.682  11.554
17387W        W88970  43.724  23.717   0.292
17388W        W88971  35.461  16.034   0.740
17389W        W88972  21.532  41.570   0.814
17390W        W88973   8.332   0.831   1.876
17391W        W88974   5.177  30.896   0.466
17392W        W88975  29.783   4.212  11.620
17393W        W88976  25.977  22.166  13.830
17394W        W88977  18.025  16.153  13.951
17395W        W88978   4.223  11.591   1.664
17396W        W88979   1.269  33.399  14.837
17397W        W88980  29.525  43.103   0.526
17398W        W88981  34.100  24.697  14.485
17399W        W88982  10.364   5.031  13.663
17400W        W88983  34.368  21.762   4.843
17401W        W88984  32.608   0.985  14.385
17402W        W88985  24.707  21.082   1.781
17403W        W88986   6.931   1.185   2.845
17404W        W88987  36.058  18.017   3.323
17405W        W88988  44.750  12.537  11.934
17406W        W88989  36.978  17.066  13.617
17407W        W88990  23.737   1.977   4.447
17408W        W88991   3.623  34.168  12.063
17409W        W88992  17.608  34.038  12.963
17410W        W88993  16.240  16.708  11.992
17411W        W88994  27.215  15.187  14.353
17412W        W88995   9.868  11.904   2.685
17413W        W88996  42.956  37.984  12.898
17414W        W88997  34.689  11.855   0.308
17415W        W88998   1.649   1.747   3.245
17416W        W88999  41.886  13.854  12.614
17417W        W89000  42.870  29.624  12.156
17418W        W89001  23.574  34.474  14.873
17419W        W89002  38.834   6.032  14.208
17420W        W89003  25.241  14.097  14.044
17421W        W89004  44.663  39.786   2.327
17422W        W89005  20.212   4.820  13.562
17423W        W89006  28.415   9.294   2.799
17424W        W89007   8.771  44.232  11.798
17425W        W89008  12.686  11.585  10.333
17426W        W89009  41.995  18.271  11.014
17427W        W89010  21.246  20.609   1.133
17428W        W89011  17.757  41.032  11.606
17429W        W89012  37.374  39.389  12.364
17430W        W89013   7.723  12.680  10.284
17431W        W89014  31.205  43.787   3.210
17432W        W89015  28.496   9.733   3.101
17433W        W89016  26.187   7.680  13.384
17434W        W89017  26.022   5.392   5.008
17435W        W89018  22.321  26.101  10.662
17436W        W89019  29.461  16.872  13.901
17437W        W89020  35.835  39.187  10.792
17438W        W89021  28.255  40.377  11.172
17439W        W89022  33.052  15.286   3.709
17440W        W89023  32.619  11.251  11.014
17441W        W89024  33.572   8.345   0.174
17442W        W89025   6.731  10.349  14.479
17443W        W89026  35.799  28.128  14.772
17444W        W89027  23.966  11.791   0.547
17445W        W89028  41.825  37.976   1.947
17446W        W89029  34.212  22.636  14.905
17447W        W89030  13.333  30.668  13.045
17448W        W89031  33.308  35.531  11.716
17449W        W89032  17.683  17.065   4.567
17450W        W89033   1.410  37.811   4.582
17451W        W89034  14.582  39.750  14.952
17452W        W89035  34.874  23.297  12.478
17453W        W89036  37.617  24.486  14.313
17454W        W89037  12.478  37.877  11.074
17455W        W89038  43.813  39.351   4.609
17456W        W89039  33.113  14.027  11.113
17457W        W89040  20.222  36.730   2.391
17458W        W89041  27.129  22.125   0.216
17459W        W89042  37.511  36.905   1.369
17460W        W89043  39.806  15.239  13.467
17461W        W89044  24.625  37.041   2.219
17462W        W89045   5.357   6.177   3.615
17463W        W89046  14.359   5.673   1.771
17464W        W89047  20.732  33.622   1.518
17465W        W89048  21.489  13.346   3.229
17466W        W89049  33.035  40.457   4.596
17467W        W89050  12.180  23.149  14.783
17468W        W89051  32.915   8.150  11.887
17469W        W89052  36.323  32.375  14.746
17470W        W89053  17.899   1.737  11.487
17471W        W89054  37.121  44.629   1.681
17472W        W89055  32.094  17.445  13.393
17473W        W89056  40.435  28.167   1.372
17474W        W89057  24.990   7.499   4.523
17475W        W89058  16.710  15.328  11.025
17476W        W89059  40.906  11.262   1.911
17477W        W89060  28.032  22.210  11.502
17478W        W89061  26.225  42.463  13.819
17479W        W89062  11.879  31.489  13.521
17480W        W89063  24.950   1.427   1.848
17481W        W89064  15.586   4.758   2.271
17482W        W89065   3.235  24.233  12.696
17483W        W89066   5.920  17.135  11.930
17484W        W89067  14.002  12.223  12.797
17485W        W89068  26.576  36.104  14.705
17486W        W89069  44.865  10.783   2.703
17487W        W89070   2.957  14.092  12.821
17488W        W89071  27.504  39.071   1.275
17489W        W89072  20.819  20.452   1.891
17490W        W89073  24.260  23.527   1.481
17491W        W89074  42.224  40.512   1.449
17492W        W89075   2.794  13.373  13.304
17493W        W89076   4.246  42.302  11.417
17494W        W89077  13.081  25.120  10.716
17495W        W89078   9.387  24.041  12.594
17496W        W89079   7.893  19.608  13.685
17497W        W89080   0.994  18.299  12.569
17498W        W89081   1.224   1.786  14.850
17499W        W89082  42.625  15.769   3.700
17500W        W89083   5.599  15.607  13.356
17501W        W89084  33.325  12.128  14.013
17502W        W89085   9.101  36.910  14.464
17503W        W89086  26.498  18.059  12.594
17504W        W89087  34.449  20.476   2.385
17505W        W89088  12.545  35.205  11.230
17506W        W89089  41.364  13.262  14.718
17507W        W89090  44.251  19.622  10.776
17508W        W89091  39.941  39.378  12.221
17509W        W89092  34.901  39.969  14.374
17510W        W89093  24.578   4.282  14.446
17511W        W89094  36.624   0.379  14.467
17512W        W89095  13.936  15.515  12.987
17513W        W89096  34.551  19.957  13.791
17514W        W89097   4.974   1.732  10.251
17515W        W89098  11.987  36.066   0.305
17516W        W89099  30.482   2.020  11.624
17517W        W89100  34.462  25.147   1.179
17518W        W89101   1.342   0.040   3.768
17519W        W89102  44.267  38.698   4.164
17520W        W89103  17.583  30.111  14.105
17521W        W89104   1.389  39.347  14.918
17522W        W89105  30.232   4.490  11.689
17523W        W89106   7.293  27.135  14.556
17524W        W89107  34.074  23.371  12.957
17525W        W89108   8.427  41.041  12.962
17526W        W89109  34.192   3.715   3.320
17527W        W89110  24.240  22.634  11.201
17528W        W89111  19.072  29.955   4.049
17529W        W89112   1.424  18.632  12.831
17530W        W89113  39.927  43.036  13.445
17531W        W89114   6.146  29.111  14.808
17532W        W89115  14.785  16.149   4.343
17533W        W89116  29.009  18.935   2.316
17534W        W89117   9.463  27.786  10.744
17535W        W89118  26.205  19.879  12.564
17536W        W89119   9.803   7.989   0.113
17537W        W89120  13.417  30.700   0.778
17538W        W89121   6.775   6.750  13.292
17539W        W89122  41.414  21.827  11.622
17540W        W89123  21.534  27.798   4.832
17541W        W89124  32.072  41.855  12.814
17542W        W89125  17.239  40.471   0.719
17543W        W89126  29.026   3.451   0.204
17544W        W89127  14.329  15.028   1.850
17545W        W89128  14.851  23.852   2.254
17546W        W89129  33.757   2.784   1.894
17547W        W89130  36.917  39.569   4.545
17548W        W89131  10.818  18.299   2.769
17549W        W89132  15.677  44.274   1.893
17550W        W89133  14.220  27.944   5.033
17551W        W89134  36.035   4.851   0.473
17552W        W89135  33.919  19.443  10.880
17553W        W89136  21.103  19.936   2.763
17554W        W89137   7.351  18.275  11.121
17555W        W89138  21.010  41.949   2.790
17556W        W89139  26.543  21.830   4.134
17557W        W89140  21.010  22.430  11.978
17558W        W89141  16.192  42.398   4.654
17559W        W89142   9.053  19.521  14.971
17560W        W89143   5.268  13.621   0.374
17561W        W89144  29.960  22.480  11.568
17562W        W89145  27.667  10.263   1.008
17563W        W89146  30.453   2.348  13.975
17564W        W89147  28.169   5.657   1.575
17565W        W89148  22.927  33.714  10.233
17566W        W89149   5.591  20.536  14.282
17567W        W89150  38.716  10.528  13.145
17568W        W89151   4.474  31.457  11.127
17569W        W89152  13.219  13.902   3.684
17570W        W89153  44.986   6.831   4.976
17571W        W89154  35.970  44.891  14.113
17572W        W89155  19.052  27.259  12.896
17573W        W89156  39.815  32.510   2.258
17574W        W89157  25.472  26.624  12.955
17575W        W89158  43.787  12.207   4.633
17576W        W89159  40.082   0.373  13.536
17577W        W89160  27.595   8.402   3.254
17578W        W89161  12.720  37.299  12.290
17579W        W89162  39.798  38.091  12.032
17580W        W89163  44.760  35.660   3.642
17581W        W89164  25.352  35.958  13.839
17582W        W89165  30.100  43.051   3.200
17583W        W89166   1.278  24.184  12.985
17584W        W89167   5.918  44.794   1.165
17585W        W89168  22.963  16.782   4.012
17586W        W89169  18.713  21.903   4.976
17587W        W89170  11.686  35.404   2.786
17588W        W89171  21.591  26.059  12.432
17589W        W89172  39.237  28.634   1.426
17590W        W89173  29.872   2.258  11.659
17591W        W89174  30.961  14.693  13.674
17592W        W89175  40.219  18.515  14.342
17593W        W89176  41.429  28.706  11.075
17594W        W89177  34.108  35.778   2.849
17595W        W89178   2.979  28.537   3.563
17596W        W89179  36.512  11.603   2.840
17597W        W89180  16.127  42.274   3.154
17598W        W89181  13.722  20.861   0.318
17599W        W89182   8.151   1.688   4.259
17600W        W89183  14.012  22.440  14.442
17601W        W89184  37.402  16.643  11.950
17602W        W89185  29.016  16.271  11.540
17603W        W89186  13.870  29.459   0.305
17604W        W89187  29.895  25.153  12.633
17605W        W89188   8.280  13.424   2.879
17606W        W89189  14.270   9.896  10.662
17607W        W89190  17.198  25.456  12.837
17608W        W89191  20.977  42.575  13.891
17609W        W89192  11.882  37.912   0.452
17610W        W89193   9.658  39.851  14.599
17611W        W89194  27.364   1.833  11.996
17612W        W89195  20.987  20.642   4.851
17613W        W89196   8.161  19.260  11.402
17614W        W89197  10.705  38.419  14.032
17615W        W89198  29.862  21.459  14.372
17616W        W89199  40.324   5.867  10.209
17617W        W89200  21.910  35.463   0.957
17618W        W89201  33.408   9.003  12.141
17619W        W89202   3.549  40.839  12.111
17620W        W89203  21.284  27.126   2.370
17621W        W89204  14.247   1.175   2.351
17622W        W89205  37.988  35.821   1.857
17623W        W89206   1.258  42.842   4.657
17624W        W89207   6.765  14.656   2.786
17625W        W89208  25.757  44.063  14.733
17626W        W89209  10.363  16.183  10.636
17627W        W89210  35.187  27.818  11.347
17628W        W89211  44.397  38.569  10.707
17629W        W89212  19.823  39.307   1.805
17630W        W89213  12.644  34.879   2.906
17631W        W89214  39.012  34.379  13.980
17632W        W89215  42.759  10.514  10.818
17633W        W89216  39.262  20.199   2.784
17634W        W89217   4.959  27.664   0.465
17635W        W89218  23.461  35.806   3.288
17636W        W89219   6.119   6.352   0.900
17637W        W89220  40.808  30.901   0.809
17638W        W89221   5.804  22.048  14.255
17639W        W89222  37.365  16.578  10.507
17640W        W89223  14.680  26.449   0.885
17641W        W89224   1.013  37.017   2.221
17642W        W89225  42.855  29.587  11.649
17643W        W89226  40.421  29.202  14.451
17644W        W89227  40.375  34.548   4.565
17645W        W89228  30.429  29.515  13.397
17646W        W89229   5.973  27.104   1.924
17647W        W89230  43.132  16.562  13.800
17648W        W89231  18.755  15.373   4.474
17649W        W89232  30.035  28.202   2.600
17650W        W89233  24.600  10.909   4.524
17651W        W89234  12.683  26.444  13.021
17652W        W89235   0.635   6.276  10.311
17653W        W89236  33.232  17.132  13.951
17654W        W89237  22.752   7.320  11.946
17655W        W89238  15.679  32.916  11.641
17656W        W89239  28.890  39.933  13.428
17657W        W89240  10.665  23.308  13.641
17658W        W89241  32.651  29.756   0.488
17659W        W89242  15.167  32.878   3.764
17660W        W89243  20.670  32.224   4.803
17661W        W89244  38.830  35.719  14.322
17662W        W89245  34.619  30.985  11.783
17663W        W89246  30.606  32.555  12.417
17664W        W89247  19.534  32.038   3.595
17665W        W89248  20.693  36.086   3.998
17666W        W89249  38.882  28.561   0.269
17667W        W89250  30.713   2.701   2.747
17668W        W89251  35.177  40.300   4.145
17669W        W89252  23.962  22.692   2.641
17670W        W89253  16.796   8.682  14.906
17671W        W89254  16.526  42.017   4.837
17672W        W89255  14.357   0.824  14.376
17673W        W89256   7.911  29.659   0.021
17674W        W89257  44.506  34.781   4.108
17675W        W89258  27.346  25.309   2.240
17676W        W89259  35.892  37.566   2.671
17677W        W89260  24.807  23.266   2.910
17678W        W89261  17.948  29.951  12.959
17679W        W89262  15.800  39.915   2.331
17680W        W89263  41.773  13.570  11.072
17681W        W89264  10.876   9.689   3.639
17682W        W89265   1.772  43.262   3.103
17683W        W89266   3.163  10.986  12.570
17684W        W89267   9.647  29.649  10.811
17685W        W89268  13.246   8.869  14.293
17686W        W89269  20.486  23.121  13.825
17687W        W89270   8.019   4.217   3.381
17688W        W89271  24.495  33.452   3.164
17689W        W89272  35.586  41.816  12.977
17690W        W89273  10.848  40.640  14.848
17691W        W89274   5.718  34.037   1.211
17692W        W89275   4.782  34.141   0.385
17693W        W89276  17.098  11.344  10.764
17694W        W89277  18.729  44.508  13.317
17695W        W89278  17.775  32.323  12.012
17696W        W89279   1.973  36.581   1.927
17697W        W89280  24.124  14.264   4.153
17698W        W89281  22.365  29.604  11.865
17699W        W89282  34.361  15.568   4.875
17700W        W89283  33.583  41.396  12.496
17701W        W89284  38.591  32.929   4.205
17702W        W89285   6.929  23.060   1.829
17703W        W89286  38.428   8.774  13.641
17704W        W89287  34.201   6.420   1.211
17705W        W89288  41.293  26.972   0.900
17706W        W89289   1.482   1.065  13.474
17707W        W89290  31.982  34.112   0.934
17708W        W89291  26.675  44.404   2.765
17709W        W89292  34.365  15.170  13.811
17710W        W89293   5.907  41.418  14.879
17711W        W89294  27.882  10.750   0.516
17712W        W89295  20.657   8.906   1.733
17713W        W89296  37.321  42.312   4.553
17714W        W89297  27.975  28.165  10.391
17715W        W89298  25.740  22.325  14.319
17716W        W89299  34.990  44.628  10.255
17717W        W89300   1.194   4.854   3.817
17718W        W89301  10.817   7.928   2.249
17719W        W89302   2.397   6.714  14.574
17720W        W89303   7.535   1.868  13.242
17721W        W89304  25.194  34.146   1.433
17722W        W89305  38.566   5.697   1.335
17723W        W89306  32.715  16.572  14.967
17724W        W89307  20.533   8.461   3.091
17725W        W89308  43.409   9.917  14.916
17726W        W89309  32.635  42.431   1.916
17727W        W89310   7.143  22.663  14.360
17728W        W89311  11.317   6.135   4.466
17729W        W89312  22.468  22.923   1.626
17730W        W89313  17.198  38.516   1.894
17731W        W89314  36.552  16.698   3.961
17732W        W89315   5.947  43.392  11.182
17733W        W89316  13.759  26.467   0.823
17734W        W89317  14.683  29.584  12.437
17735W        W89318  25.264  18.175  13.861
17736W        W89319  43.008   8.098   2.635
17737W        W89320  19.083  35.407   1.796
17738W        W89321   4.045   3.731  14.422
17739W        W89322  15.548  28.651  13.426
17740W        W89323   4.557  37.207   3.719
17741W        W89324  22.517  19.549  14.349
17742W        W89325   2.351   8.079   3.227
17743W        W89326  43.401  20.321   3.694
17744W        W89327  28.510  21.751   2.182
17745W        W89328  33.889  30.541   2.269
17746W        W89329  28.864  22.003  12.346
17747W        W89330  15.391  11.636   3.236
17748W        W89331  25.711  33.983   2.206
17749W        W89332  42.776   8.435   3.164
17750W        W89333   9.872  28.005   3.299
17751W        W89334  25.666  19.557   3.526
17752W        W89335  22.114  11.358  10.888
17753W        W89336   2.568   3.962   2.306
17754W        W89337  43.964  16.663  11.038
17755W        W89338  27.989  19.147  14.398
17756W        W89339  38.510   1.992  11.630
17757W        W89340  35.073  30.123  14.881
17758W        W89341  38.188  31.060  11.480
17759W        W89342   7.682  41.893   2.781
17760W        W89343  37.772  24.424  11.093
17761W        W89344  44.545  13.855   3.120
17762W        W89345  18.384  11.334   3.653
17763W        W89346  43.430  20.685  14.435
17764W        W89347  33.049  23.645   3.833
17765W        W89348  30.580  14.458  14.350
17766W        W89349  41.299  31.500  12.800
17767W        W89350  11.296  32.298  11.094
17768W        W89351  26.941  12.256   3.651
17769W        W89352   6.414  10.776   2.882
17770W        W89353  21.462   3.019   4.993
17771W        W89354   5.304  10.950  13.793
17772W        W89355  21.479  40.986   2.828
17773W        W89356  20.604  21.181   2.722
17774W        W89357  10.962   6.352  13.483
17775W        W89358  15.832   9.689   0.620
17776W        W89359  32.534  38.086   4.211
17777W        W89360  42.755  30.490  14.003
17778W        W89361  32.101  22.841   3.155
17779W        W89362  33.545   0.250   2.508
17780W        W89363  25.003  41.716  12.412
17781W        W89364   8.248   5.393  13.457
17782W        W89365  24.125  27.529   3.559
17783W        W89366  16.016  25.857  12.456
17784W        W89367   3.948  12.785  10.590
17785W        W89368   2.897  32.882  12.874
17786W        W89369  26.031  30.699   3.720
17787W        W89370  34.901   1.912   5.358
17788W        W89371  30.894  36.664   1.015
17789W        W89372  39.598  10.250   3.072
17790W        W89373  18.318   8.676  12.476
17791W        W89374  32.726  29.117  12.509
17792W        W89375  29.245  41.771   1.268
17793W        W89376  21.932  27.923   5.108
17794W        W89377  23.989  26.872  11.670
17795W        W89378  12.357  25.196   3.318
17796W        W89379  43.043   7.745  14.553
17797W        W89380  35.842  10.292  12.341
17798W        W89381  35.059  33.572  13.091
17799W        W89382  20.561   7.285  14.733
17800W        W89383  24.964  13.224  10.484
17801W        W89384  33.673  31.771  13.463
17802W        W89385  14.787   7.278  10.729
17803W        W89386  44.477  33.808  13.931
17804W        W89387  25.088  34.360   1.902
17805W        W89388  11.664  34.502  10.369
17806W        W89389   4.123  36.518  13.107
17807W        W89390   6.268  30.400  11.003
17808W        W89391  22.219  41.705  12.043
17809W        W89392   9.235  19.162  11.001
17810W        W89393  39.968  30.702   0.265
17811W        W89394  14.203  26.630  10.777
17812W        W89395  26.992  31.709   9.695
17813W        W89396   2.328   8.791   1.198
17814W        W89397  30.338  10.747  14.367
17815W        W89398  15.387  25.199   3.873
17816W        W89399  27.656  21.961   3.064
17817W        W89400  36.366  14.728  12.271
17818W        W89401  35.486  44.013   3.427
17819W        W89402  32.746   6.665  10.569
17820W        W89403  31.608  41.307   3.082
17821W        W89404  17.457   9.002  12.056
17822W        W89405  18.492  22.591  11.968
17823W        W89406   2.867  42.109   1.672
17824W        W89407   2.415   4.769  10.349
17825W        W89408  13.848  37.932   0.724
17826W        W89409   8.572  22.962   0.280
17827W        W89410  24.463   2.698   4.613
17828W        W89411  33.765  15.156  11.237
17829W        W89412  32.403  41.998  11.543
17830W        W89413  12.121  18.576   0.748
17831W        W89414  14.764  41.853  11.674
17832W        W89415  35.967   2.447  12.752
17833W        W89416  39.850  26.032  14.917
17834W        W89417  11.914   7.653   4.194
17835W        W89418  31.963  15.677  14.696
17836W        W89419  21.318  26.566   1.209
17837W        W89420   1.512   2.062   0.535
17838W        W89421  41.700   2.391   1.788
17839W        W89422  15.505  13.098   1.443
17840W        W89423  10.931  18.985   3.836
17841W        W89424   7.340   1.343   4.810
17842W        W89425  21.181  14.337  11.486
17843W        W89426   9.487  20.598  14.603
17844W        W89427  35.373   3.306  14.071
17845W        W89428  39.784  11.098   0.837
17846W        W89429   5.265  35.284  13.019
17847W        W89430   1.172  19.994   2.137
17848W        W89431  36.525  17.535   3.930
17849W        W89432  27.546  22.429   2.834
17850W        W89433  24.521   6.692  12.085
17851W        W89434  25.048  27.572   0.698
17852W        W89435  10.853  33.083  14.058
17853W        W89436  42.512  26.117   2.639
17854W        W89437   8.129  26.616   2.504
17855W        W89438  21.584   3.364  14.293
17856W        W89439  26.902  24.086   4.023
17857W        W89440  32.974  22.024   5.080
17858W        W89441  33.045  16.551   2.813
17859W        W89442  25.255  33.576   5.186
17860W        W89443  14.843  33.498  11.481
17861W        W89444   9.392  39.373   4.476
17862W        W89445  13.671  10.169  12.016
17863W        W89446  12.638   3.192  13.547
17864W        W89447  17.665  25.102   1.738
17865W        W89448  44.711  35.906   0.338
17866W        W89449  27.213  12.281  12.512
17867W        W89450  38.799  39.852  10.236
17868W        W89451  20.560  22.135   2.156
17869W        W89452  18.694  22.867   3.317
17870W        W89453   3.045  15.056  12.662
17871W        W89454  40.538  42.486  11.013
17872W        W89455  18.695   7.913   0.894
17873W        W89456  16.158  26.363  12.514
17874W        W89457  34.829   7.318  11.925
17875W        W89458  22.498  38.330   2.213
17876W        W89459  41.067  37.152   3.510
17877W        W89460  19.105  37.808  12.808
17878W        W89461  26.394  35.991  13.819
17879W        W89462  19.326  17.881  11.876
17880W        W89463  29.292  16.603   3.838
17881W        W89464  11.789  41.448  12.572
17882W        W89465  31.546  28.451  10.703
17883W        W89466  20.004  28.443  11.764
17884W        W89467  14.276  28.028  12.084
17885W        W89468  11.145  12.106   1.850
17886W        W89469  12.250  40.828   4.300
17887W        W89470   5.662  24.901   1.531
17888W        W89471  13.236  22.223   0.776
17889W        W89472  16.781  33.738  12.834
17890W        W89473  14.537  44.466  13.052
17891W        W89474  28.697  39.537  11.041
17892W        W89475  26.706  35.124   5.133
17893W        W89476  27.588   0.798   1.175
17894W        W89477  26.574  44.207   1.141
17895W        W89478   4.496  42.088  14.514
17896W        W89479   6.468   5.957   4.238
17897W        W89480   0.762  37.056  12.774
17898W        W89481  27.510  39.063  13.509
17899W        W89482   7.502  10.183   4.530
17900W        W89483  16.528  20.763  12.521
17901W        W89484  39.226  41.836  13.445
17902W        W89485  39.781  23.180  13.438
17903W        W89486  38.491   7.564   1.390
17904W        W89487  36.491  37.531   3.468
17905W        W89488   9.242  18.757  13.034
17906W        W89489  38.223  33.957   2.010
17907W        W89490  39.169   8.121   0.174
17908W        W89491  24.763  30.423  14.179
17909W        W89492  23.088   3.220   0.020
17910W        W89493  21.262  28.612   3.254
17911W        W89494  22.096  17.557  14.249
17912W        W89495   0.516  26.364   4.960
17913W        W89496   3.780  30.783   2.341
17914W        W89497   6.706  31.427   3.964
17915W        W89498  37.579   2.489   1.845
17916W        W89499  11.152   7.022   3.714
17917W        W89500   6.138  43.968  11.024
17918W        W89501  34.815  41.318   0.546
17919W        W89502  12.395  25.386   0.358
17920W        W89503  13.680  33.904   4.300
17921W        W89504  20.520  33.192  12.996
17922W        W89505   8.398   2.740   1.765
17923W        W89506  42.511  40.343  14.561
17924W        W89507  16.184  29.459  14.936
17925W        W89508   2.512  12.287  12.891
17926W        W89509  17.514  28.687  12.481
17927W        W89510  41.621  36.861   4.847
17928W        W89511   2.304   7.756  10.404
17929W        W89512  27.700  24.405   4.217
17930W        W89513  18.752  38.528   3.796
17931W        W89514   2.183  22.684  13.422
17932W        W89515  28.072  22.544  13.307
17933W        W89516   6.268  31.107  13.388
17934W        W89517  15.619  21.807  11.454
17935W        W89518  33.205   0.853   0.903
17936W        W89519  12.716  40.466  12.023
17937W        W89520   9.785  17.308  10.990
17938W        W89521  12.726  12.803  13.508
17939W        W89522  14.778  42.232   1.827
17940W        W89523  41.669  26.601  11.065
17941W        W89524  17.804  20.116  14.536
17942W        W89525  34.673  34.153   1.129
17943W        W89526   2.698   1.354  13.530
17944W        W89527  19.562   7.357   3.792
17945W        W89528  30.110  23.907   2.744
17946W        W89529  29.118  37.530   4.765
17947W        W89530  37.377   5.014  11.092
17948W        W89531  43.234  13.694   0.884
17949W        W89532  33.334   1.228   3.086
17950W        W89533  28.133  44.721  11.004
17951W        W89534  25.995   4.766  11.971
17952W        W89535  32.917   4.291  13.855
17953W        W89536  20.469  14.562  11.169
17954W        W89537  18.938   7.359   1.230
17955W        W89538  17.657  29.173  10.721
17956W        W89539   3.519   9.634   4.816
17957W        W89540  32.072  18.327   0.503
17958W        W89541  31.149   1.944  12.265
17959W        W89542  44.316  42.868   0.078
17960W        W89543  24.624  29.131   0.906
17961W        W89544   6.115  21.189   0.849
17962W        W89545  20.002   2.304  10.711
17963W        W89546  13.257   4.942   2.743
17964W        W89547  37.971   2.828   3.110
17965W        W89548  13.853  23.025  13.111
17966W        W89549  23.292   3.856   2.183
17967W        W89550  39.158  10.929  13.324
17968W        W89551  21.529  18.651   2.768
17969W        W89552  17.773   8.162  11.154
17970W        W89553  16.993  10.065  13.005
17971W        W89554  43.723  42.064   1.125
17972W        W89555  23.196  42.521  11.117
17973W        W89556  32.806  18.590   1.876
17974W        W89557  37.997  13.789   4.230
17975W        W89558  44.465  21.318  13.516
17976W        W89559  19.569  32.435   0.849
17977W        W89560  31.621  28.135  11.113
17978W        W89561  39.116   6.387   4.592
17979W        W89562  42.257  22.499   0.992
17980W        W89563  28.043  16.970  13.527
17981W        W89564   7.246  42.375  14.320
17982W        W89565  43.375  19.770   0.397
17983W        W89566  29.560  33.361   0.023
17984W        W89567  14.813  11.500  14.851
17985W        W89568  11.578  17.409   2.808
17986W        W89569  34.168   2.268   3.284
17987W        W89570  19.095  34.149   3.549
17988W        W89571  20.605  38.939  11.627
17989W        W89572  17.453  17.662   1.305
17990W        W89573  40.426   6.631  10.605
17991W        W89574  19.153  11.237   4.389
17992W        W89575   5.350  36.870   0.109
17993W        W89576  21.507   2.776  11.198
17994W        W89577   2.699  14.128  13.683
17995W        W89578   5.748  22.852  12.481
17996W        W89579  18.727  34.844   3.232
17997W        W89580  29.556  32.819  13.786
17998W        W89581  23.246  17.799   0.124
17999W        W89582  24.815  29.890  13.448
18000W        W89583  18.900  30.226  13.105
18001W        W89584  29.998  38.295   1.773
18002W        W89585  13.379  40.748  12.960
18003W        W89586  10.384  22.609  10.202
18004W        W89587  20.203   5.110   4.616
18005W        W89588  27.959  13.384  11.822
18006W        W89589   5.260  21.424   2.818
18007W        W89590   4.194  28.162   2.484
18008W        W89591  21.711  39.877  10.746
18009W        W89592  44.300  33.678  12.855
18010W        W89593  36.957  29.745   4.965
18011W        W89594   8.399   7.139  12.864
18012W        W89595  19.221  30.533  14.279
18013W        W89596  24.018  31.105  14.909
18014W        W89597  27.522  29.090   1.979
18015W        W89598  28.525  20.247   4.659
18016W        W89599  37.120  18.051  11.007
18017W        W89600  20.577  15.765  13.363
18018W        W89601   1.146   1.833  12.624
18019W        W89602  42.547  11.665  11.107
18020W        W89603  31.623  33.202   1.593
18021W        W89604  38.777  25.116  10.200
18022W        W89605  21.544  44.082  13.494
18023W        W89606   0.777  35.363   3.128
18024W        W89607  29.419  36.940   4.830
18025W        W89608  24.376   6.888  14.054
18026W        W89609  13.590  12.432   0.874
18027W        W89610  32.985  15.638   0.999
18028W        W89611   8.376  44.024  11.024
18029W        W89612   8.870  42.831   3.699
18030W        W89613   4.864   9.494   4.453
18031W        W89614   0.938  11.837  11.659
18032W        W89615   8.475  35.081   4.646
18033W        W89616  42.751  24.722  13.954
18034W        W89617  36.889   9.329  10.614
18035W        W89618  33.588  19.777  11.129
18036W        W89619  10.727  43.779   4.203
18037W        W89620  19.610  35.057  11.559
18038W        W89621  25.886  21.188   2.161
18039W        W89622  18.882  44.850   3.704
18040W        W89623  38.035  28.973   0.400
18041W        W89624  19.173  37.278  12.935
18042W        W89625  42.928  11.663   2.663
18043W        W89626  44.114  19.019  13.868
18044W        W89627  12.033  31.549   4.322
18045W        W89628  20.020  39.144   2.433
18046W        W89629  11.942   6.901  10.683
18047W        W89630  21.323   3.243  11.245
18048W        W89631   9.844  27.451  10.858
18049W        W89632  30.985  39.497   1.706
18050W        W89633  11.348  39.131   1.909
18051W        W89634  22.075  35.535  12.469
18052W        W89635   1.476   8.940  11.323
18053W        W89636  37.047  12.176  11.718
18054W        W89637   8.910  11.625  13.453
18055W        W89638   6.265  23.696   4.471
18056W        W89639   0.762  20.198   1.172
18057W        W89640   6.074  23.296   2.911
18058W        W89641   5.225  20.405   1.805
18059W        W89642  27.062   9.265  13.812
18060W        W89643  23.905  19.294  14.480
18061W        W89644   2.017   8.176   2.790
18062W        W89645  44.529   7.334   1.018
18063W        W89646  28.632  22.847  14.621
18064W        W89647  27.698  25.530   3.722
18065W        W89648  21.298  18.199   2.857
18066W        W89649  10.700  39.284  12.477
18067W        W89650  44.083  43.502  12.488
18068W        W89651   8.345  19.730  13.443
18069W        W89652  25.417   4.662  13.441
18070W        W89653  10.889  40.088   3.089
18071W        W89654  31.455  35.353  13.401
18072W        W89655   5.054  24.107   2.688
18073W        W89656  43.207  28.068   4.767
18074W        W89657  13.030  43.234   1.627
18075W        W89658   7.200  27.830  12.019
18076W        W89659  43.907  27.654   4.473
18077W        W89660  23.156  42.195   2.051
18078W        W89661  17.183  37.908   2.584
18079W        W89662  21.536  44.727   0.417
18080W        W89663  26.627   1.000  11.425
18081W        W89664  17.592   4.319   1.439
18082W        W89665  25.046  20.268  11.815
18083W        W89666  25.095  43.855  13.370
18084W        W89667  32.415  36.403   3.622
18085W        W89668  23.896  35.954   4.179
18086W        W89669  21.065   2.844  13.107
18087W        W89670  20.725  37.378   0.249
18088W        W89671  26.463  42.983   4.469
18089W        W89672   0.833  38.397  13.117
18090W        W89673  38.273  10.055   1.935
18091W        W89674  31.982   7.403   3.127
18092W        W89675  15.752   1.377   2.843
18093W        W89676  27.956   2.683  10.683
18094W        W89677   0.662   4.221   0.818
18095W        W89678  28.021   1.202   2.808
18096W        W89679   2.510  10.305   4.542
18097W        W89680  26.046  12.132  10.989
18098W        W89681  41.569   4.104  11.167
18099W        W89682  32.850  44.686  11.018
18100W        W89683   1.199  15.611   0.404
18101W        W89684  29.856  11.108   1.779
18102W        W89685  18.583  26.510  10.423
18103W        W89686  32.627  36.607  12.333
18104W        W89687   6.125  43.731   4.410
18105W        W89688  21.369  17.593  12.926
18106W        W89689  26.253  24.585  12.525
18107W        W89690  38.832  40.632  11.518
18108W        W89691  14.234  30.220   3.170
18109W        W89692  16.088   9.955   1.802
18110W        W89693   7.389  18.149  12.535
18111W        W89694  39.847   2.228   1.907
18112W        W89695  17.895  16.107  12.077
18113W        W89696  36.227  13.130  14.004
18114W        W89697  25.557  43.357  10.650
18115W        W89698   0.141  20.270  13.970
18116W        W89699   0.500   0.512  13.900
18117W        W89700   5.367  42.850   3.732
18118W        W89701   9.714  21.590   4.092
18119W        W89702  22.486  17.992  13.528
18120W        W89703  23.515   4.428  12.928
18121W        W89704  30.607  29.913  10.634
18122W        W89705   5.706  26.699   1.726
18123W        W89706  34.057  10.081   1.140
18124W        W89707  19.369  19.455   5.509
18125W        W89708   4.153  39.647   4.635
18126W        W89709  39.908  25.907   0.807
18127W        W89710  36.931  35.975  12.564
18128W        W89711  30.565   3.357  11.141
18129W        W89712   8.810  31.622   4.072
18130W        W89713   5.587   0.208   1.720
18131W        W89714  44.983  25.081  12.999
18132W        W89715  31.406  32.089   3.203
18133W        W89716   1.801  23.613  11.251
18134W        W89717  18.867  31.607  12.980
18135W        W89718  31.570  29.809  12.187
18136W        W89719  28.757  12.751   4.995
18137W        W89720  25.612  14.628  13.587
18138W        W89721  15.158  20.583   2.600
18139W        W89722  26.509  12.854  12.597
18140W        W89723   8.148  40.061  14.471
18141W        W89724  31.124  37.068  11.973
18142W        W89725  32.078  42.581  14.605
18143W        W89726  33.506  43.409   1.197
18144W        W89727  22.261  18.625   2.252
18145W        W89728  24.937  15.359  12.069
18146W        W89729  11.870  38.774   5.008
18147W        W89730  40.970   6.196   9.768
18148W        W89731  22.086   6.220  14.528
18149W        W89732   0.462  19.114  12.847
18150W        W89733  29.475  34.862  14.902
18151W        W89734  31.737  13.318   0.278
18152W        W89735  21.441  37.500   4.113
18153W        W89736  17.175   7.528   4.006
18154W        W89737  12.783  22.715  11.161
18155W        W89738  20.573  36.472   1.295
18156W        W89739  16.568  31.621   5.166
18157W        W89740  34.968   7.218   1.479
18158W        W89741   7.237  34.874  12.009
18159W        W89742   8.357   6.365   3.696
18160W        W89743  17.806   2.311  13.799
18161W        W89744   6.723   6.834   1.387
18162W        W89745  35.784  38.997   0.769
18163W        W89746  34.904   1.991  10.666
18164W        W89747  39.980  35.492  11.924
18165W        W89748   3.760   2.831  14.895
18166W        W89749  15.150   3.749   4.758
18167W        W89750  15.830  44.478  13.516
18168W        W89751  12.586  32.478   3.378
18169W        W89752  28.338  33.513   0.312
18170W        W89753  34.380  14.277   1.370
18171W        W89754  39.022  36.892   4.547
18172W        W89755  24.167  11.863  10.561
18173W        W89756  35.709   4.791   0.960
18174W        W89757  27.643  32.097  12.444
18175W        W89758  32.014  20.150  11.984
18176W        W89759  33.323  42.370  14.461
18177W        W89760  39.476  19.692   4.591
18178W        W89761  36.951   3.958  14.009
18179W        W89762  22.990  10.781  12.537
18180W        W89763  40.302  33.126   2.831
18181W        W89764  43.287  15.566   0.744
18182W        W89765  21.661   4.150   1.778
18183W        W89766  43.492  17.596  12.364
18184W        W89767  38.417  42.767  13.142
18185W        W89768  25.141   8.874  10.748
18186W        W89769  43.489  39.253   0.372
18187W        W89770  32.032  41.848   1.566
18188W        W89771  29.059   1.916   1.682
18189W        W89772   6.528  17.599   4.869
18190W        W89773   8.817   2.836   3.644
18191W        W89774  40.976  26.919  13.327
18192W        W89775  24.681   0.239   0.684
18193W        W89776   8.713  26.537  12.573
18194W        W89777   1.840   5.817  11.113
18195W        W89778  38.478  15.120  13.115
18196W        W89779  12.566  32.453   1.887
18197W        W89780   4.453   1.325  12.392
18198W        W89781  44.418  18.544   1.453
18199W        W89782  23.517   8.730  10.662
18200W        W89783  20.589  15.832  10.698
18201W        W89784  37.520  26.550  10.622
18202W        W89785   8.676  28.357  13.218
18203W        W89786  34.779  43.085   4.285
18204W        W89787  17.212  34.737   4.706
18205W        W89788  34.689  11.258  13.415
18206W        W89789  13.152  22.651   3.542
18207W        W89790  26.645   2.397  12.204
18208W        W89791   7.285  27.810   3.853
18209W        W89792  28.375  31.551  12.465
18210W        W89793   6.797  31.933  14.310
18211W        W89794   0.577  35.800  13.318
18212W        W89795   3.840  29.802   0.122
18213W        W89796  38.559  18.790  13.243
18214W        W89797  10.777  34.751   0.833
18215W        W89798  14.337  38.092  11.008
18216W        W89799  18.557  19.846   0.743
18217W        W89800  30.127  13.819  14.020
18218W        W89801  32.504   9.843   0.463
18219W        W89802  25.598  33.280   4.479
18220W        W89803  20.464  27.840   2.284
18221W        W89804  23.490   9.609   1.434
18222W        W89805  22.801  35.601  10.095
18223W        W89806   8.574   3.993  14.389
18224W        W89807  26.092  10.317   9.787
18225W        W89808  37.357  10.941  14.418
18226W        W89809  16.670  37.361   4.823
18227W        W89810   0.503  22.600  11.453
18228W        W89811   7.913  24.556  13.716
18229W        W89812  42.398   4.720   3.492
18230W        W89813  11.368  20.805   4.433
18231W        W89814   6.442   5.703  12.217
18232W        W89815  35.037  23.725  11.550
18233W        W89816  36.951  27.054   3.312
18234W        W89817  37.952   8.884   4.163
18235W        W89818  10.144  15.543   3.286
18236W        W89819  12.902  10.262   4.103
18237W        W89820   5.837  31.901  14.828
18238W        W89821  37.813  41.990   1.471
18239W        W89822  38.958  43.606  13.469
18240W        W89823  10.630  18.440  10.910
18241W        W89824  21.988   8.310  13.054
18242W        W89825  14.718  21.052  14.899
18243W        W89826  43.428  33.552  11.304
18244W        W89827  22.533  14.602  11.418
18245W        W89828   4.828  26.939   3.235
18246W        W89829  19.065  12.753  12.838
18247W        W89830  15.231   8.555  12.867
18248W        W89831  17.284   1.513  10.773
18249W        W89832  40.962  14.809   0.765
18250W        W89833  39.418  35.966  13.565
18251W        W89834  18.733  18.672  11.852
18252W        W89835  38.293   0.941  14.888
18253W        W89836  14.792   0.072   0.710
18254W        W89837   7.619  12.680   1.396
18255W        W89838  30.072  24.841  12.253
18256W        W89839  37.506  20.796  14.021
18257W        W89840   4.976  35.900   0.359
18258W        W89841   4.768   1.189   2.873
18259W        W89842  15.961  42.901   4.999
18260W        W89843  42.832  19.953   2.796
18261W        W89844  12.286  17.895  13.642
18262W        W89845  27.068   7.633  12.000
18263W        W89846   9.650   4.277   4.093
18264W        W89847  39.866   1.043  10.555
18265W        W89848  36.007   2.925  12.473
18266W        W89849  10.378  25.191  11.887
18267W        W89850   1.963  32.984  10.562
18268W        W89851  16.934  33.740  13.487
18269W        W89852  17.778  23.333  10.298
18270W        W89853  21.084   5.504   3.574
18271W        W89854  26.024  28.835   0.705
18272W        W89855   1.229  39.438   4.447
18273W        W89856  25.356   8.275   2.271
18274W        W89857  30.087  30.074  14.807
18275W        W89858  41.331  11.561   3.201
18276W        W89859  42.024  36.535   1.751
18277W        W89860  21.051  22.986  12.043
18278W        W89861  25.013   9.763   1.106
18279W        W89862  26.309  44.952  12.215
18280W        W89863   6.395  18.445  10.805
18281W        W89864  35.130  14.353  11.299
18282W        W89865  18.337  18.772   0.406
18283W        W89866  38.223  41.183   1.671
18284W        W89867  29.213  24.212   4.179
18285W        W89868  27.492   6.820  12.051
18286W        W89869  23.703  30.051  13.539
18287W        W89870   8.448   1.797  12.851
18288W        W89871  35.313  27.971  12.592
18289W        W89872  36.911  14.066   2.384
18290W        W89873  10.038   3.722  13.735
18291W        W89874  28.122  15.686   0.946
18292W        W89875   5.280  28.113  11.733
18293W        W89876  20.675  40.319   2.164
18294W        W89877  42.384   2.714  14.370
18295W        W89878  34.133  42.711  11.222
18296W        W89879  29.095  34.150   2.659
18297W        W89880   0.580   9.206  10.993
18298W        W89881  29.702  23.276   0.516
18299W        W89882  22.050  43.649  11.660
18300W        W89883  32.597  32.634   0.403
18301W        W89884  35.349   8.192   5.011
18302W        W89885  36.969  19.479  14.871
18303W        W89886  16.171  40.496   2.802
18304W        W89887  18.287  37.113  11.259
18305W        W89888  44.764  21.100  13.857
18306W        W89889   2.508  39.876  12.526
18307W        W89890  33.778  29.535  12.219
18308W        W89891  27.402  31.172   3.312
18309W        W89892  41.538  30.162  10.742
18310W        W89893  36.272  25.428  11.046
18311W        W89894  10.899   9.204  11.354
18312W        W89895   3.745  28.498  12.948
18313W        W89896  39.817  29.633   2.211
18314W        W89897   2.244  35.478   0.333
18315W        W89898   2.360  36.396   0.119
18316W        W89899  32.677  14.023  12.414
18317W        W89900  22.435  35.924   2.202
18318W        W89901   1.997  44.952   1.256
18319W        W89902   8.701  16.106  10.840
18320W        W89903  11.788  13.317   2.672
18321W        W89904  37.437  34.154  13.054
18322W        W89905  17.358  37.363  14.046
18323W        W89906  44.604   1.048  13.047
18324W        W89907   2.666   1.823   3.301
18325W        W89908  29.404  38.898  13.434
18326W        W89909  10.660  35.345   1.320
18327W        W89910  23.088  40.500  14.530
18328W        W89911  31.567  34.502   2.968
18329W        W89912  41.667  24.734   1.910
18330W        W89913  25.768  31.747  10.093
18331W        W89914  42.816  16.070  13.979
18332W        W89915  27.552   0.225   3.296
18333W        W89916  12.195  44.032  11.117
18334W        W89917   2.074  27.590   1.694
18335W        W89918  16.821  32.005  11.652
18336W        W89919  36.502  35.836  13.507
18337W        W89920   4.924  39.592  10.462
18338W        W89921  35.081  39.040   1.321
18339W        W89922  38.181  14.548  14.397
18340W        W89923   6.150  19.826   4.913
18341W        W89924   3.424  34.645  11.960
18342W        W89925  11.757   4.113  13.696
18343W        W89926  38.887  32.208   3.206
18344W        W89927   3.343  17.114   5.135
18345W        W89928  11.413  11.262   0.591
18346W        W89929  14.807  39.070  14.398
18347W        W89930  31.161  27.131  11.586
18348W        W89931  29.750  41.305  12.063
18349W        W89932  32.926  40.569   1.320
18350W        W89933  31.304  22.772  10.650
18351W        W89934  23.621  40.741   0.905
18352W        W89935  29.170  37.701   2.787
18353W        W89936  12.591   1.388   4.731
18354W        W89937   6.656  38.738  11.650
18355W        W89938  15.910   2.032   4.562
18356W        W89939  34.599  15.606  11.398
18357W        W89940  18.573  42.121   4.424
18358W        W89941  16.517  29.186   0.766
18359W        W89942  12.907  10.803   3.976
18360W        W89943   3.787  24.923  13.475
18361W        W89944  21.274  15.413  13.570
18362W        W89945  44.772  31.186  14.090
18363W        W89946  19.994  25.722   4.201
18364W        W89947  35.185  18.292   2.771
18365W        W89948  37.659  33.102  13.951
18366W        W89949  28.864   5.962  13.973
18367W        W89950  16.927  27.948  13.003
18368W        W89951  35.422  42.776   2.690
18369W        W89952  10.973  18.125  11.119
18370W        W89953  14.248  42.418   2.733
18371W        W89954   6.011  17.647   4.574
18372W        W89955  34.458  35.320   3.187
18373W        W89956  17.838  15.284  11.534
18374W        W89957   1.533  44.375  10.712
18375W        W89958  18.818  26.926   2.004
18376W        W89959   1.757   0.103   4.069
18377W        W89960  12.656  28.753  11.163
18378W        W89961   6.719  28.101  12.024
18379W        W89962  13.635  35.987   2.388
18380W        W89963  21.953  23.981  13.903
18381W        W89964  38.695  30.190  12.706
18382W        W89965  12.142  11.016  10.562
18383W        W89966  36.893  42.733  10.735
18384W        W89967  15.720  37.531   9.842
18385W        W89968  42.779   5.251  10.556
18386W        W89969  37.374   6.012  12.467
18387W        W89970   3.342  10.187  11.961
18388W        W89971  13.018  42.330   2.942
18389W        W89972  35.968  40.224  12.127
18390W        W89973  19.954  38.455  13.390
18391W        W89974  23.272  31.970   2.833
18392W        W89975   6.901  26.369  10.627
18393W        W89976  17.530  32.416   2.088
18394W        W89977  41.748   4.263   1.514
18395W        W89978   2.368   5.753  11.212
18396W        W89979  11.511  34.910  11.961
18397W        W89980   0.952  22.061   3.041
18398W        W89981  16.778  42.993  14.499
18399W        W89982  23.750  26.667   4.617
18400W        W89983  42.986  14.496   5.120
18401W        W89984  34.086   1.515  13.355
18402W        W89985  40.576  24.536  13.363
18403W        W89986  33.341  27.696  11.138
18404W        W89987   9.744  33.570   4.081
18405W        W89988  16.438  27.446   3.707
18406W        W89989  13.029  34.741  11.122
18407W        W89990  26.781  20.737   1.370
18408W        W89991   0.794  21.291   2.717
18409W        W89992  38.621  25.537  14.947
18410W        W89993  35.112  21.704  10.446
18411W        W89994  40.521  16.909  11.671
18412W        W89995   3.858  35.933  12.568
18413W        W89996  39.724  36.608  14.862
18414W        W89997  24.869  12.188   3.758
18415W        W89998  16.134  39.549   0.214
18416W        W89999   9.758   5.227   2.450
18417W        W90000  42.492  41.066  13.622
18418W        W90001  15.304  43.898  12.008
18419W        W90002  35.365   2.946   3.495
18420W        W90003  10.877  33.687  15.000
18421W        W90004  28.454   2.227   2.414
18422W        W90005  16.662  38.006  11.932
18423W        W90006  14.833   1.941   0.277
18424W        W90007  39.813  23.620   4.571
18425W        W90008  34.017  32.561   0.303
18426W        W90009  19.941   7.596   3.285
18427W        W90010  16.411   9.038   1.879
18428W        W90011   7.022  18.086  14.831
18429W        W90012  19.804  37.043  11.911
18430W        W90013  38.290   3.385   0.056
18431W        W90014   7.227  14.110  10.980
18432W        W90015   9.871  18.562   2.268
18433W        W90016  13.547  26.145   2.630
18434W        W90017  30.474  11.143  12.040
18435W        W90018  41.357  38.019   2.859
18436W        W90019   7.755  29.845   0.497
18437W        W90020  26.933  31.946   1.825
18438W        W90021   8.396  15.846  12.682
18439W        W90022   7.078  11.825  11.019
18440W        W90023  29.054  41.387  14.270
18441W        W90024  33.789  33.085  11.667
18442W        W90025  15.333  41.603   0.906
18443W        W90026  11.236  20.557   3.428
18444W        W90027  20.350  44.963   2.890
18445W        W90028   8.279  33.511  12.217
18446W        W90029  17.418  33.896  11.553
18447W        W90030   3.195  29.046   4.700
18448W        W90031  18.592  12.784   1.608
18449W        W90032  32.613  24.177   3.345
18450W        W90033  25.050  25.148   1.708
18451W        W90034   4.716  37.924  12.118
18452W        W90035   1.474  14.647   0.576
18453W        W90036  41.535  35.032   1.710
18454W        W90037  25.206  34.043  10.699
18455W        W90038  38.166  35.607   2.284
18456W        W90039  22.147   2.681  11.963
18457W        W90040  28.993  14.092  13.037
18458W        W90041  13.588   6.988  12.009
18459W        W90042  25.505  40.930   1.798
18460W        W90043  40.798  19.889  12.600
18461W        W90044  24.531   6.824   4.928
18462W        W90045  22.790  39.984   1.201
18463W        W90046  26.128   2.443  12.833
18464W        W90047   5.655  11.622   2.217
18465W        W90048  34.899  14.778   2.667
18466W        W90049  10.028  27.963  12.279
18467W        W90050  22.953  39.471  12.820
18468W        W90051  25.019   4.187  14.792
18469W        W90052   1.184  43.974  14.530
18470W        W90053   6.611  16.760  13.913
18471W        W90054   8.866  42.925  11.934
18472W        W90055   3.180  18.711  14.011
18473W        W90056  17.273  16.176   1.377
18474W        W90057   8.450  21.718   3.746
18475W        W90058  19.679  42.978  12.586
18476W        W90059   7.747  31.000  13.572
18477W        W90060  17.049  40.748  12.101
18478W        W90061   1.924  20.243  13.429
18479W        W90062  16.291  25.967  12.919
18480W        W90063  32.781  23.009   4.812
18481W        W90064  44.209  22.435  11.058
18482W        W90065  21.148  14.392   0.399
18483W        W90066  22.039   0.348   1.180
18484W        W90067  15.566  27.019   4.586
18485W        W90068  25.635   8.372  13.825
18486W        W90069   7.754  31.062  10.469
18487W        W90070  18.517  19.305   0.704
18488W        W90071  25.561   3.956  11.120
18489W        W90072  31.149  40.447   3.156
18490W        W90073  33.938   1.204   4.235
18491W        W90074  30.045   3.488  10.679
18492W        W90075  39.475  21.305   9.871
18493W        W90076  28.599   9.788  14.772
18494W        W90077  16.366  23.188   0.985
18495W        W90078  24.067  31.710  13.248
18496W        W90079   5.791  20.505   1.699
18497W        W90080  43.455  33.105   3.286
18498W        W90081  43.330  23.295   3.170
18499W        W90082   7.184  32.104   0.873
18500W        W90083   5.338  29.270  13.356
18501W        W90084  20.779   3.011  12.474
18502W        W90085  43.017   1.180   0.041
18503W        W90086  38.159  40.373  14.399
18504W        W90087  17.130  36.159  10.680
18505W        W90088  36.786  35.308   4.412
18506W        W90089  38.913   8.920  13.409
18507W        W90090  27.159  32.698  10.277
18508W        W90091  31.696  22.424  10.756
18509W        W90092  14.686  32.154  13.095
18510W        W90093   3.777  40.973   0.188
18511W        W90094   1.646  20.607  10.647
18512W        W90095  32.490  31.220  14.099
18513W        W90096   1.994  35.379   2.159
18514W        W90097   7.433   1.291   0.839
18515W        W90098  22.448  11.330  11.266
18516W        W90099  44.727  17.131  11.100
18517W        W90100   2.634  33.940  14.967
18518W        W90101   1.862  28.580   2.323
18519W        W90102  27.585  42.998  14.481
18520W        W90103  35.488   1.287  12.477
18521W        W90104   0.853   5.840  10.507
18522W        W90105  32.071  24.085   4.565
18523W        W90106  23.095  43.545   1.664
18524W        W90107  39.793  13.142   2.283
18525W        W90108  29.669   6.912  12.475
18526W        W90109   3.239  38.548   0.736
18527W        W90110  18.172  28.406   4.587
18528W        W90111  12.674  11.831  13.727
18529W        W90112   2.389  15.440  14.923
18530W        W90113  29.559  14.756  11.326
18531W        W90114  36.452  38.991   2.149
18532W        W90115  13.730  25.393  10.540
18533W        W90116  38.521  20.003   0.292
18534W        W90117  43.751  14.259   3.104
18535W        W90118   5.225  20.102   1.000
18536W        W90119  27.000   0.247   2.167
18537W        W90120  37.056  43.796  11.052
18538W        W90121  15.136  33.838   0.446
18539W        W90122  28.105  44.897  14.489
18540W        W90123  20.953  38.440  13.417
18541W        W90124  23.181  31.975  10.337
18542W        W90125  10.598  35.492   2.683
18543W        W90126  14.355  10.522   4.216
18544W        W90127  43.614  21.016   0.889
18545W        W90128  43.545  43.271  14.313
18546W        W90129  39.078   5.163  12.107
18547W        W90130   2.444   2.886  11.801
18548W        W90131  39.388  13.781  12.625
18549W        W90132  15.737   6.894   1.307
18550W        W90133  42.365  30.672  13.394
18551W        W90134  16.918   9.950  14.646
18552W        W90135  17.201  37.835   3.131
18553W        W90136   7.420   3.279   1.209
18554W        W90137  31.465  29.489  13.607
18555W        W90138  38.587  30.992   0.434
18556W        W90139  11.848   7.109   2.746
18557W        W90140  37.501  30.952   4.433
18558W        W90141  29.682  44.925   0.785
18559W        W90142  32.222  13.509   0.192
18560W        W90143   3.238  15.333  11.794
18561W        W90144  38.949  20.289  12.275
18562W        W90145  38.565  40.198   1.659
18563W        W90146  20.852   1.648  11.578
18564W        W90147  24.815  25.960   4.503
18565W        W90148  15.956  20.492   2.152
18566W        W90149  29.792   1.266  13.061
18567W        W90150  27.009  12.176   3.042
18568W        W90151  18.247  44.590   0.458
18569W        W90152  12.222   6.785   4.708
18570W        W90153   1.644  29.594   0.824
18571W        W90154  27.621  13.148   1.624
18572W        W90155  28.223  17.511  10.070
18573W        W90156  18.398  20.625  11.541
18574W        W90157  37.121  29.904  11.265
18575W        W90158  12.520  22.595  11.587
18576W        W90159  34.493  42.726   4.054
18577W        W90160   0.266  15.876  10.451
18578W        W90161  27.670  35.305  10.515
18579W        W90162  19.796  21.487  14.299
18580W        W90163   7.060   8.361  12.591
18581W        W90164   9.345   5.492   4.521
18582W        W90165  28.237   1.371  12.890
18583W        W90166  20.002  40.862  11.859
18584W        W90167   0.265  30.416   2.754
18585W        W90168  23.502  10.106   3.385
18586W        W90169  32.992  21.208  14.879
18587W        W90170  40.573  11.122   4.274
18588W        W90171   5.283  39.766   3.616
18589W        W90172  13.129  38.076  12.008
18590W        W90173   3.414   6.678  10.932
18591W        W90174  18.381  39.443   4.360
18592W        W90175  21.275  24.031  14.296
18593W        W90176  36.995  39.497  13.312
18594W        W90177  17.034  16.678  13.331
18595W        W90178  15.697  21.097  11.155
18596W        W90179  35.162  18.647   2.164
18597W        W90180  33.903  19.799  14.846
18598W        W90181  14.068  17.876  13.414
18599W        W90182   4.452  36.448  11.469
18600W        W90183  15.703  24.467   1.717
18601W        W90184  22.449  12.315   4.182
18602W        W90185  20.530  35.968   2.095
18603W        W90186   7.748  13.246  14.306
18604W        W90187  35.625  43.268   4.810
18605W        W90188  34.964  15.907  11.588
18606W        W90189  37.223   9.762  12.383
18607W        W90190  19.890  25.159  11.147
18608W        W90191  25.105  33.246  10.160
18609W        W90192  11.789  16.015  10.589
18610W        W90193  30.491  27.525  13.353
18611W        W90194  42.407  18.104  11.467
18612W        W90195  36.088   3.333  12.817
18613W        W90196   2.394  38.198  11.071
18614W        W90197  12.042  38.104   3.692
18615W        W90198  25.451  22.634  10.702
18616W        W90199  21.261  33.465  14.208
18617W        W90200  14.246  20.706   3.142
18618W        W90201  42.050  27.618   1.881
18619W        W90202  43.678   9.095  12.107
18620W        W90203  13.725  16.584  11.246
18621W        W90204  32.602   0.362   0.319
18622W        W90205   1.441  32.687   4.375
18623W        W90206  28.884  35.272   0.418
18624W        W90207   8.427  44.086  13.393
18625W        W90208   5.346   2.863   4.550
18626W        W90209  33.624   9.842  12.946
18627W        W90210  21.153  23.964   2.290
18628W        W90211  44.084  39.472  13.372
18629W        W90212   3.147   0.955   4.772
18630W        W90213   6.720  30.256  13.083
18631W        W90214  39.324  11.280   0.338
18632W        W90215   3.422  31.962   2.334
18633W        W90216  21.739  36.880  13.882
18634W        W90217  26.451  37.866  11.129
18635W        W90218   0.400  38.658  11.555
18636W        W90219  17.987  24.120  13.521
18637W        W90220  14.659  27.292  10.648
18638W        W90221  31.369  12.606   3.125
18639W        W90222   1.809  25.233  13.089
18640W        W90223  23.741  10.980  12.047
18641W        W90224  31.902  26.092  10.403
18642W        W90225  28.393  37.992   1.275
18643W        W90226  20.152  44.315  14.690
18644W        W90227   1.933  41.429   3.001
18645W        W90228  18.174  40.012  14.186
18646W        W90229  18.763  30.426  10.618
18647W        W90230   3.711  11.145  12.981
18648W        W90231  13.397  14.446  10.958
18649W        W90232   8.266  34.849   2.857
18650W        W90233  24.120  20.300  12.018
18651W        W90234  37.525   8.158   1.864
18652W        W90235  32.416  17.783   1.594
18653W        W90236  39.340  21.779   4.483
18654W        W90237  13.533  13.017   3.312
18655W        W90238   1.905  38.812   1.316
18656W        W90239  22.257  31.367   0.491
18657W        W90240  18.092  19.728   4.714
18658W        W90241  32.845  13.290   2.363
18659W        W90242  29.111   2.752   3.734
18660W        W90243  41.069  30.001  11.172
18661W        W90244  26.687   0.738  11.901
18662W        W90245  39.403  22.112   3.205
18663W        W90246  18.192  27.591   1.387
18664W        W90247   0.707   9.853   4.298
18665W        W90248   4.842   8.244   4.082
18666W        W90249  11.256  23.557   2.022
18667W        W90250  22.361  31.953   0.722
18668W        W90251  34.936  40.823  14.457
18669W        W90252  34.604   3.543  13.432
18670W        W90253  38.494  31.643   1.814
18671W        W90254   1.195  33.320   2.164
18672W        W90255  41.231  21.734   2.435
18673W        W90256  13.659   9.130   0.492
18674W        W90257  21.234  17.766  11.614
18675W        W90258  32.796   9.462  10.714
18676W        W90259  20.316   3.830   2.862
18677W        W90260   2.586  44.192   4.563
18678W        W90261  43.446   1.372   0.354
18679W        W90262  10.650  41.826  12.851
18680W        W90263  17.813  43.458   1.665
18681W        W90264  43.528  36.131  10.712
18682W        W90265   9.008  23.629   0.697
18683W        W90266  12.793  13.481  13.344
18684W        W90267  19.248  15.680   1.166
18685W        W90268  16.772  26.221  12.028
18686W        W90269  42.453  26.540  11.629
18687W        W90270   6.169  11.674  14.549
18688W        W90271   7.279  24.068   4.340
18689W        W90272  11.198   6.110   3.595
18690W        W90273  29.162   6.827   0.947
18691W        W90274   3.885  36.976   2.271
18692W        W90275  25.494  30.466   1.889
18693W        W90276  29.944  12.570   1.574
18694W        W90277  44.736   0.262  11.111
18695W        W90278  23.277  11.719   2.355
18696W        W90279  17.053   2.001   0.536
18697W        W90280   4.144   5.324   0.340
18698W        W90281  24.256  43.496  14.516
18699W        W90282   7.915   9.632   3.491
18700W        W90283  34.013  11.215   2.711
18701W        W90284  31.362  24.998   4.093
18702W        W90285  25.571  23.122  12.846
18703W        W90286  12.703   9.860  14.710
18704W        W90287  35.612   9.174   1.862
18705W        W90288  38.018  31.294   1.669
18706W        W90289  19.304   2.798   1.821
18707W        W90290  34.422   5.222   3.820
18708W        W90291  10.311  37.976  10.317
18709W        W90292  31.897  38.005  12.422
18710W        W90293   7.478  30.180  10.572
18711W        W90294  17.977  23.732   0.166
18712W        W90295  38.507   0.166   3.416
18713W        W90296  20.758   8.819  11.057
18714W        W90297   8.555  15.281   3.603
18715W        W90298   6.690   5.510   4.049
18716W        W90299   4.440  40.164  13.942
18717W        W90300  37.145  29.594   0.206
18718W        W90301  18.602   3.736  11.545
18719W        W90302  16.885  36.360   1.943
18720W        W90303  28.095  41.223   3.795
18721W        W90304  29.478  37.326  11.698
18722W        W90305  23.150  12.809   2.267
18723W        W90306  26.037  33.708  10.993
18724W        W90307  43.365  37.328  13.465
18725W        W90308  20.486  31.618  12.025
18726W        W90309  42.093   5.285  14.559
18727W        W90310  24.204   4.848  13.306
18728W        W90311  27.794  22.097   2.085
18729W        W90312  23.667   8.498   3.494
18730W        W90313  25.559  36.294  10.341
18731W        W90314  24.215  33.010  12.687
18732W        W90315  26.252  20.491  13.587
18733W        W90316   0.475  11.322   2.326
18734W        W90317  23.635  15.489   4.626
18735W        W90318  12.850  18.117  13.919
18736W        W90319  13.089  10.150  14.935
18737W        W90320  30.123  34.239  14.879
18738W        W90321   4.429  17.470   0.367
18739W        W90322  40.539  30.480   3.325
18740W        W90323  13.604  42.871  11.983
18741W        W90324  17.089  39.206  10.117
18742W        W90325  13.198  38.139   2.211
18743W        W90326  10.805   3.793   2.728
18744W        W90327  34.771  40.247  12.587
18745W        W90328  19.602  41.320   4.380
18746W        W90329  42.000   1.882   2.200
18747W        W90330  25.248  11.591   4.916
18748W        W90331  22.279  12.044   1.593
18749W        W90332  11.762  16.901   2.866
18750W        W90333  15.277  38.496   4.722
18751W        W90334  25.903   8.297   2.308
18752W        W90335   4.865   3.718   4.678
18753W        W90336  31.107  35.472   3.930
18754W        W90337  23.485   5.744   4.216
18755W        W90338   7.852  16.996  12.934
18756W        W90339  40.462  33.348   2.153
18757W        W90340  20.665  19.155  14.318
18758W        W90341  40.206   8.459   3.317
18759W        W90342  16.688  36.051   1.096
18760W        W90343   6.838   6.831  10.600
18761W        W90344  21.135  20.237   4.567
18762W        W90345  40.274  24.770  12.007
18763W        W90346  32.647  36.871  14.169
18764W        W90347   9.443  27.008   4.113
18765W        W90348  19.942  24.119  12.970
18766W        W90349  33.863  15.029  13.773
18767W        W90350  27.653  30.019   4.621
18768W        W90351  36.695   5.249  11.809
18769W        W90352  42.541  39.439   4.104
18770W        W90353  32.519  19.801  12.542
18771W        W90354   5.761  18.342  10.992
18772W        W90355   6.336  12.525   0.162
18773W        W90356  24.648  31.574   3.348
18774W        W90357  30.843  11.720   2.757
18775W        W90358  35.893  44.032  13.262
18776W        W90359  22.103   3.666   1.357
18777W        W90360  36.775   7.284   1.370
18778W        W90361  31.129  33.391  10.263
18779W        W90362   5.374  32.392  10.686
18780W        W90363  31.055  20.716   2.694
18781W        W90364  34.685  13.103  12.139
18782W        W90365  34.894  18.232   4.602
18783W        W90366  24.203  16.385   4.495
18784W        W90367  36.801  14.726  12.598
18785W        W90368   3.752  28.556   2.556
18786W        W90369  21.546  14.097  11.193
18787W        W90370  30.869  18.286  14.279
18788W        W90371  10.650  34.472  10.462
18789W        W90372  11.790   3.679   3.665
18790W        W90373  22.484  15.835   1.819
18791W        W90374  30.148  37.431   3.690
18792W        W90375  26.517  14.875   0.018
18793W        W90376  11.261  37.181   3.161
18794W        W90377  44.420  13.246  12.099
18795W        W90378   1.240  42.674  11.739
18796W        W90379  32.911  34.617  14.267
18797W        W90380  16.738   9.181   4.554
18798W        W90381  33.070   6.908  12.592
18799W        W90382  23.178  15.628  14.341
18800W        W90383  23.443  42.296  14.904
18801W        W90384  11.235   8.205  12.129
18802W        W90385  40.557  26.692   2.834
18803W        W90386   7.658  27.692  14.881
18804W        W90387  17.390   2.929  13.935
18805W        W90388  42.988  20.950   4.982
18806W        W90389  43.996  29.719   3.167
18807W        W90390  34.743  24.439   3.196
18808W        W90391  17.301  37.639  10.698
18809W        W90392  19.054  16.626   0.348
18810W        W90393  26.947   8.247  14.984
18811W        W90394   9.006  19.226   3.665
18812W        W90395  41.465  10.606  12.933
18813W        W90396  34.014  32.727  10.485
18814W        W90397   9.380  38.739   2.554
18815W        W90398  13.116  32.501   3.349
18816W        W90399  31.915  18.805  11.601
18817W        W90400   8.923  11.871   1.744
18818W        W90401  20.226  43.448  14.773
18819W        W90402  22.625  14.360  14.994
18820W        W90403  27.271  41.018   1.488
18821W        W90404  43.490   7.707   0.449
18822W        W90405   4.139   4.382   1.365
18823W        W90406  32.938  42.657  13.500
18824W        W90407  43.698  39.846  12.046
18825W        W90408  27.546  31.436   3.746
18826W        W90409  11.238   3.262  11.423
18827W        W90410  42.455  30.454  14.447
18828W        W90411   4.336   5.040   2.730
18829W        W90412   4.969  43.324  10.919
18830W        W90413  35.257   7.468  12.183
18831W        W90414   4.204  26.652  11.068
18832W        W90415  15.103   1.160   4.126
18833W        W90416   7.286   9.452  12.810
18834W        W90417  25.144   4.718  14.756
18835W        W90418  36.351   1.986   0.738
18836W        W90419   0.200  16.818   1.907
18837W        W90420  33.441   1.765   4.199
18838W        W90421  19.960   2.376  12.084
18839W        W90422  36.572  42.948   3.402
18840W        W90423   8.199  43.871   4.222
18841W        W90424  10.666  36.883  13.991
18842W        W90425  14.854  18.598  11.109
18843W        W90426  42.861  34.957   2.891
18844W        W90427  42.513   8.121  12.043
18845W        W90428  29.186  44.698  11.851
18846W        W90429  39.641  33.503  13.353
18847W        W90430  20.052   7.768  13.528
18848W        W90431   4.474  42.621   4.071
18849W        W90432  27.730  36.771   3.922
18850W        W90433  23.335   7.757  14.871
18851W        W90434  44.677  22.026   0.255
18852W        W90435  30.628  36.584  13.398
18853W        W90436  26.539  43.771   4.569
18854W        W90437  26.026  19.454   4.188
18855W        W90438  41.431  17.701  14.770
18856W        W90439  21.310   6.684  12.969
18857W        W90440  19.312  19.273  14.008
18858W        W90441  29.021  28.914   3.822
18859W        W90442  33.348   7.732  12.213
18860W        W90443  21.898  17.825  11.982
18861W        W90444   8.525  17.267   3.661
18862W        W90445  22.234  41.550   4.176
18863W        W90446   6.680  13.704   1.385
18864W        W90447  16.233  39.841  12.409
18865W        W90448  37.088  20.203  10.651
18866W        W90449  14.386  11.389   4.756
18867W        W90450   5.959  42.325   4.214
18868W        W90451  16.498   3.138  12.534
18869W        W90452   7.169   3.833   2.313
18870W        W90453   8.768   0.029   1.918
18871W        W90454  37.239   5.439  14.961
18872W        W90455  35.066  30.960  12.103
18873W        W90456  36.876   2.948   0.012
18874W        W90457  18.292  44.922   0.059
18875W        W90458   3.214  43.366   3.123
18876W        W90459  24.406  24.133  11.549
18877W        W90460  21.536   9.284  13.980
18878W        W90461  26.513  14.900   2.341
18879W        W90462   3.004  39.001   4.636
18880W        W90463   0.240  11.777   2.347
18881W        W90464  18.031  20.138   2.815
18882W        W90465  34.365  37.465  14.008
18883W        W90466   7.178   6.399  14.436
18884W        W90467  37.167  34.177   3.769
18885W        W90468  12.237   4.169  12.884
18886W        W90469  18.568   2.568   0.695
18887W        W90470  22.286  36.070  13.809
18888W        W90471  44.581   0.966  11.764
18889W        W90472  42.513   7.270   1.899
18890W        W90473   1.339  15.593   4.544
18891W        W90474  39.040   5.297   4.434
18892W        W90475   2.545  15.564  10.504
18893W        W90476  21.610  16.757  13.300
18894W        W90477   3.839  11.164   4.101
18895W        W90478  22.994   6.713   4.362
18896W        W90479  27.084  25.167   1.257
18897W        W90480  29.638  30.682  10.684
18898W        W90481  20.802   6.101   3.601
18899W        W90482  43.026   5.332   3.771
18900W        W90483  31.033   0.440  10.762
18901W        W90484  37.959  43.803  11.128
18902W        W90485  25.174   8.122  14.946
18903W        W90486  22.260  27.011   9.892
18904W        W90487  14.016  21.069   3.458
18905W        W90488   6.478  41.999  10.909
18906W        W90489  40.637  29.469   5.321
18907W        W90490  35.482   1.723   4.129
18908W        W90491  32.340  21.626   1.165
18909W        W90492  11.302  29.657  12.048
18910W        W90493  27.540  22.508   4.411
18911W        W90494  31.531   6.239  11.642
18912W        W90495   0.138  15.698   2.931
18913W        W90496  28.500  11.130   2.298
18914W        W90497  11.721  17.049   4.671
18915W        W90498  40.269   8.585  14.016
18916W        W90499  39.284  34.233  12.866
18917W        W90500  42.145  30.448   0.435
18918W        W90501   3.737  42.919  10.817
18919W        W90502   1.094   5.411   1.875
18920W        W90503  30.503  22.319   4.075
18921W        W90504  22.178  44.553   2.182
18922W        W90505  37.523  20.571  13.046
18923W        W90506  35.788   2.966   0.837
18924W        W90507  10.142  15.066  11.601
18925W        W90508  25.141   0.265  12.889
18926W        W90509   3.909  32.361  13.577
18927W        W90510   4.722  16.673  12.804
18928W        W90511  29.966   1.426   3.666
18929W        W90512  42.035  34.829   3.041
18930W        W90513  32.973  37.595  14.946
18931W        W90514  21.503  32.555  13.489
18932W        W90515   9.667  12.615   1.693
18933W        W90516  24.629  20.442  13.910
18934W        W90517  28.406  15.061  10.738
18935W        W90518   1.850  12.514   0.964
18936W        W90519  11.151  14.105  13.835
18937W        W90520  31.835  16.993   1.170
18938W        W90521  15.602  20.518   3.776
18939W        W90522   8.491  29.851  11.359
18940W        W90523  25.756  15.560  13.399
18941W        W90524  17.095  44.454   2.208
18942W        W90525  42.514  35.912   4.708
18943W        W90526  17.704  26.013  10.592
18944W        W90527  34.444  29.168   4.701
18945W        W90528  20.218  16.673  10.717
18946W        W90529  18.353  38.431   3.159
18947W        W90530  13.789  34.092  11.553
18948W        W90531  31.139  27.667   4.589
18949W        W90532  37.773  19.262  11.202
18950W        W90533  40.161  11.390   3.600
18951W        W90534  20.529   8.597   2.586
18952W        W90535  11.458  28.639  11.987
18953W        W90536   0.287  21.123   2.633
18954W        W90537  25.456  32.151  14.484
18955W        W90538  40.331  30.359  13.533
18956W        W90539   9.731  37.553   2.670
18957W        W90540  17.023  36.006   1.478
18958W        W90541  44.347  28.415  11.194
18959W        W90542  11.257  40.866   2.366
18960W        W90543   3.235   2.391  13.073
18961W        W90544  29.421  21.521   9.752
18962W        W90545  35.406  44.236   0.746
18963W        W90546  25.970  41.455   5.043
18964W        W90547  20.966  22.564   3.392
18965W        W90548  14.791  27.999  11.930
18966W        W90549   7.412  21.307   1.404
18967W        W90550   5.275  36.165   0.720
18968W        W90551  28.470  37.783  13.779
18969W        W90552  29.068  39.046  12.140
18970W        W90553  14.364  26.152   2.264
18971W        W90554  15.555  42.946  12.528
18972W        W90555   2.736  18.132  12.071
18973W        W90556  41.338  37.731   0.345
18974W        W90557  21.480  23.444   2.766
18975W        W90558   1.060   5.354  11.152
18976W        W90559  14.840  35.391   4.159
18977W        W90560  18.578  35.093  11.800
18978W        W90561  42.339  10.208   2.134
18979W        W90562   1.490  29.808   2.830
18980W        W90563  10.805  32.359   3.876
18981W        W90564  40.015   3.738   2.739
18982W        W90565  35.907   0.972  12.539
18983W        W90566  30.408  12.084  11.069
18984W        W90567  44.937  29.832   3.164
18985W        W90568   0.978  20.905   2.400
18986W        W90569   1.742  14.608  12.929
18987W        W90570  29.876  41.974  12.847
18988W        W90571  39.851  17.505   2.407
18989W        W90572  13.104  30.956  13.421
18990W        W90573  35.018   5.444  14.789
18991W        W90574  15.325  30.027   0.009
18992W        W90575  24.121  11.749   4.946
18993W        W90576   4.271   9.686  11.076
18994W        W90577  23.096  30.914  14.794
18995W        W90578  31.247  42.283  10.419
18996W        W90579   7.069  35.301   2.571
18997W        W90580   9.631  40.013   3.713
18998W        W90581   6.265   2.961  12.431
18999W        W90582   1.555  23.305   0.484
19000W        W90583  40.300  25.450  14.376
19001W        W90584   2.514  35.427  13.829
19002W        W90585   9.859  19.314  11.704
19003W        W90586  35.697  28.966  14.265
19004W        W90587  36.788  37.516  11.456
19005W        W90588  22.729  25.493   1.179
19006W        W90589  22.528  19.314   2.392
19007W        W90590  30.285  21.004  14.080
19008W        W90591   1.012  27.991   3.414
19009W        W90592  33.868  30.876  11.019
19010W        W90593   9.470  29.718   0.347
19011W        W90594  44.852  30.546  14.904
19012W        W90595  40.607   5.908   5.492
19013W        W90596  24.957  32.392  14.436
19014W        W90597   6.916  34.567   4.571
19015W        W90598  28.406  34.928  10.614
19016W        W90599  42.798  36.373   1.298
19017W        W90600   1.844  43.232   2.613
19018W        W90601  36.967  42.302  12.136
19019W        W90602  44.956  28.638   4.739
19020W        W90603   9.193  35.912  13.570
19021W        W90604  29.434  21.700  14.771
19022W        W90605   6.728  30.098  14.630
19023W        W90606  34.187   6.608  13.804
19024W        W90607   2.722  41.204  11.630
19025W        W90608  43.860  33.571  14.004
19026W        W90609  29.244   4.301   2.367
19027W        W90610  10.266  35.937   4.293
19028W        W90611  12.140   4.641   0.842
19029W        W90612  44.432  25.668   1.674
19030W        W90613  43.360  32.023   0.418
19031W        W90614  40.511  22.739   3.122
19032W        W90615  21.790  21.626   2.252
19033W        W90616   9.234  35.978   0.776
19034W        W90617   4.835  32.649   0.050
19035W        W90618  10.173  33.372   0.764
19036W        W90619   3.731  24.022  11.003
19037W        W90620  23.736  18.024   9.849
19038W        W90621  24.058  16.453   3.196
19039W        W90622  31.510   6.677   3.229
19040W        W90623  20.671  23.224  10.746
19041W        W90624   3.622  31.077   1.912
19042W        W90625   2.959  16.713  10.636
19043W        W90626  37.508  20.646  10.976
19044W        W90627   4.803  15.317  12.940
19045W        W90628   2.289  32.834  13.505
19046W        W90629  31.070   8.107   1.360
19047W        W90630  20.042  27.683   4.901
19048W        W90631   0.644   2.061   4.557
19049W        W90632  26.478  26.662  11.600
19050W        W90633  24.143  33.632  10.070
19051W        W90634  16.797  39.290   1.660
19052W        W90635  24.232  27.851  11.179
19053W        W90636   1.401  28.313   4.306
19054W        W90637   8.720  37.134   1.972
19055W        W90638  12.663  43.538   2.844
19056W        W90639  44.872  22.643   2.756
19057W        W90640  12.127  13.545   4.181
19058W        W90641  38.346  25.419   3.211
19059W        W90642  34.148  39.561  14.798
19060W        W90643  34.927  44.770  12.133
19061W        W90644  16.736  41.135  12.002
19062W        W90645  16.867   1.025   0.202
19063W        W90646   0.394  20.143  10.721
19064W        W90647  20.652  33.237  12.048
19065W        W90648  13.896   7.718  13.332
19066W        W90649  40.990  35.356  11.555
19067W        W90650   4.625  25.573   3.659
19068W        W90651  44.794  43.535   2.415
19069W        W90652  29.929  28.129  12.373
19070W        W90653   5.278  39.995   2.606
19071W        W90654  21.849  18.147   4.969
19072W        W90655  26.130  22.002   3.832
19073W        W90656  26.198  34.420   4.180
19074W        W90657  12.153  27.297   4.532
19075W        W90658  38.841  16.614   4.963
19076W        W90659  21.948  13.074   3.229
19077W        W90660  22.597   3.213   5.091
19078W        W90661  42.196  38.863  14.857
19079W        W90662  35.524  32.109  14.244
19080W        W90663   5.813  31.436   3.409
19081W        W90664   1.276  43.996   3.747
19082W        W90665   2.970  19.625  12.634
19083W        W90666   6.916  40.653  11.104
19084W        W90667  40.095  17.745  11.921
19085W        W90668   4.967  13.669  11.915
19086W        W90669   5.302  25.129   1.243
19087W        W90670  41.530  32.508  11.698
19088W        W90671  21.337   4.814   5.090
19089W        W90672  22.432  40.427   4.582
19090W        W90673  13.311  12.347   2.161
19091W        W90674  30.152   7.217  11.524
19092W        W90675  16.682  39.153  13.974
19093W        W90676   5.394  16.707  11.511
19094W        W90677  28.962  30.959   2.510
19095W        W90678   9.847  40.442   4.572
19096W        W90679  30.881  22.776   9.867
19097W        W90680  28.243  35.977   4.546
19098W        W90681   0.786  44.803  10.730
19099W        W90682  24.980  44.991   0.177
19100W        W90683  17.260  30.514   3.631
19101W        W90684   0.175  19.167  11.673
19102W        W90685   4.647  42.114   2.299
19103W        W90686  39.105   2.510  14.315
19104W        W90687  13.065  21.375  13.699
19105W        W90688  32.976   2.821   2.177
19106W        W90689  32.556  19.580  10.130
19107W        W90690  26.571  35.129  14.377
19108W        W90691  31.433  29.570   0.041
19109W        W90692  38.005  38.402  11.876
19110W        W90693   0.952   4.435  13.366
19111W        W90694  34.062  23.108   1.386
19112W        W90695  40.824  11.583   0.920
19113W        W90696  34.406  10.809  13.359
19114W        W90697  44.461  23.441   0.744
19115W        W90698  35.344  37.474   4.467
19116W        W90699  36.109  14.213  13.047
19117W        W90700  17.689   4.720  10.833
19118W        W90701  20.758   6.777   1.975
19119W        W90702  28.551  43.176   2.193
19120W        W90703  35.099  23.395   1.642
19121W        W90704  36.241  10.593  12.506
19122W        W90705  42.799   9.733  11.967
19123W        W90706  41.040   8.311  14.184
19124W        W90707  29.937  33.504   1.958
19125W        W90708  43.042  16.405  14.283
19126W        W90709  44.763  21.260   1.733
19127W        W90710  28.716  12.994   2.790
19128W        W90711  26.571  37.126  12.067
19129W        W90712  39.291  23.843   4.524
19130W        W90713  23.991  15.989  10.518
19131W        W90714   7.826  39.309  13.535
19132W        W90715  19.284  13.745  11.554
19133W        W90716  24.038   5.994  12.304
19134W        W90717   1.375  19.591  12.915
19135W        W90718  42.075   7.347  12.052
19136W        W90719  25.152  41.121  13.861
19137W        W90720  35.439  20.751  12.039
19138W        W90721   1.932   7.690   1.891
19139W        W90722   3.906  16.071   1.654
19140W        W90723  11.690  22.748  12.076
19141W        W90724  38.381  42.288  13.329
19142W        W90725  20.652  31.858  10.628
19143W        W90726  32.866   4.785   4.559
19144W        W90727  25.550  36.304  14.368
19145W        W90728   8.603   8.855  11.827
19146W        W90729  37.877  15.337   4.187
19147W        W90730  18.449   1.270   4.160
19148W        W90731  16.559  21.593  10.966
19149W        W90732  33.956  37.942  10.657
19150W        W90733   7.769  36.511   1.344
19151W        W90734  20.934  30.991   4.233
19152W        W90735  44.184   2.475   2.927
19153W        W90736  32.970  26.100  13.309
19154W        W90737   5.597  27.664  14.620
19155W        W90738   3.734  44.240   2.999
19156W        W90739  41.449  14.757  11.067
19157W        W90740  34.168  15.171  12.878
19158W        W90741  41.311   7.971   9.669
19159W        W90742  24.407  16.795  12.511
19160W        W90743  15.088  10.595  13.879
19161W        W90744  42.366  23.508   1.299
19162W        W90745  34.199  41.389   4.247
19163W        W90746   8.832  19.692  14.062
19164W        W90747  26.043  34.855   2.677
19165W        W90748  35.032  39.636   2.868
19166W        W90749  30.202   8.723  13.947
19167W        W90750  35.533  10.379  11.106
19168W        W90751  34.397  36.861  13.361
19169W        W90752  12.034  22.715  11.504
19170W        W90753  42.925  42.713  13.095
19171W        W90754  37.110  22.143  11.364
19172W        W90755  36.297  38.965  12.031
19173W        W90756  20.322   8.271  14.301
19174W        W90757  12.318   6.287  10.638
19175W        W90758  34.995  19.380  14.773
19176W        W90759  34.900  36.624   2.784
19177W        W90760  30.669  28.337   4.152
19178W        W90761  34.713  16.684   3.174
19179W        W90762  33.126  22.850   3.365
19180W        W90763   3.048  28.797  13.076
19181W        W90764   4.165   8.184  10.910
19182W        W90765  39.805  30.994   0.774
19183W        W90766  24.910  25.844  12.937
19184W        W90767   0.784   3.029   4.956
19185W        W90768   3.760  43.348   3.114
19186W        W90769   0.162  21.386   4.839
19187W        W90770  24.496  10.086  11.865
19188W        W90771  25.562   4.095   4.123
19189W        W90772  41.843  12.100   0.786
19190W        W90773  42.818  33.168   4.508
19191W        W90774  32.108  10.116  14.432
19192W        W90775  17.357  12.804  13.622
19193W        W90776   4.280  36.086  11.162
19194W        W90777  38.105  17.329  12.217
19195W        W90778  13.508  34.935  11.184
19196W        W90779  20.197  29.993  13.370
19197W        W90780  33.489  36.942  10.459
19198W        W90781   4.349   0.792   3.927
19199W        W90782  10.806  35.560  10.596
19200W        W90783  29.631  31.564   2.169
19201W        W90784  31.637  18.716   2.268
19202W        W90785  28.109  36.474  14.853
19203W        W90786  30.062  44.898  10.865
19204W        W90787  24.663  21.011  11.945
19205W        W90788  18.488  29.043   0.395
19206W        W90789  43.033  12.348  13.823
19207W        W90790  11.846  40.889   3.653
19208W        W90791  11.632   0.732  11.985
19209W        W90792  43.036  18.574  13.007
19210W        W90793  28.676  37.722  11.299
19211W        W90794  41.840  34.871   0.333
19212W        W90795  19.783  39.097   3.682
19213W        W90796  33.144  14.240  12.430
19214W        W90797  31.787  29.230   2.209
19215W        W90798  27.142   2.747   0.869
19216W        W90799   5.125  22.046   2.275
19217W        W90800   5.138  44.462  14.672
19218W        W90801  32.025  22.350   0.738
19219W        W90802  41.515  27.152   1.338
19220W        W90803  24.517  30.950   4.224
19221W        W90804  18.170  12.861   2.656
19222W        W90805  19.190  37.126   2.784
19223W        W90806   6.641   1.855  11.581
19224W        W90807  13.345  11.996  11.516
19225W        W90808  43.412  44.688  12.120
19226W        W90809  32.186  21.266  11.096
19227W        W90810  39.036   1.952  13.343
19228W        W90811  36.442  17.043   4.730
19229W        W90812  24.619  26.942  10.910
19230W        W90813  18.647  42.804  11.568
19231W        W90814  12.290  26.099   3.398
19232W        W90815  15.102  28.943  13.561
19233W        W90816  16.391  26.597   2.972
19234W        W90817  27.906  43.281  11.638
19235W        W90818  22.211  44.372  11.925
19236W        W90819   7.766  26.264   3.187
19237W        W90820  16.752  11.166   2.755
19238W        W90821  44.557  20.999  13.099
19239W        W90822   5.783  28.515   4.182
19240W        W90823  16.344  18.826   4.490
19241W        W90824  40.744  15.377   2.370
19242W        W90825  37.070  33.658  10.677
19243W        W90826  40.039  21.304   0.190
19244W        W90827  36.284   3.443  10.840
19245W        W90828  38.383  29.724   4.086
19246W        W90829  29.763   8.637  11.151
19247W        W90830  41.754  36.677  11.576
19248W        W90831  29.186  22.694   3.507
19249W        W90832   0.417  29.784  11.613
19250W        W90833  35.128  34.566   4.959
19251W        W90834  42.037  19.846  12.131
19252W        W90835  16.983  36.154  13.384
19253W        W90836  15.666  26.699   3.714
19254W        W90837  34.508  22.792   4.032
19255W        W90838  20.066  27.134  13.764
19256W        W90839   7.850   6.764  13.899
19257W        W90840  22.040   9.621  11.532
19258W        W90841  28.634  31.627  12.887
19259W        W90842   5.135  25.698  11.558
19260W        W90843  12.711  37.415  13.242
19261W        W90844  22.286  41.835   1.313
19262W        W90845  10.900  12.771   2.313
19263W        W90846   0.905  29.906  11.556
19264W        W90847  42.324  13.002   4.130
19265W        W90848  31.700  29.583   2.885
19266W        W90849  17.675  25.778  11.029
19267W        W90850  15.112  34.078  14.909
19268W        W90851   6.546  35.431  12.082
19269W        W90852  36.418  14.576   2.802
19270W        W90853  40.783  40.828  14.400
19271W        W90854   0.920  39.932   4.380
19272W        W90855   6.924   9.300  10.552
19273W        W90856  18.156  33.153  14.430
19274W        W90857  11.831  10.345   1.852
19275W        W90858  11.834  36.045  10.446
19276W        W90859  30.038  10.855   4.667
19277W        W90860  32.994  31.465   1.689
19278W        W90861   6.789  15.203   1.290
19279W        W90862  20.630  40.761  13.811
19280W        W90863  29.370  30.007  11.228
19281W        W90864  31.836  19.779   3.280
19282W        W90865  13.253   2.299  14.893
19283W        W90866  10.731  29.750   0.740
19284W        W90867  43.347   8.231  12.053
19285W        W90868  14.916  36.094  10.187
19286W        W90869  30.060   8.797  12.080
19287W        W90870  28.066  38.800  11.944
19288W        W90871  25.467  40.619   2.869
19289W        W90872  26.433  39.700   4.792
19290W        W90873  29.062  40.418  14.305
19291W        W90874   1.098   3.523  13.114
19292W        W90875  40.875  18.987  10.793
19293W        W90876  28.121  17.275  12.610
19294W        W90877  21.734  26.611   3.223
19295W        W90878  30.890   4.500   2.362
19296W        W90879  39.050  16.888   0.850
19297W        W90880   5.910   8.649  11.947
19298W        W90881  16.811  26.503  11.568
19299W        W90882  32.410  11.649   3.607
19300W        W90883  25.611  40.862  11.588
19301W        W90884  34.069  20.189   4.265
19302W        W90885  41.516   6.777   3.350
19303W        W90886  25.924  18.339   1.326
19304W        W90887  43.248   5.444  10.651
19305W        W90888  39.012   7.189  14.785
19306W        W90889  26.182   6.750  14.839
19307W        W90890  27.168  12.911  13.221
19308W        W90891   4.255   7.951   1.908
19309W        W90892   7.167   4.387   1.766
19310W        W90893  23.061  18.735  11.937
19311W        W90894   8.763  28.387  12.305
19312W        W90895  15.150  11.731   3.771
19313W        W90896  11.257  26.580  14.473
19314W        W90897  39.855  29.178  12.914
19315W        W90898  31.658   5.532  10.638
19316W        W90899   4.795  39.533   3.563
19317W        W90900  26.319  19.160  13.932
19318W        W90901  18.104  34.184   1.959
19319W        W90902   7.291  31.956  11.233
19320W        W90903  39.828  14.969   4.503
19321W        W90904  40.476  40.451  12.642
19322W        W90905  27.211  15.310   0.416
19323W        W90906  32.048  40.371   4.221
19324W        W90907  34.817   7.193   1.977
19325W        W90908   8.615   5.464   1.344
19326W        W90909  35.813  31.889  11.094
19327W        W90910  44.877  22.476   3.748
19328W        W90911  19.386  32.304   1.298
19329W        W90912  37.297  11.339   0.197
19330W        W90913  19.542   1.812   0.378
19331W        W90914   0.767   3.607   3.757
19332W        W90915   8.241  25.438   3.198
19333W        W90916  42.026  24.070  14.081
19334W        W90917  42.210  29.849   2.642
19335W        W90918  40.349  43.274   0.952
19336W        W90919  22.942  30.868  12.933
19337W        W90920  40.442   9.599  11.762
19338W        W90921  25.560  44.767  13.778
19339W        W90922  19.042  34.186   0.400
19340W        W90923  30.338  31.161   1.676
19341W        W90924  29.468  32.572   0.750
19342W        W90925   5.931  22.542  12.889
19343W        W90926  10.386  11.384  13.451
19344W        W90927  42.953  16.539   4.685
19345W        W90928  22.308   1.246   0.789
19346W        W90929  35.336   3.228   0.555
19347W        W90930  18.643  15.239  12.888
19348W        W90931  16.156   1.926   4.124
19349W        W90932   7.799   6.702  11.067
19350W        W90933  41.743  18.745  11.059
19351W        W90934  26.444  27.036  14.546
19352W        W90935  42.721   2.495   0.320
19353W        W90936  15.648  35.497   1.366
19354W        W90937  29.861  35.915   0.955
19355W        W90938  18.509  28.897  14.326
19356W        W90939  22.227  19.531   3.208
19357W        W90940   7.131   6.757   4.560
19358W        W90941  43.454  41.927  14.380
19359W        W90942  15.470  21.800   4.949
19360W        W90943  17.474  22.129  14.316
19361W        W90944  30.158  40.473  13.886
19362W        W90945   4.661  38.106   1.864
19363W        W90946  19.132  11.199   0.433
19364W        W90947   0.700   2.654  14.414
19365W        W90948  34.662  30.985   3.220
19366W        W90949  26.635  17.275  14.030
19367W        W90950   9.840  31.111   1.968
19368W        W90951   4.159  44.858   4.939
19369W        W90952   7.156   3.319   0.762
19370W        W90953  25.727  38.999   1.114
19371W        W90954   4.731  26.005   1.265
19372W        W90955  25.428  42.424   0.888
19373W        W90956  41.851   0.913   4.519
19374W        W90957  33.586  19.140   0.410
19375W        W90958   6.800  31.508  11.679
19376W        W90959  32.972  13.319  14.972
19377W        W90960  28.477  27.187   1.825
19378W        W90961  37.989  38.482  13.468
19379W        W90962  19.168  22.045   4.747
19380W        W90963  19.714  39.288  10.796
19381W        W90964   3.016   5.745  11.873
19382W        W90965  12.111  39.381   0.730
19383W        W90966  40.446  33.545  13.980
19384W        W90967  23.283  13.590  12.003
19385W        W90968  16.823  35.703   4.243
19386W        W90969  21.003  37.402   1.134
19387W        W90970  30.146   4.206  14.952
19388W        W90971   7.976  43.378  13.142
19389W        W90972   2.236  41.767   2.736
19390W        W90973  28.954   3.507   0.715
19391W        W90974  44.322  26.492   1.315
19392W        W90975   1.683   4.500  12.089
19393W        W90976  24.880  16.124  11.606
19394W        W90977   3.052  18.459  11.857
19395W        W90978  31.782  42.297  13.007
19396W        W90979  22.545   6.716   3.295
19397W        W90980   9.923  29.436   1.288
19398W        W90981  40.214  30.383  12.232
19399W        W90982   7.712  24.023  10.525
19400W        W90983  14.633  23.907   0.712
19401W        W90984  39.308  10.779   1.036
19402W        W90985  23.546  32.413   3.616
19403W        W90986  28.465   3.904   4.292
19404W        W90987  38.057  26.574  13.325
19405W        W90988   5.681  23.555  14.897
19406W        W90989  25.387  20.314   2.351
19407W        W90990  25.462  17.491  12.866
19408W        W90991   2.539  29.780  10.789
19409W        W90992  31.946   8.230   4.176
19410W        W90993  39.750   1.015  11.723
19411W        W90994  14.463  36.604   1.141
19412W        W90995  12.253  36.851   2.255
19413W        W90996   5.051   6.301  10.648
19414W        W90997  23.038  41.314   2.009
19415W        W90998  28.164  10.253  11.049
19416W        W90999  24.815  24.955   4.204
19417W        W91000  28.092  12.603  12.082
19418W        W91001  11.568  39.485  11.465
19419W        W91002  39.047   0.927  13.591
19420W        W91003  44.829  34.856   4.947
19421W        W91004  25.096  37.244   2.213
19422W        W91005  37.132  36.316  14.283
19423W        W91006   8.425  26.035  13.350
19424W        W91007   8.284  14.112   1.891
19425W        W91008  33.917  23.087  11.415
19426W        W91009   6.157  43.821   2.599
19427W        W91010  28.155  44.889  12.132
19428W        W91011  36.871  44.641  14.027
19429W        W91012   0.989  41.064  11.627
19430W        W91013  44.045   9.861   3.306
19431W        W91014  11.137  21.154   4.060
19432W        W91015  43.764  20.590  13.396
19433W        W91016  29.055  36.724  13.032
19434W        W91017  35.273  31.719   1.787
19435W        W91018  13.260  29.677  10.495
19436W        W91019   7.783   3.716   4.413
19437W        W91020  21.662   2.228   2.784
19438W        W91021  42.867  14.767   4.689
19439W        W91022  26.006  14.328   4.930
19440W        W91023  19.658   7.415   4.644
19441W        W91024  16.228   2.870   1.808
19442W        W91025   5.423  34.420  11.119
19443W        W91026  39.384  16.547   2.216
19444W        W91027  36.335  29.311  13.847
19445W        W91028  18.363  32.366   1.369
19446W        W91029  40.737  42.397  13.362
19447W        W91030   1.321  28.130  12.078
19448W        W91031  38.033   2.799   2.573
19449W        W91032  12.895  33.922   2.410
19450W        W91033  27.835  35.331  12.484
19451W        W91034  28.431  39.522   4.596
19452W        W91035  18.219  16.274  14.442
19453W        W91036  43.417  33.003   0.746
19454W        W91037   8.549   2.540  14.904
19455W        W91038  10.726   7.369   0.394
19456W        W91039  38.090  31.443  10.680
19457W        W91040  22.084  31.117   3.200
19458W        W91041  40.850  30.841   4.018
19459W        W91042  34.700  16.813   3.670
19460W        W91043  35.619   5.420  12.941
19461W        W91044  11.738  27.493   0.781
19462W        W91045  27.077  22.249   2.352
19463W        W91046  36.764  20.643  10.392
19464W        W91047  35.519   1.596  13.039
19465W        W91048   4.430  29.295   1.357
19466W        W91049  15.168  36.125  10.645
19467W        W91050  14.135  42.598   0.677
19468W        W91051  41.384   8.630   2.797
19469W        W91052  15.244  38.067  13.561
19470W        W91053  27.635  21.944   0.030
19471W        W91054  30.057   0.538   0.365
19472W        W91055  31.221  22.551  12.962
19473W        W91056  27.272  21.605   3.107
19474W        W91057  36.040   3.805   4.076
19475W        W91058  29.311  35.973   4.544
19476W        W91059  16.859   2.225  11.066
19477W        W91060  11.427  10.620   4.226
19478W        W91061   8.340  21.750  13.329
19479W        W91062  28.029  35.791  12.727
19480W        W91063  41.308  18.101   4.948
19481W        W91064  14.879   4.935   2.714
19482W        W91065  23.126  29.228   1.930
19483W        W91066  37.210  29.861  14.769
19484W        W91067  11.208  42.419  12.482
19485W        W91068   6.933   3.357   2.177
19486W        W91069  30.765   3.984  14.139
19487W        W91070   4.556  29.048   1.995
19488W        W91071  41.055  40.930  11.181
19489W        W91072   4.263  26.674  12.937
19490W        W91073   8.160  20.342   1.716
19491W        W91074  36.116  13.797  11.650
19492W        W91075   7.302  17.217  14.563
19493W        W91076   2.554  23.959   1.223
19494W        W91077   3.433   0.081  12.871
19495W        W91078  25.672   1.929   1.729
19496W        W91079   3.156  32.645   3.100
19497W        W91080  11.154  44.709  13.797
19498W        W91081  14.302  18.347   4.035
19499W        W91082   0.413  44.582  11.097
19500W        W91083  31.871  22.524   1.914
19501W        W91084  17.021   2.937  12.530
19502W        W91085  25.087  36.337  14.096
19503W        W91086  12.739  13.064   3.725
19504W        W91087   9.092  30.629   3.452
19505W        W91088  43.169  10.717   0.657
19506W        W91089   6.706  38.412   2.259
19507W        W91090   3.961  18.293  12.423
19508W        W91091  29.169  40.600  10.540
19509W        W91092  11.855  25.416   4.537
19510W        W91093   2.916  11.310   1.232
19511W        W91094  40.568   4.801   5.004
19512W        W91095  14.713  27.437   0.955
19513W        W91096  17.830   4.530  12.632
19514W        W91097  40.284  20.127   1.705
19515W        W91098  25.692  15.783   1.763
19516W        W91099   5.121   5.162   3.682
19517W        W91100  40.308   3.506   3.603
19518W        W91101  42.237  41.171   4.329
19519W        W91102   8.274  44.370  13.834
19520W        W91103  35.790   2.900  12.972
19521W        W91104  23.808   7.279  10.112
19522W        W91105  40.046  35.378   4.174
19523W        W91106  33.163  16.766   4.120
19524W        W91107  31.031  19.157  11.680
19525W        W91108  30.526  43.375   0.832
19526W        W91109  17.883  36.121   5.023
19527W        W91110  32.400  19.966  13.270
19528W        W91111   5.705  29.485  12.781
19529W        W91112  43.507  30.181  13.251
19530W        W91113  23.198  31.179  12.561
19531W        W91114  13.609  26.761  13.874
19532W        W91115  22.672  27.138  14.324
19533W        W91116  22.030  42.755  11.137
19534W        W91117  22.292  15.070  11.993
19535W        W91118  19.314  35.637   4.235
19536W        W91119  23.932  29.915  11.522
19537W        W91120  28.082  40.280   0.896
19538W        W91121  36.650   3.773  14.544
19539W        W91122   7.658  10.053   3.661
19540W        W91123  37.956  21.078  13.504
19541W        W91124  43.783  37.558   4.625
19542W        W91125   9.448  22.169  14.290
19543W        W91126  18.082  13.579  11.429
19544W        W91127   7.250  13.296   2.114
19545W        W91128   0.763  30.675  12.521
19546W        W91129  12.750  11.858  12.375
19547W        W91130  36.081  23.816  13.471
19548W        W91131   2.903  17.056   1.443
19549W        W91132   0.465  28.649   0.105
19550W        W91133   5.901  23.172  13.427
19551W        W91134  32.543  40.632  14.943
19552W        W91135  12.257  34.886  11.552
19553W        W91136  16.826  23.756  10.148
19554W        W91137  26.400  18.027   4.109
19555W        W91138  34.816  30.192   2.345
19556W        W91139  22.544   1.501  13.308
19557W        W91140  10.887  12.597   1.311
19558W        W91141  21.240  13.018  11.984
19559W        W91142  21.212  24.515   2.379
19560W        W91143  18.601   4.829  10.714
19561W        W91144   8.768  14.866   1.484
19562W        W91145  14.071   9.832  14.758
19563W        W91146   5.801  14.343   0.892
19564W        W91147   2.810  36.596   3.734
19565W        W91148  23.620  42.740   2.784
19566W        W91149  34.477  37.552  10.718
19567W        W91150  43.048   0.740  11.490
19568W        W91151  17.174   3.553   2.509
19569W        W91152   5.211  14.713  12.144
19570W        W91153  43.065  30.543  13.149
19571W        W91154  34.278  16.244  11.103
19572W        W91155  36.039  39.327   1.584
19573W        W91156  13.901  32.654   3.667
19574W        W91157  23.391  35.891  14.692
19575W        W91158  40.802  25.450  14.210
19576W        W91159  18.389  38.105  12.078
19577W        W91160  29.360   6.764  10.702
19578W        W91161  26.958   2.854   0.384
19579W        W91162  42.264  42.945  13.682
19580W        W91163  30.438  18.031   3.368
19581W        W91164  24.638  27.617   2.814
19582W        W91165  19.776  33.676  11.590
19583W        W91166  38.242  42.901  12.031
19584W        W91167  10.684  18.320   1.467
19585W        W91168   2.450  10.037  11.224
19586W        W91169  14.412  41.453   1.304
19587W        W91170  11.607  19.971  14.569
19588W        W91171  39.343  33.632  14.580
19589W        W91172   8.434   4.565  10.649
19590W        W91173   5.279  30.628  12.620
19591W        W91174  15.745   0.243  10.235
19592W        W91175   3.312  38.289  12.012
19593W        W91176   0.353  44.525   3.018
19594W        W91177   5.864  10.360  12.584
19595W        W91178  11.316  19.169  14.368
19596W        W91179  32.040  37.302  12.937
19597W        W91180  43.779  35.610   1.840
19598W        W91181   7.428  34.375  13.790
19599W        W91182  13.355  41.721   4.953
19600W        W91183  13.958  38.452  11.084
19601W        W91184   2.315  13.742   2.443
19602W        W91185  43.299  32.159  13.647
19603W        W91186   1.829  35.097  10.523
19604W        W91187  43.685  23.587  11.419
19605W        W91188  32.300  28.497   2.864
19606W        W91189   4.429  27.517   2.263
19607W        W91190   4.471  37.428   1.790
19608W        W91191  31.909  33.314   3.292
19609W        W91192   4.776  41.312  13.633
19610W        W91193  22.109  29.472  11.430
19611W        W91194  22.222  17.071  13.315
19612W        W91195   6.983  43.351   2.695
19613W        W91196  27.148  41.521  11.113
19614W        W91197  34.903  14.777   0.892
19615W        W91198  23.909  40.001  12.044
19616W        W91199  28.333  42.843  14.069
19617W        W91200  23.083   9.381   1.202
19618W        W91201  28.575  35.869   3.177
19619W        W91202  23.270  22.784  13.081
19620W        W91203   9.676  14.151  13.775
19621W        W91204  17.892  25.681  14.927
19622W        W91205  38.840  35.342  12.245
19623W        W91206   9.309  38.016  11.512
19624W        W91207   9.725  23.246  11.281
19625W        W91208  12.396  37.514  13.958
19626W        W91209   2.415  28.937  14.851
19627W        W91210  38.499  23.460  10.738
19628W        W91211  15.764   0.755   5.063
19629W        W91212  26.643  10.953  13.229
19630W        W91213  23.495  37.461  14.128
19631W        W91214  18.055  14.288   4.430
19632W        W91215   8.746  10.617   4.808
19633W        W91216  11.125   7.737   0.068
19634W        W91217  43.037  39.492  14.552
19635W        W91218  16.628  26.977  12.871
19636W        W91219  42.883  43.659   0.854
19637W        W91220  32.588  29.578  14.643
19638W        W91221  33.619  15.616   5.235
19639W        W91222  14.863   6.198  12.078
19640W        W91223  27.923  42.199   9.637
19641W        W91224  44.607  43.777  13.064
19642W        W91225  25.579  19.929   2.061
19643W        W91226  39.496   6.986  10.336
19644W        W91227   9.392  33.068   4.711
19645W        W91228  23.098   7.557   4.115
19646W        W91229  10.191   2.879  11.363
19647W        W91230  17.087  20.448   0.339
19648W        W91231   6.399   1.786  13.426
19649W        W91232  38.339  12.853  13.328
19650W        W91233  30.157  40.615  11.571
19651W        W91234   6.460  38.265  11.091
19652W        W91235  30.435  31.599  14.858
19653W        W91236  27.212  33.050   5.106
19654W        W91237  35.129  28.236   3.291
19655W        W91238  37.352  20.287   1.820
19656W        W91239  36.407  40.553   2.253
19657W        W91240  42.235  20.158   4.310
19658W        W91241   9.866  30.038  11.095
19659W        W91242  43.891   6.334  14.861
19660W        W91243  14.672  30.054   4.596
19661W        W91244  40.039  28.580  12.195
19662W        W91245  10.253  11.475  10.010
19663W        W91246  27.085   6.190  11.700
19664W        W91247   5.377  36.488  11.585
19665W        W91248   6.355  21.454   1.274
19666W        W91249  12.286  25.130   2.302
19667W        W91250  39.090  18.364  14.970
19668W        W91251   0.457  39.981   3.078
19669W        W91252   4.374   2.528   0.872
19670W        W91253  18.161  19.931  12.014
19671W        W91254  23.223  19.226   0.190
19672W        W91255  17.379  23.921   3.763
19673W        W91256  30.366  20.167   3.120
19674W        W91257  21.229  30.157  11.578
19675W        W91258  17.572  19.865  14.915
19676W        W91259   7.091   0.416   1.957
19677W        W91260  42.503   7.243   0.981
19678W        W91261  30.459  18.237  13.952
19679W        W91262  32.195  19.061   3.702
19680W        W91263  14.545  16.033  11.671
19681W        W91264  20.569  37.996   0.611
19682W        W91265  43.314  17.945   3.404
19683W        W91266   5.457  40.900   4.050
19684W        W91267   0.623   1.061   4.826
19685W        W91268  38.515   4.715  12.950
19686W        W91269  23.746   0.784  14.780
19687W        W91270  29.960  32.907   2.334
19688W        W91271  10.184  18.175   2.821
19689W        W91272  35.515  40.712   1.977
19690W        W91273  28.432  39.344   3.752
19691W        W91274  25.467   3.235  14.206
19692W        W91275  33.690  31.024  11.486
19693W        W91276  33.613   3.170  13.699
19694W        W91277  37.273  21.220  12.478
19695W        W91278  42.145  14.603  12.042
19696W        W91279  21.498  10.117  12.941
19697W        W91280   8.577  40.833  12.527
19698W        W91281  30.015   5.302   0.846
19699W        W91282  42.255  34.115   0.208
19700W        W91283  24.589   9.690   2.913
19701W        W91284   7.339  10.038   4.061
19702W        W91285   6.896   7.388  12.485
19703W        W91286  30.786  15.063  13.982
19704W        W91287  12.613  21.806   0.781
19705W        W91288  26.186  29.259   0.416
19706W        W91289  22.410  43.906  13.501
19707W        W91290  30.138  38.316   2.286
19708W        W91291  15.499  18.108   2.262
19709W        W91292  33.439  20.460   2.821
19710W        W91293   7.253  32.882  13.088
19711W        W91294  32.097  11.712   2.639
19712W        W91295  30.455   8.037   0.420
19713W        W91296  29.333  44.397   3.327
19714W        W91297  36.011  30.645   4.069
19715W        W91298   1.125   6.285   2.764
19716W        W91299  18.166  32.486   3.663
19717W        W91300  10.835   4.417  13.400
19718W        W91301  39.747  34.514  12.043
19719W        W91302  38.022  40.707  10.306
19720W        W91303  22.629  19.240   3.780
19721W        W91304  33.438  13.134   1.782
19722W        W91305  37.331  16.139   4.123
19723W        W91306  18.662  22.203   1.198
19724W        W91307  23.809  10.865   0.685
19725W        W91308  30.391  32.899  12.026
19726W        W91309  39.557  12.246  12.536
19727W        W91310  28.030  39.535  11.638
19728W        W91311   0.405   9.854  14.154
19729W        W91312  35.979  13.218   0.188
19730W        W91313   6.043  43.007   0.260
19731W        W91314  14.290   3.121   5.274
19732W        W91315  36.014  21.264   2.599
19733W        W91316  37.917   6.289  14.219
19734W        W91317  42.573  30.702   2.803
19735W        W91318  14.595  21.102   2.277
19736W        W91319   0.247  43.989   1.716
19737W        W91320  38.579   0.170   0.445
19738W        W91321  28.073  27.987  13.915
19739W        W91322   3.126   4.467  13.960
19740W        W91323  10.835  41.049   2.692
19741W        W91324  25.435  34.183  12.442
19742W        W91325  40.278  21.601   1.372
19743W        W91326  44.398  17.668   1.867
19744W        W91327   8.404  20.588  12.537
19745W        W91328  44.604  19.022   3.457
19746W        W91329  12.394  28.072  10.719
19747W        W91330  36.674  23.505   1.849
19748W        W91331  32.006  12.361  12.857
19749W        W91332   3.311  42.774   3.753
19750W        W91333  20.890  36.322   1.991
19751W        W91334  30.555  43.352   3.132
19752W        W91335  40.898   3.285  12.802
19753W        W91336  24.748  32.510   0.846
19754W        W91337   3.421  19.086   2.895
19755W        W91338  30.330  17.837  10.640
19756W        W91339  16.057  20.356   1.678
19757W        W91340  30.963  41.947   3.609
19758W        W91341  14.373  19.820   3.147
19759W        W91342   3.415  13.758   0.947
19760W        W91343  31.015   0.767   3.185
19761W        W91344  39.094  15.716   0.690
19762W        W91345  23.531  43.312  14.896
19763W        W91346  40.366   7.256  14.499
19764W        W91347   2.653  34.354   1.211
19765W        W91348   8.086   8.844   4.128
19766W        W91349   4.427  15.801  11.389
19767W        W91350   0.970  41.746   0.784
19768W        W91351   3.489  13.569   2.255
19769W        W91352  15.683   7.465  12.431
19770W        W91353  28.339   5.793  13.997
19771W        W91354  44.400  20.067  12.958
19772W        W91355   6.464  11.258  14.719
19773W        W91356  17.577   7.115   2.015
19774W        W91357  34.355  16.782  13.441
19775W        W91358   3.082  41.409   2.219
19776W        W91359  14.772  22.229  14.414
19777W        W91360  24.181  42.069  14.248
19778W        W91361  39.271  26.136   3.988
19779W        W91362  14.132  23.092  13.637
19780W        W91363  26.149  19.772   2.826
19781W        W91364   3.732  44.859   3.128
19782W        W91365  32.102  23.518   1.948
19783W        W91366  39.212  35.913  14.028
19784W        W91367  28.516   2.874  14.013
19785W        W91368  32.531  17.199  11.942
19786W        W91369  30.002  40.017  12.469
19787W        W91370  13.729   3.197  14.280
19788W        W91371   4.726  16.882   4.700
19789W        W91372  20.351  11.944  10.368
19790W        W91373  40.376  15.763  12.967
19791W        W91374  25.071  19.419   4.177
19792W        W91375  26.938  32.700   0.100
19793W        W91376   4.723  32.013  11.904
19794W        W91377  15.135  19.682   2.647
19795W        W91378  25.617   7.684  11.605
19796W        W91379  29.196  26.617   0.703
19797W        W91380   5.821  19.490  11.900
19798W        W91381  33.674  31.956  10.585
19799W        W91382  31.332  27.169  13.496
19800W        W91383  25.466  38.752   1.482
19801W        W91384  27.634  39.809  13.872
19802W        W91385  14.388  11.180  14.881
19803W        W91386  38.886  44.782  11.150
19804W        W91387  15.749  36.830   2.722
19805W        W91388  19.625  30.358   1.845
19806W        W91389  17.466  24.149  12.527
19807W        W91390   6.807   6.868  11.486
19808W        W91391   7.778  33.961   4.392
19809W        W91392  22.093  19.205  13.512
19810W        W91393   5.329  27.617  11.815
19811W        W91394  35.842  34.914   2.835
19812W        W91395  35.520  39.819   2.806
19813W        W91396  15.123  19.233   1.172
19814W        W91397  23.008  43.483   3.218
19815W        W91398  26.227   7.702  10.861
19816W        W91399  16.898  20.739  10.616
19817W        W91400  19.304  43.251   1.761
19818W        W91401   2.371  36.845   2.151
19819W        W91402   5.629  16.315   2.792
19820W        W91403  35.446   7.448  13.962
19821W        W91404  38.297  36.366   4.188
19822W        W91405  33.501  17.663  11.596
19823W        W91406   6.018  36.080  14.183
19824W        W91407  41.947  43.654   0.923
19825W        W91408  15.204  30.495  11.176
19826W        W91409  44.261  33.478   1.400
19827W        W91410  38.470  27.014   0.306
19828W        W91411  31.157  15.144  14.867
19829W        W91412  25.028  25.120   2.622
19830W        W91413  14.153  31.139   2.857
19831W        W91414  12.076   7.118  11.987
19832W        W91415  20.015  10.142   1.879
19833W        W91416  36.132   4.271  11.952
19834W        W91417  10.647   1.449   2.241
19835W        W91418  25.221  21.224   2.633
19836W        W91419  22.521  28.314  10.383
19837W        W91420  20.588  35.361   3.371
19838W        W91421  32.541  10.807  11.385
19839W        W91422  10.302  12.802   4.192
19840W        W91423  40.893  34.784  13.444
19841W        W91424  18.839   4.527  11.197
19842W        W91425   2.767   0.799  13.883
19843W        W91426  24.692  30.062  12.554
19844W        W91427  25.449  22.300  12.602
19845W        W91428  33.914  34.509   1.460
19846W        W91429   6.496   2.976   2.989
19847W        W91430   9.818  41.473  14.758
19848W        W91431  13.072   5.397   1.795
19849W        W91432  32.608  43.825   0.537
19850W        W91433  44.309  22.706   0.572
19851W        W91434  15.516  12.074  10.393
19852W        W91435  43.529  39.389  11.383
19853W        W91436  22.856  30.728   5.005
19854W        W91437  22.580   8.477   4.151
19855W        W91438   2.733  40.977   3.759
19856W        W91439  44.383  25.019   3.910
19857W        W91440  10.391  41.559   1.833
19858W        W91441  23.608   6.296  12.277
19859W        W91442  27.143  36.858  14.490
19860W        W91443   0.145   1.956  10.782
19861W        W91444  11.732  32.916   4.161
19862W        W91445  21.508  28.072   0.354
19863W        W91446  44.769   5.143  10.677
19864W        W91447  12.178  22.566  13.952
19865W        W91448   2.290  15.211   0.916
19866W        W91449  18.437  44.347   0.880
19867W        W91450   2.149  39.905   4.555
19868W        W91451  15.552   7.807   4.073
19869W        W91452   6.782  14.740   0.732
19870W        W91453   0.685  41.825   1.222
19871W        W91454   9.329   8.184  14.927
19872W        W91455  44.443  41.376   1.332
19873W        W91456   6.628   7.086  14.233
19874W        W91457  15.566  15.829   4.538
19875W        W91458  33.950  27.641  10.516
19876W        W91459   1.232   3.242  11.543
19877W        W91460  10.373   2.367   2.270
19878W        W91461  34.523  44.537   2.812
19879W        W91462   5.460  35.973   1.192
19880W        W91463  39.049  25.307  11.187
19881W        W91464  25.750   4.369   2.801
19882W        W91465   9.248   4.235   1.727
19883W        W91466  23.898  26.019   4.943
19884W        W91467  39.293  16.256   1.276
19885W        W91468   1.750  42.071  12.443
19886W        W91469  34.042   9.376  11.815
19887W        W91470  21.476  41.764  10.466
19888W        W91471  12.201   4.084   0.226
19889W        W91472  22.989  43.312   2.650
19890W        W91473   1.388   3.503   1.721
19891W        W91474  16.351   0.425  12.456
19892W        W91475   9.905   9.989   1.381
19893W        W91476  32.431  41.673  14.934
19894W        W91477  16.267  41.259   0.709
19895W        W91478  38.809  32.476  13.394
19896W        W91479  11.724  20.148  12.540
19897W        W91480  44.472   7.853  10.952
19898W        W91481  44.937  14.708  11.412
19899W        W91482  29.429  18.241   4.496
19900W        W91483   3.484  43.801   3.097
19901W        W91484   1.255  25.280   0.920
19902W        W91485  11.115  34.655  11.651
19903W        W91486   5.884  17.211   3.158
19904W        W91487  39.289  12.171   1.253
19905W        W91488   5.724   8.667   4.818
19906W        W91489  38.356  35.873   0.001
19907W        W91490  28.783  17.746   0.641
19908W        W91491  29.641  14.016  14.631
19909W        W91492  26.125  11.874   4.516
19910W        W91493  33.891  41.106   2.763
19911W        W91494   9.901  25.177   2.574
19912W        W91495  41.725  33.485   0.499
19913W        W91496   3.712  14.743   1.786
19914W        W91497   8.014  36.236   1.950
19915W        W91498  12.702  24.175   2.310
19916W        W91499  21.231   8.859   2.216
19917W        W91500   0.209  42.862  13.604
19918W        W91501   4.370  36.452  14.644
19919W        W91502   9.152  18.502  14.985
19920W        W91503   2.473  44.429   2.008
19921W        W91504   9.807  33.666  10.431
19922W        W91505  37.970  35.369  10.903
19923W        W91506  23.284  16.281  11.220
19924W        W91507  43.891  31.456  10.910
19925W        W91508  14.542  39.768  11.099
19926W        W91509  26.371  22.692   2.785
19927W        W91510  29.338  27.213  11.069
19928W        W91511  34.484  23.087  13.609
19929W        W91512  20.536   5.290  12.800
19930W        W91513  39.270  11.099  10.695
19931W        W91514  41.297  29.691  12.066
19932W        W91515  33.085  41.998  13.121
19933W        W91516   7.719  42.789  14.835
19934W        W91517  20.741   9.140  11.476
19935W        W91518   6.338  33.363   2.921
19936W        W91519   6.823  32.587   2.851
19937W        W91520   3.757  25.965  14.904
19938W        W91521  31.560   3.815   2.830
19939W        W91522  25.813  10.140  13.531
19940W        W91523  16.374  35.377  14.763
19941W        W91524  16.175  24.152   0.789
19942W        W91525  38.802  11.332  14.215
19943W        W91526   7.778  14.250   2.670
19944W        W91527  11.000   1.860   4.294
19945W        W91528  17.171   4.470   0.248
19946W        W91529  34.888  26.966   1.278
19947W        W91530  22.054  23.724   4.068
19948W        W91531  29.127  12.802   0.567
19949W        W91532  37.048  30.938   1.340
19950W        W91533  15.862  14.032  13.010
19951W        W91534  30.846  21.972  10.242
19952W        W91535  10.752  37.835  11.697
19953W        W91536  10.676  29.361   3.214
19954W        W91537  34.189  23.071  10.987
19955W        W91538  20.180  18.660  12.216
19956W        W91539  38.029  39.404   4.630
19957W        W91540   3.277  40.307  11.096
19958W        W91541  21.042  23.717  13.437
19959W        W91542  11.169  20.368  11.969
19960W        W91543  35.643  32.947   4.147
19961W        W91544   5.270  12.171  10.671
19962W        W91545  16.678  40.308  11.392
19963W        W91546  42.387  37.389  13.784
19964W        W91547   7.325  28.320  12.081
19965W        W91548  43.901  32.373  12.964
19966W        W91549   4.747  44.253  10.594
19967W        W91550  30.982  13.357  13.916
19968W        W91551  34.809   7.742  14.412
19969W        W91552   7.570   6.704   0.862
19970W        W91553  36.427  38.316  10.660
19971W        W91554  44.959  13.209   3.763
19972W        W91555  33.726  31.487  10.320
19973W        W91556  25.024  24.475   3.279
19974W        W91557   9.612   7.685  12.384
19975W        W91558  17.931   4.881   2.645
19976W        W91559  12.687  17.629   3.897
19977W        W91560  16.972   0.858   0.698
19978W        W91561   6.918  34.157   4.225
19979W        W91562  30.399  14.699   3.096
19980W        W91563  18.229   2.869   3.689
19981W        W91564  34.042  33.859   4.324
19982W        W91565  34.684  25.675  14.855
19983W        W91566  13.224  16.690  13.520
19984W        W91567  40.808  30.661   1.990
19985W        W91568  39.353  37.871  13.030
19986W        W91569  29.762  23.780   2.214
19987W        W91570  37.089  41.319  12.017
19988W        W91571  43.059   9.305  14.752
19989W        W91572  12.345  21.717   1.632
19990W        W91573  35.937  35.893  13.486
19991W        W91574  40.434  31.969  13.496
19992W        W91575  38.805  37.392   9.990
19993W        W91576  11.540  16.708   3.328
19994W        W91577  35.260   2.549  11.471
19995W        W91578  40.591  15.730  10.756
19996W        W91579   0.854  22.490  13.959
19997W        W91580  18.963  25.647  11.750
19998W        W91581  32.675  24.649   4.700
19999W        W91582  39.491  14.309  10.658
20000W        W91583  26.680  27.564  12.057
20001W        W91584   0.226  16.207  14.740
20002W        W91585   8.300  33.048   3.766
20003W        W91586  13.776   8.851  11.068
20004W        W91587  16.190  14.690  10.731
20005W        W91588  31.548   4.956  11.959
20006W        W91589  38.225  19.064  11.373
20007W        W91590  32.307  12.201  13.846
20008W        W91591  23.092  43.030   1.672
20009W        W91592  10.292  42.826  12.804
20010W        W91593  22.590  27.619   3.617
20011W        W91594  27.814  30.879   5.038
20012W        W91595   4.913   4.442   4.126
20013W        W91596  32.933  36.609   3.619
20014W        W91597   6.678  10.777   0.371
20015W        W91598  18.747   2.318  13.767
20016W        W91599  40.485  37.950  14.419
20017W        W91600  12.250  18.611  13.092
20018W        W91601  20.264  39.795  14.993
20019W        W91602   9.724  24.246   2.445
20020W        W91603  37.836  17.588  12.596
20021W        W91604  14.216  35.365   0.677
20022W        W91605   4.318   8.058   0.490
20023W        W91606  33.835   6.433  12.466
20024W        W91607  11.219  15.638  14.912
20025W        W91608  30.883  42.859   0.337
20026W        W91609  32.750  10.926   2.848
20027W        W91610  44.616  21.117   0.877
20028W        W91611  39.031   7.243  13.871
20029W        W91612  44.689  43.920   4.542
20030W        W91613  44.441   3.898  13.650
20031W        W91614  44.738  16.228   0.820
20032W        W91615  37.250  13.663  13.339
20033W        W91616  38.271  23.965  13.409
20034W        W91617  43.262  15.525  14.386
20035W        W91618   2.864  33.054  12.391
20036W        W91619  31.175   7.292  10.630
20037W        W91620  37.579   0.397   0.389
20038W        W91621  20.049  15.734   4.428
20039W        W91622   1.188  18.141   2.319
20040W        W91623  28.214  30.495   3.185
20041W        W91624   5.316  32.568   0.761
20042W        W91625  37.912   7.488  12.436
20043W        W91626  23.662  26.262   3.770
20044W        W91627  19.108   4.374  12.288
20045W        W91628   0.826  15.448   5.009
20046W        W91629  27.529  13.631  12.923
20047W        W91630  26.683  34.490   2.871
20048W        W91631  44.895  33.060   2.485
20049W        W91632   0.496   7.358  12.462
20050W        W91633   0.087  37.951  11.117
20051W        W91634  44.732  24.037  12.987
20052W        W91635  27.957   9.951  10.101
20053W        W91636  12.725  10.430  14.086
20054W        W91637  34.932  14.776   3.183
20055W        W91638   2.969  42.611   0.868
20056W        W91639  44.489  29.555   1.898
20057W        W91640  11.287   0.012   0.321
20058W        W91641   0.790  40.395  12.092
20059W        W91642  14.646  13.119  10.649
20060W        W91643  10.889   6.463  10.639
20061W        W91644  15.689  41.926   0.182
20062W        W91645  36.097  39.765  11.948
20063W        W91646  41.014  10.709   1.265
20064W        W91647  25.213  23.592  14.033
20065W        W91648  29.959  12.869   0.371
20066W        W91649   0.974   6.294  13.530
20067W        W91650  16.128  37.894  13.611
20068W        W91651  33.618  21.905   1.169
20069W        W91652  20.547  23.917   0.030
20070W        W91653   8.776  24.579   4.437
20071W        W91654  13.087  13.134  10.474
20072W        W91655   4.309   5.400   1.593
20073W        W91656  16.147  13.265  11.914
20074W        W91657  21.025  32.031   4.025
20075W        W91658  26.345  33.631   3.719
20076W        W91659  16.878   5.688   1.674
20077W        W91660  37.495  41.728   3.069
20078W        W91661  17.796  36.037   1.568
20079W        W91662  28.948   3.025   3.319
20080W        W91663   0.336  24.116   3.204
20081W        W91664   0.788   3.392   1.211
20082W        W91665  29.902  39.095   4.571
20083W        W91666  23.785   9.626  14.093
20084W        W91667  43.751  39.749   2.206
20085W        W91668  21.726   2.954   2.217
20086W        W91669  17.731  41.787  14.419
20087W        W91670  19.616  15.297   1.850
20088W        W91671   5.248  33.476  13.693
20089W        W91672  28.870  44.401  13.874
20090W        W91673  16.084  39.371  12.566
20091W        W91674  34.892  14.143  10.286
20092W        W91675  20.427  25.716  10.622
20093W        W91676  24.060   6.465  12.089
20094W        W91677  26.586  31.556   4.563
20095W        W91678  17.071  10.544   0.974
20096W        W91679  27.685   1.296   3.199
20097W        W91680  10.985  15.160  11.967
20098W        W91681  38.008  32.433   2.208
20099W        W91682  38.871   3.862   4.523
20100W        W91683  42.817   3.499  11.064
20101W        W91684  23.779  29.514  11.241
20102W        W91685  32.044  31.098  10.707
20103W        W91686  44.412  18.162  13.865
20104W        W91687  34.078  21.711   1.333
20105W        W91688   6.411  14.367   0.536
20106W        W91689   5.521  41.943   2.878
20107W        W91690  29.881   7.218   2.227
20108W        W91691   3.788  22.346   0.961
20109W        W91692  12.581  36.219  11.494
20110W        W91693  44.889  21.157  14.357
20111W        W91694   0.550  33.605   1.801
20112W        W91695  21.318   8.093  11.069
20113W        W91696   2.537  19.193  11.568
20114W        W91697   3.007  43.947   2.903
20115W        W91698  14.887  25.141  11.177
20116W        W91699  13.206  28.034  13.976
20117W        W91700  26.093   2.720   1.861
20118W        W91701   3.424   3.735  13.325
20119W        W91702  27.098  15.846  10.735
20120W        W91703  35.624  23.492  11.138
20121W        W91704   8.952   6.127   0.459
20122W        W91705  28.696   8.205   0.752
20123W        W91706  27.906  38.182  13.336
20124W        W91707  44.413   8.689   0.926
20125W        W91708  18.787  32.643   2.715
20126W        W91709   8.210  26.611  13.404
20127W        W91710   7.181  31.533   0.185
20128W        W91711  34.939   7.259   2.472
20129W        W91712  27.070  12.350   0.852
20130W        W91713   4.704  34.791   2.491
20131W        W91714   8.231   1.359  11.377
20132W        W91715   7.153  13.677   3.303
20133W        W91716  35.003  42.328   4.809
20134W        W91717  39.318   0.347  12.838
20135W        W91718  35.934  23.114  13.916
20136W        W91719   0.194  24.427   2.722
20137W        W91720   5.768  27.531   2.596
20138W        W91721  42.359  31.053   2.511
20139W        W91722  20.780  13.831   4.652
20140W        W91723  35.482  31.094   1.575
20141W        W91724   8.893   0.037  14.021
20142W        W91725   2.988   6.592  11.196
20143W        W91726  37.789  38.592   4.258
20144W        W91727  32.639  29.207   0.490
20145W        W91728   6.329  42.136  13.832
20146W        W91729  12.865  28.459   4.170
20147W        W91730  30.876  40.730   4.285
20148W        W91731  14.771  14.154   1.671
20149W        W91732   8.878  15.591  12.783
20150W        W91733  39.344  27.721   2.260
20151W        W91734  16.340  34.368  12.920
20152W        W91735   4.609  20.631  14.434
20153W        W91736  27.577  29.837   0.490
20154W        W91737   4.270  22.437  14.209
20155W        W91738  20.245   9.311   2.234
20156W        W91739  37.960   2.022   5.199
20157W        W91740  34.156  41.427   0.532
20158W        W91741  11.097  31.997   2.739
20159W        W91742   0.827  23.790  14.337
20160W        W91743  41.504   3.313  10.921
20161W        W91744  13.884  41.070  11.937
20162W        W91745  31.582  27.057  13.952
20163W        W91746  12.659  23.680   4.553
20164W        W91747  19.390  25.409  12.523
20165W        W91748   5.674  43.934  13.946
20166W        W91749  28.508  38.748  14.963
20167W        W91750  10.642  21.026  13.976
20168W        W91751  34.697  15.105  11.317
20169W        W91752   1.017  43.070   1.891
20170W        W91753  44.363  24.192   4.832
20171W        W91754   7.293  34.406  12.913
20172W        W91755  34.664   2.862   2.224
20173W        W91756   2.376  15.160   4.662
20174W        W91757  37.579  13.047  11.988
20175W        W91758   5.244  32.561  12.088
20176W        W91759   5.907  11.775   1.791
20177W        W91760  21.222  32.608   0.485
20178W        W91761  38.889  11.989   5.065
20179W        W91762  42.380  40.467   3.732
20180W        W91763   6.635  43.008   2.987
20181W        W91764  10.221  42.053   1.587
20182W        W91765   7.945   1.153  14.944
20183W        W91766  35.359  33.808  12.595
20184W        W91767  22.672  33.439   0.593
20185W        W91768  11.560  26.188   0.463
20186W        W91769  20.188  18.606   3.933
20187W        W91770   3.559  18.498  10.447
20188W        W91771   9.877   1.414   4.145
20189W        W91772  10.874  30.581   3.658
20190W        W91773  25.709   9.733   2.365
20191W        W91774  29.826  34.357   2.684
20192W        W91775  38.634  40.014   2.174
20193W        W91776  35.984  34.382   4.468
20194W        W91777   7.687  19.287   0.949
20195W        W91778  22.511  35.057  14.517
20196W        W91779   7.252  28.913  11.267
20197W        W91780   7.898  29.959  14.091
20198W        W91781  21.795  38.052  12.366
20199W        W91782   6.881  21.738   2.139
20200W        W91783   0.513  34.682   3.004
20201W        W91784  18.294   3.261   1.235
20202W        W91785  35.182  28.227  13.878
20203W        W91786  28.287   1.501   2.004
20204W        W91787  22.667  13.215  13.464
20205W        W91788  19.046  44.763   1.897
20206W        W91789  42.420  34.014   4.360
20207W        W91790  31.871  40.317   2.224
20208W        W91791  29.083   1.404  14.491
20209W        W91792  18.119  43.311   2.293
20210W        W91793  31.146  36.214  13.412
20211W        W91794  35.376   0.221  10.845
20212W        W91795   4.864  11.251  10.741
20213W        W91796   1.157  19.029  13.213
20214W        W91797   1.129  32.970  14.347
20215W        W91798  21.217  24.284  10.593
20216W        W91799  35.097  25.304  14.855
20217W        W91800  31.511  36.495  13.108
20218W        W91801  34.902  17.767  11.535
20219W        W91802  15.158  41.638   1.842
20220W        W91803  41.971   5.864  10.966
20221W        W91804   3.831   0.331   0.970
20222W        W91805  37.336  35.605  12.387
20223W        W91806   2.026  13.397   4.487
20224W        W91807  28.470   3.738   3.320
20225W        W91808  33.331   0.219  12.621
20226W        W91809  18.131  36.461   0.744
20227W        W91810  19.249   4.937  13.379
20228W        W91811   9.817  32.450   3.569
20229W        W91812  21.313  32.325  11.114
20230W        W91813   0.814  26.570  10.247
20231W        W91814   8.263  40.852   1.700
20232W        W91815   8.292  17.095   1.455
20233W        W91816   6.386   0.947   3.227
20234W        W91817   0.215  19.328  13.440
20235W        W91818   5.446   7.286   1.704
20236W        W91819   1.350  15.315   3.235
20237W        W91820  39.378  37.939  13.541
20238W        W91821  40.025  31.897  10.826
20239W        W91822  24.778  43.527  11.875
20240W        W91823  24.393  38.482  12.516
20241W        W91824  10.711  22.285   0.127
20242W        W91825  29.922   4.900  11.633
20243W        W91826  40.947  17.653   3.365
20244W        W91827  40.561  18.644   1.918
20245W        W91828  41.271   6.673  14.838
20246W        W91829  20.601  12.658  14.292
20247W        W91830  34.051   3.047  14.584
20248W        W91831  39.381   1.512  14.462
20249W        W91832  21.812  10.537  12.047
20250W        W91833  43.934   3.286  12.503
20251W        W91834  16.228  11.317  13.655
20252W        W91835  25.937  40.820   2.064
20253W        W91836   8.347  33.328   2.867
20254W        W91837  33.356   0.190  14.393
20255W        W91838  40.552  19.791   0.014
20256W        W91839  25.579  16.954   3.391
20257W        W91840  15.509  22.315   0.463
20258W        W91841  14.225  23.138   3.742
20259W        W91842  28.127  10.399   0.780
20260W        W91843  35.804   4.966  14.974
20261W        W91844  13.547  15.065  14.374
20262W        W91845   0.496  18.831  11.895
20263W        W91846  37.485  18.600   4.108
20264W        W91847  23.195   7.772  10.163
20265W        W91848  40.019  21.706  13.102
20266W        W91849  23.606  23.537   3.102
20267W        W91850  14.432  38.803   3.301
20268W        W91851  11.160  38.346   3.783
20269W        W91852  33.120  19.229   3.998
20270W        W91853  34.343  21.600   4.354
20271W        W91854  22.799  37.450  12.778
20272W        W91855   7.360  31.414  13.829
20273W        W91856  38.336   0.144  13.994
20274W        W91857  13.990  28.987  10.599
20275W        W91858  41.048  21.314   1.603
20276W        W91859  29.539   7.853  12.463
20277W        W91860  18.840  21.699  12.098
20278W        W91861  20.505  18.569  13.855
20279W        W91862  31.531   8.626   0.942
20280W        W91863  13.925   8.108   3.397
20281W        W91864  31.264  18.702   9.976
20282W        W91865  35.672  24.160  13.564
20283W        W91866   5.398  43.976  13.500
20284W        W91867  19.620  33.238   5.047
20285W        W91868  26.438  17.064  10.763
20286W        W91869   2.479  39.325   1.463
20287W        W91870  19.047  23.357  11.872
20288W        W91871   1.366  42.969   2.738
20289W        W91872  25.692   9.624  11.570
20290W        W91873  31.655  38.758   0.790
20291W        W91874   3.223  11.665  11.064
20292W        W91875   3.203  27.897   2.169
20293W        W91876  22.976  17.577  11.007
20294W        W91877  39.848  44.950  13.784
20295W        W91878  27.801  12.635  10.104
20296W        W91879  43.760   8.363   2.313
20297W        W91880  10.765  15.411  14.978
20298W        W91881  28.622  28.064  14.997
20299W        W91882  38.293  22.999  12.478
20300W        W91883   5.857  17.110   0.058
20301W        W91884  27.560  18.085   2.743
20302W        W91885   1.780  31.509  14.579
20303W        W91886  30.497   0.747   0.545
20304W        W91887   6.109  34.147  14.514
20305W        W91888  15.875   8.418  11.091
20306W        W91889   4.883  20.469  12.505
20307W        W91890  43.465  39.030  12.583
20308W        W91891   5.792   9.769  11.160
20309W        W91892  30.262  16.290  12.840
20310W        W91893  15.556  38.485  12.468
20311W        W91894  41.041  31.009  12.214
20312W        W91895  39.929  25.961  13.112
20313W        W91896  15.983   6.777  14.435
20314W        W91897  16.002  17.160   0.202
20315W        W91898  41.434  13.695  11.968
20316W        W91899  37.514  17.726  14.705
20317W        W91900  27.936  27.388  11.535
20318W        W91901  27.164  42.015  11.175
20319W        W91902  21.188   0.670   1.450
20320W        W91903   9.125  41.990  10.730
20321W        W91904   6.835   1.587  11.166
20322W        W91905  11.386   6.603   3.536
20323W        W91906   0.716   7.109  10.307
20324W        W91907  33.390  34.961  10.953
20325W        W91908  23.395  24.032   3.729
20326W        W91909  18.706  43.836   3.093
20327W        W91910  15.735  30.475   4.098
20328W        W91911   7.250   0.532  14.551
20329W        W91912  34.755  19.238  11.479
20330W        W91913  17.432  44.140   2.422
20331W        W91914  33.441  18.862   3.802
20332W        W91915  17.780  14.411   3.346
20333W        W91916  23.526  30.655   2.659
20334W        W91917  15.487   6.707  14.533
20335W        W91918  37.572   5.313   2.422
20336W        W91919   2.435  35.316  12.465
20337W        W91920  41.536  24.973   3.756
20338W        W91921  23.635   0.503   4.119
20339W        W91922  33.511  21.376  13.763
20340W        W91923  33.232  12.399   1.280
20341W        W91924   6.886  21.592  11.589
20342W        W91925  31.509  42.934  11.920
20343W        W91926  43.437  21.178  11.067
20344W        W91927   9.515   8.301  11.171
20345W        W91928  43.641  18.556   4.176
20346W        W91929   4.213   3.035   0.060
20347W        W91930  25.452  13.378  13.050
20348W        W91931  36.871  21.793   3.084
20349W        W91932  12.849  17.326   1.801
20350W        W91933  20.111  31.527   3.652
20351W        W91934  14.776  21.330  13.571
20352W        W91935  36.472  13.855   3.669
20353W        W91936  14.716  31.956   4.529
20354W        W91937  12.583  14.780  10.489
20355W        W91938  41.150  39.310  14.504
20356W        W91939   0.591   9.705   1.860
20357W        W91940   3.247   7.210  12.982
20358W        W91941  34.893  18.718   4.852
20359W        W91942   9.669  42.013  13.901
20360W        W91943  24.044  37.073  12.375
20361W        W91944  17.115  36.098  11.584
20362W        W91945   6.595  28.347   4.314
20363W        W91946  22.832   4.579   0.128
20364W        W91947  16.747  22.537   2.620
20365W        W91948  32.726   1.026  11.540
20366W        W91949  30.772  44.046  14.745
20367W        W91950  26.715  29.986   4.555
20368W        W91951   5.938  28.060   1.780
20369W        W91952   9.764  16.567   1.092
20370W        W91953  32.699  20.647   0.358
20371W        W91954  44.958  34.652  12.446
20372W        W91955  32.059  23.134   4.809
20373W        W91956   7.640  18.022  13.884
20374W        W91957  20.743   8.907  13.912
20375W        W91958  29.879  13.844  10.899
20376W        W91959  32.893   2.374   2.412
20377W        W91960   2.962   6.888   4.609
20378W        W91961  30.195  43.977  13.048
20379W        W91962  17.245  27.440   3.278
20380W        W91963  13.504   7.735  10.714
20381W        W91964  24.660  30.106  12.040
20382W        W91965  34.127  36.568  10.933
20383W        W91966  20.265   9.857   2.248
20384W        W91967  14.933  31.987   4.062
20385W        W91968  23.743  42.843   4.116
20386W        W91969  34.913   0.641   4.853
20387W        W91970   4.730  20.528   1.736
20388W        W91971  17.865  18.206  11.614
20389W        W91972  24.056   7.338  13.575
20390W        W91973  23.965   8.191   0.070
20391W        W91974  29.675  36.386  14.862
20392W        W91975   8.717  37.869   3.556
20393W        W91976  35.406  34.586  12.241
20394W        W91977   1.285  29.673  14.581
20395W        W91978   4.308   0.371   2.126
20396W        W91979  16.815  13.454  10.693
20397W        W91980   2.221  27.724  11.212
20398W        W91981  10.340  18.494   0.491
20399W        W91982   0.289  20.610   4.677
20400W        W91983   6.261   4.361  12.514
20401W        W91984  15.534  17.266  11.184
20402W        W91985  10.131  19.445   4.165
20403W        W91986   2.878   7.719   4.192
20404W        W91987  29.446   3.207  11.323
20405W        W91988  19.043  10.094  14.382
20406W        W91989  26.013   0.368  12.042
20407W        W91990  41.088  32.984   1.349
20408W        W91991  38.310  13.352  13.055
20409W        W91992  34.432  18.977  13.414
20410W        W91993  13.597  41.504  12.086
20411W        W91994  30.273  10.343   4.850
20412W        W91995  41.404  19.318   0.494
20413W        W91996  35.109  23.471  13.469
20414W        W91997  18.861  17.349   1.469
20415W        W91998  20.655  29.086  14.929
20416W        W91999   4.596  29.988   2.750
20417W        W92000  27.210  14.247  13.608
20418W        W92001  12.776  33.619  13.555
20419W        W92002  35.766  33.737  11.786
20420W        W92003  36.346  25.596   3.603
20421W        W92004   2.970   1.799   2.148
20422W        W92005  16.070  10.429  11.129
20423W        W92006  41.402  44.886  14.651
20424W        W92007  32.608   5.629  13.983
20425W        W92008  15.911  21.515   1.307
20426W        W92009  32.382  26.708   3.578
20427W        W92010  41.315  43.626   2.675
20428W        W92011  33.135  43.714  11.126
20429W        W92012   2.933  14.297   3.008
20430W        W92013   7.629  19.734  10.876
20431W        W92014  41.866  28.161   3.632
20432W        W92015   9.162  33.161   1.925
20433W        W92016  39.481  44.579  12.093
20434W        W92017  20.621  24.016   1.815
20435W        W92018  17.535  14.173   1.821
20436W        W92019  11.358   5.824  12.005
20437W        W92020  18.770   2.697  13.407
20438W        W92021  23.242  33.944  14.366
20439W        W92022   4.852   1.398   0.985
20440W        W92023  14.659   8.597  11.617
20441W        W92024  37.532  17.269   3.261
20442W        W92025  21.392   5.405  11.642
20443W        W92026  33.457   8.863  13.905
20444W        W92027   4.082  39.335   3.127
20445W        W92028  35.074   0.954  14.486
20446W        W92029   2.212   9.752  13.454
20447W        W92030   9.687   9.529  13.975
20448W        W92031  23.764  29.743   2.391
20449W        W92032  25.960  19.273  13.108
20450W        W92033  15.226  32.888  10.416
20451W        W92034  40.046  41.424   1.449
20452W        W92035   8.029  23.496   3.139
20453W        W92036   5.396  24.285  13.974
20454W        W92037  41.365  33.351   2.113
20455W        W92038  26.719  16.614   1.799
20456W        W92039  40.202  22.790  13.854
20457W        W92040  30.055  38.894  14.549
20458W        W92041  24.141  25.156   2.302
20459W        W92042  21.726  21.268  11.974
20460W        W92043   5.365  18.823   1.356
20461W        W92044  17.551  16.478  12.023
20462W        W92045  40.043   5.852   1.863
20463W        W92046  16.377   5.285  13.553
20464W        W92047  32.210  23.613   0.429
20465W        W92048  23.258  39.411  12.382
20466W        W92049  24.461   8.612  10.513
20467W        W92050  29.705  40.526   0.456
20468W        W92051  39.028  24.725   2.899
20469W        W92052  39.283  12.430  11.081
20470W        W92053  41.069  13.600   2.604
20471W        W92054  14.302  19.412   2.190
20472W        W92055  37.793  27.770  14.368
20473W        W92056  41.039  41.956  13.128
20474W        W92057  39.782  42.024   4.519
20475W        W92058  44.045  27.643  12.236
20476W        W92059  30.754  13.591  11.884
20477W        W92060   4.488  30.821  11.986
20478W        W92061  34.993  35.146   3.387
20479W        W92062  24.355  35.556  11.772
20480W        W92063  17.796  30.985   4.132
20481W        W92064  13.883  37.348  14.912
20482W        W92065  36.331  43.150   3.806
20483W        W92066  23.556  44.230  13.974
20484W        W92067  16.558   1.499  14.742
20485W        W92068   8.140   6.571  14.978
20486W        W92069  16.163  35.307  12.955
20487W        W92070   9.233  27.665  12.581
20488W        W92071  15.060  39.419  12.431
20489W        W92072   8.179  15.510   3.267
20490W        W92073  23.626  34.298   4.686
20491W        W92074   4.959  39.669  11.629
20492W        W92075  44.776  24.977  11.081
20493W        W92076   0.214   2.306   2.753
20494W        W92077   9.167  19.527   1.834
20495W        W92078  11.819  36.789  14.885
20496W        W92079   9.597   2.183  11.363
20497W        W92080  28.058   5.356   0.866
20498W        W92081  36.795  11.117   4.192
20499W        W92082  10.974  36.337  12.121
20500W        W92083  30.031   9.477  11.458
20501W        W92084  11.215  10.669  14.875
20502W        W92085   7.185  37.411   3.260
20503W        W92086  12.589  43.926  10.350
20504W        W92087  21.816   7.861  11.954
20505W        W92088  20.572  11.842  10.815
20506W        W92089  15.401  21.694  13.104
20507W        W92090  25.801  21.082   0.911
20508W        W92091  22.879   5.921  14.003
20509W        W92092  35.006  11.749  14.835
20510W        W92093  35.279   1.740   2.772
20511W        W92094  13.750  22.646   4.348
20512W        W92095   0.006  20.991   4.454
20513W        W92096   3.417  13.417   1.740
20514W        W92097  24.140  40.058   3.675
20515W        W92098  31.899   2.138   0.806
20516W        W92099   1.150  19.044  12.680
20517W        W92100  13.906  10.784   4.411
20518W        W92101  34.749   1.903  14.435
20519W        W92102   4.370  26.022   0.539
20520W        W92103  42.497  32.321   4.858
20521W        W92104  42.784  40.285   2.755
20522W        W92105  28.149  37.405   4.708
20523W        W92106   1.920  16.220   1.340
20524W        W92107  23.042  27.966   0.346
20525W        W92108  40.919   6.922  13.504
20526W        W92109   2.823  33.843   4.177
20527W        W92110  35.165  38.448   1.826
20528W        W92111  41.143  14.168  12.236
20529W        W92112   8.971  20.239  10.489
20530W        W92113  26.631  36.046  10.189
20531W        W92114  21.506  24.690   0.439
20532W        W92115  34.413   3.453   0.805
20533W        W92116   5.707  20.513   2.638
20534W        W92117  17.847  24.426  10.943
20535W        W92118  41.150  28.486   2.759
20536W        W92119   3.284  21.272   4.312
20537W        W92120   0.974   3.652  10.283
20538W        W92121  39.444  43.493  12.742
20539W        W92122  10.390  27.965   3.340
20540W        W92123  20.148  31.668   2.136
20541W        W92124   2.014  34.624  12.069
20542W        W92125   5.181   8.577  12.547
20543W        W92126  10.142  21.161  13.876
20544W        W92127  44.071  23.053  13.259
20545W        W92128   5.854  12.383  14.597
20546W        W92129  33.538   2.737   5.117
20547W        W92130  37.946   4.905   4.526
20548W        W92131  10.130  18.771  12.421
20549W        W92132   8.792   0.329   4.060
20550W        W92133  43.423  13.653  14.515
20551W        W92134  34.772   7.596  12.370
20552W        W92135  15.824   3.784   1.896
20553W        W92136  10.826  25.707  14.040
20554W        W92137  31.818  32.355  11.100
20555W        W92138   6.776  14.356  10.903
20556W        W92139   8.207  20.859   3.269
20557W        W92140  22.293  21.315  13.150
20558W        W92141  32.586   8.074  11.495
20559W        W92142  17.817   3.849  13.917
20560W        W92143  21.200   7.337  11.634
20561W        W92144   9.392  24.601  13.788
20562W        W92145  13.045  31.361  12.509
20563W        W92146  24.744  39.900   3.062
20564W        W92147  12.842   9.594   4.549
20565W        W92148  28.612  10.758   1.521
20566W        W92149  13.934  33.596  11.573
20567W        W92150   1.271  18.675   4.020
20568W        W92151   2.603  25.504  14.490
20569W        W92152  24.026  29.172  12.165
20570W        W92153   3.986   3.079   3.665
20571W        W92154  37.746  18.916   2.783
20572W        W92155  27.222  27.479   3.837
20573W        W92156  31.096  23.540   3.445
20574W        W92157  22.940   8.224  11.860
20575W        W92158  33.379   2.564   2.444
20576W        W92159   5.700  14.686   4.481
20577W        W92160  16.867  21.085   2.743
20578W        W92161  12.088  22.620  14.884
20579W        W92162  10.829  26.508   0.184
20580W        W92163  18.125  42.810  11.151
20581W        W92164  32.326  24.663  14.968
20582W        W92165  40.720   7.297   1.417
20583W        W92166  19.124  32.146   0.857
20584W        W92167  20.220  19.201  10.274
20585W        W92168   4.329   5.402   4.652
20586W        W92169   1.009  39.885  14.481
20587W        W92170  16.758  11.616   0.365
20588W        W92171  20.186  39.630   3.279
20589W        W92172  28.973  13.852   2.726
20590W        W92173  37.175  13.159  14.783
20591W        W92174   8.084   1.889   1.293
20592W        W92175   5.717  40.609   2.299
20593W        W92176  35.386  41.992   2.244
20594W        W92177  39.260  11.140  11.585
20595W        W92178  42.896  21.984   4.723
20596W        W92179  23.030   4.411  14.319
20597W        W92180  20.742   0.237  12.338
20598W        W92181  36.456  22.265  14.173
20599W        W92182  28.912  36.350   3.237
20600W        W92183  36.172  34.822  12.535
20601W        W92184  21.216   1.399   3.020
20602W        W92185   6.890  11.804   4.326
20603W        W92186   2.222  39.956   2.168
20604W        W92187   1.436   7.992  10.873
20605W        W92188  31.819  30.173   0.680
20606W        W92189  10.907  13.312   0.843
20607W        W92190  32.704  36.325   2.304
20608W        W92191  42.495  31.490  11.635
20609W        W92192  35.863  44.378   1.011
20610W        W92193  39.172  36.933   2.666
20611W        W92194  22.533   7.054  12.348
20612W        W92195  13.079  39.924   4.538
20613W        W92196  32.854   1.253  12.026
20614W        W92197  15.648  24.769  10.362
20615W        W92198   6.854  18.576  13.078
20616W        W92199  27.967  38.420   0.911
20617W        W92200  44.559   7.766   3.218
20618W        W92201  26.894  33.663   5.054
20619W        W92202  35.884   9.951  11.966
20620W        W92203  27.451  27.559   3.343
20621W        W92204  27.531  42.088  14.304
20622W        W92205  19.444  18.815  10.272
20623W        W92206  18.373   5.236   1.953
20624W        W92207  18.463  33.648   5.065
20625W        W92208  10.339  11.627   2.709
20626W        W92209  37.115  41.338   1.028
20627W        W92210  31.540  14.055   0.832
20628W        W92211  43.290  15.864   2.936
20629W        W92212  31.205  14.831  11.659
20630W        W92213  40.736  28.862   3.908
20631W        W92214  31.988   1.851  12.928
20632W        W92215  13.855  35.323  12.494
20633W        W92216  41.993  40.511   2.385
20634W        W92217  29.125   7.557  12.576
20635W        W92218  43.466  37.532   0.214
20636W        W92219   6.385  18.484  14.302
20637W        W92220  40.484  30.014   2.128
20638W        W92221  41.569  35.297   1.249
20639W        W92222   3.194  33.889  12.989
20640W        W92223  39.863  44.921   2.411
20641W        W92224  34.980   1.404   4.133
20642W        W92225   5.098  41.816  11.062
20643W        W92226  19.254  37.708   0.352
20644W        W92227   4.503   7.304  14.237
20645W        W92228  42.838   7.374  14.254
20646W        W92229   4.763   6.166  11.974
20647W        W92230  43.807  23.981  12.054
20648W        W92231  17.993  21.188   4.880
20649W        W92232  37.180  27.779   0.879
20650W        W92233   4.862  40.061  13.030
20651W        W92234  42.848  13.222   3.365
20652W        W92235  28.442  36.434  12.402
20653W        W92236  39.567  25.953  11.174
20654W        W92237   8.684   8.002  14.081
20655W        W92238  18.758  29.989  10.335
20656W        W92239  19.101  15.404   2.741
20657W        W92240  15.720  37.803  11.104
20658W        W92241  36.332   5.799   1.422
20659W        W92242  23.760  29.548   3.228
20660W        W92243  42.364  21.646   1.154
20661W        W92244  10.449   5.246   0.336
20662W        W92245  21.046  19.973  14.487
20663W        W92246   5.196  31.176  14.514
20664W        W92247   6.732  33.517  11.421
20665W        W92248  44.654  27.852  10.739
20666W        W92249  12.267  30.459  11.650
20667W        W92250   1.743   7.701   5.051
20668W        W92251  24.280  24.679  13.978
20669W        W92252   4.313  39.397  14.040
20670W        W92253  22.201   0.380   4.578
20671W        W92254  42.440  25.928  14.287
20672W        W92255  22.096  15.297  11.529
20673W        W92256  41.558  44.962  12.976
20674W        W92257  30.369  35.685  11.567
20675W        W92258  18.746   0.148  13.889
20676W        W92259  44.859  30.635   4.261
20677W        W92260  14.706  13.602  11.530
20678W        W92261  19.222  31.820  11.770
20679W        W92262  44.119   4.693  13.371
20680W        W92263  43.948  26.444   2.923
20681W        W92264  39.337  29.193  13.002
20682W        W92265  20.092  14.230   2.872
20683W        W92266  33.462  30.605   0.854
20684W        W92267  38.914  26.210  10.642
20685W        W92268  19.376   6.662   4.317
20686W        W92269   4.222  16.751  12.880
20687W        W92270  13.150  17.315  11.274
20688W        W92271  29.652  31.912   4.610
20689W        W92272  17.213  15.336  14.886
20690W        W92273  16.890  41.871  14.786
20691W        W92274   8.045  44.780   3.211
20692W        W92275  43.881   9.803   4.519
20693W        W92276   9.866  14.231   0.808
20694W        W92277   9.239  37.080  14.948
20695W        W92278  30.984   3.826  10.652
20696W        W92279  15.512  44.068   4.708
20697W        W92280  33.472   6.706   0.747
20698W        W92281  35.430  27.379  13.591
20699W        W92282  27.130  14.673  14.419
20700W        W92283  23.483  31.060   2.285
20701W        W92284   5.209  21.296   0.683
20702W        W92285   4.020  42.893   1.441
20703W        W92286  10.343   6.497   0.277
20704W        W92287  29.739  11.752  14.467
20705W        W92288  11.177  18.820  13.986
20706W        W92289  11.276  39.535  14.449
20707W        W92290  24.742  30.212  11.217
20708W        W92291  22.434   7.836   3.016
20709W        W92292  30.658  26.884   4.109
20710W        W92293  16.044   6.227  12.815
20711W        W92294  35.429  34.586  11.257
20712W        W92295   6.037  24.183   4.418
20713W        W92296  28.705  29.874  12.961
20714W        W92297  33.882  14.077   2.365
20715W        W92298  40.383   9.749  11.268
20716W        W92299   4.975  37.243   4.662
20717W        W92300  15.336  11.853   4.683
20718W        W92301  11.883   8.685  12.580
20719W        W92302  36.777   3.189   1.261
20720W        W92303   0.417   7.406  13.383
20721W        W92304  35.364  25.551   0.382
20722W        W92305  10.124  44.356   3.702
20723W        W92306  27.188  31.574  11.912
20724W        W92307  40.721  24.163   2.372
20725W        W92308  39.235  44.850  12.982
20726W        W92309  14.399  30.916  14.968
20727W        W92310  14.614  37.396   3.726
20728W        W92311  37.871  17.614  14.333
20729W        W92312  35.498   2.020   3.701
20730W        W92313  42.023  42.831   4.201
20731W        W92314   4.693   4.949  11.012
20732W        W92315  42.904  38.468  14.219
20733W        W92316   5.230  43.137  14.645
20734W        W92317  44.044  14.630   1.837
20735W        W92318  24.075   0.315  12.155
20736W        W92319  21.066  24.193   4.140
20737W        W92320  38.735  25.617  12.253
20738W        W92321  42.950  37.161   0.829
20739W        W92322  39.768  29.910  13.443
20740W        W92323  29.037  27.631   3.182
20741W        W92324  12.180  44.470   0.345
20742W        W92325  16.096  27.485   2.158
20743W        W92326  34.868   2.562  12.344
20744W        W92327   3.554  43.882  12.076
20745W        W92328  20.975  18.251   4.336
20746W        W92329  38.957  13.345   4.973
20747W        W92330  34.359   4.424  11.059
20748W        W92331   7.900   3.364  14.351
20749W        W92332   4.245   4.394  12.579
20750W        W92333  26.654  18.564   4.232
20751W        W92334   7.483  33.900  12.243
20752W        W92335   2.835  25.503   2.220
20753W        W92336  20.734  39.115   4.600
20754W        W92337  25.533  27.551   2.848
20755W        W92338  17.387  33.607   1.851
20756W        W92339  11.327  24.521  12.522
20757W        W92340  30.652  11.124   3.676
20758W        W92341  26.217  36.584  11.558
20759W        W92342  41.320   6.694  14.324
20760W        W92343  12.134  35.981   2.401
20761W        W92344   9.702  42.062   1.737
20762W        W92345  25.947  15.348  13.876
20763W        W92346  24.164  13.098  14.233
20764W        W92347  41.341   1.356  12.963
20765W        W92348  32.191  30.675  14.788
20766W        W92349  44.960  22.231   2.127
20767W        W92350  28.642  34.296   4.981
20768W        W92351  30.564   3.236  12.919
20769W        W92352   0.782   5.807   1.972
20770W        W92353  28.547  18.597   4.114
20771W        W92354  14.617  26.773  10.498
20772W        W92355  43.403   6.524  14.888
20773W        W92356  14.707   2.498   4.077
20774W        W92357  44.736  31.684  13.401
20775W        W92358  27.194  25.898  10.711
20776W        W92359  14.826  36.585  10.419
20777W        W92360   3.746  22.596   0.471
20778W        W92361  40.742   7.155   0.901
20779W        W92362  39.907   5.599   2.878
20780W        W92363  42.851  38.427  12.152
20781W        W92364  10.639  36.040   0.731
20782W        W92365  18.675   1.854  11.266
20783W        W92366   4.425   4.630   4.185
20784W        W92367  31.457  18.107   0.161
20785W        W92368  39.877  30.752  11.462
20786W        W92369  32.831  18.303   4.207
20787W        W92370  35.421   7.206   3.916
20788W        W92371  14.306  28.365  13.134
20789W        W92372  22.718  32.046  13.396
20790W        W92373  38.088  23.762   1.939
20791W        W92374  32.431  39.813  13.019
20792W        W92375  13.519  22.642   4.811
20793W        W92376  42.337  38.839   3.427
20794W        W92377  37.884  31.328   4.569
20795W        W92378  27.594  34.128   2.230
20796W        W92379  13.655   0.554   2.808
20797W        W92380   3.765  42.565  14.580
20798W        W92381   9.761  34.862  13.004
20799W        W92382  19.697  32.262  10.600
20800W        W92383  35.164  41.576  11.670
20801W        W92384  24.660  36.696  13.566
20802W        W92385  25.506  29.942  10.596
20803W        W92386  23.485  41.425  14.981
20804W        W92387   3.558  37.298   4.942
20805W        W92388  41.075  11.178  11.986
20806W        W92389  29.151  15.103  11.148
20807W        W92390  33.838  17.801  12.366
20808W        W92391  31.090  32.475  14.461
20809W        W92392  13.546  35.314   0.260
20810W        W92393  12.559  20.538  12.083
20811W        W92394  36.593  33.930  12.876
20812W        W92395  19.287  22.552  10.838
20813W        W92396  35.652  18.224  12.437
20814W        W92397   5.783  27.413   0.031
20815W        W92398  12.903  14.332   2.441
20816W        W92399  38.050   8.425  11.090
20817W        W92400   1.511  12.201   0.732
20818W        W92401  14.894  22.957   1.041
20819W        W92402   6.250  43.389   1.308
20820W        W92403  26.037   1.005   3.283
20821W        W92404  24.285   3.004  14.770
20822W        W92405  16.770  26.002  11.560
20823W        W92406   3.937  15.718  10.610
20824W        W92407  32.599  19.862   2.903
20825W        W92408   7.352  38.834  14.812
20826W        W92409  44.773  42.753  12.064
20827W        W92410  35.549  30.851   2.010
20828W        W92411  18.493  37.682   5.175
20829W        W92412  25.173  44.046  13.842
20830W        W92413  16.214  25.563   4.920
20831W        W92414  30.859  22.692  14.494
20832W        W92415  34.286  21.893  13.523
20833W        W92416  23.119  15.136  14.523
20834W        W92417  42.215  18.879   4.115
20835W        W92418  16.539   8.514  14.066
20836W        W92419  43.071  27.665  10.467
20837W        W92420   9.240  37.847   2.702
20838W        W92421   3.421  29.455  11.701
20839W        W92422  35.963  39.194   3.251
20840W        W92423  43.061  40.365   4.068
20841W        W92424  18.399   8.911   4.192
20842W        W92425  12.349  36.612   2.720
20843W        W92426  28.067  24.195  11.185
20844W        W92427  24.746   5.001  12.406
20845W        W92428  21.816  34.362   3.556
20846W        W92429   4.708   0.180  14.848
20847W        W92430  16.535  31.979  12.082
20848W        W92431  35.062  31.883  14.303
20849W        W92432  33.644  13.176   2.742
20850W        W92433  17.705  23.696  12.194
20851W        W92434  24.510  25.106   1.203
20852W        W92435  10.194  21.332   2.477
20853W        W92436  43.310  20.282  12.583
20854W        W92437   8.731  22.998   3.193
20855W        W92438  37.548  38.657  11.689
20856W        W92439  38.881  32.407  14.323
20857W        W92440  33.464   5.946   1.370
20858W        W92441  22.263  22.178   1.871
20859W        W92442   0.007   4.349  12.457
20860W        W92443   9.605  31.359   2.365
20861W        W92444  27.057  39.928  13.043
20862W        W92445   0.194  11.232  14.238
20863W        W92446  37.965  34.106   2.949
20864W        W92447  19.950  37.025   4.705
20865W        W92448  33.325  29.048  12.904
20866W        W92449  31.986  19.104  12.013
20867W        W92450  13.336   7.565   4.484
20868W        W92451  22.200  40.867  13.563
20869W        W92452  36.670  34.667  12.521
20870W        W92453   3.084  26.213  11.631
20871W        W92454  16.054  41.326   2.253
20872W        W92455  13.686  36.333   0.077
20873W        W92456  26.744  16.825  13.258
20874W        W92457  21.049  19.959  12.841
20875W        W92458  26.735  32.639  12.540
20876W        W92459   7.262  36.277   2.698
20877W        W92460  22.760  27.976  11.225
20878W        W92461  22.019  22.437   4.213
20879W        W92462  44.491  21.359   3.077
20880W        W92463   2.818   2.232   3.650
20881W        W92464  36.019  28.227   2.449
20882W        W92465  39.022  20.623   0.773
20883W        W92466  26.439  11.301  11.380
20884W        W92467   4.250  37.672   3.735
20885W        W92468   9.137  43.787   4.275
20886W        W92469  16.137  22.757   0.815
20887W        W92470   7.303  35.680   4.627
20888W        W92471  14.183  44.044  14.775
20889W        W92472  33.986  22.210   1.400
20890W        W92473  11.773  33.467   2.265
20891W        W92474  30.653   9.801  12.743
20892W        W92475  10.887  27.762  14.743
20893W        W92476  29.222   1.464  12.190
20894W        W92477  18.643  25.024  11.748
20895W        W92478  41.047   5.190   0.501
20896W        W92479   7.197  13.270  11.651
20897W        W92480   9.254  33.040  11.600
20898W        W92481   6.479  39.274   1.318
20899W        W92482  24.194  20.138   0.902
20900W        W92483  13.842  16.217  10.603
20901W        W92484   7.978   3.214  11.125
20902W        W92485  44.955  15.081  12.474
20903W        W92486   8.270   6.432   1.291
20904W        W92487  16.203  16.052  10.461
20905W        W92488  10.421  20.441  11.712
20906W        W92489  27.177  37.615  12.583
20907W        W92490   6.101  27.497  13.436
20908W        W92491   1.572  39.433   0.432
20909W        W92492  42.429   5.761   0.388
20910W        W92493   1.737  41.407   0.037
20911W        W92494  40.587   7.846   3.835
20912W        W92495  19.866   9.330  11.955
20913W        W92496  31.882  15.058   1.685
20914W        W92497   8.913  16.470   4.770
20915W        W92498  43.991  42.307   0.764
20916W        W92499  34.851   3.781  12.069
20917W        W92500  24.276  12.248   4.826
20918W        W92501  17.756  39.051  11.042
20919W        W92502  11.664   8.785   4.716
20920W        W92503  33.513  19.950   4.048
20921W        W92504  17.772  26.695  10.004
20922W        W92505  40.537  24.995  14.404
20923W        W92506  44.762   2.675  14.475
20924W        W92507  43.195  20.526  12.037
20925W        W92508  23.485  34.982   3.364
20926W        W92509   5.166  30.843  11.389
20927W        W92510  25.233  30.716   4.051
20928W        W92511  23.587  31.187   4.738
20929W        W92512  15.710  18.541   2.790
20930W        W92513  43.494  23.722   4.459
20931W        W92514  44.327   3.210   3.454
20932W        W92515  36.461  11.967  13.373
20933W        W92516  20.002  23.151  14.302
20934W        W92517  39.301   8.113   1.154
20935W        W92518  18.663   9.614   4.057
20936W        W92519  26.572  22.133   1.450
20937W        W92520   9.114  20.970   4.923
20938W        W92521   5.402   5.817  13.775
20939W        W92522   5.827  11.434  10.630
20940W        W92523  35.030  14.807  11.562
20941W        W92524   1.708  16.262  11.370
20942W        W92525  33.492   2.580   1.507
20943W        W92526  10.300  25.408   4.878
20944W        W92527  43.558  30.494   0.325
20945W        W92528   4.821  28.031  13.772
20946W        W92529  42.997  18.514  11.137
20947W        W92530  12.576   7.226   0.770
20948W        W92531  18.573  35.044   2.745
20949W        W92532  35.173   4.799   0.976
20950W        W92533  15.130  33.804  10.742
20951W        W92534  21.058  18.518  12.104
20952W        W92535  25.933  22.161  12.441
20953W        W92536  37.345   1.194  13.906
20954W        W92537  25.482  24.687  12.044
20955W        W92538   3.859  18.078   1.817
20956W        W92539  18.978   9.753   2.270
20957W        W92540   3.942  33.628  12.968
20958W        W92541  43.751   7.318   3.273
20959W        W92542  25.034   0.037   1.722
20960W        W92543  10.751  16.917   0.861
20961W        W92544  12.661  36.457   4.861
20962W        W92545   6.297  33.153  10.278
20963W        W92546  10.263  37.509   2.876
20964W        W92547  11.637   2.990  11.588
20965W        W92548  14.731   6.817  10.512
20966W        W92549  10.369  39.815  10.052
20967W        W92550  35.180  31.075   3.264
20968W        W92551  13.327  35.070  12.492
20969W        W92552   2.089  26.504  11.484
20970W        W92553  40.264  14.211   4.130
20971W        W92554  23.060  22.928  14.043
20972W        W92555  10.330  17.165  11.679
20973W        W92556  37.866  14.298  12.860
20974W        W92557  39.382  38.346  14.323
20975W        W92558  19.543  30.129   1.366
20976W        W92559  18.161  18.090   1.213
20977W        W92560   0.519  12.189   0.840
20978W        W92561  28.670  18.131  10.715
20979W        W92562  20.097   7.082   3.309
20980W        W92563  22.811  27.960  13.951
20981W        W92564   9.851  42.775   0.322
20982W        W92565  33.811  30.199  12.538
20983W        W92566   9.950   3.418   3.665
20984W        W92567  17.786   7.335  11.220
20985W        W92568  42.241  20.111   0.285
20986W        W92569   8.983   4.327  10.383
20987W        W92570  15.775  24.679   3.257
20988W        W92571  12.833   3.234  14.229
20989W        W92572  42.595  43.578  10.732
20990W        W92573  41.318  29.726  12.912
20991W        W92574  44.303  33.655   2.190
20992W        W92575   5.674  28.194  10.994
20993W        W92576   4.738  13.128  12.635
20994W        W92577  27.251  33.875  13.380
20995W        W92578   4.865  16.337  14.743
20996W        W92579  43.521  31.162  12.050
20997W        W92580   5.753  34.519  11.528
20998W        W92581  10.134  14.396  13.822
20999W        W92582  38.506  21.461   0.807
21000W        W92583  29.610  15.341   3.379
21001W        W92584  26.716  25.693  12.961
21002W        W92585  11.182  25.106   2.520
21003W        W92586  11.410  28.905   0.811
21004W        W92587   2.633  32.542   3.080
21005W        W92588  44.717   3.945   0.822
21006W        W92589  41.552   3.001  14.757
21007W        W92590  18.751  19.261  13.403
21008W        W92591   4.179  17.198  11.534
21009W        W92592  31.369  17.138  13.763
21010W        W92593  32.003   6.894  11.564
21011W        W92594  35.489  36.147   4.136
21012W        W92595   0.228  29.102  14.961
21013W        W92596  23.630  11.089  14.786
21014W        W92597   9.897  27.965  14.385
21015W        W92598  38.209  17.306   0.922
21016W        W92599   0.554   4.373   2.254
21017W        W92600   1.439  37.335   2.184
21018W        W92601   2.415  29.120   2.124
21019W        W92602  28.596  23.732  12.443
21020W        W92603  43.586  31.956  11.139
21021W        W92604   4.680  36.841  11.724
21022W        W92605  39.278  40.474   2.831
21023W        W92606  34.379  36.451  12.937
21024W        W92607  25.494  35.869   3.197
21025W        W92608   2.960   7.815  10.790
21026W        W92609  15.597  35.423   0.313
21027W        W92610   1.780  22.210   1.000
21028W        W92611  27.092  12.101  13.847
21029W        W92612  44.009   4.419   2.149
21030W        W92613  39.380  31.033  10.593
21031W        W92614  42.716  34.315   0.487
21032W        W92615  24.996  43.048  14.040
21033W        W92616  37.091   8.632   0.367
21034W        W92617  26.503  17.646   4.661
21035W        W92618  18.031  27.179  12.923
21036W        W92619  14.690  34.171   3.617
21037W        W92620  29.212  18.668   2.738
21038W        W92621  42.350  26.106   0.700
21039W        W92622   5.704  17.324   2.661
21040W        W92623  37.294  36.208  11.210
21041W        W92624  43.928  25.707  11.721
21042W        W92625  11.919   7.745   0.512
21043W        W92626  31.287   4.367  14.866
21044W        W92627   7.484   6.321   2.637
21045W        W92628   1.449  21.482   2.328
21046W        W92629  31.868   5.394   1.197
21047W        W92630  10.260  44.899  14.936
21048W        W92631  38.003  11.900  13.723
21049W        W92632  20.470  18.554  10.470
21050W        W92633  19.794  41.355  14.918
21051W        W92634  42.914  23.047   3.431
21052W        W92635  23.698   8.971  11.084
21053W        W92636  10.140  16.386  11.117
21054W        W92637  31.234  37.414   2.703
21055W        W92638  29.444  13.798  13.341
21056W        W92639  28.921  12.035   1.828
21057W        W92640  43.875   6.065   4.129
21058W        W92641  32.497  40.019   0.700
21059W        W92642  31.508  23.793   3.683
21060W        W92643  16.958  36.875   2.261
21061W        W92644  43.379  26.081  12.317
21062W        W92645  10.735  23.004   2.789
21063W        W92646  38.361   4.836  12.430
21064W        W92647  16.187  21.977   2.505
21065W        W92648   5.142   5.782  14.395
21066W        W92649  39.441  38.843  14.469
21067W        W92650  34.786  35.624  11.262
21068W        W92651  10.379  38.834   2.805
21069W        W92652  16.184   8.575  13.300
21070W        W92653  17.732   6.157  14.860
21071W        W92654  33.115   5.477   3.772
21072W        W92655   0.281  35.078   2.757
21073W        W92656   6.676  12.876  12.418
21074W        W92657  12.936  36.663  14.404
21075W        W92658   1.180  34.504  11.586
21076W        W92659  42.919   1.034  12.073
21077W        W92660  40.530   3.740   0.108
21078W        W92661  28.381   9.746   0.768
21079W        W92662  11.843  17.865  11.064
21080W        W92663  28.536  25.220  13.755
21081W        W92664  33.489  37.071   4.532
21082W        W92665   5.323  31.856  13.099
21083W        W92666   0.758  30.203  11.138
21084W        W92667  38.330  26.393  12.394
21085W        W92668  38.002  42.471   4.156
21086W        W92669  11.544  30.155  13.262
21087W        W92670  43.996   5.011  10.408
21088W        W92671  23.271  10.037  11.906
21089W        W92672  21.197  16.752  11.602
21090W        W92673  21.595  13.828   2.265
21091W        W92674  17.222  22.260   1.197
21092W        W92675   3.260  17.337   1.723
21093W        W92676  33.876  10.187   0.356
21094W        W92677  16.018  42.349   0.099
21095W        W92678  35.438  23.713  10.712
21096W        W92679  32.055  38.059  12.920
21097W        W92680  19.796  21.280   0.081
21098W        W92681  34.369  40.361   2.827
21099W        W92682  22.597  40.225  14.454
21100W        W92683  21.806  12.231   1.700
21101W        W92684  43.008  24.704  14.415
21102W        W92685  33.115  20.705   1.465
21103W        W92686  16.394  31.361   0.874
21104W        W92687  33.880  40.313  12.469
21105W        W92688  19.572  14.834  12.025
21106W        W92689  14.694  30.155  11.738
21107W        W92690  38.405  39.018   4.534
21108W        W92691  17.504  44.706  10.165
21109W        W92692  16.501  15.032  14.282
21110W        W92693   3.505  16.310  12.091
21111W        W92694  33.045  37.765  11.881
21112W        W92695  31.893  24.685  13.499
21113W        W92696  17.041   0.674   2.151
21114W        W92697  20.265  12.127   0.516
21115W        W92698  11.672  18.091  10.626
21116W        W92699  14.717  41.270  11.212
21117W        W92700  15.277   7.067   1.069
21118W        W92701  17.655   4.129   1.917
21119W        W92702  13.765  14.514   4.339
21120W        W92703   3.551   3.579   2.216
21121W        W92704   3.957   2.413  10.775
21122W        W92705  39.564  34.972  13.519
21123W        W92706  16.983   6.613  14.504
21124W        W92707  15.544   8.428   2.335
21125W        W92708  43.366  19.214   1.262
21126W        W92709  19.822  10.137   2.356
21127W        W92710   4.503  37.929   2.792
21128W        W92711   3.733  38.541   5.221
21129W        W92712   4.403  10.431   3.563
21130W        W92713  39.375  20.124   4.912
21131W        W92714  33.522  19.090   2.403
21132W        W92715   0.342  37.557  13.912
21133W        W92716  43.830   6.382   3.122
21134W        W92717   7.896  40.390  10.783
21135W        W92718  36.088  25.108   1.953
21136W        W92719  29.977  38.881   3.163
21137W        W92720  40.725  34.017  14.019
21138W        W92721  18.120   1.828  10.585
21139W        W92722   7.930  18.558   2.807
21140W        W92723  38.050   5.948  12.894
21141W        W92724   1.254  19.996  11.423
21142W        W92725  36.819  44.927   3.136
21143W        W92726  18.087  17.991  11.207
21144W        W92727  19.396   3.899  13.966
21145W        W92728  39.914  18.604   2.116
21146W        W92729  15.390  31.194   4.215
21147W        W92730   0.177   4.695  14.600
21148W        W92731  22.109  28.613  14.013
21149W        W92732   0.447   8.906  10.339
21150W        W92733  35.063  12.836  12.428
21151W        W92734   0.600  22.698   2.610
21152W        W92735  26.578  21.524  12.479
21153W        W92736  42.802  38.581   3.661
21154W        W92737  36.037  38.465   3.737
21155W        W92738   8.262  38.487  12.348
21156W        W92739  15.042   0.259   3.646
21157W        W92740  15.775  40.930  12.081
21158W        W92741  40.722  32.195   4.011
21159W        W92742  10.621  40.430   0.955
21160W        W92743  12.554   0.512  11.049
21161W        W92744   4.431   5.645   2.137
21162W        W92745  36.511   1.532   0.954
21163W        W92746  31.341   2.979  14.556
21164W        W92747   6.880  31.871   1.325
21165W        W92748   2.740  26.482   1.908
21166W        W92749  24.738   5.710   3.355
21167W        W92750  10.654  44.789  14.601
21168W        W92751  43.905  31.093  12.413
21169W        W92752  26.871   7.771   0.759
21170W        W92753  31.201  21.100   0.022
21171W        W92754  30.152  30.215  11.933
21172W        W92755  22.639   6.047  12.509
21173W        W92756  30.599  17.668  13.406
21174W        W92757  20.207  15.385  14.988
21175W        W92758   0.490   3.728   0.396
21176W        W92759  41.918  19.668  10.273
21177W        W92760  39.329  32.165   1.819
21178W        W92761  20.560  18.071  11.716
21179W        W92762   8.908  38.617   1.602
21180W        W92763  11.290  20.465   1.903
21181W        W92764   7.748   0.233  12.106
21182W        W92765  14.898  26.067   3.811
21183W        W92766  13.256  27.825   3.217
21184W        W92767   8.081  40.934  12.443
21185W        W92768  27.707  13.206   3.622
21186W        W92769  16.745  42.956   0.029
21187W        W92770  22.838   5.635  14.447
21188W        W92771  19.072  30.470   5.038
21189W        W92772   3.113   3.779   4.738
21190W        W92773  19.074   0.363  10.978
21191W        W92774   6.145  10.857   4.215
21192W        W92775  44.429  23.738  14.816
21193W        W92776  29.102   0.237   2.348
21194W        W92777  22.031  16.856   2.761
21195W        W92778  30.420  27.908  12.546
21196W        W92779  43.855   1.564   0.085
21197W        W92780  36.870  41.385   0.289
21198W        W92781  41.934  38.072  14.033
21199W        W92782  15.360   7.419   3.769
21200W        W92783   7.532   4.652   4.497
21201W        W92784   3.895  34.795   3.864
21202W        W92785  15.223   6.205  14.503
21203W        W92786  41.273  15.006   1.498
21204W        W92787  38.987   6.834  11.054
21205W        W92788  12.625  16.616   2.574
21206W        W92789   8.615  33.539   0.815
21207W        W92790  24.150   2.307  13.492
21208W        W92791  23.537   6.163   3.249
21209W        W92792  32.914   9.379   4.216
21210W        W92793  10.074  39.317   0.838
21211W        W92794  44.692  29.581   2.739
21212W        W92795  17.970   8.595  14.464
21213W        W92796  30.967  17.499   3.673
21214W        W92797  33.103  25.105   1.145
21215W        W92798  32.956  33.484   2.321
21216W        W92799  22.599  13.277  10.969
21217W        W92800  29.513  23.341   1.676
21218W        W92801  35.465  38.916  13.782
21219W        W92802  42.096  16.565  13.767
21220W        W92803   9.328   5.757   4.049
21221W        W92804  13.189  33.817   0.402
21222W        W92805  18.273   2.673   2.826
21223W        W92806   8.442  29.641   2.882
21224W        W92807   8.086  24.076  12.081
21225W        W92808  15.296  10.232   0.242
21226W        W92809  17.896  15.850   0.561
21227W        W92810   9.706  22.701   4.675
21228W        W92811  10.145  17.023  13.368
21229W        W92812  28.530   6.585   1.032
21230W        W92813  38.217  35.552  12.698
21231W        W92814  44.054  14.066   0.898
21232W        W92815  12.391  17.092   1.712
21233W        W92816   3.172  42.395   1.364
21234W        W92817  38.536   6.441   0.255
21235W        W92818  16.265  22.274  10.425
21236W        W92819   4.375  23.056  13.367
21237W        W92820  22.140  30.008   0.324
21238W        W92821  20.971  43.274   5.325
21239W        W92822  36.861   1.291  11.553
21240W        W92823  20.507  21.266   3.879
21241W        W92824  25.705  40.599   0.310
21242W        W92825  14.122  24.013   2.101
21243W        W92826  21.744  22.518   4.706
21244W        W92827   3.965  14.981  12.614
21245W        W92828   7.673   9.308  13.131
21246W        W92829  11.812  26.503   2.252
21247W        W92830  21.484  41.524   4.487
21248W        W92831  31.536  23.280  12.363
21249W        W92832  34.185  13.863   0.492
21250W        W92833  31.404   1.452  14.900
21251W        W92834  32.833  44.319  14.911
21252W        W92835  36.584  37.853   4.114
21253W        W92836  19.205  22.769   4.203
21254W        W92837   7.631  40.017   1.879
21255W        W92838   0.879  28.429  10.507
21256W        W92839  25.619  25.309  10.415
21257W        W92840  38.554  29.584   2.831
21258W        W92841  13.935  12.059   0.107
21259W        W92842   3.232  30.306  14.409
21260W        W92843   7.466  12.435  12.156
21261W        W92844  44.535  36.127  10.673
21262W        W92845  32.708  17.185   4.438
21263W        W92846   7.214  33.975  11.175
21264W        W92847   2.802  22.245  11.013
21265W        W92848  31.920  14.917   4.906
21266W        W92849  16.609  38.324  12.443
21267W        W92850   6.320   0.257  14.300
21268W        W92851  13.209   7.897  13.936
21269W        W92852  12.162  28.070   0.274
21270W        W92853  41.973  12.164  13.492
21271W        W92854  18.547  26.117  10.766
21272W        W92855  17.523  44.451  11.058
21273W        W92856  22.740  17.536  12.779
21274W        W92857  28.588  41.755   4.090
21275W        W92858  26.762  17.626   3.367
21276W        W92859   2.809  31.902   4.118
21277W        W92860  33.364  31.342  12.932
21278W        W92861  36.631   6.185  11.257
21279W        W92862  12.764   1.689   4.215
21280W        W92863  43.226  27.436   3.099
21281W        W92864  30.722  40.374   0.371
21282W        W92865  38.317  34.932   0.551
21283W        W92866  27.233   0.566  14.492
21284W        W92867   5.900  30.821  12.081
21285W        W92868  24.006   2.719   2.231
21286W        W92869  41.511  16.843   2.334
21287W        W92870  32.120  11.204   0.986
21288W        W92871  16.776  26.217   0.651
21289W        W92872  26.514   5.257   0.313
21290W        W92873  33.653   9.752  10.649
21291W        W92874  36.057  19.087   1.754
21292W        W92875  34.519  13.081  11.631
21293W        W92876  36.921  19.731   0.370
21294W        W92877   7.381  10.933  11.095
21295W        W92878  24.662  13.558  14.428
21296W        W92879  33.014  32.117   1.986
21297W        W92880  37.393  23.927   0.556
21298W        W92881   5.426  31.152   3.207
21299W        W92882  10.622  25.223  14.036
21300W        W92883  32.513  24.119  10.888
21301W        W92884  21.157  17.621   3.565
21302W        W92885  26.997  12.748  12.755
21303W        W92886   1.984  19.707   3.137
21304W        W92887  11.865   5.760   3.685
21305W        W92888  40.807  20.814   2.894
21306W        W92889  23.493  16.773   4.032
21307W        W92890  20.106  41.738  13.074
21308W        W92891  39.488   2.455   3.693
21309W        W92892  14.844   2.541  11.714
21310W        W92893  33.042  27.220  14.017
21311W        W92894  29.851  25.809  11.073
21312W        W92895  38.314  12.198  14.029
21313W        W92896  24.822  34.145   3.699
21314W        W92897   9.178   9.016   2.850
21315W        W92898  15.744  26.731  14.789
21316W        W92899  21.656  10.641   3.652
21317W        W92900  30.224  23.643  12.950
21318W        W92901  32.940   6.242  14.857
21319W        W92902   2.862  40.773  11.378
21320W        W92903  30.100  41.255   2.786
21321W        W92904  20.770  26.223  10.682
21322W        W92905  19.830  31.420   0.945
21323W        W92906  42.718  12.602  14.814
21324W        W92907  28.239  27.715   0.807
21325W        W92908  37.633  10.478  11.553
21326W        W92909  13.806  28.187   1.379
21327W        W92910  28.627  11.102  11.963
21328W        W92911  11.143   1.310   0.799
21329W        W92912   2.014  22.610  12.548
21330W        W92913   0.527   6.946   2.736
21331W        W92914  11.248  13.962   3.196
21332W        W92915   5.439  31.952   2.790
21333W        W92916  18.891  12.630   0.644
21334W        W92917   7.153  13.068   2.590
21335W        W92918   7.093   5.885  11.604
21336W        W92919  20.248  44.698  10.710
21337W        W92920  38.200  21.694   3.250
21338W        W92921  10.667  10.952  12.537
21339W        W92922   7.492  30.177   4.091
21340W        W92923  43.920  33.617  11.499
21341W        W92924  21.554   3.302   0.873
21342W        W92925  34.757   6.254   4.538
21343W        W92926  19.083   8.981  10.685
21344W        W92927  24.294   2.716  11.952
21345W        W92928  21.062  40.927   1.226
21346W        W92929   1.854  31.526  12.107
21347W        W92930  35.444  37.371   1.369
21348W        W92931  29.186  28.073  10.705
21349W        W92932  15.069  28.422  14.323
21350W        W92933  44.348  13.839   4.556
21351W        W92934  29.845  11.725   1.297
21352W        W92935  18.264  43.300  10.433
21353W        W92936  19.713  28.930  13.945
21354W        W92937  18.013  35.882   2.822
21355W        W92938  11.924  29.748  13.892
21356W        W92939   0.290  24.265   4.712
21357W        W92940  41.215   0.041  10.713
21358W        W92941   9.123  11.769   3.199
21359W        W92942  28.031  33.975  12.417
21360W        W92943   0.253  43.769  14.290
21361W        W92944  29.981  21.962  11.670
21362W        W92945   4.258  14.973  11.892
21363W        W92946  21.027  21.300   0.510
21364W        W92947   2.378   4.883  12.495
21365W        W92948  14.086  16.742  13.340
21366W        W92949   5.271  42.414   1.348
21367W        W92950   4.345  28.372  10.639
21368W        W92951   8.008  39.985  12.038
21369W        W92952  26.027  21.114  13.076
21370W        W92953   5.284  32.807   0.298
21371W        W92954  42.923  11.355   1.763
21372W        W92955  42.280  31.181   3.713
21373W        W92956  12.394  20.596  12.843
21374W        W92957  14.683  13.304   4.564
21375W        W92958  12.286  19.231  14.499
21376W        W92959  13.076  40.424  14.310
21377W        W92960  23.638  24.935   4.116
21378W        W92961  44.756  40.713   2.787
21379W        W92962   9.198  20.137   4.508
21380W        W92963  26.405   2.761   0.400
21381W        W92964  15.645  15.380   4.754
21382W        W92965  17.031  35.510  11.018
21383W        W92966  44.768  27.212   3.675
21384W        W92967  23.182  36.162   1.974
21385W        W92968  44.519  10.226   2.261
21386W        W92969   4.518  26.197   2.085
21387W        W92970   8.926  11.292   0.275
21388W        W92971  26.515  37.942   3.754
21389W        W92972   2.394  14.199   1.800
21390W        W92973   4.205  37.632  11.939
21391W        W92974  42.081  11.160  12.121
21392W        W92975  33.948   7.843   3.943
21393W        W92976  43.218  16.151  14.904
21394W        W92977  31.570   6.018   1.826
21395W        W92978  37.963  12.603   4.882
21396W        W92979  43.290   3.747   3.351
21397W        W92980  16.153  30.924   0.202
21398W        W92981  31.695   7.087  14.819
21399W        W92982  11.728   0.210  12.030
21400W        W92983  21.301  29.855   3.497
21401W        W92984  33.318  31.088   0.957
21402W        W92985  15.607  29.074   4.285
21403W        W92986  21.213  24.241   0.401
21404W        W92987  42.259   2.719   0.274
21405W        W92988   7.380  25.091  12.830
21406W        W92989  34.810   0.428   1.786
21407W        W92990   9.755  26.371  11.838
21408W        W92991  12.972   6.202   0.566
21409W        W92992  36.423  22.314   2.248
21410W        W92993   2.480  26.579   3.255
21411W        W92994  18.326  24.957   2.712
21412W        W92995  20.736  33.440  12.536
21413W        W92996   7.306   1.452   1.298
21414W        W92997  20.486  24.131  11.222
21415W        W92998  35.033  38.286   2.335
21416W        W92999  19.465   0.969   3.978
21417W        W93000  24.193  17.783   4.125
21418W        W93001  22.680   4.847  11.260
21419W        W93002   1.511   1.615  11.691
21420W        W93003  41.993  31.374   3.323
21421W        W93004  30.050  32.192   3.808
21422W        W93005  15.967  39.930  13.691
21423W        W93006  33.428  25.046  12.695
21424W        W93007   4.513   2.242   1.278
21425W        W93008  44.385  35.435   1.349
21426W        W93009  39.309  21.722   0.406
21427W        W93010  21.571  19.143  13.403
21428W        W93011  17.459   3.141   2.697
21429W        W93012  43.953  14.745   3.150
21430W        W93013   1.831  40.346  11.054
21431W        W93014  38.078  30.981  14.137
21432W        W93015  12.039  25.964  12.550
21433W        W93016  12.650  11.095   0.334
21434W        W93017   0.470  36.834  11.961
21435W        W93018  23.742  43.538  14.498
21436W        W93019  12.451  25.088  14.462
21437W        W93020   7.939  34.487  14.556
21438W        W93021   1.339  36.653   2.951
21439W        W93022   8.368   9.000  12.413
21440W        W93023  43.433  16.751   4.637
21441W        W93024  44.306  14.870   4.690
21442W        W93025  11.203   0.868  14.888
21443W        W93026  30.010  32.949  13.959
21444W        W93027  21.922   0.380  13.911
21445W        W93028  27.725   1.472   1.852
21446W        W93029  20.054  34.402   1.421
21447W        W93030  43.893  20.185  12.993
21448W        W93031  22.675  22.064  13.478
21449W        W93032   8.119  14.605   4.262
21450W        W93033  17.196  24.702  11.491
21451W        W93034   2.220   2.734   4.137
21452W        W93035   9.889   3.209   4.259
21453W        W93036   6.641   3.381   0.780
21454W        W93037   0.336  37.317   2.283
21455W        W93038  20.966   0.408   9.732
21456W        W93039  25.173   2.501   0.723
21457W        W93040  28.559  30.119   3.312
21458W        W93041  23.571  17.217  11.506
21459W        W93042  29.162  12.610   3.757
21460W        W93043   8.977  10.134  14.711
21461W        W93044  13.058  18.125   3.241
21462W        W93045  33.907  24.174   0.486
21463W        W93046  26.140  44.148   2.307
21464W        W93047  42.490  22.776  12.066
21465W        W93048   1.402  29.418   1.367
21466W        W93049  44.576  34.504   4.557
21467W        W93050  16.359  39.437   4.862
21468W        W93051  12.100  35.995  11.658
21469W        W93052   8.690  44.231   1.427
21470W        W93053   3.049  23.279  14.000
21471W        W93054  31.917  26.058   3.040
21472W        W93055   6.133  20.922  12.040
21473W        W93056  32.486   6.443   0.783
21474W        W93057  20.314   9.157  11.074
21475W        W93058  44.232  24.150   3.332
21476W        W93059   5.700  23.827   1.484
21477W        W93060   8.266  17.088   4.916
21478W        W93061  35.378  23.642   4.836
21479W        W93062   2.898  32.515   1.119
21480W        W93063  21.083  13.328   3.826
21481W        W93064  19.641   3.715   5.208
21482W        W93065  24.382  42.281   3.227
21483W        W93066  40.183  37.410   0.011
21484W        W93067   3.511   2.884   0.347
21485W        W93068  15.156  41.249   3.938
21486W        W93069  32.081  32.847  13.565
21487W        W93070  12.349   9.217  13.351
21488W        W93071   1.798  24.951   3.660
21489W        W93072   6.789  34.053  11.537
21490W        W93073  33.875  43.890  13.284
21491W        W93074  22.582  23.177   3.377
21492W        W93075  33.191  32.543   3.713
21493W        W93076   7.143  34.457  11.595
21494W        W93077   0.993  20.984  13.039
21495W        W93078  21.051  33.085  11.122
21496W        W93079  41.853  19.545  11.217
21497W        W93080  32.597  41.350   3.401
21498W        W93081  23.667  29.504   1.115
21499W        W93082  15.915  13.297   3.266
21500W        W93083  32.310  27.476  10.906
21501W        W93084  11.155   2.683   3.239
21502W        W93085  13.912   2.195  12.913
21503W        W93086  34.367  19.322  11.133
21504W        W93087  31.489  43.611  13.662
21505W        W93088  17.242  26.777  10.644
21506W        W93089   8.143  40.873  13.340
21507W        W93090  25.121  36.824  13.794
21508W        W93091  17.451   6.435  11.085
21509W        W93092  11.349  42.696   2.027
21510W        W93093   1.444  37.450   0.169
21511W        W93094  27.219  11.238   2.012
21512W        W93095   7.054  25.484  11.953
21513W        W93096  17.104   9.212  13.386
21514W        W93097  37.757   7.379  11.951
21515W        W93098  33.441  28.050  12.795
21516W        W93099  21.206  37.537   0.135
21517W        W93100  37.481  13.263   4.952
21518W        W93101   7.802   1.466   4.566
21519W        W93102   2.385  13.631  13.519
21520W        W93103  12.607  39.279  12.444
21521W        W93104  22.624  30.133  10.153
21522W        W93105  27.388  43.853  13.995
21523W        W93106  25.741  29.012  13.870
21524W        W93107  19.145   5.540  13.350
21525W        W93108  24.056  11.388  14.903
21526W        W93109  34.992   9.079   4.957
21527W        W93110  21.665  24.040  12.421
21528W        W93111  30.591  18.781   4.156
21529W        W93112  34.906  21.118   1.686
21530W        W93113   6.199  21.998  13.798
21531W        W93114  24.853  31.026  12.943
21532W        W93115  31.034   9.571  13.440
21533W        W93116  15.652  42.386  12.510
21534W        W93117  29.490  33.447  12.420
21535W        W93118  36.358  35.293   0.828
21536W        W93119   6.760  12.382  12.530
21537W        W93120  30.488  38.574   4.176
21538W        W93121  29.016   7.708  10.713
21539W        W93122  32.483  15.638  14.793
21540W        W93123  44.098   6.757  14.292
21541W        W93124  12.662  22.777  14.022
21542W        W93125  43.746  43.945   2.649
21543W        W93126   2.750   2.861  12.195
21544W        W93127  38.379   2.277  13.962
21545W        W93128  14.139  10.243  12.930
21546W        W93129  14.548  14.078   4.109
21547W        W93130   3.846  44.604  13.315
21548W        W93131  16.264  31.570  13.042
21549W        W93132  36.405  34.048   3.299
21550W        W93133  38.798  21.176   1.207
21551W        W93134  24.156  18.206   1.579
21552W        W93135  34.974  24.478  13.472
21553W        W93136  17.164  11.860   4.223
21554W        W93137  44.084  12.147  14.536
21555W        W93138  22.733  38.993   3.081
21556W        W93139   2.533  26.362  10.897
21557W        W93140  21.559  17.783  13.376
21558W        W93141  16.802  23.029   4.569
21559W        W93142   0.475  10.419   2.531
21560W        W93143  42.364  13.352   2.843
21561W        W93144  41.348   5.275   0.019
21562W        W93145   0.337  30.384  14.741
21563W        W93146  15.603  31.393  10.670
21564W        W93147  11.347  11.780  13.919
21565W        W93148  41.994  42.937   0.341
21566W        W93149  43.050   5.957   3.087
21567W        W93150  36.831  35.581  12.244
21568W        W93151   3.175   0.927  12.914
21569W        W93152  14.075  38.048   0.256
21570W        W93153   7.917  33.543   4.668
21571W        W93154  15.674  18.515   3.693
21572W        W93155  32.780   9.945  10.877
21573W        W93156  44.479  33.915  12.425
21574W        W93157  30.037  41.284   4.692
21575W        W93158   1.087  36.260  10.174
21576W        W93159  20.278  44.217  10.910
21577W        W93160  17.662   2.005   1.835
21578W        W93161  17.636  27.491   0.024
21579W        W93162  43.504  25.997  11.824
21580W        W93163   5.057  24.543   2.036
21581W        W93164   2.405  44.251   3.296
21582W        W93165  22.782   5.563  11.689
21583W        W93166  31.487  21.235   2.243
21584W        W93167   7.373  41.826   4.851
21585W        W93168  44.876  25.513  14.714
21586W        W93169  39.100  43.561   2.276
21587W        W93170  41.203   4.486  11.158
21588W        W93171  33.856  31.014  14.589
21589W        W93172   6.717  34.929   1.833
21590W        W93173  33.997   0.234  12.752
21591W        W93174  41.673  23.591   0.134
21592W        W93175  21.943  33.513  10.907
21593W        W93176   0.218  29.446  14.214
21594W        W93177   0.421  40.616   3.877
21595W        W93178  20.078   1.902   2.746
21596W        W93179   8.659  13.726  13.045
21597W        W93180  33.317   1.898  13.315
21598W        W93181  12.057  14.776  10.470
21599W        W93182  17.537   6.288   2.465
21600W        W93183   1.622   4.896   4.577
21601W        W93184  23.608   2.337  13.442
21602W        W93185   7.435   8.706  12.486
21603W        W93186  39.345  40.540  12.021
21604W        W93187   1.524   5.233   3.700
21605W        W93188  10.215  37.487   4.866
21606W        W93189   5.632  22.394   2.713
21607W        W93190  42.758  14.864   3.543
21608W        W93191  35.794  15.904  12.465
21609W        W93192  28.222  29.993   2.579
21610W        W93193  33.847  36.927  12.366
21611W        W93194   8.765  43.724   1.415
21612W        W93195  44.705  35.518   4.491
21613W        W93196  14.366  18.591  14.060
21614W        W93197  33.073  15.267  11.990
21615W        W93198  16.376  34.084   5.453
21616W        W93199  38.588   3.348  12.879
21617W        W93200  31.687  14.238   2.852
21618W        W93201   8.934  23.596   4.104
21619W        W93202  41.835   5.145  13.027
21620W        W93203   0.450   9.743   0.167
21621W        W93204  19.169  26.473   0.402
21622W        W93205  11.192  27.643  11.516
21623W        W93206  13.194  22.579   4.435
21624W        W93207   4.875  26.691  12.595
21625W        W93208  22.970  20.560  11.361
21626W        W93209  38.523  28.064   2.345
21627W        W93210  13.201  41.919   3.237
21628W        W93211  44.445  38.848   9.801
21629W        W93212  17.712  12.847   1.355
21630W        W93213  17.681  32.448  10.699
21631W        W93214  43.530  32.701   4.468
21632W        W93215  30.864  14.677   5.073
21633W        W93216  14.946  11.858  14.264
21634W        W93217  14.562  42.496   2.307
21635W        W93218   7.308   6.883  11.234
21636W        W93219  13.284  17.961   1.014
21637W        W93220  28.162   8.642   0.864
21638W        W93221   5.011  31.667   2.387
21639W        W93222   0.643   6.730  12.053
21640W        W93223   0.219  37.462  11.157
21641W        W93224  19.318   1.587   2.844
21642W        W93225   8.245   5.783  11.638
21643W        W93226  26.078   5.839   4.724
21644W        W93227  19.625   3.247  10.725
21645W        W93228  34.643   5.415  12.102
21646W        W93229   4.469  30.278   3.690
21647W        W93230  39.787  38.356   4.869
21648W        W93231  21.330   6.203  13.848
21649W        W93232  39.547   3.415   3.177
21650W        W93233  34.386  28.323   0.766
21651W        W93234  41.580   0.950  11.158
21652W        W93235  23.948  29.817  14.797
21653W        W93236  20.615  25.078   4.294
21654W        W93237  19.126  14.220   0.913
21655W        W93238  25.849  43.234  12.397
21656W        W93239  25.164  43.443  12.230
21657W        W93240  22.323   6.096  13.322
21658W        W93241  22.122  11.145   2.197
21659W        W93242  13.377  17.015   2.896
21660W        W93243  14.278  30.284  12.935
21661W        W93244   4.958  33.682  11.352
21662W        W93245  38.324   1.015   0.916
21663W        W93246  23.477  39.325  13.812
21664W        W93247  42.332  35.807  14.275
21665W        W93248  32.950   7.140  10.625
21666W        W93249  29.686  21.274   2.433
21667W        W93250  36.399   6.439   2.386
21668W        W93251   0.937  30.880  12.964
21669W        W93252  14.544  41.204   0.366
21670W        W93253   8.136  32.245  12.469
21671W        W93254   6.770  30.540  14.376
21672W        W93255  32.368  26.782   0.280
21673W        W93256  19.417  30.816   5.314
21674W        W93257  33.172  34.721   3.309
21675W        W93258  15.800   1.799  10.623
21676W        W93259  38.276   7.184   4.148
21677W        W93260  42.070  43.469  10.698
21678W        W93261  25.416   7.490   0.781
21679W        W93262   0.897  26.506  13.976
21680W        W93263  29.222  38.858   1.893
21681W        W93264  22.603  12.546  12.894
21682W        W93265  29.681  12.714  14.898
21683W        W93266   0.964  14.223   4.521
21684W        W93267  39.582  39.439  11.264
21685W        W93268  30.172  32.481  10.556
21686W        W93269  26.749  27.780  13.591
21687W        W93270  32.374  44.842  11.061
21688W        W93271   8.901   8.233  14.491
21689W        W93272  37.113  36.337   0.214
21690W        W93273  13.311  31.715  10.658
21691W        W93274  33.344  17.271  14.939
21692W        W93275   8.183   3.926   2.524
21693W        W93276   2.055  13.652  14.521
21694W        W93277  19.019  24.227  11.680
21695W        W93278  11.841   8.966   5.171
21696W        W93279  25.215  28.047   0.834
21697W        W93280  10.803  21.686   0.920
21698W        W93281  42.080  23.574  12.886
21699W        W93282  23.680  11.289   4.371
21700W        W93283   7.501   2.939  12.033
21701W        W93284  27.402  35.434   2.567
21702W        W93285  28.945   9.241   1.935
21703W        W93286   4.313   3.163   4.071
21704W        W93287  12.265  43.776  12.414
21705W        W93288  12.198   2.804   3.997
21706W        W93289  15.350  37.541   0.328
21707W        W93290  21.554  44.157   4.636
21708W        W93291  34.933   3.497   1.810
21709W        W93292  34.337   1.202  13.862
21710W        W93293  17.404  30.009   0.453
21711W        W93294  25.622  12.334  10.310
21712W        W93295  29.566  29.525   3.175
21713W        W93296  17.224   4.274  14.228
21714W        W93297  20.240  12.764   3.788
21715W        W93298  37.429  36.114   3.589
21716W        W93299  34.890  25.188  11.857
21717W        W93300  14.057  34.123   1.511
21718W        W93301  21.206  28.679  10.228
21719W        W93302  10.734   6.854   0.169
21720W        W93303  26.896  22.095  10.639
21721W        W93304   1.318  23.904  14.476
21722W        W93305  32.659   8.020   2.311
21723W        W93306  42.928   5.837  10.690
21724W        W93307  10.237  15.880  12.621
21725W        W93308  17.079   7.950   4.280
21726W        W93309  25.563  32.650  13.426
21727W        W93310  26.057   5.202   1.501
21728W        W93311  14.210   9.235   2.370
21729W        W93312  36.306   9.882   1.114
21730W        W93313  12.185  39.576   2.120
21731W        W93314  36.542  32.051  12.026
21732W        W93315   5.125  15.860  13.360
21733W        W93316   4.891  32.856   0.659
21734W        W93317  17.550  34.133  11.040
21735W        W93318  15.288  40.814   4.170
21736W        W93319  27.997  11.261  12.336
21737W        W93320  10.664  37.119   3.827
21738W        W93321  35.709  33.403  13.820
21739W        W93322   9.559  41.064  13.967
21740W        W93323  14.744  31.362  14.947
21741W        W93324  29.621  35.428   1.747
21742W        W93325  18.669  30.452   0.379
21743W        W93326  42.759  42.475  13.519
21744W        W93327  28.131  24.022   3.367
21745W        W93328   5.342  36.917  12.855
21746W        W93329  24.567  14.279   3.635
21747W        W93330   0.548  25.135   2.068
21748W        W93331   0.297   5.637  11.037
21749W        W93332  44.939  14.215   3.629
21750W        W93333  34.679  39.281  12.890
21751W        W93334  11.947  20.994  13.456
21752W        W93335  14.547   0.532   2.794
21753W        W93336  40.653  15.176   4.128
21754W        W93337  21.656  14.677   3.685
21755W        W93338  42.346  10.609  14.530
21756W        W93339  41.923  22.823   1.770
21757W        W93340  16.563  10.883  14.908
21758W        W93341  15.592  16.349   3.385
21759W        W93342  40.930  11.274   2.429
21760W        W93343  20.078  34.928  12.236
21761W        W93344  17.608  20.526  11.610
21762W        W93345  13.128  35.273   1.306
21763W        W93346  16.406  28.632   1.789
21764W        W93347   9.847  39.758   0.600
21765W        W93348  25.516  39.171  11.211
21766W        W93349  32.709  15.560  12.418
21767W        W93350  40.474  17.658  13.812
21768W        W93351   2.767  16.118   3.208
21769W        W93352   8.445  13.522   0.353
21770W        W93353   0.270  14.830   2.403
21771W        W93354  20.882  17.973   1.853
21772W        W93355  10.346  20.548   3.304
21773W        W93356  14.809  29.153   2.919
21774W        W93357  25.900  16.913   2.344
21775W        W93358   3.236  11.191  10.837
21776W        W93359   7.768  32.407   4.927
21777W        W93360  31.593  35.059   4.627
21778W        W93361  39.652   0.936  11.176
21779W        W93362  30.937  22.040   1.311
21780W        W93363  18.313  26.413   0.663
21781W        W93364  38.914  23.065   2.965
21782W        W93365  24.940  19.245  14.299
21783W        W93366  28.646  25.505   3.870
21784W        W93367  25.735  14.337  14.036
21785W        W93368  38.110  18.019   2.319
21786W        W93369  11.108  31.022  13.365
21787W        W93370  17.037  34.471   2.327
21788W        W93371  26.694  44.794   3.637
21789W        W93372  14.753  12.272   4.592
21790W        W93373   7.884  42.783  11.129
21791W        W93374  13.582  25.856  11.576
21792W        W93375  41.088  29.491  13.323
21793W        W93376  33.600  17.472  13.612
21794W        W93377  34.557   7.288  14.384
21795W        W93378  36.193  20.780  13.558
21796W        W93379  43.236  14.820   1.262
21797W        W93380  16.749  44.786   3.812
21798W        W93381  40.407  32.046  10.503
21799W        W93382  16.050  35.874   1.411
21800W        W93383  12.609  11.389   1.833
21801W        W93384  15.222  16.822   1.813
21802W        W93385  37.588  15.846   2.670
21803W        W93386  40.857   1.412  10.777
21804W        W93387  14.855  11.137  11.616
21805W        W93388  37.330   3.964   1.104
21806W        W93389  16.001   0.914   4.240
21807W        W93390  22.615  44.441   1.289
21808W        W93391  22.634  32.935  14.699
21809W        W93392  21.215  14.861  13.074
21810W        W93393   8.238  30.150   2.817
21811W        W93394  16.802  44.626  11.293
21812W        W93395  29.705  34.946   3.207
21813W        W93396   5.227  35.787   3.763
21814W        W93397  27.231  38.890  14.562
21815W        W93398  10.237  22.183   4.069
21816W        W93399  27.915  42.999   4.664
21817W        W93400   5.767  44.260   0.296
21818W        W93401  42.456  23.992  13.801
21819W        W93402  44.043   8.113   1.454
21820W        W93403  38.488  13.747  12.462
21821W        W93404  37.316   7.230  14.009
21822W        W93405  28.467  24.762   2.695
21823W        W93406  42.354  13.635   4.825
21824W        W93407  41.592  31.993  11.149
21825W        W93408  26.942  26.990  14.353
21826W        W93409  43.426  13.809   4.540
21827W        W93410   6.368  42.492  14.522
21828W        W93411  32.569   0.503   3.734
21829W        W93412  23.053  17.656  14.164
21830W        W93413  12.869   1.751  11.546
21831W        W93414  43.367  11.721  12.981
21832W        W93415  21.967  26.688   0.373
21833W        W93416  17.756  24.573  14.309
21834W        W93417  25.442  31.727   1.693
21835W        W93418  15.514   8.821  11.973
21836W        W93419  31.079  43.099   1.312
21837W        W93420  31.416   8.687   2.818
21838W        W93421  31.907  11.199   0.511
21839W        W93422   2.186   6.376  10.174
21840W        W93423  31.116  12.217  13.281
21841W        W93424  27.637  28.648  13.763
21842W        W93425  37.053  38.535   2.761
21843W        W93426  10.308   3.190  14.440
21844W        W93427  24.194  35.189  12.866
21845W        W93428  10.695  40.306  13.647
21846W        W93429  33.929  31.281  13.990
21847W        W93430  23.528  43.313  13.814
21848W        W93431  42.814  21.189   2.151
21849W        W93432  37.301  31.118   2.232
21850W        W93433  24.970  40.929   1.162
21851W        W93434   4.744  22.514  12.531
21852W        W93435  15.115  16.753  11.167
21853W        W93436  18.116  33.860  12.606
21854W        W93437  29.226  22.051   2.338
21855W        W93438  26.294  19.323   2.601
21856W        W93439  22.678  44.553   2.658
21857W        W93440  29.698  39.049   3.920
21858W        W93441  37.974  35.786  13.522
21859W        W93442  39.417  44.040  11.059
21860W        W93443   6.265  14.513   2.842
21861W        W93444  31.165  38.823   1.448
21862W        W93445   5.038   4.099  13.058
21863W        W93446  22.008  15.865  11.952
21864W        W93447   7.739  43.177  14.514
21865W        W93448  21.273  33.942   1.767
21866W        W93449   3.511  42.337  12.957
21867W        W93450   7.256  36.928  14.908
21868W        W93451  17.172  41.406  14.944
21869W        W93452  27.069  24.950   4.610
21870W        W93453  14.278  37.032   5.111
21871W        W93454   5.238  16.071   0.460
21872W        W93455  15.517  26.125  13.609
21873W        W93456  11.222  30.142  14.588
21874W        W93457  15.804  42.515  14.280
21875W        W93458  13.249  41.181  11.520
21876W        W93459   1.643   0.337   1.264
21877W        W93460  14.699  29.662  11.929
21878W        W93461  27.754   5.879  12.530
21879W        W93462   5.426  19.644   0.796
21880W        W93463   3.638  13.386   3.239
21881W        W93464   7.780  29.138   1.898
21882W        W93465   4.934  18.564  12.620
21883W        W93466  21.437  31.614   4.794
21884W        W93467  31.356  33.499  13.380
21885W        W93468  25.226  24.493  12.916
21886W        W93469  23.711  17.605   4.091
21887W        W93470   3.711  20.801   2.659
21888W        W93471   3.860  23.561  12.852
21889W        W93472  11.442  24.039   3.850
21890W        W93473  37.838  15.825   3.173
21891W        W93474   0.754   2.927   2.367
21892W        W93475  34.444  25.977   4.527
21893W        W93476  19.272  37.514   1.912
21894W        W93477  44.364   5.223   1.390
21895W        W93478  33.035  17.317  12.025
21896W        W93479  43.381   6.396  10.142
21897W        W93480  25.070   3.881   2.416
21898W        W93481  32.006  14.074  10.607
21899W        W93482   0.240  29.417   1.048
21900W        W93483  30.502  29.199  12.073
21901W        W93484  29.356  19.272  11.956
21902W        W93485  32.995   0.826   0.375
21903W        W93486  38.322  29.983  12.970
21904W        W93487   8.351  40.272   3.969
21905W        W93488  41.918   2.423  14.444
21906W        W93489  31.599   4.836  11.447
21907W        W93490  24.496  32.991   0.765
21908W        W93491  41.254  37.012   0.853
21909W        W93492  43.623  38.641   4.085
21910W        W93493  22.987   1.193  12.433
21911W        W93494  21.656   7.769  10.235
21912W        W93495   9.270  12.104   0.967
21913W        W93496  17.618   5.136  14.088
21914W        W93497  26.385  15.182   3.810
21915W        W93498  44.733   4.467   3.209
21916W        W93499  34.937  31.299   0.459
21917W        W93500  16.273  43.328   1.105
21918W        W93501  39.740  39.070   4.234
21919W        W93502  35.003   9.925  11.855
21920W        W93503  26.184  21.506   3.941
21921W        W93504  36.435  32.044   2.312
21922W        W93505  27.988  12.111  10.751
21923W        W93506  38.473   6.643   1.264
21924W        W93507  21.407  39.863   1.639
21925W        W93508  26.849  34.101   3.225
21926W        W93509  28.935  40.498   3.776
21927W        W93510  35.862  33.407  12.562
21928W        W93511  20.863  11.280   0.360
21929W        W93512  30.094  12.987   3.526
21930W        W93513  27.443  15.086   3.853
21931W        W93514  12.311  20.575   3.603
21932W        W93515   8.708   5.641   2.828
21933W        W93516  29.266  31.855   3.147
21934W        W93517  32.500  36.672  12.834
21935W        W93518  44.052  17.784   2.825
21936W        W93519   3.332  15.679   0.499
21937W        W93520   4.402  42.105   4.139
21938W        W93521  34.828  21.649   2.724
21939W        W93522  12.418   5.636  12.092
21940W        W93523  39.718   2.489  14.766
21941W        W93524  26.086  42.083  10.716
21942W        W93525   8.723  43.783   5.026
21943W        W93526   1.791  43.779  12.693
21944W        W93527  21.332  21.991  11.728
21945W        W93528  43.424  41.009  13.148
21946W        W93529   1.894  13.347   0.442
21947W        W93530  35.350  12.187  13.975
21948W        W93531  43.826  20.174   3.965
21949W        W93532  31.707  18.056   1.876
21950W        W93533   2.797  43.810  13.863
21951W        W93534   2.506   3.141   3.344
21952W        W93535   5.968  12.712   4.068
21953W        W93536  36.573   4.459   4.127
21954W        W93537   5.777  43.157   1.140
21955W        W93538  30.015  29.625   4.227
21956W        W93539  10.899  14.501  12.049
21957W        W93540  37.396  17.699   4.458
21958W        W93541  37.384  39.952   0.899
21959W        W93542  34.777  28.577   0.550
21960W        W93543  38.883   0.005  12.615
21961W        W93544  32.129   4.224  11.035
21962W        W93545  37.805  38.934  14.490
21963W        W93546   2.262   0.384  14.330
21964W        W93547  29.105  25.356   0.816
21965W        W93548  24.153  32.913   0.404
21966W        W93549  42.527   7.744  14.392
21967W        W93550   8.695  32.519   0.355
21968W        W93551  33.930  15.834  14.880
21969W        W93552   7.204   9.551  13.480
21970W        W93553  44.482  11.444  11.161
21971W        W93554  27.258  21.929  13.000
21972W        W93555  36.830  37.035  13.314
21973W        W93556  41.364  35.501   4.060
21974W        W93557  15.284   1.446   1.676
21975W        W93558  38.832  42.337  14.433
21976W        W93559  42.437  29.390   0.975
21977W        W93560  37.589   5.244  13.076
21978W        W93561  36.136  25.980  12.050
21979W        W93562  42.874  33.000   5.063
21980W        W93563  26.535   2.948   1.707
21981W        W93564  39.013   6.949   4.598
21982W        W93565   4.007  17.860  13.469
21983W        W93566  44.291  30.103   4.622
21984W        W93567  22.453  43.891  11.940
21985W        W93568  43.991  44.741  11.284
21986W        W93569  28.660  14.867  12.584
21987W        W93570   2.043   4.036  12.468
21988W        W93571  25.990  41.433   4.545
21989W        W93572   3.142  40.523   0.067
21990W        W93573  30.459  39.525   1.657
21991W        W93574  29.746  42.422   3.541
21992W        W93575  10.228  17.626  10.979
21993W        W93576  35.982  31.978  11.922
21994W        W93577   2.438  24.545   2.930
21995W        W93578  16.686   2.575  12.078
21996W        W93579  23.595  33.876   4.970
21997W        W93580  26.596  24.483   2.147
21998W        W93581  41.003  13.811  12.568
21999W        W93582   1.077  13.966  14.432
22000W        W93583   1.430  41.464   2.928
22001W        W93584   3.856  21.176   0.307
22002W        W93585  36.582  32.588   0.158
22003W        W93586   6.581  25.946  12.493
22004W        W93587   7.332   2.777  10.696
22005W        W93588   3.480  38.344  10.233
22006W        W93589  27.172  16.857   1.865
22007W        W93590  26.247  43.723  11.597
22008W        W93591  22.942   3.659   3.671
22009W        W93592   8.596  36.060   4.935
22010W        W93593  38.950  41.298   0.869
22011W        W93594  34.576  39.098  11.551
22012W        W93595  31.026  14.470  13.132
22013W        W93596  33.871  27.147   4.022
22014W        W93597  21.668  18.936  14.399
22015W        W93598  25.567  21.800  12.520
22016W        W93599  18.542  33.074  10.662
22017W        W93600   9.782  19.450   2.365
22018W        W93601  10.858   8.788  14.277
22019W        W93602   1.371   1.939   2.839
22020W        W93603  21.074  35.243  13.610
22021W        W93604  11.099   7.241   3.206
22022W        W93605   1.243  27.013  10.527
22023W        W93606   7.940   6.340   2.951
22024W        W93607  41.543  28.373   4.749
22025W        W93608  13.594  12.875  13.460
22026W        W93609  25.603  32.628  10.621
22027W        W93610  44.470  44.461  10.611
22028W        W93611  16.114  12.649   2.151
22029W        W93612  12.220  25.030   4.807
22030W        W93613  38.653  29.842  12.148
22031W        W93614   3.928  14.273  11.459
22032W        W93615   1.219   4.432  11.185
22033W        W93616   7.309  27.081  10.916
22034W        W93617  42.625  38.342   4.116
22035W        W93618   8.315   9.766   4.287
22036W        W93619   8.292  29.721  10.881
22037W        W93620  37.374  17.288   2.547
22038W        W93621   0.752  34.126  14.838
22039W        W93622  34.671   9.692   3.364
22040W        W93623  25.389  16.206  13.079
22041W        W93624   7.545  36.431   1.843
22042W        W93625  30.664  39.328   0.302
22043W        W93626  43.784  29.021  11.429
22044W        W93627   1.502  16.374  12.952
22045W        W93628  10.548  39.568   0.794
22046W        W93629   0.738  38.948   1.012
22047W        W93630   4.201  20.763   2.854
22048W        W93631  33.549  32.637   1.944
22049W        W93632  37.803  41.357  11.681
22050W        W93633   4.792  12.335  12.611
22051W        W93634  12.125   7.932   4.576
22052W        W93635  39.955   4.277  12.237
22053W        W93636  24.799  26.043   0.274
22054W        W93637  38.121  34.653   4.652
22055W        W93638  10.452   8.171  11.085
22056W        W93639  40.212  37.634   3.124
22057W        W93640  19.677  29.004   3.073
22058W        W93641  36.121   7.583  10.696
22059W        W93642  25.428   1.251  11.934
22060W        W93643  42.311  39.102  13.503
22061W        W93644   1.312  38.443   5.083
22062W        W93645  10.407  34.939   5.096
22063W        W93646  12.934   7.652  14.327
22064W        W93647   1.884   9.427  14.390
22065W        W93648  39.048   3.854  12.192
22066W        W93649  28.862   4.623  13.839
22067W        W93650  24.527  28.647  11.978
22068W        W93651  27.593  35.386   4.146
22069W        W93652  20.197   2.824  12.118
22070W        W93653  16.017  29.191   2.828
22071W        W93654  12.114  19.642   2.782
22072W        W93655   4.199  22.045   0.809
22073W        W93656  22.750  35.352   2.996
22074W        W93657  26.714   7.645  13.436
22075W        W93658   2.179   5.712  10.738
22076W        W93659  13.739  32.397  13.561
22077W        W93660   7.424  31.179   0.482
22078W        W93661   3.426  20.355  11.933
22079W        W93662   3.450  21.945   1.285
22080W        W93663  37.513  31.574  14.918
22081W        W93664   9.101  19.718   1.375
22082W        W93665  36.553   4.915   1.378
22083W        W93666  42.317  34.235   1.835
22084W        W93667  13.982   7.803   4.237
22085W        W93668  38.999   4.662   0.062
22086W        W93669   7.214  23.739  13.355
22087W        W93670   2.666  29.714   0.882
22088W        W93671   6.193  13.915   0.279
22089W        W93672  13.055  11.011  13.463
22090W        W93673  28.570  11.706   4.199
22091W        W93674   7.959  34.478  12.186
22092W        W93675   4.138  12.066   4.172
22093W        W93676  29.754  42.289  13.517
22094W        W93677  44.816  11.453  13.932
22095W        W93678   9.282   8.279   0.874
22096W        W93679   0.782  14.220  11.670
22097W        W93680   9.757  38.601  12.378
22098W        W93681  24.563  43.867  13.391
22099W        W93682  17.836  16.765   1.008
22100W        W93683  16.237  26.562   4.409
22101W        W93684   5.855  11.547   0.866
22102W        W93685   4.312  21.490  12.883
22103W        W93686  10.761  39.730  14.385
22104W        W93687  16.352  15.252  11.390
22105W        W93688  16.287  19.365  11.311
22106W        W93689  35.493  12.685  14.169
22107W        W93690  38.816  25.505  14.472
22108W        W93691  44.930  17.237   2.789
22109W        W93692  19.247  33.645   5.008
22110W        W93693   7.876  13.673  14.582
22111W        W93694  29.157  34.506  12.457
22112W        W93695  28.037  20.075   4.473
22113W        W93696  20.801  24.773   3.310
22114W        W93697  19.618   3.769  13.301
22115W        W93698  36.092  11.549   3.759
22116W        W93699   6.938  31.919  13.394
22117W        W93700  19.595  28.678   4.598
22118W        W93701  42.762  10.531  12.423
22119W        W93702  15.360  43.862  11.092
22120W        W93703  20.105  36.577  13.374
22121W        W93704   4.981  41.437   4.725
22122W        W93705  30.379  10.744   3.461
22123W        W93706  19.357   0.403   0.742
22124W        W93707  35.566  32.380  13.793
22125W        W93708  38.859   0.720  11.365
22126W        W93709   8.252  39.829   1.288
22127W        W93710  19.595  39.978   4.886
22128W        W93711  12.314  27.075  12.902
22129W        W93712  24.769  19.617  13.380
22130W        W93713  36.386  21.702  10.930
22131W        W93714  22.054   0.476   2.389
22132W        W93715  43.909  32.352  11.084
22133W        W93716  32.400   8.692   1.303
22134W        W93717  38.345  43.908   4.175
22135W        W93718  25.351   6.337   1.422
22136W        W93719  15.637  40.951  13.000
22137W        W93720  40.951   0.882  14.036
22138W        W93721  19.837   9.246   5.250
22139W        W93722  41.107  22.071  14.578
22140W        W93723  22.214  35.895  10.580
22141W        W93724   9.785  25.914  11.593
22142W        W93725  25.249   0.660   1.433
22143W        W93726  27.916   2.369  13.431
22144W        W93727  37.603  41.909   0.514
22145W        W93728  44.823  36.539  13.536
22146W        W93729  24.601  21.836  12.414
22147W        W93730  42.734  18.267   0.332
22148W        W93731  27.275  20.710   3.671
22149W        W93732  44.999  36.538   0.937
22150W        W93733  32.278   7.182  13.196
22151W        W93734  15.063  26.000  10.756
22152W        W93735  18.177  16.078  12.514
22153W        W93736  29.649   7.716   4.120
22154W        W93737  27.736   9.402  12.520
22155W        W93738   6.900  34.616   0.584
22156W        W93739  18.749  14.538  13.284
22157W        W93740  15.845  26.431  12.925
22158W        W93741  18.980  31.948  14.418
22159W        W93742  11.657  21.651   3.337
22160W        W93743  18.543   6.976   0.944
22161W        W93744  25.494  43.059  14.895
22162W        W93745  34.558   3.942  14.363
22163W        W93746  36.334  24.910   3.230
22164W        W93747  26.268  36.925   1.693
22165W        W93748  37.439  42.840  14.464
22166W        W93749  11.427  16.247   4.225
22167W        W93750  12.739  39.312   0.010
22168W        W93751  11.314  14.803  12.135
22169W        W93752  26.728   6.510   3.644
22170W        W93753   2.794  11.145  13.990
22171W        W93754   6.405  26.395  13.941
22172W        W93755  15.884   5.391   1.038
22173W        W93756   5.628  37.018   4.214
22174W        W93757  10.934  21.167  14.399
22175W        W93758  10.741  41.545  12.391
22176W        W93759   8.560   5.773  10.741
22177W        W93760  19.161  37.384   3.263
22178W        W93761   9.284  21.159   2.952
22179W        W93762  16.236   3.873   0.017
22180W        W93763   1.463  10.305   3.210
22181W        W93764  27.571  18.261   4.782
22182W        W93765  43.465  12.753   2.842
22183W        W93766  14.218  35.842   0.473
22184W        W93767  29.082  26.983   0.299
22185W        W93768  34.513   6.241  12.765
22186W        W93769  34.614  32.112  13.117
22187W        W93770  15.367  20.345   0.904
22188W        W93771   5.669  24.224  10.772
22189W        W93772  16.819  30.008  10.851
22190W        W93773   6.683  22.070  14.828
22191W        W93774  40.878  22.175  14.118
22192W        W93775   9.287  10.622  12.369
22193W        W93776  12.461  32.906  14.383
22194W        W93777  33.205  36.419  11.615
22195W        W93778  13.086  35.458  13.332
22196W        W93779   1.859   9.888   4.260
22197W        W93780  24.952  12.636   0.039
22198W        W93781   3.229  27.488   3.669
22199W        W93782  38.514  25.133  13.882
22200W        W93783  13.963  44.961  12.440
22201W        W93784  40.209  44.348   4.951
22202W        W93785  36.362  14.680  10.676
22203W        W93786   1.431  43.380   1.707
22204W        W93787  19.291   3.411   3.756
22205W        W93788  38.574  21.683  12.575
22206W        W93789  29.662  42.574  14.000
22207W        W93790  43.139  29.286  14.334
22208W        W93791  15.406  40.369  14.204
22209W        W93792  38.606   0.444  10.578
22210W        W93793  34.085  35.835   0.768
22211W        W93794  10.571  34.690  14.367
22212W        W93795  18.653  41.376   3.076
22213W        W93796  15.860  33.481   2.220
22214W        W93797   9.499   2.762  14.843
22215W        W93798   3.063  28.546   0.755
22216W        W93799  36.490  31.016   3.923
22217W        W93800  22.197  14.219   1.143
22218W        W93801   4.798  42.937  14.408
22219W        W93802   1.763   0.253  14.330
22220W        W93803   0.522   9.659   0.874
22221W        W93804   7.652  35.828   3.489
22222W        W93805   6.257   6.209   4.672
22223W        W93806  38.951  30.221  12.282
22224W        W93807   1.062  19.251  13.745
22225W        W93808  35.416   8.801  11.096
22226W        W93809  18.227   2.064  13.979
22227W        W93810  16.680  34.336  10.606
22228W        W93811  11.911  23.481   0.858
22229W        W93812  14.022  34.912   0.428
22230W        W93813  28.559  35.148  14.628
22231W        W93814   8.607   8.618  14.283
22232W        W93815  16.046  30.508   0.963
22233W        W93816  31.115   8.900   5.037
22234W        W93817  34.203  20.632  13.363
22235W        W93818  36.065  12.669  13.328
22236W        W93819   2.318  23.935  13.776
22237W        W93820  20.300  37.031  12.557
22238W        W93821  33.996   4.416  14.823
22239W        W93822   7.859  41.422   2.660
22240W        W93823   4.170   1.433  13.340
22241W        W93824  34.062   6.464   3.636
22242W        W93825  40.609  40.978   0.415
22243W        W93826  31.260   9.502   1.120
22244W        W93827  32.523  41.007   0.468
22245W        W93828  41.298  37.483  11.887
22246W        W93829  36.414  38.504  12.619
22247W        W93830  32.597  28.431  10.761
22248W        W93831  13.748  19.229  12.908
22249W        W93832  26.540  23.596   0.861
22250W        W93833  27.274   9.744  13.862
22251W        W93834  28.117  35.785  14.443
22252W        W93835  44.800  24.715   3.635
22253W        W93836  29.544  19.151   4.394
22254W        W93837  20.191   6.692   0.332
22255W        W93838  15.229  27.993  10.671
22256W        W93839  16.352  29.547   2.003
22257W        W93840  44.906   0.056  13.080
22258W        W93841  20.528  13.191  14.311
22259W        W93842  44.333  19.818  11.674
22260W        W93843  41.099   9.370  14.917
22261W        W93844  39.981  23.535  10.613
22262W        W93845  41.389  22.721   2.250
22263W        W93846  27.121  38.984   0.900
22264W        W93847  41.787  23.084   2.261
22265W        W93848  33.184   0.870  11.356
22266W        W93849  35.121  35.047  12.935
22267W        W93850  22.068   8.809  14.316
22268W        W93851   0.813   6.806  14.947
22269W        W93852   9.477  23.141  12.409
22270W        W93853  14.284   8.563   4.636
22271W        W93854  31.430  42.460  14.799
22272W        W93855   1.012  23.595   3.304
22273W        W93856  25.894   6.389   1.107
22274W        W93857  30.015  44.159   2.368
22275W        W93858  27.907  30.575  14.362
22276W        W93859  27.930  39.329   3.327
22277W        W93860  44.668  21.892   1.336
22278W        W93861  22.047  13.010   1.888
22279W        W93862   0.806  22.091  10.657
22280W        W93863  34.978  10.037   2.530
22281W        W93864  18.925  37.449  12.489
22282W        W93865   7.353   8.939  12.939
22283W        W93866   3.280   8.403   1.330
22284W        W93867   3.132  36.160  10.626
22285W        W93868  32.089  41.799   0.755
22286W        W93869  14.735  18.299  12.996
22287W        W93870   2.675  41.199   1.312
22288W        W93871   9.619   5.826  11.895
22289W        W93872  39.247   1.220  12.976
22290W        W93873  31.196  27.111   2.885
22291W        W93874  26.901  26.513   2.354
22292W        W93875  11.007   4.204   0.264
22293W        W93876  44.215  44.594   3.645
22294W        W93877  42.471  27.054  11.536
22295W        W93878  11.245  17.756   4.196
22296W        W93879  16.771  15.580  12.769
22297W        W93880  12.162   5.936  13.490
22298W        W93881  34.094  26.155  12.535
22299W        W93882  26.004  26.656  13.047
22300W        W93883  35.190  38.944   4.547
22301W        W93884  44.971  16.084  12.098
22302W        W93885  19.792  10.572   3.340
22303W        W93886  38.013  13.130   4.875
22304W        W93887  21.430  20.161   5.408
22305W        W93888   7.605  13.275   4.848
22306W        W93889  17.007  19.482   4.061
22307W        W93890  12.822  23.959   2.788
22308W        W93891  25.526  37.096  13.062
22309W        W93892  20.547  29.595   0.905
22310W        W93893  27.459  27.173  11.540
22311W        W93894   0.443  44.769   3.982
22312W        W93895   3.947  15.398   3.885
22313W        W93896  28.600  39.909   2.399
22314W        W93897  29.244  25.739  13.122
22315W        W93898  39.955  30.922  10.973
22316W        W93899   5.045   7.900   3.754
22317W        W93900  38.025  32.530  13.931
22318W        W93901   6.499  34.028   2.326
22319W        W93902  31.284  31.215   3.387
22320W        W93903  17.769  19.671   2.780
22321W        W93904  21.294   9.804   2.330
22322W        W93905  38.529  13.560   2.795
22323W        W93906  11.541  25.529  13.547
22324W        W93907  21.054   8.651   3.939
22325W        W93908  15.223  43.015  12.130
22326W        W93909  27.408  40.623   2.316
22327W        W93910  38.993   0.772  10.369
22328W        W93911  21.297  18.675  13.492
22329W        W93912  15.380  19.491  11.112
22330W        W93913  39.779  33.458  12.046
22331W        W93914  14.200  41.471   4.745
22332W        W93915  25.168   1.904   1.841
22333W        W93916  43.895  37.551  11.450
22334W        W93917  38.366   4.761   4.793
22335W        W93918  34.950  37.855  10.503
22336W        W93919  14.660  19.657   4.677
22337W        W93920  23.235  13.349  14.913
22338W        W93921   2.147  41.051  14.862
22339W        W93922  36.223  31.867   1.862
22340W        W93923  22.754  42.065   1.325
22341W        W93924  28.656  19.547   3.614
22342W        W93925  36.524   9.419   1.199
22343W        W93926  13.098  40.322  12.938
22344W        W93927  19.291  23.453   2.243
22345W        W93928  10.347   5.540  11.156
22346W        W93929  18.740  18.837   5.481
22347W        W93930  31.434  37.560  13.076
22348W        W93931  42.546  43.863  13.358
22349W        W93932   9.613   6.617  12.603
22350W        W93933  35.601  20.282   3.401
22351W        W93934  21.494  26.047   3.366
22352W        W93935   1.518  38.945  11.191
22353W        W93936  17.029  30.923  12.647
22354W        W93937  39.014   2.887  11.616
22355W        W93938  20.837  38.586  12.177
22356W        W93939  19.492  25.542  11.633
22357W        W93940  34.215  25.586   4.801
22358W        W93941   3.344  43.370  12.919
22359W        W93942  32.361  31.599   2.383
22360W        W93943   1.848  26.059  11.399
22361W        W93944  35.983  40.404   4.994
22362W        W93945   6.486  21.645  13.034
22363W        W93946  40.093  11.730  11.594
22364W        W93947  22.736   9.906  12.871
22365W        W93948  40.732  18.596   3.775
22366W        W93949  19.635   0.536   4.940
22367W        W93950  30.497  10.811  11.604
22368W        W93951  39.224  36.014   4.139
22369W        W93952  13.153  26.951  12.876
22370W        W93953  25.721   1.574   1.383
22371W        W93954  42.465   6.876   4.510
22372W        W93955  19.424  31.922   3.056
22373W        W93956  14.795  17.008  10.772
22374W        W93957  40.799   0.779   2.817
22375W        W93958  24.932  34.424  12.109
22376W        W93959  33.035  44.236   3.252
22377W        W93960   8.489  36.600  12.131
22378W        W93961   6.117  16.129   2.756
22379W        W93962  37.127  22.790  11.400
22380W        W93963  44.532  25.419  12.881
22381W        W93964   5.671  24.597  13.456
22382W        W93965  40.404  13.034  10.778
22383W        W93966  40.343  21.178  12.078
22384W        W93967  20.012  26.209  13.321
22385W        W93968   7.479   3.243  10.909
22386W        W93969  43.996  22.457   2.208
22387W        W93970   3.222  33.653   3.135
22388W        W93971   9.688  18.748   0.796
22389W        W93972  12.589   0.776  10.608
22390W        W93973   4.541  29.659  13.427
22391W        W93974  12.121  25.213  11.485
22392W        W93975  26.145  29.867  11.100
22393W        W93976   8.765  21.171   1.714
22394W        W93977   1.792  44.504   1.129
22395W        W93978  28.393  29.875  11.995
22396W        W93979   8.237  21.061  14.705
22397W        W93980  39.874   4.890  13.449
22398W        W93981   3.937  18.271  10.749
22399W        W93982  10.802  41.245  12.791
22400W        W93983  42.919  13.209   0.273
22401W        W93984  18.196  26.608   3.297
22402W        W93985  38.925   6.373  10.855
22403W        W93986   3.730  11.220  10.703
22404W        W93987  15.797  12.663  10.180
22405W        W93988  42.439  43.376   0.984
22406W        W93989  35.467  11.156   0.841
22407W        W93990  36.276  26.306   2.273
22408W        W93991   8.171   0.283   3.284
22409W        W93992  32.078  23.342   3.058
22410W        W93993   9.058  25.696  11.633
22411W        W93994   6.153   7.938  13.637
22412W        W93995  38.345   4.240  11.721
22413W        W93996  21.784  34.357   1.754
22414W        W93997  31.694  20.413  10.064
22415W        W93998  33.966   8.921   3.656
22416W        W93999   3.210  13.875   1.968
22417W        W94000  15.611  33.088   3.824
22418W        W94001  34.390  10.146  10.240
22419W        W94002  22.728   6.071   3.675
22420W        W94003  29.490  41.466   4.570
22421W        W94004  22.057  27.580  13.943
22422W        W94005  33.716  17.911   1.564
22423W        W94006  26.532  24.800  12.112
22424W        W94007  31.065  10.209   3.379
22425W        W94008  36.766  42.206   3.762
22426W        W94009   3.444  37.545  10.662
22427W        W94010   8.858  14.751   0.486
22428W        W94011  22.046  30.644   1.413
22429W        W94012  27.770  24.562  12.296
22430W        W94013  33.853  19.633   2.268
22431W        W94014  20.447  29.556  10.172
22432W        W94015  38.074   6.874   2.497
22433W        W94016  19.252  15.104   2.386
22434W        W94017  36.987   4.733   3.847
22435W        W94018  11.175  24.755  14.466
22436W        W94019  43.493   0.380  10.789
22437W        W94020  19.704   8.645  14.812
22438W        W94021  32.563  26.228   2.207
22439W        W94022  40.243  28.147  12.359
22440W        W94023  42.951  17.686   1.929
22441W        W94024  31.939  25.255  12.543
22442W        W94025  40.398  27.830  10.355
22443W        W94026  33.084   5.343   2.225
22444W        W94027  25.128  11.896   4.143
22445W        W94028  28.396  31.266  13.821
22446W        W94029  32.372   9.297  14.205
22447W        W94030   3.295  25.973   4.612
22448W        W94031  10.103  19.013   3.179
22449W        W94032  11.309   3.853  12.901
22450W        W94033  28.416   1.854   3.710
22451W        W94034   4.795  16.648   1.902
22452W        W94035   7.722  11.894  11.440
22453W        W94036  34.553  40.921  12.412
22454W        W94037  17.334  42.251  12.600
22455W        W94038   1.527  20.077  14.982
22456W        W94039   0.248  37.320  13.473
22457W        W94040  15.050  13.831   0.772
22458W        W94041  11.629  21.131  10.597
22459W        W94042  39.602   0.419   3.196
22460W        W94043  38.280  28.179   2.816
22461W        W94044  19.075  39.286   0.233
22462W        W94045  21.651   5.397  14.775
22463W        W94046  25.313  29.776  13.575
22464W        W94047  27.565  23.607  14.039
22465W        W94048  10.084   5.283   1.228
22466W        W94049  19.459  42.109  12.519
22467W        W94050  11.342  37.116   1.048
22468W        W94051   5.610  12.976   3.290
22469W        W94052   2.876  36.829   3.266
22470W        W94053  22.746  38.002   4.140
22471W        W94054   7.729  38.544   0.706
22472W        W94055   2.355  18.320   2.378
22473W        W94056  36.641   5.294   2.744
22474W        W94057   2.499  24.176  13.339
22475W        W94058  37.639   3.118   4.601
22476W        W94059  17.435  14.305  11.856
22477W        W94060  21.213  20.299   0.685
22478W        W94061   6.469   7.781   3.725
22479W        W94062  22.740  29.877  10.578
22480W        W94063  22.421  19.379  12.051
22481W        W94064  39.439  31.008   4.679
22482W        W94065  40.985  13.742   4.315
22483W        W94066  35.775   0.457  14.766
22484W        W94067   4.463  14.241   4.287
22485W        W94068  19.194  26.498  11.595
22486W        W94069  17.185  17.833   1.751
22487W        W94070  11.713  12.069   4.109
22488W        W94071  25.067  18.110  11.151
22489W        W94072  35.058  26.453   4.152
22490W        W94073  42.398  44.340  11.194
22491W        W94074  28.277  44.734  11.632
22492W        W94075  38.211   7.432  13.920
22493W        W94076  18.520  11.695   3.291
22494W        W94077  19.113  14.746   0.950
22495W        W94078   8.302  34.326   2.775
22496W        W94079  33.011  39.664   0.939
22497W        W94080  24.285  23.156   2.242
22498W        W94081  36.166  41.511   0.781
22499W        W94082  44.785  33.161  12.191
22500W        W94083  23.248   1.373   0.912
22501W        W94084  11.679  42.251  11.019
22502W        W94085   1.664  42.972   1.931
22503W        W94086   2.959   0.186   0.807
22504W        W94087  11.498  26.106  12.450
22505W        W94088  14.581  11.901   0.411
22506W        W94089   8.032  11.098  13.377
22507W        W94090   7.404   2.226  10.705
22508W        W94091  18.627  32.305   3.075
22509W        W94092   6.317  28.393  13.956
22510W        W94093  30.385  24.895   3.838
22511W        W94094  24.021  41.011  14.252
22512W        W94095  15.830   5.213   2.433
22513W        W94096  21.014  29.532   0.712
22514W        W94097  18.279  43.954   3.408
22515W        W94098  27.200  38.398  14.388
22516W        W94099  39.148  43.325  11.162
22517W        W94100  23.771  42.509   1.785
22518W        W94101   2.494  19.733   2.427
22519W        W94102   9.015  21.159   4.407
22520W        W94103  14.263  13.654  12.077
22521W        W94104  16.779  41.662  14.310
22522W        W94105   0.523   7.464   2.815
22523W        W94106   9.802  26.900   4.904
22524W        W94107   7.374  20.306   2.766
22525W        W94108  14.760   5.365  11.640
22526W        W94109  20.276  24.047  14.300
22527W        W94110   6.809  37.548   4.987
22528W        W94111  33.682  34.091   0.076
22529W        W94112  24.820  31.670  11.605
22530W        W94113  44.703  32.640   0.281
22531W        W94114  37.873  44.285   4.916
22532W        W94115  22.501   6.706   1.427
22533W        W94116  22.996   8.683  11.550
22534W        W94117  25.743  23.127   4.552
22535W        W94118  18.799   4.361   0.957
22536W        W94119  41.861  22.816  10.245
22537W        W94120   1.257  42.581   0.526
22538W        W94121   3.360   0.463   4.159
22539W        W94122  11.839  27.635   3.803
22540W        W94123  12.700  12.805   0.899
22541W        W94124   3.277  37.335   3.602
22542W        W94125  41.025  42.162   2.384
22543W        W94126   6.409  26.173  14.435
22544W        W94127  33.142  18.564  11.442
22545W        W94128  36.067  30.643  14.853
22546W        W94129   3.460  39.844  11.041
22547W        W94130   9.796  27.071  11.217
22548W        W94131   0.987  38.975   4.222
22549W        W94132  12.128  31.641  12.088
22550W        W94133   1.760   0.078  13.434
22551W        W94134  12.695  34.614   4.956
22552W        W94135  10.666  30.924   4.453
22553W        W94136  34.618  12.468   3.196
22554W        W94137  18.291  22.906  11.375
22555W        W94138  44.981  21.111   3.061
22556W        W94139  39.933   4.787   1.073
22557W        W94140  17.567  34.271  14.596
22558W        W94141  44.352  20.115   2.314
22559W        W94142  18.413  33.996  14.223
22560W        W94143  32.929  22.586   2.827
22561W        W94144  41.812  28.128  10.688
22562W        W94145  21.790  25.237   1.446
22563W        W94146  28.264  32.948  12.439
22564W        W94147   3.157  23.714  11.225
22565W        W94148  12.139  16.685   4.632
22566W        W94149  43.096  28.535   4.601
22567W        W94150   9.109   1.608  12.426
22568W        W94151  30.967  31.153  14.348
22569W        W94152  36.895  13.526   2.342
22570W        W94153  27.043  43.470   1.005
22571W        W94154  17.257  25.959   3.192
22572W        W94155  17.668  20.454  10.705
22573W        W94156  15.717  15.067   2.284
22574W        W94157  21.574  37.316   2.757
22575W        W94158  44.661  15.226   2.301
22576W        W94159  27.051  37.320   2.176
22577W        W94160  15.875  17.117  13.346
22578W        W94161  14.062  31.928  11.943
22579W        W94162   8.175  35.768  12.780
22580W        W94163  30.382  41.057   0.408
22581W        W94164  18.844  11.927  14.365
22582W        W94165  35.381  44.772  11.865
22583W        W94166  34.462   2.265   2.805
22584W        W94167  43.983  33.851  11.048
22585W        W94168   5.362   7.734   4.127
22586W        W94169  33.141  41.435   2.201
22587W        W94170   9.731   4.601   3.686
22588W        W94171  41.258  31.385  14.007
22589W        W94172  29.796   8.790   0.393
22590W        W94173  13.894   8.324  14.067
22591W        W94174  15.186  43.411   0.362
22592W        W94175   2.347  43.219  10.782
22593W        W94176  20.714   9.611   0.267
22594W        W94177  27.146  23.485  13.777
22595W        W94178  34.193   7.402   2.794
22596W        W94179  15.505   5.090  11.011
22597W        W94180  19.745  12.686   3.252
22598W        W94181  22.678   0.831  10.674
22599W        W94182  36.521  26.998  12.426
22600W        W94183   3.388  39.508   0.634
22601W        W94184  15.791   5.307  14.633
22602W        W94185  31.128   8.165  14.577
22603W        W94186  33.029  33.937   0.296
22604W        W94187   2.825  22.655   1.375
22605W        W94188  23.726   6.181   4.124
22606W        W94189  12.420   9.040   4.416
22607W        W94190  13.265  30.175  10.699
22608W        W94191  41.303  41.986   4.597
22609W        W94192  16.543  11.359  11.592
22610W        W94193  41.956  20.838   0.743
22611W        W94194   4.484  38.967  11.865
22612W        W94195  43.327   8.569  10.738
22613W        W94196  28.085   7.105  12.923
22614W        W94197  36.357  16.868   1.279
22615W        W94198  15.849  31.139   1.399
22616W        W94199  22.929   5.408  10.752
22617W        W94200  29.234   6.412   3.081
22618W        W94201  13.644  16.608  11.747
22619W        W94202  25.632  39.378  11.658
22620W        W94203  37.957  12.307  10.752
22621W        W94204  39.433   6.765   0.180
22622W        W94205  13.104  25.640  14.331
22623W        W94206   8.186  20.675   0.271
22624W        W94207  44.286  22.083  10.691
22625W        W94208  26.325  24.321  12.059
22626W        W94209  15.970  27.714  14.374
22627W        W94210  21.020  27.968   1.258
22628W        W94211  24.224  10.589  10.228
22629W        W94212  21.164  16.629  13.078
22630W        W94213   8.872  30.914  13.716
22631W        W94214  39.969  43.800   4.294
22632W        W94215  19.941   9.925   4.644
22633W        W94216  29.363  33.159  12.016
22634W        W94217  11.573  41.371   3.846
22635W        W94218  27.349  25.142  11.414
22636W        W94219  20.358   5.655  13.114
22637W        W94220  22.292  32.492  14.603
22638W        W94221  25.118  41.914  14.444
22639W        W94222  11.206   9.919  12.503
22640W        W94223  40.908   8.836   2.991
22641W        W94224  35.420   8.570   4.673
22642W        W94225  15.543   4.054  11.088
22643W        W94226  40.786   6.174   0.291
22644W        W94227  25.353  24.085  11.829
22645W        W94228   1.804   3.660  14.383
22646W        W94229   7.525   1.156  10.626
22647W        W94230  10.876  43.851   2.791
22648W        W94231  19.304   2.985  12.562
22649W        W94232  28.873  29.964  11.258
22650W        W94233  36.074  16.880  11.702
22651W        W94234  25.676  30.009  12.571
22652W        W94235  43.479  42.799  14.023
22653W        W94236   1.491  42.893  14.845
22654W        W94237  14.606  19.454  14.938
22655W        W94238  44.069   9.772   0.906
22656W        W94239  27.381   3.932  13.303
22657W        W94240  21.136  38.468  12.920
22658W        W94241   6.785  38.593  10.375
22659W        W94242  10.693   6.019  10.802
22660W        W94243  24.978  37.221  12.439
22661W        W94244  12.845   5.488  13.980
22662W        W94245  20.300  36.635   0.106
22663W        W94246   1.829  22.281   4.668
22664W        W94247  29.196  25.632  13.877
22665W        W94248  43.318  26.247  10.521
22666W        W94249   3.917  43.891   0.814
22667W        W94250   3.170  38.532   4.565
22668W        W94251   1.704   8.598  11.657
22669W        W94252  10.729  25.618   2.943
22670W        W94253  19.812  24.547   1.261
22671W        W94254  23.966  27.528  14.776
22672W        W94255  24.431  23.209   4.124
22673W        W94256  23.544  39.376   2.695
22674W        W94257  42.572  36.008  14.949
22675W        W94258  19.168  40.086  12.497
22676W        W94259  40.556   7.016  13.041
22677W        W94260  12.694  17.560  13.336
22678W        W94261   3.421  30.025  14.840
22679W        W94262  10.433  28.078   2.393
22680W        W94263  14.436  30.504  12.498
22681W        W94264  26.609  32.630  13.310
22682W        W94265  20.000  24.080   1.183
22683W        W94266  36.872  19.988  14.860
22684W        W94267  12.343   5.637   0.969
22685W        W94268  29.571  16.057  13.533
22686W        W94269  34.100  13.193  12.118
22687W        W94270  20.117  13.315  11.726
22688W        W94271  29.107  25.409   2.732
22689W        W94272  25.937  37.993   0.704
22690W        W94273  26.155  22.326  13.332
22691W        W94274  41.835  33.616   1.009
22692W        W94275   1.849  24.237   1.712
22693W        W94276  17.102  22.749  13.250
22694W        W94277  21.137  15.156   1.911
22695W        W94278  28.140  10.537   3.709
22696W        W94279  37.983  35.611   2.777
22697W        W94280  16.701  32.099   1.192
22698W        W94281  38.595   4.912   0.297
22699W        W94282  11.693   7.189  11.672
22700W        W94283  29.358  13.820   1.890
22701W        W94284   2.852  20.519  13.439
22702W        W94285  36.838  18.134   2.829
22703W        W94286  34.457  12.326  11.075
22704W        W94287  15.764  41.823  10.499
22705W        W94288  24.991  41.238   0.259
22706W        W94289  13.048  16.627   1.226
22707W        W94290   6.706  14.034  14.037
22708W        W94291  11.648  32.801  13.660
22709W        W94292  25.565  12.595  13.896
22710W        W94293   8.844  40.029   3.346
22711W        W94294  36.887  28.161  14.315
22712W        W94295  32.944   2.173  10.684
22713W        W94296  32.463   1.405   4.633
22714W        W94297  32.644  42.768  11.005
22715W        W94298  32.572   2.366  14.498
22716W        W94299  13.994  40.985   1.712
22717W        W94300  14.191  18.625   1.789
22718W        W94301  17.324  27.727   0.362
22719W        W94302   3.866  29.715  13.940
22720W        W94303  33.407  11.920  12.949
22721W        W94304  20.695  38.599   4.572
22722W        W94305  24.627  34.593   0.867
22723W        W94306  15.702  11.675   0.530
22724W        W94307  37.317   3.243   3.623
22725W        W94308  24.747  15.803   3.853
22726W        W94309  13.671  16.151   1.483
22727W        W94310  10.267  19.061  10.832
22728W        W94311  23.945  21.002  11.504
22729W        W94312  42.330  43.820   1.794
22730W        W94313  41.531  31.687  10.332
22731W        W94314  40.885  43.729   1.506
22732W        W94315  24.847  10.045   3.314
22733W        W94316  35.030  16.583   1.308
22734W        W94317   1.742  23.107  11.741
22735W        W94318  26.049  33.070   4.376
22736W        W94319   9.309  44.183   3.486
22737W        W94320  21.754  21.635  14.879
22738W        W94321  39.049  37.505  11.082
22739W        W94322   4.517   7.355   3.313
22740W        W94323   4.697  28.696  13.382
22741W        W94324  42.263  13.946   1.857
22742W        W94325  29.464  10.440   9.870
22743W        W94326  31.492   7.215   3.235
22744W        W94327  42.023   0.949   2.291
22745W        W94328  15.476   2.439   1.859
22746W        W94329  14.649  13.951  12.253
22747W        W94330  11.762  38.632  11.075
22748W        W94331  17.051  11.356   2.331
22749W        W94332  13.109  27.279   0.486
22750W        W94333  27.473  41.021   3.187
22751W        W94334   2.032  38.995   0.849
22752W        W94335  37.292   2.312  13.407
22753W        W94336  14.667   4.386   4.477
22754W        W94337  21.612   0.278   0.391
22755W        W94338  43.940  35.513   3.276
22756W        W94339  22.983   0.925  11.953
22757W        W94340  19.171   8.189   4.503
22758W        W94341  29.915   5.241  12.423
22759W        W94342  11.212  10.781   0.424
22760W        W94343  33.429  21.951  14.490
22761W        W94344  21.955  16.294   3.374
22762W        W94345  22.730  30.453   2.250
22763W        W94346  44.003   5.160   0.861
22764W        W94347   3.717  44.770   1.009
22765W        W94348  12.808  17.809   0.862
22766W        W94349  31.184  22.335   9.898
22767W        W94350   0.233  43.985  11.797
22768W        W94351  20.074  34.946   4.449
22769W        W94352  11.145   3.440   1.755
22770W        W94353  15.560  24.827  11.739
22771W        W94354  27.473  27.682  12.407
22772W        W94355  10.885  14.116   4.254
22773W        W94356  12.813   8.879  13.059
22774W        W94357  25.736  17.609   1.950
22775W        W94358  10.219  43.527  13.446
22776W        W94359  18.087  11.907  12.991
22777W        W94360   3.524  10.937   2.798
22778W        W94361  11.754   8.358   2.132
22779W        W94362  22.511  18.331   0.127
22780W        W94363  35.602   1.083  12.973
22781W        W94364  15.781  34.511  11.563
22782W        W94365  11.208   3.114  10.393
22783W        W94366  21.124  34.871  14.496
22784W        W94367   9.919  33.350  14.327
22785W        W94368  27.544  28.866   2.963
22786W        W94369  32.656   7.998  13.524
22787W        W94370  36.762  20.607   3.796
22788W        W94371  12.577  41.981  12.381
22789W        W94372  10.360   9.314   1.910
22790W        W94373  27.008  32.687  11.178
22791W        W94374  28.142  42.305  12.909
22792W        W94375   4.246   0.760   4.449
22793W        W94376  10.761   6.460   2.467
22794W        W94377  40.881  23.212  10.715
22795W        W94378  30.491  21.797   3.209
22796W        W94379  32.723  32.239  10.858
22797W        W94380  10.154  39.637  13.969
22798W        W94381  41.384   3.198   4.164
22799W        W94382  20.280  31.011  13.381
22800W        W94383  37.027   9.382   0.996
22801W        W94384  32.506  21.784   2.016
22802W        W94385  18.303  33.582   3.778
22803W        W94386  29.936  18.169   3.336
22804W        W94387  19.776  18.684  13.408
22805W        W94388  25.948  28.009  13.738
22806W        W94389  19.789   6.001  11.200
22807W        W94390   9.367  22.778  14.869
22808W        W94391  43.132  26.394  13.055
22809W        W94392  19.204   2.393   3.385
22810W        W94393  16.818  17.179  14.854
22811W        W94394  36.898   8.950   2.657
22812W        W94395   6.188  31.575  13.086
22813W        W94396  41.606   9.292  14.915
22814W        W94397  12.812  36.266  12.007
22815W        W94398   9.364  28.579  14.821
22816W        W94399  34.467   5.675   0.167
22817W        W94400  10.103  17.183  14.691
22818W        W94401  43.669  15.150  11.930
22819W        W94402  41.960  38.538   4.648
22820W        W94403  34.107  25.095  14.838
22821W        W94404  19.607  36.884   3.383
22822W        W94405  38.323  40.571  13.904
22823W        W94406   7.256  36.855   1.874
22824W        W94407  36.822   6.518  10.922
22825W        W94408  13.417  10.366   2.269
22826W        W94409  33.464  22.222   3.589
22827W        W94410  11.631  15.313   0.484
22828W        W94411  16.588  34.011   3.794
22829W        W94412  16.620   1.027  13.307
22830W        W94413  25.828  37.191   0.449
22831W        W94414  35.488  14.182   2.301
22832W        W94415  44.831  42.673  10.538
22833W        W94416  41.163  30.342  11.569
22834W        W94417   1.347  29.726  12.681
22835W        W94418  12.709   1.197   1.685
22836W        W94419  19.698  44.519  14.879
22837W        W94420  25.784  22.168   3.092
22838W        W94421  41.043  13.309  11.456
22839W        W94422  16.103   6.225  11.656
22840W        W94423  43.577  43.963   2.154
22841W        W94424  13.076  30.585   4.513
22842W        W94425  12.412   3.458   1.437
22843W        W94426  23.212  17.058   1.395
22844W        W94427  14.523  21.213  10.201
22845W        W94428   0.179  22.446   4.164
22846W        W94429  28.431   9.095   3.719
22847W        W94430  39.801  31.088  13.996
22848W        W94431  20.099   9.141   4.825
22849W        W94432   6.457  30.352  13.963
22850W        W94433  22.058  17.213   1.963
22851W        W94434  19.112  23.470  13.037
22852W        W94435  42.834   5.769  13.485
22853W        W94436   2.156  16.287   3.887
22854W        W94437  32.128  36.512  14.813
22855W        W94438  18.180  14.775   0.788
22856W        W94439   0.339  15.768  11.955
22857W        W94440  28.586  15.717  14.558
22858W        W94441   6.968  38.778  12.091
22859W        W94442  14.355  31.041   3.382
22860W        W94443  15.316   4.650   3.635
22861W        W94444  40.827  42.023  10.864
22862W        W94445  39.549  37.438  11.148
22863W        W94446  22.520   8.345  13.101
22864W        W94447  37.285  30.966   0.736
22865W        W94448  21.009  19.058  12.105
22866W        W94449  32.515   6.246   2.079
22867W        W94450  34.340  43.826  12.575
22868W        W94451  34.185  24.695   2.620
22869W        W94452   6.064  43.735   1.946
22870W        W94453  34.689   7.710  10.690
22871W        W94454  14.356  38.500   0.323
22872W        W94455   3.466  28.632  12.212
22873W        W94456  11.967   9.852  11.916
22874W        W94457  22.691  10.346  13.724
22875W        W94458   4.523  37.472  12.301
22876W        W94459  10.176  39.806   4.123
22877W        W94460  39.510  29.396   0.258
22878W        W94461   7.906  22.475   0.755
22879W        W94462  35.885   1.317  14.702
22880W        W94463  41.273  21.519   4.199
22881W        W94464  32.462  37.782  14.258
22882W        W94465  41.584  35.837   1.238
22883W        W94466  36.330  32.918  10.582
22884W        W94467  44.609  12.067  14.564
22885W        W94468   6.174  13.404   0.558
22886W        W94469  38.568  17.652  13.068
22887W        W94470  17.200  31.821   1.266
22888W        W94471  27.678  35.731   2.881
22889W        W94472  13.772  26.927  10.732
22890W        W94473   2.049   3.983   2.403
22891W        W94474  36.826   7.452  13.941
22892W        W94475  13.715  37.132  14.052
22893W        W94476   4.775  10.994   4.566
22894W        W94477  43.454  43.775  14.452
22895W        W94478   2.334  39.766  13.398
22896W        W94479  26.710  11.114   1.404
22897W        W94480  18.196  40.488   1.063
22898W        W94481  34.012  41.130   1.456
22899W        W94482  29.816  31.780  11.126
22900W        W94483  25.285  26.191   0.348
22901W        W94484  43.053  20.715   1.404
22902W        W94485  12.064  11.094  12.358
22903W        W94486  43.027  42.731   2.213
22904W        W94487  27.070  16.804   4.615
22905W        W94488  16.730  21.945   0.474
22906W        W94489  39.836  15.612   0.081
22907W        W94490  26.658  10.865  11.519
22908W        W94491  39.853  37.566  14.645
22909W        W94492   3.345   7.751  13.898
22910W        W94493  32.942  27.673  13.778
22911W        W94494   6.055   9.136  12.905
22912W        W94495  41.893  37.717   3.831
22913W        W94496  35.528  29.479  14.415
22914W        W94497  32.857  25.489   0.015
22915W        W94498  41.301  21.423  14.833
22916W        W94499  24.455  34.428   2.386
22917W        W94500  26.376  30.646  11.505
22918W        W94501  40.987  13.307  10.810
22919W        W94502  14.679  44.202   3.147
22920W        W94503  20.713  16.233  13.522
22921W        W94504  18.471   5.817   0.253
22922W        W94505  18.744  28.600   2.194
22923W        W94506  33.072  23.548   1.892
22924W        W94507  27.036  27.067   0.768
22925W        W94508  43.104  17.786  13.444
22926W        W94509  25.295  29.872   3.012
22927W        W94510  24.314  10.888  14.371
22928W        W94511  41.292  42.815   5.255
22929W        W94512   9.602  18.228   0.952
22930W        W94513   8.806  15.168   0.172
22931W        W94514  17.112  23.320   5.519
22932W        W94515  10.062   1.927  11.222
22933W        W94516   4.931  27.708   2.274
22934W        W94517  36.047  41.884   3.447
22935W        W94518  38.871  38.429  11.192
22936W        W94519  19.804  32.799   4.129
22937W        W94520  34.928  38.351  12.001
22938W        W94521  14.286   4.706  12.715
22939W        W94522   3.785   2.870   2.822
22940W        W94523   9.169  44.210   3.971
22941W        W94524   1.776  12.280  10.601
22942W        W94525  42.613  11.097   3.631
22943W        W94526  42.346  40.781  14.036
22944W        W94527  10.060  23.195   3.431
22945W        W94528  43.874  17.342   4.012
22946W        W94529  38.989  23.065   4.914
22947W        W94530  12.574  27.202   2.735
22948W        W94531   8.734  12.296  14.975
22949W        W94532  35.104  39.102   0.187
22950W        W94533  15.739  11.673   1.406
22951W        W94534  35.533  14.239   4.678
22952W        W94535  32.110  43.574  14.858
22953W        W94536  41.388  25.648   1.917
22954W        W94537  39.364  17.120   0.496
22955W        W94538   5.864   2.163  12.219
22956W        W94539   9.973  11.186   3.391
22957W        W94540   1.018  39.978   0.432
22958W        W94541  44.265  40.345  13.851
22959W        W94542   8.767  28.503   2.212
22960W        W94543  38.976  25.105  14.763
22961W        W94544  25.627  22.804  14.456
22962W        W94545  32.648  22.158   2.894
22963W        W94546  32.205  11.079   2.886
22964W        W94547  25.493  37.377  14.758
22965W        W94548  36.763  24.222  12.452
22966W        W94549  14.526  26.221  11.673
22967W        W94550  16.011  12.134  12.514
22968W        W94551  32.154  33.323  11.229
22969W        W94552  21.625  33.617   2.423
22970W        W94553  10.339  38.495   1.492
22971W        W94554   0.157  27.003  10.722
22972W        W94555   8.709  37.354   4.332
22973W        W94556  42.367  33.881  11.539
22974W        W94557  18.097  28.892  10.693
22975W        W94558  38.516   3.004  11.540
22976W        W94559  38.815   2.255   2.207
22977W        W94560  32.499  36.306   4.643
22978W        W94561  25.099  11.886  14.036
22979W        W94562   4.749  34.996  14.774
22980W        W94563  30.653   9.643  14.858
22981W        W94564   5.411  23.632  12.982
22982W        W94565  27.079  42.509   1.938
22983W        W94566  18.002  29.059  14.284
22984W        W94567   9.209  35.324  10.683
22985W        W94568  21.791  21.880  13.591
22986W        W94569  38.642  30.458   1.241
22987W        W94570  26.490   8.101  14.270
22988W        W94571  13.588  16.882  13.125
22989W        W94572  12.886   9.736  11.166
22990W        W94573  25.303  11.219   3.678
22991W        W94574  32.411  12.875   4.460
22992W        W94575  28.883  44.347   4.857
22993W        W94576  18.554  14.408  14.155
22994W        W94577  43.517   8.230  11.125
22995W        W94578  20.732  20.953   1.859
22996W        W94579  15.816  26.577  10.280
22997W        W94580  14.656   6.111   1.800
22998W        W94581   0.003  26.084  11.032
22999W        W94582   8.136  16.094  10.383
23000W        W94583  10.237  33.994  14.948
23001W        W94584  17.866  11.108  11.447
23002W        W94585   1.753  31.848   0.050
23003W        W94586  19.440   6.245   2.319
23004W        W94587   0.515  40.349   2.293
23005W        W94588  32.925  21.207   2.825
23006W        W94589  13.800  13.031  11.165
23007W        W94590  39.727  41.737   3.679
23008W        W94591  20.902  11.513  11.576
23009W        W94592   5.312   1.014  10.577
23010W        W94593  41.623  10.236  13.272
23011W        W94594   0.755  23.934   2.243
23012W        W94595   0.871  22.171   3.534
23013W        W94596  44.453   1.247   4.066
23014W        W94597  18.217  25.683   3.230
23015W        W94598  23.203   0.858  14.776
23016W        W94599  37.831  28.366   2.629
23017W        W94600  16.345  19.798   4.665
23018W        W94601   0.280  31.973  10.502
23019W        W94602  22.057  34.043  13.099
23020W        W94603  13.310  22.217  13.078
23021W        W94604  30.095  37.731   0.422
23022W        W94605  37.993   9.763  14.373
23023W        W94606  36.001  19.568   3.654
23024W        W94607   7.776  38.483   3.117
23025W        W94608  28.235   4.907  11.166
23026W        W94609  20.485  42.436  10.630
23027W        W94610  36.946   1.383   0.721
23028W        W94611   1.420   4.641  10.756
23029W        W94612  17.586  10.959   3.278
23030W        W94613  10.413   1.773  12.133
23031W        W94614  43.552  39.407   3.855
23032W        W94615  13.201   0.241   3.647
23033W        W94616  27.232  18.713  12.141
23034W        W94617  44.844  32.897   0.919
23035W        W94618  14.667  31.899   1.234
23036W        W94619  16.291  22.524   2.388
23037W        W94620  14.251  29.510  12.148
23038W        W94621  28.674  26.487   4.493
23039W        W94622  26.638   3.227   1.291
23040W        W94623  16.595   4.027  13.033
23041W        W94624  33.957  11.221  11.674
23042W        W94625   0.958  30.054  14.351
23043W        W94626  39.420  38.541  14.882
23044W        W94627  30.046   3.736   3.619
23045W        W94628  11.254  22.437   2.926
23046W        W94629  41.421  27.116   3.905
23047W        W94630   6.308   6.840  11.438
23048W        W94631  37.403   6.739  13.914
23049W        W94632  26.866  38.803   9.838
23050W        W94633   7.618   9.079  10.037
23051W        W94634  13.514   3.293   0.389
23052W        W94635   2.426  22.920   4.791
23053W        W94636  22.073  32.010  14.370
23054W        W94637  30.544  41.136   1.436
23055W        W94638  30.055  36.822   3.247
23056W        W94639  43.702  44.401   2.943
23057W        W94640  36.061  30.090   4.739
23058W        W94641  20.762  40.741  11.145
23059W        W94642  14.607  13.237   2.113
23060W        W94643  39.344  37.584   4.587
23061W        W94644   6.901  29.953   2.394
23062W        W94645   4.443  29.481   2.738
23063W        W94646  13.671  38.367  11.544
23064W        W94647  29.392  15.042   1.792
23065W        W94648  17.543  29.007  14.766
23066W        W94649  15.166  10.826   0.932
23067W        W94650  37.815  20.735   0.469
23068W        W94651  29.127   4.813   4.292
23069W        W94652  13.057  43.955  12.689
23070W        W94653   0.414  13.893   2.838
23071W        W94654  31.552  44.818   4.834
23072W        W94655   5.878  34.609  13.054
23073W        W94656   4.384  43.810  12.350
23074W        W94657  24.005   6.828   3.392
23075W        W94658  30.463  26.607  10.966
23076W        W94659   4.544   2.921   3.206
23077W        W94660  21.725  34.437   3.055
23078W        W94661  38.354  18.777  12.346
23079W        W94662   2.414  23.610   3.227
23080W        W94663   9.406  14.848  11.139
23081W        W94664  11.927  43.383  13.817
23082W        W94665   6.279   5.707  12.783
23083W        W94666  10.133  14.906   4.178
23084W        W94667   1.126  15.893  11.059
23085W        W94668  29.682   0.996   4.177
23086W        W94669   7.331  21.767   1.197
23087W        W94670  33.994  17.805   4.647
23088W        W94671  35.029  18.022  12.155
23089W        W94672  39.254  40.474   4.260
23090W        W94673   0.738  12.035   1.748
23091W        W94674  12.196  25.481  11.043
23092W        W94675  27.083   7.281   0.468
23093W        W94676  30.448  44.284  12.440
23094W        W94677  44.739   3.786  14.046
23095W        W94678  33.859   2.058  11.599
23096W        W94679   2.947  17.563   2.882
23097W        W94680  35.328  43.272   0.283
23098W        W94681  44.075  39.854  14.556
23099W        W94682   8.400  36.889   3.362
23100W        W94683  38.574  21.123  12.062
23101W        W94684  15.329  19.139  12.804
23102W        W94685  37.484  43.919   2.224
23103W        W94686   3.479  36.921  12.924
23104W        W94687  30.344  31.167   4.670
23105W        W94688   2.396  10.246   4.034
23106W        W94689   8.896  42.440  10.520
23107W        W94690  37.658   8.936   1.425
23108W        W94691  43.269  27.142   0.719
23109W        W94692  35.993  18.123   0.367
23110W        W94693   3.645  26.118  10.754
23111W        W94694  42.766  30.204   0.902
23112W        W94695  35.594  24.216  10.773
23113W        W94696   0.265  16.252   0.647
23114W        W94697  22.311  32.197  11.889
23115W        W94698  30.392  10.797   5.042
23116W        W94699   3.555  17.187   3.584
23117W        W94700   7.770  40.562  13.157
23118W        W94701  19.058  33.850   0.798
23119W        W94702   5.194  17.474  10.962
23120W        W94703   0.246  36.641   4.118
23121W        W94704  10.199   0.373  14.086
23122W        W94705  25.743  43.220  14.446
23123W        W94706  42.251  31.985  12.989
23124W        W94707   9.816  35.840   3.108
23125W        W94708  41.639  32.039   1.263
23126W        W94709  39.197  30.180  12.833
23127W        W94710  39.092   1.539   2.537
23128W        W94711   9.399  10.137  12.433
23129W        W94712   1.884  28.446   1.794
23130W        W94713  29.243  22.661  10.643
23131W        W94714  32.538  44.048  13.127
23132W        W94715  42.786  26.959   4.951
23133W        W94716  14.788  35.189  10.665
23134W        W94717  11.185   8.777  14.859
23135W        W94718  16.034  41.349  10.550
23136W        W94719   3.830  39.861   2.273
23137W        W94720  24.469  26.366  14.477
23138W        W94721   1.506  32.602  13.301
23139W        W94722   1.055  27.855   5.114
23140W        W94723  38.382  11.915  13.388
23141W        W94724   9.255  41.047  10.445
23142W        W94725  22.157  30.785   4.364
23143W        W94726  24.677  14.843   3.465
23144W        W94727  19.817   9.318   0.884
23145W        W94728   4.613  24.147   1.800
23146W        W94729  12.795   4.886   2.490
23147W        W94730  33.025   3.891   1.399
23148W        W94731  33.448   7.434   0.127
23149W        W94732   8.563  12.607   3.338
23150W        W94733  11.312  24.221   4.309
23151W        W94734   1.979  11.274   0.710
23152W        W94735  24.527  23.671   2.757
23153W        W94736  12.823  34.896  11.558
23154W        W94737   1.948  22.254  13.609
23155W        W94738  19.725   6.351   4.554
23156W        W94739   6.175   5.440   2.262
23157W        W94740  28.692   0.528  11.902
23158W        W94741   1.692  33.869   3.850
23159W        W94742  44.375  40.891   1.547
23160W        W94743  39.967  34.980  10.804
23161W        W94744   0.178  43.646  13.802
23162W        W94745  17.615  36.894  13.961
23163W        W94746  26.151   1.419   4.554
23164W        W94747  33.063  43.372  12.862
23165W        W94748  20.482  36.202  14.878
23166W        W94749  17.527   0.821   2.656
23167W        W94750  44.624   9.415   2.769
23168W        W94751  29.935  26.163   1.806
23169W        W94752  15.201  26.214   4.773
23170W        W94753   6.649  36.053  11.579
23171W        W94754  32.941  26.584  13.085
23172W        W94755  40.744  20.565   0.389
23173W        W94756  10.466  29.545   4.187
23174W        W94757   7.127  14.823   0.009
23175W        W94758  39.109  10.160   5.056
23176W        W94759   0.449  36.855   4.572
23177W        W94760  34.923  34.357  10.089
23178W        W94761  32.385  39.054  11.993
23179W        W94762  27.219  14.573   0.769
23180W        W94763   4.727  38.610   1.993
23181W        W94764  27.530  31.954   3.672
23182W        W94765   1.352  14.231   3.160
23183W        W94766  17.988  29.683   1.796
23184W        W94767  14.714  35.358   1.940
23185W        W94768   6.450  17.156   4.011
23186W        W94769  29.106  14.851  10.685
23187W        W94770  30.124  14.187  14.456
23188W        W94771  13.803   4.107  14.258
23189W        W94772  31.102  30.679  12.130
23190W        W94773  28.589  28.176  13.988
23191W        W94774  36.347   7.600   1.413
23192W        W94775   7.403  33.887  13.898
23193W        W94776   4.883  20.478  13.450
23194W        W94777   4.255  32.537   4.828
23195W        W94778  27.194  32.367  14.805
23196W        W94779  10.158  29.520  10.795
23197W        W94780  33.637   5.555   3.250
23198W        W94781  22.951   8.006   1.475
23199W        W94782   0.905  38.960   1.926
23200W        W94783  12.850  27.404  13.428
23201W        W94784  20.551   5.043   2.181
23202W        W94785  10.774  41.257  13.739
23203W        W94786   0.012   6.791   1.402
23204W        W94787  13.971  33.516   0.732
23205W        W94788  24.748  26.180  13.327
23206W        W94789  28.159   7.776  13.389
23207W        W94790  29.108  19.089   4.687
23208W        W94791  43.118  38.842   2.654
23209W        W94792  30.833  32.074   1.848
23210W        W94793  16.347  36.993  10.953
23211W        W94794  35.859   7.424   1.418
23212W        W94795  37.646  20.209   4.768
23213W        W94796   2.184  21.184   3.393
23214W        W94797  21.999  20.901  13.305
23215W        W94798  39.810   0.123   1.017
23216W        W94799  12.482   2.937  11.309
23217W        W94800  19.835  32.429   2.720
23218W        W94801  35.573   0.537   1.276
23219W        W94802   0.917  28.840   0.281
23220W        W94803  42.241  25.130  13.317
23221W        W94804  43.394  36.417   1.907
23222W        W94805  29.411  16.840  12.201
23223W        W94806  41.690  23.459  14.395
23224W        W94807   5.264   4.283   3.223
23225W        W94808  36.909   7.748   0.753
23226W        W94809  15.467  44.944   4.963
23227W        W94810  15.689  40.330   2.626
23228W        W94811  11.229  21.293   1.694
23229W        W94812  25.450  24.034  13.835
23230W        W94813  22.066  10.618  14.792
23231W        W94814   2.495  25.381   1.420
23232W        W94815  27.950  19.612   0.515
23233W        W94816  29.296  40.335  11.219
23234W        W94817  38.532   5.715  12.900
23235W        W94818  43.223  13.673  11.131
23236W        W94819  18.135  10.729  11.203
23237W        W94820  13.082  22.471  13.926
23238W        W94821   5.903  41.832   3.224
23239W        W94822  30.633  22.177  14.431
23240W        W94823   2.686  29.156   4.365
23241W        W94824   7.239  37.393   0.944
23242W        W94825  40.619  43.701  11.958
23243W        W94826  44.095  31.136  14.825
23244W        W94827  13.205  14.777  12.960
23245W        W94828  32.224  16.711  10.887
23246W        W94829  11.912  33.115  13.965
23247W        W94830   4.119  42.778  11.620
23248W        W94831  25.436  32.241   1.794
23249W        W94832  24.720  23.222   4.535
23250W        W94833   4.848  24.045  12.304
23251W        W94834  24.601   6.927   0.436
23252W        W94835  18.806  40.372  10.575
23253W        W94836   2.669  34.208   3.804
23254W        W94837  17.736   2.544  11.110
23255W        W94838   2.205  39.501  14.261
23256W        W94839  30.025  31.608  11.598
23257W        W94840  15.543  32.120  12.024
23258W        W94841  30.577   2.659  14.470
23259W        W94842  30.874   4.315   0.517
23260W        W94843  39.043  42.477  12.152
23261W        W94844   9.814  16.756  13.065
23262W        W94845  15.979   8.579  12.072
23263W        W94846  36.097   3.976  13.852
23264W        W94847  25.604   5.051   2.232
23265W        W94848  28.121   7.217  13.666
23266W        W94849  28.086   1.043  12.516
23267W        W94850  24.796   3.765  14.459
23268W        W94851   0.813  44.269   2.990
23269W        W94852   6.114  38.753  13.569
23270W        W94853  34.306  12.647  10.701
23271W        W94854   5.373  38.031   0.422
23272W        W94855  32.512   9.959  13.554
23273W        W94856  21.655  25.171   4.611
23274W        W94857  31.331  27.418   1.472
23275W        W94858   5.964  41.090   3.778
23276W        W94859  39.130  43.836  13.027
23277W        W94860  34.359   5.504  14.131
23278W        W94861   6.220  30.815  13.832
23279W        W94862  22.231   1.973  12.902
23280W        W94863  38.186  28.918  12.276
23281W        W94864  20.142  22.241  14.735
23282W        W94865  16.205  23.784  13.518
23283W        W94866  16.190  18.788  14.033
23284W        W94867  27.033   6.680  11.844
23285W        W94868   2.265  26.205   1.863
23286W        W94869  27.072  10.257  10.188
23287W        W94870  33.988  36.444  12.012
23288W        W94871  30.576  20.491   3.739
23289W        W94872  12.275   2.413  14.828
23290W        W94873  18.588  35.822   0.686
23291W        W94874  27.998  32.214   3.645
23292W        W94875   0.873  40.880   4.988
23293W        W94876  36.339  34.420  12.028
23294W        W94877  29.928   9.209  13.787
23295W        W94878   2.683  26.127   0.803
23296W        W94879  21.219  27.389   0.462
23297W        W94880  25.473   5.971   1.794
23298W        W94881   1.604  35.120   1.874
23299W        W94882  14.400   3.855  13.290
23300W        W94883  17.919  13.783   2.847
23301W        W94884   7.861  15.957  12.787
23302W        W94885  21.616  28.698  13.279
23303W        W94886   9.817   9.703  10.591
23304W        W94887  16.136  43.775  12.938
23305W        W94888  40.186  36.817  14.932
23306W        W94889  27.456  16.687   1.110
23307W        W94890  30.357  25.245   3.271
23308W        W94891   0.720  23.153   3.209
23309W        W94892   1.817  16.271  11.922
23310W        W94893  23.663   6.378   4.596
23311W        W94894  33.056  34.525  13.346
23312W        W94895  20.039  35.131   3.010
23313W        W94896  44.312  25.586   0.324
23314W        W94897  37.130  21.739   1.812
23315W        W94898  21.341   8.315   2.193
23316W        W94899   1.881  28.130  14.460
23317W        W94900  32.883  14.217   2.235
23318W        W94901  20.461   0.998  12.038
23319W        W94902  37.378  11.704  12.375
23320W        W94903  12.262  22.480  11.073
23321W        W94904  24.116  11.809   1.023
23322W        W94905  25.739  35.379   0.967
23323W        W94906   6.955   1.335   2.246
23324W        W94907   6.126  39.296   0.941
23325W        W94908  44.007   4.195   2.613
23326W        W94909   9.445  44.931  13.177
23327W        W94910  16.127  10.450   4.014
23328W        W94911   5.462  16.314   0.853
23329W        W94912  32.559  22.566   4.610
23330W        W94913  12.871  26.213  11.181
23331W        W94914   5.149  39.387   4.538
23332W        W94915   1.870  16.202   0.799
23333W        W94916  37.578  21.968  11.226
23334W        W94917  38.322   9.659   4.174
23335W        W94918   7.146  12.737   0.489
23336W        W94919   4.250  43.420   3.381
23337W        W94920  34.315  31.754  12.892
23338W        W94921  22.510  34.113   2.336
23339W        W94922   5.643  34.499  12.590
23340W        W94923   8.829  44.519   0.762
23341W        W94924  30.577  23.428  13.785
23342W        W94925  22.003  19.529  12.980
23343W        W94926  22.010  28.465  12.034
23344W        W94927   8.680  25.685   0.540
23345W        W94928  42.865  42.654  11.224
23346W        W94929  22.466  32.852  12.958
23347W        W94930   9.009  26.912  10.629
23348W        W94931  38.795  23.153  14.783
23349W        W94932   3.012   6.407  12.502
23350W        W94933  39.766  24.534   3.414
23351W        W94934   2.242  11.693   0.845
23352W        W94935  36.571   4.914  10.353
23353W        W94936  13.818  24.731   0.566
23354W        W94937  41.371  23.752  14.716
23355W        W94938  27.498  38.242  13.992
23356W        W94939   9.792  28.008   1.648
23357W        W94940  19.009   7.883   0.500
23358W        W94941   2.323  15.631  14.378
23359W        W94942  36.108   6.022   0.447
23360W        W94943   2.825  24.308   0.956
23361W        W94944   7.221   4.132   3.805
23362W        W94945  42.722  25.438   1.677
23363W        W94946   2.259  41.400  11.437
23364W        W94947  42.807  36.642  12.409
23365W        W94948   2.394   5.345   0.853
23366W        W94949  15.284  26.102  13.152
23367W        W94950  30.189  39.020   0.843
23368W        W94951  40.425  40.533  10.740
23369W        W94952  12.294  19.233   4.149
23370W        W94953   3.253  23.980   2.174
23371W        W94954  24.131  19.287   0.471
23372W        W94955  19.121  43.517   3.374
23373W        W94956  32.142  33.476   4.216
23374W        W94957  33.353  14.873  13.078
23375W        W94958  35.557   9.447   1.413
23376W        W94959  35.490  10.691  11.839
23377W        W94960  11.401  15.479   3.555
23378W        W94961  26.037   7.594   1.763
23379W        W94962  38.994  19.241  14.999
23380W        W94963  10.086  31.841  12.756
23381W        W94964  39.753  37.131  14.947
23382W        W94965  37.678  28.717   4.825
23383W        W94966  20.363   7.745   2.847
23384W        W94967  20.844  12.185  11.164
23385W        W94968  22.623  12.278  12.469
23386W        W94969   2.160   7.861   4.093
23387W        W94970  19.686  25.126   2.355
23388W        W94971  17.377   5.479  14.390
23389W        W94972  16.117  38.024   3.888
23390W        W94973   4.478   4.189  11.797
23391W        W94974  32.534  26.880  11.854
23392W        W94975  33.683  16.300  14.965
23393W        W94976  44.080  30.452   0.364
23394W        W94977  23.613  41.897  11.893
23395W        W94978  23.251  24.561  13.857
23396W        W94979  32.562   5.793  10.310
23397W        W94980  33.155  22.021  12.361
23398W        W94981  37.481   8.751   3.997
23399W        W94982   2.241  28.982   4.664
23400W        W94983  27.421  17.678   2.438
23401W        W94984  37.872  37.840   1.752
23402W        W94985  13.618   3.128   3.929
23403W        W94986  11.184   4.927  13.026
23404W        W94987  20.925   6.136  12.161
23405W        W94988   1.382  33.000   2.553
23406W        W94989  35.985  17.569  11.138
23407W        W94990  34.695  33.003  13.861
23408W        W94991   2.818  42.288  14.344
23409W        W94992   6.183   2.377   1.687
23410W        W94993  13.372  26.035  12.593
23411W        W94994  37.740  16.787  13.946
23412W        W94995  23.137  36.672  14.950
23413W        W94996   6.391  35.913  12.024
23414W        W94997   5.444  16.077   1.712
23415W        W94998   1.428  29.102   4.893
23416W        W94999  22.921  19.242  12.122
23417W        W95000  11.396  20.262  11.512
23418W        W95001   2.745   1.529   4.755
23419W        W95002  21.999  24.095  14.941
23420W        W95003  16.644  17.660  14.090
23421W        W95004  34.679  24.041  13.246
23422W        W95005  23.010  12.778   4.128
23423W        W95006   9.683  44.689  11.539
23424W        W95007  16.197  15.636  10.115
23425W        W95008  27.096  11.257  10.676
23426W        W95009  32.852  24.606  14.960
23427W        W95010  18.138   8.418   4.152
23428W        W95011   4.906  10.413   1.905
23429W        W95012  16.621  35.567  13.865
23430W        W95013  44.850  38.155  12.055
23431W        W95014  28.943  13.091   1.927
23432W        W95015  39.553  35.904  14.993
23433W        W95016   4.283  40.605   1.253
23434W        W95017  10.765  13.124   3.070
23435W        W95018  20.498  42.350   0.533
23436W        W95019  13.605  43.810  11.147
23437W        W95020  29.009   9.335  11.974
23438W        W95021   3.275  28.320  13.091
23439W        W95022   2.721  33.437  14.938
23440W        W95023  15.145  42.833   0.404
23441W        W95024  31.331  42.224   1.189
23442W        W95025   8.296  16.147  13.676
23443W        W95026  43.925  31.435   2.114
23444W        W95027   8.155   8.014  12.499
23445W        W95028  24.216   0.667  13.977
23446W        W95029  24.682   5.558   2.836
23447W        W95030  22.294  31.072   2.713
23448W        W95031   3.395  14.565  10.590
23449W        W95032   3.677   4.669  14.501
23450W        W95033  35.805  40.601   3.126
23451W        W95034  34.756  36.452  14.103
23452W        W95035  35.895  28.091  10.639
23453W        W95036  36.507  42.515  11.962
23454W        W95037  40.077   7.368  13.072
23455W        W95038  21.103  27.889  12.507
23456W        W95039  17.056  21.262  13.001
23457W        W95040  17.941  26.046   2.005
23458W        W95041   5.867   8.629   1.922
23459W        W95042  14.576  16.716   1.170
23460W        W95043  35.110  42.252  11.162
23461W        W95044   2.952  15.088  13.928
23462W        W95045  37.450  20.064  12.982
23463W        W95046  13.670  24.550  10.458
23464W        W95047  22.935  25.806  11.749
23465W        W95048   9.496  30.504  12.118
23466W        W95049  37.653  15.365   2.895
23467W        W95050  44.223  31.795  11.606
23468W        W95051   3.425  39.876   3.992
23469W        W95052  24.201   0.929   2.801
23470W        W95053  24.652   4.877   0.256
23471W        W95054  30.686  43.294   3.963
23472W        W95055  16.735  15.617  11.917
23473W        W95056   4.534  43.596  14.452
23474W        W95057   3.801   1.829  13.365
23475W        W95058  27.705  14.574   3.786
23476W        W95059  30.468  22.319   3.223
23477W        W95060   2.482   1.781   0.296
23478W        W95061  21.038   5.363   0.982
23479W        W95062  30.733   5.167  14.387
23480W        W95063  31.529  38.055  12.843
23481W        W95064  17.046  37.159   1.404
23482W        W95065  37.519  21.705   1.489
23483W        W95066  30.117  31.920   0.206
23484W        W95067  22.700  43.035   4.152
23485W        W95068  19.961  27.936   2.128
23486W        W95069  14.095  23.650   0.308
23487W        W95070   2.492   7.323   2.802
23488W        W95071  21.270  25.991   0.385
23489W        W95072  22.505  35.342   4.166
23490W        W95073   8.768  39.918  11.577
23491W        W95074   0.543   8.206  12.926
23492W        W95075  10.947  18.186   4.123
23493W        W95076  33.044  36.825   0.737
23494W        W95077  21.325  14.643   2.817
23495W        W95078   1.921  35.851   0.718
23496W        W95079   1.842  37.949   1.609
23497W        W95080  20.243  27.356  12.482
23498W        W95081  13.383  29.583   3.311
23499W        W95082  14.615  24.464  11.741
23500W        W95083  37.823  43.009  11.687
23501W        W95084  34.015  15.751  14.338
23502W        W95085  39.793  24.081  12.515
23503W        W95086   3.673   7.193   3.695
23504W        W95087  42.036  21.129  14.418
23505W        W95088  24.712   9.174  11.682
23506W        W95089  23.768  16.667   3.596
23507W        W95090   0.205  11.280  13.346
23508W        W95091  14.497  31.654   1.729
23509W        W95092  40.943  28.431  10.779
23510W        W95093   5.710  40.861  13.623
23511W        W95094  17.800  32.201  13.851
23512W        W95095   3.978  38.185  10.423
23513W        W95096  12.087  36.054   1.880
23514W        W95097  28.226  18.678  12.983
23515W        W95098  27.129   8.641  10.451
23516W        W95099  13.397   8.093   2.734
23517W        W95100  11.532  25.291   1.274
23518W        W95101   0.185  40.585  14.722
23519W        W95102  40.618  26.996   3.261
23520W        W95103  14.249  33.773  13.402
23521W        W95104  22.514  37.119   1.482
23522W        W95105   2.062  10.571   2.291
23523W        W95106   1.189  32.092   2.699
23524W        W95107   5.911  39.013   3.216
23525W        W95108  11.698   4.478  11.643
23526W        W95109  31.852  21.679  13.555
23527W        W95110  22.536  20.083  13.454
23528W        W95111  23.864  11.356  10.696
23529W        W95112  42.820  32.330   1.442
23530W        W95113  30.705   4.323  11.542
23531W        W95114  22.033  35.615  13.881
23532W        W95115  31.097  41.300   2.176
23533W        W95116  44.190  44.006   4.533
23534W        W95117  41.421   4.098   3.223
23535W        W95118  39.601  38.674   0.627
23536W        W95119  17.177  14.509  13.888
23537W        W95120  17.767  44.539  10.595
23538W        W95121  10.806  28.970   0.863
23539W        W95122  41.718  24.133   1.301
23540W        W95123   7.890  11.043  11.952
23541W        W95124  14.272  24.601   4.384
23542W        W95125   9.610  26.014  11.116
23543W        W95126  25.225   6.825   1.284
23544W        W95127  14.157  40.252  13.835
23545W        W95128  13.302  31.601  14.935
23546W        W95129   6.792  10.642  11.074
23547W        W95130  38.226  10.690  12.847
23548W        W95131  28.895  16.194   2.346
23549W        W95132   0.826  19.698   0.090
23550W        W95133  11.309  28.681  12.991
23551W        W95134  13.815   2.016   2.594
23552W        W95135   1.191  14.555   2.744
23553W        W95136  24.533  29.689  14.894
23554W        W95137   5.344   7.719  13.120
23555W        W95138  30.892  30.031  13.845
23556W        W95139   4.351  25.588  12.635
23557W        W95140  44.050  34.192  12.433
23558W        W95141  41.485  16.763   3.253
23559W        W95142  24.973  31.158  11.641
23560W        W95143  43.932   6.131   2.664
23561W        W95144  13.291  13.085  11.365
23562W        W95145  40.331  35.526   0.061
23563W        W95146  35.981  30.765  12.597
23564W        W95147  39.851  25.737  11.536
23565W        W95148   3.484  10.516   5.150
23566W        W95149  32.567  26.969   1.638
23567W        W95150   8.723  22.314  12.994
23568W        W95151  24.376  28.347  11.067
23569W        W95152   4.955   4.934   0.510
23570W        W95153   8.219  35.982  12.326
23571W        W95154   1.266   1.299  10.936
23572W        W95155  43.854   0.519  11.953
23573W        W95156  13.705  16.174   3.319
23574W        W95157  37.121  10.858   3.759
23575W        W95158  10.728  26.229  13.940
23576W        W95159  18.769  27.003  12.546
23577W        W95160  22.247  19.065   1.946
23578W        W95161   2.876  13.222   1.465
23579W        W95162  43.245  32.041  14.577
23580W        W95163  39.207   0.594  14.430
23581W        W95164  21.483  41.970   4.763
23582W        W95165  10.423  29.930   1.876
23583W        W95166   5.653  33.341   4.159
23584W        W95167  44.600  26.876  10.716
23585W        W95168  23.718  12.096  11.131
23586W        W95169  23.135  25.196  13.487
23587W        W95170  43.636  29.454   3.491
23588W        W95171  36.467  41.678  12.533
23589W        W95172  44.816  10.143  12.439
23590W        W95173  29.997  10.748   2.106
23591W        W95174   5.692  17.148  11.460
23592W        W95175  32.470  15.663   0.381
23593W        W95176  40.432   6.778  10.111
23594W        W95177  40.952  11.075   0.914
23595W        W95178   7.221  42.023   0.342
23596W        W95179  38.333  14.574   0.339
23597W        W95180  21.206  22.421  10.713
23598W        W95181  30.074  17.612   3.480
23599W        W95182   3.841  13.921  11.068
23600W        W95183  14.050  31.388   3.612
23601W        W95184  16.261  30.411   1.410
23602W        W95185  28.437  38.847   2.354
23603W        W95186  27.691  18.067   2.191
23604W        W95187  30.005  33.109  13.468
23605W        W95188  15.770   3.965  12.505
23606W        W95189   0.751  34.102   2.376
23607W        W95190   6.229  28.797   1.010
23608W        W95191  17.744  25.114  11.661
23609W        W95192   4.771   7.109   1.191
23610W        W95193  36.838  29.405  12.162
23611W        W95194   2.457  44.836   2.343
23612W        W95195  30.888  26.672  11.525
23613W        W95196   6.128  26.860  14.005
23614W        W95197   0.788  13.581   4.640
23615W        W95198   9.377  16.311  12.400
23616W        W95199  30.041  21.605   3.112
23617W        W95200   7.156  23.571  14.413
23618W        W95201  19.045  35.913   3.685
23619W        W95202  33.552  23.515   4.669
23620W        W95203   6.454  37.473   2.302
23621W        W95204  13.149   2.313   2.639
23622W        W95205  31.654   9.140  13.999
23623W        W95206  25.199   2.965   3.291
23624W        W95207  39.500  34.558  13.919
23625W        W95208  42.966  20.608   3.384
23626W        W95209  28.722  38.048   3.636
23627W        W95210  43.866  43.866   3.968
23628W        W95211  16.095  17.707  11.562
23629W        W95212  38.707   5.471  13.393
23630W        W95213   2.383   3.041  12.542
23631W        W95214   9.644  37.996   1.701
23632W        W95215  41.542  24.134   3.656
23633W        W95216   0.980  42.020  14.832
23634W        W95217  14.291  28.914  13.154
23635W        W95218  29.633  37.505  13.409
23636W        W95219  22.258   5.850  12.855
23637W        W95220  18.679  18.169   1.441
23638W        W95221  36.927  35.620  14.891
23639W        W95222  18.926  25.332  10.870
23640W        W95223  12.252   6.917   3.586
23641W        W95224  30.471   0.834   3.189
23642W        W95225  44.758   7.244   1.477
23643W        W95226  34.976  14.223   3.235
23644W        W95227  19.145  33.134  12.555
23645W        W95228  16.789  26.526  10.673
23646W        W95229  39.349  32.474  13.386
23647W        W95230  40.853   4.187  12.422
23648W        W95231  21.216  35.175   5.111
23649W        W95232  13.355  36.482  13.943
23650W        W95233  30.241  30.947   2.135
23651W        W95234   3.828  15.906   4.767
23652W        W95235  38.502  38.492  14.837
23653W        W95236  43.680   8.124  11.666
23654W        W95237   1.532  31.562   2.298
23655W        W95238  22.220  43.332   4.571
23656W        W95239  42.986  31.808   2.228
23657W        W95240  18.681  40.704   0.403
23658W        W95241  20.611  12.613   2.663
23659W        W95242  18.048  31.090  12.525
23660W        W95243   6.411  22.249  13.371
23661W        W95244  30.769  10.182   1.630
23662W        W95245  10.436  17.158  13.891
23663W        W95246   0.295   7.690  14.777
23664W        W95247  16.645  35.862  12.116
23665W        W95248  21.272  30.404   1.739
23666W        W95249  17.618  20.241  11.169
23667W        W95250  14.186  19.728   0.069
23668W        W95251  39.106  39.324   1.078
23669W        W95252  34.383  10.310   2.362
23670W        W95253  17.298  18.169  10.671
23671W        W95254  31.004   8.376  10.724
23672W        W95255  39.916  41.620   1.934
23673W        W95256   0.756  25.644  10.623
23674W        W95257  23.225   7.846   3.705
23675W        W95258   7.609   3.826  14.243
23676W        W95259  36.221  31.568   1.423
23677W        W95260   7.681   7.849   3.261
23678W        W95261  37.402  40.939   4.770
23679W        W95262  38.537  43.827  14.447
23680W        W95263  32.735  11.134   1.388
23681W        W95264  11.588  11.928   1.091
23682W        W95265  35.464  23.498   3.889
23683W        W95266  39.556  42.415   1.564
23684W        W95267   1.765  28.158   3.945
23685W        W95268  10.257  20.109   1.862
23686W        W95269  31.461  12.774  10.637
23687W        W95270  42.815  20.261   1.425
23688W        W95271   3.692  44.360   1.362
23689W        W95272  19.595  37.451  13.486
23690W        W95273  14.385  26.469   0.457
23691W        W95274  10.912  27.846   2.360
23692W        W95275  18.393  32.008  11.528
23693W        W95276  42.322  21.458  12.468
23694W        W95277  29.990  34.309   5.556
23695W        W95278  15.647  33.184  11.123
23696W        W95279   7.172  15.598   4.642
23697W        W95280  43.781  17.102   4.449
23698W        W95281   4.661   9.360  11.138
23699W        W95282  15.865   9.872  14.911
23700W        W95283  20.453   2.368  11.940
23701W        W95284  31.930  22.069   1.695
23702W        W95285  38.446   4.811  13.930
23703W        W95286   5.408   6.454   1.473
23704W        W95287  36.304  16.519  14.980
23705W        W95288  16.501  32.716  14.908
23706W        W95289   9.181  16.269  10.922
23707W        W95290  23.557   3.319  14.813
23708W        W95291  14.075   5.425  12.451
23709W        W95292  22.649  37.823   0.885
23710W        W95293  12.950  44.961   4.559
23711W        W95294   5.176   0.973  11.074
23712W        W95295  36.005  36.408   0.689
23713W        W95296  39.733  40.961   3.648
23714W        W95297  14.269  18.947   1.377
23715W        W95298  22.034  34.710   2.732
23716W        W95299  27.077   7.408   3.857
23717W        W95300   3.344  37.513   4.096
23718W        W95301  40.725  16.171  12.828
23719W        W95302  16.125  11.850  11.626
23720W        W95303  38.796   3.767  13.667
23721W        W95304  12.099  16.232  11.329
23722W        W95305  15.092  19.660  13.783
23723W        W95306  38.966   0.762  12.945
23724W        W95307  41.451  17.287  13.792
23725W        W95308  42.267  19.045  11.682
23726W        W95309  30.606  35.688  10.718
23727W        W95310   4.978  36.427   4.209
23728W        W95311  11.940  24.470  14.819
23729W        W95312  41.910  30.680   4.471
23730W        W95313  17.409  33.651  11.114
23731W        W95314  22.235   1.639   3.495
23732W        W95315  25.929   0.782  12.963
23733W        W95316  35.094   9.450   3.661
23734W        W95317  33.446  18.986   2.907
23735W        W95318   3.150  17.399  14.910
23736W        W95319   4.880  10.202  12.362
23737W        W95320  13.643  33.710   2.853
23738W        W95321   4.266  44.932  14.895
23739W        W95322  40.787  42.946  14.556
23740W        W95323  33.530  28.852   3.083
23741W        W95324   9.739   0.531  14.274
23742W        W95325   5.221  33.374   2.835
23743W        W95326  30.436  12.178  11.997
23744W        W95327  26.034   9.620   3.761
23745W        W95328  14.051  27.651   1.397
23746W        W95329  10.632   7.377  10.775
23747W        W95330  28.281  43.050   5.032
23748W        W95331  13.811  37.805   2.717
23749W        W95332  24.383  40.733   0.427
23750W        W95333  35.178  16.806   3.390
23751W        W95334  13.268  21.622   4.858
23752W        W95335   7.419  38.313  14.869
23753W        W95336  34.083  15.197  14.263
23754W        W95337  10.203  38.589   4.750
23755W        W95338  38.259  21.040   2.542
23756W        W95339  30.572  17.061   4.732
23757W        W95340   2.682  17.872   1.576
23758W        W95341  30.462  41.986   3.901
23759W        W95342   5.699  41.104   2.321
23760W        W95343  19.976  20.833   1.418
23761W        W95344  44.308  27.440   3.632
23762W        W95345  28.982   2.901   2.428
23763W        W95346  36.505  23.145   3.301
23764W        W95347   0.719  24.251   1.844
23765W        W95348  32.322  43.408   3.053
23766W        W95349  21.807  32.367  10.989
23767W        W95350  19.300  13.410  10.862
23768W        W95351  21.970   5.751   0.435
23769W        W95352  19.007  29.982   9.856
23770W        W95353  41.910  35.010   4.670
23771W        W95354  30.338  11.263   4.796
23772W        W95355  22.155  12.896  12.878
23773W        W95356  11.096  28.326  14.921
23774W        W95357  34.065  32.881  12.651
23775W        W95358  27.529  44.114   2.008
23776W        W95359  10.123  38.818   4.148
23777W        W95360  30.548   8.982  11.996
23778W        W95361  19.096  42.338   0.337
23779W        W95362  10.157  41.333   3.297
23780W        W95363  42.124  29.665  13.308
23781W        W95364  43.929  12.713  12.428
23782W        W95365  43.107  34.460  11.656
23783W        W95366  33.373  34.302   2.722
23784W        W95367  21.089  30.727  13.068
23785W        W95368  34.136   5.473   4.553
23786W        W95369  18.498  38.795   4.198
23787W        W95370   8.146   7.369   4.053
23788W        W95371  38.263  36.121   2.212
23789W        W95372  44.732  38.864   3.943
23790W        W95373  11.779  31.085  12.308
23791W        W95374   5.340  11.649  11.590
23792W        W95375  11.526   8.677  10.990
23793W        W95376  10.670  12.059  12.522
23794W        W95377  16.794  40.299  10.394
23795W        W95378  31.725  20.137   2.007
23796W        W95379  13.179  39.754  11.635
23797W        W95380  37.039  29.206  13.508
23798W        W95381  22.791   4.213  10.653
23799W        W95382  17.695  36.628   0.442
23800W        W95383   0.457  23.793  13.959
23801W        W95384  11.168   7.736   3.168
23802W        W95385  18.762  35.467  10.481
23803W        W95386  31.100  38.389  11.550
23804W        W95387  20.053  13.206  13.542
23805W        W95388   9.893  39.993  11.612
23806W        W95389  44.473  42.452  11.712
23807W        W95390  40.940  39.389   2.343
23808W        W95391  39.419  26.947  10.533
23809W        W95392  34.061  12.722   3.355
23810W        W95393  43.177   4.892   4.636
23811W        W95394   4.753  20.374   2.273
23812W        W95395  24.461  30.000   3.076
23813W        W95396   5.172  13.072  14.402
23814W        W95397   1.527  29.213   2.246
23815W        W95398  25.168  20.691   3.727
23816W        W95399  31.142   3.769   3.155
23817W        W95400  12.294  33.887   3.212
23818W        W95401  14.649   9.136  13.297
23819W        W95402  14.582  24.101   3.690
23820W        W95403  16.148   9.313   0.406
23821W        W95404   1.489   6.185   3.739
23822W        W95405   7.684  15.120  11.637
23823W        W95406  27.784   0.868  14.298
23824W        W95407   7.961   0.744   4.157
23825W        W95408   8.411  15.192  14.806
23826W        W95409   8.639  16.127   1.379
23827W        W95410  13.411   7.766  13.447
23828W        W95411   0.501  43.317  13.562
23829W        W95412  41.363  29.875  11.593
23830W        W95413   2.235  27.469  13.008
23831W        W95414  30.210  19.440  13.504
23832W        W95415  37.289  40.484  11.859
23833W        W95416  28.182   8.137   0.712
23834W        W95417  17.630  28.026   2.814
23835W        W95418  24.406   1.804  12.110
23836W        W95419  14.896   1.824   4.640
23837W        W95420  18.842  38.825   3.355
23838W        W95421  34.036  36.870  12.855
23839W        W95422  25.449  22.121  10.743
23840W        W95423  23.809  20.572   3.183
23841W        W95424  25.441   5.226   1.731
23842W        W95425   3.658  25.434   2.783
23843W        W95426  19.512  28.470  13.102
23844W        W95427  10.720  26.021   2.636
23845W        W95428   1.381  36.003  11.105
23846W        W95429  34.852  16.204   2.806
23847W        W95430   4.221  20.143  12.947
23848W        W95431  20.461   3.160  13.324
23849W        W95432  21.118  31.514   1.738
23850W        W95433  38.967  29.409   1.931
23851W        W95434  11.605  39.468   0.767
23852W        W95435  21.410  30.658  11.514
23853W        W95436  37.950   9.714  13.853
23854W        W95437   5.478   6.846   2.391
23855W        W95438  13.740  28.437   2.094
23856W        W95439  42.356  18.868   3.304
23857W        W95440   1.269  20.773   3.215
23858W        W95441  37.416  16.609  13.042
23859W        W95442  34.535  34.316  11.395
23860W        W95443   1.458   2.169   1.104
23861W        W95444   1.149   0.730   3.419
23862W        W95445  29.065  23.029   2.163
23863W        W95446  27.885  31.625  12.517
23864W        W95447  42.458  38.929  13.029
23865W        W95448  42.330  44.482   2.398
23866W        W95449  13.566  29.858  11.504
23867W        W95450   5.727  38.767   4.105
23868W        W95451  26.683   1.858   2.405
23869W        W95452  26.512  11.677  12.513
23870W        W95453  23.288   5.425  13.302
23871W        W95454   4.794   0.521   2.261
23872W        W95455   9.213  39.970   2.130
23873W        W95456  12.615  25.162  11.166
23874W        W95457  28.929  24.783  12.740
23875W        W95458  27.040  23.056  13.509
23876W        W95459  11.860  42.688   0.309
23877W        W95460  25.188  40.339  12.926
23878W        W95461  10.095  13.276   1.157
23879W        W95462  17.872   6.691   4.571
23880W        W95463  41.699  41.984  14.823
23881W        W95464  34.780  25.997  10.761
23882W        W95465  29.641  31.508   2.709
23883W        W95466   8.537  35.421   1.704
23884W        W95467  42.327  14.083   0.182
23885W        W95468  17.763   5.797   1.687
23886W        W95469   2.101   3.043  10.164
23887W        W95470  41.978  21.621   0.244
23888W        W95471  30.993  38.584   3.283
23889W        W95472   3.849  22.049  12.534
23890W        W95473  17.175  27.573   4.547
23891W        W95474  37.161   6.946   1.322
23892W        W95475  18.600  44.781   1.196
23893W        W95476   6.460  39.123  14.475
23894W        W95477  25.630  37.543   3.526
23895W        W95478  41.155   8.205   2.338
23896W        W95479  43.735  44.443  14.918
23897W        W95480  39.843  26.452  13.297
23898W        W95481   2.929  19.656   0.898
23899W        W95482  18.293   5.622  14.736
23900W        W95483  31.146  20.672   1.395
23901W        W95484  44.813  27.999   4.051
23902W        W95485   0.180  13.647  11.108
23903W        W95486  22.585  18.954  12.518
23904W        W95487  25.130   7.332  12.831
23905W        W95488   3.337  39.341  11.062
23906W        W95489  40.856  44.361  14.241
23907W        W95490  24.305  25.322  13.466
23908W        W95491  27.214  40.442   0.813
23909W        W95492  18.215  18.947  14.873
23910W        W95493  16.743  36.150   2.945
23911W        W95494  34.137   0.737   3.313
23912W        W95495  11.168  32.966   1.296
23913W        W95496  24.926  43.274   3.486
23914W        W95497  19.654   7.945   4.613
23915W        W95498  25.918  33.400  13.052
23916W        W95499   7.138   0.363   4.134
23917W        W95500  12.461  32.431  12.359
23918W        W95501  31.046  22.746   5.009
23919W        W95502   9.188  17.723   3.641
23920W        W95503  17.192  34.587  11.856
23921W        W95504  15.849   7.735   0.030
23922W        W95505  11.872   7.375  11.239
23923W        W95506   6.331  24.538   4.162
23924W        W95507  28.888  38.454   0.843
23925W        W95508  20.570  42.061   1.863
23926W        W95509  29.883  10.155   1.398
23927W        W95510  31.009  33.388   3.278
23928W        W95511   9.952  18.125  11.167
23929W        W95512  13.382  23.439  13.835
23930W        W95513  33.730  10.713  13.915
23931W        W95514  32.519  12.204  14.324
23932W        W95515  17.571   4.899  13.364
23933W        W95516  28.233   7.342  11.660
23934W        W95517  41.853  28.723  14.282
23935W        W95518  10.931  39.002  12.868
23936W        W95519  37.544  25.513  10.752
23937W        W95520  34.334  12.503  12.871
23938W        W95521  20.040  10.659  11.977
23939W        W95522  11.880  37.248   3.290
23940W        W95523  13.527  42.735   2.286
23941W        W95524   8.798  37.520   0.801
23942W        W95525  24.112   6.498  11.566
23943W        W95526  17.829  36.525  14.281
23944W        W95527  44.304  19.247  12.515
23945W        W95528   4.422   3.347  10.758
23946W        W95529  43.031  39.472   0.467
23947W        W95530  40.493  21.296   2.235
23948W        W95531  37.183  20.646  13.414
23949W        W95532  23.381  18.821  13.880
23950W        W95533  11.007  10.102   2.026
23951W        W95534  10.376   0.305  13.608
23952W        W95535  41.741   1.060   3.710
23953W        W95536  30.140  14.652  10.716
23954W        W95537  17.872   5.327  13.389
23955W        W95538  37.031  43.280   1.645
23956W        W95539  13.953   7.618   0.403
23957W        W95540  25.721  39.580  14.873
23958W        W95541   4.004   9.996  12.954
23959W        W95542  33.610  18.655  11.606
23960W        W95543  20.938  28.653  14.915
23961W        W95544   9.138   5.308  12.036
23962W        W95545  24.127   4.392  14.709
23963W        W95546   7.619  25.220  11.913
23964W        W95547   5.238  44.469  13.425
23965W        W95548  28.878  16.784  12.102
23966W        W95549  26.980  22.241   4.858
23967W        W95550  26.714  34.945   3.141
23968W        W95551  29.348   5.939   2.928
23969W        W95552  18.216  40.980   4.880
23970W        W95553  40.400  21.259   3.432
23971W        W95554  35.333  42.829  11.672
23972W        W95555  31.172  29.578  10.209
23973W        W95556  17.673  10.422   4.116
23974W        W95557  40.742  12.993  11.162
23975W        W95558  37.319   7.991   5.173
23976W        W95559  27.845   5.638  14.019
23977W        W95560  33.524  25.696  10.266
23978W        W95561  32.194   7.368   2.626
23979W        W95562  44.035  28.473  10.668
23980W        W95563  28.054  31.346   3.216
23981W        W95564  10.216  39.155   4.957
23982W        W95565  31.993  31.588  14.994
23983W        W95566  36.337  28.728  13.166
23984W        W95567  11.786  15.785  12.053
23985W        W95568  21.464  20.812  11.089
23986W        W95569   3.535   2.134  10.604
23987W        W95570  25.562   3.372   0.188
23988W        W95571  30.678  34.131   2.869
23989W        W95572  27.772  14.417   4.307
23990W        W95573  16.364  35.576  11.595
23991W        W95574  35.522  38.294  12.625
23992W        W95575  29.249  43.773   3.503
23993W        W95576  13.291  15.735  14.938
23994W        W95577   4.767  35.439  11.619
23995W        W95578  43.860  23.634   0.804
23996W        W95579   9.393   0.408  12.373
23997W        W95580  19.035  24.089   2.825
23998W        W95581  35.854  36.581  12.994
23999W        W95582  25.856  43.377  11.496
24000W        W95583  38.737  15.541   0.360
24001W        W95584  23.895  13.850  12.601
24002W        W95585  41.826  20.548  12.474
24003W        W95586  25.708  18.848   4.351
24004W        W95587  38.289  27.198  11.610
24005W        W95588  29.389  39.685  11.750
24006W        W95589  23.741  32.171   2.658
24007W        W95590  41.715  39.442   5.085
24008W        W95591   4.256  24.038   4.439
24009W        W95592  33.927  35.341  13.954
24010W        W95593  44.515  41.834  11.240
24011W        W95594  29.142  18.211  10.874
24012W        W95595  20.838   0.957  12.953
24013W        W95596  21.850   5.136  11.557
24014W        W95597  32.851  12.633  11.346
24015W        W95598  37.959  44.533   1.709
24016W        W95599  14.806  22.508   2.701
24017W        W95600  41.110  27.944  11.188
24018W        W95601   9.453   6.632   2.224
24019W        W95602  34.829  34.622   1.003
24020W        W95603  32.983   2.936   0.242
24021W        W95604  42.561  26.512   2.027
24022W        W95605   7.899  24.043  14.343
24023W        W95606   7.578  35.617   0.325
24024W        W95607  14.210  18.799   3.119
24025W        W95608  39.449   3.926  11.107
24026W        W95609  28.176  18.787   3.758
24027W        W95610  26.605  31.933   0.528
24028W        W95611  20.117  13.782   3.899
24029W        W95612  26.107  34.116   1.906
24030W        W95613   7.226  38.815   1.325
24031W        W95614  14.675   3.701   5.030
24032W        W95615  37.943   4.240  13.406
24033W        W95616   3.505  24.514   2.654
24034W        W95617   1.294  33.559  12.986
24035W        W95618  36.263   2.339   0.344
24036W        W95619   7.799  44.987  14.923
24037W        W95620  30.066  44.779  14.866
24038W        W95621  39.432  11.428  11.149
24039W        W95622  17.506   3.953   2.382
24040W        W95623   9.584  12.263   2.382
24041W        W95624   6.634   5.978  13.050
24042W        W95625   4.322  32.149   2.216
24043W        W95626  21.638  38.563  13.050
24044W        W95627  17.217  39.926  12.433
24045W        W95628  33.548  11.756   1.737
24046W        W95629  23.543  35.936  11.584
24047W        W95630  15.285  27.059  14.699
24048W        W95631  18.197  41.601  14.290
24049W        W95632   3.242   4.146  11.881
24050W        W95633   4.992  27.121  14.728
24051W        W95634  43.969  13.320  13.946
24052W        W95635  41.977  27.215  11.596
24053W        W95636  11.846  36.388   3.585
24054W        W95637  43.077   6.694  10.974
24055W        W95638   6.809  33.171   3.267
24056W        W95639  28.574  17.836  13.078
24057W        W95640  24.261  12.663  14.504
24058W        W95641   2.368   4.948  13.982
24059W        W95642   7.396  17.373   4.856
24060W        W95643   0.387  37.285   4.865
24061W        W95644   0.322  37.022  12.426
24062W        W95645  28.457  42.119   4.512
24063W        W95646  18.730  36.671   3.576
24064W        W95647  20.117  36.341  13.832
24065W        W95648  31.978  32.340  13.511
24066W        W95649  11.802  20.195  10.002
24067W        W95650  13.508  26.420   2.188
24068W        W95651  40.427  27.742   4.646
24069W        W95652  44.609  20.242   5.113
24070W        W95653  13.956  42.554   1.489
24071W        W95654  42.763  25.138  14.256
24072W        W95655   8.871  19.483   4.298
24073W        W95656   0.969   9.349   0.969
24074W        W95657  37.646  36.433  14.282
24075W        W95658  32.434   7.820   2.746
24076W        W95659  10.210  14.091   4.625
24077W        W95660  29.492  30.201   0.489
24078W        W95661  20.104  18.897   4.330
24079W        W95662  44.373  14.630   5.143
24080W        W95663   9.128   6.015  12.706
24081W        W95664  25.126   5.307   2.211
24082W        W95665  16.583  32.445  11.491
24083W        W95666  25.783  10.982  12.940
24084W        W95667   5.233   2.451   2.809
24085W        W95668   4.163  37.779   3.200
24086W        W95669  37.322  28.479  13.434
24087W        W95670  44.001  34.954  11.966
24088W        W95671  16.509  37.150   2.162
24089W        W95672   5.229   0.371  14.912
24090W        W95673   9.376  37.418   3.751
24091W        W95674  41.481  14.805   1.929
24092W        W95675   9.377  19.577   4.537
24093W        W95676  18.708  16.538  13.554
24094W        W95677  32.031  41.900  13.315
24095W        W95678  27.747  31.825   0.900
24096W        W95679   4.719  12.740  12.313
24097W        W95680  11.708  17.302  11.964
24098W        W95681  31.022   7.097  12.534
24099W        W95682  22.427  33.636   4.529
24100W        W95683   7.942  21.157  11.247
24101W        W95684  33.830  24.730  10.651
24102W        W95685   0.790  14.200  12.541
24103W        W95686   5.278  40.800  10.436
24104W        W95687  32.643   0.699  13.939
24105W        W95688   3.201   5.149  13.577
24106W        W95689  12.767  10.156  12.782
24107W        W95690  12.793  35.009  14.938
24108W        W95691  38.400  18.828   4.200
24109W        W95692   8.901  22.066   1.606
24110W        W95693  44.965   1.227  11.971
24111W        W95694  22.648  24.892   4.102
24112W        W95695   5.326  14.159   0.780
24113W        W95696  15.085  17.991  10.478
24114W        W95697  40.930  44.918  14.920
24115W        W95698   3.510  32.438  12.863
24116W        W95699   0.452  14.007  13.975
24117W        W95700  35.562  17.591   0.727
24118W        W95701   1.408  14.481   3.698
24119W        W95702  42.756   6.375   1.231
24120W        W95703  44.988   2.213   2.268
24121W        W95704   2.668  32.673  13.837
24122W        W95705  38.280   6.868  12.882
24123W        W95706  16.870  31.179  13.478
24124W        W95707  22.292  31.068  13.541
24125W        W95708   5.667  35.330  13.353
24126W        W95709  42.957  36.662   0.896
24127W        W95710  11.676   6.703   0.852
24128W        W95711  28.949   3.518  14.691
24129W        W95712  20.486  35.369   0.846
24130W        W95713  22.277   5.937   9.976
24131W        W95714  20.974  13.308  13.930
24132W        W95715  12.548  21.680  14.879
24133W        W95716   9.672  27.542   3.154
24134W        W95717  37.132  41.708   0.675
24135W        W95718  40.323  18.748  13.438
24136W        W95719  38.324  39.714   3.815
24137W        W95720  37.508  44.980  10.432
24138W        W95721  19.069  42.003   4.331
24139W        W95722  43.033  36.416  12.010
24140W        W95723  40.960  15.167  12.363
24141W        W95724  40.389   2.317   3.682
24142W        W95725   8.727  12.660   0.407
24143W        W95726  33.294  37.553  14.526
24144W        W95727  35.966  20.975  12.092
24145W        W95728  32.963  42.891   1.413
24146W        W95729   4.480  17.336  11.939
24147W        W95730  24.604  44.378  14.041
24148W        W95731  16.154  25.072   4.749
24149W        W95732  28.467  12.337   5.044
24150W        W95733   1.976  27.112   2.477
24151W        W95734  28.100  10.496  11.545
24152W        W95735   1.015  22.303  11.959
24153W        W95736  21.731  19.135   2.776
24154W        W95737  21.129  25.880  12.584
24155W        W95738   4.149  36.676  12.020
24156W        W95739   0.305  18.090  14.008
24157W        W95740   6.300  41.617   1.838
24158W        W95741   5.662   6.909   1.376
24159W        W95742  38.455   1.987  14.899
24160W        W95743  19.584  32.080   0.455
24161W        W95744  19.016  33.384  14.468
24162W        W95745  31.976   7.826   1.167
24163W        W95746  18.949  27.139   4.811
24164W        W95747  21.972  37.601  12.530
24165W        W95748  17.392   2.427  14.102
24166W        W95749  44.301  27.076  14.519
24167W        W95750   3.931  42.116  12.064
24168W        W95751  36.155  16.258  11.588
24169W        W95752  25.193  19.098   1.064
24170W        W95753  38.626  21.762  11.311
24171W        W95754   6.206  25.887  12.149
24172W        W95755  29.479  41.811  14.232
24173W        W95756  38.356  17.056   0.495
24174W        W95757  27.743  32.452   1.654
24175W        W95758  41.404  15.744  12.986
24176W        W95759  43.280  37.507  13.938
24177W        W95760  15.669  32.164  14.458
24178W        W95761  34.896  11.364   3.234
24179W        W95762  39.916  18.114  14.548
24180W        W95763  38.359  26.682   3.738
24181W        W95764   8.349  39.425  13.540
24182W        W95765  15.376  17.210   2.554
24183W        W95766   1.495   7.918   1.797
24184W        W95767  43.702  32.354  12.045
24185W        W95768  14.614  37.050  13.965
24186W        W95769  41.388  17.684  13.451
24187W        W95770  25.750   8.703   2.840
24188W        W95771  23.750  25.295   2.653
24189W        W95772  23.366   6.048  11.090
24190W        W95773  27.676  20.758   4.428
24191W        W95774  16.963  21.099  13.848
24192W        W95775   7.318  17.029   0.433
24193W        W95776  30.425  23.235   2.400
24194W        W95777  32.171  20.776   1.328
24195W        W95778   3.864  39.301  13.795
24196W        W95779  42.995  38.952  12.888
24197W        W95780   0.891  30.957  10.823
24198W        W95781  13.300  13.366   3.724
24199W        W95782  28.643   5.648   2.307
24200W        W95783  26.554  43.945   2.008
24201W        W95784  36.542  41.506  11.170
24202W        W95785  21.055  41.464  10.514
24203W        W95786   1.715  44.189   0.151
24204W        W95787  38.432  18.674  10.640
24205W        W95788   8.224  39.901  13.379
24206W        W95789   8.681  10.970   1.784
24207W        W95790   5.412  37.889  11.934
24208W        W95791   2.889   4.353  14.826
24209W        W95792  38.644  15.187   4.197
24210W        W95793   4.732   0.987  12.083
24211W        W95794   4.489  12.276  14.536
24212W        W95795  17.091  23.412  11.030
24213W        W95796   1.903  15.121  11.598
24214W        W95797  32.177  15.110  10.348
24215W        W95798  42.564   8.630   1.344
24216W        W95799  11.232  28.134   0.453
24217W        W95800  43.949  43.968  12.670
24218W        W95801  20.523   6.122  13.262
24219W        W95802  26.522  15.555  11.469
24220W        W95803  27.082  20.595  11.463
24221W        W95804  11.132  31.758   0.790
24222W        W95805   6.934  10.797   3.585
24223W        W95806  27.666  40.342  13.851
24224W        W95807  22.962  33.942  13.374
24225W        W95808   7.624  31.481  13.398
24226W        W95809  40.987  28.142   1.108
24227W        W95810  24.118  33.057  11.220
24228W        W95811   2.767  16.207  11.435
24229W        W95812   0.988   5.502  12.821
24230W        W95813  34.066  24.583  11.964
24231W        W95814  18.311  16.081   1.268
24232W        W95815  36.747  42.968   5.063
24233W        W95816  22.037  28.164   2.264
24234W        W95817  23.942   9.118   4.246
24235W        W95818  30.915  33.811  13.158
24236W        W95819  20.527  41.574  11.635
24237W        W95820  43.404  33.148  12.870
24238W        W95821  17.729  39.069  14.838
24239W        W95822  21.771  25.189   0.387
24240W        W95823  13.796  34.779  11.839
24241W        W95824  39.334  41.641  10.776
24242W        W95825  12.275  37.638   2.465
24243W        W95826  44.490  21.553   0.244
24244W        W95827  42.387   6.801  13.312
24245W        W95828   5.465   3.271   4.266
24246W        W95829  44.381  33.974   1.270
24247W        W95830  33.685   7.345   1.290
24248W        W95831  31.593  16.202  14.283
24249W        W95832  16.711  15.767  10.013
24250W        W95833  28.144  38.461   0.435
24251W        W95834  16.065  43.003  12.566
24252W        W95835   7.763  36.792  14.829
24253W        W95836  21.643  30.592   2.347
24254W        W95837  27.284  41.969   3.371
24255W        W95838  17.721   7.107  13.094
24256W        W95839   3.684   5.994  14.513
24257W        W95840  18.901  39.615  13.442
24258W        W95841  34.029  16.815   4.420
24259W        W95842  24.619  44.870   4.540
24260W        W95843   7.565  29.600  13.902
24261W        W95844  16.805  31.497   3.216
24262W        W95845   5.826  22.361  10.763
24263W        W95846   7.385   9.781  14.793
24264W        W95847  35.938  18.105   4.641
24265W        W95848  37.804  28.191  10.749
24266W        W95849   1.098  24.134   5.269
24267W        W95850  30.445   6.796   0.437
24268W        W95851  10.166  27.488  13.980
24269W        W95852  21.635  36.142  12.904
24270W        W95853  38.813  28.157   1.881
24271W        W95854   7.633  41.146   1.243
24272W        W95855  22.993  11.039  11.111
24273W        W95856  19.262  31.084  14.336
24274W        W95857  35.830  29.129  11.411
24275W        W95858   3.478  10.308   3.652
24276W        W95859  19.966   1.421   4.078
24277W        W95860   2.839  12.313   5.020
24278W        W95861  12.210  12.938  10.936
24279W        W95862  40.580  18.004   0.875
24280W        W95863  26.907  33.227  14.993
24281W        W95864  35.954  21.801  10.582
24282W        W95865  13.060   4.429   4.192
24283W        W95866  19.314  31.477   1.690
24284W        W95867  10.268  39.235  11.204
24285W        W95868  18.909  18.232   0.149
24286W        W95869   1.058  32.442   2.335
24287W        W95870  34.094  21.848   2.348
24288W        W95871   9.628  11.304   2.410
24289W        W95872  17.895  12.225  14.549
24290W        W95873  20.174  30.526  14.467
24291W        W95874  26.697  43.476   3.192
24292W        W95875  26.677   2.710  14.545
24293W        W95876  42.937  33.900   5.062
24294W        W95877  15.137  30.934  13.462
24295W        W95878  14.337  32.520  10.694
24296W        W95879  29.651  17.824  14.269
24297W        W95880  22.779  29.363   3.152
24298W        W95881  39.471  39.526  12.095
24299W        W95882  24.370  11.193   2.687
24300W        W95883  30.366  14.470  11.160
24301W        W95884  19.086  22.608   2.396
24302W        W95885  43.993   3.452  13.833
24303W        W95886  31.464  41.760  11.654
24304W        W95887  10.005   2.448  10.569
24305W        W95888  44.148  15.563  12.052
24306W        W95889  23.664   0.659  12.045
24307W        W95890  21.708   2.430  10.895
24308W        W95891  37.739   7.275   4.123
24309W        W95892  31.656   5.377  11.587
24310W        W95893  24.964  42.516  11.099
24311W        W95894  31.300  37.650  11.211
24312W        W95895  28.056  23.663   1.997
24313W        W95896  26.833   3.277   3.870
24314W        W95897  33.307   3.774   0.300
24315W        W95898  11.278  11.382   4.605
24316W        W95899  23.066   5.953   3.239
24317W        W95900  42.721  13.646  13.984
24318W        W95901  26.175   7.825   2.315
24319W        W95902  29.360   7.276   3.120
24320W        W95903  40.888  20.253   4.706
24321W        W95904   1.329  15.353  14.379
24322W        W95905  27.679  21.477   0.756
24323W        W95906  10.307   3.906   1.454
24324W        W95907  44.473  33.028  14.995
24325W        W95908  18.627   1.346  14.991
24326W        W95909  27.142   8.654   3.102
24327W        W95910  10.843  27.852   0.254
24328W        W95911  20.352   9.104   9.757
24329W        W95912  33.571  32.670  12.570
24330W        W95913  19.590   4.952   1.333
24331W        W95914  44.363  17.525  11.156
24332W        W95915  31.641  41.028   2.013
24333W        W95916  13.818  15.821   2.960
24334W        W95917  16.171   6.362  14.734
24335W        W95918  17.325  31.067  14.409
24336W        W95919  21.726  24.712   4.385
24337W        W95920  25.142  24.680   0.361
24338W        W95921  24.468   9.673   1.195
24339W        W95922   3.349  41.297  13.368
24340W        W95923   8.399   7.718   3.152
24341W        W95924  42.038  41.834   0.904
24342W        W95925  23.500   2.729  13.100
24343W        W95926  12.326  23.256  10.674
24344W        W95927  33.870  39.917   4.856
24345W        W95928   6.863  24.468   1.022
24346W        W95929  12.028   2.942  11.078
24347W        W95930  32.383  29.476   0.141
24348W        W95931  37.879  43.822   2.763
24349W        W95932  19.512  24.251  11.078
24350W        W95933   6.117  21.276   4.538
24351W        W95934  40.404  19.096  10.485
24352W        W95935  23.605  17.186  12.621
24353W        W95936  30.996  36.567  13.770
24354W        W95937  22.672   0.228   1.844
24355W        W95938  10.256  16.695  14.890
24356W        W95939  19.993   9.353  14.014
24357W        W95940  12.093  37.781  14.973
24358W        W95941  14.052  27.557   2.279
24359W        W95942   8.473  19.757   4.544
24360W        W95943   1.443   1.567   0.373
24361W        W95944  25.879   6.718   0.700
24362W        W95945  32.401  35.830  12.469
24363W        W95946   2.300   5.348   2.218
24364W        W95947  32.537   0.751   3.271
24365W        W95948  32.146  13.376   1.068
24366W        W95949  28.608  18.751  13.415
24367W        W95950  44.195  44.826   1.275
24368W        W95951  38.322  42.845  14.615
24369W        W95952  12.806   8.304   3.466
24370W        W95953  19.749  25.785   1.012
24371W        W95954  40.043  15.249  12.035
24372W        W95955  13.261  13.652   0.460
24373W        W95956  10.970  13.886   0.030
24374W        W95957  37.905  27.196  12.472
24375W        W95958  31.076  34.382  10.580
24376W        W95959   2.457  33.973   3.368
24377W        W95960  40.556   0.464  13.846
24378W        W95961  11.727  38.944  11.656
24379W        W95962  15.232  36.989  10.434
24380W        W95963  16.738  43.128   0.946
24381W        W95964  18.213  28.432   3.729
24382W        W95965   1.470  21.938  12.449
24383W        W95966  36.566   5.412  14.675
24384W        W95967  34.340   9.165   0.950
24385W        W95968   9.119   8.701  14.137
24386W        W95969  12.308  20.812   0.365
24387W        W95970  29.015  17.554  11.005
24388W        W95971  37.047   8.933  13.924
24389W        W95972  32.079  42.915  14.149
24390W        W95973  15.633  29.733   1.236
24391W        W95974   3.773  32.103   3.650
24392W        W95975   4.452  23.844  11.588
24393W        W95976  28.087   3.915  14.428
24394W        W95977  35.109  41.280   2.343
24395W        W95978  25.602   8.511  14.681
24396W        W95979  38.790  27.975  11.932
24397W        W95980   6.511  11.568   4.863
24398W        W95981  17.088   1.784  10.348
24399W        W95982  23.728  34.693  14.410
24400W        W95983  37.940  25.433  12.845
24401W        W95984  36.440  44.809  10.618
24402W        W95985  13.068  26.718   2.160
24403W        W95986  33.699  16.126  13.584
24404W        W95987  32.424  42.267  14.341
24405W        W95988  17.811  18.393  11.098
24406W        W95989  37.965  21.450  14.405
24407W        W95990   4.941  41.313   1.937
24408W        W95991  11.057  34.876  14.493
24409W        W95992  19.120  16.649   4.422
24410W        W95993  35.036  25.014  14.418
24411W        W95994  24.688   0.797  11.733
24412W        W95995  36.092   0.814   1.529
24413W        W95996  35.489  23.128  13.388
24414W        W95997  41.822  10.355  10.599
24415W        W95998   2.209  19.635  14.515
24416W        W95999  34.593  42.409   0.762
24417W        W96000   0.911   1.506  13.015
24418W        W96001  43.241  31.556  12.990
24419W        W96002  16.792  41.096  11.480
24420W        W96003  41.174   1.532  12.078
24421W        W96004  36.621   3.491   0.869
24422W        W96005  19.029  43.920  12.936
24423W        W96006   6.259  13.443   2.329
24424W        W96007  10.858  44.322  11.082
24425W        W96008  21.674  30.396   5.345
24426W        W96009  25.879  21.193   4.615
24427W        W96010   3.633  12.615   1.397
24428W        W96011  17.418  34.449   2.892
24429W        W96012   0.365  18.223  12.442
24430W        W96013  35.076  25.344   4.917
24431W        W96014  33.077  19.496   0.745
24432W        W96015   8.589  39.018   1.700
24433W        W96016  38.472   7.799   2.296
24434W        W96017  33.892  20.160   3.766
24435W        W96018  33.710  40.045  13.867
24436W        W96019  44.060  38.981  11.136
24437W        W96020  32.949  43.031  10.667
24438W        W96021  29.247   3.292   4.462
24439W        W96022  31.032  32.906   3.446
24440W        W96023  14.939   6.681  12.349
24441W        W96024   2.758  17.173   0.941
24442W        W96025  20.541  19.667  10.211
24443W        W96026  26.555  24.717   0.422
24444W        W96027  42.691  29.914   4.545
24445W        W96028  43.020  38.560  14.731
24446W        W96029  15.187  19.886  11.978
24447W        W96030  17.529  31.832   3.924
24448W        W96031  40.895  41.405   0.482
24449W        W96032  14.738  25.323  12.641
24450W        W96033  17.101  27.793   4.096
24451W        W96034  32.708   4.640   0.758
24452W        W96035  10.378  22.625   3.839
24453W        W96036   1.880   5.857   0.152
24454W        W96037  37.958  33.124   3.593
24455W        W96038  36.381  38.896   1.622
24456W        W96039  39.410  39.131   0.471
24457W        W96040   8.184  15.086  12.912
24458W        W96041  15.858  31.376   0.923
24459W        W96042  26.560  28.170  10.748
24460W        W96043  15.676  19.562   0.004
24461W        W96044   0.695  24.023   0.751
24462W        W96045  14.045  18.044   3.224
24463W        W96046  13.211  25.555   4.116
24464W        W96047   5.744  14.053  13.930
24465W        W96048  38.282  25.058   2.642
24466W        W96049   2.494  33.561  14.329
24467W        W96050  14.739  14.948  11.875
24468W        W96051   3.617  35.354   1.652
24469W        W96052   2.691   6.342  13.801
24470W        W96053  28.181   0.316  14.884
24471W        W96054   2.856  20.375   2.883
24472W        W96055  11.197  30.181   1.329
24473W        W96056   7.465  13.254   0.354
24474W        W96057  34.088   7.685   1.329
24475W        W96058  23.706  18.652  13.487
24476W        W96059   4.465  38.638   1.426
24477W        W96060  13.495  21.543  14.801
24478W        W96061  29.081  34.630  11.923
24479W        W96062  11.161   4.569   4.327
24480W        W96063   8.438  17.174  12.438
24481W        W96064   7.755  10.638   3.609
24482W        W96065  18.252  26.561  13.672
24483W        W96066  13.047  28.281   0.207
24484W        W96067  40.775  36.640  10.749
24485W        W96068  15.834  44.910   3.779
24486W        W96069  16.648  16.062   3.063
24487W        W96070   3.839   7.440   4.131
24488W        W96071  14.763   7.817  14.041
24489W        W96072  19.963  17.319  10.184
24490W        W96073  14.274  35.819  10.727
24491W        W96074  34.834  40.601  14.953
24492W        W96075  35.605  26.008   0.328
24493W        W96076  23.992  30.802  12.882
24494W        W96077  40.774  41.981  14.152
24495W        W96078  14.177  12.330  10.548
24496W        W96079  16.242  39.929   4.458
24497W        W96080  16.254  38.735  11.568
24498W        W96081  23.077  29.034   4.583
24499W        W96082  17.291  33.372  13.537
24500W        W96083  44.979  19.304   3.163
24501W        W96084  25.565  24.692   4.149
24502W        W96085  27.473  34.879  11.412
24503W        W96086  19.128  28.928   4.696
24504W        W96087  20.639  36.402   0.778
24505W        W96088   0.904  27.048  12.678
24506W        W96089   3.223   3.348   1.426
24507W        W96090  21.808   5.040  10.045
24508W        W96091  22.884  26.310   2.905
24509W        W96092   2.383  12.618  10.327
24510W        W96093   7.969  30.586   2.704
24511W        W96094   3.516   0.772  13.340
24512W        W96095   2.830   0.481  13.510
24513W        W96096  28.488  43.932   3.693
24514W        W96097  32.890  35.462   2.252
24515W        W96098  24.692  28.689  13.969
24516W        W96099  44.788  10.934  14.042
24517W        W96100  41.345  42.914   0.979
24518W        W96101  39.055  28.130   2.329
24519W        W96102  34.442  43.971  11.132
24520W        W96103  20.126  38.947  13.608
24521W        W96104  12.783  35.101  14.422
24522W        W96105   0.236  27.925  13.545
24523W        W96106   5.349  33.486   9.957
24524W        W96107  14.245  15.601   4.374
24525W        W96108  39.062  10.188   1.187
24526W        W96109  22.203  20.694   2.238
24527W        W96110  14.701  41.349  11.712
24528W        W96111  30.936  36.898  14.707
24529W        W96112  34.420  44.522  11.102
24530W        W96113  21.451   9.187  12.214
24531W        W96114  36.624  15.031  12.980
24532W        W96115  37.367  19.539   2.318
24533W        W96116   8.285  36.436  12.583
24534W        W96117  27.591  33.152   4.785
24535W        W96118  12.348  27.332   2.138
24536W        W96119   4.897  22.226   1.843
24537W        W96120  42.152  27.963   0.731
24538W        W96121  34.810  35.496  12.980
24539W        W96122  33.872  29.392   3.324
24540W        W96123  31.596   4.236  12.605
24541W        W96124   0.901  44.386  11.053
24542W        W96125  43.871  30.675  14.914
24543W        W96126  20.263   8.189   0.688
24544W        W96127   4.284  20.783   5.012
24545W        W96128  11.149  39.400   2.435
24546W        W96129  11.724  32.841  14.837
24547W        W96130   7.291  27.319   3.674
24548W        W96131  19.378  18.046  12.370
24549W        W96132  37.128  44.308  11.026
24550W        W96133   5.800  18.668   0.474
24551W        W96134  27.486  35.667   3.723
24552W        W96135  13.993   8.248  13.558
24553W        W96136  30.862  41.752   2.262
24554W        W96137  33.951  26.683  13.960
24555W        W96138  18.418  26.016   1.780
24556W        W96139  11.707  13.375  11.933
24557W        W96140  21.300  14.436  13.358
24558W        W96141   5.878  41.929   1.773
24559W        W96142  11.235  28.461   3.226
24560W        W96143   9.346  43.736   3.765
24561W        W96144  25.711  15.253  11.047
24562W        W96145  37.583  28.410  14.849
24563W        W96146  36.832   4.525  14.843
24564W        W96147   2.325  24.015   2.217
24565W        W96148  15.652   9.423   0.214
24566W        W96149   0.838  12.756  11.252
24567W        W96150   0.417  15.942  11.479
24568W        W96151  26.247  35.627  14.843
24569W        W96152   6.642   3.808   2.297
24570W        W96153  24.084  36.467   3.154
24571W        W96154  22.572   1.795   0.376
24572W        W96155  34.079  32.907  11.243
24573W        W96156  29.067   7.350  13.337
24574W        W96157  26.574   7.226   0.279
24575W        W96158   5.988   8.795   0.270
24576W        W96159  25.127   0.747  10.737
24577W        W96160  44.316  35.946  13.379
24578W        W96161  23.149  30.666  12.516
24579W        W96162  19.148  15.890  13.347
24580W        W96163  19.297  10.831  10.959
24581W        W96164  25.595   3.808   1.832
24582W        W96165  38.953   8.786   4.409
24583W        W96166  31.787  10.709   0.730
24584W        W96167  44.991  21.173   1.279
24585W        W96168   5.155  30.884   2.853
24586W        W96169  17.667  38.012  14.420
24587W        W96170   5.342  23.810  11.643
24588W        W96171  17.075  18.589   4.094
24589W        W96172   5.310  21.098   2.394
24590W        W96173  36.299  27.077   4.119
24591W        W96174  39.542  40.326  11.587
24592W        W96175  40.377  24.119  14.799
24593W        W96176  19.689  42.162   4.634
24594W        W96177  35.926  39.582   0.186
24595W        W96178  34.859  10.058   0.661
24596W        W96179   8.897   0.631  11.616
24597W        W96180  35.003  40.907   1.835
24598W        W96181  24.248  28.714   1.686
24599W        W96182   8.411  23.119  14.537
24600W        W96183  37.497  26.436   4.152
24601W        W96184   2.571   2.145   2.356
24602W        W96185   3.831  34.005   1.527
24603W        W96186  32.177   0.358  13.511
24604W        W96187   0.524   3.443   4.193
24605W        W96188  15.283  44.010  13.756
24606W        W96189  20.977  18.568   2.685
24607W        W96190   3.047  34.490  13.897
24608W        W96191  28.051  19.010   3.274
24609W        W96192  38.850  12.183   0.225
24610W        W96193  34.935  43.120  13.436
24611W        W96194   6.248  36.810   2.653
24612W        W96195   1.489  26.599   1.924
24613W        W96196  23.652  36.075   2.199
24614W        W96197   9.802  11.279  14.218
24615W        W96198  18.269  33.677   3.269
24616W        W96199  28.555  29.206  13.764
24617W        W96200   0.678  10.778   1.536
24618W        W96201  24.329  41.708  13.908
24619W        W96202  10.836  41.391  11.076
24620W        W96203  12.826  35.568   1.687
24621W        W96204  20.037  11.519  12.045
24622W        W96205   0.035  10.285  12.898
24623W        W96206  11.048   5.291  14.669
24624W        W96207   6.364  37.430   5.217
24625W        W96208  25.148  13.749  12.646
24626W        W96209  21.231  38.456  10.544
24627W        W96210   0.921  20.739   0.490
24628W        W96211  18.032  12.436   0.410
24629W        W96212  27.027  25.441   0.732
24630W        W96213  37.339   6.851  14.859
24631W        W96214   1.140  17.249  11.733
24632W        W96215  39.423  41.386  13.127
24633W        W96216  17.196  41.233  13.963
24634W        W96217   6.673  28.689  13.388
24635W        W96218  38.872  13.386   4.450
24636W        W96219  17.193  37.647   1.560
24637W        W96220  22.727  41.930  11.597
24638W        W96221  11.137   9.599  11.623
24639W        W96222  37.101  43.854   4.831
24640W        W96223  43.176  14.932  13.553
24641W        W96224  21.227   5.150   1.401
24642W        W96225  10.617  10.906  13.363
24643W        W96226   5.710  12.765  11.654
24644W        W96227  36.068   1.158  12.013
24645W        W96228   4.288  13.103  13.482
24646W        W96229   8.896   9.179   0.479
24647W        W96230  11.673  18.425  10.170
24648W        W96231  34.006  29.218  14.364
24649W        W96232  18.325   0.703   3.649
24650W        W96233  31.648  39.236   0.966
24651W        W96234  35.831  29.927   1.957
24652W        W96235  25.592  28.514  12.018
24653W        W96236  30.905  39.082   3.242
24654W        W96237  15.364   7.673  14.803
24655W        W96238  17.419  19.144   1.443
24656W        W96239  10.772   4.633  12.909
24657W        W96240  29.898  37.279   0.705
24658W        W96241   8.831   4.485   1.495
24659W        W96242   6.242  10.862   3.353
24660W        W96243  28.627  39.386   3.270
24661W        W96244  21.147  10.094  11.708
24662W        W96245   2.053  26.265   3.217
24663W        W96246  30.535  35.516   3.206
24664W        W96247  21.053  17.795   4.589
24665W        W96248  13.572  43.149   4.122
24666W        W96249  26.299  35.278  13.382
24667W        W96250  29.427   9.877   2.143
24668W        W96251  41.793  20.081   1.888
24669W        W96252   3.739  39.218  14.662
24670W        W96253  25.951  22.809  11.982
24671W        W96254  24.947  40.866  13.458
24672W        W96255   0.077  26.658   0.571
24673W        W96256  10.133  40.328   2.691
24674W        W96257   6.319   8.745  13.633
24675W        W96258  36.122  34.878   4.094
24676W        W96259   6.703  24.594   0.282
24677W        W96260   0.819  36.943  14.263
24678W        W96261  29.908  13.031  12.060
24679W        W96262  21.594  22.914  11.602
24680W        W96263  20.523  30.514  13.868
24681W        W96264  44.288  19.674   0.491
24682W        W96265  33.644  24.946  14.632
24683W        W96266   7.004   9.459   2.917
24684W        W96267   0.462  40.292  12.470
24685W        W96268  14.825  18.724   0.351
24686W        W96269  42.569  44.457   3.780
24687W        W96270  21.648  26.636   4.127
24688W        W96271  24.140  33.234   1.366
24689W        W96272  17.955  28.608   4.153
24690W        W96273  39.796  25.793   3.262
24691W        W96274   0.318  17.989   1.146
24692W        W96275  25.212  14.801   3.318
24693W        W96276  37.927  30.961  10.564
24694W        W96277  10.071  41.537  10.698
24695W        W96278   6.309  19.842  10.818
24696W        W96279  26.769  10.151  12.441
24697W        W96280  33.436  41.448  13.307
24698W        W96281  23.076  13.648   3.708
24699W        W96282  30.489  29.370   4.218
24700W        W96283   8.130  41.582   2.240
24701W        W96284  33.692  19.563   1.769
24702W        W96285   5.248  11.633  14.592
24703W        W96286   1.759   6.115   4.195
24704W        W96287  15.035  28.431  13.424
24705W        W96288   3.689  40.421  10.471
24706W        W96289  37.892   6.169  12.453
24707W        W96290  32.375   6.305  12.033
24708W        W96291   7.796  13.267   2.809
24709W        W96292  41.018  35.279  13.402
24710W        W96293   6.765  20.509   2.565
24711W        W96294  39.609  35.048  11.171
24712W        W96295  23.986   7.963   1.858
24713W        W96296  29.556  17.824  14.768
24714W        W96297  17.824  34.656  13.778
24715W        W96298  14.028  18.766  14.918
24716W        W96299  30.158  20.091   2.631
24717W        W96300  30.672  37.365   1.334
24718W        W96301  16.156  40.898  14.402
24719W        W96302  27.402   6.772  14.441
24720W        W96303  27.826  31.637  10.295
24721W        W96304  10.427  23.210   2.443
24722W        W96305  22.449  38.461   1.724
24723W        W96306   0.143  17.127   2.322
24724W        W96307  14.236  34.393   3.747
24725W        W96308  22.692  21.559  14.521
24726W        W96309  20.655  41.054  12.541
24727W        W96310  30.503  10.814   2.909
24728W        W96311   1.289  17.757  11.977
24729W        W96312   4.807  11.193  12.183
24730W        W96313  13.686   3.258   1.283
24731W        W96314   7.373  22.492   4.320
24732W        W96315  42.866  42.100  12.265
24733W        W96316  37.670  35.647  11.969
24734W        W96317  11.297  42.838  13.822
24735W        W96318  31.164   0.439  13.910
24736W        W96319   7.458  26.992  10.434
24737W        W96320  41.868   7.990  13.424
24738W        W96321  11.927  41.074  14.732
24739W        W96322  13.838   8.124   1.722
24740W        W96323  18.562  21.309  14.888
24741W        W96324  25.666  14.705   2.131
24742W        W96325  17.232  28.661   0.192
24743W        W96326   3.165  28.408   2.274
24744W        W96327  25.696  11.336  12.061
24745W        W96328   7.521  38.384   1.362
24746W        W96329   1.580  41.292  13.860
24747W        W96330  17.003  24.244  12.340
24748W        W96331   7.384  11.423   2.712
24749W        W96332  42.534  29.060   4.156
24750W        W96333  17.435  35.240   1.906
24751W        W96334   4.401  19.119  11.783
24752W        W96335  31.264   1.456   3.268
24753W        W96336  34.038  11.655   1.911
24754W        W96337  26.583  27.947   4.546
24755W        W96338  22.208  38.081   0.933
24756W        W96339  27.679   9.225  10.476
24757W        W96340  44.233  32.107   3.411
24758W        W96341  26.453  34.831  11.425
24759W        W96342  18.764  35.824   1.723
24760W        W96343  23.101  21.382   3.274
24761W        W96344  42.389  19.575   1.279
24762W        W96345  30.676  25.197  14.818
24763W        W96346  43.579  43.708  13.961
24764W        W96347  42.487  33.576  14.303
24765W        W96348  38.575  10.181  13.525
24766W        W96349  17.807  41.320   3.585
24767W        W96350  17.359  36.540   2.209
24768W        W96351  10.884  44.369  10.548
24769W        W96352  35.447  32.855   3.682
24770W        W96353   9.833  22.239  13.398
24771W        W96354  36.510  21.771   1.407
24772W        W96355   9.297  12.334   0.005
24773W        W96356  37.241  24.340   5.032
24774W        W96357  30.121  23.008   2.792
24775W        W96358  29.527  22.881   1.906
24776W        W96359  24.700   2.749   0.830
24777W        W96360  42.916  37.013   4.573
24778W        W96361  44.893  28.646  10.484
24779W        W96362   6.276  19.314  10.691
24780W        W96363  26.125  35.392   2.813
24781W        W96364  14.324  30.690   3.003
24782W        W96365  16.284  32.183   2.066
24783W        W96366   2.246   3.477   2.384
24784W        W96367  35.204   5.112  12.910
24785W        W96368  22.976  15.638   3.591
24786W        W96369  12.922  29.546  14.854
24787W        W96370  20.016  39.956  12.995
24788W        W96371  30.948  44.058   2.261
24789W        W96372  43.255   4.757   1.327
24790W        W96373  33.410  18.268  14.811
24791W        W96374   3.783  41.247   1.521
24792W        W96375  24.790  24.745   0.967
24793W        W96376  37.823  37.111  11.125
24794W        W96377  30.134  34.060   4.227
24795W        W96378  17.084  34.058  13.110
24796W        W96379  36.673  17.511  14.935
24797W        W96380   1.709   8.933   0.276
24798W        W96381  12.547  42.580   2.664
24799W        W96382   9.679  27.755   4.629
24800W        W96383   3.363   9.358  10.660
24801W        W96384  30.038  35.192  13.906
24802W        W96385  26.111  35.489   4.216
24803W        W96386  19.192  36.283  12.257
24804W        W96387  31.844  39.524  10.882
24805W        W96388   5.343  35.283   3.833
24806W        W96389   8.332  14.569   0.426
24807W        W96390   4.839  44.468   0.435
24808W        W96391  20.610  37.045   3.069
24809W        W96392   0.824  33.490  13.193
24810W        W96393  10.575   9.157  12.780
24811W        W96394  31.544  28.404  11.585
24812W        W96395  18.199   6.711  12.249
24813W        W96396  22.553   3.342  10.335
24814W        W96397  12.827  14.510   0.187
24815W        W96398  29.255  14.283  13.446
24816W        W96399  31.572  23.277   4.722
24817W        W96400  20.337  20.579   1.729
24818W        W96401  30.856  29.466   2.369
24819W        W96402  11.652   3.962   3.211
24820W        W96403   7.302  35.915  14.103
24821W        W96404  28.626  11.907  12.415
24822W        W96405  27.188  24.064  11.072
24823W        W96406  21.792  30.902   2.761
24824W        W96407   3.361  18.031   3.729
24825W        W96408  39.575   7.737  14.895
24826W        W96409  44.921  39.292   0.492
24827W        W96410  27.633  34.842  12.417
24828W        W96411  27.047  37.871   3.063
24829W        W96412  24.568   2.540  11.510
24830W        W96413  37.985   6.318   1.122
24831W        W96414  19.585  13.531  12.847
24832W        W96415  33.533  31.401   2.320
24833W        W96416  39.351  37.687  10.719
24834W        W96417  40.371  29.611   4.453
24835W        W96418   3.133   4.333   4.431
24836W        W96419  37.841  35.579  13.982
24837W        W96420  25.583   4.736  10.646
24838W        W96421   9.215  28.607  10.619
24839W        W96422  31.615  29.488   1.415
24840W        W96423  29.485  34.209   2.293
24841W        W96424  22.152  40.945  14.089
24842W        W96425  24.096  33.675  13.943
24843W        W96426   6.421  10.087   2.299
24844W        W96427  17.374  41.026   3.781
24845W        W96428  11.622  21.648  10.816
24846W        W96429  35.271  21.523  11.757
24847W        W96430   5.728  37.543   4.197
24848W        W96431  14.912  25.138   0.466
24849W        W96432  34.521  35.560   3.664
24850W        W96433  24.694  21.727   2.192
24851W        W96434  36.298  39.814  13.016
24852W        W96435  30.720  12.802   1.795
24853W        W96436  24.763  11.367   2.371
24854W        W96437  24.612  44.330   1.995
24855W        W96438  38.099  30.687  13.477
24856W        W96439   0.765   3.888   2.218
24857W        W96440  12.131  25.622   3.543
24858W        W96441  24.946   6.799   0.847
24859W        W96442  40.862  41.504   0.981
24860W        W96443  17.208  12.781  14.541
24861W        W96444  36.658  38.608  13.579
24862W        W96445  37.268  25.737  11.172
24863W        W96446   4.419   9.712   1.909
24864W        W96447  21.012  31.648   5.070
24865W        W96448  40.803   6.891   0.436
24866W        W96449  30.422  15.132   2.807
24867W        W96450  29.312  29.907  12.147
24868W        W96451  12.511  19.170  11.101
24869W        W96452  42.696   9.637  14.562
24870W        W96453  17.242  23.648   0.119
24871W        W96454  25.478   1.495  13.339
24872W        W96455  33.123  21.546  10.714
24873W        W96456  10.708  32.591  13.962
24874W        W96457  12.791   8.728  14.487
24875W        W96458  28.083   7.296  14.190
24876W        W96459  40.473   7.230   1.931
24877W        W96460   4.373  22.639  14.704
24878W        W96461  14.373  34.557  12.888
24879W        W96462   5.361  41.769   1.861
24880W        W96463  18.351   0.365   0.759
24881W        W96464  34.965  24.669   3.584
24882W        W96465  36.069  26.628   4.167
24883W        W96466   0.772  21.448  14.002
24884W        W96467   6.393  26.060   3.394
24885W        W96468  40.741  12.625   2.602
24886W        W96469  12.007  11.210   3.753
24887W        W96470  10.359  29.469   0.470
24888W        W96471  31.819  17.174   2.612
24889W        W96472   5.804  44.212  12.013
24890W        W96473  33.951  36.109   3.243
24891W        W96474  20.097  23.461   0.526
24892W        W96475  22.266  37.967  11.483
24893W        W96476   8.829  23.143  14.853
24894W        W96477  29.603   8.372  14.420
24895W        W96478  26.495  19.693   0.784
24896W        W96479   9.534  22.663  12.214
24897W        W96480  14.084   3.264   2.727
24898W        W96481  18.911  30.735   5.457
24899W        W96482  37.929  33.804  14.455
24900W        W96483  11.830  39.863  12.825
24901W        W96484  16.708  40.760  11.104
24902W        W96485  18.677   6.419  14.835
24903W        W96486  36.964  44.768   0.825
24904W        W96487  10.277  20.653  10.945
24905W        W96488   3.649  33.960   3.149
24906W        W96489   6.377   2.274  11.452
24907W        W96490  21.701  15.491  12.452
24908W        W96491  15.760  17.780   3.134
24909W        W96492  15.296  41.438   1.390
24910W        W96493  36.901  21.803   4.096
24911W        W96494  42.906  36.316  11.087
24912W        W96495  40.286   5.683   4.189
24913W        W96496  24.162  31.436   3.645
24914W        W96497  14.069  40.214  11.968
24915W        W96498   9.826   1.820  14.086
24916W        W96499  26.604   3.732   2.599
24917W        W96500  32.971  33.242  14.044
24918W        W96501  35.383  17.841  10.729
24919W        W96502  18.808   9.366  11.927
24920W        W96503  17.598   8.070   4.277
24921W        W96504  30.991  17.633   1.420
24922W        W96505  12.158  38.588   2.132
24923W        W96506   9.498  39.831  11.270
24924W        W96507  16.833   7.895   3.811
24925W        W96508  28.376  31.445   3.955
24926W        W96509  17.196   4.388   2.367
24927W        W96510   0.251  27.038   3.637
24928W        W96511  42.252  43.299   4.227
24929W        W96512  36.948  39.365   0.474
24930W        W96513  41.531  11.674  14.838
24931W        W96514  25.141  26.442   3.758
24932W        W96515  42.885  29.151   0.980
24933W        W96516   9.119  11.349   4.682
24934W        W96517  36.217  18.743  11.624
24935W        W96518  30.077   4.466  12.188
24936W        W96519   0.185  39.483   4.653
24937W        W96520  41.236  23.981  11.924
24938W        W96521  37.584  21.130   4.532
24939W        W96522   6.252  19.789   3.318
24940W        W96523   1.550  18.521  11.069
24941W        W96524   0.705   9.532  11.373
24942W        W96525   1.523  24.661  11.138
24943W        W96526  10.843  28.552  13.929
24944W        W96527  16.090  43.460   4.288
24945W        W96528  17.562   0.710  12.093
24946W        W96529   6.712  19.098   3.777
24947W        W96530  42.386  13.943  11.534
24948W        W96531  42.323   3.621  11.124
24949W        W96532  26.408  44.612  13.441
24950W        W96533  22.720  31.905   2.785
24951W        W96534   4.691  34.423  14.273
24952W        W96535   5.369   5.870   0.176
24953W        W96536   2.527   0.908  14.313
24954W        W96537  33.519  40.729   2.876
24955W        W96538  12.933  34.348  11.445
24956W        W96539  15.535  29.439   0.811
24957W        W96540  18.684   0.435  11.290
24958W        W96541   6.572  30.631   0.750
24959W        W96542  23.088  11.263  14.755
24960W        W96543   9.891  31.872  11.135
24961W        W96544  22.173  14.665   0.668
24962W        W96545  35.063  33.540  10.707
24963W        W96546  15.262  14.783   2.220
24964W        W96547  24.987  22.191  14.066
24965W        W96548   8.292  37.041  11.918
24966W        W96549  21.137  32.703   2.285
24967W        W96550   8.721  14.366   5.070
24968W        W96551  37.996  37.864  13.378
24969W        W96552   4.446  37.558  13.718
24970W        W96553  12.741  35.588   0.288
24971W        W96554  30.461  19.284   4.142
24972W        W96555  15.336  41.074   1.006
24973W        W96556   7.151  19.253   3.593
24974W        W96557  19.975  37.558  10.719
24975W        W96558  19.982   8.890   1.250
24976W        W96559   1.730  44.681   2.770
24977W        W96560  42.397   8.609  14.485
24978W        W96561  41.446   7.624   4.391
24979W        W96562  25.321   5.390   0.419
24980W        W96563  24.711   6.415   4.630
24981W        W96564   4.476  27.819   4.215
24982W        W96565  28.016  35.549   4.404
24983W        W96566  36.826  30.628  14.490
24984W        W96567  39.451  34.527   1.928
24985W        W96568  43.713  41.641  14.752
24986W        W96569  32.402  40.883  11.431
24987W        W96570   1.686   6.916  12.182
24988W        W96571   2.784  29.469   3.336
24989W        W96572   4.822   3.254   9.972
24990W        W96573  21.666  44.837  14.010
24991W        W96574  38.982  43.067   2.164
24992W        W96575  19.497   3.478  12.420
24993W        W96576  24.462  38.059  11.805
24994W        W96577  36.115  25.478  11.984
24995W        W96578  38.089  40.003   2.956
24996W        W96579  31.675  23.080   2.806
24997W        W96580  22.061  15.500  13.239
24998W        W96581  22.446  43.482   4.114
24999W        W96582  37.443  26.476   3.636
25000W        W96583  43.420  18.178   0.924
25001W        W96584  26.727  22.991   1.397
25002W        W96585  22.387  29.680  10.228
25003W        W96586  36.622  15.390   5.021
25004W        W96587   1.795   7.422   2.311
25005W        W96588  18.740  26.981   3.794
25006W        W96589  27.652  19.002   4.152
25007W        W96590   6.042   6.819   1.847
25008W        W96591  15.164  16.136  13.469
25009W        W96592  32.424  11.621   2.159
25010W        W96593  33.657   7.540   3.227
25011W        W96594  38.480  44.901  14.460
25012W        W96595  13.713  23.965   2.607
25013W        W96596  18.672  16.251  12.633
25014W        W96597   1.312  19.259  10.611
25015W        W96598   0.023  10.016   0.014
25016W        W96599  44.727   4.684   3.667
25017W        W96600  20.037  16.068  12.381
25018W        W96601  14.604  25.009  10.775
25019W        W96602  40.322  29.870  12.332
25020W        W96603  37.623  20.542  14.473
25021W        W96604  39.573  11.745   0.298
25022W        W96605   7.185  18.609  12.427
25023W        W96606  38.832  36.909   1.815
25024W        W96607  14.055  26.216   2.705
25025W        W96608  11.953  37.788  11.018
25026W        W96609   5.679  21.476   1.809
25027W        W96610  34.950   0.092   4.088
25028W        W96611  37.673  32.886   4.197
25029W        W96612   5.864  40.201   3.728
25030W        W96613  28.512   5.495  14.927
25031W        W96614  41.671  21.756  14.873
25032W        W96615  16.763  16.236   1.279
25033W        W96616  34.584   1.491  12.473
25034W        W96617  31.937   4.685  10.873
25035W        W96618   5.793  35.460   2.948
25036W        W96619  37.306  17.982   0.333
25037W        W96620  28.441  10.721   1.035
25038W        W96621  11.631  21.023   2.627
25039W        W96622  33.462  35.104  12.966
25040W        W96623  34.313  28.686   0.357
25041W        W96624  25.455  11.740  14.880
25042W        W96625  25.027   5.441  12.420
25043W        W96626  26.646  40.937   3.683
25044W        W96627  35.371  12.634   4.077
25045W        W96628  44.950  32.122  14.967
25046W        W96629   4.303   2.625   4.165
25047W        W96630  17.508  19.118   4.857
25048W        W96631   8.447  28.989  12.570
25049W        W96632   7.467   8.379   3.098
25050W        W96633  44.855  35.835  11.746
25051W        W96634  33.488  13.194   0.739
25052W        W96635   0.038  29.174   1.460
25053W        W96636   0.285   6.024   2.677
25054W        W96637  28.078  38.281  14.447
25055W        W96638  35.591  38.976   1.262
25056W        W96639  25.678  41.385  11.628
25057W        W96640  21.008  38.038  11.957
25058W        W96641   2.325  34.593  13.237
25059W        W96642  36.317  15.665  10.768
25060W        W96643   8.941  41.376   2.694
25061W        W96644  35.451  15.801  10.880
25062W        W96645  39.056  22.192   0.345
25063W        W96646  28.651  11.631  12.846
25064W        W96647  24.144  14.785   0.498
25065W        W96648  33.290   5.364  11.148
25066W        W96649   3.347  28.021   3.665
25067W        W96650  37.372   4.532   3.093
25068W        W96651  39.540  28.242   4.510
25069W        W96652  38.561   2.502   3.386
25070W        W96653  24.196  40.434  12.098
25071W        W96654  31.725  37.590   2.786
25072W        W96655  24.884   8.396   4.313
25073W        W96656  11.826  28.160   5.009
25074W        W96657  28.136  11.644  10.898
25075W        W96658  41.065   5.986  13.894
25076W        W96659  19.801  13.031   2.176
25077W        W96660   7.433  17.247  11.322
25078W        W96661  16.598   0.720  11.289
25079W        W96662  21.212  17.583  10.553
25080W        W96663  15.307  30.029   2.012
25081W        W96664   8.874  35.527  13.796
25082W        W96665  22.535  20.639  11.653
25083W        W96666  30.086  25.346  11.091
25084W        W96667  14.739  16.900   0.253
25085W        W96668   1.931   2.190  14.304
25086W        W96669  34.682  36.039  13.032
25087W        W96670  32.997  44.324  13.072
25088W        W96671  18.549  27.195  12.981
25089W        W96672  33.728   5.830   2.774
25090W        W96673  38.114  10.281  14.502
25091W        W96674  27.640  17.572   2.883
25092W        W96675  37.958   7.961  13.303
25093W        W96676  24.096  27.931   3.863
25094W        W96677  28.308   8.306   4.707
25095W        W96678  17.648  28.185  14.174
25096W        W96679  32.987  34.640   2.745
25097W        W96680  11.812  35.988   4.631
25098W        W96681   6.940  17.520  13.051
25099W        W96682  37.029  33.464   2.296
25100W        W96683  33.651  42.094   3.044
25101W        W96684  29.074  31.747   5.243
25102W        W96685  15.178  40.700  12.916
25103W        W96686  30.473  12.772  12.705
25104W        W96687  11.079  42.413  13.671
25105W        W96688  13.607  41.912  13.785
25106W        W96689  41.022  41.420   1.902
25107W        W96690   0.839   1.675   3.612
25108W        W96691  28.085  17.278   1.781
25109W        W96692  42.055  39.493   3.204
25110W        W96693   7.302  31.563  11.572
25111W        W96694  23.573   9.426   2.897
25112W        W96695  18.723  38.063   1.440
25113W        W96696  24.284  13.766   1.951
25114W        W96697  26.150   5.829   3.673
25115W        W96698  24.582  28.527  14.496
25116W        W96699   4.393  27.519  11.382
25117W        W96700  43.497  23.774   3.151
25118W        W96701  42.507   9.290  11.925
25119W        W96702  18.012  30.214   3.139
25120W        W96703  32.534  30.257   0.467
25121W        W96704  18.266  29.550   1.368
25122W        W96705  30.981   7.088   1.322
25123W        W96706  41.862  17.388  12.569
25124W        W96707  31.907  35.546  13.541
25125W        W96708   2.852  38.146  14.344
25126W        W96709  21.297  22.189   0.276
25127W        W96710  13.111  10.857   0.265
25128W        W96711  43.660   3.709  11.155
25129W        W96712  19.001  23.236   4.172
25130W        W96713   2.879  32.188  13.871
25131W        W96714  13.774  42.802  12.791
25132W        W96715  17.302  36.590  11.564
25133W        W96716  14.238  36.354  14.396
25134W        W96717   3.314  30.037   1.199
25135W        W96718   4.847  42.556  10.936
25136W        W96719  32.022  18.733   3.157
25137W        W96720  30.064  28.006  14.886
25138W        W96721  34.350   0.463   0.013
25139W        W96722   4.220  18.358  13.382
25140W        W96723  23.096  32.119  13.891
25141W        W96724  23.550  28.459  12.029
25142W        W96725  21.347   9.521  10.254
25143W        W96726  32.749  15.830  13.306
25144W        W96727  21.482   7.773  11.576
25145W        W96728   8.297   3.398   4.549
25146W        W96729  26.796  31.845  12.160
25147W        W96730  11.055  23.154   1.752
25148W        W96731   8.947  26.637  11.528
25149W        W96732  35.597  10.731  14.954
25150W        W96733  22.966  42.896   3.720
25151W        W96734   3.788  25.444   3.341
25152W        W96735  29.172   2.315   4.086
25153W        W96736  27.712  42.566  14.239
25154W        W96737  39.008   2.691   2.449
25155W        W96738  43.530  25.108  13.846
25156W        W96739  32.063   8.919  10.796
25157W        W96740  10.366  22.652  13.818
25158W        W96741  11.375  43.005   5.109
25159W        W96742  29.233  30.461  13.868
25160W        W96743  37.641   7.136   2.647
25161W        W96744  20.360  42.443  12.632
25162W        W96745  18.681  40.653   2.953
25163W        W96746  32.009   4.765  12.748
25164W        W96747  33.520  28.559  12.946
25165W        W96748   9.937  41.464   4.648
25166W        W96749  32.979   3.233  14.400
25167W        W96750  10.698  34.804  14.880
25168W        W96751  38.567  31.540  14.814
25169W        W96752  32.130  13.814  14.577
25170W        W96753  42.319  40.833   0.815
25171W        W96754   1.964   6.539  11.989
25172W        W96755  39.950  26.453   0.860
25173W        W96756  20.558  10.164  14.400
25174W        W96757   1.160  12.114  13.420
25175W        W96758  16.665  35.641   2.907
25176W        W96759   1.266  14.814  13.059
25177W        W96760  40.299  33.078   1.761
25178W        W96761   8.212  16.677   0.943
25179W        W96762  34.365   6.432   4.221
25180W        W96763   5.221   3.287   3.783
25181W        W96764  34.162  28.128   0.331
25182W        W96765  17.221  42.298   2.637
25183W        W96766  15.859  28.020   3.344
25184W        W96767  17.608  16.614   4.121
25185W        W96768  34.753   8.261  12.022
25186W        W96769  41.450   8.654  11.884
25187W        W96770   2.292   0.880  10.983
25188W        W96771  35.539  15.105   2.762
25189W        W96772   1.045  27.889  12.974
25190W        W96773  18.670  22.145   3.951
25191W        W96774  11.323  27.572   3.869
25192W        W96775   4.548  36.495  10.983
25193W        W96776   1.560   5.391  11.153
25194W        W96777  44.470  11.735   2.825
25195W        W96778  35.627  21.189   0.056
25196W        W96779  34.316  44.213  10.697
25197W        W96780  30.489  41.425   2.466
25198W        W96781  25.619  14.368  13.145
25199W        W96782  38.611  17.570   0.358
25200W        W96783  32.656  37.524  11.125
25201W        W96784  42.173  15.829   1.279
25202W        W96785  31.140  41.339  11.620
25203W        W96786   8.205  21.611   0.208
25204W        W96787  29.937   9.638  10.984
25205W        W96788  39.065  28.521   4.461
25206W        W96789   4.987  43.812  11.702
25207W        W96790  24.764  35.334  11.490
25208W        W96791   7.194  39.816   4.556
25209W        W96792  29.716  34.493  13.078
25210W        W96793  13.063  15.791   2.233
25211W        W96794  41.565  29.253  12.111
25212W        W96795  37.418   8.412  14.976
25213W        W96796  21.527  38.009   3.237
25214W        W96797   5.774  36.916  14.782
25215W        W96798  26.195  27.612   4.607
25216W        W96799  18.747  12.917  11.328
25217W        W96800  36.103   4.640  10.636
25218W        W96801   8.193  15.609   2.753
25219W        W96802  24.502  32.162  14.291
25220W        W96803  17.643  42.162   2.894
25221W        W96804  34.990   5.694   4.214
25222W        W96805  43.814  19.811   1.232
25223W        W96806  20.542  40.508   3.154
25224W        W96807  37.765  42.116  13.279
25225W        W96808  23.541  31.881  14.039
25226W        W96809  14.567  37.536   2.258
25227W        W96810   8.448  34.459  14.464
25228W        W96811  30.837   6.239  12.216
25229W        W96812  43.821  19.008  11.532
25230W        W96813  39.076  33.156   4.899
25231W        W96814   9.165  18.645  11.124
25232W        W96815   6.904   0.093  13.008
25233W        W96816  29.934  24.873   4.201
25234W        W96817  24.215  39.245   1.452
25235W        W96818  34.181   6.800  10.581
25236W        W96819  23.803  35.990   5.030
25237W        W96820  24.502  19.613   2.911
25238W        W96821  39.999  11.025  11.118
25239W        W96822  20.478  10.366  14.906
25240W        W96823  38.341  24.131   4.539
25241W        W96824  11.751   0.924   1.677
25242W        W96825  11.583   7.928   1.858
25243W        W96826  38.079   0.279   0.425
25244W        W96827   3.729  30.667   4.753
25245W        W96828  39.124  16.264   3.237
25246W        W96829  27.154  37.105  11.716
25247W        W96830  29.472  28.764   3.601
25248W        W96831  42.434  27.027   2.784
25249W        W96832  15.724  39.896   0.339
25250W        W96833  15.596  42.378  11.656
25251W        W96834  15.048  11.657   0.287
25252W        W96835  34.444  17.169   3.372
25253W        W96836  11.640  28.203   1.896
25254W        W96837  14.689  31.107   2.978
25255W        W96838  40.570   2.981   3.847
25256W        W96839  28.156  32.683  11.504
25257W        W96840  11.993  27.836   3.365
25258W        W96841  15.682  43.449  11.263
25259W        W96842  34.373  43.825   1.452
25260W        W96843   2.825  14.957   4.486
25261W        W96844   6.344   7.613   4.204
25262W        W96845   6.271  12.940   4.456
25263W        W96846  26.907  27.153   2.725
25264W        W96847   8.986  21.714   0.437
25265W        W96848  21.820  16.289   0.373
25266W        W96849   6.146  21.656   3.303
25267W        W96850  42.866  12.352  14.383
25268W        W96851  40.943  34.421  13.802
25269W        W96852  17.121   3.749   0.119
25270W        W96853  22.472  17.766  11.135
25271W        W96854  40.052  19.510   0.841
25272W        W96855  44.228  16.050   0.780
25273W        W96856   2.999  26.573   3.246
25274W        W96857  28.037   4.018  11.654
25275W        W96858   9.866  43.009  13.990
25276W        W96859  10.121  25.171   0.691
25277W        W96860  23.703   9.285   3.788
25278W        W96861  20.667  19.360  11.026
25279W        W96862   5.946  24.603   2.593
25280W        W96863  40.002  29.472  12.489
25281W        W96864  37.934  41.965   4.356
25282W        W96865  19.426   7.619   3.365
25283W        W96866  34.061  32.374  11.382
25284W        W96867  40.726  19.121   2.078
25285W        W96868  42.479  31.929   1.470
25286W        W96869  33.459  31.138  12.431
25287W        W96870  42.519  17.115   0.829
25288W        W96871  11.347  29.429  14.836
25289W        W96872   2.814  24.944  11.529
25290W        W96873  10.735   4.858  12.446
25291W        W96874  25.685   4.974   1.236
25292W        W96875  25.082  10.853  13.547
25293W        W96876  39.065  42.280   0.805
25294W        W96877  24.184  20.426  14.663
25295W        W96878  19.196  12.139   1.845
25296W        W96879  18.532   0.768   2.911
25297W        W96880   9.701  10.688   1.887
25298W        W96881  23.091  29.428  14.760
25299W        W96882  13.426  21.674  14.022
25300W        W96883  21.004  27.698   0.808
25301W        W96884   1.524  35.448   0.747
25302W        W96885  29.143  11.371   0.237
25303W        W96886  22.661  39.899  14.882
25304W        W96887  40.197   8.327  14.473
25305W        W96888  19.045   2.354   1.832
25306W        W96889  27.674  17.055  12.386
25307W        W96890  34.884  10.973   4.509
25308W        W96891  40.815  21.907   2.191
25309W        W96892  16.579  28.541   3.387
25310W        W96893  21.063   5.315  11.221
25311W        W96894  34.632  43.372  12.470
25312W        W96895  12.573  15.668   2.277
25313W        W96896  41.705   9.969   1.412
25314W        W96897  12.014  18.903   3.715
25315W        W96898  12.820  36.377  13.859
25316W        W96899  19.240  29.182  10.295
25317W        W96900   1.253  32.583   2.854
25318W        W96901   9.900   1.658   1.957
25319W        W96902   9.714   4.852   0.490
25320W        W96903  17.722  13.241  14.030
25321W        W96904  42.030  38.363  13.631
25322W        W96905   1.545  23.997   2.702
25323W        W96906  15.324  42.380  14.402
25324W        W96907  14.357  18.715  11.053
25325W        W96908  21.091  14.275   4.871
25326W        W96909  40.949   6.391   1.734
25327W        W96910   4.369  25.328  13.954
25328W        W96911   3.464  41.418   0.255
25329W        W96912  40.244  29.570   3.414
25330W        W96913  42.215  39.412  11.135
25331W        W96914  11.223  15.712  12.920
25332W        W96915   1.732  41.181  10.750
25333W        W96916  10.192  37.957   4.157
25334W        W96917   8.463  24.132   4.941
25335W        W96918  16.011  38.314  14.174
25336W        W96919  17.239  26.578  12.616
25337W        W96920  23.221   2.390   0.209
25338W        W96921  41.582  12.319   3.626
25339W        W96922   0.549  15.574   4.145
25340W        W96923  36.576  35.329  13.729
25341W        W96924  40.922  25.091  12.455
25342W        W96925   6.804   1.044  13.003
25343W        W96926   1.251  40.785  12.464
25344W        W96927  28.032  34.169   1.876
25345W        W96928  22.639  42.317   0.884
25346W        W96929   5.200  32.591  13.984
25347W        W96930   9.683  29.771   4.575
25348W        W96931  18.216   9.206  14.942
25349W        W96932  16.223  44.142  14.779
25350W        W96933  27.793  20.742   2.654
25351W        W96934  42.178  17.740   1.389
25352W        W96935   9.430  37.510  14.775
25353W        W96936   7.469   5.179  12.487
25354W        W96937  29.137   2.940  13.119
25355W        W96938  13.288  44.455   4.177
25356W        W96939   8.717  11.039  10.680
25357W        W96940  40.485  30.871   3.660
25358W        W96941  13.645  38.413   4.125
25359W        W96942   0.965  23.749   1.105
25360W        W96943  41.135  19.543  13.489
25361W        W96944   0.704  26.163   0.354
25362W        W96945   1.906   5.165  14.167
25363W        W96946  16.621   1.485  13.794
25364W        W96947  14.810  12.127   3.050
25365W        W96948   3.267  40.646   1.996
25366W        W96949  28.267   5.818  12.585
25367W        W96950  26.702   7.710   4.010
25368W        W96951  16.523  36.588  10.260
25369W        W96952  41.640  38.352  12.716
25370W        W96953   9.901  27.544  14.945
25371W        W96954  27.275  28.573  10.834
25372W        W96955  12.769  42.891  14.421
25373W        W96956   0.179   5.690  11.952
25374W        W96957  15.805  17.653  12.007
25375W        W96958  23.052   3.453  12.974
25376W        W96959  26.905   8.075   2.072
25377W        W96960  14.577   6.417  14.756
25378W        W96961  19.771  35.453  13.065
25379W        W96962  39.925   8.427   2.804
25380W        W96963  42.959  31.126   1.790
25381W        W96964   8.941  18.245   2.212
25382W        W96965  38.964   6.022  10.497
25383W        W96966   8.544  36.112  14.172
25384W        W96967  41.372  12.883   4.708
25385W        W96968   0.884  19.400  12.906
25386W        W96969  42.763  14.338  11.479
25387W        W96970  34.895   7.783   2.452
25388W        W96971  25.816  36.352   3.294
25389W        W96972  37.591  30.128  11.348
25390W        W96973  42.280   4.842  13.924
25391W        W96974   1.902  37.379  12.890
25392W        W96975   2.725  12.802   4.239
25393W        W96976  10.620  39.888   0.365
25394W        W96977  38.162  38.868   0.808
25395W        W96978  25.259  41.955   3.391
25396W        W96979   7.924  12.286  13.104
25397W        W96980   6.110  25.248   4.647
25398W        W96981  20.635   7.259  11.693
25399W        W96982  22.080  29.527  10.615
25400W        W96983  28.718   1.852   2.104
25401W        W96984  33.239  42.618  10.664
25402W        W96985  13.643  41.081   1.346
25403W        W96986   4.846  21.982  14.030
25404W        W96987   1.677  10.521   1.385
25405W        W96988   4.043  22.180  10.719
25406W        W96989  42.785  22.244  11.681
25407W        W96990  21.542  39.060   4.164
25408W        W96991  18.243  28.966  13.837
25409W        W96992  15.577  14.131   4.226
25410W        W96993  11.255  22.918   2.751
25411W        W96994  24.727   7.391  12.517
25412W        W96995   3.999  14.018   2.858
25413W        W96996  41.271  14.345   5.016
25414W        W96997  39.439   4.846  13.743
25415W        W96998   2.543  40.623  13.607
25416W        W96999  39.440  26.553   3.760
25417W        W97000  41.940  15.476   3.993
25418W        W97001  35.856  38.234  14.639
25419W        W97002  18.871  34.355   2.302
25420W        W97003   8.594   3.432  13.862
25421W        W97004   9.412  14.728   0.441
25422W        W97005   5.755  42.224  13.456
25423W        W97006   4.213  16.112   2.402
25424W        W97007  41.515   8.111  11.217
25425W        W97008   5.436  37.459  11.091
25426W        W97009   4.663  30.228   3.212
25427W        W97010  27.985  26.706   3.237
25428W        W97011  18.813  42.058  11.107
25429W        W97012  12.652  43.406  14.409
25430W        W97013   7.404  19.703   3.614
25431W        W97014  44.638  23.519  13.500
25432W        W97015  14.866  36.958  12.459
25433W        W97016  20.968  15.219  11.039
25434W        W97017  41.436  23.232  12.247
25435W        W97018  21.043  37.385   3.782
25436W        W97019  38.477   6.920   4.549
25437W        W97020  33.855  11.639   0.395
25438W        W97021  41.276  10.874   1.735
25439W        W97022  26.023  34.103  14.985
25440W        W97023  32.617   0.014  12.033
25441W        W97024  32.654  34.002  14.842
25442W        W97025  17.281   9.735   3.868
25443W        W97026   1.044  19.557   0.579
25444W        W97027  42.246   9.409   0.839
25445W        W97028  22.758  21.020  14.482
25446W        W97029  36.816   3.114  10.087
25447W        W97030  27.207  42.985   4.320
25448W        W97031  40.121  35.906   0.894
25449W        W97032  12.402  24.274   1.885
25450W        W97033  33.011   9.691   0.308
25451W        W97034  38.990   5.407   4.926
25452W        W97035   5.960  30.008   0.871
25453W        W97036  21.638  36.565  14.290
25454W        W97037  22.594  42.192   4.503
25455W        W97038  34.261  20.750  11.526
25456W        W97039  21.552  38.114  12.809
25457W        W97040  20.014  36.823  14.718
25458W        W97041   6.338  32.013  14.927
25459W        W97042  18.749  16.339   1.371
25460W        W97043  12.546  18.053  14.523
25461W        W97044  16.257  34.861   1.409
25462W        W97045   8.961  20.203  11.002
25463W        W97046  35.991  28.430   0.784
25464W        W97047  21.258  33.471   3.698
25465W        W97048   1.613  30.365  13.544
25466W        W97049   2.827  38.456  13.322
25467W        W97050  38.968  15.265   1.882
25468W        W97051  21.908  27.459   3.708
25469W        W97052  42.921   6.032  11.530
25470W        W97053  22.224   6.688   2.850
25471W        W97054  39.064  36.923  12.946
25472W        W97055  35.272  37.555  10.180
25473W        W97056  42.775   9.199   0.815
25474W        W97057  35.522   9.713  14.840
25475W        W97058  20.537  41.913  10.695
25476W        W97059  31.523  27.285   3.277
25477W        W97060   1.165  37.972  12.985
25478W        W97061  21.108  33.415  11.917
25479W        W97062   6.322   4.298   1.319
25480W        W97063  38.439  22.182   0.392
25481W        W97064  15.878   4.546   3.147
25482W        W97065   4.830  20.685   3.276
25483W        W97066  11.781  10.099   3.361
25484W        W97067   9.221  14.833   2.706
25485W        W97068   2.819  30.470  11.081
25486W        W97069  23.501  13.409   1.694
25487W        W97070  44.971   7.579   1.125
25488W        W97071  26.744  23.850   3.575
25489W        W97072  20.592  26.121   4.946
25490W        W97073  44.886   0.775   1.936
25491W        W97074  38.959  20.154  13.532
25492W        W97075   1.886  13.034   0.888
25493W        W97076  43.966   7.641  12.452
25494W        W97077  11.544   2.875   4.761
25495W        W97078   1.556  26.666  13.019
25496W        W97079  39.013  44.824  12.108
25497W        W97080   5.043  42.622   5.046
25498W        W97081  10.325  28.724  11.187
25499W        W97082  19.989  16.639   0.378
25500W        W97083  42.632  44.320  10.665
25501W        W97084   6.849  38.917   2.237
25502W        W97085   4.537  22.140   2.726
25503W        W97086  36.428  15.372   2.338
25504W        W97087  35.057  28.603   2.572
25505W        W97088  12.806   3.224  12.089
25506W        W97089   2.367  17.061   1.380
25507W        W97090  10.049  10.302  11.193
25508W        W97091   0.291  44.083   1.212
25509W        W97092  35.189  40.895  11.933
25510W        W97093  13.555  34.452  12.620
25511W        W97094  13.837  14.246   4.831
25512W        W97095  29.939  13.657  13.526
25513W        W97096   4.291  34.890  11.110
25514W        W97097   6.964   1.830   1.712
25515W        W97098   1.909  28.051   2.402
25516W        W97099   5.937  39.978   4.184
25517W        W97100  23.324  28.644   5.493
25518W        W97101  15.211  21.113  13.776
25519W        W97102  41.330   7.764  12.439
25520W        W97103  20.107  29.468   3.220
25521W        W97104  31.436  13.940  13.367
25522W        W97105   5.144  22.515   0.410
25523W        W97106  21.462   1.869  13.882
25524W        W97107  31.680  23.474  14.732
25525W        W97108  39.235   0.703   2.895
25526W        W97109  44.267  36.318   3.229
25527W        W97110  11.266  28.376  13.446
25528W        W97111   5.715  41.378  10.215
25529W        W97112   7.855  44.566  11.545
25530W        W97113  31.103  25.620   1.520
25531W        W97114  44.224  24.540   2.803
25532W        W97115  37.384  18.997  12.004
25533W        W97116  12.617  43.019   1.201
25534W        W97117  32.510   1.729   2.158
25535W        W97118   6.409  40.452  11.224
25536W        W97119  32.159   5.646  10.570
25537W        W97120  18.869   6.729   2.902
25538W        W97121  18.672  39.820  14.345
25539W        W97122  36.806   0.443   3.353
25540W        W97123  37.351  40.290   2.844
25541W        W97124   4.885  15.332   2.446
25542W        W97125  20.127   0.457  12.917
25543W        W97126  37.582  22.662   2.007
25544W        W97127  18.268  28.665  12.046
25545W        W97128  20.827  39.820  13.726
25546W        W97129  39.907  43.029  13.998
25547W        W97130  26.645  13.074  10.302
25548W        W97131  32.562  11.436   2.796
25549W        W97132   3.876  43.886  14.909
25550W        W97133  33.173  20.433   3.310
25551W        W97134  23.943   8.871   1.490
25552W        W97135  35.244  39.046   0.725
25553W        W97136  34.624  30.146   1.180
25554W        W97137  35.238  44.521  11.424
25555W        W97138   8.735  28.943   0.956
25556W        W97139  28.062   4.773  13.883
25557W        W97140  28.103  43.316   1.279
25558W        W97141  13.245  20.764   0.496
25559W        W97142   5.413  20.552   0.796
25560W        W97143  21.654  33.455   0.522
25561W        W97144  42.948  12.285   3.367
25562W        W97145   0.254  36.109   4.110
25563W        W97146  18.013  13.767   4.597
25564W        W97147  34.111   4.075   1.575
25565W        W97148   9.208  43.766  13.928
25566W        W97149  37.476  38.864  14.106
25567W        W97150  29.273  31.899  11.097
25568W        W97151  18.728  40.480  13.486
25569W        W97152  42.369  17.854   3.211
25570W        W97153  42.717  39.273  11.058
25571W        W97154  17.206  15.850  14.214
25572W        W97155  17.245  32.474  13.100
25573W        W97156  11.837  22.616   1.725
25574W        W97157   2.768  41.737  12.480
25575W        W97158  44.439  32.000   1.645
25576W        W97159   1.599  40.526   1.810
25577W        W97160   8.423   0.013   1.535
25578W        W97161  31.270  16.265   1.415
25579W        W97162  13.419  24.316  10.847
25580W        W97163  14.655  21.296   3.597
25581W        W97164  23.492   1.977  13.068
25582W        W97165  20.085  27.710   4.348
25583W        W97166   6.186   9.434   3.326
25584W        W97167  42.312  16.130  13.898
25585W        W97168  26.949   5.849   2.666
25586W        W97169  32.947  35.599  10.895
25587W        W97170  42.717  36.035   4.238
25588W        W97171  41.885  36.723   4.047
25589W        W97172  21.680  24.433   2.606
25590W        W97173  35.929  43.330   3.035
25591W        W97174  31.082   6.114  11.191
25592W        W97175  20.866  21.306   4.257
25593W        W97176  16.109  18.173   0.403
25594W        W97177  14.327   4.221  14.957
25595W        W97178  17.239  25.555  13.335
25596W        W97179  33.240   6.623   1.207
25597W        W97180  20.335  31.042   3.605
25598W        W97181  39.784  40.901  14.551
25599W        W97182  13.873  33.835  10.608
25600W        W97183  43.858   1.965  10.413
25601W        W97184  27.219  16.381   3.687
25602W        W97185  24.418  40.759  14.474
25603W        W97186  29.418  35.378   3.332
25604W        W97187   5.719  44.858  13.914
25605W        W97188  26.769  34.392  14.686
25606W        W97189  36.051   6.856   3.091
25607W        W97190   7.266  36.890  13.014
25608W        W97191  16.760  21.229   1.096
25609W        W97192  35.903   9.682   2.750
25610W        W97193  21.275   0.460  14.465
25611W        W97194  28.959  36.942  11.287
25612W        W97195  11.125  19.955   0.706
25613W        W97196  25.271  37.265   3.258
25614W        W97197   4.516  10.806  12.986
25615W        W97198  33.048  36.096   1.349
25616W        W97199  23.695  25.716   3.179
25617W        W97200  32.659  32.708   4.585
25618W        W97201   3.881  35.231  10.167
25619W        W97202  40.115  11.683   2.368
25620W        W97203   7.489  43.515   3.786
25621W        W97204  42.087  40.667   0.163
25622W        W97205  28.814  32.051   1.165
25623W        W97206  11.332  24.971  14.955
25624W        W97207  23.169  43.790  11.668
25625W        W97208  14.143   3.798   1.842
25626W        W97209   2.772  27.429  12.938
25627W        W97210   6.011   2.831   2.791
25628W        W97211   7.537  11.178   1.240
25629W        W97212   0.194  40.575  11.256
25630W        W97213  35.788  32.086  12.395
25631W        W97214  39.858  31.560  14.511
25632W        W97215  26.940  34.620   0.973
25633W        W97216  11.448  40.405   1.333
25634W        W97217  37.372  44.925   0.325
25635W        W97218  18.295  38.173  13.974
25636W        W97219  15.409  35.939   5.219
25637W        W97220   3.705  23.052   4.655
25638W        W97221  15.834  20.237  11.511
25639W        W97222  42.684  29.222  14.559
25640W        W97223  16.288  12.324   1.760
25641W        W97224  17.543  24.713   4.179
25642W        W97225   8.889  16.741  11.985
25643W        W97226  39.326  20.573  11.508
25644W        W97227  32.602  19.993  11.963
25645W        W97228  13.833   8.642  13.013
25646W        W97229   7.958  30.392  14.802
25647W        W97230  15.277   6.695  10.657
25648W        W97231  42.817  15.635   2.879
25649W        W97232   3.456  43.464   0.875
25650W        W97233  15.838  34.557   1.300
25651W        W97234   5.738  39.061  13.817
25652W        W97235  10.550  13.135   2.072
25653W        W97236  21.613  14.206   0.271
25654W        W97237  39.993  24.050  10.663
25655W        W97238  15.688  26.146  11.545
25656W        W97239  30.839  12.490  12.943
25657W        W97240  14.559   5.809  11.899
25658W        W97241  10.748  20.820   4.051
25659W        W97242  15.270   3.645   3.807
25660W        W97243  19.143  10.375   4.562
25661W        W97244  37.411  23.623   2.609
25662W        W97245  36.651  23.250   2.284
25663W        W97246   8.817   5.385   3.312
25664W        W97247  44.591  40.472  13.460
25665W        W97248   4.973   9.431   1.854
25666W        W97249  29.670  23.900  13.456
25667W        W97250   4.641   9.730  11.520
25668W        W97251   2.090  27.011   4.358
25669W        W97252   5.735   8.925   4.351
25670W        W97253  12.689  41.113   1.254
25671W        W97254  13.593  14.326  12.375
25672W        W97255  37.188  14.694   0.742
25673W        W97256  34.523  27.816   0.676
25674W        W97257  30.382   1.639   3.885
25675W        W97258  44.791  16.192   2.745
25676W        W97259  23.280   8.384   9.869
25677W        W97260  10.489   1.182   2.663
25678W        W97261  30.651  43.105  11.064
25679W        W97262   4.518  25.997   3.944
25680W        W97263  28.905   2.350   2.179
25681W        W97264  11.699  10.842   0.012
25682W        W97265   3.115  34.268   0.295
25683W        W97266  43.340   6.233  11.112
25684W        W97267   0.002  10.279  11.970
25685W        W97268  25.724  36.380  11.611
25686W        W97269  12.830   2.955  11.661
25687W        W97270  20.785  35.938   3.490
25688W        W97271  22.605  34.531  11.846
25689W        W97272   6.550  28.470   4.862
25690W        W97273  36.525  35.888  10.177
25691W        W97274  33.522  18.767   1.272
25692W        W97275  43.284  34.443  11.169
25693W        W97276  11.645  33.390  12.978
25694W        W97277  15.214  27.465   0.028
25695W        W97278  21.230  14.342   0.951
25696W        W97279  44.774  27.009  13.754
25697W        W97280  31.606   4.708   2.393
25698W        W97281  12.564  40.691  12.537
25699W        W97282  40.565  17.232  13.529
25700W        W97283  27.512  26.141  14.001
25701W        W97284  14.211  35.937  11.213
25702W        W97285  11.177  15.174  14.666
25703W        W97286  23.010  37.585  10.435
25704W        W97287  30.194  34.008   2.719
25705W        W97288  43.421  10.373  12.489
25706W        W97289  14.188  12.193   2.368
25707W        W97290  19.278  12.306  13.010
25708W        W97291  38.406   2.815  14.464
25709W        W97292  23.208  15.131   0.028
25710W        W97293  33.286   8.555   3.152
25711W        W97294  43.927  24.353  11.114
25712W        W97295  13.170  34.994  14.029
25713W        W97296   0.919  34.903  11.756
25714W        W97297  44.033  29.320  11.110
25715W        W97298  40.423  20.526  10.561
25716W        W97299  22.074  11.150  14.758
25717W        W97300  28.115  15.077   0.746
25718W        W97301   5.227  26.268   0.342
25719W        W97302  41.307  14.944  12.061
25720W        W97303  19.159  33.385  12.112
25721W        W97304  42.383  37.325   4.096
25722W        W97305  34.128  25.723   4.223
25723W        W97306  12.213  29.389   0.326
25724W        W97307   6.342   2.591   3.305
25725W        W97308  11.674  34.390  14.944
25726W        W97309   7.115  24.511  11.597
25727W        W97310   4.305  43.137  14.357
25728W        W97311  32.153  32.873   0.488
25729W        W97312  34.001   8.688   0.337
25730W        W97313  38.945  23.547   0.721
25731W        W97314  18.567  16.690  14.469
25732W        W97315   4.104  29.992  12.166
25733W        W97316  32.380  43.997   2.690
25734W        W97317   8.972  41.408   4.570
25735W        W97318   0.182  26.133  12.906
25736W        W97319  19.550  38.784  10.741
25737W        W97320   7.679  20.347  13.883
25738W        W97321  29.127   7.160   4.258
25739W        W97322  33.602  11.840   3.155
25740W        W97323   3.189  23.176  10.470
25741W        W97324  28.820  32.966   1.352
25742W        W97325  11.151  26.728   0.998
25743W        W97326  43.961  28.356   2.236
25744W        W97327  17.349  43.797  10.469
25745W        W97328  19.116  37.365   4.631
25746W        W97329  37.118  35.581  11.826
25747W        W97330  18.574   4.397  12.858
25748W        W97331  13.190  27.576   1.747
25749W        W97332   0.346  29.408  11.169
25750W        W97333  20.397   0.062  12.676
25751W        W97334  13.449  27.400   4.509
25752W        W97335  31.580  38.240   0.137
25753W        W97336  35.590   8.119  13.462
25754W        W97337  24.508  10.327   4.138
25755W        W97338  34.566  25.566  13.944
25756W        W97339  12.822  20.782   0.822
25757W        W97340  33.363   8.243  12.176
25758W        W97341  42.512  35.296   1.645
25759W        W97342  10.161  10.936  10.664
25760W        W97343  36.920   3.000   3.893
25761W        W97344  35.039  36.636  14.507
25762W        W97345  22.682  29.484  12.973
25763W        W97346  11.596  33.075   0.281
25764W        W97347  11.316  31.350  11.130
25765W        W97348   1.639  37.783  13.098
25766W        W97349  22.651  31.906  11.083
25767W        W97350  26.922  32.100  11.755
25768W        W97351   4.878  13.409  14.061
25769W        W97352  39.289  10.808   1.556
25770W        W97353   4.295   9.405  12.456
25771W        W97354  18.841  16.764  14.906
25772W        W97355  21.060   5.058  14.501
25773W        W97356  42.313  43.910   3.636
25774W        W97357  38.166  14.281   3.320
25775W        W97358  14.174  14.818   3.191
25776W        W97359  32.214   3.031   0.640
25777W        W97360  17.384  37.378  12.826
25778W        W97361  13.826  20.992  12.497
25779W        W97362   2.478  16.351  14.988
25780W        W97363  14.873  14.519  11.635
25781W        W97364  43.442   2.893  11.880
25782W        W97365  28.111  23.113   4.822
25783W        W97366  40.011  11.231   2.097
25784W        W97367  11.298  10.042   3.763
25785W        W97368  39.990   0.811  12.751
25786W        W97369  21.100  21.651   3.268
25787W        W97370  11.709  19.178   2.117
25788W        W97371  33.579   5.497  13.006
25789W        W97372  19.327   9.731   0.332
25790W        W97373  22.802  12.767  13.707
25791W        W97374   9.645  25.324   3.381
25792W        W97375  32.595  20.921   3.432
25793W        W97376  10.620   9.293   2.354
25794W        W97377  21.523   0.370   3.799
25795W        W97378  39.739   9.132  11.039
25796W        W97379  15.541  15.832   5.068
25797W        W97380  37.465  22.076   4.411
25798W        W97381  18.670  37.096   2.910
25799W        W97382  29.702  25.390  14.448
25800W        W97383  32.379  18.786   1.694
25801W        W97384   5.892   2.197  11.263
25802W        W97385  16.771   4.409  14.478
25803W        W97386  24.087  32.948   1.794
25804W        W97387   7.727  27.990  12.068
25805W        W97388  11.727  32.895   2.576
25806W        W97389  19.452   9.191  13.334
25807W        W97390   3.265  18.781   1.681
25808W        W97391  28.366  19.724  13.446
25809W        W97392  18.097  24.940   4.823
25810W        W97393   4.543   8.112  13.953
25811W        W97394  33.543  36.640   0.728
25812W        W97395   8.642   6.426   4.129
25813W        W97396  10.385   7.286  14.746
25814W        W97397  38.965  39.725   2.450
25815W        W97398  28.488  18.510  13.865
25816W        W97399   4.832   3.127  11.018
25817W        W97400  10.392   1.006   4.564
25818W        W97401   8.403   5.434  12.584
25819W        W97402  11.338  43.281   0.690
25820W        W97403  35.883  28.640   2.199
25821W        W97404   9.237   0.835  11.167
25822W        W97405   8.425  19.034  14.900
25823W        W97406  35.602  43.263   2.639
25824W        W97407   6.658  17.323   2.569
25825W        W97408   7.687  42.663  14.316
25826W        W97409  26.055  37.349   3.863
25827W        W97410   1.897   3.225  13.421
25828W        W97411  29.047  29.521   1.142
25829W        W97412  21.354  10.153   3.715
25830W        W97413  23.814  37.416  14.542
25831W        W97414  30.388  33.304   0.131
25832W        W97415  43.532  10.769   3.316
25833W        W97416  33.121  18.583  10.624
25834W        W97417  11.182  23.166  10.786
25835W        W97418  10.685  30.971   3.935
25836W        W97419  14.300   0.985  11.680
25837W        W97420  21.748  27.958  14.887
25838W        W97421  29.506  20.487  13.102
25839W        W97422  20.828   3.992   3.391
25840W        W97423  25.871   2.337  13.992
25841W        W97424  16.554  22.402  13.473
25842W        W97425   9.105  32.233  14.030
25843W        W97426  44.280  37.239   5.024
25844W        W97427  31.665  28.058  13.035
25845W        W97428  21.011   9.848  13.473
25846W        W97429  22.073  22.707   2.757
25847W        W97430  20.030  42.649  10.728
25848W        W97431  10.240  34.312   0.348
25849W        W97432  28.598  43.979   4.604
25850W        W97433  23.706  15.044   4.950
25851W        W97434  22.208  13.301  13.246
25852W        W97435  20.644   3.674  11.528
25853W        W97436   3.236   1.647   2.617
25854W        W97437  21.496  32.468   0.048
25855W        W97438  24.050  31.311   2.825
25856W        W97439  30.478  27.918   2.735
25857W        W97440  11.174  42.024  10.643
25858W        W97441  27.425  13.490  13.836
25859W        W97442  27.220   6.734   1.346
25860W        W97443  21.117  34.707  12.137
25861W        W97444  10.997  20.974   1.197
25862W        W97445   1.271  13.455  14.786
25863W        W97446   5.861  30.063  11.114
25864W        W97447   7.664   4.439  12.912
25865W        W97448  21.665   2.365  11.899
25866W        W97449  22.719  23.556   4.771
25867W        W97450  24.712  24.550  12.971
25868W        W97451  40.040   8.810   1.286
25869W        W97452  26.665   7.892   1.215
25870W        W97453  24.061  34.202  13.950
25871W        W97454  23.843  32.384  11.069
25872W        W97455  43.960  40.792   3.219
25873W        W97456  23.165  23.310   4.060
25874W        W97457  17.158  42.316  14.826
25875W        W97458  12.427  18.596   1.208
25876W        W97459  32.620  41.473   2.114
25877W        W97460  31.221  10.351   1.836
25878W        W97461  35.904  19.294  12.582
25879W        W97462   9.202  30.154  12.396
25880W        W97463   9.033  29.446   0.247
25881W        W97464   6.874  34.404   1.621
25882W        W97465  24.173  18.976   2.868
25883W        W97466  39.439   7.209  14.340
25884W        W97467  25.635  20.565  11.183
25885W        W97468   1.216  42.206  11.472
25886W        W97469  33.472  41.582   3.793
25887W        W97470  13.897  39.356  12.234
25888W        W97471   7.266  13.787  13.102
25889W        W97472  39.605  15.270   1.232
25890W        W97473  15.520  43.302  11.738
25891W        W97474  33.578  33.599  14.940
25892W        W97475  26.140  25.561   0.432
25893W        W97476   5.417   6.139  13.219
25894W        W97477  40.885   4.984  12.014
25895W        W97478  33.380  20.652  11.415
25896W        W97479   1.803  42.340  14.731
25897W        W97480  40.445  22.027  11.137
25898W        W97481  15.723   5.559  11.066
25899W        W97482  11.829  31.602  11.546
25900W        W97483  21.747  24.538  12.495
25901W        W97484   3.270  21.250   1.880
25902W        W97485   3.746  26.989  11.686
25903W        W97486  16.985  44.752   3.359
25904W        W97487  41.237  17.961   2.143
25905W        W97488  38.930   0.549   0.342
25906W        W97489  27.761  31.314   0.982
25907W        W97490  27.923  43.696   3.829
25908W        W97491  33.286   4.667  12.087
25909W        W97492  10.303  14.721   0.966
25910W        W97493  41.711  25.282  11.920
25911W        W97494  15.635  28.144   0.403
25912W        W97495  33.298  44.751  13.372
25913W        W97496   1.787  37.364   2.886
25914W        W97497  11.203  34.101   1.644
25915W        W97498   2.887   3.648  11.163
25916W        W97499  30.508  35.998   2.795
25917W        W97500  25.215  36.442  12.530
25918W        W97501  38.641  28.534   3.688
25919W        W97502   9.129  10.256   2.867
25920W        W97503  16.813   7.325  12.094
25921W        W97504  21.784  32.156   4.561
25922W        W97505  21.936  40.059   0.804
25923W        W97506  30.380  11.851  13.390
25924W        W97507   3.634  17.514  14.944
25925W        W97508  43.843  22.966  11.857
25926W        W97509   9.932   4.249  13.839
25927W        W97510  42.010  31.585   4.905
25928W        W97511  31.866   0.407  11.595
25929W        W97512   7.829  25.197   3.384
25930W        W97513  13.656  10.875  12.516
25931W        W97514  21.152  26.649  13.010
25932W        W97515  17.067  29.545   2.270
25933W        W97516  42.342  20.569   0.962
25934W        W97517   0.488   0.776  11.462
25935W        W97518  28.833  40.755   4.242
25936W        W97519  18.179  25.970   0.408
25937W        W97520  29.672  38.932   0.804
25938W        W97521   4.050  31.423  13.369
25939W        W97522  44.796  33.407  14.094
25940W        W97523   6.941  43.454   2.180
25941W        W97524  34.603  22.214  13.262
25942W        W97525  37.776  41.810  10.417
25943W        W97526  31.668  21.467   0.851
25944W        W97527  10.338  15.409  11.239
25945W        W97528  39.034  19.081  11.183
25946W        W97529   3.035  20.574   2.146
25947W        W97530  30.168  23.589   3.642
25948W        W97531  11.648  14.310   0.478
25949W        W97532  25.319  13.309   1.061
25950W        W97533  15.532  31.551   1.875
25951W        W97534  42.403  10.827  13.471
25952W        W97535  19.840  27.371   3.235
25953W        W97536   1.368  19.003  11.051
25954W        W97537   3.779  44.113   0.371
25955W        W97538  33.965  32.434   1.700
25956W        W97539   5.532  26.878   3.749
25957W        W97540   4.690  20.565   2.783
25958W        W97541  43.039  13.843  10.653
25959W        W97542  23.676  37.065  10.711
25960W        W97543  44.141  35.391  12.193
25961W        W97544  24.059  27.193   1.695
25962W        W97545  26.630  11.497  10.584
25963W        W97546  34.419  33.533   2.274
25964W        W97547  16.761   2.522  14.801
25965W        W97548  15.710  31.699  14.749
25966W        W97549  39.025   7.027  10.576
25967W        W97550  43.340  20.220   1.356
25968W        W97551  23.663  16.335  12.158
25969W        W97552  39.404   9.340   1.453
25970W        W97553   5.297   8.132  11.531
25971W        W97554   9.269  43.795   0.165
25972W        W97555  41.878  41.901  10.783
25973W        W97556  39.351  24.963   1.953
25974W        W97557  19.322  31.626  11.277
25975W        W97558  18.032  31.801   0.559
25976W        W97559  36.662  42.501   0.674
25977W        W97560  26.981   8.400  13.111
25978W        W97561  42.998   8.720   0.847
25979W        W97562  29.094  31.242   5.365
25980W        W97563  38.312   1.749   1.372
25981W        W97564  33.438  22.736   2.845
25982W        W97565  22.605  18.675   2.749
25983W        W97566  12.755  10.091   1.496
25984W        W97567  25.374  28.316   2.140
25985W        W97568  40.315   0.011   1.095
25986W        W97569  24.468  36.126   3.259
25987W        W97570  10.959  30.491   4.536
25988W        W97571  40.140  34.915   1.911
25989W        W97572  27.723  29.923   3.677
25990W        W97573  16.412  36.106   1.757
25991W        W97574   1.141   9.069  14.418
25992W        W97575  14.710  28.540   3.607
25993W        W97576  22.516  13.857  12.560
25994W        W97577  25.900  11.921   1.032
25995W        W97578  38.081  10.110   4.107
25996W        W97579  37.629  35.874   4.723
25997W        W97580  24.686  13.683  10.541
25998W        W97581  35.884  19.049   3.715
25999W        W97582  26.118   2.952  11.890
26000W        W97583  39.419   6.626  11.312
26001W        W97584  34.143  31.952  13.339
26002W        W97585  23.103  21.146   0.838
26003W        W97586   2.843  39.385  11.197
26004W        W97587  33.064  22.678   1.071
26005W        W97588  18.996  42.247   1.755
26006W        W97589  18.733  13.141  12.077
26007W        W97590  22.690  19.614   0.236
26008W        W97591  34.000  29.614  11.755
26009W        W97592  39.497  33.794   3.795
26010W        W97593  39.996  22.548   1.372
26011W        W97594  14.799  33.130  14.326
26012W        W97595  34.683  39.127   0.485
26013W        W97596  35.808   9.989   2.340
26014W        W97597  39.363  32.164   0.787
26015W        W97598  41.817   8.116   1.761
26016W        W97599  15.166   3.429   1.179
26017W        W97600  19.313   6.402   0.426
26018W        W97601  13.192  22.480  11.841
26019W        W97602   0.551  38.052  12.502
26020W        W97603  20.565   7.350   4.621
26021W        W97604  21.636   9.284  11.429
26022W        W97605  13.850   5.306  12.001
26023W        W97606  28.081   6.641  13.806
26024W        W97607  44.431  19.691  14.996
26025W        W97608   6.454  31.262   4.875
26026W        W97609  20.982  11.203  13.210
26027W        W97610  41.995   2.065   2.695
26028W        W97611  44.493   5.261   3.995
26029W        W97612  43.491  22.130  14.840
26030W        W97613   1.776  10.563  14.719
26031W        W97614  31.693  13.574   0.741
26032W        W97615  13.128  34.925   4.194
26033W        W97616  28.036  21.608  13.501
26034W        W97617   5.173  17.656  14.823
26035W        W97618  13.178   0.521   4.538
26036W        W97619  20.966  31.206   2.168
26037W        W97620  34.419  23.099  10.523
26038W        W97621  34.022  13.400  13.115
26039W        W97622  41.819  38.955  14.479
26040W        W97623  26.516  26.998   2.395
26041W        W97624  29.022  32.968  13.117
26042W        W97625  31.979  24.403   2.159
26043W        W97626   1.910  29.373  12.198
26044W        W97627   0.720   1.954  14.891
26045W        W97628  44.434  35.011   3.650
26046W        W97629  15.337  42.050   2.404
26047W        W97630  12.581   4.234  13.449
26048W        W97631  30.477  40.938   4.721
26049W        W97632  44.332  38.744   0.413
26050W        W97633   0.794  25.506   1.386
26051W        W97634  33.835  18.342  13.728
26052W        W97635  37.902  42.227  14.709
26053W        W97636  24.770   3.623   1.668
26054W        W97637  20.595  26.178   1.670
26055W        W97638  33.450   4.240   0.969
26056W        W97639   0.295  36.846   1.384
26057W        W97640  11.408  38.943  14.035
26058W        W97641  21.419   0.010   2.688
26059W        W97642  28.565  22.120   3.164
26060W        W97643  41.479  44.979   2.427
26061W        W97644  35.049  15.047   2.207
26062W        W97645  43.716  19.532  10.773
26063W        W97646  41.060  34.904   4.148
26064W        W97647   8.569  40.479   0.836
26065W        W97648  12.304  11.245   4.559
26066W        W97649   0.973  42.364   4.630
26067W        W97650  25.251  16.533  11.727
26068W        W97651   5.248  41.540  13.275
26069W        W97652   2.422  16.635  13.352
26070W        W97653  37.927  24.186  10.656
26071W        W97654  22.789  32.078   1.649
26072W        W97655  43.070  19.368  12.619
26073W        W97656  22.641  44.412  13.681
26074W        W97657  14.081  26.106   4.044
26075W        W97658  31.687  23.957  14.509
26076W        W97659   8.223  20.747   1.257
26077W        W97660  20.758  18.749  13.437
26078W        W97661  24.843   6.189   1.489
26079W        W97662  13.601  17.018   4.249
26080W        W97663   6.274   9.222  12.435
26081W        W97664  14.392  11.749   3.192
26082W        W97665  21.192  31.775  14.117
26083W        W97666  13.119  26.211   1.947
26084W        W97667  22.009  30.171  12.887
26085W        W97668   1.523   3.219   4.177
26086W        W97669  17.560  42.822   5.304
26087W        W97670  35.916  14.825   4.535
26088W        W97671  12.074  23.703  10.689
26089W        W97672  37.856   0.686   3.232
26090W        W97673  16.838  36.874  11.083
26091W        W97674  12.573  13.604   2.481
26092W        W97675  19.094  35.104   1.236
26093W        W97676  19.876  30.157   0.155
26094W        W97677  13.143   7.230   4.116
26095W        W97678  20.067  19.211   4.748
26096W        W97679  30.586  21.200  12.420
26097W        W97680   7.350  23.193  12.475
26098W        W97681   5.268   2.393   4.338
26099W        W97682   6.671  28.647  14.260
26100W        W97683  23.205  16.515  11.931
26101W        W97684  13.107   2.339  13.471
26102W        W97685  19.330  11.374  13.884
26103W        W97686  13.758  12.599   3.567
26104W        W97687   3.273  40.453  14.417
26105W        W97688  33.376  26.029  10.661
26106W        W97689  20.251  40.299   1.299
26107W        W97690  23.039  32.872   2.332
26108W        W97691   1.585  41.659  12.990
26109W        W97692  12.585  37.131  11.277
26110W        W97693  14.211  15.371   1.498
26111W        W97694   2.298  22.612   3.335
26112W        W97695  44.766  17.237   1.141
26113W        W97696  42.477   6.182   0.840
26114W        W97697  34.543  34.583  14.643
26115W        W97698  22.827  30.256  13.881
26116W        W97699   5.618   6.523   0.960
26117W        W97700  36.618  37.055   0.309
26118W        W97701  29.914  23.581  12.442
26119W        W97702  23.658  12.150   2.234
26120W        W97703  30.710   4.109  11.008
26121W        W97704  36.643  22.252   4.601
26122W        W97705   0.938  26.153   3.113
26123W        W97706  41.653  16.182   4.504
26124W        W97707  27.047  26.063  13.165
26125W        W97708  16.270  14.824  13.770
26126W        W97709  29.656  44.789  12.081
26127W        W97710  18.639  40.809   1.634
26128W        W97711  35.736   9.398   2.332
26129W        W97712  16.175  28.560   3.708
26130W        W97713  20.668  30.693  14.311
26131W        W97714  41.149  30.166   3.795
26132W        W97715  43.380  11.563   0.836
26133W        W97716  32.815  29.458   3.604
26134W        W97717  41.694   1.869  10.396
26135W        W97718  19.730  26.634   1.588
26136W        W97719  13.598  33.394   4.169
26137W        W97720  35.530   6.672   1.666
26138W        W97721  22.033  20.751  13.810
26139W        W97722  39.777  17.694   1.919
26140W        W97723  24.881  35.809   1.949
26141W        W97724  37.153  26.524  14.671
26142W        W97725   2.975  44.313   2.140
26143W        W97726  39.747  27.934  14.270
26144W        W97727  44.322   1.156  10.780
26145W        W97728  11.331  32.828  11.067
26146W        W97729  20.368  11.911  11.993
26147W        W97730  17.109   3.819   3.714
26148W        W97731  36.824  41.255  13.817
26149W        W97732  17.633  26.477  14.899
26150W        W97733  13.364   6.846  11.567
26151W        W97734   7.141  28.070  12.941
26152W        W97735  27.089  34.573   3.199
26153W        W97736  21.134  18.958  13.053
26154W        W97737  22.752   5.861   1.824
26155W        W97738  40.786  10.880  14.944
26156W        W97739  15.388   1.186   3.680
26157W        W97740  17.786   3.743  14.854
26158W        W97741  26.847  40.632   5.142
26159W        W97742  14.821  30.380  13.910
26160W        W97743   8.948   9.137   3.813
26161W        W97744  23.594  15.690   3.218
26162W        W97745   2.872  18.167   3.718
26163W        W97746   1.440  16.866  14.213
26164W        W97747  32.151  10.356  13.506
26165W        W97748  44.315   1.560  12.966
26166W        W97749  27.806   1.163  11.345
26167W        W97750  13.775  34.837  12.338
26168W        W97751  43.092  11.760  11.148
26169W        W97752  24.627  27.614   2.313
26170W        W97753  14.252  44.462   3.281
26171W        W97754  24.376  31.497  10.827
26172W        W97755  42.150   6.255   3.616
26173W        W97756  37.013  26.445  10.658
26174W        W97757  41.318  29.759  14.438
26175W        W97758  42.843  43.818   1.916
26176W        W97759   5.453  16.906  13.563
26177W        W97760  32.832  28.933  10.673
26178W        W97761  26.153  25.413  10.537
26179W        W97762  35.130   4.829   1.502
26180W        W97763  20.543   6.884  13.863
26181W        W97764  37.779   4.362   2.823
26182W        W97765  43.482   4.259   3.368
26183W        W97766  23.010  44.913   4.311
26184W        W97767   0.437  37.940   3.602
26185W        W97768  17.308  17.663  12.100
26186W        W97769  37.353  31.916  14.353
26187W        W97770  36.427  39.616   4.809
26188W        W97771   7.376  43.346  13.908
26189W        W97772   5.198  44.555  12.118
26190W        W97773  17.506  39.481  12.358
26191W        W97774  16.581   2.962   3.123
26192W        W97775   0.468  38.381   2.317
26193W        W97776  25.788  19.035   1.896
26194W        W97777  18.750  12.699  10.411
26195W        W97778  28.966  41.912  14.204
26196W        W97779  22.794  43.476  11.198
26197W        W97780   1.847   2.474  13.849
26198W        W97781  16.553  30.594  13.319
26199W        W97782  19.375  31.607  14.298
26200W        W97783  28.238  39.270   0.848
26201W        W97784  34.374  24.748  11.034
26202W        W97785  15.354  32.607  12.433
26203W        W97786  29.463  33.559   4.256
26204W        W97787  22.733  32.818   2.760
26205W        W97788  21.653  24.754   1.303
26206W        W97789  44.617  18.014   2.204
26207W        W97790  16.718  24.264  11.907
26208W        W97791   2.075  14.618   4.042
26209W        W97792  22.473  28.239  13.500
26210W        W97793  34.444  27.916   3.225
26211W        W97794  28.753  35.955   4.535
26212W        W97795  22.727   5.308   1.268
26213W        W97796  37.605  19.188  14.975
26214W        W97797   5.232  21.701   3.842
26215W        W97798  37.277  21.550  11.076
26216W        W97799   0.354   9.930   2.837
26217W        W97800  33.997  18.325   4.746
26218W        W97801  19.843  29.593   3.660
26219W        W97802  26.982  39.982   0.858
26220W        W97803  12.694  13.671   4.818
26221W        W97804  20.690   1.908  12.002
26222W        W97805  20.797  16.272   0.424
26223W        W97806  21.305  15.092   1.413
26224W        W97807  11.719  43.275   2.396
26225W        W97808  43.275  23.336  14.410
26226W        W97809  37.050   5.581   3.723
26227W        W97810   4.770   0.551   0.858
26228W        W97811  25.851  20.160  14.960
26229W        W97812  29.003  21.019  10.230
26230W        W97813  26.597  10.776   0.252
26231W        W97814  36.624  27.063   3.725
26232W        W97815  40.466  40.012  12.065
26233W        W97816  25.728   3.820   0.755
26234W        W97817  25.949  33.557   4.093
26235W        W97818   7.389   4.896   3.173
26236W        W97819  29.196  34.535  10.370
26237W        W97820  43.328  40.562  11.040
26238W        W97821   4.300  41.243   3.304
26239W        W97822  31.360   1.746   0.334
26240W        W97823  19.600  15.651  13.381
26241W        W97824  37.043  37.542   3.394
26242W        W97825   0.773  33.142  14.687
26243W        W97826  31.199  22.678   0.523
26244W        W97827  42.523  32.177   3.632
26245W        W97828   3.204  25.882   2.209
26246W        W97829  37.833  32.825  11.064
26247W        W97830  15.185  43.879  14.681
26248W        W97831  34.128  18.360   2.834
26249W        W97832  39.831  42.124   1.907
26250W        W97833  12.188  20.244  14.501
26251W        W97834  33.193  24.498  11.600
26252W        W97835  35.516  31.838   3.656
26253W        W97836  19.365   3.368  12.887
26254W        W97837  27.573   4.184   4.305
26255W        W97838   6.670  43.030  10.321
26256W        W97839   2.227  32.563  14.797
26257W        W97840  16.145  12.243  11.054
26258W        W97841   9.922   0.871   1.403
26259W        W97842   7.900  11.815  10.412
26260W        W97843  30.795  17.957  12.583
26261W        W97844  36.375   5.690  13.529
26262W        W97845  17.385  18.708  11.046
26263W        W97846  19.632  22.570   3.065
26264W        W97847   4.503  10.284  13.603
26265W        W97848  31.842  23.021   4.351
26266W        W97849   0.401  23.171   2.786
26267W        W97850  26.066   8.229   0.969
26268W        W97851   4.947  32.612   3.241
26269W        W97852  13.351  31.794   4.172
26270W        W97853  11.187  39.853   2.172
26271W        W97854   5.036  15.978  14.184
26272W        W97855   3.849  14.133   4.970
26273W        W97856  37.243  16.546   1.139
26274W        W97857   0.984  20.156   4.545
26275W        W97858  35.352   6.541   2.140
26276W        W97859  18.142  30.971  13.020
26277W        W97860   3.699  29.581   1.611
26278W        W97861  25.747   7.375  11.049
26279W        W97862  10.709  26.105   3.149
26280W        W97863  23.005  30.525  13.463
26281W        W97864  41.397   5.159  12.088
26282W        W97865  33.012   2.423  13.934
26283W        W97866  43.378  23.410  12.680
26284W        W97867  38.808  29.601  11.399
26285W        W97868   2.365  36.434   3.528
26286W        W97869  26.775  41.535   1.781
26287W        W97870  21.729  34.040  13.915
26288W        W97871  26.966  22.481   3.613
26289W        W97872  23.087  20.218   4.508
26290W        W97873  14.109  20.360   2.737
26291W        W97874  27.692   7.478  13.814
26292W        W97875  29.993   7.740  10.508
26293W        W97876  37.048  42.029   3.291
26294W        W97877  12.791  34.522  12.060
26295W        W97878  23.559  14.339   2.791
26296W        W97879  18.541  15.781  12.848
26297W        W97880  30.545  38.156  13.621
26298W        W97881  38.468   2.009   1.813
26299W        W97882  19.137   4.779   0.822
26300W        W97883  18.207  34.335  13.887
26301W        W97884   7.312   3.285  13.318
26302W        W97885  21.131  12.050  13.002
26303W        W97886  21.167  11.588   0.874
26304W        W97887  34.815  29.025   2.797
26305W        W97888  26.701  26.290   0.414
26306W        W97889  11.185  17.798  10.629
26307W        W97890  29.641  10.279  10.689
26308W        W97891  12.705  23.970   0.269
26309W        W97892   1.234  16.320   4.324
26310W        W97893  30.979  41.354  14.599
26311W        W97894  43.996  22.393  13.794
26312W        W97895  17.019  14.808  12.579
26313W        W97896  14.733  44.698   1.701
26314W        W97897  41.571  24.561   0.422
26315W        W97898  20.076  23.694   0.065
26316W        W97899  41.828  39.291  13.438
26317W        W97900  30.558  21.658   0.718
26318W        W97901   0.970  19.822   2.801
26319W        W97902  38.009  42.018   3.828
26320W        W97903   0.920   3.518   5.089
26321W        W97904  14.559  14.843  10.723
26322W        W97905  11.705  26.122   0.966
26323W        W97906  16.833  35.799   1.936
26324W        W97907  19.330   5.756  11.227
26325W        W97908  10.374  10.051  14.927
26326W        W97909  27.523   2.689  11.392
26327W        W97910   2.360  43.534   3.703
26328W        W97911  40.059  40.355  11.488
26329W        W97912  16.996  41.492   2.352
26330W        W97913  26.680  13.841   3.904
26331W        W97914  22.740  24.902   3.259
26332W        W97915  10.254  35.324  12.372
26333W        W97916   3.859  28.635   3.067
26334W        W97917   5.154  38.035  12.374
26335W        W97918  25.181  37.370   3.790
26336W        W97919  19.536   2.898   2.276
26337W        W97920  34.556  43.498   4.485
26338W        W97921   3.341  37.757   5.002
26339W        W97922  26.258  27.898  11.153
26340W        W97923  39.297  35.161   4.130
26341W        W97924  30.901  19.799  12.487
26342W        W97925  44.991   4.426   2.264
26343W        W97926  31.598  29.074   2.667
26344W        W97927   1.280  11.868   2.286
26345W        W97928  30.962  10.285  12.113
26346W        W97929  26.936  35.924   4.257
26347W        W97930  22.793  31.555   1.424
26348W        W97931   0.922  43.262  13.242
26349W        W97932  10.576  12.776   2.729
26350W        W97933  25.565  20.197  12.604
26351W        W97934  21.818  32.051  11.746
26352W        W97935   1.545  38.913   5.148
26353W        W97936  19.495   1.911  11.094
26354W        W97937  32.101  39.414  12.257
26355W        W97938  37.937  16.055  11.922
26356W        W97939  21.728  11.769  11.212
26357W        W97940  10.158  29.398   3.181
26358W        W97941   0.177   1.192   3.673
26359W        W97942   8.872  15.024   2.306
26360W        W97943  21.935  23.825   3.569
26361W        W97944  20.711  23.688  10.977
26362W        W97945  32.371  14.853   1.875
26363W        W97946  15.755  11.359   0.951
26364W        W97947  17.551  27.597   0.916
26365W        W97948  17.587   9.601   0.310
26366W        W97949  34.563  22.583   4.504
26367W        W97950   1.415  24.981  11.923
26368W        W97951   4.362  41.836   0.462
26369W        W97952  32.524  35.379   1.879
26370W        W97953  19.229  31.131   2.678
26371W        W97954  10.900  32.486   2.730
26372W        W97955   0.278  39.929   1.161
26373W        W97956  19.331  21.637  13.423
26374W        W97957  28.115  33.405   2.409
26375W        W97958  15.046  25.999   2.714
26376W        W97959  21.492  16.174  14.930
26377W        W97960  43.356  25.897  11.352
26378W        W97961   0.951  11.142   1.786
26379W        W97962   6.306   9.089   3.678
26380W        W97963  31.986  27.088   0.482
26381W        W97964  39.015  25.012   0.673
26382W        W97965  33.434  32.379  12.995
26383W        W97966  20.693   0.196  11.488
26384W        W97967  25.641  28.466   0.787
26385W        W97968  25.742  42.998   1.453
26386W        W97969  43.324  35.957   3.178
26387W        W97970   3.443   7.304  11.574
26388W        W97971  41.450   5.719   0.252
26389W        W97972  22.294  16.707  14.256
26390W        W97973  36.476  27.393   3.362
26391W        W97974  14.962  35.836   4.955
26392W        W97975   6.919  38.289  13.002
26393W        W97976  13.343  41.893  12.531
26394W        W97977  33.588  37.808  14.966
26395W        W97978  10.694  42.061  14.955
26396W        W97979  37.938  16.620   3.623
26397W        W97980  10.426  13.702   0.279
26398W        W97981  38.900  25.803  11.791
26399W        W97982  36.849  12.687   0.702
26400W        W97983  36.480  27.968   3.658
26401W        W97984  40.975  42.486  13.843
26402W        W97985  19.066  10.237   1.805
26403W        W97986   4.914  22.108  13.489
26404W        W97987  29.603   3.672  13.088
26405W        W97988   9.911  29.743  13.497
26406W        W97989  17.570  25.958   1.187
26407W        W97990  26.258  13.241  12.890
26408W        W97991  44.297  22.921  10.909
26409W        W97992  10.885  20.981   4.520
26410W        W97993   8.420  26.251   1.029
26411W        W97994  10.005   8.587  11.011
26412W        W97995   4.104  29.678   1.303
26413W        W97996  32.517  40.486   1.684
26414W        W97997  15.732   0.403   1.001
26415W        W97998   2.504   8.281  11.534
26416W        W97999  40.012  38.363   0.655
26417W        W98000   7.790  11.759   1.253
26418W        W98001  31.444  12.756   0.476
26419W        W98002  40.062  17.163   0.600
26420W        W98003  17.383  12.187  14.682
26421W        W98004  28.601  37.559  11.782
26422W        W98005  30.519   1.517  11.517
26423W        W98006  30.145  35.420   0.465
26424W        W98007  29.199  19.571   1.795
26425W        W98008  34.741   6.127   4.046
26426W        W98009  36.969  20.670  10.872
26427W        W98010   8.363  16.354  12.809
26428W        W98011  10.391  11.241   3.061
26429W        W98012  42.327  28.601  14.032
26430W        W98013  25.586  17.297  12.095
26431W        W98014   2.500  41.605  13.825
26432W        W98015  42.535   7.113  11.940
26433W        W98016  17.634  29.427   4.851
26434W        W98017   7.129  23.541   0.942
26435W        W98018   5.963   4.464  14.336
26436W        W98019  43.307  25.160   3.071
26437W        W98020   2.117  17.712  11.110
26438W        W98021  36.883  33.911   4.705
26439W        W98022  20.701  24.676   3.851
26440W        W98023  14.303  41.329  10.695
26441W        W98024  12.529  24.959  11.632
26442W        W98025  10.239   8.803   3.340
26443W        W98026  38.890  30.438   0.003
26444W        W98027  33.623  37.136   2.235
26445W        W98028  32.303  43.516  11.126
26446W        W98029  42.022  25.040   4.523
26447W        W98030  26.175  25.142  11.884
26448W        W98031  12.093  22.029  13.985
26449W        W98032  30.497  26.635  13.180
26450W        W98033  30.399  24.975  14.008
26451W        W98034  39.282  19.550  14.231
26452W        W98035   6.383  24.581  12.094
26453W        W98036   1.782  33.527  14.759
26454W        W98037  41.415  13.772   1.565
26455W        W98038   4.353  14.766  12.347
26456W        W98039  15.528  44.873   0.224
26457W        W98040   8.262  32.835   0.347
26458W        W98041  31.441   3.959  13.021
26459W        W98042  36.666  22.937   0.852
26460W        W98043  10.141  11.919   0.408
26461W        W98044  27.635  42.329   3.579
26462W        W98045  37.857   5.673   3.284
26463W        W98046  43.350  26.640   0.872
26464W        W98047  18.552  28.160  13.824
26465W        W98048   6.208   4.202   4.296
26466W        W98049  13.754  15.593   3.524
26467W        W98050  37.018  21.960  11.931
26468W        W98051  41.164  24.498   2.334
26469W        W98052  13.667  38.963   4.377
26470W        W98053  28.338  13.285  10.475
26471W        W98054  21.704  16.719  13.799
26472W        W98055   6.434  21.169  12.364
26473W        W98056   2.562  36.361   5.587
26474W        W98057  43.941  15.644  13.477
26475W        W98058  11.801  25.140  12.113
26476W        W98059  42.364  10.598  12.973
26477W        W98060  12.728   3.240   4.853
26478W        W98061  29.522   0.051  11.628
26479W        W98062  35.761  12.518   4.379
26480W        W98063  22.138  20.141  13.980
26481W        W98064   3.443  40.599  13.938
26482W        W98065  39.532  41.001  11.942
26483W        W98066   5.478  33.593   4.560
26484W        W98067   0.033   6.671  13.495
26485W        W98068  22.774  14.497   4.952
26486W        W98069  20.629   7.679   2.403
26487W        W98070  29.085   8.781  12.783
26488W        W98071  27.225  35.519  12.037
26489W        W98072  10.047  23.118   1.122
26490W        W98073   2.170  19.781  11.556
26491W        W98074   7.875  24.560   0.849
26492W        W98075   8.319  12.169   4.276
26493W        W98076  40.043  30.006  11.929
26494W        W98077  43.042  15.631  11.293
26495W        W98078  37.835  30.094   0.870
26496W        W98079  41.991  31.977   1.645
26497W        W98080  36.641  21.550   1.846
26498W        W98081  13.909  15.085  14.784
26499W        W98082  22.269   3.507  13.487
26500W        W98083   7.354   9.923  12.623
26501W        W98084  17.666  10.858  11.051
26502W        W98085  15.200  19.748   1.215
26503W        W98086  16.655  14.190  12.056
26504W        W98087  29.657  27.475  12.971
26505W        W98088  29.807   9.150  12.905
26506W        W98089  26.162   2.661  12.337
26507W        W98090   2.011  12.137  11.083
26508W        W98091  22.423  14.111   2.419
26509W        W98092   3.028  39.364   0.246
26510W        W98093  10.636  37.373   0.206
26511W        W98094  21.718  17.583  13.875
26512W        W98095  31.013  20.198   0.801
26513W        W98096  22.265  20.954   3.168
26514W        W98097   7.281   2.354   1.424
26515W        W98098  17.025   5.973  12.043
26516W        W98099   3.173  29.161   2.847
26517W        W98100  35.363  21.139  12.556
26518W        W98101  31.129  10.872  11.013
26519W        W98102   7.682  41.570   4.492
26520W        W98103  17.372  21.187   2.817
26521W        W98104  21.557  21.309  11.052
26522W        W98105  11.175   0.369  11.429
26523W        W98106  24.121  12.183   1.366
26524W        W98107  33.608  24.572  12.841
26525W        W98108  35.363  37.067  12.166
26526W        W98109  10.270  13.204   2.787
26527W        W98110  43.733  36.628   1.525
26528W        W98111  37.444  18.000   0.902
26529W        W98112  41.813  31.703  12.909
26530W        W98113  22.008  17.079  10.085
26531W        W98114  23.421   0.784   5.199
26532W        W98115  16.162  13.364   0.918
26533W        W98116  33.400   0.985  10.718
26534W        W98117   0.364  23.031  11.671
26535W        W98118  35.462  36.073  14.896
26536W        W98119  26.255  28.415  13.866
26537W        W98120  40.991  17.159   3.089
26538W        W98121  42.104  31.753   1.159
26539W        W98122  28.248  22.208  11.010
26540W        W98123  36.758  13.181  14.096
26541W        W98124  17.792   6.037  11.113
26542W        W98125   2.861   8.055   3.749
26543W        W98126   3.300  42.482   2.562
26544W        W98127  34.183  13.141   3.634
26545W        W98128  38.371   2.538   1.715
26546W        W98129  44.007  11.311  11.689
26547W        W98130  37.538  44.183  11.820
26548W        W98131  19.532  43.983   4.042
26549W        W98132  22.020   8.998  10.713
26550W        W98133   9.172  43.148   4.900
26551W        W98134  31.822   6.351  13.359
26552W        W98135   1.952  29.652  13.558
26553W        W98136  19.188  35.163   0.182
26554W        W98137  25.136  31.059  14.066
26555W        W98138  21.830   6.869  10.259
26556W        W98139  33.633  20.789  12.481
26557W        W98140  39.317  37.925   2.777
26558W        W98141  43.447  17.562   4.207
26559W        W98142  31.067   3.068   0.480
26560W        W98143  29.693  33.021   0.994
26561W        W98144  36.054  28.358  11.054
26562W        W98145  27.218  22.009  14.731
26563W        W98146   7.818   1.992   1.716
26564W        W98147  26.669  42.198  13.855
26565W        W98148  16.600  21.048   2.252
26566W        W98149  19.656  11.120  11.162
26567W        W98150  22.620  13.743  10.681
26568W        W98151  43.937  41.855  13.501
26569W        W98152  36.428  13.580  14.225
26570W        W98153   0.997  21.184   3.675
26571W        W98154   8.984  26.942  13.464
26572W        W98155  34.593  30.598   3.882
26573W        W98156  38.936   0.392   3.194
26574W        W98157   5.257  27.622  12.835
26575W        W98158  18.050  15.200  10.623
26576W        W98159  31.025  35.996   2.111
26577W        W98160  12.425  42.338  10.621
26578W        W98161   0.229   4.366   1.794
26579W        W98162  27.527  43.331  13.719
26580W        W98163  28.507   4.472   1.684
26581W        W98164  18.226  37.811  13.062
26582W        W98165  12.109  37.798  13.396
26583W        W98166  35.406  25.029  13.087
26584W        W98167  27.132  34.372   4.636
26585W        W98168  35.123   3.872   4.452
26586W        W98169  12.300  38.106   2.261
26587W        W98170  41.893  40.318   2.860
26588W        W98171  18.997  12.596   4.943
26589W        W98172  12.590   8.250   1.709
26590W        W98173  20.795  11.701  13.216
26591W        W98174  23.135  38.547   4.894
26592W        W98175  11.699  23.572   4.168
26593W        W98176  37.950  35.894  14.371
26594W        W98177   9.220  30.562  10.313
26595W        W98178   4.914  34.081  11.660
26596W        W98179  17.676  29.572   0.454
26597W        W98180  12.759  23.190   4.784
26598W        W98181  24.048  20.908  14.640
26599W        W98182  28.919   8.421  12.420
26600W        W98183  25.017  30.007  12.969
26601W        W98184  42.281  33.120  14.443
26602W        W98185   1.847   3.178   2.576
26603W        W98186  16.560   9.870   2.322
26604W        W98187  24.473  13.142  12.418
26605W        W98188  40.292  40.840   4.598
26606W        W98189  24.736  25.079  14.324
26607W        W98190  26.770   7.664  14.375
26608W        W98191  17.338  36.325  14.303
26609W        W98192  21.219  23.966  11.930
26610W        W98193  29.638  12.181   1.425
26611W        W98194  31.091  11.141  13.264
26612W        W98195  32.333  34.425   4.559
26613W        W98196  44.191  40.745  12.467
26614W        W98197  24.141  31.044  10.669
26615W        W98198  44.701   0.885   0.450
26616W        W98199  20.703  24.130   0.463
26617W        W98200  34.179  19.134  13.932
26618W        W98201  33.420  22.961  14.288
26619W        W98202   2.317  19.459   1.504
26620W        W98203  18.726  22.783  14.658
26621W        W98204   1.000  42.894  12.885
26622W        W98205  39.821  15.350   3.770
26623W        W98206  15.241  41.734  10.594
26624W        W98207   6.101  24.722  14.397
26625W        W98208  10.297  12.068   0.883
26626W        W98209  13.053  23.259   2.102
26627W        W98210   0.323  30.890  14.762
26628W        W98211   3.807  40.981  12.531
26629W        W98212   8.924  28.054  14.541
26630W        W98213  25.567   0.649   0.287
26631W        W98214   4.809  18.627   0.160
26632W        W98215  36.201  10.749   2.833
26633W        W98216  27.848  31.966   1.473
26634W        W98217  10.437  40.086  11.024
26635W        W98218   8.211   9.896  12.575
26636W        W98219  29.548  36.079   0.302
26637W        W98220  24.142  30.498   1.792
26638W        W98221  24.251  20.596  12.409
26639W        W98222  19.297  30.596  13.432
26640W        W98223  18.967  36.821   0.280
26641W        W98224  15.359   3.938   1.249
26642W        W98225  11.214  17.209   4.069
26643W        W98226  12.162   1.814   3.515
26644W        W98227  30.847  10.617   3.648
26645W        W98228  29.935  34.355   9.680
26646W        W98229  43.584  36.447  12.141
26647W        W98230  24.378  31.935  12.430
26648W        W98231  26.270  40.504  13.465
26649W        W98232  35.867  33.489   3.346
26650W        W98233  28.642  28.861  12.816
26651W        W98234  42.996   6.729   2.242
26652W        W98235  25.133   7.581   0.363
26653W        W98236  25.146  33.994  14.958
26654W        W98237  30.819   9.875   4.058
26655W        W98238  16.345  15.430  13.038
26656W        W98239  17.650  37.892  10.972
26657W        W98240  38.931   1.142   2.844
26658W        W98241   0.348  12.288   1.415
26659W        W98242  15.865  31.794   3.358
26660W        W98243   7.406  24.226  13.438
26661W        W98244   0.846   1.558  11.223
26662W        W98245   8.356  29.504  12.632
26663W        W98246   1.383  27.608  11.628
26664W        W98247  11.506   1.402  11.521
26665W        W98248  28.137   0.678  11.068
26666W        W98249  24.207  35.666  10.505
26667W        W98250  29.571   4.358  12.061
26668W        W98251  25.454  44.862   3.227
26669W        W98252  12.101  33.293  14.416
26670W        W98253  37.808  32.163   2.993
26671W        W98254  29.667  43.339   4.117
26672W        W98255  19.306  37.493   4.178
26673W        W98256  29.171  20.292   2.657
26674W        W98257  29.497   3.002   2.241
26675W        W98258  19.053  42.888  14.041
26676W        W98259  40.018  37.650  11.169
26677W        W98260  33.931   4.140  13.139
26678W        W98261  22.965  38.010   0.506
26679W        W98262  18.265   8.750   1.479
26680W        W98263  24.823  12.742   4.535
26681W        W98264  16.368  34.026   1.964
26682W        W98265  32.608  23.427   2.907
26683W        W98266  30.123  36.999   4.217
26684W        W98267  20.375   7.349  13.446
26685W        W98268  24.443  13.765   0.221
26686W        W98269  24.721  33.595   1.868
26687W        W98270   5.007   6.566  12.584
26688W        W98271  41.009  27.755  12.885
26689W        W98272  27.012   8.080   1.540
26690W        W98273  10.187  28.525  14.168
26691W        W98274  32.557   1.350  13.419
26692W        W98275  36.351  39.278  11.590
26693W        W98276  36.030  10.896  12.881
26694W        W98277  41.625  17.142   9.967
26695W        W98278  19.955  42.563  14.122
26696W        W98279  32.386  25.045   1.697
26697W        W98280   9.705  11.651   0.356
26698W        W98281  26.854  38.263   1.325
26699W        W98282  11.447  27.364  13.417
26700W        W98283  42.482   2.120  10.681
26701W        W98284   5.802  41.880  10.192
26702W        W98285   0.812   7.942  11.173
26703W        W98286   4.294  11.083  11.503
26704W        W98287  34.340  29.949   4.631
26705W        W98288   6.215  11.192   3.742
26706W        W98289  37.562  27.344   1.282
26707W        W98290  16.320  37.543   2.904
26708W        W98291   7.030  11.067   1.327
26709W        W98292  41.229   4.862  13.864
26710W        W98293  21.453  44.018   3.751
26711W        W98294   4.868  25.457   1.375
26712W        W98295  43.766  29.910  14.520
26713W        W98296  14.104  17.638   0.415
26714W        W98297  41.097   7.913   4.607
26715W        W98298  34.509   3.010   0.493
26716W        W98299  15.321  40.447  14.716
26717W        W98300  39.918  35.469   1.801
26718W        W98301  23.967   2.779   4.774
26719W        W98302  15.150  24.100   0.817
26720W        W98303  16.627  37.022   3.223
26721W        W98304  18.283  19.666   2.936
26722W        W98305  19.558  33.792   2.254
26723W        W98306  40.317  22.727   2.640
26724W        W98307  37.948  12.091   4.809
26725W        W98308  44.655  36.204  13.093
26726W        W98309   7.923  19.078  14.963
26727W        W98310  15.037  12.133   1.319
26728W        W98311  14.615  37.841   2.682
26729W        W98312   8.686   1.945  12.427
26730W        W98313  42.909   0.585   3.455
26731W        W98314  11.855  31.219   3.387
26732W        W98315  14.570   7.400  12.797
26733W        W98316   7.262  34.923  12.914
26734W        W98317  26.481  24.957   2.392
26735W        W98318  27.511  22.015   4.589
26736W        W98319  20.719  33.478  14.375
26737W        W98320  41.661  28.073   2.282
26738W        W98321  14.875  34.590   3.188
26739W        W98322  23.682  28.198   3.680
26740W        W98323  28.695   9.728   4.504
26741W        W98324  39.000  14.707   3.592
26742W        W98325  21.161   0.749  10.777
26743W        W98326  31.802  15.227  13.855
26744W        W98327  39.490  38.361   3.163
26745W        W98328  38.487  42.616   2.784
26746W        W98329  39.638   6.953  12.127
26747W        W98330  34.871   3.754   2.307
26748W        W98331  20.722  34.996  12.358
26749W        W98332   2.338  39.684   4.994
26750W        W98333  38.260   4.622   1.822
26751W        W98334   8.644   2.268   1.728
26752W        W98335  31.928  20.204   0.348
26753W        W98336  11.699   7.285  14.462
26754W        W98337   1.581   9.330  13.981
26755W        W98338  25.045  27.573   3.123
26756W        W98339  31.715  23.188  12.817
26757W        W98340  32.922   3.234  10.689
26758W        W98341   8.470   2.450   2.949
26759W        W98342  10.215   3.826   0.121
26760W        W98343   5.896  35.606   1.934
26761W        W98344  39.509   4.656   1.380
26762W        W98345   4.480  36.020  12.884
26763W        W98346   2.280  16.925   1.892
26764W        W98347   0.983  13.335  13.251
26765W        W98348  15.117  25.381  14.114
26766W        W98349  30.981  34.782  12.844
26767W        W98350  25.001  12.145   1.958
26768W        W98351  30.180   9.671  14.035
26769W        W98352  32.850  29.102   4.749
26770W        W98353  11.173  21.716  11.128
26771W        W98354  39.111  31.667   1.802
26772W        W98355  27.157   9.614   3.450
26773W        W98356   4.303  43.919  10.611
26774W        W98357  39.600   9.201  13.684
26775W        W98358   6.673  43.908   4.340
26776W        W98359  42.244   3.283   4.349
26777W        W98360  23.340  25.272  12.491
26778W        W98361  19.069  14.050   1.816
26779W        W98362  41.650  14.577  11.937
26780W        W98363  14.384  14.802  14.732
26781W        W98364  23.686   5.837  11.937
26782W        W98365   6.220  29.025   2.771
26783W        W98366  43.386  38.790   3.310
26784W        W98367   7.870  26.117  12.186
26785W        W98368  39.560  17.264  13.261
26786W        W98369  27.509  41.964   4.422
26787W        W98370  17.133   0.766   1.654
26788W        W98371  13.711  13.503   4.315
26789W        W98372  33.469   9.704   4.827
26790W        W98373  35.595   0.813   3.133
26791W        W98374  34.379  20.224   0.996
26792W        W98375   3.866  38.986   0.132
26793W        W98376   6.980  11.776   4.841
26794W        W98377  24.697   1.416   3.921
26795W        W98378   0.242   1.014   3.155
26796W        W98379   8.255  19.037   2.149
26797W        W98380  36.026  34.840   3.315
26798W        W98381  35.147  44.616   4.062
26799W        W98382  35.093  11.756   4.657
26800W        W98383   8.249  27.052  13.130
26801W        W98384  30.905   5.134   2.735
26802W        W98385  40.322  36.391  10.704
26803W        W98386  17.535   3.737   4.862
26804W        W98387  30.691  20.786  11.529
26805W        W98388   3.484   8.168   1.851
26806W        W98389   0.760  25.661   0.394
26807W        W98390  17.283  28.638   2.799
26808W        W98391  12.931  17.665  11.583
26809W        W98392  44.249  31.175   2.984
26810W        W98393   0.049  41.937  14.467
26811W        W98394   3.295  26.987   0.549
26812W        W98395  18.239  42.362   4.072
26813W        W98396   2.355   3.654   3.274
26814W        W98397  23.775  11.660   2.230
26815W        W98398   4.347  14.339   4.790
26816W        W98399  42.222  10.320   3.074
26817W        W98400  22.108  18.162   2.414
26818W        W98401  13.331  17.700   0.555
26819W        W98402  17.858  18.732   4.819
26820W        W98403  21.789  15.666  14.835
26821W        W98404  39.890  24.993   3.655
26822W        W98405  16.730  15.121   0.640
26823W        W98406  27.229  43.303  10.853
26824W        W98407  39.906   3.816   0.852
26825W        W98408   9.936  35.506   0.914
26826W        W98409   0.893  40.564   2.607
26827W        W98410  23.357  11.130  13.336
26828W        W98411  28.956  23.611   3.254
26829W        W98412  24.223   0.845  11.466
26830W        W98413  25.208  37.029  11.982
26831W        W98414   0.878  22.755  14.392
26832W        W98415  32.583  23.716   1.944
26833W        W98416  17.367  38.495  11.824
26834W        W98417  11.374  38.491  14.737
26835W        W98418  22.155   6.664   4.647
26836W        W98419  28.950  10.143   1.893
26837W        W98420  33.812   6.768  13.012
26838W        W98421  39.429  15.749   1.288
26839W        W98422  44.801   3.972   3.146
26840W        W98423  27.563  27.994  13.581
26841W        W98424  27.991  41.870  14.340
26842W        W98425  15.224   2.918   1.019
26843W        W98426  26.893  15.235  12.960
26844W        W98427  28.569  20.989   1.965
26845W        W98428  25.959   1.994   1.219
26846W        W98429  12.105  11.572  13.046
26847W        W98430  11.672  33.916   1.280
26848W        W98431  43.565  39.581  13.288
26849W        W98432  27.708  14.387   0.175
26850W        W98433  20.676  24.601  11.177
26851W        W98434  34.284  32.510   2.727
26852W        W98435   6.468  27.150   1.747
26853W        W98436  13.793   1.309  11.716
26854W        W98437  22.891   2.285   3.205
26855W        W98438  14.599  37.690  14.314
26856W        W98439  20.558  33.548   2.387
26857W        W98440  43.060  34.441   1.275
26858W        W98441  44.720  30.059  13.771
26859W        W98442  17.101   4.422   0.855
26860W        W98443  35.348   6.946   2.535
26861W        W98444  15.758  30.052  14.310
26862W        W98445  41.950  22.148   2.675
26863W        W98446  26.106  16.827  11.534
26864W        W98447  25.495  19.048  12.967
26865W        W98448  16.607  37.354   1.659
26866W        W98449  32.911   6.432   2.938
26867W        W98450  39.839  27.883  12.603
26868W        W98451   0.603  44.221   2.495
26869W        W98452  24.515  14.285  10.652
26870W        W98453  15.072   9.638  12.011
26871W        W98454  44.950  44.069   0.057
26872W        W98455   4.374  43.573   4.142
26873W        W98456  38.133   5.740   0.021
26874W        W98457  27.070  26.839  11.544
26875W        W98458  28.360  29.962  11.286
26876W        W98459  37.405  39.073   2.911
26877W        W98460   6.414   4.177  12.967
26878W        W98461  30.314  24.508   1.705
26879W        W98462   7.139  15.051   4.595
26880W        W98463   6.112  33.724   2.479
26881W        W98464  16.003  35.462   4.598
26882W        W98465   0.940  17.615   1.365
26883W        W98466  29.569  16.294   3.518
26884W        W98467  43.710  18.651  10.644
26885W        W98468   5.699  16.357   0.379
26886W        W98469  26.281  19.272  14.841
26887W        W98470  14.376  32.895   3.365
26888W        W98471  29.997   8.101  11.989
26889W        W98472   3.424  36.263  14.479
26890W        W98473  22.074  17.125   5.119
26891W        W98474  28.466   5.328   0.422
26892W        W98475  31.304  18.081   4.165
26893W        W98476  44.674  18.504   3.386
26894W        W98477  43.952  36.360   3.692
26895W        W98478  31.043  36.104   1.279
26896W        W98479  39.851  33.245  10.861
26897W        W98480  30.235  40.973  14.703
26898W        W98481  29.984  16.110  14.394
26899W        W98482  17.634  31.904   1.525
26900W        W98483  22.515  44.884   4.189
26901W        W98484  24.102  21.673  13.072
26902W        W98485  24.877  41.352   2.148
26903W        W98486  19.273  14.051  13.089
26904W        W98487  33.701  36.508  11.590
26905W        W98488   5.926  22.142   4.385
26906W        W98489  24.281  21.949   4.461
26907W        W98490  44.154  40.434   1.746
26908W        W98491   2.963  20.156  14.732
26909W        W98492  25.911  29.049  10.704
26910W        W98493  22.576  32.033   4.525
26911W        W98494   1.700  12.660  13.992
26912W        W98495  42.022   5.765  13.846
26913W        W98496  20.263  27.261   0.959
26914W        W98497  32.895  26.136  13.803
26915W        W98498  21.278  36.786  14.605
26916W        W98499   5.496   7.798   0.452
26917W        W98500   9.752  17.080  11.469
26918W        W98501   0.129   4.331   0.879
26919W        W98502  10.008  25.275  10.543
26920W        W98503  24.264  21.015   2.816
26921W        W98504  21.784  38.358   1.040
26922W        W98505  43.393  42.627  11.060
26923W        W98506   0.186   6.107  13.109
26924W        W98507   8.975  12.849   3.909
26925W        W98508  27.614  28.234   3.858
26926W        W98509  29.967  13.563  12.071
26927W        W98510  17.817   4.234  12.224
26928W        W98511  27.948  21.599  10.698
26929W        W98512  22.086  29.966   3.248
26930W        W98513  19.081  34.602   1.289
26931W        W98514  21.637  33.437   1.538
26932W        W98515   1.671  35.926  12.437
26933W        W98516  31.433  19.572   5.003
26934W        W98517  30.653  33.443  12.860
26935W        W98518   2.883  36.592  13.925
26936W        W98519  37.167  23.410   1.767
26937W        W98520  33.862  30.366   0.254
26938W        W98521  27.702  27.513  11.973
26939W        W98522   1.998  10.877   1.738
26940W        W98523   7.725  22.576   1.727
26941W        W98524  15.533  29.000   3.674
26942W        W98525  37.546  38.387  13.925
26943W        W98526  43.019  36.398  13.157
26944W        W98527  15.908  23.573  13.888
26945W        W98528   2.036  38.047  13.323
26946W        W98529  43.533  32.516   1.920
26947W        W98530   4.365   8.163   4.312
26948W        W98531  14.543  36.061  11.572
26949W        W98532  40.606   0.164  12.108
26950W        W98533  11.578   8.629   2.895
26951W        W98534  12.877  13.951   2.871
26952W        W98535  18.887   1.286   2.810
26953W        W98536  14.324  32.346   3.684
26954W        W98537   2.441   6.181   3.393
26955W        W98538  16.831  27.207   4.665
26956W        W98539  22.318  40.732  14.892
26957W        W98540  31.374  12.564  13.562
26958W        W98541  27.956  44.913   3.354
26959W        W98542  41.286  44.005   0.644
26960W        W98543  26.024  17.352   3.534
26961W        W98544  24.282  14.271   1.293
26962W        W98545  25.110   0.057  13.814
26963W        W98546  30.442   2.249   2.731
26964W        W98547  34.627  24.071   2.408
26965W        W98548  25.105  28.625  14.475
26966W        W98549  33.941   4.944  11.565
26967W        W98550  26.036  22.619   0.705
26968W        W98551   4.842  32.155  14.855
26969W        W98552  43.449   4.752   3.134
26970W        W98553   2.960  10.922  14.435
26971W        W98554  44.949  29.612  10.905
26972W        W98555  41.622  24.052   2.759
26973W        W98556  23.577  14.839   2.653
26974W        W98557  27.258  34.371  13.494
26975W        W98558  27.055  42.378  12.981
26976W        W98559   9.776  32.692  10.726
26977W        W98560   4.296  35.127   4.625
26978W        W98561   6.942  15.202  11.162
26979W        W98562   3.434  16.543   2.239
26980W        W98563  22.308  30.955  14.053
26981W        W98564  40.910  33.352   0.300
26982W        W98565  17.257  38.598  13.333
26983W        W98566   8.424  27.999   3.014
26984W        W98567   2.861  16.853  13.070
26985W        W98568  29.869   5.672   4.590
26986W        W98569  17.131   7.251   3.577
26987W        W98570  15.764  42.928   3.698
26988W        W98571  18.078  28.403  10.838
26989W        W98572  31.325  10.847  14.533
26990W        W98573   4.345  24.758   4.668
26991W        W98574   9.318  19.299   4.097
26992W        W98575  25.227  20.310  11.340
26993W        W98576  36.503  36.340   3.865
26994W        W98577   0.303   9.387   1.404
26995W        W98578  31.358  10.208  11.764
26996W        W98579  26.155   8.538   0.543
26997W        W98580  44.612  21.236  14.805
26998W        W98581  28.911  12.333   4.136
26999W        W98582   8.891  32.111  10.539
27000W        W98583  37.858  26.102   2.314
27001W        W98584  39.227  29.569  12.147
27002W        W98585  30.171  28.920   2.003
27003W        W98586  27.786   3.976  11.078
27004W        W98587  35.353  36.418  12.053
27005W        W98588   7.907  32.473  10.736
27006W        W98589  35.033  15.378  11.573
27007W        W98590  29.736   9.771   1.743
27008W        W98591  37.802  10.736   1.157
27009W        W98592  28.128   4.775   3.587
27010W        W98593  44.391  25.521   3.763
27011W        W98594  27.782  41.447   1.710
27012W        W98595  38.826  20.547  11.523
27013W        W98596  44.078  35.523   0.947
27014W        W98597  32.190  38.111  13.939
27015W        W98598  28.579  34.934  10.101
27016W        W98599   9.865   6.191  10.990
27017W        W98600   8.240  42.536  11.525
27018W        W98601  35.358  12.587   3.566
27019W        W98602  41.557  40.112  14.810
27020W        W98603  44.559   8.146   3.572
27021W        W98604   9.802  38.348  13.757
27022W        W98605  10.414  34.506   2.304
27023W        W98606  15.770  41.273  11.710
27024W        W98607  17.075  34.366  14.486
27025W        W98608  37.394  17.078  12.830
27026W        W98609  41.487  37.495  13.498
27027W        W98610  31.393  13.642   3.141
27028W        W98611  38.973  34.009  11.897
27029W        W98612  31.317   5.422  11.953
27030W        W98613  24.598  38.371   0.924
27031W        W98614  10.712  17.166  11.120
27032W        W98615  25.953  28.423   1.220
27033W        W98616   6.325   6.658  13.893
27034W        W98617   4.917   3.517  14.974
27035W        W98618  23.277  34.071  11.519
27036W        W98619  10.135  26.160  14.311
27037W        W98620  26.973  23.075  14.032
27038W        W98621  16.202   9.966   2.682
27039W        W98622  40.921  10.707  12.179
27040W        W98623   0.993   7.701  11.617
27041W        W98624   7.091   3.769   1.377
27042W        W98625  33.016  31.319   3.098
27043W        W98626  37.199  16.219  11.410
27044W        W98627  14.655  25.941   0.921
27045W        W98628  26.574  40.064  12.953
27046W        W98629   5.050  37.515   5.098
27047W        W98630  29.874  22.564   2.640
27048W        W98631  11.070  44.870  11.495
27049W        W98632  11.239  41.513  10.739
27050W        W98633   8.824  16.591  10.663
27051W        W98634  30.051  43.502  14.767
27052W        W98635  11.853  15.826   9.998
27053W        W98636  34.965  36.344  14.926
27054W        W98637  12.774  34.077  14.339
27055W        W98638   2.847  20.130   0.240
27056W        W98639  14.735  24.397   0.876
27057W        W98640  17.555  32.623  14.001
27058W        W98641  38.048  31.649  12.605
27059W        W98642   8.435  27.006   3.117
27060W        W98643  25.579  35.100  10.267
27061W        W98644  36.254  23.920  14.150
27062W        W98645  15.838  35.769   2.424
27063W        W98646  39.152  17.205   2.763
27064W        W98647  23.024   4.498  11.048
27065W        W98648  16.456   8.705   4.421
27066W        W98649   6.394  42.706   2.143
27067W        W98650   6.822  11.720   3.379
27068W        W98651  10.736  15.587  13.903
27069W        W98652  22.246   7.899  13.968
27070W        W98653  35.994   9.873   4.486
27071W        W98654  10.316  39.424  14.517
27072W        W98655  20.615  19.673  14.380
27073W        W98656  18.276  32.189  12.027
27074W        W98657   8.862   2.841   2.611
27075W        W98658  20.306  26.117   4.096
27076W        W98659  39.429   1.149   2.646
27077W        W98660   5.759   6.496  13.032
27078W        W98661  32.933   8.321   0.888
27079W        W98662   9.497   1.292  13.846
27080W        W98663  41.003   2.842  13.554
27081W        W98664  42.511   5.671  12.923
27082W        W98665  21.676  25.785  11.970
27083W        W98666  25.026  24.257   1.103
27084W        W98667  40.627  35.884  12.330
27085W        W98668  43.337  11.939  14.855
27086W        W98669  21.160  10.829   3.841
27087W        W98670  16.027   1.828  11.148
27088W        W98671  39.489  39.404  10.747
27089W        W98672  10.358  28.911   3.164
27090W        W98673  26.059  39.323  12.969
27091W        W98674   1.904   4.270   1.967
27092W        W98675  25.500  36.465  14.870
27093W        W98676  24.291  19.584   1.550
27094W        W98677  39.025   1.442  14.869
27095W        W98678   1.329  23.604   4.653
27096W        W98679  33.123  29.858   0.675
27097W        W98680  29.125  19.264   2.704
27098W        W98681  39.697  28.276  10.472
27099W        W98682  18.652  14.855   4.436
27100W        W98683  34.589  36.058   3.602
27101W        W98684   4.450   9.820  12.767
27102W        W98685  32.322  13.596  10.692
27103W        W98686   7.721  14.528   0.802
27104W        W98687  29.721  21.554  13.826
27105W        W98688  25.869  22.507   2.719
27106W        W98689  10.352  17.217  10.687
27107W        W98690  38.548  34.291   4.227
27108W        W98691  44.322   7.240   4.116
27109W        W98692  25.566   7.275   0.312
27110W        W98693  27.654  10.772   3.664
27111W        W98694   8.367  30.102   1.321
27112W        W98695  32.605   5.703  11.575
27113W        W98696  34.896  32.957   3.961
27114W        W98697  34.676  17.642  12.042
27115W        W98698   3.007   4.568   0.917
27116W        W98699  30.200  12.339   2.262
27117W        W98700  28.430   5.106  10.563
27118W        W98701  36.914  43.562  11.506
27119W        W98702  28.085  13.636  14.023
27120W        W98703  35.349  23.530  12.485
27121W        W98704  44.929  15.191  11.584
27122W        W98705  28.506   8.717  10.568
27123W        W98706   2.913   3.303  13.292
27124W        W98707  31.573  10.159   5.137
27125W        W98708  30.725  17.120   3.436
27126W        W98709  37.576   0.287   1.212
27127W        W98710  14.941  31.619  12.358
27128W        W98711  39.967   1.699  13.334
27129W        W98712  27.968  42.890  10.746
27130W        W98713   5.146  19.089  12.053
27131W        W98714  34.648  36.485   3.207
27132W        W98715  13.158  33.432   1.188
27133W        W98716  10.242  15.797   2.804
27134W        W98717  25.447  35.968  12.463
27135W        W98718  24.232   9.700   0.241
27136W        W98719   1.069   0.874   5.071
27137W        W98720  25.497  12.218   1.810
27138W        W98721  32.520  20.824   1.721
27139W        W98722  35.094  20.242  14.625
27140W        W98723  41.001  10.383   2.468
27141W        W98724  36.413  35.027  10.767
27142W        W98725  40.976  27.433  13.328
27143W        W98726  34.066  12.029  11.262
27144W        W98727  36.605  11.869  13.857
27145W        W98728   6.152   1.276  14.279
27146W        W98729  42.423  19.738  10.473
27147W        W98730  15.236  19.679   0.258
27148W        W98731  18.568  34.422  12.976
27149W        W98732  42.287  36.344   1.349
27150W        W98733  16.717  29.136  12.233
27151W        W98734  20.500  43.000  14.814
27152W        W98735  29.999  20.588   3.249
27153W        W98736   7.887  43.309  11.165
27154W        W98737  21.499  39.096  14.955
27155W        W98738  22.648  19.290   4.402
27156W        W98739  12.327  37.410   4.861
27157W        W98740   3.216  41.096  11.553
27158W        W98741  21.454  42.416  13.980
27159W        W98742  27.465  16.138  10.476
27160W        W98743  20.229   6.361  10.535
27161W        W98744  22.018  43.425  10.881
27162W        W98745   6.361   9.377   1.975
27163W        W98746  18.721  26.194   4.031
27164W        W98747  19.108  38.398  12.543
27165W        W98748   1.455  32.906   3.590
27166W        W98749  32.323  32.522  11.026
27167W        W98750  37.797  28.328   9.891
27168W        W98751  23.590  26.924   4.181
27169W        W98752  13.850  10.539   2.515
27170W        W98753  15.771  35.919   3.332
27171W        W98754  37.761  20.166  12.311
27172W        W98755   0.645   9.390  13.583
27173W        W98756  26.580  28.505  12.969
27174W        W98757   7.912  27.672   1.786
27175W        W98758   2.264  18.922  14.147
27176W        W98759  15.675  14.133   1.171
27177W        W98760  16.505  21.006  13.591
27178W        W98761  18.345   4.720  13.936
27179W        W98762   6.369  40.804   3.557
27180W        W98763  39.818  22.606   0.143
27181W        W98764  14.099  23.789  11.140
27182W        W98765  25.958  40.254  14.995
27183W        W98766  24.724  18.771   0.360
27184W        W98767  20.611  13.337   3.214
27185W        W98768  37.862  34.624   4.197
27186W        W98769  33.762   5.547  14.427
27187W        W98770   9.789  12.298   0.876
27188W        W98771  33.602  20.178   4.521
27189W        W98772  10.750  40.168  14.651
27190W        W98773  39.132  41.030   2.770
27191W        W98774  10.449  28.174  13.175
27192W        W98775  13.756  38.368  14.959
27193W        W98776   4.105  30.869   1.939
27194W        W98777  28.146   7.308  10.153
27195W        W98778  35.526   8.396  14.837
27196W        W98779  31.514   7.760  12.494
27197W        W98780  33.325  20.554  11.902
27198W        W98781   1.390  10.359  14.994
27199W        W98782  29.134  16.648  14.551
27200W        W98783  14.258  23.534   0.784
27201W        W98784  36.447  36.320  11.015
27202W        W98785   2.014  41.847   0.980
27203W        W98786  26.578   5.344   0.835
27204W        W98787  37.473  16.318   3.638
27205W        W98788   0.749   5.882   2.481
27206W        W98789  17.519  11.169   1.434
27207W        W98790  38.193  14.047  10.149
27208W        W98791   9.671  39.678  13.411
27209W        W98792  11.871   6.975   1.284
27210W        W98793  25.406  30.888  11.508
27211W        W98794   3.273  42.527  14.394
27212W        W98795  33.398  36.099  12.957
27213W        W98796   3.035  44.960  14.423
27214W        W98797  13.235   2.840   2.889
27215W        W98798  36.711  42.927   1.156
27216W        W98799  17.270   4.491   1.836
27217W        W98800  29.348  12.713  14.508
27218W        W98801  19.936  20.048  13.802
27219W        W98802  33.900  21.113  11.548
27220W        W98803  37.915  22.654  10.657
27221W        W98804  20.114  15.227  12.791
27222W        W98805  31.987  36.031  14.954
27223W        W98806  39.403  37.526  12.490
27224W        W98807   3.977  30.956  11.750
27225W        W98808  31.460  13.840  14.362
27226W        W98809   7.351   4.980  14.787
27227W        W98810  43.588  22.272   4.136
27228W        W98811  43.508  15.653  10.876
27229W        W98812  21.141  33.528  12.827
27230W        W98813  42.365  18.262   4.684
27231W        W98814  30.123  40.089  11.585
27232W        W98815  21.878  11.787   1.399
27233W        W98816  20.992  33.231   2.333
27234W        W98817  39.119  10.171   3.307
27235W        W98818  19.672  22.797   3.942
27236W        W98819  13.206   4.632  14.222
27237W        W98820  28.358  36.016   3.615
27238W        W98821  15.844  20.005   2.011
27239W        W98822  42.202  42.347   3.788
27240W        W98823  16.971   6.353  11.239
27241W        W98824  32.412   6.975   3.666
27242W        W98825   8.232  28.204  10.784
27243W        W98826  13.567  34.030   1.769
27244W        W98827  30.995  21.936   4.878
27245W        W98828  18.781  36.155  14.026
27246W        W98829   5.998  22.140   3.109
27247W        W98830  26.782  20.119  11.256
27248W        W98831  26.395  33.877   4.174
27249W        W98832  16.237   8.155  11.333
27250W        W98833  25.126  40.018   3.436
27251W        W98834  25.747  24.490  13.782
27252W        W98835  33.907  35.880  14.002
27253W        W98836   3.960  35.546   0.680
27254W        W98837   0.104  31.157   2.446
27255W        W98838  37.136  19.084   2.211
27256W        W98839  35.399  19.644   1.302
27257W        W98840  35.315  13.079   0.449
27258W        W98841  14.241  44.749   1.197
27259W        W98842  27.710  36.988   0.769
27260W        W98843  42.047  30.190  11.436
27261W        W98844   0.356  24.621   1.291
27262W        W98845  11.895  11.147  12.879
27263W        W98846  15.189  16.144   4.809
27264W        W98847   1.780  38.076   2.126
27265W        W98848   4.057  25.347  14.372
27266W        W98849   8.868  23.324  13.904
27267W        W98850   1.940  13.086  14.945
27268W        W98851  13.033  40.895   1.990
27269W        W98852  42.095   6.244  14.021
27270W        W98853   0.217  36.967  12.928
27271W        W98854   2.792   5.931  12.537
27272W        W98855  32.250  25.724  11.131
27273W        W98856  12.343   9.700   4.634
27274W        W98857  43.511  31.222   1.036
27275W        W98858   9.766  25.090   2.034
27276W        W98859   1.908  29.295   4.924
27277W        W98860  26.531   2.737   2.199
27278W        W98861  38.986  40.273  12.657
27279W        W98862  28.970   7.754   0.945
27280W        W98863  31.146  36.725  12.812
27281W        W98864  10.261  37.971  11.399
27282W        W98865  37.061  11.862  14.094
27283W        W98866  20.519  33.985   3.629
27284W        W98867   5.192  14.688  13.233
27285W        W98868  31.002  27.126   1.888
27286W        W98869  30.990   2.985  13.383
27287W        W98870  44.053  28.622   1.794
27288W        W98871  12.642  33.973   1.592
27289W        W98872  27.438   1.873  13.844
27290W        W98873  38.768   5.330   1.904
27291W        W98874  22.283  34.495  11.047
27292W        W98875  15.671  36.557  13.427
27293W        W98876   6.267  40.376   4.523
27294W        W98877  43.751  21.014   2.628
27295W        W98878  36.119  20.487   1.174
27296W        W98879  14.775  43.879  12.910
27297W        W98880  25.495  44.412   4.548
27298W        W98881  40.075   9.049  13.869
27299W        W98882  19.248  39.341   4.345
27300W        W98883  23.958  14.690  13.645
27301W        W98884  11.392   9.098   2.972
27302W        W98885   3.400  25.917  14.531
27303W        W98886   7.238  26.016  11.943
27304W        W98887  19.163  12.943   1.480
27305W        W98888  39.765  27.691  11.099
27306W        W98889   3.707  29.196   4.864
27307W        W98890   3.089  10.386  10.555
27308W        W98891  28.251   9.289   3.267
27309W        W98892  23.031  21.590   2.715
27310W        W98893  16.462  28.765  12.462
27311W        W98894  37.962  32.995   1.266
27312W        W98895  40.142   7.230  14.980
27313W        W98896  11.155   2.323   0.792
27314W        W98897  30.593  40.256  14.061
27315W        W98898  36.997   8.677   2.221
27316W        W98899   5.385  28.449  12.121
27317W        W98900  44.033  16.699  13.550
27318W        W98901  14.082  28.936   3.307
27319W        W98902  36.089  22.053  13.331
27320W        W98903   0.370  23.515  11.842
27321W        W98904   2.746  21.134   1.612
27322W        W98905  26.651  20.087   0.478
27323W        W98906  38.264  11.618   0.827
27324W        W98907  10.097  17.375  14.213
27325W        W98908  24.286  28.716   4.238
27326W        W98909  32.659  33.572  11.175
27327W        W98910  31.521  25.986  13.502
27328W        W98911  26.946  14.850   0.311
27329W        W98912  31.926   0.307   4.032
27330W        W98913  11.711  29.031   2.117
27331W        W98914   2.464  28.167  11.181
27332W        W98915  26.916  36.452  13.306
27333W        W98916  44.675  18.191   1.026
27334W        W98917  41.558   7.303   2.700
27335W        W98918  19.983  27.995  14.284
27336W        W98919  38.502  40.520  14.783
27337W        W98920  14.331  43.611  11.158
27338W        W98921  26.467  41.198   1.278
27339W        W98922  27.024  11.792  14.986
27340W        W98923   1.855  28.989   3.913
27341W        W98924  12.705  23.523   1.235
27342W        W98925  19.166  29.031   1.871
27343W        W98926  22.676   6.650  14.326
27344W        W98927  30.047  14.221   1.374
27345W        W98928  33.638  13.257   4.120
27346W        W98929  20.048  38.866  10.795
27347W        W98930  38.118  44.332  12.006
27348W        W98931  29.219  29.873  12.984
27349W        W98932  41.930   9.821   0.950
27350W        W98933  18.693  10.435  14.562
27351W        W98934  44.060  43.277  14.298
27352W        W98935   2.514   5.347  10.919
27353W        W98936  25.187  25.829  12.470
27354W        W98937   0.364  12.011   2.800
27355W        W98938  28.358   9.807  10.730
27356W        W98939  39.837   3.419  11.732
27357W        W98940   4.826   5.153  12.187
27358W        W98941   1.771  31.708  12.584
27359W        W98942  15.619   1.255  13.397
27360W        W98943  13.826  39.181   1.138
27361W        W98944  29.353   6.842   2.806
27362W        W98945   1.906  37.889   4.643
27363W        W98946  21.561  12.252   3.225
27364W        W98947   0.377  20.208   0.836
27365W        W98948  15.137  38.073   3.295
27366W        W98949   6.341  15.547   1.709
27367W        W98950   6.577  35.645   0.515
27368W        W98951  13.821  10.878   0.895
27369W        W98952  36.205  36.531  12.606
27370W        W98953  10.300   1.238  12.081
27371W        W98954  23.433  15.992  13.313
27372W        W98955  25.463   4.850  12.955
27373W        W98956  38.868  23.688   1.204
27374W        W98957   1.362  36.438  13.261
27375W        W98958  38.427  23.241   4.716
27376W        W98959  10.363  19.201  12.650
27377W        W98960   5.149  12.043   4.016
27378W        W98961   9.592  20.732   2.694
27379W        W98962  24.734  34.037   2.157
27380W        W98963   0.757  43.372   3.277
27381W        W98964  10.891  14.539   2.734
27382W        W98965  22.676  41.602  13.414
27383W        W98966  18.931  10.157   9.997
27384W        W98967  34.329  10.236   3.988
27385W        W98968  14.053  16.058   4.278
27386W        W98969  40.536  42.938   0.534
27387W        W98970  39.519  32.982   1.301
27388W        W98971  30.483  18.028  12.162
27389W        W98972  13.518  28.518  13.439
27390W        W98973  28.233   9.990  11.495
27391W        W98974  31.190   7.344  11.530
27392W        W98975  44.849   5.123   0.504
27393W        W98976  17.090  10.188  13.554
27394W        W98977   6.222  25.062   4.140
27395W        W98978  35.351  19.118   4.381
27396W        W98979  10.250  17.744   1.644
27397W        W98980  40.956  20.110   0.907
27398W        W98981   3.693  39.992   1.323
27399W        W98982  16.417  27.461  11.598
27400W        W98983  18.695  43.307  14.040
27401W        W98984  20.379  39.861  13.392
27402W        W98985  14.294  28.681   1.385
27403W        W98986   0.758  35.497   2.184
27404W        W98987  24.197  16.448  10.435
27405W        W98988  36.946  42.515   4.855
27406W        W98989  21.582  23.663  13.600
27407W        W98990   6.476  17.437   1.220
27408W        W98991  35.875  18.543  12.081
27409W        W98992  25.648  11.501   5.260
27410W        W98993  44.441  24.534   5.199
27411W        W98994  32.950  16.663  12.923
27412W        W98995   5.766   7.587   3.278
27413W        W98996  44.716  29.065  14.932
27414W        W98997  12.921  15.421   3.214
27415W        W98998  38.463  14.140  14.556
27416W        W98999   9.268   3.720   1.747
27417W        W99000  23.061  37.252  10.855
27418W        W99001  21.261  35.116  14.946
27419W        W99002  15.814  31.240  14.978
27420W        W99003  30.483  22.797  10.199
27421W        W99004  28.993  15.059   0.836
27422W        W99005   0.985  14.796   3.620
27423W        W99006  21.069  43.504  14.144
27424W        W99007   9.312   0.914   0.677
27425W        W99008  41.195  12.790   2.821
27426W        W99009  15.672  41.623  11.351
27427W        W99010  36.108   5.841  12.673
27428W        W99011  15.128  29.944  11.977
27429W        W99012  13.212  17.843   4.678
27430W        W99013   7.849  14.174   4.165
27431W        W99014  38.567   5.212  12.074
27432W        W99015  23.765  27.752   3.237
27433W        W99016  18.494  12.285  14.051
27434W        W99017  41.046  28.492   3.712
27435W        W99018   1.678   7.808   0.402
27436W        W99019  40.029  33.421  12.502
27437W        W99020  17.164  10.141   3.043
27438W        W99021  31.967  15.843   0.381
27439W        W99022  30.654  21.143  14.884
27440W        W99023   2.622  17.984   4.545
27441W        W99024  19.179  41.541  10.616
27442W        W99025   8.822   4.298  10.872
27443W        W99026  41.546  38.853  10.604
27444W        W99027  44.913   1.899   2.677
27445W        W99028  13.282  22.382   3.130
27446W        W99029  32.608  35.832   1.613
27447W        W99030  40.334  37.818   1.811
27448W        W99031  30.344  10.912   1.737
27449W        W99032  36.391   5.841   0.009
27450W        W99033  42.689  16.164  11.025
27451W        W99034  29.497  42.393   2.189
27452W        W99035  23.750  25.537   0.883
27453W        W99036  11.514  17.694   1.665
27454W        W99037  34.597  35.906   0.760
27455W        W99038  27.035  37.377  13.779
27456W        W99039  20.131  18.350   0.993
27457W        W99040  30.331  15.761   3.781
27458W        W99041   0.830  23.916   0.242
27459W        W99042  31.426   5.613   0.953
27460W        W99043  39.370  25.408  10.756
27461W        W99044  24.168  15.869  14.327
27462W        W99045  39.363  44.940  14.917
27463W        W99046  29.113   7.736   4.289
27464W        W99047   4.822  25.145  14.213
27465W        W99048  18.243  14.824  11.952
27466W        W99049  11.052  17.678   4.677
27467W        W99050  19.155  34.229  14.900
27468W        W99051   4.860  24.674  14.439
27469W        W99052  29.567  40.554  10.849
27470W        W99053   2.908  26.238   0.342
27471W        W99054  35.627  40.364   4.407
27472W        W99055  22.138   1.201   1.837
27473W        W99056  19.752   6.932   2.884
27474W        W99057  33.590  41.921  14.295
27475W        W99058  16.119  15.208  13.458
27476W        W99059   1.753  39.065   2.318
27477W        W99060  24.610  13.557  11.835
27478W        W99061  28.677  39.046   1.941
27479W        W99062  31.356   0.462   0.956
27480W        W99063   1.901  43.322   0.957
27481W        W99064  33.312  34.124   0.972
27482W        W99065   0.927  19.024   1.877
27483W        W99066  32.655  23.012   2.601
27484W        W99067  21.557  12.172  13.914
27485W        W99068  29.661   7.702  11.966
27486W        W99069  25.981  26.153   1.752
27487W        W99070  38.546  20.415   0.626
27488W        W99071   6.832  39.495  14.262
27489W        W99072  25.970  39.612   0.319
27490W        W99073  10.958  23.493  11.146
27491W        W99074  11.633  44.928  14.940
27492W        W99075  37.792   5.142   3.508
27493W        W99076  19.426  34.391  12.306
27494W        W99077  40.261  20.184   2.580
27495W        W99078  31.390   4.535   3.266
27496W        W99079  37.620   2.459  13.016
27497W        W99080  20.444  35.893   0.755
27498W        W99081  24.983  35.480  11.015
27499W        W99082   3.236  12.820   4.229
27500W        W99083  30.706  17.497  10.314
27501W        W99084  22.644  26.065  13.466
27502W        W99085   4.920  27.279  10.184
27503W        W99086  31.630  20.390   5.205
27504W        W99087  34.938  38.924   3.182
27505W        W99088   4.694  17.087  13.453
27506W        W99089   9.779   8.480  14.914
27507W        W99090  14.834  21.115   4.309
27508W        W99091  14.435  39.643   4.368
27509W        W99092   3.667  37.100  13.781
27510W        W99093   1.994  22.678  11.559
27511W        W99094  39.454  36.111   2.805
27512W        W99095  21.964  42.562   4.173
27513W        W99096  31.714  44.446  14.453
27514W        W99097  11.931  44.641  13.323
27515W        W99098  44.539   6.219  13.887
27516W        W99099  23.565   9.099   4.599
27517W        W99100  12.267  38.018  11.538
27518W        W99101  21.219   3.392   4.723
27519W        W99102  41.495   4.401  14.011
27520W        W99103  25.156  14.054   0.088
27521W        W99104  18.116  31.597  12.425
27522W        W99105   9.637   4.696   2.731
27523W        W99106   3.768  39.241   1.465
27524W        W99107   9.411   3.440  12.059
27525W        W99108   8.354  38.062   3.850
27526W        W99109  21.685  34.569  13.782
27527W        W99110   4.921  38.389  12.059
27528W        W99111   6.345   9.904  13.631
27529W        W99112   1.530  16.634   3.093
27530W        W99113  22.773  32.408  14.757
27531W        W99114   6.212  15.881  11.705
27532W        W99115   1.489   2.312   4.094
27533W        W99116  13.620  34.063   1.248
27534W        W99117   9.315  41.503  14.230
27535W        W99118  44.088   5.939  11.486
27536W        W99119  14.744   9.661  13.347
27537W        W99120   3.848  32.078  11.189
27538W        W99121   4.423  20.568  11.715
27539W        W99122  11.818   0.484   1.909
27540W        W99123  16.686  17.136   1.014
27541W        W99124   3.497  25.603  12.887
27542W        W99125  34.066   0.993   1.043
27543W        W99126  42.207  12.646   1.659
27544W        W99127  11.415   7.274   1.261
27545W        W99128   3.651  32.505  14.020
27546W        W99129   4.426   9.730   2.447
27547W        W99130  40.945  36.805   4.204
27548W        W99131   6.717  19.386   3.332
27549W        W99132  36.084  19.804   5.169
27550W        W99133  29.966  25.935  13.023
27551W        W99134  43.804   1.677   0.607
27552W        W99135  35.954  17.090   0.382
27553W        W99136  21.974   4.962   4.304
27554W        W99137  22.647  25.421   3.245
27555W        W99138   1.157  30.522  14.976
27556W        W99139   4.546  21.155   2.923
27557W        W99140   8.620   0.463   1.691
27558W        W99141  36.350   2.158   2.621
27559W        W99142  33.111  15.460  13.330
27560W        W99143  18.312  31.521  14.225
27561W        W99144   1.039  27.530   2.656
27562W        W99145  29.424  10.839  12.498
27563W        W99146  21.529  13.142   1.693
27564W        W99147  26.092  31.607  11.600
27565W        W99148  36.863  24.367  12.967
27566W        W99149  10.121  25.176   4.125
27567W        W99150  23.239  23.254  14.887
27568W        W99151   9.846  29.000  11.118
27569W        W99152  39.048  34.382  13.452
27570W        W99153  34.638  27.297  12.937
27571W        W99154  16.721  18.261  12.919
27572W        W99155  28.059  27.579   2.634
27573W        W99156  38.061  29.684   3.675
27574W        W99157   1.918  26.181   4.140
27575W        W99158   9.674  26.593   1.531
27576W        W99159  27.851  44.310  11.130
27577W        W99160  32.925   2.367   3.742
27578W        W99161  34.102  43.433  13.330
27579W        W99162  29.058   2.203  13.422
27580W        W99163  38.006   9.387  13.323
27581W        W99164  39.218  23.465   2.448
27582W        W99165  19.153  38.331  11.601
27583W        W99166  13.259  20.689   3.409
27584W        W99167   9.909  12.265   1.373
27585W        W99168  26.703   4.835  14.521
27586W        W99169  40.520  35.941  11.400
27587W        W99170  34.626  20.771   3.331
27588W        W99171  29.090  33.120  11.320
27589W        W99172  29.096  29.871  10.806
27590W        W99173  31.451  14.774   0.304
27591W        W99174  18.238  34.869  14.792
27592W        W99175  26.488  19.334  11.160
27593W        W99176  11.832  36.613  13.025
27594W        W99177  13.629   6.182   4.695
27595W        W99178  22.961  15.575   1.394
27596W        W99179   5.643   2.542  14.377
27597W        W99180  11.769   1.954  11.280
27598W        W99181   4.403  14.977   0.396
27599W        W99182  28.561   9.078  12.040
27600W        W99183  19.769   9.084   4.089
27601W        W99184  31.951   1.243   2.903
27602W        W99185   2.868  14.383  13.243
27603W        W99186  28.439  37.060   2.832
27604W        W99187  41.068  30.630  12.986
27605W        W99188  14.146  30.582   3.536
27606W        W99189  22.324  33.097   3.212
27607W        W99190  14.059  22.660   4.763
27608W        W99191   3.463  42.525   4.339
27609W        W99192  12.279   1.556   2.208
27610W        W99193  15.525   7.319   2.145
27611W        W99194   0.969  44.882  14.525
27612W        W99195  37.806  40.953   1.467
27613W        W99196  18.201  19.819   1.941
27614W        W99197   8.138  24.514  14.341
27615W        W99198  20.617   8.269  11.015
27616W        W99199  23.633  14.669  12.064
27617W        W99200  22.731   4.324   2.639
27618W        W99201   1.573  20.124   0.874
27619W        W99202  23.584  24.802  11.020
27620W        W99203  38.587  43.900   4.671
27621W        W99204  16.222  10.664   4.794
27622W        W99205  13.814  10.025   2.392
27623W        W99206   6.754   2.158   2.542
27624W        W99207  22.819  39.845  12.477
27625W        W99208   9.634  38.983   4.111
27626W        W99209  29.550  42.784   1.398
27627W        W99210   2.737  14.335   3.480
27628W        W99211  37.276  28.644   0.223
27629W        W99212   9.732   5.030   1.966
27630W        W99213  15.683  38.405   1.820
27631W        W99214  41.064  17.290  13.402
27632W        W99215  26.561   1.714   4.895
27633W        W99216  13.838  38.487  12.142
27634W        W99217   4.445  21.688   4.557
27635W        W99218  29.426  28.804   4.920
27636W        W99219  38.276  41.147   3.729
27637W        W99220   9.265   8.637  12.615
27638W        W99221   5.237  27.594  13.402
27639W        W99222   4.592   2.897  11.426
27640W        W99223  26.031   5.803   2.178
27641W        W99224  43.905   3.017  12.048
27642W        W99225   6.089  14.776  11.086
27643W        W99226   0.869  38.917  12.971
27644W        W99227  14.836   3.735  13.504
27645W        W99228  29.902  20.123   4.476
27646W        W99229  23.640   8.236  10.558
27647W        W99230  29.035  20.072   1.785
27648W        W99231  18.260  32.664  14.459
27649W        W99232  36.443   2.454  13.812
27650W        W99233  35.038  26.284  14.964
27651W        W99234  39.942  19.841  11.115
27652W        W99235   9.573   3.765   3.571
27653W        W99236   4.211  30.385   4.177
27654W        W99237  19.583  29.778   9.860
27655W        W99238  14.780   5.013  14.913
27656W        W99239  24.129  29.863   3.748
27657W        W99240  19.278  35.827  11.389
27658W        W99241   4.683  44.774  12.096
27659W        W99242   9.464  24.071   1.451
27660W        W99243  16.155  37.528   1.999
27661W        W99244   8.121  30.521   0.843
27662W        W99245  34.365  34.577   3.787
27663W        W99246  30.692   7.165  11.515
27664W        W99247  22.772   3.930  14.503
27665W        W99248  12.618  14.731   4.502
27666W        W99249  37.395  42.669   9.816
27667W        W99250  24.241  23.710  13.049
27668W        W99251  22.771  18.554   5.451
27669W        W99252  36.365   3.728  13.015
27670W        W99253  14.790  19.789   0.470
27671W        W99254  22.039  33.861   0.478
27672W        W99255  43.879  33.533  14.545
27673W        W99256  35.048  18.541  12.096
27674W        W99257  30.139  16.011   4.197
27675W        W99258  42.049  24.758  12.159
27676W        W99259  14.332  36.779   3.105
27677W        W99260  12.770  10.621   4.463
27678W        W99261   1.393   8.940  14.866
27679W        W99262   8.155  13.303  12.413
27680W        W99263  13.576  41.443  13.994
27681W        W99264  29.939   9.845   3.138
27682W        W99265  31.483  41.423  10.487
27683W        W99266   9.407  14.323   3.543
27684W        W99267   5.637   4.761  14.650
27685W        W99268  15.413  15.230  11.079
27686W        W99269   2.266  43.283  13.324
27687W        W99270  20.197  32.405   3.415
27688W        W99271  21.921  35.989   2.218
27689W        W99272   9.130   2.185  12.466
27690W        W99273  20.369   9.268  12.166
27691W        W99274   9.176  11.247   3.792
27692W        W99275  23.433  12.632  14.870
27693W        W99276  16.422  14.958   4.642
27694W        W99277  33.382  23.946   1.686
27695W        W99278  13.502  32.287   4.169
27696W        W99279   9.856  12.582   4.073
27697W        W99280  16.627  38.914  12.170
27698W        W99281  14.902   9.661  14.772
27699W        W99282  20.706  25.971   1.206
27700W        W99283  24.728  36.938   0.867
27701W        W99284  42.893  15.826  12.155
27702W        W99285  25.462  10.242  14.871
27703W        W99286   0.483  15.026  13.904
27704W        W99287  11.624  31.968  11.842
27705W        W99288  32.134  27.400   0.954
27706W        W99289  35.691  44.413  13.519
27707W        W99290  18.594   2.001  12.197
27708W        W99291   3.248  40.606  10.683
27709W        W99292  25.957  13.108  14.451
27710W        W99293  31.700  38.461  14.684
27711W        W99294   0.734  12.060  14.820
27712W        W99295  16.334   7.385  13.770
27713W        W99296  19.917  37.984  14.300
27714W        W99297  11.970  42.338   1.460
27715W        W99298  12.843  25.112   1.963
27716W        W99299  26.225  20.273   3.592
27717W        W99300  19.570  34.061   3.750
27718W        W99301  32.625  31.793  12.153
27719W        W99302  44.494   7.417   4.576
27720W        W99303  29.528  32.563  11.980
27721W        W99304  24.396  33.379  13.014
27722W        W99305  13.332  21.048  13.381
27723W        W99306  11.582  33.181  14.460
27724W        W99307  20.631  15.407   1.853
27725W        W99308  31.790   2.847  12.441
27726W        W99309  24.106  22.706   3.529
27727W        W99310  30.648  40.978   3.777
27728W        W99311  18.235  38.640   3.642
27729W        W99312   0.884  32.171  14.894
27730W        W99313  39.815  31.836   3.308
27731W        W99314  33.253  44.294  11.928
27732W        W99315   2.396  20.923  12.868
27733W        W99316   6.981   6.800   3.250
27734W        W99317  19.625  35.113   4.627
27735W        W99318  10.715   1.330   3.179
27736W        W99319   9.809   8.309   0.830
27737W        W99320  16.104  37.522   3.820
27738W        W99321  35.647  36.612   3.977
27739W        W99322   7.694  34.078  13.378
27740W        W99323   3.176  21.776   4.274
27741W        W99324   3.384  15.334   1.765
27742W        W99325  12.286  35.183  13.850
27743W        W99326   9.234  21.734  11.075
27744W        W99327  33.072  39.483   4.225
27745W        W99328  40.822  20.681   2.378
27746W        W99329  38.670  32.003   0.047
27747W        W99330  39.453   4.583   2.176
27748W        W99331  35.684  16.767  12.578
27749W        W99332  41.407  28.116   0.234
27750W        W99333  20.586  31.989   3.299
27751W        W99334  34.863  42.938  12.564
27752W        W99335   0.428   8.177  11.979
27753W        W99336   3.577  34.508  12.439
27754W        W99337  34.660  14.049  13.019
27755W        W99338   9.238  36.178  10.087
27756W        W99339   5.143  44.018   4.693
27757W        W99340   2.532   1.809   5.137
27758W        W99341  34.492  42.345   2.779
27759W        W99342  32.844  28.571  12.102
27760W        W99343   7.150  18.185   2.322
27761W        W99344  34.561  42.015  13.106
27762W        W99345  26.511  18.046   2.047
27763W        W99346   0.463  34.153   0.966
27764W        W99347  44.830  15.319   1.116
27765W        W99348   9.182  18.553  12.555
27766W        W99349  16.331  35.071   4.551
27767W        W99350  20.795  30.100  11.295
27768W        W99351  29.605  42.244   0.010
27769W        W99352  19.276  10.279   2.797
27770W        W99353   9.936  37.997   0.490
27771W        W99354  32.602  37.984  14.942
27772W        W99355  40.012  29.405  13.366
27773W        W99356  13.677  13.707   0.753
27774W        W99357   2.254   0.410   4.333
27775W        W99358   7.791  18.427  11.984
27776W        W99359  26.751  14.273  13.828
27777W        W99360  21.955   0.424  12.892
27778W        W99361  29.835  15.139  11.540
27779W        W99362  41.031  39.590  13.069
27780W        W99363  14.730   0.527  14.714
27781W        W99364  25.564  41.966   1.818
27782W        W99365   1.813   1.735  14.521
27783W        W99366  33.099  30.924  12.739
27784W        W99367   5.810   7.792  12.875
27785W        W99368  23.090  38.598  11.364
27786W        W99369  13.544  27.608   0.548
27787W        W99370  30.433  31.657  13.988
27788W        W99371   3.365  20.771  11.022
27789W        W99372  11.633  13.410   4.015
27790W        W99373  14.886  40.726  13.885
27791W        W99374   4.617  16.385   4.803
27792W        W99375  43.539  18.395   0.449
27793W        W99376  21.969  14.531   4.628
27794W        W99377   8.165  35.577   0.350
27795W        W99378  38.406   1.265   2.814
27796W        W99379  43.256  10.181   4.541
27797W        W99380  13.211  12.251   3.260
27798W        W99381   8.775   4.831   0.503
27799W        W99382   3.032  34.825   4.179
27800W        W99383  28.425  15.711   4.711
27801W        W99384  21.753  42.329  11.075
27802W        W99385  42.964  22.870   4.929
27803W        W99386  38.356   1.687   3.183
27804W        W99387  35.901  20.439  13.035
27805W        W99388  43.940  41.334  11.152
27806W        W99389  22.723  27.140  11.895
27807W        W99390  39.215  39.239  11.531
27808W        W99391  38.316   1.555  12.963
27809W        W99392  35.545  33.915   2.644
27810W        W99393  15.633  30.644  12.075
27811W        W99394  31.451  39.305   4.797
27812W        W99395  39.469  39.061   4.687
27813W        W99396  32.326  32.129  11.876
27814W        W99397  26.160  33.096   1.875
27815W        W99398   8.877   6.640   2.750
27816W        W99399  27.184   0.053  14.495
27817W        W99400   9.763  35.078  13.465
27818W        W99401  26.561  43.889  12.404
27819W        W99402  24.301  21.195  10.198
27820W        W99403  29.955  19.079   3.619
27821W        W99404  23.072  19.215   1.564
27822W        W99405   9.345  19.055  12.607
27823W        W99406   9.370  33.940   0.976
27824W        W99407  44.325  10.172  11.128
27825W        W99408  26.479  21.427   0.315
27826W        W99409  10.611  40.158   2.646
27827W        W99410   1.382   9.743  10.756
27828W        W99411  16.353   6.814   1.360
27829W        W99412  14.224  16.519  14.332
27830W        W99413  29.245   0.301   4.520
27831W        W99414  40.042  23.120  12.967
27832W        W99415  22.738  18.332  11.988
27833W        W99416  42.785  33.942   3.926
27834W        W99417   7.925  18.706  14.562
27835W        W99418  36.526  13.172   3.282
27836W        W99419  25.030   3.014   0.534
27837W        W99420   3.394   5.900  14.013
27838W        W99421  16.192  24.281   1.563
27839W        W99422   3.942  42.057   1.789
27840W        W99423  11.633   3.156  10.727
27841W        W99424  23.577  40.761  14.420
27842W        W99425   2.669  34.513   4.611
27843W        W99426  25.417  18.877   0.650
27844W        W99427   3.412   4.970  11.602
27845W        W99428   1.888  25.275   2.811
27846W        W99429  41.889  14.253  13.018
27847W        W99430  17.089  43.193  12.477
27848W        W99431  10.264  40.710  10.957
27849W        W99432  21.023  43.007  11.253
27850W        W99433   6.032  29.206  13.073
27851W        W99434  36.403  30.005  14.505
27852W        W99435   7.681  21.197  12.970
27853W        W99436  20.507  10.578  13.558
27854W        W99437  40.342  18.115   0.434
27855W        W99438  13.683  43.320  13.536
27856W        W99439  17.739  36.991  14.461
27857W        W99440  38.392  31.379   2.267
27858W        W99441   6.680  36.070   3.867
27859W        W99442  12.804  36.393   3.608
27860W        W99443  36.488  27.238  11.565
27861W        W99444   9.717  41.948   4.655
27862W        W99445  30.889   1.844  11.344
27863W        W99446  10.064   7.693  14.760
27864W        W99447  16.094  38.469  12.466
27865W        W99448  42.107   6.975   4.141
27866W        W99449   5.305  18.575  10.954
27867W        W99450  25.508   5.668   0.826
27868W        W99451  25.310  11.914  10.144
27869W        W99452  26.976  40.545  10.834
27870W        W99453  36.953   1.005  13.525
27871W        W99454  44.207  22.268  13.315
27872W        W99455  37.151  18.131  11.817
27873W        W99456   7.376  24.931  11.493
27874W        W99457  18.082  10.674   0.902
27875W        W99458  19.322  43.029   0.876
27876W        W99459   9.213  24.150   2.373
27877W        W99460  39.939  44.837   1.435
27878W        W99461   0.314  39.915  10.468
27879W        W99462  26.672  21.285  14.530
27880W        W99463  26.604  27.089  10.380
27881W        W99464  30.707   7.940   4.170
27882W        W99465  24.170  12.598  14.010
27883W        W99466  37.011  41.172   2.799
27884W        W99467  24.666  16.593   1.180
27885W        W99468   2.480  42.237   2.816
27886W        W99469   5.919   5.740  13.792
27887W        W99470   5.002  43.407  10.414
27888W        W99471  18.862  22.172  14.660
27889W        W99472  36.039   5.807   0.942
27890W        W99473   2.191  10.794  10.872
27891W        W99474  31.957   2.716   3.318
27892W        W99475  30.086  12.279   2.769
27893W        W99476  15.816  22.706   2.586
27894W        W99477   4.920   8.695   2.765
27895W        W99478   3.459  40.095  11.940
27896W        W99479  16.672  24.010   0.748
27897W        W99480   1.476  12.399  13.111
27898W        W99481  24.509   2.799   2.281
27899W        W99482  40.900  42.001  13.642
27900W        W99483  34.847  23.116   0.827
27901W        W99484   3.586  25.071  12.984
27902W        W99485  33.299  14.802  14.879
27903W        W99486   1.081   2.816  13.366
27904W        W99487  23.956  12.524  10.214
27905W        W99488  29.102  34.671   1.131
27906W        W99489   8.879  33.645  10.504
27907W        W99490  27.606  30.633   0.287
27908W        W99491  26.545   4.160  13.867
27909W        W99492   2.958  43.954   0.259
27910W        W99493  19.528  17.062  13.885
27911W        W99494  32.697  12.423   4.512
27912W        W99495  25.123   4.037   1.779
27913W        W99496   5.479  41.491   4.614
27914W        W99497   9.266  26.623   1.171
27915W        W99498   8.637  38.838   1.188
27916W        W99499  30.442  14.691  13.875
27917W        W99500  39.416  36.400  11.092
27918W        W99501   4.933  15.764  11.390
27919W        W99502   4.807  24.789  13.393
27920W        W99503  42.378  13.959  14.171
27921W        W99504   9.346  22.655   1.700
27922W        W99505  12.361  10.121  12.464
27923W        W99506  41.520  27.406  11.708
27924W        W99507  28.156  32.057   0.343
27925W        W99508  24.238  26.046   1.172
27926W        W99509  10.460  13.548   3.763
27927W        W99510  10.300   1.865  13.910
27928W        W99511  15.687  39.832   9.947
27929W        W99512  31.860  26.669   1.531
27930W        W99513   9.254  40.865   0.013
27931W        W99514  19.119  24.106  12.578
27932W        W99515  10.972  41.819   3.304
27933W        W99516  32.415  37.929  12.419
27934W        W99517   2.684  37.555   1.500
27935W        W99518  25.757  23.476   0.307
27936W        W99519  32.888  22.532  13.423
27937W        W99520  29.976   0.307  11.654
27938W        W99521  36.058   4.428  12.940
27939W        W99522  25.164   3.538   1.972
27940W        W99523   7.732  37.856  13.355
27941W        W99524  12.395  25.980   2.407
27942W        W99525  10.200  27.503   0.371
27943W        W99526  34.461  21.269  11.539
27944W        W99527   7.448  39.301   0.279
27945W        W99528   4.812   5.675  12.097
27946W        W99529  23.066  31.083  10.757
27947W        W99530  30.607  37.116  13.369
27948W        W99531  27.082  22.531  10.824
27949W        W99532  14.706  36.351   2.748
27950W        W99533   0.737   2.634  12.994
27951W        W99534  15.898   4.755   2.682
27952W        W99535  42.014  12.713  12.409
27953W        W99536  12.312   9.469   0.473
27954W        W99537   4.656  29.592  11.714
27955W        W99538  28.321  33.500   5.203
27956W        W99539  35.521  16.310   1.161
27957W        W99540  24.282  16.287   2.731
27958W        W99541  42.463   8.731  11.073
27959W        W99542   2.925  35.504   0.806
27960W        W99543  40.392  36.997   4.172
27961W        W99544  10.583   9.799   0.338
27962W        W99545  20.813  28.207   1.679
27963W        W99546  34.935  15.240  13.369
27964W        W99547  39.383  18.187  14.499
27965W        W99548  18.057  36.478   4.699
27966W        W99549  17.101  40.680   5.152
27967W        W99550  37.515   2.464  11.650
27968W        W99551  20.034   0.297  14.946
27969W        W99552   4.762  39.501   2.204
27970W        W99553  38.793  35.608   0.923
27971W        W99554   5.922  26.492   0.712
27972W        W99555  30.939   7.856   0.429
27973W        W99556  33.467  35.416  10.723
27974W        W99557   1.210  39.529   1.318
27975W        W99558  39.382  21.198  12.581
27976W        W99559  41.437  33.496  13.797
27977W        W99560  25.423  36.936  12.540
27978W        W99561  14.619  10.704  14.748
27979W        W99562   7.789  15.024  13.945
27980W        W99563  13.166   5.157   2.261
27981W        W99564  36.794   5.160   3.647
27982W        W99565   5.716  34.644   2.246
27983W        W99566  14.389  15.248  11.018
27984W        W99567  17.533   7.763  14.558
27985W        W99568  41.541  18.177  13.638
27986W        W99569  13.268  14.418  11.943
27987W        W99570  27.839  16.535  13.265
27988W        W99571   8.294  43.009  11.312
27989W        W99572  27.772  13.874  14.361
27990W        W99573  34.569   5.924  14.354
27991W        W99574  16.064  12.225   1.280
27992W        W99575  30.490  20.395  13.556
27993W        W99576  18.710  32.440  11.497
27994W        W99577   0.093  21.164   0.725
27995W        W99578  12.469   5.563  13.049
27996W        W99579  32.501  17.160   0.504
27997W        W99580  27.925  28.612  12.399
27998W        W99581   1.223  18.177  13.001
27999W        W99582  21.578  16.485   2.548
28000W        W99583  32.467  44.684  14.989
28001W        W99584  34.194  33.402   4.147
28002W        W99585  26.901  27.678   0.879
28003W        W99586  32.113  19.131   9.596
28004W        W99587  26.912  42.999   4.745
28005W        W99588  36.951  11.333  12.426
28006W        W99589   8.687  27.380   1.506
28007W        W99590   9.920  27.956  10.986
28008W        W99591  17.519   2.480   3.205
28009W        W99592  37.351  23.877  12.420
28010W        W99593  42.923  43.826   4.439
28011W        W99594   2.525  19.053   2.777
28012W        W99595  30.977  23.675  13.550
28013W        W99596  15.219   3.360  14.413
28014W        W99597  16.204  31.562  14.872
28015W        W99598  22.747   4.858   4.749
28016W        W99599  14.623  10.430  13.743
28017W        W99600  19.979   9.127  12.449
28018W        W99601   6.754  11.676   1.601
28019W        W99602  33.414  17.598   1.861
28020W        W99603   4.584  43.296   3.746
28021W        W99604  38.341   8.130   0.756
28022W        W99605  40.400  43.823  12.407
28023W        W99606   7.792  24.904   2.939
28024W        W99607  38.534  15.499   2.837
28025W        W99608  27.505   2.981   0.410
28026W        W99609  16.533  24.596   4.302
28027W        W99610  41.222  34.003  12.948
28028W        W99611   1.256  26.786  10.050
28029W        W99612  23.581  21.437   3.461
28030W        W99613  20.519  33.483  13.480
28031W        W99614  11.105  30.358   4.057
28032W        W99615  22.295   6.401  14.068
28033W        W99616   3.818  26.966  12.787
28034W        W99617  36.608  13.317  12.064
28035W        W99618  31.135  18.577   1.336
28036W        W99619  13.707  12.124   3.384
28037W        W99620  36.558   5.220  11.102
28038W        W99621  12.825  41.996  11.462
28039W        W99622  35.174  19.125  13.787
28040W        W99623   0.909  29.084   0.761
28041W        W99624   9.415  17.211  12.052
28042W        W99625  17.823   1.806  14.972
28043W        W99626  16.819  36.304  12.538
28044W        W99627  13.638   8.293  12.225
28045W        W99628  27.500  40.592  11.945
28046W        W99629  36.913  11.710  13.458
28047W        W99630  17.201  29.171   1.937
28048W        W99631   7.153  41.240  12.032
28049W        W99632   2.719  17.036   2.803
28050W        W99633   9.954  11.898  10.961
28051W        W99634  11.294  35.695   3.635
28052W        W99635   4.026  28.943  12.971
28053W        W99636  19.231  40.622  13.518
28054W        W99637  16.731   5.397  12.544
28055W        W99638  14.313  38.255  12.079
28056W        W99639   6.600  16.699   1.097
28057W        W99640  44.019  29.751  14.094
28058W        W99641  21.104   8.190   1.751
28059W        W99642  19.089  13.715   0.792
28060W        W99643  15.241  10.405   4.199
28061W        W99644   2.897  17.623   1.965
28062W        W99645  11.259   6.369   0.716
28063W        W99646  23.622  24.074   4.196
28064W        W99647  18.825   3.258  14.481
28065W        W99648   8.818   5.890   3.273
28066W        W99649  15.883   5.200  11.976
28067W        W99650   1.332  10.373  14.482
28068W        W99651  22.204   3.222   0.024
28069W        W99652  26.471   5.307   3.255
28070W        W99653  16.103  33.618   1.754
28071W        W99654  39.135  34.944  11.011
28072W        W99655  16.417   4.967  11.096
28073W        W99656  24.631  38.601  12.977
28074W        W99657  11.751   2.926   4.238
28075W        W99658  19.279  37.819  13.280
28076W        W99659  20.370  14.879  13.497
28077W        W99660  19.229   6.403   2.754
28078W        W99661   4.247  27.986  10.964
28079W        W99662   3.166   7.841  11.613
28080W        W99663   7.258  30.305  11.969
28081W        W99664  39.720   9.639   0.805
28082W        W99665  27.901  19.070  13.199
28083W        W99666   5.828  39.366   0.156
28084W        W99667  11.307   6.460  14.303
28085W        W99668   3.328  30.445  11.798
28086W        W99669  12.201   7.901  10.790
28087W        W99670  13.897  44.473  14.905
28088W        W99671  41.944  35.365   0.400
28089W        W99672  44.747   4.444  12.929
28090W        W99673  32.302  30.334  10.716
28091W        W99674  21.725  14.723   2.496
28092W        W99675  19.351  39.687   3.491
28093W        W99676  35.099  33.930   2.366
28094W        W99677  38.910  24.289  11.924
28095W        W99678  43.136  43.952  14.091
28096W        W99679  38.177  33.086  13.837
28097W        W99680  31.968  20.387  11.523
28098W        W99681  22.789  39.901   3.194
28099W        W99682  33.405  44.357   1.628
28100W        W99683  29.028   9.280  13.535
28101W        W99684  40.895  24.674   2.752
28102W        W99685  18.971  15.079   4.109
28103W        W99686  38.320  26.888  12.440
28104W        W99687  28.082  13.651  12.650
28105W        W99688  37.526  25.005  14.290
28106W        W99689  44.819  36.630   1.427
28107W        W99690   5.102  26.778   0.409
28108W        W99691  13.717  34.515   4.900
28109W        W99692  16.063   6.387   2.011
28110W        W99693  14.596  23.071  12.303
28111W        W99694   5.356  18.250  12.680
28112W        W99695   0.215  24.419  11.716
28113W        W99696   1.589  11.044   1.447
28114W        W99697   3.230   1.791  10.308
28115W        W99698  23.719   3.689  12.075
28116W        W99699  30.906  13.384   3.237
28117W        W99700  42.452  43.395  12.660
28118W        W99701  16.567  42.543  13.842
28119W        W99702  30.990  32.110  11.734
28120W        W99703   7.816   4.879   0.054
28121W        W99704  26.601  12.499  14.343
28122W        W99705  24.774  42.475   1.978
28123W        W99706  13.297  22.613   0.415
28124W        W99707  27.111  23.825   0.777
28125W        W99708  15.831  29.329   2.040
28126W        W99709   3.322   5.890   3.631
28127W        W99710  36.253  32.928  11.949
28128W        W99711  18.625   4.764   4.563
28129W        W99712  24.287   8.938   1.868
28130W        W99713  32.857   1.988  14.246
28131W        W99714  32.577  40.532   2.866
28132W        W99715  23.165  33.238  12.096
28133W        W99716  21.944   3.426   4.198
28134W        W99717  43.394  43.518  10.569
28135W        W99718  28.524   6.700   4.545
28136W        W99719  42.778  39.611   3.648
28137W        W99720  25.749  12.716  11.569
28138W        W99721  37.905  37.290   1.370
28139W        W99722   9.681  21.044  14.783
28140W        W99723  22.275  12.800   0.894
28141W        W99724  37.303  44.387   0.358
28142W        W99725   3.451  16.867   3.212
28143W        W99726  41.419  33.572   2.578
28144W        W99727  32.782  37.406   4.098
28145W        W99728  14.874  31.383  13.562
28146W        W99729  18.557   5.671   1.254
28147W        W99730  17.621  42.564  13.971
28148W        W99731  26.020   0.296  11.523
28149W        W99732  33.085  36.045  11.122
28150W        W99733   1.674  14.674  11.772
28151W        W99734  32.282  14.732   0.962
28152W        W99735  19.129  24.799  10.154
28153W        W99736  41.724  31.550  14.218
28154W        W99737  31.911   3.068  14.615
28155W        W99738  23.244  14.004  13.829
28156W        W99739  21.190  31.903  10.520
28157W        W99740  44.193   5.929  13.602
28158W        W99741  13.675   6.257  12.269
28159W        W99742  31.977   0.481  11.104
28160W        W99743   9.146  10.770   0.359
28161W        W99744  20.145  39.673   4.099
28162W        W99745  38.964   5.684  13.808
28163W        W99746  29.754  19.686  13.404
28164W        W99747  36.861  41.452   2.349
28165W        W99748   2.765  30.535  14.369
28166W        W99749  34.991  41.566   0.052
28167W        W99750  30.137  20.598   1.347
28168W        W99751  40.059  42.195   1.304
28169W        W99752   8.726  41.091  14.923
28170W        W99753  39.595  15.138  14.409
28171W        W99754  25.512  27.157   4.233
28172W        W99755  14.259  38.325   3.395
28173W        W99756  28.608  43.206   1.364
28174W        W99757  10.865  10.455  12.709
28175W        W99758  39.936  12.670  13.379
28176W        W99759   9.899  26.700   2.808
28177W        W99760  32.289  20.070   3.263
28178W        W99761  20.927  20.702  10.501
28179W        W99762  17.270  27.172  14.273
28180W        W99763  20.796  30.236   3.743
28181W        W99764  10.066   7.865   0.883
28182W        W99765  28.602  29.566  14.576
28183W        W99766  19.723  21.173  11.507
28184W        W99767  28.992  30.104  12.575
28185W        W99768  10.142  37.773   0.024
28186W        W99769  23.204  33.153  13.036
28187W        W99770  17.710  31.105   4.635
28188W        W99771  32.328   4.649  13.966
28189W        W99772  36.514  20.114   1.230
28190W        W99773  22.295  11.373   0.213
28191W        W99774  24.718  13.589   2.871
28192W        W99775   5.902   9.153  12.005
28193W        W99776  12.430   5.287   4.884
28194W        W99777  38.529  32.510   4.492
28195W        W99778   2.492  25.197   5.093
28196W        W99779  11.428  36.915   4.421
28197W        W99780  44.044   8.652   3.767
28198W        W99781  32.529  39.266  13.015
28199W        W99782  14.269   0.132   2.303
28200W        W99783   4.714   3.886   1.395
28201W        W99784  29.406  36.338  12.246
28202W        W99785  32.643  18.249  14.433
28203W        W99786  28.901  39.564  14.825
28204W        W99787  43.145   0.147   2.781
28205W        W99788  40.901  36.941   0.371
28206W        W99789   1.930  36.520   1.416
28207W        W99790  15.015  31.427   3.863
28208W        W99791   5.494  19.616  13.385
28209W        W99792  14.147   4.272   4.425
28210W        W99793  14.050  19.761  14.573
28211W        W99794   8.768  26.174  12.990
28212W        W99795  35.813  21.008  13.833
28213W        W99796   9.252  41.084  11.479
28214W        W99797  37.484  25.633  13.066
28215W        W99798  12.175  30.151   1.938
28216W        W99799  19.727  27.270   4.969
28217W        W99800  43.605  41.545   2.148
28218W        W99801  38.363  32.152  12.347
28219W        W99802  17.166  10.011   0.942
28220W        W99803  37.300  32.327  12.548
28221W        W99804   8.881  38.807  11.570
28222W        W99805  10.185  24.036  14.984
28223W        W99806  40.915  31.067  10.703
28224W        W99807   4.306   8.702   5.099
28225W        W99808  40.608   4.420  11.149
28226W        W99809  13.947  33.353  14.430
28227W        W99810  12.807  21.502   1.265
28228W        W99811  34.532  28.773  14.861
28229W        W99812  32.638  20.013   4.169
28230W        W99813  10.785  27.161   4.683
28231W        W99814  43.249  25.806   4.269
28232W        W99815  17.201  44.205  12.413
28233W        W99816  15.201  27.847   0.393
28234W        W99817   9.835  22.923  10.908
28235W        W99818   1.229  16.210   2.307
28236W        W99819  20.596  32.153  11.990
28237W        W99820  43.913  40.877  10.606
28238W        W99821   0.267   6.339   3.388
28239W        W99822  11.543  14.774  10.429
28240W        W99823  42.841  11.316   9.971
28241W        W99824  17.468  38.103   1.722
28242W        W99825  30.672  30.306  14.454
28243W        W99826   9.082  26.559   4.998
28244W        W99827  44.427  37.042   2.780
28245W        W99828   2.804  30.104   2.905
28246W        W99829  42.849  25.458   0.449
28247W        W99830  17.090   7.074  14.289
28248W        W99831  29.679  42.442  12.976
28249W        W99832  22.102  44.349   1.504
28250W        W99833  25.466   0.900  14.851
28251W        W99834  39.634  41.523  13.567
28252W        W99835  24.000  42.964   1.014
28253W        W99836   4.336  39.284   3.635
28254W        W99837  13.392  14.143  14.401
28255W        W99838  27.229  17.773   4.182
28256W        W99839  14.322   6.270  12.942
28257W        W99840  35.013  10.286   1.124
28258W        W99841   1.046  14.615   4.110
28259W        W99842  40.586  40.050  10.702
28260W        W99843   0.891   8.948   4.669
28261W        W99844  42.316  25.706   4.659
28262W        W99845   5.435  35.429   1.723
28263W        W99846  36.313  36.591   1.971
28264W        W99847  12.239   2.726  13.787
28265W        W99848  26.451  39.012  13.508
28266W        W99849  29.056  15.030   4.553
28267W        W99850  10.637  10.239   4.438
28268W        W99851  30.625  44.033  12.001
28269W        W99852   5.261  38.536   0.448
28270W        W99853  11.625  27.485  12.474
28271W        W99854  44.133  32.788   2.141
28272W        W99855  24.531  26.500   1.052
28273W        W99856  24.758  33.763   0.983
28274W        W99857  34.647  39.421   1.911
28275W        W99858  13.808  17.325  12.964
28276W        W99859   1.251   3.710   2.356
28277W        W99860  36.035   9.323   1.041
28278W        W99861  44.430  10.376  13.332
28279W        W99862  25.948  43.393   2.658
28280W        W99863   9.650  14.773   3.559
28281W        W99864  39.074  18.097   4.161
28282W        W99865  32.216  42.036   4.212
28283W        W99866   0.031  25.593  13.025
28284W        W99867  42.621  39.206  12.636
28285W        W99868   3.183  38.210   3.316
28286W        W99869   3.831   3.993   2.072
28287W        W99870   1.881  36.131  10.584
28288W        W99871   6.476  20.244   3.097
28289W        W99872  34.298  28.084  12.505
28290W        W99873  11.321  26.465  14.993
28291W        W99874  28.720   9.761  11.576
28292W        W99875  18.778  29.605   1.391
28293W        W99876  36.794  44.785  12.232
28294W        W99877  27.385   8.640  11.560
28295W        W99878  27.984  23.482   0.372
28296W        W99879  34.594  28.314   0.129
28297W        W99880  40.396  31.100  10.503
28298W        W99881   5.983  19.137  12.877
28299W        W99882   7.193  13.120   4.590
28300W        W99883  37.534  37.373  13.760
28301W        W99884  10.258  36.189  13.244
28302W        W99885  23.747  26.710   1.389
28303W        W99886  13.161   7.866   0.954
28304W        W99887  36.524  30.390  14.853
28305W        W99888  35.496   2.828   1.584
28306W        W99889   6.266   9.902  13.105
28307W        W99890   8.551  18.044  12.836
28308W        W99891  12.215  13.560  11.973
28309W        W99892  26.732  41.036   2.760
28310W        W99893  22.683   7.555   4.488
28311W        W99894  11.259   9.684   1.734
28312W        W99895  31.958   0.098   3.216
28313W        W99896  40.539  41.061   4.148
28314W        W99897  25.994  22.012  11.572
28315W        W99898  40.055  23.255  14.876
28316W        W99899   0.461  22.176  14.805
28317W        W99900  16.180  26.903  14.506
28318W        W99901  13.743   7.273  10.744
28319W        W99902   3.366  24.784   3.091
28320W        W99903  43.265   1.998   1.047
28321W        W99904  40.225   8.457   4.258
28322W        W99905  16.080   7.679  11.502
28323W        W99906  27.670   0.301  14.570
28324W        W99907   6.748   3.461  11.135
28325W        W99908   1.785   4.895   4.084
28326W        W99909  44.469  17.460   2.850
28327W        W99910  23.286   0.056  14.950
28328W        W99911   7.491  13.597   0.933
28329W        W99912   6.141  34.033   1.512
28330W        W99913  31.981  20.982   2.798
28331W        W99914   2.030  23.518  14.812
28332W        W99915  42.815  36.070   2.732
28333W        W99916  26.665  22.313   4.027
28334W        W99917   3.938   5.648  12.142
28335W        W99918   8.266  14.240   2.449
28336W        W99919  26.777  27.523  14.051
28337W        W99920  23.137  44.881   4.803
28338W        W99921  24.710  37.318   4.642
28339W        W99922  14.332   7.539   4.541
28340W        W99923  30.833   4.780   0.897
28341W        W99924  11.951  28.944   0.244
28342W        W99925  16.786  27.969  14.714
28343W        W99926  16.398  13.259   3.120
28344W        W99927  41.062   3.049   3.697
28345W        W99928   6.515   3.912  12.415
28346W        W99929  34.074   5.722  12.982
28347W        W99930  44.415  31.451  10.257
28348W        W99931   4.256  19.989   3.283
28349W        W99932  40.931  39.368  11.769
28350W        W99933  14.413   9.304   0.818
28351W        W99934   1.440  11.262   1.915
28352W        W99935  39.374  33.506   2.338
28353W        W99936   6.888   1.737  12.029
28354W        W99937  42.395  43.900  11.460
28355W        W99938  24.486   3.342  14.302
28356W        W99939  13.895  34.047   2.509
28357W        W99940  43.196   4.903   4.117
28358W        W99941   5.876  29.997   3.510
28359W        W99942  28.525  42.014  13.129
28360W        W99943  26.842  39.784   1.362
28361W        W99944  16.688  13.628   3.350
28362W        W99945   3.499  11.863  12.407
28363W        W99946  28.506  24.401  11.039
28364W        W99947  38.400   8.674   0.899
28365W        W99948   0.353  43.073   5.022
28366W        W99949  14.069  20.042   4.966
28367W        W99950   6.680   3.377   2.638
28368W        W99951  10.454   2.862  13.303
28369W        W99952  43.300   7.780   3.843
28370W        W99953   0.769  44.865  12.894
28371W        W99954  36.308   8.143   3.218
28372W        W99955  14.745  28.400  13.897
28373W        W99956   9.790  25.973  10.608
28374W        W99957  44.809  26.801   2.592
28375W        W99958  16.624   3.540   4.916
28376W        W99959  29.223  39.968   3.700
28377W        W99960  27.003  16.372   2.762
28378W        W99961  19.797  15.300  14.620
28379W        W99962  26.347   7.761   0.840
28380W        W99963   4.316  44.787  14.048
28381W        W99964   5.000  31.977   4.685
28382W        W99965  28.604  22.246   1.286
28383W        W99966  12.091  28.109  11.171
28384W        W99967  36.961  25.664  12.449
28385W        W99968  28.739  26.584   2.799
28386W        W99969  15.156  28.394   2.718
28387W        W99970  15.772  34.960  13.023
28388W        W99971  14.702  43.571   0.788
28389W        W99972  14.886  38.820  11.241
28390W        W99973  10.678  29.424  14.319
28391W        W99974   3.907  21.189  13.012
28392W        W99975   9.244  27.194   2.450
28393W        W99976  42.195   2.341   2.282
28394W        W99977  16.886  16.628   2.323
28395W        W99978  36.546  12.429  13.595
28396W        W99979  33.073  23.980   0.465
28397W        W99980  41.843   6.286  14.471
28398W        W99981   5.249  33.511   0.003
28399W        W99982  41.787   0.985   1.389
28400W        W99983  28.146  33.647  12.021
28401W        W99984  31.151  41.628  12.115
28402W        W99985  23.172  43.919  14.925
28403W        W99986  11.803  24.937   0.975
28404W        W99987  19.792  15.125   1.343
28405W        W99988  38.380  37.577   4.550
28406W        W99989   4.341  38.132   1.247
28407W        W99990  27.716   8.388   0.659
28408W        W99991  27.369  33.502  14.845
28409W        W99992  15.694   7.796  13.537
28410W        W99993  14.782   6.693   4.439
28411W        W99994  24.473  34.797   4.280
28412W        W99995  27.570  15.031   2.819
28413W        W99996   0.981  36.305   2.829
28414W        W99997  18.187   0.737  14.781
28415W        W99998  28.444  12.147  12.914
28416W        W99999  17.437   9.592   0.814
28417W        W    0  12.391  12.801   4.478
28418W        W    1  21.519  37.516  10.513
28419W        W    2  14.401  25.221  13.502
28420W        W    3  29.630  34.368  14.929
28421W        W    4  17.462  13.549   2.925
28422W        W    5   9.516   5.290   0.273
28423W        W    6  44.693   2.703   1.695
28424W        W    7  20.531  37.892   3.104
28425W        W    8   7.224  28.840  13.423
28426W        W    9  26.071  44.259   3.704
28427W        W   10   4.212  19.159  10.903
28428W        W   11  43.615  16.916  12.638
28429W        W   12  40.289  32.865  12.959
28430W        W   13  30.963   1.460   2.811
28431W        W   14  21.624  40.612  12.630
28432W        W   15  28.869  19.346  11.873
28433W        W   16  28.248  39.585  12.519
28434W        W   17  15.827  25.285   4.116
28435W        W   18  26.537  22.106   0.333
28436W        W   19  13.206  41.085  14.042
28437W        W   20  38.745  14.161   2.336
28438W        W   21  11.287  43.507   1.162
28439W        W   22  12.423  18.182   0.882
28440W        W   23  11.837  37.840  14.528
28441W        W   24  26.810  19.085  13.823
28442W        W   25   6.094  20.420  12.032
28443W        W   26  34.186  29.491   0.554
28444W        W   27  36.937  15.433   2.813
28445W        W   28  19.166  28.275   2.257
28446W        W   29  29.660  38.807  12.486
28447W        W   30  32.990   3.674  13.001
28448W        W   31  40.700  24.824  14.890
28449W        W   32  14.298  11.701   2.207
28450W        W   33  20.947  36.645   2.836
28451W        W   34  34.963   4.590  10.742
28452W        W   35  14.577  27.631  11.654
28453W        W   36  27.397   9.201   4.850
28454W        W   37  25.295  22.500   1.194
28455W        W   38   4.089   4.529  12.073
28456W        W   39  30.913  31.470  13.939
28457W        W   40   4.637  13.733  11.493
28458W        W   41  24.675  18.587   1.655
28459W        W   42  16.081   6.625   0.359
28460W        W   43  34.632  27.569   1.705
28461W        W   44   6.037   8.001  14.294
28462W        W   45   4.134  17.175   1.804
28463W        W   46  10.471  31.460  10.804
28464W        W   47  14.720   9.840   1.973
28465W        W   48   8.201   4.183  13.993
28466W        W   49  42.554  23.711   2.279
28467W        W   50   5.043  29.670   0.751
28468W        W   51  20.718   1.189   0.904
28469W        W   52  18.153  31.479   2.705
28470W        W   53  26.628  30.756  10.247
28471W        W   54  28.082  37.091   4.175
28472W        W   55  33.648  11.974  11.588
28473W        W   56  33.993  36.492   0.996
28474W        W   57  15.073  19.045  11.090
28475W        W   58  33.019  11.207   3.220
28476W        W   59  22.642  10.893  10.447
28477W        W   60  37.316   6.518   5.104
28478W        W   61  27.163   7.685   3.397
28479W        W   62  22.714  13.332  14.977
28480W        W   63  33.148  38.303  12.577
28481W        W   64  28.261  25.730  12.108
28482W        W   65   3.971  37.351  11.529
28483W        W   66  31.044  12.767  11.932
28484W        W   67  42.066   4.030   3.773
28485W        W   68   1.474  32.256  10.761
28486W        W   69  31.319  25.267   3.654
28487W        W   70  10.693  26.470  10.363
28488W        W   71  42.267   6.367   3.132
28489W        W   72  16.001   3.014  12.494
28490W        W   73  14.637  24.476  10.790
28491W        W   74   5.767  21.400   0.458
28492W        W   75  19.593  12.773   1.712
28493W        W   76   8.166   0.940   2.791
28494W        W   77  35.114  36.118  14.294
28495W        W   78  23.495  33.918  14.847
28496W        W   79  40.936  13.103  13.489
28497W        W   80  15.432  43.327   3.517
28498W        W   81   7.921   2.294  11.527
28499W        W   82  29.973  21.666  13.362
28500W        W   83   0.288  19.632  10.631
28501W        W   84  38.500   7.949   1.764
28502W        W   85  40.522  29.868   0.879
28503W        W   86  13.261  13.464  11.731
28504W        W   87  43.748  24.087  11.545
28505W        W   88  20.509  43.760  14.198
28506W        W   89  21.580  19.091   4.507
28507W        W   90  32.343  28.141   2.125
28508W        W   91  23.484  29.093   4.238
28509W        W   92  19.457  33.614  11.180
28510W        W   93   1.241  38.754   4.663
28511W        W   94   6.468  40.810   2.172
28512W        W   95   4.454  11.314  13.471
28513W        W   96  20.670   0.008   3.300
28514W        W   97  10.172  23.572   2.075
28515W        W   98  25.336  29.892   4.837
28516W        W   99  27.139  35.530  14.876
28517W        W  100  18.573   7.972   2.270
28518W        W  101   8.976  43.286   0.141
28519W        W  102  22.511  17.292   2.274
28520W        W  103  15.391   4.031  10.559
28521W        W  104  41.578  30.160  11.243
28522W        W  105  39.400  13.684  13.454
28523W        W  106   5.724   9.792   1.145
28524W        W  107   4.432  28.441   1.858
28525W        W  108  21.519  17.315   2.335
28526W        W  109  13.333  14.577  13.491
28527W        W  110   7.928  14.742   4.917
28528W        W  111  15.524   4.875  12.202
28529W        W  112  39.363  18.090   3.729
28530W        W  113  28.918  10.710   3.957
28531W        W  114   4.172  31.550  11.538
28532W        W  115  20.962   9.803   4.661
28533W        W  116  31.196  25.471   4.235
28534W        W  117  22.821  40.750  12.558
28535W        W  118  22.156   6.850   3.694
28536W        W  119  15.551  31.421   3.600
28537W        W  120  29.539  33.119  10.548
28538W        W  121  21.031  36.627   1.081
28539W        W  122  33.158   2.871  14.728
28540W        W  123   3.263  42.060   4.509
28541W        W  124  33.460  11.409  13.125
28542W        W  125  16.352  31.642  10.794
28543W        W  126  43.789  17.800   0.730
28544W        W  127  23.117   9.028   5.546
28545W        W  128  36.306  34.342  11.161
28546W        W  129  26.173  11.865   2.799
28547W        W  130  12.194   9.089  14.558
28548W        W  131   9.802  18.322  10.707
28549W        W  132  40.611   2.899  13.883
28550W        W  133  34.542  38.090   2.320
28551W        W  134  44.047  12.371  14.057
28552W        W  135  42.923   5.303  12.018
28553W        W  136  33.187  27.232   2.776
28554W        W  137  32.507   9.267  12.956
28555W        W  138  26.629   9.427  11.120
28556W        W  139   3.141   0.268   2.109
28557W        W  140   6.390  39.270  14.984
28558W        W  141  16.558  17.327   3.765
28559W        W  142   7.576  16.238  14.417
28560W        W  143  13.291   5.699  11.018
28561W        W  144  44.779   6.672   2.775
28562W        W  145  31.603  44.475  12.848
28563W        W  146   9.174  33.980   4.568
28564W        W  147   5.616  38.750  12.427
28565W        W  148  25.187  38.371   3.965
28566W        W  149  25.994  25.994  11.110
28567W        W  150  33.028  40.600  12.960
28568W        W  151  34.368  18.479  13.256
28569W        W  152  36.119   4.788  14.404
28570W        W  153  22.179  30.916   1.855
28571W        W  154  34.001  17.552   1.794
28572W        W  155  20.271  10.315   2.564
28573W        W  156  39.369  11.674  10.697
28574W        W  157  10.598  18.735   0.871
28575W        W  158   4.536  32.657  10.795
28576W        W  159  28.554  26.177  13.779
28577W        W  160  32.210  11.713   5.379
28578W        W  161  36.950   8.154   1.080
28579W        W  162  13.000  21.958  13.978
28580W        W  163   3.759  32.111  10.302
28581W        W  164  40.301   1.853   0.457
28582W        W  165  39.923  35.965  13.812
28583W        W  166  24.042  42.280   4.138
28584W        W  167  13.718  24.729   1.849
28585W        W  168  31.829  32.886  12.663
28586W        W  169   7.592  23.991  12.099
28587W        W  170  12.577  44.968   2.271
28588W        W  171   5.789  27.462  12.167
28589W        W  172  28.695  32.954  13.527
28590W        W  173   7.568  44.461  11.099
28591W        W  174  30.962  31.626   2.106
28592W        W  175  21.012  31.864  11.971
28593W        W  176   2.246  29.222  13.409
28594W        W  177  39.299  30.078  13.327
28595W        W  178  17.881  41.172  12.979
28596W        W  179   4.204   7.750   3.409
28597W        W  180  33.373  32.146  14.856
28598W        W  181  42.858  29.683   0.926
28599W        W  182  27.630  16.109   1.954
28600W        W  183  26.979  20.782   2.266
28601W        W  184   7.176   7.272  10.681
28602W        W  185  27.012  13.288   9.901
28603W        W  186  10.963  12.685   3.691
28604W        W  187   4.924  27.538   1.362
28605W        W  188  40.376  31.351   3.797
28606W        W  189  16.541  34.379   4.185
28607W        W  190   6.766  13.746  14.853
28608W        W  191  33.388  10.213  14.038
28609W        W  192  20.095  32.574  13.638
28610W        W  193   9.048  41.026   3.262
28611W        W  194  18.231  14.695   4.692
28612W        W  195  15.488   7.654   5.113
28613W        W  196  28.641  36.633   1.895
28614W        W  197  37.284  43.845   4.212
28615W        W  198  40.593  19.552  10.260
28616W        W  199   1.257  40.348  11.195
28617W        W  200  35.819  30.421   0.262
28618W        W  201  29.597  17.264   1.246
28619W        W  202   7.250  39.351  14.810
28620W        W  203   6.983  41.801   0.760
28621W        W  204   8.168  22.323   4.464
28622W        W  205  22.127  25.509   2.288
28623W        W  206  24.384  22.081  12.874
28624W        W  207  18.693  30.812   0.851
28625W        W  208  44.040  25.068  13.880
28626W        W  209  22.985  11.869  12.547
28627W        W  210   0.818  36.055  13.718
28628W        W  211  14.099  30.178  10.945
28629W        W  212  20.966  43.364  11.615
28630W        W  213  38.583  31.612   4.177
28631W        W  214   7.148   8.952   2.320
28632W        W  215  11.055  37.429  11.476
28633W        W  216   1.845  29.967  14.452
28634W        W  217   4.275  18.726  12.980
28635W        W  218  17.784   4.442   0.980
28636W        W  219  26.695  17.682  14.342
28637W        W  220  25.951  33.545  13.549
28638W        W  221   5.443  25.559  11.078
28639W        W  222  30.479   6.932  14.421
28640W        W  223  42.955  16.131   0.420
28641W        W  224  13.729  10.543  14.130
28642W        W  225  24.442   8.369   0.133
28643W        W  226   6.878   6.331  12.346
28644W        W  227   5.142  25.038  10.517
28645W        W  228   6.213  20.455   0.376
28646W        W  229  20.661  43.740  11.461
28647W        W  230  36.201   9.843  10.744
28648W        W  231   9.357  17.668   0.238
28649W        W  232  21.266  26.913   3.818
28650W        W  233  23.040  19.293  14.714
28651W        W  234  17.117   1.523  13.985
28652W        W  235  33.425  28.044  10.643
28653W        W  236  10.357  43.715  12.058
28654W        W  237  11.575   8.229  13.491
28655W        W  238   0.718  36.502  14.482
28656W        W  239  43.813  25.306  11.015
28657W        W  240  26.128  39.823  14.086
28658W        W  241  34.118  43.340  12.459
28659W        W  242  10.902  32.153  14.833
28660W        W  243   7.722  19.337  14.107
28661W        W  244   0.006  36.357   0.428
28662W        W  245   1.977   0.701   1.880
28663W        W  246  18.449  22.541  10.191
28664W        W  247  16.794  29.267   4.059
28665W        W  248  33.566  40.891  12.443
28666W        W  249  24.528  40.158  11.598
28667W        W  250  19.821  25.954  11.585
28668W        W  251  36.070  10.323   1.241
28669W        W  252   2.448  33.965  11.592
28670W        W  253   8.089   8.472  11.144
28671W        W  254  34.879  11.795  12.516
28672W        W  255  31.875  31.870  12.009
28673W        W  256  19.124  10.604  14.312
28674W        W  257  15.803  32.878   0.918
28675W        W  258   9.180  23.249  11.959
28676W        W  259   5.497  42.974   2.366
28677W        W  260  43.529   0.960   4.837
28678W        W  261  20.797  22.414  12.491
28679W        W  262  25.719  43.028  11.019
28680W        W  263  18.611  18.522   5.035
28681W        W  264  29.322  37.926   2.291
28682W        W  265  34.393  27.573   2.782
28683W        W  266  10.114  40.787   3.270
28684W        W  267  24.193   2.864  14.290
28685W        W  268  11.249   6.385   4.015
28686W        W  269  28.769  43.094   4.238
28687W        W  270  35.565  23.622   2.826
28688W        W  271  23.799  11.854   2.715
28689W        W  272  37.881  23.222   3.256
28690W        W  273  30.656   8.705   4.071
28691W        W  274   2.820  34.627  13.412
28692W        W  275  19.474  36.985  13.259
28693W        W  276  27.750  41.173   5.098
28694W        W  277  42.684  33.491   0.795
28695W        W  278  14.790   1.468  14.965
28696W        W  279  30.418  23.490  11.103
28697W        W  280  26.126  39.488  11.641
28698W        W  281  24.051  40.780   3.134
28699W        W  282  16.908  33.818   1.845
28700W        W  283  13.681  33.411   0.299
28701W        W  284  37.943  31.052   4.135
28702W        W  285   7.406  37.876   3.024
28703W        W  286   9.715  17.237  12.886
28704W        W  287  18.151  30.720   3.159
28705W        W  288  30.648  10.884  14.823
28706W        W  289  14.662   5.110   3.171
28707W        W  290   7.781  13.672   4.047
28708W        W  291  11.465  23.146   2.270
28709W        W  292  19.563  15.357  11.133
28710W        W  293  38.404   6.967   2.100
28711W        W  294  26.490  18.398  10.684
28712W        W  295  34.782  32.858   0.293
28713W        W  296  26.545  16.826  11.197
28714W        W  297  41.603   6.033  12.953
28715W        W  298  40.331   1.259  10.679
28716W        W  299  15.792   5.712   2.947
28717W        W  300  29.214   6.323  10.455
28718W        W  301  24.080  40.792   1.182
28719W        W  302   4.663  40.879   1.975
28720W        W  303   2.241  31.201  11.975
28721W        W  304  10.853  28.340   2.173
28722W        W  305  37.522  32.582   2.184
28723W        W  306   6.873   8.884   3.260
28724W        W  307  31.210  25.648  10.609
28725W        W  308  42.638  33.656   4.694
28726W        W  309  31.493  22.935  13.674
28727W        W  310  12.608  31.643  13.041
28728W        W  311   9.519  24.793   3.336
28729W        W  312   6.226  19.311   4.109
28730W        W  313   3.444  11.083  14.417
28731W        W  314  42.352  41.251  14.910
28732W        W  315  41.228   6.572   0.354
28733W        W  316  29.712  17.728   0.732
28734W        W  317  25.521  15.514  12.489
28735W        W  318   3.315  42.415   3.087
28736W        W  319  37.911   5.546  10.808
28737W        W  320  23.232   6.903   2.368
28738W        W  321  23.999  23.290   1.847
28739W        W  322  24.464  26.879   1.660
28740W        W  323  24.479  41.972   1.789
28741W        W  324  40.965   7.430  10.591
28742W        W  325  29.029   9.330   4.271
28743W        W  326  28.988  43.780  11.654
28744W        W  327  16.011  34.369   4.123
28745W        W  328  26.605   9.827   1.405
28746W        W  329  27.635   7.291   0.292
28747W        W  330   2.891  14.122   0.999
28748W        W  331  16.965  24.037   2.803
28749W        W  332  27.414   8.135  12.981
28750W        W  333  12.176  25.234  10.584
28751W        W  334  28.921  13.229  11.152
28752W        W  335  29.926  17.865   1.333
28753W        W  336  40.675   3.830  12.916
28754W        W  337  22.623   6.935  14.737
28755W        W  338  34.974   7.674  13.923
28756W        W  339  35.469  32.428  14.693
28757W        W  340  22.170  21.082   4.618
28758W        W  341  36.584  22.197  12.079
28759W        W  342  29.675  25.567   0.252
28760W        W  343   6.140  24.729   3.719
28761W        W  344  39.549  35.693   3.111
28762W        W  345  34.326  38.876   1.816
28763W        W  346  25.525  43.589   1.719
28764W        W  347  34.316  24.953   1.925
28765W        W  348   0.880  27.979  14.325
28766W        W  349  31.533  41.360   1.325
28767W        W  350   9.773   5.718   4.694
28768W        W  351  43.866  11.628  13.551
28769W        W  352   4.402  15.783  13.843
28770W        W  353  41.787  37.454  12.062
28771W        W  354  32.415  26.148  10.653
28772W        W  355  44.009   8.615   1.279
28773W        W  356   4.871  22.274  10.287
28774W        W  357   5.334  38.791   3.747
28775W        W  358  43.938   9.777  12.806
28776W        W  359  30.188  26.044  13.922
28777W        W  360  16.284   9.839  13.318
28778W        W  361   1.762  17.362   0.791
28779W        W  362   3.534  17.450  11.946
28780W        W  363  11.409  24.468  14.857
28781W        W  364  42.370  30.379  14.968
28782W        W  365  31.019   4.815  13.156
28783W        W  366  36.999  21.193  13.101
28784W        W  367   1.052   8.187   2.526
28785W        W  368  30.571  39.264  10.459
28786W        W  369  14.430   7.329   3.627
28787W        W  370  20.346   4.337   1.683
28788W        W  371  12.566  10.361  14.595
28789W        W  372   5.372  26.190   3.276
28790W        W  373   5.202  30.396   4.159
28791W        W  374  43.713   8.122   1.853
28792W        W  375  19.516   3.740  10.632
28793W        W  376  37.588  39.971   2.537
28794W        W  377  25.599   0.815  13.916
28795W        W  378  22.649   0.686  14.432
28796W        W  379  24.727  37.218  13.507
28797W        W  380  18.163  16.903  12.643
28798W        W  381  29.974  25.219   1.763
28799W        W  382  14.571  27.101  14.374
28800W        W  383  20.763  42.757  12.566
28801W        W  384  27.404  43.710   4.193
28802W        W  385  30.474  31.995   4.034
28803W        W  386  23.703  24.276   1.922
28804W        W  387  27.112  31.008   1.664
28805W        W  388  14.133   6.779   2.399
28806W        W  389  42.379  38.073  10.588
28807W        W  390   1.790  23.718   0.229
28808W        W  391  12.278   3.419   0.940
28809W        W  392   1.502  41.627  14.251
28810W        W  393  34.595  14.299   2.846
28811W        W  394  42.582  44.587   0.830
28812W        W  395  39.271  29.482  10.827
28813W        W  396  38.396  33.994  11.804
28814W        W  397   3.658  20.109   0.717
28815W        W  398   9.311   4.263   2.685
28816W        W  399  43.021   7.217   2.808
28817W        W  400  29.690  42.986  13.014
28818W        W  401  18.642   4.236  11.569
28819W        W  402  11.568  39.872   3.026
28820W        W  403   4.445  41.958  12.230
28821W        W  404  26.712  33.579   4.470
28822W        W  405  43.149  17.628  11.463
28823W        W  406  41.901   4.289   3.273
28824W        W  407  38.107   0.846   2.823
28825W        W  408  15.346  15.733   3.174
28826W        W  409  13.870  41.354   2.067
28827W        W  410  11.329  20.758   0.308
28828W        W  411  31.082   1.552   4.525
28829W        W  412  12.120   3.720   3.250
28830W        W  413  32.071  14.230   0.731
28831W        W  414  36.593   1.963  11.594
28832W        W  415  36.697  35.881  13.022
28833W        W  416  12.323  34.369  14.329
28834W        W  417  25.820  24.594  14.624
28835W        W  418  33.325  24.534  14.747
28836W        W  419  13.190  12.171  10.742
28837W        W  420   7.442   3.167   0.357
28838W        W  421  12.882  13.125   1.273
28839W        W  422  36.420   7.396   4.587
28840W        W  423  34.313  19.700   0.167
28841W        W  424   4.010   7.261   3.316
28842W        W  425   2.978  39.095   5.145
28843W        W  426  18.797  23.707   3.852
28844W        W  427   9.354  31.406   4.075
28845W        W  428  25.499  41.696  10.279
28846W        W  429  35.965  11.694   2.304
28847W        W  430   1.699   0.191   2.628
28848W        W  431  36.292  19.080  11.028
28849W        W  432  21.403  18.537  10.810
28850W        W  433  19.678  16.184  13.425
28851W        W  434   0.018  38.494   3.661
28852W        W  435  44.046   7.771   3.306
28853W        W  436   0.418   9.045  13.941
28854W        W  437  10.436  27.231   4.324
28855W        W  438   0.767  34.787  14.307
28856W        W  439  26.788  37.029   0.804
28857W        W  440  23.481  19.601   4.612
28858W        W  441  27.221  10.971   2.780
28859W        W  442  13.669   0.028   2.759
28860W        W  443  29.961  25.165   0.376
28861W        W  444   6.494  30.911   0.316
28862W        W  445  25.053  13.357   5.027
28863W        W  446  15.806  26.671   1.955
28864W        W  447  24.616   8.628  13.523
28865W        W  448  15.332   9.187   3.235
28866W        W  449  19.284   5.280   1.009
28867W        W  450  21.798  33.118   4.140
28868W        W  451  20.921   0.896   0.526
28869W        W  452  13.546  37.841  13.426
28870W        W  453   1.760  34.651  10.761
28871W        W  454   7.645  37.284  11.266
28872W        W  455  25.262  42.101  11.107
28873W        W  456  12.889  38.453   4.855
28874W        W  457  15.503   0.892   2.804
28875W        W  458   0.745  40.715  13.487
28876W        W  459  35.123  30.148  11.552
28877W        W  460   8.555  14.056  11.583
28878W        W  461  24.809  33.901   3.222
28879W        W  462  39.441  40.507  13.604
28880W        W  463   9.561   3.944   4.491
28881W        W  464  43.205  10.674   2.884
28882W        W  465  24.525   2.320   2.512
28883W        W  466   0.886  28.921  14.335
28884W        W  467  12.185  12.488   0.097
28885W        W  468  36.022  21.215  13.349
28886W        W  469  42.344  41.084  11.613
28887W        W  470  16.809  24.495   3.277
28888W        W  471  13.747  40.091  10.643
28889W        W  472   0.989  30.989   2.342
28890W        W  473   2.885  14.338  10.549
28891W        W  474   7.719  29.984  11.680
28892W        W  475  17.961  24.184  14.571
28893W        W  476  27.055  12.517   2.662
28894W        W  477  39.267  19.104   1.751
28895W        W  478  25.501  14.701   3.747
28896W        W  479  11.719   2.960  12.752
28897W        W  480   6.309  13.536   3.593
28898W        W  481  39.679  42.212  11.569
28899W        W  482  26.078  12.742   5.010
28900W        W  483  32.366  23.310  13.473
28901W        W  484  22.712  10.629   4.818
28902W        W  485   2.554  34.650   4.118
28903W        W  486  22.295  31.570  14.540
28904W        W  487  22.311  38.980   3.412
28905W        W  488  21.199  31.054  13.474
28906W        W  489  10.722  15.908  14.885
28907W        W  490  37.373   7.163   0.387
28908W        W  491  26.262   3.779   0.772
28909W        W  492  22.216  19.035  11.629
28910W        W  493  37.352  40.260   4.279
28911W        W  494  43.826  17.963   4.031
28912W        W  495  11.312   6.764   1.200
28913W        W  496  24.585  33.134   1.693
28914W        W  497  12.944   0.204   4.093
28915W        W  498  29.012  28.053  12.826
28916W        W  499  20.163  21.609  13.072
28917W        W  500  21.307  27.512   1.216
28918W        W  501  26.950  33.929  12.394
28919W        W  502   8.273  40.980  10.665
28920W        W  503  11.697  25.636   2.674
28921W        W  504  20.239  31.867  14.886
28922W        W  505  21.305  14.905  13.587
28923W        W  506  28.731   8.890   0.235
28924W        W  507  40.026  16.027  11.629
28925W        W  508  34.448  27.717  13.401
28926W        W  509  39.552   2.228  12.006
28927W        W  510  18.188  38.693  13.915
28928W        W  511  43.321  28.200   4.253
28929W        W  512  35.573  14.261  12.102
28930W        W  513  44.668  33.212   4.514
28931W        W  514  38.333  37.605   1.392
28932W        W  515  40.811  22.622   3.920
28933W        W  516  21.137  10.654  10.410
28934W        W  517  10.905   2.589   2.764
28935W        W  518   4.679  21.350   0.757
28936W        W  519  17.085  42.529   1.146
28937W        W  520   8.680   3.040   4.834
28938W        W  521   5.744  31.429   2.888
28939W        W  522  44.423  41.936  11.727
28940W        W  523   9.821  23.233  14.296
28941W        W  524   2.291  40.331  14.541
28942W        W  525  29.247  24.185   0.113
28943W        W  526  23.084   8.738   5.109
28944W        W  527  29.109  13.361   3.334
28945W        W  528   4.724   0.491  13.097
28946W        W  529  30.006   5.459   1.351
28947W        W  530  39.703  15.598  12.418
28948W        W  531  43.889   1.089  14.818
28949W        W  532  41.379  42.511   1.305
28950W        W  533  21.903  13.499  11.414
28951W        W  534  26.930   4.994   0.504
28952W        W  535  39.873   2.434  12.459
28953W        W  536   2.942  27.442  12.040
28954W        W  537  35.325  19.615  13.493
28955W        W  538  25.669   8.905   0.015
28956W        W  539  14.563  37.806  11.925
28957W        W  540   3.285   0.229  10.653
28958W        W  541  36.921  30.423   1.407
28959W        W  542   1.653  12.653   0.007
28960W        W  543  33.244   2.227   1.208
28961W        W  544   4.958  26.343   4.746
28962W        W  545  25.944  28.918   0.104
28963W        W  546  27.224  13.283  14.482
28964W        W  547  31.505  31.322   1.911
28965W        W  548  31.616  44.083   1.940
28966W        W  549   8.062   8.098   0.629
28967W        W  550  37.622  41.571  13.368
28968W        W  551  18.466  41.965   0.818
28969W        W  552  13.301  14.274  12.803
28970W        W  553  39.208   5.675  10.210
28971W        W  554  30.021  32.669   2.822
28972W        W  555   4.394  34.049  12.302
28973W        W  556   2.569  27.174  13.348
28974W        W  557  41.633   6.891  12.930
28975W        W  558   3.273  28.926   0.490
28976W        W  559  22.787   1.209  12.945
28977W        W  560  33.520  23.236  12.079
28978W        W  561  17.660  40.541  13.462
28979W        W  562  26.752   5.897  11.453
28980W        W  563   5.617   7.225  11.939
28981W        W  564   5.574  38.265  12.597
28982W        W  565   6.767   2.537   4.631
28983W        W  566  21.027  35.347  10.772
28984W        W  567  26.521  28.124   3.254
28985W        W  568   9.204  20.099   0.840
28986W        W  569   3.524   1.972  12.936
28987W        W  570  13.646  20.467  11.503
28988W        W  571  37.062  20.293   1.191
28989W        W  572  22.680   4.935  13.622
28990W        W  573  35.391   5.157   3.121
28991W        W  574   9.226  36.361   3.633
28992W        W  575  25.133  22.127  13.562
28993W        W  576  34.334  36.995  12.446
28994W        W  577   9.677   3.344   4.721
28995W        W  578  33.106  31.615  12.088
28996W        W  579   0.484   3.355  11.071
28997W        W  580  42.361  38.789   4.823
28998W        W  581   9.283  30.574   4.664
28999W        W  582  40.538  12.755  13.584
29000W        W  583  40.798  10.684  11.146
29001W        W  584   0.502  21.088   4.531
29002W        W  585  28.376  16.843  11.902
29003W        W  586   7.838  41.262  10.629
29004W        W  587   9.103  12.423   2.492
29005W        W  588  39.260  44.949   4.056
29006W        W  589  11.676  24.631  14.394
29007W        W  590  42.874  20.062  14.586
29008W        W  591   1.703  36.099   0.306
29009W        W  592  35.234  21.237  11.184
29010W        W  593  11.662  30.347  14.952
29011W        W  594  31.076  21.974   2.168
29012W        W  595  32.854  30.852   0.882
29013W        W  596  10.163  16.568   3.394
29014W        W  597  12.158   6.297  11.522
29015W        W  598  10.680  13.764   4.598
29016W        W  599  15.568  31.169  12.729
29017W        W  600  10.949  28.362  12.015
29018W        W  601  14.020  23.647  12.088
29019W        W  602  44.345   5.763  14.598
29020W        W  603  12.391  39.450   3.148
29021W        W  604  17.784  37.025   9.830
29022W        W  605  34.405  28.029   1.624
29023W        W  606  17.613  43.489   0.742
29024W        W  607  15.572  27.933  13.090
29025W        W  608  43.773  22.081  10.692
29026W        W  609   5.330  36.679   0.610
29027W        W  610  36.689   2.854  14.016
29028W        W  611  32.836  34.900  14.737
29029W        W  612  14.198   1.358  12.903
29030W        W  613  11.142  14.509   1.853
29031W        W  614  42.541  39.467  14.453
29032W        W  615  21.258   4.822  14.078
29033W        W  616  11.312   7.041   2.469
29034W        W  617  41.390   7.725  11.543
29035W        W  618  16.459   7.780   1.428
29036W        W  619   3.872  34.593  14.911
29037W        W  620  20.565  22.607   1.198
29038W        W  621  19.597  39.062   1.391
29039W        W  622   8.763  27.494   4.613
29040W        W  623  38.165  17.038   4.996
29041W        W  624  27.089   2.765  12.059
29042W        W  625  20.920  33.891  14.131
29043W        W  626   6.326  27.749   3.206
29044W        W  627  18.480  17.573   2.751
29045W        W  628   5.805  39.582   2.472
29046W        W  629  21.754   2.989  12.555
29047W        W  630  16.647  40.486   4.158
29048W        W  631  21.553  33.925   1.331
29049W        W  632  22.523  43.367  14.753
29050W        W  633  22.435  10.727  13.437
29051W        W  634  23.431  40.868   1.835
29052W        W  635  30.542  44.192   2.734
29053W        W  636   2.890  17.048   4.658
29054W        W  637  42.033  35.149   1.812
29055W        W  638  10.423  42.311  12.877
29056W        W  639   9.824  35.168  11.180
29057W        W  640  32.143  22.191  11.693
29058W        W  641  22.107  41.711   0.201
29059W        W  642  37.095  28.477  14.707
29060W        W  643  28.045  37.546  12.559
29061W        W  644  41.375  42.113   5.082
29062W        W  645   7.633  12.888  11.649
29063W        W  646  11.785  38.584   4.555
29064W        W  647   0.557  42.806   0.986
29065W        W  648  20.284  38.804  11.250
29066W        W  649   2.227   0.229   0.546
29067W        W  650  44.283  10.830   2.699
29068W        W  651  27.912   9.558  14.338
29069W        W  652  16.826  29.618   2.931
29070W        W  653   3.866  19.896  14.012
29071W        W  654  38.209  43.851  10.678
29072W        W  655  31.915   3.733  11.564
29073W        W  656  43.270  15.379   4.166
29074W        W  657  38.350  13.245  12.538
29075W        W  658  32.911  14.657  11.144
29076W        W  659   3.616  39.010  13.079
29077W        W  660  44.252  26.164  10.021
29078W        W  661  24.204   9.230   3.678
29079W        W  662  32.767  23.692  11.135
29080W        W  663  25.252  31.752  14.843
29081W        W  664  18.011  39.447  12.467
29082W        W  665   5.402   2.448  12.551
29083W        W  666  10.135   7.855   4.535
29084W        W  667  31.155  41.037   3.895
29085W        W  668   6.250  36.300   2.578
29086W        W  669  19.200   5.315  11.000
29087W        W  670  18.825   6.821  11.758
29088W        W  671  23.703  31.025   1.785
29089W        W  672  28.591   6.361  11.683
29090W        W  673   1.789   9.244   2.848
29091W        W  674  28.215  27.412   4.133
29092W        W  675  21.586  22.372  10.351
29093W        W  676  24.683   2.305  13.304
29094W        W  677  12.246  26.794  12.478
29095W        W  678   4.315  31.479  14.497
29096W        W  679   2.525  39.308   9.936
29097W        W  680  10.883  38.964   2.783
29098W        W  681  26.526  12.369   2.861
29099W        W  682  42.804  40.825  10.436
29100W        W  683  35.356  28.166  11.713
29101W        W  684  20.159   8.205  11.259
29102W        W  685  15.313  37.151  12.263
29103W        W  686  14.374  18.454   1.287
29104W        W  687  36.557  34.798  11.211
29105W        W  688  29.488  22.314  12.264
29106W        W  689  33.022   4.718  12.969
29107W        W  690  43.472  21.470   1.581
29108W        W  691  22.421  13.356   3.273
29109W        W  692  20.155  17.835   1.001
29110W        W  693  34.195  38.501   2.182
29111W        W  694   6.639  24.812   3.849
29112W        W  695  15.495  40.788   0.067
29113W        W  696  41.102   5.844   3.682
29114W        W  697  33.350   4.036   2.368
29115W        W  698   7.473  41.043  14.387
29116W        W  699  12.069  25.475  12.405
29117W        W  700  28.120  36.419   0.403
29118W        W  701  38.157  11.202  12.496
29119W        W  702  38.930  25.304  11.867
29120W        W  703  20.164  12.379   2.806
29121W        W  704  40.166  38.139  11.144
29122W        W  705  14.206   7.231  13.117
29123W        W  706  37.039  37.089  11.611
29124W        W  707  13.803  13.194  14.532
29125W        W  708  30.086  10.171  12.517
29126W        W  709   7.597  10.101  11.941
29127W        W  710  24.237   1.337   4.184
29128W        W  711  15.179  35.160   2.224
29129W        W  712  14.543  35.960  12.428
29130W        W  713  20.565  34.182   1.190
29131W        W  714  38.221  44.767   0.501
29132W        W  715  21.232   8.412  12.560
29133W        W  716  19.079  41.533   3.423
29134W        W  717   3.938  12.366   2.358
29135W        W  718   8.121  16.198  14.346
29136W        W  719  43.219  32.042   2.607
29137W        W  720  32.159  18.305  11.565
29138W        W  721   7.899  22.634  10.228
29139W        W  722  15.263  29.408   4.617
29140W        W  723  19.543   7.779  13.448
29141W        W  724   4.644   6.710   4.465
29142W        W  725  18.702  25.096   4.257
29143W        W  726   3.775  21.733  12.944
29144W        W  727  20.958  25.545  13.580
29145W        W  728  20.108  10.941  11.301
29146W        W  729   9.618   7.255  12.046
29147W        W  730  27.369  12.311   3.384
29148W        W  731  22.608   8.389   2.831
29149W        W  732  44.034  32.498  14.441
29150W        W  733  41.894  40.446  11.117
29151W        W  734  13.569  10.705  11.990
29152W        W  735  13.239  34.732  14.456
29153W        W  736  23.250  35.167   2.189
29154W        W  737  28.797  29.361  12.777
29155W        W  738  43.522  21.973   1.605
29156W        W  739  37.579  34.391  12.597
29157W        W  740  23.714  11.511  13.936
29158W        W  741  41.922  26.434  10.251
29159W        W  742  17.337   1.357   3.655
29160W        W  743  21.619   0.379  11.351
29161W        W  744  10.640  44.863  13.598
29162W        W  745  15.302  43.137  10.515
29163W        W  746  42.424  31.783  10.103
29164W        W  747  26.218   2.967   4.654
29165W        W  748  42.401  43.817   0.731
29166W        W  749  33.119  19.842   4.681
29167W        W  750  35.005  27.993   1.312
29168W        W  751   2.992  18.490   4.596
29169W        W  752  19.112  37.342  14.384
29170W        W  753  11.379  24.645   1.067
29171W        W  754  34.381  29.131   3.582
29172W        W  755   1.427  20.701  14.763
29173W        W  756  31.855   2.686   0.425
29174W        W  757  11.553   7.846   2.836
29175W        W  758  25.539  29.589  12.804
29176W        W  759  38.992   6.801  11.570
29177W        W  760  22.337  18.969   4.140
29178W        W  761  38.799  42.135  11.870
29179W        W  762  29.509  16.162  11.577
29180W        W  763  44.985  10.938  14.946
29181W        W  764  37.735  43.416   3.681
29182W        W  765  11.716  17.797  11.939
29183W        W  766  33.157  11.296  10.964
29184W        W  767  17.469  15.660   0.852
29185W        W  768  38.271  22.152  12.744
29186W        W  769  15.529   2.971   4.616
29187W        W  770  35.741  29.797  12.406
29188W        W  771  44.403  15.157   2.760
29189W        W  772  32.304  18.294  12.495
29190W        W  773   4.933   0.031   0.313
29191W        W  774  22.615  12.879  10.173
29192W        W  775  40.064  11.523  11.123
29193W        W  776  24.606  18.040  14.891
29194W        W  777  29.071   6.797  13.246
29195W        W  778   4.465   7.295   0.702
29196W        W  779   1.906  38.047  12.392
29197W        W  780  16.467  33.508  13.461
29198W        W  781  14.931  31.965   3.150
29199W        W  782  43.525   0.909  10.706
29200W        W  783  21.057  41.956  10.756
29201W        W  784   8.819  29.951   4.793
29202W        W  785  43.706  31.707  13.893
29203W        W  786  11.446   0.357   4.207
29204W        W  787  10.379  25.573   0.914
29205W        W  788  13.317   2.708   3.857
29206W        W  789  24.248  30.160   0.742
29207W        W  790   4.617  25.602   2.729
29208W        W  791  39.407   9.390   2.961
29209W        W  792  35.869   4.336  10.994
29210W        W  793  27.412  36.195   1.739
29211W        W  794   5.197  28.778  14.265
29212W        W  795  42.883   5.986   0.359
29213W        W  796   6.927  37.816  12.022
29214W        W  797  19.900  38.061  11.553
29215W        W  798  13.097  44.955   0.190
29216W        W  799  40.724  43.991  13.892
29217W        W  800  28.928  11.688   3.616
29218W        W  801  32.593   4.833   3.898
29219W        W  802  25.565  33.777  11.572
29220W        W  803  41.974  21.436   2.146
29221W        W  804  38.866  30.086   3.664
29222W        W  805   1.850  42.767   2.833
29223W        W  806  43.720  29.885  12.120
29224W        W  807  40.021  10.359   2.697
29225W        W  808  10.086  35.456   2.811
29226W        W  809  37.337  25.650   3.258
29227W        W  810  12.302  28.723  14.547
29228W        W  811  22.081  14.795  11.623
29229W        W  812   6.223  15.060   3.649
29230W        W  813  12.322  11.007  14.699
29231W        W  814  44.844  30.008   3.943
29232W        W  815  22.983  31.118   1.213
29233W        W  816  26.943   5.258   3.428
29234W        W  817  40.057  15.897   3.013
29235W        W  818  28.942  14.543   0.748
29236W        W  819  19.722   9.933   5.105
29237W        W  820  26.661  29.641  10.713
29238W        W  821  32.638   8.217   1.317
29239W        W  822  11.082  12.800   2.817
29240W        W  823  21.129  33.612  10.421
29241W        W  824  36.473  18.344  14.188
29242W        W  825  24.497  13.319   2.158
29243W        W  826  41.471  24.758   1.383
29244W        W  827  18.716  33.526   1.950
29245W        W  828   1.395  34.987   3.641
29246W        W  829  35.527  17.911   3.107
29247W        W  830  41.914  14.081   2.752
29248W        W  831   1.203  31.583   2.708
29249W        W  832   3.267  27.158  11.689
29250W        W  833  11.138   5.316  10.800
29251W        W  834  27.687  30.502   2.392
29252W        W  835  38.811  38.867  14.340
29253W        W  836  12.739   8.671   1.982
29254W        W  837  25.571  24.322  14.262
29255W        W  838  29.732  22.869  13.449
29256W        W  839  14.648  35.351   2.864
29257W        W  840  32.193  27.087   2.759
29258W        W  841  41.037   8.633  13.459
29259W        W  842  42.206  36.574  10.733
29260W        W  843  29.562  11.105  11.145
29261W        W  844  34.620  22.720   2.258
29262W        W  845  40.381   9.036  10.008
29263W        W  846   7.291   1.899  14.704
29264W        W  847  18.166  33.802   0.220
29265W        W  848   8.384  38.134  12.736
29266W        W  849  28.008  34.230   2.730
29267W        W  850  16.094  32.934  11.037
29268W        W  851  16.230  40.966  10.864
29269W        W  852   2.432   0.888   1.307
29270W        W  853  17.214  38.075   1.263
29271W        W  854  26.802   9.163   3.617
29272W        W  855  16.249  11.157  12.684
29273W        W  856   2.435  22.250  12.631
29274W        W  857  43.367  11.476  11.510
29275W        W  858  10.987  31.469  10.745
29276W        W  859  30.973  15.033  10.651
29277W        W  860  17.039  21.655  14.733
29278W        W  861  24.528  29.177   4.352
29279W        W  862  14.256  24.765  13.273
29280W        W  863  39.923  33.093   4.538
29281W        W  864   1.581  28.651   0.788
29282W        W  865  34.814  37.581  12.348
29283W        W  866  23.587  44.141   2.813
29284W        W  867  33.619  22.063  12.925
29285W        W  868  20.761   4.715   1.815
29286W        W  869   0.831  15.060  13.233
29287W        W  870  33.517  11.743   4.624
29288W        W  871   4.049  17.788   1.386
29289W        W  872  35.956   6.977   1.684
29290W        W  873  11.646  43.969  10.472
29291W        W  874  13.320  11.279   4.797
29292W        W  875  25.046  40.720   4.095
29293W        W  876  21.262   3.892   4.623
29294W        W  877   6.900  24.499  12.598
29295W        W  878  44.543  31.521   4.047
29296W        W  879  37.871  25.436   1.259
29297W        W  880  25.649   9.566  14.526
29298W        W  881  36.526  15.799   0.386
29299W        W  882   1.306  30.197   4.096
29300W        W  883  40.265  34.065   1.810
29301W        W  884   9.721  34.035  13.462
29302W        W  885  34.481   8.925  13.955
29303W        W  886  11.201  43.089   3.243
29304W        W  887  10.333  22.156   1.334
29305W        W  888  39.129   8.898   1.605
29306W        W  889  22.606  37.978   1.816
29307W        W  890  16.161  23.010  12.093
29308W        W  891  37.405  30.108  10.874
29309W        W  892  10.699  14.562   1.284
29310W        W  893  15.124  21.626  12.187
29311W        W  894  14.713  41.981   3.402
29312W        W  895   2.666  39.746  13.012
29313W        W  896  41.778  43.990   3.624
29314W        W  897  40.908  31.429   1.241
29315W        W  898  18.269  38.935  11.155
29316W        W  899  24.197   6.268   4.313
29317W        W  900  12.582  29.595   3.795
29318W        W  901  17.752  23.273   2.577
29319W        W  902  17.058   0.251  14.291
29320W        W  903  13.854  41.065  10.641
29321W        W  904  34.687  44.925   3.613
29322W        W  905   5.786  10.238   1.395
29323W        W  906  33.384  23.621  13.840
29324W        W  907  44.466  43.535   1.686
29325W        W  908  36.419   0.913   1.147
29326W        W  909  25.900  30.152  11.496
29327W        W  910  13.445   6.493   0.991
29328W        W  911  35.687  41.785  10.882
29329W        W  912   2.224  13.886   0.016
29330W        W  913  44.438  23.206  14.782
29331W        W  914  35.469  33.333  11.621
29332W        W  915  34.601  25.077   3.397
29333W        W  916   6.153  17.721   0.003
29334W        W  917  36.907  28.284  12.505
29335W        W  918  27.961  26.819  13.829
29336W        W  919  32.371   9.007  13.406
29337W        W  920  40.804  43.629   2.486
29338W        W  921   4.407  16.191  14.916
29339W        W  922  13.324   4.902  11.705
29340W        W  923  24.079  22.176  11.037
29341W        W  924  14.050  12.298   1.098
29342W        W  925  20.136  27.626  12.965
29343W        W  926  41.985  24.493  12.580
29344W        W  927  39.809  44.394  11.133
29345W        W  928  13.847  39.706   0.384
29346W        W  929  29.083  12.431  11.077
29347W        W  930  34.499  40.765   3.645
29348W        W  931  26.200  28.586   2.737
29349W        W  932  26.506  16.395  14.961
29350W        W  933  17.769   9.902  13.440
29351W        W  934  22.074   0.865   1.049
29352W        W  935  19.614  12.598  14.717
29353W        W  936  10.824  14.257   3.395
29354W        W  937  43.472  19.161   2.737
29355W        W  938   6.231   4.319   3.755
29356W        W  939  24.750  12.758  11.463
29357W        W  940  24.182  21.761   2.274
29358W        W  941  36.557  24.348  14.046
29359W        W  942   2.743  42.709  11.601
29360W        W  943  22.916  18.801  11.452
29361W        W  944   4.425  33.872  13.165
29362W        W  945  33.114  32.565   0.709
29363W        W  946  36.168  28.488  12.484
29364W        W  947  37.111  29.960   2.836
29365W        W  948  44.036   1.906   1.353
29366W        W  949   8.763   2.980  12.521
29367W        W  950  32.773  34.560   2.255
29368W        W  951  36.482   6.298   1.312
29369W        W  952  17.268   3.487  11.089
29370W        W  953  30.223   3.843   2.661
29371W        W  954  21.287   9.410   4.143
29372W        W  955  25.589  15.149   4.561
29373W        W  956  34.362  39.446  12.525
29374W        W  957  28.153  30.724  11.091
29375W        W  958   6.877  28.596  12.061
29376W        W  959   1.537  14.307  12.096
29377W        W  960  33.178  39.437  14.408
29378W        W  961  15.330  35.658   2.247
29379W        W  962  35.348   6.738   4.137
29380W        W  963  40.546  22.166  11.644
29381W        W  964  16.232  42.670   1.893
29382W        W  965  14.135  42.130  11.077
29383W        W  966  10.813  33.630  10.896
29384W        W  967  34.445  15.036   0.903
29385W        W  968  27.943   9.600   1.010
29386W        W  969  21.326   3.944   0.947
29387W        W  970  34.824  17.510  13.101
29388W        W  971  33.694  22.175   0.344
29389W        W  972   6.731  11.676   2.861
29390W        W  973  39.770  41.974   0.445
29391W        W  974  31.939  32.595  10.660
29392W        W  975  10.384  39.823  12.421
29393W        W  976  14.215  44.897   4.159
29394W        W  977  31.568   4.235   1.692
29395W        W  978  23.566  40.595  11.552
29396W        W  979  18.273   0.884  14.307
29397W        W  980  34.696  23.038  11.161
29398W        W  981  24.296  23.971  14.378
29399W        W  982  42.465   9.391   3.932
29400W        W  983  31.407  38.099  11.940
29401W        W  984  10.757  13.500   1.315
29402W        W  985   2.399  15.657  13.435
29403W        W  986  38.103  36.329   1.720
29404W        W  987   9.079  40.356   0.881
29405W        W  988  11.917  20.583  14.037
29406W        W  989  30.719  43.966  13.964
29407W        W  990  35.064  17.134   4.557
29408W        W  991  25.174  18.738   1.476
29409W        W  992  31.173  36.782   5.007
29410W        W  993  17.639  28.645  14.406
29411W        W  994  14.595  41.716   5.001
29412W        W  995  26.580  41.046  10.963
29413W        W  996   4.326  40.536  13.466
29414W        W  997  40.330   5.353   9.783
29415W        W  998  24.193  16.388   3.706
29416W        W  999  26.498  30.585   0.026
29417W        W 1000  33.905  14.922   2.708
29418W        W 1001   5.896  34.784  13.853
29419W        W 1002  17.249  19.548   3.639
29420W        W 1003  15.159  27.460  10.661
29421W        W 1004  17.695  34.514   0.901
29422W        W 1005  19.833  33.996  14.503
29423W        W 1006  12.314  40.455   2.320
29424W        W 1007   1.722  37.011  12.570
29425W        W 1008  14.561  39.146   1.676
29426W        W 1009  31.620  14.503  11.631
29427W        W 1010  29.923  29.212  13.760
29428W        W 1011  42.579   7.394  11.518
29429W        W 1012  13.158  35.538   3.750
29430W        W 1013  15.932  22.047   0.346
29431W        W 1014  41.050  29.906   0.945
29432W        W 1015  16.208   3.453   0.986
29433W        W 1016  23.606  16.340  12.967
29434W        W 1017  43.352   0.748   1.818
29435W        W 1018   6.738  18.050   4.216
29436W        W 1019   9.129  34.376   0.383
29437W        W 1020   8.011  21.040   3.708
29438W        W 1021  35.874   4.008   0.010
29439W        W 1022  14.655   2.922   1.863
29440W        W 1023   7.281  11.822  13.938
29441W        W 1024   4.783  40.786  13.569
29442W        W 1025  44.398   0.266   0.813
29443W        W 1026  28.710  39.565  14.325
29444W        W 1027  16.233  25.204  14.943
29445W        W 1028  13.958  35.176   3.870
29446W        W 1029  42.980  20.651  13.884
29447W        W 1030  10.738  15.169   4.181
29448W        W 1031   4.112  36.501   1.910
29449W        W 1032  19.103  31.228   5.449
29450W        W 1033  35.335  43.370  10.833
29451W        W 1034   8.916   1.076  13.910
29452W        W 1035  24.610  39.454   0.718
29453W        W 1036  24.921   2.795  13.270
29454W        W 1037  22.760  25.911   0.397
29455W        W 1038  30.419   3.993   3.860
29456W        W 1039  26.439  17.129  11.784
29457W        W 1040  28.512  14.131   1.633
29458W        W 1041  26.510  41.050   1.826
29459W        W 1042  17.020  23.269   4.161
29460W        W 1043  20.797  34.424   0.802
29461W        W 1044  25.453  20.276  12.109
29462W        W 1045  43.909   1.615  14.061
29463W        W 1046   4.789  14.191   0.180
29464W        W 1047   8.307  16.051   4.074
29465W        W 1048   9.329  28.148   4.450
29466W        W 1049  24.543   4.042  11.065
29467W        W 1050  30.352  40.060   5.072
29468W        W 1051  38.226  41.780   2.301
29469W        W 1052  37.180  13.637   1.470
29470W        W 1053  22.864   6.729  10.051
29471W        W 1054  20.938  27.732   2.578
29472W        W 1055  36.856   6.116  10.618
29473W        W 1056  13.672  37.507  14.408
29474W        W 1057   5.680  15.230  14.314
29475W        W 1058   1.980   7.383  13.402
29476W        W 1059  20.072  16.646   4.000
29477W        W 1060  38.854  42.323   1.694
29478W        W 1061   8.412  40.405  13.763
29479W        W 1062  30.214  20.117  13.925
29480W        W 1063  16.948  38.440   0.566
29481W        W 1064   0.179  12.504   2.720
29482W        W 1065  30.052  11.183   0.325
29483W        W 1066   1.529  27.019   1.381
29484W        W 1067  26.842  18.546  11.851
29485W        W 1068   0.971  13.775   0.430
29486W        W 1069  37.678  29.026  12.084
29487W        W 1070  13.937  23.704   1.729
29488W        W 1071   4.508   3.809   0.521
29489W        W 1072  29.939  21.999  13.971
29490W        W 1073  27.133  22.975  10.524
29491W        W 1074  21.677  19.800  11.134
29492W        W 1075  39.503   2.681  11.605
29493W        W 1076   6.249   0.549  12.052
29494W        W 1077  38.979   5.755   1.643
29495W        W 1078   3.708   5.829   1.655
29496W        W 1079  20.385  13.196  12.134
29497W        W 1080  12.695  22.725   3.776
29498W        W 1081   0.664  24.244  11.963
29499W        W 1082  24.787  37.486   0.396
29500W        W 1083  40.481   1.379   0.644
29501W        W 1084  15.159  29.552  11.646
29502W        W 1085  23.135   0.450   0.271
29503W        W 1086  17.541  28.028   1.237
29504W        W 1087   4.629  15.959  14.499
29505W        W 1088   8.174  10.247  11.080
29506W        W 1089  12.301   1.338   3.728
29507W        W 1090  13.669   9.601  14.504
29508W        W 1091  35.528  30.323   2.892
29509W        W 1092   1.974  21.626  10.942
29510W        W 1093  27.927   6.218  10.876
29511W        W 1094  39.390  38.044  12.344
29512W        W 1095   6.158  14.232   3.275
29513W        W 1096   7.601  13.689   3.037
29514W        W 1097  23.726   0.933  10.649
29515W        W 1098  41.498   5.290  14.041
29516W        W 1099  13.553  39.986   2.438
29517W        W 1100   7.821  33.014   3.999
29518W        W 1101   7.615  18.053   2.062
29519W        W 1102  39.185  12.298  10.586
29520W        W 1103  24.510  37.358  14.965
29521W        W 1104  26.106  20.002  14.517
29522W        W 1105  30.898   4.532   3.574
29523W        W 1106  30.620   6.348  11.323
29524W        W 1107  25.505  16.833   0.720
29525W        W 1108  29.033  41.487  11.573
29526W        W 1109  32.924   3.225   4.096
29527W        W 1110  15.615  42.404   3.180
29528W        W 1111  33.038  33.072   1.545
29529W        W 1112  31.000  19.650  12.976
29530W        W 1113  30.719  14.638  12.485
29531W        W 1114  32.099  12.420   2.892
29532W        W 1115  12.747  19.541  12.376
29533W        W 1116  28.617  35.299  10.943
29534W        W 1117   5.114  36.202  13.996
29535W        W 1118   8.332  23.436   1.477
29536W        W 1119  19.278  40.567  10.477
29537W        W 1120  19.842  32.827   3.355
29538W        W 1121  13.937  40.256   1.167
29539W        W 1122   8.659  21.751   0.016
29540W        W 1123  24.216  43.693   2.271
29541W        W 1124  20.184  13.250   2.469
29542W        W 1125  16.192  36.075  11.986
29543W        W 1126  41.876  35.380  11.155
29544W        W 1127  24.865   4.698  14.321
29545W        W 1128  44.326   1.779   3.510
29546W        W 1129  27.165   3.485  11.590
29547W        W 1130   3.247   3.395  12.388
29548W        W 1131   2.629  34.134   0.437
29549W        W 1132   8.289   8.492   0.886
29550W        W 1133  35.918  32.605  10.649
29551W        W 1134  37.547  33.166  10.222
29552W        W 1135  42.940  20.078  11.649
29553W        W 1136  38.056  10.351   3.297
29554W        W 1137  26.713  24.026  11.949
29555W        W 1138  33.690  32.016   3.238
29556W        W 1139  33.633   0.400  11.221
29557W        W 1140   8.959  31.632  10.744
29558W        W 1141  13.171  13.351  13.999
29559W        W 1142  29.983  43.917  11.456
29560W        W 1143  39.901  19.931   4.926
29561W        W 1144   6.950  26.227  11.121
29562W        W 1145  43.013  21.631  10.779
29563W        W 1146  14.105  37.403   2.553
29564W        W 1147  25.769  24.646   3.697
29565W        W 1148  37.038  23.604   2.241
29566W        W 1149  17.274  43.112  14.368
29567W        W 1150  15.003  22.258  12.053
29568W        W 1151  11.721  16.032   4.622
29569W        W 1152  42.967  12.873   4.562
29570W        W 1153  43.814  14.568   0.953
29571W        W 1154   0.846  24.660   1.530
29572W        W 1155   4.996  29.623  10.702
29573W        W 1156   5.307  42.803  11.529
29574W        W 1157  17.382  21.203   3.675
29575W        W 1158  14.731  26.902  10.978
29576W        W 1159  20.692   9.054   2.383
29577W        W 1160  39.101  19.264   0.961
29578W        W 1161   6.054  42.008   0.829
29579W        W 1162  38.557   9.612   3.158
29580W        W 1163   1.469  39.241  13.484
29581W        W 1164   0.285   9.182  12.102
29582W        W 1165  28.615   8.166  11.536
29583W        W 1166  32.545   8.936   0.047
29584W        W 1167  36.066  27.030   0.660
29585W        W 1168  27.868  44.344   0.257
29586W        W 1169  42.276  26.963  13.045
29587W        W 1170  35.379  16.298  12.459
29588W        W 1171  36.641  43.866  14.418
29589W        W 1172  24.160  44.757   3.322
29590W        W 1173   0.289  17.275  13.413
29591W        W 1174   0.254   2.038  12.598
29592W        W 1175  44.471   3.160   1.565
29593W        W 1176  18.084  24.238   3.325
29594W        W 1177  31.949  39.886  14.882
29595W        W 1178   5.768   3.167  11.577
29596W        W 1179  44.333   8.355  12.799
29597W        W 1180  16.678   0.404  13.911
29598W        W 1181  19.726  25.439  14.778
29599W        W 1182   6.122  40.994  13.322
29600W        W 1183  27.117  22.704  11.847
29601W        W 1184   2.542  16.661  11.566
29602W        W 1185  27.193  10.473   2.735
29603W        W 1186  26.097   4.193   3.776
29604W        W 1187  37.803  36.836  13.436
29605W        W 1188   0.912  39.806  13.262
29606W        W 1189  22.515  31.500   2.426
29607W        W 1190  24.123  42.265   1.407
29608W        W 1191  34.410   9.284   3.196
29609W        W 1192  19.094  44.657   1.379
29610W        W 1193   8.922   3.406  10.930
29611W        W 1194  21.751  17.268   3.672
29612W        W 1195  27.421  17.198   3.218
29613W        W 1196  27.607   3.484  10.722
29614W        W 1197  40.415  21.558   4.786
29615W        W 1198  39.843  30.420   4.870
29616W        W 1199   6.885  27.030  13.454
29617W        W 1200  40.335   8.116   1.842
29618W        W 1201  31.457  39.264  10.629
29619W        W 1202  21.193  35.082  12.588
29620W        W 1203  11.102  30.891   0.278
29621W        W 1204  39.041  40.263   1.820
29622W        W 1205  18.103  18.122  12.071
29623W        W 1206  22.806  27.366   3.203
29624W        W 1207   3.991  30.143  10.727
29625W        W 1208  10.439   7.115   2.601
29626W        W 1209   8.276  23.496  11.138
29627W        W 1210  22.227  40.212  14.870
29628W        W 1211   7.565   2.887  13.088
29629W        W 1212  12.830  34.636  12.983
29630W        W 1213   8.276  14.718   1.253
29631W        W 1214  36.608  28.459  14.856
29632W        W 1215  42.048  19.898   1.490
29633W        W 1216  39.339  14.585  13.265
29634W        W 1217  34.131   8.648   0.896
29635W        W 1218  29.744  15.634  10.792
29636W        W 1219   1.729  21.122  12.338
29637W        W 1220  28.534  11.216   4.714
29638W        W 1221  19.536  28.725   1.015
29639W        W 1222  10.428  29.247   2.760
29640W        W 1223  21.571  44.259  13.025
29641W        W 1224  12.671  31.982  14.314
29642W        W 1225  13.615  43.393   3.646
29643W        W 1226  14.824  17.614   1.803
29644W        W 1227  22.353   6.631   9.680
29645W        W 1228  33.861  26.071   1.080
29646W        W 1229  23.431  44.407  10.428
29647W        W 1230   2.194  10.735   4.580
29648W        W 1231  11.790  30.113   2.285
29649W        W 1232   6.507  33.032  12.666
29650W        W 1233  34.136   8.060  14.716
29651W        W 1234  34.130  42.394   0.482
29652W        W 1235  42.347  42.898  11.296
29653W        W 1236   2.245  43.869   1.334
29654W        W 1237  32.374  36.808  11.511
29655W        W 1238  13.150  29.636   4.606
29656W        W 1239  38.314  40.189   3.601
29657W        W 1240   8.266   6.319  10.781
29658W        W 1241   4.955  19.517   4.251
29659W        W 1242  30.362  42.983  13.899
29660W        W 1243  11.186  32.644  13.441
29661W        W 1244  22.614  21.839  10.569
29662W        W 1245  22.244  30.084   5.034
29663W        W 1246  11.701   5.234   2.809
29664W        W 1247  28.704  14.064   0.155
29665W        W 1248  26.409  22.812   0.385
29666W        W 1249  12.773  25.751  13.756
29667W        W 1250  30.990  13.195  10.697
29668W        W 1251  27.746   0.280  13.021
29669W        W 1252  17.108  37.863  11.131
29670W        W 1253  44.833  24.306   0.652
29671W        W 1254  28.800  27.955   2.846
29672W        W 1255  38.437  19.381  13.711
29673W        W 1256   6.218   6.271  12.951
29674W        W 1257  18.116   6.646   0.830
29675W        W 1258  18.593  41.433   3.584
29676W        W 1259  35.085  21.485   1.326
29677W        W 1260  26.079  28.959   4.194
29678W        W 1261  41.336  39.986   0.297
29679W        W 1262  33.047  34.433  14.740
29680W        W 1263  38.969  15.218  10.739
29681W        W 1264  44.876  19.543   2.690
29682W        W 1265  27.203  38.974  12.051
29683W        W 1266  13.124  10.240   4.729
29684W        W 1267  29.856  33.392  11.527
29685W        W 1268  30.436  34.590   5.051
29686W        W 1269  11.891  41.227   4.244
29687W        W 1270   4.821  12.853  13.115
29688W        W 1271  21.298  44.840   1.269
29689W        W 1272  34.850   0.479  14.378
29690W        W 1273  31.046  38.058   0.374
29691W        W 1274  11.385   5.685  13.903
29692W        W 1275   8.855  16.169  14.830
29693W        W 1276   0.412  12.767   2.330
29694W        W 1277  30.399  29.686   2.188
29695W        W 1278   5.233  40.041   0.317
29696W        W 1279  21.930  32.506  11.959
29697W        W 1280  44.300   8.225   3.140
29698W        W 1281  16.959  14.830  14.429
29699W        W 1282  12.137  15.734   3.185
29700W        W 1283  21.567  30.491   3.229
29701W        W 1284  17.770  44.089  10.308
29702W        W 1285  23.153  18.605  12.431
29703W        W 1286  43.842   7.664  11.932
29704W        W 1287  21.063  27.140  12.921
29705W        W 1288  26.673  26.380   3.599
29706W        W 1289   0.700   8.070   4.106
29707W        W 1290  16.537   2.711   0.533
29708W        W 1291  40.243  20.617   0.401
29709W        W 1292   4.834   2.931  11.886
29710W        W 1293  24.114  43.471   0.825
29711W        W 1294   7.825  39.402   4.120
29712W        W 1295  36.007  42.435   1.113
29713W        W 1296  20.114   5.901   3.620
29714W        W 1297   6.208  33.608   0.248
29715W        W 1298   9.903  30.927  11.981
29716W        W 1299  40.249  35.049   2.902
29717W        W 1300  15.696   9.225  13.823
29718W        W 1301  20.368  16.137   4.173
29719W        W 1302  42.804  40.574   4.460
29720W        W 1303  39.855  19.809  13.787
29721W        W 1304  40.120  28.086  13.920
29722W        W 1305  30.707  25.241  14.312
29723W        W 1306  18.291   7.846  11.387
29724W        W 1307  36.589  43.945   0.612
29725W        W 1308   1.413  23.653  10.431
29726W        W 1309  31.727  10.264  11.418
29727W        W 1310  10.128  18.674   2.706
29728W        W 1311  25.047  18.758  12.941
29729W        W 1312  18.744  40.555   4.590
29730W        W 1313  39.316  22.165  14.025
29731W        W 1314  39.465  22.127  11.117
29732W        W 1315   1.236  32.092   4.965
29733W        W 1316  31.443  12.541   1.351
29734W        W 1317  40.787  25.006  13.528
29735W        W 1318  34.498  38.127   1.099
29736W        W 1319  18.760  13.681   3.658
29737W        W 1320   5.271  14.169   1.715
29738W        W 1321   8.769  15.746  12.285
29739W        W 1322  25.119  13.394   9.864
29740W        W 1323  40.937  44.852  13.353
29741W        W 1324  27.681   8.871   0.879
29742W        W 1325  40.791  16.899  12.106
29743W        W 1326  41.020  39.570   0.323
29744W        W 1327  14.081  32.716  14.871
29745W        W 1328  27.236   1.555  14.208
29746W        W 1329  14.714  18.544   1.682
29747W        W 1330   8.679  30.412  14.459
29748W        W 1331  23.465  11.062  12.491
29749W        W 1332  29.434   6.731   1.831
29750W        W 1333  15.445   7.204  12.876
29751W        W 1334  31.312  31.335  14.709
29752W        W 1335  13.685  41.969  13.285
29753W        W 1336  15.266   2.201   0.387
29754W        W 1337  40.791   1.329  12.970
29755W        W 1338  22.950  23.230   1.849
29756W        W 1339  29.835  41.968   0.408
29757W        W 1340  36.447  20.319  12.341
29758W        W 1341  39.975  40.418   0.389
29759W        W 1342  22.083  28.150  11.481
29760W        W 1343  10.655  41.422   3.229
29761W        W 1344  25.557  36.290  13.332
29762W        W 1345   6.765  34.883  12.834
29763W        W 1346  12.344   4.553  12.556
29764W        W 1347  17.758   5.880   4.146
29765W        W 1348  42.985   3.817   0.542
29766W        W 1349  25.933  22.002   1.725
29767W        W 1350  42.749  33.483   2.658
29768W        W 1351  44.232  16.171  10.980
29769W        W 1352  43.904   7.683   1.703
29770W        W 1353  22.936   2.770   3.820
29771W        W 1354  21.581   7.296  10.402
29772W        W 1355   3.264   3.431  12.912
29773W        W 1356  19.125   2.906   3.694
29774W        W 1357   4.249  28.637   2.738
29775W        W 1358  17.262  21.603   3.363
29776W        W 1359  21.472  23.799   0.338
29777W        W 1360  40.439  44.509   3.554
29778W        W 1361  38.858  19.192  10.218
29779W        W 1362  12.415  43.529   1.045
29780W        W 1363   3.311  12.866   1.027
29781W        W 1364  34.430  20.979   1.498
29782W        W 1365  10.625   3.459   1.781
29783W        W 1366  21.663  22.541  14.998
29784W        W 1367  29.699  30.926   1.241
29785W        W 1368  20.905  12.718   0.174
29786W        W 1369  34.626  18.291  11.169
29787W        W 1370  19.055  35.604   1.308
29788W        W 1371  43.866  33.376   3.514
29789W        W 1372  27.076  27.451   4.877
29790W        W 1373  33.169  36.920   2.393
29791W        W 1374   7.320   8.919   1.802
29792W        W 1375   6.412  41.458   3.802
29793W        W 1376  29.015  31.013   3.020
29794W        W 1377  11.860  19.178   3.164
29795W        W 1378   0.265  22.615   0.446
29796W        W 1379   6.473  30.086   4.313
29797W        W 1380  23.695  31.493   4.338
29798W        W 1381  10.827  30.720   0.692
29799W        W 1382   7.001  31.002   0.229
29800W        W 1383  27.521  29.988   2.346
29801W        W 1384   0.927  21.983  14.914
29802W        W 1385  22.153   1.271   4.022
29803W        W 1386  20.271   2.020   4.066
29804W        W 1387   0.350  22.794   1.853
29805W        W 1388   3.068  18.733   0.811
29806W        W 1389  18.588  43.549   2.127
29807W        W 1390  24.724  28.507   3.610
29808W        W 1391  21.852  31.019   0.482
29809W        W 1392  30.864  23.403  11.895
29810W        W 1393  13.355  16.572   4.170
29811W        W 1394  17.546  31.442   1.745
29812W        W 1395  17.334  19.289  14.878
29813W        W 1396  10.907   8.411   2.427
29814W        W 1397  20.665  12.833   3.129
29815W        W 1398  12.229  36.865   4.068
29816W        W 1399  31.861  38.635  11.173
29817W        W 1400  26.284   9.072   4.599
29818W        W 1401  26.404  33.419  14.796
29819W        W 1402  20.743   1.253   2.839
29820W        W 1403  12.762  25.670   2.723
29821W        W 1404  24.746  21.726   1.265
29822W        W 1405   5.371  42.119   0.341
29823W        W 1406  42.119  30.658  11.655
29824W        W 1407  13.520  17.180   0.651
29825W        W 1408  25.132   3.948  13.815
29826W        W 1409  10.294  37.892   0.839
29827W        W 1410  42.057  17.543  12.091
29828W        W 1411  43.390  43.244  12.370
29829W        W 1412  41.887  29.426  10.301
29830W        W 1413  36.620   9.910  10.454
29831W        W 1414  41.544  23.205  14.828
29832W        W 1415  15.126  34.378   3.806
29833W        W 1416   8.649  43.534   0.963
29834W        W 1417  43.052  32.737  13.138
29835W        W 1418  43.437  14.673  12.682
29836W        W 1419  19.037  12.677   4.193
29837W        W 1420  17.469  36.328  13.384
29838W        W 1421  18.210  20.960  11.134
29839W        W 1422   5.434   5.861   4.089
29840W        W 1423   2.584  21.941  11.415
29841W        W 1424  28.659   9.330  12.476
29842W        W 1425   3.414   3.587  13.852
29843W        W 1426  22.579  24.454  13.250
29844W        W 1427  24.012   5.278   1.840
29845W        W 1428  41.552  15.442   3.628
29846W        W 1429  28.556   6.493  14.826
29847W        W 1430  13.743  26.638   2.762
29848W        W 1431  39.513   2.884  14.512
29849W        W 1432  42.824  43.874  14.520
29850W        W 1433  17.092  22.613   4.731
29851W        W 1434  22.233   4.370   0.442
29852W        W 1435  27.915   5.933   2.885
29853W        W 1436  30.581  44.770   2.770
29854W        W 1437  35.928  21.476   4.751
29855W        W 1438  21.590  29.690   1.849
29856W        W 1439  26.188  16.326  11.378
29857W        W 1440  24.681  18.082  11.667
29858W        W 1441  30.268  12.279  11.513
29859W        W 1442  18.529  29.602   0.913
29860W        W 1443  35.120   1.725  11.107
29861W        W 1444   8.299   8.426   1.854
29862W        W 1445   0.390  21.671   3.888
29863W        W 1446   3.017  43.278   4.204
29864W        W 1447   9.132  15.243   4.629
29865W        W 1448   7.938  13.750   2.644
29866W        W 1449   9.415  32.547   1.757
29867W        W 1450  36.289  37.318   0.681
29868W        W 1451  26.969  24.539   4.292
29869W        W 1452  19.974  31.918  14.436
29870W        W 1453  30.420  24.864   2.863
29871W        W 1454  34.690  35.795   1.555
29872W        W 1455  37.543  32.394  13.016
29873W        W 1456  32.008  19.582   4.585
29874W        W 1457   8.478  26.209  10.550
29875W        W 1458  41.228  25.215   0.660
29876W        W 1459   2.332  44.713  12.011
29877W        W 1460  37.607  20.237   0.324
29878W        W 1461  40.989   7.313  13.881
29879W        W 1462  34.482  13.279   5.039
29880W        W 1463  28.977  35.014  12.241
29881W        W 1464  27.610   9.787   1.795
29882W        W 1465  14.821   6.077  10.486
29883W        W 1466  29.513  19.069   3.359
29884W        W 1467  39.872  42.230   3.694
29885W        W 1468   7.480  31.360  12.908
29886W        W 1469  34.967  13.157   1.825
29887W        W 1470   5.774  43.190  12.128
29888W        W 1471  35.040   1.807   3.824
29889W        W 1472   2.646  31.169  11.657
29890W        W 1473  44.241   3.740  14.164
29891W        W 1474  30.411  10.018   2.261
29892W        W 1475  28.602   5.253  11.048
29893W        W 1476  26.700  43.187  13.389
29894W        W 1477   7.229  20.837   1.261
29895W        W 1478  38.644  34.908   1.767
29896W        W 1479  27.403  41.445  10.680
29897W        W 1480   0.012  32.358  12.355
29898W        W 1481  22.742  43.331  10.326
29899W        W 1482  25.732  19.233  10.636
29900W        W 1483   6.710  29.346   4.697
29901W        W 1484  29.491   9.804   1.291
29902W        W 1485   5.836  34.250   3.193
29903W        W 1486  19.250  40.357  13.963
29904W        W 1487  37.294  13.702   4.732
29905W        W 1488  37.872  17.525  11.794
29906W        W 1489  30.717  25.711  10.765
29907W        W 1490  30.148   9.363  14.742
29908W        W 1491  34.476   6.345   1.658
29909W        W 1492  29.747  17.891   3.789
29910W        W 1493  33.915  40.811   0.411
29911W        W 1494  39.053  26.982  11.986
29912W        W 1495   2.431  11.663  11.656
29913W        W 1496  42.890  43.767  12.981
29914W        W 1497  32.561  40.519   0.739
29915W        W 1498  26.948  34.889   1.424
29916W        W 1499  40.096  36.296   4.475
29917W        W 1500  39.527  26.589   4.766
29918W        W 1501   2.793   3.431   4.550
29919W        W 1502   0.724  39.619  11.900
29920W        W 1503  26.710  34.803  10.983
29921W        W 1504  43.932  23.330  14.043
29922W        W 1505  41.681  38.914   1.807
29923W        W 1506  26.046  23.719  14.961
29924W        W 1507  12.326  30.575  14.287
29925W        W 1508   7.136  14.285   1.834
29926W        W 1509  17.352   4.221   4.667
29927W        W 1510  35.268  10.735   1.391
29928W        W 1511  18.670  35.128  14.955
29929W        W 1512  29.830  32.042   1.465
29930W        W 1513  42.374  14.137  12.835
29931W        W 1514   9.579   5.658   1.134
29932W        W 1515  36.305  20.074  11.118
29933W        W 1516  17.910  20.273   3.910
29934W        W 1517  18.710  19.376   3.709
29935W        W 1518  18.781  11.766   5.063
29936W        W 1519  28.888  31.522  12.422
29937W        W 1520  14.799  25.553   2.660
29938W        W 1521  13.053  16.616   2.945
29939W        W 1522   1.767  26.944   0.192
29940W        W 1523  43.468   1.471  11.567
29941W        W 1524  19.706  26.619  13.116
29942W        W 1525   3.454  24.959   4.551
29943W        W 1526  13.868  18.590   1.358
29944W        W 1527  42.528  32.880   3.296
29945W        W 1528   6.227   4.087  11.845
29946W        W 1529  27.409   8.332   2.795
29947W        W 1530  35.970  43.835  14.840
29948W        W 1531  12.066  36.866  12.637
29949W        W 1532   5.802  40.056  13.013
29950W        W 1533  23.015   1.483  11.092
29951W        W 1534  36.265  22.524  13.436
29952W        W 1535   4.298  18.537   2.459
29953W        W 1536  39.757  25.211  11.634
29954W        W 1537  34.399  17.127  11.009
29955W        W 1538  24.023   9.653  12.237
29956W        W 1539  18.240  43.531  14.136
29957W        W 1540   2.535  21.774   1.718
29958W        W 1541   6.649  43.004   4.319
29959W        W 1542  13.612  11.325   3.046
29960W        W 1543  11.838  23.236  11.960
29961W        W 1544  36.593  32.400  12.791
29962W        W 1545  35.138  43.318   4.626
29963W        W 1546  44.018  30.410   2.065
29964W        W 1547  20.544  42.489   3.204
29965W        W 1548  12.246  16.221   3.283
29966W        W 1549  43.845  37.513   1.046
29967W        W 1550  21.851   7.500  14.839
29968W        W 1551  35.826   7.643  14.324
29969W        W 1552  40.911  30.849  11.179
29970W        W 1553  14.393   6.863  11.505
29971W        W 1554  43.146  17.065  14.435
29972W        W 1555  24.146  23.520   3.088
29973W        W 1556  11.697  14.226  13.786
29974W        W 1557  38.522  31.586   0.820
29975W        W 1558  30.878   6.778  12.959
29976W        W 1559  16.841  30.090   1.659
29977W        W 1560  19.632  22.908  14.862
29978W        W 1561  38.515  42.041   3.624
29979W        W 1562  24.939  37.901   1.010
29980W        W 1563  37.831   2.334   2.389
29981W        W 1564   3.918   9.621   2.581
29982W        W 1565   9.631  17.128  13.388
29983W        W 1566  39.393  26.070  11.653
29984W        W 1567  12.393   5.585  11.198
29985W        W 1568  15.073  39.752  10.406
29986W        W 1569  25.275  38.760   3.608
29987W        W 1570  31.574  43.714   3.603
29988W        W 1571  21.092  42.746   4.274
29989W        W 1572  27.533  34.821  13.542
29990W        W 1573  18.174  13.100   4.029
29991W        W 1574  15.860   7.198  13.819
29992W        W 1575  34.491   5.493  14.650
29993W        W 1576  18.060   4.873   2.164
29994W        W 1577   1.377  22.038   0.346
29995W        W 1578  42.080  22.710  14.972
29996W        W 1579  32.454  31.369   1.925
29997W        W 1580  16.183  33.085   2.603
29998W        W 1581  25.131  30.457   0.167
29999W        W 1582  10.193   5.858   3.419
30000W        W 1583   4.706  13.140  11.075
30001W        W 1584  20.743  20.310  13.102
30002W        W 1585  36.283   6.323   4.179
30003W        W 1586  12.935   8.285  13.757
30004W        W 1587  10.280  43.232  12.200
30005W        W 1588  32.656  36.876   1.333
30006W        W 1589  24.316  44.424  14.473
30007W        W 1590   7.897   2.647   4.543
30008W        W 1591   7.602  36.579  11.377
30009W        W 1592  36.826  16.289   4.104
30010W        W 1593  35.570  39.260   4.287
30011W        W 1594   0.282  21.962   0.264
30012W        W 1595  34.371  34.300  14.258
30013W        W 1596  22.558  20.497   3.883
30014W        W 1597  20.951  39.624  11.156
30015W        W 1598  30.590  35.817   0.478
30016W        W 1599  43.418   6.832   4.074
30017W        W 1600  15.747  17.339   1.196
30018W        W 1601   3.286   2.265  14.532
30019W        W 1602  29.166  42.221  12.880
30020W        W 1603   0.738  37.884  13.945
30021W        W 1604   3.354  35.491   3.260
30022W        W 1605   3.894   4.491  13.561
30023W        W 1606   6.815  41.411  14.393
30024W        W 1607   3.692   2.769  14.360
30025W        W 1608  19.607  23.453   3.281
30026W        W 1609   1.498   4.464  14.577
30027W        W 1610  22.857  29.701   5.100
30028W        W 1611  21.117  38.864   1.883
30029W        W 1612  26.110  16.864   3.307
30030W        W 1613  23.513  44.301  13.108
30031W        W 1614  32.946   1.202  12.790
30032W        W 1615  22.520  36.487  12.925
30033W        W 1616   2.066  43.843   0.000
30034W        W 1617  35.398  34.619  13.005
30035W        W 1618  44.479   0.261  10.421
30036W        W 1619  17.861  20.471   0.876
30037W        W 1620  33.967  15.554   1.791
30038W        W 1621  19.975  34.036   0.446
30039W        W 1622  26.111  23.874  11.917
30040W        W 1623  12.692  15.584  10.892
30041W        W 1624  32.314   7.468   3.584
30042W        W 1625  37.005  26.983  10.896
30043W        W 1626  40.335   7.376  11.188
30044W        W 1627  13.598  23.164   2.290
30045W        W 1628  21.303  22.582   3.803
30046W        W 1629  29.883  35.484   4.866
30047W        W 1630  44.322  15.818  13.164
30048W        W 1631   4.089  14.180   3.937
30049W        W 1632  42.065   5.465   2.246
30050W        W 1633  39.856  12.725   0.988
30051W        W 1634   0.986  17.746  14.342
30052W        W 1635  24.817  29.711  11.317
30053W        W 1636   2.982  12.347   2.235
30054W        W 1637  25.667  17.070  13.044
30055W        W 1638  44.496   9.618  12.032
30056W        W 1639  41.051  29.307  11.811
30057W        W 1640  28.716  17.751  14.591
30058W        W 1641  11.713  21.131   1.792
30059W        W 1642  21.996  38.943  10.671
30060W        W 1643  16.168  16.422  13.910
30061W        W 1644  43.473  13.871   0.400
30062W        W 1645  32.425  12.796  12.092
30063W        W 1646  13.083  12.188  12.590
30064W        W 1647  19.119  23.623  14.729
30065W        W 1648  16.194   6.356  14.225
30066W        W 1649  26.434  10.245   2.179
30067W        W 1650   3.818   6.488  11.711
30068W        W 1651  18.727   4.315  10.736
30069W        W 1652  19.040   1.919   3.573
30070W        W 1653  20.293  10.780   3.828
30071W        W 1654  35.767  33.089   2.321
30072W        W 1655   3.529  33.679  12.655
30073W        W 1656   7.369  24.028  14.308
30074W        W 1657  14.618  15.442   0.684
30075W        W 1658   7.262  42.307   2.791
30076W        W 1659  31.042  11.371  11.097
30077W        W 1660  17.295  24.668  12.398
30078W        W 1661  40.991   0.720   2.239
30079W        W 1662  44.949  40.260  12.597
30080W        W 1663  19.226   5.215  14.604
30081W        W 1664  15.298  41.124   1.811
30082W        W 1665   3.482  10.314   4.188
30083W        W 1666  21.574  28.422  12.838
30084W        W 1667   5.940  37.468   4.744
30085W        W 1668  32.039   8.245  10.785
30086W        W 1669   5.556  14.967  12.488
30087W        W 1670  30.847  36.972  12.438
30088W        W 1671  37.429  21.627  10.601
30089W        W 1672  27.761  14.761   3.243
30090W        W 1673  37.487  19.601   4.080
30091W        W 1674   0.335  32.966   1.063
30092W        W 1675  42.196  34.460   4.193
30093W        W 1676   2.767   9.926   4.251
30094W        W 1677   9.224  27.611   4.382
30095W        W 1678  28.676  41.778  11.184
30096W        W 1679  18.286  34.496   4.916
30097W        W 1680  34.927  32.023   2.337
30098W        W 1681  25.533  38.935   9.871
30099W        W 1682  38.010  31.998   1.173
30100W        W 1683  24.654  44.461   4.978
30101W        W 1684   5.065  17.555   3.536
30102W        W 1685  24.540  31.929   2.300
30103W        W 1686  18.520   3.095  12.367
30104W        W 1687   6.100  17.656  11.228
30105W        W 1688  13.367  37.063   3.242
30106W        W 1689  35.731  28.553   0.355
30107W        W 1690  11.505  27.654  12.965
30108W        W 1691   0.673   5.414  13.229
30109W        W 1692  39.254  37.490  13.783
30110W        W 1693  12.112  18.035  11.591
30111W        W 1694  25.062   1.072  14.044
30112W        W 1695   2.418  11.157  11.639
30113W        W 1696   1.165  20.753  13.471
30114W        W 1697  34.417   2.374   0.181
30115W        W 1698  41.782   9.444   1.442
30116W        W 1699  24.415   7.401  14.906
30117W        W 1700  39.642   0.604  10.719
30118W        W 1701   9.629   5.114   1.027
30119W        W 1702  17.381  38.278   2.904
30120W        W 1703  16.320   5.343  14.502
30121W        W 1704   0.651  21.494   1.373
30122W        W 1705  15.528  16.860   3.284
30123W        W 1706  42.574  34.118   2.930
30124W        W 1707   2.367  38.586   5.048
30125W        W 1708   9.977  32.211   0.143
30126W        W 1709  16.864  37.815   5.023
30127W        W 1710  22.302  27.253  11.575
30128W        W 1711  36.765  14.974   4.779
30129W        W 1712   4.982  32.651   1.429
30130W        W 1713  36.378   7.134  13.837
30131W        W 1714  43.367  23.873   2.132
30132W        W 1715  26.861  35.962   5.117
30133W        W 1716   2.877  21.343   2.564
30134W        W 1717  21.790  31.577   0.430
30135W        W 1718  40.879  44.039  12.254
30136W        W 1719  19.142  20.269  10.813
30137W        W 1720   9.351  26.051   1.017
30138W        W 1721  38.604   1.731   2.689
30139W        W 1722  26.210   3.512  13.529
30140W        W 1723  19.062  24.629   1.778
30141W        W 1724  32.187  15.576  12.432
30142W        W 1725  12.163   1.386  14.763
30143W        W 1726  12.991  19.072   0.439
30144W        W 1727  43.021  39.349  11.491
30145W        W 1728   5.591  42.718   4.233
30146W        W 1729   5.162  31.900  10.663
30147W        W 1730  21.092  30.749   3.243
30148W        W 1731  40.082  41.886  11.626
30149W        W 1732  43.989  41.628   1.207
30150W        W 1733  16.078   9.684  14.435
30151W        W 1734  10.441  37.440  14.720
30152W        W 1735  29.188  10.761   2.954
30153W        W 1736  10.219  42.631  10.947
30154W        W 1737  23.064   3.285   3.315
30155W        W 1738  13.741   7.398  12.255
30156W        W 1739  26.830  16.310  13.119
30157W        W 1740  24.432  13.176  11.542
30158W        W 1741  15.845   0.485   1.890
30159W        W 1742  35.847  26.159   4.258
30160W        W 1743   0.685  24.438   2.921
30161W        W 1744  16.480   0.965   0.862
30162W        W 1745  14.115  39.484  11.125
30163W        W 1746  30.001   2.804   1.454
30164W        W 1747  43.317  38.592  12.333
30165W        W 1748  17.583   6.798  12.369
30166W        W 1749  29.129  19.205   1.430
30167W        W 1750   9.401  41.903  13.453
30168W        W 1751   5.320   5.789   2.279
30169W        W 1752  36.453  41.422   1.698
30170W        W 1753  21.103  11.744   4.639
30171W        W 1754  13.876  39.288  13.469
30172W        W 1755   1.499  18.181  12.562
30173W        W 1756  41.285  26.414  13.750
30174W        W 1757  12.895  20.843  13.038
30175W        W 1758  34.102  14.500   4.079
30176W        W 1759  22.594   7.429   1.745
30177W        W 1760   6.904  24.775  13.990
30178W        W 1761  44.186  41.972   2.693
30179W        W 1762  20.732  23.396  11.373
30180W        W 1763  41.859   2.171   4.100
30181W        W 1764  16.721  14.696  13.957
30182W        W 1765   4.680  40.066  10.722
30183W        W 1766   2.753  28.416   0.340
30184W        W 1767  24.166   4.417   3.704
30185W        W 1768  41.478  30.683  10.672
30186W        W 1769  11.772  25.746  11.178
30187W        W 1770   4.285   5.215   1.084
30188W        W 1771  12.822  40.504   2.438
30189W        W 1772  16.739  38.878  11.114
30190W        W 1773  31.920  11.413  12.035
30191W        W 1774  18.437  25.496  13.605
30192W        W 1775  22.424   3.906  10.963
30193W        W 1776  34.048  14.227  14.067
30194W        W 1777  38.620  22.086   1.754
30195W        W 1778   2.099  19.075  12.867
30196W        W 1779  10.265  12.039  12.021
30197W        W 1780   1.119  11.667   1.847
30198W        W 1781  17.773  43.479  10.520
30199W        W 1782   7.974  29.017   3.267
30200W        W 1783  14.820  27.121   2.376
30201W        W 1784  30.081  34.630   1.512
30202W        W 1785  43.679  35.547   2.375
30203W        W 1786  21.468  30.634   0.521
30204W        W 1787   7.720   8.791  11.287
30205W        W 1788  33.588   1.473  13.328
30206W        W 1789   5.159  15.189  14.306
30207W        W 1790  38.322  19.109   1.179
30208W        W 1791  40.411  24.947  12.474
30209W        W 1792  44.730  19.020   1.716
30210W        W 1793  29.434   4.692  11.696
30211W        W 1794  39.995  38.304   2.983
30212W        W 1795  44.846  37.984  14.233
30213W        W 1796  26.173  37.341   3.355
30214W        W 1797  31.608  36.864  14.325
30215W        W 1798  17.498  36.897   1.357
30216W        W 1799   6.204  43.122  11.527
30217W        W 1800   2.414  24.502   2.418
30218W        W 1801  15.325  33.603   1.318
30219W        W 1802  22.277   8.803  11.977
30220W        W 1803   0.288  14.813   4.704
30221W        W 1804  43.766  10.307   4.575
30222W        W 1805  28.173  43.397   2.836
30223W        W 1806   9.605  17.279   1.833
30224W        W 1807   2.494  40.912  14.456
30225W        W 1808  10.402  21.229  13.408
30226W        W 1809   4.169  30.911   2.626
30227W        W 1810  20.629  26.422  13.937
30228W        W 1811  37.779   5.340  14.913
30229W        W 1812   0.324   2.975   4.118
30230W        W 1813  18.454  44.752  13.684
30231W        W 1814  22.457   5.175  10.826
30232W        W 1815  26.759  26.594  10.289
30233W        W 1816  17.641  41.525  13.968
30234W        W 1817  28.038   1.259   0.522
30235W        W 1818  38.525  22.206   3.082
30236W        W 1819  37.366  25.121   2.305
30237W        W 1820  25.549   7.931   4.075
30238W        W 1821   5.728  15.051   3.509
30239W        W 1822  18.266   2.722   1.897
30240W        W 1823   8.397  11.842  12.161
30241W        W 1824  24.238   1.728  10.737
30242W        W 1825   5.867  42.330   0.448
30243W        W 1826   5.404  24.684  10.824
30244W        W 1827  10.841  22.185  11.486
30245W        W 1828  31.068  17.517  14.001
30246W        W 1829  20.296  31.295  11.172
30247W        W 1830  35.549  26.827  13.610
30248W        W 1831   0.363  31.063  11.533
30249W        W 1832  25.755   3.308   4.658
30250W        W 1833  43.890   1.090  14.303
30251W        W 1834  34.149  36.489  12.487
30252W        W 1835   5.309  41.642   5.091
30253W        W 1836  30.897  16.779  14.764
30254W        W 1837  18.176  41.330  14.752
30255W        W 1838  41.274  28.066  12.509
30256W        W 1839   4.931  11.307   3.161
30257W        W 1840  44.955   3.780  14.507
30258W        W 1841  35.728  40.443  10.792
30259W        W 1842  38.979  40.984   4.142
30260W        W 1843  42.362   8.172  13.109
30261W        W 1844  28.222  16.553  11.039
30262W        W 1845  13.778  24.875   2.417
30263W        W 1846  21.921   1.547  10.474
30264W        W 1847  17.593  19.633   1.280
30265W        W 1848   6.929  34.312   1.033
30266W        W 1849  16.243  43.156   3.655
30267W        W 1850  41.964  20.836   1.276
30268W        W 1851  43.875  24.606   2.380
30269W        W 1852  24.202  21.524   2.763
30270W        W 1853   3.389  17.195   1.240
30271W        W 1854  28.679  14.583   4.775
30272W        W 1855  39.258   9.921  14.309
30273W        W 1856  20.441  21.045   4.372
30274W        W 1857  34.030  40.514  13.935
30275W        W 1858   7.322   9.620   5.030
30276W        W 1859  24.918  42.473   0.772
30277W        W 1860  27.784  10.464  13.344
30278W        W 1861   7.785   2.527  12.569
30279W        W 1862   6.435  43.230  11.093
30280W        W 1863  43.114  34.556   9.788
30281W        W 1864   8.518  19.273   3.884
30282W        W 1865  13.350   5.660  14.060
30283W        W 1866  44.342  33.509  14.786
30284W        W 1867  41.353  30.241  14.235
30285W        W 1868  35.449  16.743   4.179
30286W        W 1869  15.279  18.058  12.378
30287W        W 1870   8.749  44.212   2.295
30288W        W 1871  10.908  23.955  14.341
30289W        W 1872   0.031  10.689  14.454
30290W        W 1873  28.815  23.172  11.739
30291W        W 1874  44.531  11.027   3.582
30292W        W 1875  11.260  44.936   4.492
30293W        W 1876  14.238  11.260  12.630
30294W        W 1877  26.998   4.230   2.648
30295W        W 1878  14.298  38.387   4.882
30296W        W 1879  33.032  17.323  12.925
30297W        W 1880  36.879  29.125  10.614
30298W        W 1881  19.068  11.908   1.303
30299W        W 1882   7.553   7.305  13.235
30300W        W 1883  27.590   9.426   3.232
30301W        W 1884  24.938   4.515   3.275
30302W        W 1885   7.431  37.086  10.692
30303W        W 1886  30.104   6.317  10.459
30304W        W 1887  16.329  37.335  10.536
30305W        W 1888  22.181   2.766  13.332
30306W        W 1889  35.854  31.695   2.240
30307W        W 1890  38.770  22.560  11.586
30308W        W 1891  23.137   4.434  11.950
30309W        W 1892  40.395  29.564   1.295
30310W        W 1893  15.409  16.569  12.278
30311W        W 1894  21.823  10.146   0.771
30312W        W 1895  11.333   4.372  13.577
30313W        W 1896  25.101  34.152  11.184
30314W        W 1897  37.031  31.601  12.615
30315W        W 1898  32.577  12.572  14.675
30316W        W 1899   5.775  36.639  12.983
30317W        W 1900  40.790  25.009  12.986
30318W        W 1901  44.069  20.993   2.199
30319W        W 1902  10.013  31.964   3.683
30320W        W 1903   3.513   0.640  14.990
30321W        W 1904  32.911   0.748   2.254
30322W        W 1905  33.963   5.675   4.082
30323W        W 1906  28.517  30.952   5.622
30324W        W 1907  27.042  43.734  12.603
30325W        W 1908  17.435  19.833  10.308
30326W        W 1909  23.768  15.114   1.418
30327W        W 1910  28.971   8.809   2.258
30328W        W 1911  27.647  32.932  13.589
30329W        W 1912  37.843  19.307  12.074
30330W        W 1913  32.954  38.994   4.079
30331W        W 1914  13.782   5.491   0.895
30332W        W 1915  43.475  33.565  13.196
30333W        W 1916  16.786  17.569   4.631
30334W        W 1917  10.911  26.863   4.295
30335W        W 1918  34.303   4.687  12.008
30336W        W 1919   6.770  11.441  11.572
30337W        W 1920  20.943  24.090  12.940
30338W        W 1921  19.697  36.059  11.636
30339W        W 1922  13.069   4.890   0.134
30340W        W 1923  33.406  20.483   2.269
30341W        W 1924   2.437  25.541  10.534
30342W        W 1925  32.580  25.967   1.745
30343W        W 1926  36.814  31.137  12.610
30344W        W 1927  40.352   7.164  10.603
30345W        W 1928  21.122  30.220   0.482
30346W        W 1929   8.583  31.599   1.713
30347W        W 1930  33.145  20.320  12.914
30348W        W 1931   1.776  17.404   2.657
30349W        W 1932  43.933  15.528   3.650
30350W        W 1933   8.612  16.438  13.973
30351W        W 1934  19.113  39.097   0.770
30352W        W 1935  37.615  20.783  11.625
30353W        W 1936  15.620  24.243  12.302
30354W        W 1937  22.562   9.197   4.725
30355W        W 1938  35.479   7.692  11.120
30356W        W 1939  32.231  32.141  10.700
30357W        W 1940  13.743  31.467   0.194
30358W        W 1941  31.504  28.088   2.895
30359W        W 1942  10.358  12.181   2.779
30360W        W 1943  41.440  38.827  13.562
30361W        W 1944  43.027  23.492   2.172
30362W        W 1945  41.468  18.022  12.754
30363W        W 1946   9.888   1.801  12.146
30364W        W 1947  32.679  42.905   0.028
30365W        W 1948   6.955  36.141   1.371
30366W        W 1949  37.162  17.564   0.050
30367W        W 1950  28.632   2.297  14.461
30368W        W 1951   2.696  35.224   4.133
30369W        W 1952   8.071  20.113   3.605
30370W        W 1953   6.487  42.862  12.431
30371W        W 1954  40.113  22.906   1.016
30372W        W 1955  33.949   4.637  13.029
30373W        W 1956  44.553   9.578   0.885
30374W        W 1957   7.636   7.170  10.907
30375W        W 1958  33.487   2.361  14.211
30376W        W 1959  27.621   7.966  11.148
30377W        W 1960  11.698  38.072  13.207
30378W        W 1961   0.223  24.807  10.923
30379W        W 1962  21.544  36.873  12.400
30380W        W 1963   7.965  41.818   0.915
30381W        W 1964  24.514   9.182  13.010
30382W        W 1965  10.126  22.180   2.672
30383W        W 1966  13.635   6.219   1.397
30384W        W 1967  10.919  22.561   2.539
30385W        W 1968  25.453  31.878   3.686
30386W        W 1969  26.586  25.799  11.910
30387W        W 1970  20.724  20.243  12.199
30388W        W 1971  32.654  20.908  11.612
30389W        W 1972   2.521  16.801   2.329
30390W        W 1973  25.031  26.948   4.354
30391W        W 1974  39.807  26.756   0.448
30392W        W 1975  27.053  37.359  12.151
30393W        W 1976  39.365  20.589   1.151
30394W        W 1977  18.408  32.784   0.449
30395W        W 1978  33.305  18.622   1.742
30396W        W 1979  43.844  23.362   3.394
30397W        W 1980  25.728  26.302   1.313
30398W        W 1981  28.482  18.055   2.334
30399W        W 1982  11.797   0.990   2.680
30400W        W 1983  13.736  42.798   4.562
30401W        W 1984  29.494  21.500   1.178
30402W        W 1985   0.945  23.728   1.790
30403W        W 1986  29.940  11.656   0.480
30404W        W 1987  40.304   5.404   3.730
30405W        W 1988  16.200  16.165   2.807
30406W        W 1989  14.030   0.827  10.783
30407W        W 1990   8.190  42.229  12.116
30408W        W 1991  33.080  11.291   2.691
30409W        W 1992  12.003  31.366  10.578
30410W        W 1993  36.396  37.104   2.054
30411W        W 1994  32.401  30.201   1.390
30412W        W 1995  28.185  21.046  14.555
30413W        W 1996   7.413   8.308   4.419
30414W        W 1997  23.030  37.057   1.758
30415W        W 1998  15.684  27.236   0.911
30416W        W 1999  42.767  24.486   4.121
30417W        W 2000  18.078  14.654  11.493
30418W        W 2001  33.724  41.269   0.294
30419W        W 2002  19.366   0.805  13.077
30420W        W 2003  12.676  25.944   4.133
30421W        W 2004  20.559  20.662   2.297
30422W        W 2005   5.896  26.417  14.057
30423W        W 2006   1.583  27.008   4.110
30424W        W 2007   1.349  41.507   4.421
30425W        W 2008  29.046  23.720   0.005
30426W        W 2009  10.839   1.983   0.010
30427W        W 2010  12.954   4.712  11.982
30428W        W 2011  21.643  35.912   1.750
30429W        W 2012   1.780  25.743   2.586
30430W        W 2013  28.794   0.011   2.715
30431W        W 2014  38.998  19.065   2.915
30432W        W 2015  40.722  23.149   1.649
30433W        W 2016  24.686  34.472  11.208
30434W        W 2017   6.140  38.996  10.766
30435W        W 2018  16.209  40.841   2.145
30436W        W 2019   3.307  23.149  13.253
30437W        W 2020  38.457  25.104  12.034
30438W        W 2021   0.052  35.571   4.089
30439W        W 2022  22.497  34.875   3.931
30440W        W 2023  13.760  17.807   4.590
30441W        W 2024  37.486  23.014   0.284
30442W        W 2025  35.795   7.789  11.513
30443W        W 2026  42.505  19.113  13.884
30444W        W 2027  23.181  41.586   4.211
30445W        W 2028  30.726  43.080  13.091
30446W        W 2029  29.021  32.196   4.947
30447W        W 2030   5.371   0.345  12.504
30448W        W 2031  37.063  12.249  14.451
30449W        W 2032  16.697  25.075   3.998
30450W        W 2033   7.826  14.839   0.371
30451W        W 2034  21.479  10.027   2.796
30452W        W 2035  43.657   0.212   2.854
30453W        W 2036  15.871   6.360   3.069
30454W        W 2037  22.059  23.078  13.003
30455W        W 2038  11.702  15.367  13.442
30456W        W 2039  16.050  28.437  12.540
30457W        W 2040  28.737   8.589  13.124
30458W        W 2041  36.481  21.047   2.658
30459W        W 2042   7.789   9.264   0.792
30460W        W 2043  25.189   9.323  10.443
30461W        W 2044  19.526  41.513  12.592
30462W        W 2045  42.850  19.096   2.432
30463W        W 2046   6.321  29.088  11.839
30464W        W 2047  39.040  37.466  12.972
30465W        W 2048  40.385  12.624   4.773
30466W        W 2049  14.767  44.290   3.658
30467W        W 2050   4.829  35.027  12.964
30468W        W 2051  21.567  28.302   4.938
30469W        W 2052  14.773  44.768  12.667
30470W        W 2053  13.630  10.313   1.734
30471W        W 2054  32.396  34.642   5.012
30472W        W 2055   6.947  30.577   2.891
30473W        W 2056  41.828  22.628  11.527
30474W        W 2057  43.924   5.169  13.423
30475W        W 2058  37.118  10.498   5.009
30476W        W 2059  33.661  39.380   4.237
30477W        W 2060   6.474  24.992   2.730
30478W        W 2061  39.390  23.448  14.369
30479W        W 2062  40.608  30.002   0.025
30480W        W 2063   7.255  22.791   3.920
30481W        W 2064  27.024  34.591  12.027
30482W        W 2065  21.293   8.937   4.337
30483W        W 2066  27.273  27.399  14.261
30484W        W 2067   0.370  13.913  11.525
30485W        W 2068  16.495   5.754   4.128
30486W        W 2069  38.614   0.518   2.224
30487W        W 2070  15.170  22.485  10.686
30488W        W 2071  35.505  37.245   2.802
30489W        W 2072  40.258  17.250   0.060
30490W        W 2073  23.119  24.431   1.216
30491W        W 2074  24.041  36.880  13.363
30492W        W 2075  31.493  34.573   4.031
30493W        W 2076  14.811  21.213  12.203
30494W        W 2077   7.836   1.955  10.743
30495W        W 2078  19.080  14.496   4.537
30496W        W 2079   1.311  44.076  11.049
30497W        W 2080  16.060  32.828   0.203
30498W        W 2081  38.498   8.658   2.805
30499W        W 2082  44.317   1.466   3.106
30500W        W 2083   5.825  16.751  12.710
30501W        W 2084   8.680  37.806  12.445
30502W        W 2085  10.117   8.486  12.793
30503W        W 2086  42.940  16.271   2.836
30504W        W 2087  29.528  23.185   4.142
30505W        W 2088  28.883  22.185   0.848
30506W        W 2089  40.923  25.573  12.221
30507W        W 2090   7.398  17.558   1.150
30508W        W 2091  31.623   8.868   1.780
30509W        W 2092  41.552  29.905   0.870
30510W        W 2093   9.944  11.195   0.262
30511W        W 2094  32.400   8.372   0.868
30512W        W 2095  44.139  10.461   0.376
30513W        W 2096  22.559  36.780  11.478
30514W        W 2097  41.571  19.582  12.011
30515W        W 2098  32.569  40.992  10.638
30516W        W 2099  34.883  19.162  10.993
30517W        W 2100  39.396   3.955   0.831
30518W        W 2101   4.481  16.872  10.636
30519W        W 2102  12.501  34.629  14.736
30520W        W 2103  35.650  41.075  12.046
30521W        W 2104  14.040  21.225   2.975
30522W        W 2105  23.196   2.002   1.656
30523W        W 2106   2.432   8.593  14.416
30524W        W 2107  38.607   3.189   0.406
30525W        W 2108  40.268  19.774  12.019
30526W        W 2109  16.099  34.979   1.880
30527W        W 2110   6.221  43.910   1.431
30528W        W 2111  20.137   3.886  13.095
30529W        W 2112  33.260  43.309  14.602
30530W        W 2113  20.901  34.605  14.028
30531W        W 2114   6.688  21.729  12.045
30532W        W 2115  34.301  30.107  14.312
30533W        W 2116  25.540   2.288   2.896
30534W        W 2117  39.456  43.216   2.069
30535W        W 2118   2.901   0.456  11.977
30536W        W 2119  38.861  22.433  14.152
30537W        W 2120  17.564  16.670   3.275
30538W        W 2121  38.888  12.105  11.447
30539W        W 2122  39.649  37.959  10.410
30540W        W 2123  13.585  31.849  14.297
30541W        W 2124  22.269  21.819  14.328
30542W        W 2125  24.137  26.890  13.792
30543W        W 2126   1.849  14.707   4.734
30544W        W 2127  18.675  44.360   4.408
30545W        W 2128   1.003  17.196  10.733
30546W        W 2129   2.482  18.538  11.869
30547W        W 2130  19.211  16.610   1.322
30548W        W 2131  15.495  38.795  12.892
30549W        W 2132  21.615  43.001   4.981
30550W        W 2133  21.615  17.688  14.396
30551W        W 2134  35.117   5.748  12.587
30552W        W 2135   0.649  41.575  10.013
30553W        W 2136  33.951   6.446   4.525
30554W        W 2137  38.088  41.285   2.153
30555W        W 2138  15.966  16.761  11.491
30556W        W 2139  32.126  22.008  12.467
30557W        W 2140  26.527  29.723   2.234
30558W        W 2141  28.227  40.755   2.965
30559W        W 2142  29.306  37.682  13.029
30560W        W 2143   9.651  25.545   2.255
30561W        W 2144  30.365  44.919   3.249
30562W        W 2145  32.358  24.736  10.817
30563W        W 2146  26.391  13.283  13.991
30564W        W 2147  13.725   5.382  11.087
30565W        W 2148  33.173  44.464   4.123
30566W        W 2149   0.418  31.004   1.153
30567W        W 2150  17.180  39.714   2.887
30568W        W 2151  21.246  14.313  12.420
30569W        W 2152  12.694  15.937  14.991
30570W        W 2153  28.681  35.854  11.156
30571W        W 2154  34.015  21.026  14.977
30572W        W 2155  28.418   6.103  12.108
30573W        W 2156   7.777   9.629  10.845
30574W        W 2157  15.913   2.500  13.760
30575W        W 2158  12.833  37.858  10.667
30576W        W 2159  14.368  38.988  11.543
30577W        W 2160  34.995  15.023  10.614
30578W        W 2161  43.528  34.980  13.773
30579W        W 2162  43.810   4.869   0.292
30580W        W 2163  33.597  20.610  14.872
30581W        W 2164  36.227  40.544   0.432
30582W        W 2165  36.496  35.211  12.523
30583W        W 2166  36.862  22.177   1.045
30584W        W 2167  38.928  41.043  12.386
30585W        W 2168   9.415  23.770  14.676
30586W        W 2169  38.428  31.731  11.516
30587W        W 2170  29.104  38.441   2.271
30588W        W 2171  14.773  33.672  14.311
30589W        W 2172  40.204  35.828  14.279
30590W        W 2173  18.050  31.880  14.515
30591W        W 2174  36.904   0.790  10.670
30592W        W 2175   1.599   5.459   1.882
30593W        W 2176  22.504  15.222   2.289
30594W        W 2177  34.047  28.460  13.019
30595W        W 2178  10.190   0.873   0.957
30596W        W 2179  30.496   9.473   1.175
30597W        W 2180  34.637   7.418   4.267
30598W        W 2181  25.217  26.235  10.652
30599W        W 2182  20.743   0.966  11.103
30600W        W 2183   4.312  11.089   4.374
30601W        W 2184  10.545  15.643   0.399
30602W        W 2185  11.871   5.987   5.063
30603W        W 2186   7.142  20.935  11.174
30604W        W 2187  42.203  22.055   3.449
30605W        W 2188  24.543  29.089   0.366
30606W        W 2189  44.230  43.934  13.382
30607W        W 2190  22.717   3.670   3.217
30608W        W 2191  36.350  43.332   4.978
30609W        W 2192  29.851  12.394   0.997
30610W        W 2193  18.536  43.854  12.819
30611W        W 2194   7.469  17.733   4.510
30612W        W 2195   7.851   3.600  12.556
30613W        W 2196  42.827  26.442   0.231
30614W        W 2197  13.292   2.947   4.314
30615W        W 2198  13.676  10.925   4.907
30616W        W 2199  36.818  12.077  14.877
30617W        W 2200  27.459  41.415   1.151
30618W        W 2201  16.243  19.714  12.479
30619W        W 2202   0.657  30.621   0.082
30620W        W 2203   9.441  22.448  13.089
30621W        W 2204   8.955  22.609   2.417
30622W        W 2205  13.139  24.737   2.889
30623W        W 2206  12.812  20.694  12.535
30624W        W 2207  40.465  18.067  10.718
30625W        W 2208   0.712  33.868  11.079
30626W        W 2209   3.426   8.322   3.157
30627W        W 2210   4.943  14.186   2.269
30628W        W 2211  31.190  24.824   1.742
30629W        W 2212  35.396  16.340  10.917
30630W        W 2213  38.833  25.595   4.140
30631W        W 2214  16.371  25.937   5.531
30632W        W 2215   2.823  23.629   1.518
30633W        W 2216  22.572  30.146   1.842
30634W        W 2217  42.042  38.001  14.545
30635W        W 2218  38.355  41.569   3.424
30636W        W 2219  33.978  42.860   2.241
30637W        W 2220  23.888  42.859   2.369
30638W        W 2221  35.871   9.142  10.673
30639W        W 2222  30.216  17.123   0.690
30640W        W 2223  28.507  26.168  13.283
30641W        W 2224  14.109  17.114   0.415
30642W        W 2225  13.232  14.626  14.457
30643W        W 2226  15.335  12.608  13.847
30644W        W 2227  15.303  17.185   4.036
30645W        W 2228  32.105  44.162  14.283
30646W        W 2229   6.113   0.241   3.301
30647W        W 2230  39.315  15.756   3.203
30648W        W 2231  40.841  29.681   2.288
30649W        W 2232  42.063  12.842   1.196
30650W        W 2233  17.522   0.217   0.341
30651W        W 2234  33.631  29.053  13.518
30652W        W 2235  34.487  23.447   0.465
30653W        W 2236  32.186  12.666   2.014
30654W        W 2237  40.535  27.871  11.548
30655W        W 2238  37.410  39.924  12.564
30656W        W 2239  17.882  24.562   4.551
30657W        W 2240  11.249  22.656  12.347
30658W        W 2241  41.371   4.269  10.718
30659W        W 2242  43.313  41.616   1.730
30660W        W 2243  38.398  26.644  14.962
30661W        W 2244   1.364  38.364   2.373
30662W        W 2245  23.951  12.721  13.173
30663W        W 2246  13.836  38.907  12.478
30664W        W 2247  14.609  39.451   3.876
30665W        W 2248  20.784  22.927  12.506
30666W        W 2249  17.171  40.157  11.546
30667W        W 2250  44.421  27.783  13.173
30668W        W 2251   5.668  26.717  12.639
30669W        W 2252  43.399  27.936   3.245
30670W        W 2253  42.371  24.143   4.140
30671W        W 2254  21.771  20.832  10.216
30672W        W 2255   2.232  27.839  10.399
30673W        W 2256   3.988  21.555  11.856
30674W        W 2257  30.062  28.466  11.013
30675W        W 2258   2.963  25.705  10.374
30676W        W 2259  22.732   4.214  12.689
30677W        W 2260  39.026  35.295  11.441
30678W        W 2261  40.372  30.029   3.131
30679W        W 2262  43.820  16.220  12.470
30680W        W 2263  17.148  31.560  14.302
30681W        W 2264  17.576  17.684  14.264
30682W        W 2265  32.340  39.261   1.249
30683W        W 2266  19.470  25.240  12.044
30684W        W 2267  39.926  19.507   3.041
30685W        W 2268   0.512  18.635   4.653
30686W        W 2269  13.330  12.473  11.698
30687W        W 2270  40.048  38.699   1.486
30688W        W 2271  30.875  15.820   3.760
30689W        W 2272  25.504   8.112  11.348
30690W        W 2273  37.298  43.285   3.396
30691W        W 2274  22.652  17.344  10.609
30692W        W 2275  22.006  16.283  12.837
30693W        W 2276  20.162  24.123  12.463
30694W        W 2277  28.175  39.558   1.958
30695W        W 2278  22.733  41.513   1.340
30696W        W 2279  24.975  30.511  14.663
30697W        W 2280  32.859  11.336  14.520
30698W        W 2281  16.573  35.050   2.772
30699W        W 2282  41.883  35.449   4.362
30700W        W 2283  39.275   4.644  11.456
30701W        W 2284  30.451  44.715  13.353
30702W        W 2285  36.881  40.943   4.628
30703W        W 2286   0.969  14.862  13.988
30704W        W 2287  40.307   9.267   0.570
30705W        W 2288  11.157  27.497  14.304
30706W        W 2289  40.926   4.375  14.872
30707W        W 2290  42.536  41.146  11.146
30708W        W 2291   8.427  12.658  14.754
30709W        W 2292  15.731  16.790  11.953
30710W        W 2293  31.998  19.554  14.624
30711W        W 2294  13.790  41.941  12.792
30712W        W 2295  26.130  32.334   1.259
30713W        W 2296   6.670  21.665   0.233
30714W        W 2297   0.985   5.691   2.888
30715W        W 2298   7.165  30.390   2.334
30716W        W 2299  39.161  11.419  10.288
30717W        W 2300  35.307   2.470   0.248
30718W        W 2301   7.331   8.120   2.656
30719W        W 2302  28.456  16.518   4.376
30720W        W 2303   5.219  18.766  13.417
30721W        W 2304  21.966  19.786   4.414
30722W        W 2305  25.097  36.353  13.588
30723W        W 2306   1.148  39.820  10.656
30724W        W 2307  16.566   4.776  12.368
30725W        W 2308  41.047   1.892   1.728
30726W        W 2309  15.733  38.162  10.695
30727W        W 2310  25.002   9.233   3.336
30728W        W 2311  28.929  18.187  13.018
30729W        W 2312  31.239  31.920  10.683
30730W        W 2313  29.051  32.357   2.141
30731W        W 2314  11.764   8.232   0.646
30732W        W 2315  29.967  32.443   4.480
30733W        W 2316  42.934  12.584  11.354
30734W        W 2317  11.196  28.143  13.888
30735W        W 2318  11.863  14.909  11.832
30736W        W 2319   3.768  29.904  14.429
30737W        W 2320   7.170  34.434   3.888
30738W        W 2321  14.122  37.640  12.684
30739W        W 2322  23.378  43.062   2.417
30740W        W 2323   7.452  32.980  14.899
30741W        W 2324  41.923   6.404  10.773
30742W        W 2325  22.014   4.167  14.975
30743W        W 2326  34.946  17.250   3.556
30744W        W 2327  24.654  22.772   2.180
30745W        W 2328  41.393  38.465   3.632
30746W        W 2329  18.029  35.342  13.870
30747W        W 2330  13.216  36.635  12.027
30748W        W 2331  44.802  18.991   4.108
30749W        W 2332  23.923  11.356   0.802
30750W        W 2333  30.146  23.195   3.267
30751W        W 2334   4.485  32.494  11.652
30752W        W 2335  35.649   2.718   4.205
30753W        W 2336  42.004   8.980   0.680
30754W        W 2337  25.933  42.740  14.848
30755W        W 2338  24.098   6.710   1.197
30756W        W 2339  15.204  28.012   1.276
30757W        W 2340  38.584  26.666  12.821
30758W        W 2341   0.240   3.925  14.962
30759W        W 2342  28.512  31.354   2.940
30760W        W 2343  37.516  44.647   0.749
30761W        W 2344  32.389   0.593  14.670
30762W        W 2345  16.679  10.799  13.079
30763W        W 2346  13.172  24.783   1.689
30764W        W 2347  16.705  27.706   0.904
30765W        W 2348  25.774   8.946   1.915
30766W        W 2349   6.814  37.063   2.840
30767W        W 2350  29.156  14.276   0.355
30768W        W 2351   1.381   5.090   0.977
30769W        W 2352   4.926   8.396  11.800
30770W        W 2353  23.511  17.753   2.124
30771W        W 2354  37.514  32.840   0.951
30772W        W 2355   3.006  35.010   4.655
30773W        W 2356   0.298  41.490   1.152
30774W        W 2357  27.040  23.011   0.319
30775W        W 2358  15.691   2.920  13.958
30776W        W 2359   9.821  15.322   2.390
30777W        W 2360  32.601  37.534  11.997
30778W        W 2361  24.045  34.282   5.004
30779W        W 2362  19.201  11.188   4.936
30780W        W 2363  11.313   1.046  12.804
30781W        W 2364   1.483   3.125  14.867
30782W        W 2365   7.739  33.802  10.137
30783W        W 2366  14.677   3.451  13.036
30784W        W 2367  24.962   7.832  12.644
30785W        W 2368  13.286   3.394  10.726
30786W        W 2369  26.000  38.844  11.971
30787W        W 2370   3.841  13.440   4.149
30788W        W 2371  29.034  35.638   2.416
30789W        W 2372  18.656  10.551   4.143
30790W        W 2373  36.059  25.985   3.800
30791W        W 2374  14.436   6.722  12.180
30792W        W 2375  42.488  10.110  14.422
30793W        W 2376  12.839  30.515   2.681
30794W        W 2377  16.075  40.350   2.227
30795W        W 2378  35.894   2.712   4.679
30796W        W 2379  40.122   9.306  11.356
30797W        W 2380  31.858   6.859   1.484
30798W        W 2381  28.168  29.593  11.557
30799W        W 2382   4.926  25.184   0.918
30800W        W 2383   4.738  13.944  10.819
30801W        W 2384   1.298  15.307   2.332
30802W        W 2385  35.356   9.902  13.145
30803W        W 2386  41.744  16.770  10.912
30804W        W 2387  30.061  30.996  14.317
30805W        W 2388  37.420  26.449   1.012
30806W        W 2389  11.435  26.707   3.598
30807W        W 2390   7.403  40.936  12.975
30808W        W 2391  27.502  23.560  11.604
30809W        W 2392  19.013  18.418   5.419
30810W        W 2393   0.794  30.144  14.887
30811W        W 2394  23.772   1.674   3.693
30812W        W 2395  16.496  24.265   5.005
30813W        W 2396  13.154  16.638  10.565
30814W        W 2397   5.291   1.366   1.283
30815W        W 2398  25.772  22.691  13.952
30816W        W 2399   2.888  11.894  11.624
30817W        W 2400  13.757  31.423  10.784
30818W        W 2401  24.155  41.742   1.422
30819W        W 2402   8.624   8.175  10.663
30820W        W 2403  13.534  16.474  14.874
30821W        W 2404   9.826   9.283   2.770
30822W        W 2405  19.293  37.056  11.974
30823W        W 2406   8.888   9.603   1.707
30824W        W 2407   8.294  32.471   0.005
30825W        W 2408  19.694  37.761  13.900
30826W        W 2409  18.448   7.469   1.066
30827W        W 2410  24.448   8.026   0.938
30828W        W 2411  13.133  42.978   1.152
30829W        W 2412   1.283  30.610   3.658
30830W        W 2413  30.678  44.223   1.819
30831W        W 2414  22.222  33.843  11.745
30832W        W 2415  16.200  17.071   1.220
30833W        W 2416   6.988   5.420   2.659
30834W        W 2417  41.888  17.552  10.749
30835W        W 2418  40.321  24.024  12.514
30836W        W 2419  10.082  11.097  11.138
30837W        W 2420  25.138   8.433  14.407
30838W        W 2421  34.907   7.869  13.041
30839W        W 2422  29.180  38.461   3.774
30840W        W 2423  42.555  30.993  11.033
30841W        W 2424  21.044   7.945  12.428
30842W        W 2425  35.082  12.124   0.889
30843W        W 2426  35.442  24.781   2.198
30844W        W 2427   8.741  41.253   3.685
30845W        W 2428   1.029  40.392   0.734
30846W        W 2429   2.150   6.215  11.176
30847W        W 2430  33.898  12.325   3.619
30848W        W 2431  26.653  33.005   0.406
30849W        W 2432  15.336  19.880   0.711
30850W        W 2433  20.937   1.113   1.370
30851W        W 2434  15.616   1.162  11.200
30852W        W 2435   3.923  40.685   0.613
30853W        W 2436  42.406  36.132  11.043
30854W        W 2437  27.954  24.015  14.456
30855W        W 2438  24.548  36.896  12.517
30856W        W 2439   1.474  33.011  10.341
30857W        W 2440  32.626  35.029  12.044
30858W        W 2441   9.248   7.069  14.782
30859W        W 2442  13.887  30.650  11.040
30860W        W 2443  30.831  22.531   0.159
30861W        W 2444  28.515  10.185   1.566
30862W        W 2445   4.998  26.562  10.735
30863W        W 2446  40.820  15.056  11.882
30864W        W 2447  18.617  26.637  12.888
30865W        W 2448  27.192   9.609   9.802
30866W        W 2449  19.799  30.476   4.552
30867W        W 2450  36.720  22.067  11.038
30868W        W 2451  20.237  18.653   1.424
30869W        W 2452  37.366  34.054   4.891
30870W        W 2453  10.709  27.430  10.824
30871W        W 2454  16.304  10.105   1.370
30872W        W 2455  13.800   3.389   4.773
30873W        W 2456  11.753  32.557  11.014
30874W        W 2457  20.218   4.491   0.775
30875W        W 2458  39.356  17.539  12.420
30876W        W 2459   0.256  23.137   1.376
30877W        W 2460   2.781  23.464  13.132
30878W        W 2461  27.378  13.561   3.784
30879W        W 2462  22.014  24.169  11.536
30880W        W 2463  37.016  32.685   1.915
30881W        W 2464  27.960  18.020   1.175
30882W        W 2465   5.703  21.947  13.730
30883W        W 2466  41.251  26.928  13.811
30884W        W 2467  16.308  21.606   2.889
30885W        W 2468  13.132  11.806  13.124
30886W        W 2469  27.729  38.998  10.627
30887W        W 2470  21.710  20.979   0.895
30888W        W 2471   7.307  25.956   3.240
30889W        W 2472  28.095  37.134  13.480
30890W        W 2473  33.416  30.370   3.143
30891W        W 2474  25.076  23.191   0.972
30892W        W 2475  15.858  30.525   4.720
30893W        W 2476  27.167  29.398   0.381
30894W        W 2477   9.910  36.810  10.259
30895W        W 2478   8.236  44.289  12.923
30896W        W 2479  16.060  43.980  12.451
30897W        W 2480  35.828   3.460  11.085
30898W        W 2481  26.110  33.055  13.427
30899W        W 2482  23.781  31.106  14.436
30900W        W 2483  31.009  41.886  10.756
30901W        W 2484  32.512  16.159   3.071
30902W        W 2485  32.834  26.254   2.663
30903W        W 2486   0.244   5.191  14.750
30904W        W 2487  31.241  31.505  10.987
30905W        W 2488  15.652   6.403  12.527
30906W        W 2489   9.171  10.570   1.899
30907W        W 2490  11.689  32.715   1.652
30908W        W 2491  28.151  24.801  13.915
30909W        W 2492  42.693  13.737   0.018
30910W        W 2493  41.273  32.684   4.080
30911W        W 2494   8.766  26.732  11.049
30912W        W 2495   6.493   4.266  14.693
30913W        W 2496  41.303   6.395  11.403
30914W        W 2497  16.544  32.348   1.621
30915W        W 2498   6.524  17.163  13.016
30916W        W 2499   4.285  32.435   4.303
30917W        W 2500  42.341  10.307  10.608
30918W        W 2501  19.280  13.259   2.844
30919W        W 2502  23.210   3.219  13.418
30920W        W 2503  44.488  39.650  11.466
30921W        W 2504   3.238  35.804   0.312
30922W        W 2505  32.687  41.805   4.197
30923W        W 2506  23.456   0.507  11.525
30924W        W 2507  27.221  14.829   4.263
30925W        W 2508   8.370   4.894   3.691
30926W        W 2509  19.638  34.941   0.441
30927W        W 2510  23.716  25.958  12.468
30928W        W 2511  26.956   9.161   9.689
30929W        W 2512   2.901  29.907   0.310
30930W        W 2513   3.865  14.262   0.513
30931W        W 2514  10.337   5.949   3.893
30932W        W 2515  41.088   0.421   4.060
30933W        W 2516  40.967  18.289  12.109
30934W        W 2517  31.471  31.866  11.663
30935W        W 2518   4.895   8.790  14.463
30936W        W 2519  30.568  13.937  14.353
30937W        W 2520  11.254  27.554   4.419
30938W        W 2521  17.925  11.627  11.453
30939W        W 2522  17.116   3.648   3.178
30940W        W 2523  13.240  35.714   0.389
30941W        W 2524  23.199  41.063   4.264
30942W        W 2525   1.504  16.733  11.118
30943W        W 2526  32.332  25.612  12.589
30944W        W 2527  36.517   7.851   4.380
30945W        W 2528  31.907  15.693  13.680
30946W        W 2529  26.779  10.980   1.895
30947W        W 2530  23.465  36.933   1.421
30948W        W 2531  16.719  18.661   0.029
30949W        W 2532  31.450  43.478   4.541
30950W        W 2533   1.369   7.116   0.650
30951W        W 2534  20.517  28.909   1.272
30952W        W 2535  44.343  35.925   0.722
30953W        W 2536  13.942  12.407  12.337
30954W        W 2537   0.874  15.583  13.272
30955W        W 2538  33.436  26.027  11.717
30956W        W 2539  40.501  26.219  12.001
30957W        W 2540   5.236  38.001   4.234
30958W        W 2541   0.779  35.145  10.955
30959W        W 2542  43.383  19.815  11.603
30960W        W 2543  24.674  38.901   3.403
30961W        W 2544  35.322  18.990  14.606
30962W        W 2545  28.676   0.202   3.176
30963W        W 2546  15.303  18.868   0.576
30964W        W 2547  22.037  10.125  11.567
30965W        W 2548  30.552  26.779   0.008
30966W        W 2549  28.063   5.441  13.572
30967W        W 2550   1.490  36.907   4.621
30968W        W 2551  24.540   9.045   3.221
30969W        W 2552  31.572  33.968  13.423
30970W        W 2553  42.928  24.496   3.102
30971W        W 2554  28.985  30.984   0.920
30972W        W 2555  22.174  42.404  14.450
30973W        W 2556  44.839  40.984  13.442
30974W        W 2557  37.837   4.349  10.805
30975W        W 2558  40.016  37.086  11.998
30976W        W 2559  13.768  25.240  13.812
30977W        W 2560   4.745   7.820   3.357
30978W        W 2561  31.548  40.960  10.713
30979W        W 2562  11.433  37.923   4.945
30980W        W 2563   3.355   2.559   4.147
30981W        W 2564   7.885  40.884  11.976
30982W        W 2565  31.505  44.727   3.864
30983W        W 2566  41.076   9.922  13.908
30984W        W 2567  39.962  19.282  13.130
30985W        W 2568  42.323  28.235  10.547
30986W        W 2569  23.308  17.157  11.038
30987W        W 2570  41.912  29.430   4.070
30988W        W 2571  18.137  31.579  11.399
30989W        W 2572  33.597  23.188   4.161
30990W        W 2573  28.848  30.090  12.089
30991W        W 2574  23.140   7.428   1.786
30992W        W 2575   1.278  27.226   3.747
30993W        W 2576  11.970  21.845   2.021
30994W        W 2577  32.889  34.026   1.291
30995W        W 2578   2.003  20.154   1.877
30996W        W 2579   4.185  39.571   5.688
30997W        W 2580  18.109  36.059   2.368
30998W        W 2581  11.875  38.941   1.853
30999W        W 2582  40.766  10.787   1.723
31000W        W 2583  10.294  19.903   0.951
31001W        W 2584  18.321  16.580  13.993
31002W        W 2585  37.554  37.608  12.814
31003W        W 2586  17.057   2.514   2.342
31004W        W 2587   8.700  25.755  10.782
31005W        W 2588  41.904  36.429   4.766
31006W        W 2589  36.716  17.005  12.578
31007W        W 2590   9.723  42.429  12.172
31008W        W 2591  13.745  23.446   2.765
31009W        W 2592  28.505  41.607   4.607
31010W        W 2593  38.320  42.342  14.441
31011W        W 2594  14.170  20.003  10.510
31012W        W 2595  17.154  19.940   0.329
31013W        W 2596  42.507  42.386   3.382
31014W        W 2597  27.929   0.196   2.770
31015W        W 2598  24.975  37.830   3.939
31016W        W 2599  30.876  24.160   0.461
31017W        W 2600  16.825  27.949   1.777
31018W        W 2601  10.311   7.459   1.196
31019W        W 2602  31.024  42.268   2.216
31020W        W 2603  38.495  13.804  13.877
31021W        W 2604  38.062  14.014  12.480
31022W        W 2605   3.950  19.794   4.283
31023W        W 2606  13.807   9.380   4.365
31024W        W 2607  22.799  15.714  13.980
31025W        W 2608  40.345   9.228   1.090
31026W        W 2609  42.939  23.527   4.575
31027W        W 2610   7.792  28.644  13.947
31028W        W 2611  14.770  38.563  14.261
31029W        W 2612  37.401  42.984   2.772
31030W        W 2613  44.464  14.149   1.378
31031W        W 2614   1.006  32.512  12.435
31032W        W 2615  15.259   7.565  12.110
31033W        W 2616  26.001  23.136  13.763
31034W        W 2617  40.017   2.942   4.320
31035W        W 2618  24.920  38.295   2.654
31036W        W 2619  33.521  17.701   0.533
31037W        W 2620  10.581  11.640   4.625
31038W        W 2621  12.575   6.989  12.041
31039W        W 2622  29.850  28.233   0.295
31040W        W 2623  35.885  26.516   2.531
31041W        W 2624  37.122  25.135  10.524
31042W        W 2625   8.872   1.827  14.460
31043W        W 2626  18.831   2.377  14.284
31044W        W 2627   4.656  42.668  14.887
31045W        W 2628   9.757  38.782   2.209
31046W        W 2629  22.432   7.508  10.602
31047W        W 2630  33.868  21.526   0.861
31048W        W 2631  32.898   6.743  14.670
31049W        W 2632   9.367   6.254  11.739
31050W        W 2633  28.192  41.552   2.795
31051W        W 2634  43.605  29.483  14.271
31052W        W 2635  37.664  24.097   3.937
31053W        W 2636  19.299  29.911   1.965
31054W        W 2637  29.864  26.024   0.866
31055W        W 2638  14.835   7.260   0.840
31056W        W 2639  16.920  37.596  14.282
31057W        W 2640  42.307  24.648   1.756
31058W        W 2641   5.769   1.119   2.862
31059W        W 2642   7.867   5.444  11.653
31060W        W 2643   5.718  42.040  14.960
31061W        W 2644  14.778  24.064   4.634
31062W        W 2645  44.596  34.127   0.798
31063W        W 2646   0.252  41.432  11.710
31064W        W 2647   5.451  41.242   1.876
31065W        W 2648  15.241   9.604   1.269
31066W        W 2649  10.191  33.430   3.189
31067W        W 2650  14.010  17.535   1.344
31068W        W 2651  38.287  31.552  14.385
31069W        W 2652  26.503   5.446   4.805
31070W        W 2653  11.159  26.742   4.997
31071W        W 2654  31.868  27.692  11.055
31072W        W 2655   1.659   3.271   1.274
31073W        W 2656  25.279  32.502   0.813
31074W        W 2657  32.101   5.648  10.049
31075W        W 2658  36.462  11.733  10.360
31076W        W 2659  24.955   0.295   4.606
31077W        W 2660   5.399  27.068   0.130
31078W        W 2661  42.431  38.321   4.597
31079W        W 2662  38.524  17.227  13.994
31080W        W 2663  37.902  33.573  12.978
31081W        W 2664  38.847  18.281  14.508
31082W        W 2665  21.316   7.253   0.886
31083W        W 2666  43.227  20.148  14.975
31084W        W 2667  33.028  37.350  11.589
31085W        W 2668  37.350   7.886  11.466
31086W        W 2669  16.254   1.958   1.779
31087W        W 2670   3.759  39.547  14.232
31088W        W 2671  23.223  36.372   4.583
31089W        W 2672  43.823  18.692  13.346
31090W        W 2673   3.027  11.217  11.305
31091W        W 2674  25.101  33.955  12.985
31092W        W 2675  15.911  26.764   1.444
31093W        W 2676  21.464  17.662  11.147
31094W        W 2677   2.493  32.324  13.486
31095W        W 2678   4.432  13.834  13.984
31096W        W 2679  30.154   3.434  14.396
31097W        W 2680  10.222  24.085  12.601
31098W        W 2681  36.621   5.257  12.729
31099W        W 2682  36.301  36.576   2.842
31100W        W 2683  35.004   9.930   4.737
31101W        W 2684   1.772   8.512   4.543
31102W        W 2685  10.516  19.564  12.062
31103W        W 2686  38.302   8.945  14.988
31104W        W 2687  13.148   8.873   1.220
31105W        W 2688  27.169  28.796  12.018
31106W        W 2689  28.280  13.943  14.413
31107W        W 2690  39.010  32.599   1.918
31108W        W 2691  38.839  38.028   3.706
31109W        W 2692  41.640  40.911   0.374
31110W        W 2693   0.739  29.078  13.336
31111W        W 2694  27.194   1.094   3.233
31112W        W 2695  21.228  15.781  13.088
31113W        W 2696  12.326  36.801  14.838
31114W        W 2697  12.764   7.503  11.315
31115W        W 2698  44.240  29.942  14.709
31116W        W 2699  34.310   8.113  11.510
31117W        W 2700  28.459   6.272  13.843
31118W        W 2701  27.506   4.218   3.389
31119W        W 2702  37.529  20.090   4.277
31120W        W 2703  24.983  41.935   2.019
31121W        W 2704  40.403   5.338  11.099
31122W        W 2705  26.531  41.466  11.724
31123W        W 2706  30.819  22.022  11.694
31124W        W 2707  27.480  14.848   0.313
31125W        W 2708   0.529  14.295  12.108
31126W        W 2709  22.215  30.642   2.984
31127W        W 2710  25.048  16.371   1.459
31128W        W 2711   1.767  44.725  11.636
31129W        W 2712  37.998   5.990  13.803
31130W        W 2713   6.861  26.233  14.216
31131W        W 2714  30.384   6.772  10.624
31132W        W 2715   2.494   4.409  10.730
31133W        W 2716   2.220  25.961   2.810
31134W        W 2717   6.718  22.353  14.391
31135W        W 2718   4.298  44.852   4.375
31136W        W 2719  34.284  19.110  11.615
31137W        W 2720  13.372  13.597  10.590
31138W        W 2721  17.835   8.471  12.515
31139W        W 2722  18.205  23.367  10.577
31140W        W 2723  30.104   3.018  13.021
31141W        W 2724  17.254  32.494  12.592
31142W        W 2725  23.308  29.565   2.252
31143W        W 2726  15.568  39.737   0.804
31144W        W 2727  15.901  41.432   3.363
31145W        W 2728  28.463  43.616   4.941
31146W        W 2729  37.433   8.425   2.299
31147W        W 2730  29.839  24.700   1.801
31148W        W 2731  23.642  17.694   2.598
31149W        W 2732   8.640  41.762   3.793
31150W        W 2733   0.030   5.899   3.205
31151W        W 2734   5.974  44.302   2.665
31152W        W 2735  36.409  34.444  12.898
31153W        W 2736  32.189  20.584   3.442
31154W        W 2737   3.980  17.635  12.958
31155W        W 2738   9.552   9.937   0.275
31156W        W 2739   6.409  33.994  14.959
31157W        W 2740   3.616  27.713   1.894
31158W        W 2741  33.736  15.427  10.425
31159W        W 2742  40.535  40.123   2.375
31160W        W 2743  19.234  28.309  12.372
31161W        W 2744  41.304   8.726  10.655
31162W        W 2745  28.252  28.614   3.323
31163W        W 2746  16.357  26.473  12.981
31164W        W 2747  26.286  25.604   1.404
31165W        W 2748  15.152  33.115   1.883
31166W        W 2749  35.922  14.222   0.939
31167W        W 2750  31.664  38.731   3.600
31168W        W 2751  13.832   7.800   2.704
31169W        W 2752   5.362  42.081  12.265
31170W        W 2753  34.652  36.596  12.500
31171W        W 2754  14.090  27.115  11.643
31172W        W 2755  34.871   5.190  13.313
31173W        W 2756  43.078   0.923   4.607
31174W        W 2757  28.889   3.708  13.679
31175W        W 2758  26.205  17.208   4.585
31176W        W 2759   1.222  42.039   0.437
31177W        W 2760   8.723  33.062   4.107
31178W        W 2761  20.205   1.280   4.523
31179W        W 2762  14.631   9.316  11.032
31180W        W 2763  37.287  41.612   2.599
31181W        W 2764   4.347   7.132  11.509
31182W        W 2765  17.999  18.360   2.676
31183W        W 2766  37.465  32.444   2.694
31184W        W 2767  15.077  27.558   2.215
31185W        W 2768  11.563  17.570   4.592
31186W        W 2769   7.745  12.369  11.676
31187W        W 2770  26.177  26.787  10.403
31188W        W 2771  40.922  29.014   0.959
31189W        W 2772  35.396  34.081   4.869
31190W        W 2773  34.650  27.707  13.876
31191W        W 2774  33.597  12.219  11.139
31192W        W 2775  20.636  37.614  11.999
31193W        W 2776   1.890  28.815   2.790
31194W        W 2777   4.349  32.406   1.351
31195W        W 2778   4.895  26.425   3.242
31196W        W 2779  37.416  11.413  14.162
31197W        W 2780  31.072  31.198  12.178
31198W        W 2781  38.696  10.099  12.518
31199W        W 2782   8.523  10.142   4.592
31200W        W 2783   1.879  40.043  13.345
31201W        W 2784  16.701  27.770  11.290
31202W        W 2785  21.512   6.228  14.600
31203W        W 2786   3.781  34.235  13.594
31204W        W 2787  11.080  31.099  14.314
31205W        W 2788  23.232   7.225  12.403
31206W        W 2789  36.394  17.604  10.410
31207W        W 2790  33.062  36.856  12.073
31208W        W 2791  28.481  11.094  14.509
31209W        W 2792   5.665  38.380   0.960
31210W        W 2793   6.266  26.513  13.115
31211W        W 2794   9.790   6.644   3.745
31212W        W 2795  19.685  13.829  11.909
31213W        W 2796  36.331   3.360  12.378
31214W        W 2797  40.090  21.587  13.975
31215W        W 2798  36.507  33.388   1.868
31216W        W 2799  43.967   5.178   1.741
31217W        W 2800  22.167  24.205  12.490
31218W        W 2801  36.283   5.530   0.460
31219W        W 2802  17.967  19.887  11.174
31220W        W 2803   8.233  30.070   1.861
31221W        W 2804  29.933  17.234   1.650
31222W        W 2805  12.238  12.593   4.021
31223W        W 2806  13.550   9.511   3.218
31224W        W 2807  32.143   9.442   0.287
31225W        W 2808  42.884  35.983   2.242
31226W        W 2809  18.655  33.439  12.478
31227W        W 2810   6.229  13.251   4.888
31228W        W 2811  14.926  19.772   3.810
31229W        W 2812  22.443  12.361  11.995
31230W        W 2813  20.624  24.478  13.594
31231W        W 2814  32.809  36.134  12.493
31232W        W 2815  34.384  22.029   1.692
31233W        W 2816   9.209  15.709   0.717
31234W        W 2817  15.494  38.321   2.752
31235W        W 2818  26.979  36.834  12.145
31236W        W 2819  27.689  13.675   2.854
31237W        W 2820  22.230  21.030   1.764
31238W        W 2821  38.085  38.760  14.929
31239W        W 2822   0.304   8.871   1.422
31240W        W 2823  26.798   0.460  12.717
31241W        W 2824  24.763  41.983  12.767
31242W        W 2825   2.984  31.940   4.607
31243W        W 2826  37.391   2.292   4.133
31244W        W 2827  18.043  26.998  12.437
31245W        W 2828  33.206  26.114  14.823
31246W        W 2829  19.475  42.602   2.391
31247W        W 2830   3.365   9.245  13.896
31248W        W 2831  39.472   9.405  12.668
31249W        W 2832  25.589  29.439  10.566
31250W        W 2833  36.502   9.048   3.464
31251W        W 2834   0.976  15.276  12.366
31252W        W 2835   6.214  14.594  12.000
31253W        W 2836  16.697  41.045  13.967
31254W        W 2837  38.572  42.025   2.612
31255W        W 2838  21.792   6.252   4.625
31256W        W 2839  35.877  44.413  11.154
31257W        W 2840  32.127  21.028  10.625
31258W        W 2841  12.134  16.658   2.405
31259W        W 2842  21.965  27.518   4.602
31260W        W 2843  29.250  10.385  10.363
31261W        W 2844  12.323  11.416   0.017
31262W        W 2845  29.521  21.604   1.689
31263W        W 2846  22.440  16.892  10.712
31264W        W 2847  23.022  43.301  11.619
31265W        W 2848  35.339   2.284  12.399
31266W        W 2849   1.701  39.794   3.640
31267W        W 2850  39.025   3.494   0.413
31268W        W 2851  10.048  11.843  11.466
31269W        W 2852  20.546  31.159  12.347
31270W        W 2853  39.238   2.827  11.156
31271W        W 2854  24.480   8.579  12.152
31272W        W 2855  13.589  21.235  13.810
31273W        W 2856   7.262  40.510  14.442
31274W        W 2857  40.783  26.946   0.848
31275W        W 2858  24.758  27.963  12.016
31276W        W 2859  19.589  30.429   5.032
31277W        W 2860  14.607   5.333  10.579
31278W        W 2861  14.747   8.310   1.841
31279W        W 2862  11.835  27.049  11.561
31280W        W 2863  15.381  26.179   2.305
31281W        W 2864  34.145   1.560   3.750
31282W        W 2865  36.647  43.307  12.320
31283W        W 2866  22.033   0.991   2.296
31284W        W 2867   8.659   7.400   4.097
31285W        W 2868   5.718  14.648  12.108
31286W        W 2869  20.099   4.646   1.283
31287W        W 2870  15.887  20.069   3.735
31288W        W 2871  24.443   6.307  12.434
31289W        W 2872   9.108  42.899   3.052
31290W        W 2873  38.228   1.398  13.900
31291W        W 2874  24.813  12.183  12.890
31292W        W 2875  33.767  25.657   2.727
31293W        W 2876  20.704  28.192   2.552
31294W        W 2877   2.083   6.932   1.298
31295W        W 2878  24.011   9.316   2.140
31296W        W 2879  19.591  16.646   4.157
31297W        W 2880   3.856  30.942   3.401
31298W        W 2881  17.691   9.905   4.146
31299W        W 2882  33.578  17.350  10.414
31300W        W 2883  29.605  33.542  10.218
31301W        W 2884  39.530  13.755  14.480
31302W        W 2885   3.560  21.600   0.412
31303W        W 2886  36.528   6.984   0.180
31304W        W 2887  38.571   6.094  11.242
31305W        W 2888  21.694   7.048   0.560
31306W        W 2889  31.197  17.583  11.557
31307W        W 2890  35.328  42.425   3.126
31308W        W 2891   0.870  16.171   1.327
31309W        W 2892   8.842  34.969  10.515
31310W        W 2893  36.541  13.532   2.867
31311W        W 2894   4.657   0.062   0.749
31312W        W 2895   7.205  15.588   1.229
31313W        W 2896   3.924  23.876  13.267
31314W        W 2897  35.089  27.736  11.862
31315W        W 2898  19.930  22.710  12.158
31316W        W 2899  12.129   6.090   1.157
31317W        W 2900   9.097   7.811  12.421
31318W        W 2901  19.576   8.547  12.947
31319W        W 2902  23.646  37.765   0.925
31320W        W 2903  41.785   6.220   4.991
31321W        W 2904   4.116  33.125  12.072
31322W        W 2905   3.204  25.770   5.084
31323W        W 2906   7.428  40.564  10.922
31324W        W 2907  30.907   9.836  14.352
31325W        W 2908  13.952  23.301  14.081
31326W        W 2909  18.190  19.257   3.736
31327W        W 2910  35.802  19.048  13.028
31328W        W 2911  29.187  36.540   0.972
31329W        W 2912  29.297  26.524   0.168
31330W        W 2913  42.489  34.490   3.724
31331W        W 2914  38.102  21.124   0.851
31332W        W 2915  39.447  21.947   1.270
31333W        W 2916  37.500  42.028  14.990
31334W        W 2917  16.771  39.457  10.448
31335W        W 2918   9.456   6.321  14.009
31336W        W 2919  28.684  34.056   3.568
31337W        W 2920  26.461  22.501  14.966
31338W        W 2921  44.460  18.731  12.641
31339W        W 2922  10.321  32.543   1.407
31340W        W 2923  20.667   0.549   2.203
31341W        W 2924  27.689  16.124   1.457
31342W        W 2925  41.418  36.452   4.563
31343W        W 2926   1.127  20.360   0.817
31344W        W 2927  35.489  33.129   3.242
31345W        W 2928  30.474   6.623   0.945
31346W        W 2929   2.598   1.637   2.461
31347W        W 2930  10.854  22.031   2.239
31348W        W 2931  11.712  37.513  10.619
31349W        W 2932  13.734  18.055   2.666
31350W        W 2933  41.540  20.790   3.212
31351W        W 2934  10.630  43.794  11.642
31352W        W 2935   0.224   8.338   4.442
31353W        W 2936  18.120  26.633  12.796
31354W        W 2937  40.755   5.583  12.556
31355W        W 2938  16.689   9.212   1.155
31356W        W 2939   9.438  42.462  12.634
31357W        W 2940  32.449  17.676   4.654
31358W        W 2941  27.111  23.128  11.546
31359W        W 2942  30.943  37.379  11.587
31360W        W 2943  25.451   0.659  14.387
31361W        W 2944  20.604  36.116   4.528
31362W        W 2945  17.796  24.547  12.473
31363W        W 2946  29.265  22.108  12.667
31364W        W 2947  35.993   1.472  13.246
31365W        W 2948   4.029  28.082   4.292
31366W        W 2949  28.688  38.521   4.503
31367W        W 2950  21.679  37.738   3.672
31368W        W 2951  44.515   6.862   1.247
31369W        W 2952  22.602  16.191   3.230
31370W        W 2953  33.168  31.900  10.779
31371W        W 2954  18.693  22.675  10.604
31372W        W 2955   2.905   4.885   3.182
31373W        W 2956   1.440  12.792  10.697
31374W        W 2957  22.141  28.217   5.474
31375W        W 2958  35.961  23.246  10.755
31376W        W 2959  13.257  38.288   1.356
31377W        W 2960  13.690   4.832   1.249
31378W        W 2961  29.490  41.274  12.512
31379W        W 2962  28.051   1.923   1.671
31380W        W 2963  35.041  11.316   4.932
31381W        W 2964  40.362  36.057   2.877
31382W        W 2965   1.697  16.321   4.104
31383W        W 2966  36.945   0.970   3.587
31384W        W 2967  10.474   6.195  13.689
31385W        W 2968  26.654  19.714  12.320
31386W        W 2969   5.932   6.448   1.390
31387W        W 2970   5.454  34.296  13.058
31388W        W 2971  14.521   1.672   1.436
31389W        W 2972  44.898  32.573   2.800
31390W        W 2973   6.720  10.297  13.940
31391W        W 2974  43.715  33.508   3.029
31392W        W 2975  25.853   1.770   5.163
31393W        W 2976  12.513  15.828   0.458
31394W        W 2977  22.313  25.660  13.491
31395W        W 2978  17.227  38.864   3.620
31396W        W 2979  37.330  40.622  14.789
31397W        W 2980  10.236   0.909  10.513
31398W        W 2981  33.001  27.188   1.483
31399W        W 2982  19.625   7.136   0.440
31400W        W 2983  29.355  14.356  11.565
31401W        W 2984   5.191  16.657   3.992
31402W        W 2985  22.197  23.105   0.026
31403W        W 2986  31.296  28.542  11.160
31404W        W 2987  13.634   6.457  11.329
31405W        W 2988  26.411  26.005   3.892
31406W        W 2989   8.398  41.251  11.649
31407W        W 2990  22.186  11.140   4.608
31408W        W 2991  36.168  35.031  14.847
31409W        W 2992  10.707   7.263   3.866
31410W        W 2993   2.719  35.756  11.415
31411W        W 2994   5.924  29.594   1.192
31412W        W 2995  24.923  43.284   2.926
31413W        W 2996  42.386  40.688   4.192
31414W        W 2997  26.585  19.735  10.826
31415W        W 2998   7.919  10.527  11.936
31416W        W 2999  38.025  24.958  12.677
31417W        W 3000  41.879  32.592   1.947
31418W        W 3001  16.900  36.959   4.564
31419W        W 3002  24.835  33.629  14.743
31420W        W 3003  36.092  32.679   2.437
31421W        W 3004  31.424  37.151   1.962
31422W        W 3005   5.341   1.553   1.762
31423W        W 3006  28.315  41.132   0.833
31424W        W 3007  17.690  15.663   2.926
31425W        W 3008  32.837  44.560  12.171
31426W        W 3009  11.383   6.883  12.395
31427W        W 3010  15.992   5.151  10.847
31428W        W 3011  44.071  16.852   2.403
31429W        W 3012  23.284   8.161   5.348
31430W        W 3013  31.087  18.608   4.203
31431W        W 3014  20.253  10.216   1.016
31432W        W 3015   6.366   2.210   4.592
31433W        W 3016  40.511  10.033   3.367
31434W        W 3017  31.952  33.822   3.142
31435W        W 3018  22.798   5.319   4.952
31436W        W 3019   8.396  34.221  12.569
31437W        W 3020  39.488  34.050   3.341
31438W        W 3021  37.594  20.423  10.081
31439W        W 3022  11.145  18.514   3.741
31440W        W 3023  14.424   6.364   2.465
31441W        W 3024  22.742  14.301   0.989
31442W        W 3025  37.953  43.458  14.686
31443W        W 3026  37.038  25.593  10.724
31444W        W 3027   9.210  40.025   4.086
31445W        W 3028  25.080  12.770  14.529
31446W        W 3029  13.819  30.506   4.245
31447W        W 3030  10.730  17.012  12.007
31448W        W 3031  19.218  39.366   2.652
31449W        W 3032  40.895  19.385  12.691
31450W        W 3033   9.756  43.299  14.420
31451W        W 3034   3.955  22.425   0.000
31452W        W 3035  27.639  24.045  14.885
31453W        W 3036  22.716  22.451   5.038
31454W        W 3037  28.597   6.207   1.402
31455W        W 3038  43.523   5.391   0.905
31456W        W 3039  15.158  22.070  11.481
31457W        W 3040   7.517  35.227  12.305
31458W        W 3041   7.413  44.392   0.489
31459W        W 3042  18.183  10.897   2.827
31460W        W 3043  34.447  19.854   0.643
31461W        W 3044  24.819  14.850   2.956
31462W        W 3045  40.415  38.875  14.469
31463W        W 3046  24.190   7.236   0.450
31464W        W 3047  19.601  42.007  13.003
31465W        W 3048   5.889  37.104   2.919
31466W        W 3049   9.233  18.289  11.968
31467W        W 3050  23.547  34.253   3.728
31468W        W 3051  44.213  38.102  14.884
31469W        W 3052  14.350  15.333  13.934
31470W        W 3053  42.247  40.100  13.361
31471W        W 3054  11.310   8.657  11.858
31472W        W 3055  20.573  36.709  11.366
31473W        W 3056  37.944  26.140   4.175
31474W        W 3057  17.512   8.716   3.658
31475W        W 3058  10.587  28.475   1.730
31476W        W 3059  27.627  32.398  10.712
31477W        W 3060  32.418   4.163  13.820
31478W        W 3061  24.105   4.222  12.462
31479W        W 3062   0.678  11.717  11.230
31480W        W 3063  22.707  11.541   3.824
31481W        W 3064  27.459   2.258  14.883
31482W        W 3065  22.497  18.053   3.341
31483W        W 3066  29.634  17.153   4.485
31484W        W 3067  36.804  37.103   0.810
31485W        W 3068  25.359  35.811  10.271
31486W        W 3069  36.153  29.996   3.292
31487W        W 3070  19.479  23.984  11.578
31488W        W 3071  31.354  27.486  10.346
31489W        W 3072   3.998  15.358   2.574
31490W        W 3073  25.962   1.293  11.963
31491W        W 3074   5.970  22.666   4.488
31492W        W 3075  17.333  35.065  11.003
31493W        W 3076  27.658  28.968  11.925
31494W        W 3077   4.348  12.854   3.643
31495W        W 3078  17.352  35.297   0.033
31496W        W 3079   1.741   6.039  12.009
31497W        W 3080  19.799  16.777  12.805
31498W        W 3081  14.145  32.565  13.272
31499W        W 3082  39.066  21.734   4.011
31500W        W 3083  23.468  14.273  11.471
31501W        W 3084  11.749  43.956  12.386
31502W        W 3085  14.507  40.358   2.336
31503W        W 3086  12.117  23.588   4.706
31504W        W 3087  16.033  31.417   1.830
31505W        W 3088  21.672  41.980  13.669
31506W        W 3089  13.272  23.677  12.567
31507W        W 3090  26.766   7.317  11.115
31508W        W 3091  25.517  13.730  11.661
31509W        W 3092  36.125  41.574   3.861
31510W        W 3093  11.760  44.511  12.361
31511W        W 3094  31.732   0.841  10.746
31512W        W 3095   0.286  21.071  11.957
31513W        W 3096   5.320  20.618  13.219
31514W        W 3097  38.574  17.798   2.415
31515W        W 3098  39.071  38.352   2.870
31516W        W 3099  19.091  27.908  14.113
31517W        W 3100   9.360  21.998   0.229
31518W        W 3101  30.687  43.981   4.561
31519W        W 3102   4.156  37.877   2.287
31520W        W 3103   5.191  37.760   1.379
31521W        W 3104   5.153   5.154   4.692
31522W        W 3105  13.145   6.304  14.278
31523W        W 3106  18.725   8.417   3.041
31524W        W 3107   6.438   2.317  13.358
31525W        W 3108  39.359   1.937  10.137
31526W        W 3109  36.383  16.014   0.838
31527W        W 3110  18.172  41.845   4.241
31528W        W 3111   9.690  11.234  12.136
31529W        W 3112  38.502  16.843   4.644
31530W        W 3113  22.231  20.199   3.609
31531W        W 3114  44.315  33.438  14.274
31532W        W 3115   9.394   3.871   1.228
31533W        W 3116  27.592   7.474   2.161
31534W        W 3117  16.029  24.348   3.578
31535W        W 3118   7.148  27.338  11.879
31536W        W 3119  10.421  38.805   3.713
31537W        W 3120   3.281  21.585   3.818
31538W        W 3121   8.773  32.449  13.662
31539W        W 3122  20.011   7.360   1.486
31540W        W 3123  41.517  21.796   0.423
31541W        W 3124   6.855   7.709   0.405
31542W        W 3125  28.605  19.015   4.396
31543W        W 3126  41.757  42.345   0.271
31544W        W 3127  33.946   1.445   2.859
31545W        W 3128  35.948  28.995  13.807
31546W        W 3129  19.667   5.004  12.381
31547W        W 3130  17.044  42.682  12.483
31548W        W 3131  20.425  35.429  12.539
31549W        W 3132  25.489  18.332  11.539
31550W        W 3133  13.777  34.935  13.350
31551W        W 3134  27.642  18.551   1.922
31552W        W 3135  40.958  25.473  13.674
31553W        W 3136  41.765  13.302   0.351
31554W        W 3137   3.197  43.647  10.445
31555W        W 3138   6.755   3.181  12.528
31556W        W 3139  26.699  17.064   2.018
31557W        W 3140  41.533   9.809   3.250
31558W        W 3141  37.719  29.910  14.847
31559W        W 3142  31.705  14.086  11.047
31560W        W 3143  44.975  24.656   4.486
31561W        W 3144  43.589   6.694  11.031
31562W        W 3145   0.906  29.863   4.748
31563W        W 3146   8.731  19.795   1.796
31564W        W 3147  40.888  39.833   2.630
31565W        W 3148  18.534   7.770  13.504
31566W        W 3149   5.969  37.635   3.720
31567W        W 3150  10.152  38.873   3.260
31568W        W 3151  17.088   8.649  13.430
31569W        W 3152  11.627   4.727  13.874
31570W        W 3153  26.908  33.873   9.672
31571W        W 3154  12.403  39.068   3.722
31572W        W 3155  29.400  14.703   4.814
31573W        W 3156  21.541   8.190   5.082
31574W        W 3157   6.782  28.266  14.774
31575W        W 3158   0.406  21.561  12.361
31576W        W 3159  35.914  14.904  14.271
31577W        W 3160  10.255   2.914   4.015
31578W        W 3161  16.664  33.428  11.694
31579W        W 3162  28.649  22.966   0.363
31580W        W 3163   7.261  14.066  10.353
31581W        W 3164  27.900  14.079  14.809
31582W        W 3165  13.212   1.923  11.918
31583W        W 3166  23.738  24.942  12.431
31584W        W 3167  36.093   6.732  14.213
31585W        W 3168   3.291  18.429  14.851
31586W        W 3169  37.942  33.011  13.369
31587W        W 3170  11.219   9.345  12.103
31588W        W 3171  14.773  16.028   1.804
31589W        W 3172  23.679  43.789   0.719
31590W        W 3173  39.753  22.521  13.832
31591W        W 3174   9.760  36.307  13.021
31592W        W 3175   7.477  29.948  11.046
31593W        W 3176  35.956  25.606  10.687
31594W        W 3177   3.346  27.485  12.852
31595W        W 3178  37.822  36.104  13.910
31596W        W 3179  33.914  24.727   3.494
31597W        W 3180  15.748  23.926   2.312
31598W        W 3181  35.440  26.565  11.269
31599W        W 3182  28.980  27.820  11.530
31600W        W 3183  21.174   0.051   3.262
31601W        W 3184  13.154  39.951   0.582
31602W        W 3185  33.239  15.537   0.485
31603W        W 3186   5.695  23.051  14.837
31604W        W 3187  32.502  37.351   2.563
31605W        W 3188  44.368  34.031  14.926
31606W        W 3189  26.043  39.009  12.539
31607W        W 3190  23.643  20.789   2.773
31608W        W 3191  43.669  14.031   1.735
31609W        W 3192   8.453  35.602  13.479
31610W        W 3193  18.246  15.373   0.761
31611W        W 3194  16.560  22.310  11.722
31612W        W 3195   6.822  40.435   3.786
31613W        W 3196  19.542  22.022   3.581
31614W        W 3197   6.785  34.153   0.347
31615W        W 3198   6.622   2.740  12.762
31616W        W 3199   8.585  31.329   3.704
31617W        W 3200   8.202  38.633  12.852
31618W        W 3201   4.740  37.924   4.948
31619W        W 3202  26.197  37.356   4.950
31620W        W 3203  39.951  43.859  14.415
31621W        W 3204  30.363   3.400  12.477
31622W        W 3205   9.880  42.970   3.591
31623W        W 3206  10.142   8.816   2.815
31624W        W 3207  18.070  10.133   1.825
31625W        W 3208  18.293  23.648  12.399
31626W        W 3209  25.725  36.608   4.691
31627W        W 3210  41.944   7.717   3.370
31628W        W 3211  21.170  11.214   1.288
31629W        W 3212  41.376  34.656  13.638
31630W        W 3213   9.608  38.105   0.868
31631W        W 3214  34.441  40.610  12.793
31632W        W 3215  26.954   0.523   4.191
31633W        W 3216   9.434  39.022  13.075
31634W        W 3217  40.270   5.351   0.948
31635W        W 3218  37.467  32.394   0.645
31636W        W 3219  17.228  24.555  14.305
31637W        W 3220  32.737  31.155   0.318
31638W        W 3221  38.891  11.370   4.271
31639W        W 3222  12.277  33.333   2.346
31640W        W 3223  16.221  37.141   4.127
31641W        W 3224   9.044   8.325   1.419
31642W        W 3225  33.966   5.169   4.169
31643W        W 3226  16.721   4.502   3.240
31644W        W 3227  37.004  42.825  14.753
31645W        W 3228   7.656  42.430   3.154
31646W        W 3229  24.913  26.611  11.362
31647W        W 3230   6.493  39.041   2.587
31648W        W 3231  43.493  29.683   1.927
31649W        W 3232  31.545  13.581   4.152
31650W        W 3233  42.666   3.419   4.069
31651W        W 3234  35.883  27.633  13.470
31652W        W 3235  21.108  12.863   4.783
31653W        W 3236  37.461  18.538  12.970
31654W        W 3237  14.062   3.812  14.693
31655W        W 3238   1.096  20.269  14.740
31656W        W 3239  21.962  11.329  14.298
31657W        W 3240  18.775  10.911   3.783
31658W        W 3241  28.921   0.355   4.115
31659W        W 3242  28.161  32.056  12.490
31660W        W 3243  11.386  22.149  10.961
31661W        W 3244   2.525  20.086  14.420
31662W        W 3245  24.249   6.094  12.924
31663W        W 3246  22.036  41.443  12.472
31664W        W 3247  33.574   1.218  12.506
31665W        W 3248  13.694  43.782   2.285
31666W        W 3249  25.176  33.304   1.882
31667W        W 3250  16.879  33.319  13.130
31668W        W 3251  25.381  43.079  12.897
31669W        W 3252  27.143  34.085  11.943
31670W        W 3253  38.043  32.047  13.220
31671W        W 3254  35.301  34.896   0.229
31672W        W 3255  36.404  23.952  11.043
31673W        W 3256  42.041  21.787  13.124
31674W        W 3257  30.554  12.670   2.863
31675W        W 3258   0.644   6.394   2.614
31676W        W 3259  38.072   3.307  12.984
31677W        W 3260  31.677  39.682  10.418
31678W        W 3261   0.983  10.113   3.174
31679W        W 3262   4.551  30.521   1.045
31680W        W 3263  31.660  17.182   4.774
31681W        W 3264  31.995  26.048   3.540
31682W        W 3265  18.766   6.927   4.866
31683W        W 3266   8.770   7.878   1.239
31684W        W 3267  26.021  42.876  11.388
31685W        W 3268   8.303  44.834  14.870
31686W        W 3269   0.741  38.994   4.671
31687W        W 3270  33.219  10.736  13.917
31688W        W 3271   1.359  44.015  12.847
31689W        W 3272  33.090  41.336   3.547
31690W        W 3273  15.004  34.827  11.152
31691W        W 3274  11.590  19.561   4.405
31692W        W 3275  34.856  13.783  12.554
31693W        W 3276   9.291  18.784   3.969
31694W        W 3277  21.788  26.531  14.913
31695W        W 3278   7.479  42.441   0.480
31696W        W 3279   5.309  21.059   1.152
31697W        W 3280  33.494   0.172   3.518
31698W        W 3281  40.960   1.297  14.877
31699W        W 3282  33.495   1.500   4.697
31700W        W 3283   8.714  16.044  13.059
31701W        W 3284  36.857  27.421  11.136
31702W        W 3285  20.152  40.531  13.842
31703W        W 3286  10.735  43.501  13.421
31704W        W 3287  19.650  25.293   3.832
31705W        W 3288  33.610   2.705   4.205
31706W        W 3289  26.569  12.776   4.803
31707W        W 3290  24.666  42.862   4.782
31708W        W 3291  38.022   7.377   2.898
31709W        W 3292  22.893  33.053   0.879
31710W        W 3293  19.162   0.059   0.370
31711W        W 3294  19.100  29.016  14.480
31712W        W 3295   6.582   1.975  12.983
31713W        W 3296  17.784  28.543   2.760
31714W        W 3297  25.024   6.863  13.491
31715W        W 3298  38.753   3.536   2.627
31716W        W 3299  39.557  40.064  12.029
31717W        W 3300  19.322   1.556  12.593
31718W        W 3301  24.692  37.514   2.453
31719W        W 3302  34.644  37.477  14.437
31720W        W 3303  28.977  21.572  14.531
31721W        W 3304  21.645  30.714   4.210
31722W        W 3305  19.029  41.051  10.618
31723W        W 3306  44.600  13.383   2.897
31724W        W 3307  10.470   6.667   4.189
31725W        W 3308   2.905  29.461  13.628
31726W        W 3309  16.913  36.006   4.662
31727W        W 3310   1.402  16.230   1.417
31728W        W 3311  10.608  37.672  13.369
31729W        W 3312  36.625  23.540  14.190
31730W        W 3313  26.977  28.635  14.894
31731W        W 3314  27.486  32.554  11.165
31732W        W 3315  11.027  30.099   2.692
31733W        W 3316  38.035  12.471  14.893
31734W        W 3317  23.969  18.124  12.580
31735W        W 3318  19.217  35.664   0.829
31736W        W 3319  26.034  42.697   0.734
31737W        W 3320  31.373   2.725  13.613
31738W        W 3321  18.319   5.711  13.855
31739W        W 3322  14.741   9.710   4.423
31740W        W 3323  37.309  20.955   2.366
31741W        W 3324   3.046  29.994  11.079
31742W        W 3325  37.519  13.812   0.329
31743W        W 3326   1.187  41.870   1.266
31744W        W 3327  36.940  20.708   3.304
31745W        W 3328   8.577  26.944   1.756
31746W        W 3329  31.134  39.401   0.824
31747W        W 3330  15.830  35.118   9.887
31748W        W 3331   4.756  12.185  10.672
31749W        W 3332  41.428   8.417  12.715
31750W        W 3333  13.858  34.375   0.337
31751W        W 3334  33.069  24.935   5.081
31752W        W 3335  28.057  33.122   4.558
31753W        W 3336   0.479   9.129   0.942
31754W        W 3337  39.350  44.220   4.449
31755W        W 3338  42.347  11.830  10.652
31756W        W 3339   5.933  37.353  12.448
31757W        W 3340  11.299  19.947   1.802
31758W        W 3341  33.950   1.559  11.558
31759W        W 3342  42.512   2.027  14.999
31760W        W 3343   6.476   7.427   4.829
31761W        W 3344   8.135  26.497   1.385
31762W        W 3345  35.535  21.639   4.083
31763W        W 3346  22.601  19.030  13.447
31764W        W 3347  42.125  43.502  12.041
31765W        W 3348   6.705  16.755  14.730
31766W        W 3349   8.209  23.789  13.439
31767W        W 3350  30.141  31.364  13.065
31768W        W 3351  16.536  32.006  13.067
31769W        W 3352  27.172  23.480  14.363
31770W        W 3353  13.223  41.390  14.754
31771W        W 3354   8.475  36.830   1.174
31772W        W 3355  31.113  36.495   2.991
31773W        W 3356  15.034  26.975  14.223
31774W        W 3357  27.188   6.921   0.820
31775W        W 3358  22.700  41.297  11.187
31776W        W 3359  31.528  26.652   3.574
31777W        W 3360  11.716  17.315   4.159
31778W        W 3361   0.280  19.830   3.464
31779W        W 3362  11.342  25.621  14.006
31780W        W 3363  39.411  20.094  11.730
31781W        W 3364   0.833  24.397   2.423
31782W        W 3365   4.887  34.450  10.719
31783W        W 3366  33.441  18.262   1.315
31784W        W 3367  19.621  20.744   4.231
31785W        W 3368  20.764   9.503  12.961
31786W        W 3369   1.213  15.350  12.958
31787W        W 3370   2.429  25.006  10.385
31788W        W 3371  12.002  34.732  12.635
31789W        W 3372   2.788  30.463   3.736
31790W        W 3373  14.993   5.387   4.789
31791W        W 3374  12.890  39.936   3.695
31792W        W 3375  37.000  20.233   3.549
31793W        W 3376  28.731  43.568  12.978
31794W        W 3377  42.966  13.133   1.297
31795W        W 3378  35.478  30.793   4.704
31796W        W 3379   5.612  18.256   4.012
31797W        W 3380   6.376  27.763  11.399
31798W        W 3381  26.433  44.823  11.045
31799W        W 3382  36.335  29.047  11.421
31800W        W 3383  41.084  24.435   0.415
31801W        W 3384  13.660  11.599  14.774
31802W        W 3385  20.361  10.381   0.487
31803W        W 3386   0.869  40.843   0.275
31804W        W 3387  28.585  18.131   3.891
31805W        W 3388  13.015  15.685   0.383
31806W        W 3389  35.157  27.198   0.879
31807W        W 3390  21.480  29.113  10.738
31808W        W 3391  44.921   4.942   3.229
31809W        W 3392  18.082   2.386   0.730
31810W        W 3393  13.876  26.073   2.220
31811W        W 3394  40.095  27.621   1.831
31812W        W 3395  36.235  43.440  13.749
31813W        W 3396  30.524   5.155   3.119
31814W        W 3397   2.760  23.229   3.104
31815W        W 3398  39.575  11.407   2.363
31816W        W 3399  12.747   6.767   2.784
31817W        W 3400   6.677  30.533   4.424
31818W        W 3401  21.011  29.403  10.705
31819W        W 3402  17.757  15.951   4.158
31820W        W 3403  30.481  17.857   1.822
31821W        W 3404   1.428  20.312  13.608
31822W        W 3405  19.771  44.897  10.782
31823W        W 3406  35.141  19.625   4.991
31824W        W 3407  17.411  29.774  11.952
31825W        W 3408  14.085  20.116   0.465
31826W        W 3409   8.254   1.095  12.380
31827W        W 3410  23.041  44.342   1.624
31828W        W 3411   9.312  42.895   0.327
31829W        W 3412  37.832  43.462   0.685
31830W        W 3413  32.489  41.934   1.922
31831W        W 3414  41.179  12.811  14.894
31832W        W 3415  34.846  22.980   1.828
31833W        W 3416  30.079  24.692  13.703
31834W        W 3417  40.284  17.114   4.488
31835W        W 3418  26.027  14.557  14.820
31836W        W 3419  35.412  42.850  10.889
31837W        W 3420  11.676  15.592   2.287
31838W        W 3421  18.035  44.348   3.647
31839W        W 3422  16.669  40.063   3.262
31840W        W 3423  27.822  21.194   4.200
31841W        W 3424  39.273   8.771   3.545
31842W        W 3425   7.530  14.784   3.314
31843W        W 3426   2.744  35.624   2.785
31844W        W 3427  37.548  24.900  12.492
31845W        W 3428  15.897  35.243  13.441
31846W        W 3429   2.688  24.180  10.499
31847W        W 3430  35.377   6.457  13.067
31848W        W 3431  40.247  28.682   1.278
31849W        W 3432  31.394   6.893  10.911
31850W        W 3433   9.945   3.923  14.242
31851W        W 3434   7.898   0.999  14.440
31852W        W 3435  33.170  35.178  12.504
31853W        W 3436  44.296  41.315   1.863
31854W        W 3437   6.729  15.918   3.469
31855W        W 3438  18.756  20.099   1.777
31856W        W 3439  27.162   2.216  11.203
31857W        W 3440  35.337  44.919   4.463
31858W        W 3441  23.560  24.137  13.824
31859W        W 3442  13.799  13.340  13.493
31860W        W 3443   8.557  31.949   1.214
31861W        W 3444  28.835   0.936  14.415
31862W        W 3445  21.286  33.141   3.240
31863W        W 3446  34.125   5.987  12.523
31864W        W 3447  23.473  12.545   4.069
31865W        W 3448   8.599  40.865  13.960
31866W        W 3449  21.326   5.516   0.384
31867W        W 3450  25.671  40.964  14.943
31868W        W 3451  16.095  13.791   4.926
31869W        W 3452  18.543  11.774   2.382
31870W        W 3453  28.160  34.112  13.948
31871W        W 3454  10.405   3.349  13.077
31872W        W 3455  14.735  10.193  14.720
31873W        W 3456  17.213  11.310   0.307
31874W        W 3457  35.034  28.500  10.781
31875W        W 3458  10.916  33.522  11.898
31876W        W 3459  16.648  11.364  12.432
31877W        W 3460  18.387  17.355  12.505
31878W        W 3461  11.238  12.566  14.961
31879W        W 3462  38.737  31.979   2.758
31880W        W 3463  40.434  26.045   0.525
31881W        W 3464  25.202  44.992  11.630
31882W        W 3465  32.512  23.951   2.842
31883W        W 3466   0.995  38.996  13.487
31884W        W 3467  34.033  27.594   4.241
31885W        W 3468  44.901  37.112   1.694
31886W        W 3469   3.222   8.810   4.625
31887W        W 3470  18.614  17.814  12.527
31888W        W 3471   6.560  43.371   3.614
31889W        W 3472  15.268  40.007   1.126
31890W        W 3473  36.737  23.102  12.419
31891W        W 3474   3.479  15.977   5.167
31892W        W 3475  24.514  31.003  14.880
31893W        W 3476  29.707  12.268   2.409
31894W        W 3477   9.401  39.170   2.828
31895W        W 3478  15.392  19.193   0.199
31896W        W 3479   0.425  40.057  11.932
31897W        W 3480   7.768  23.165  11.443
31898W        W 3481  27.971   6.155   1.748
31899W        W 3482   1.681  38.190  13.684
31900W        W 3483  38.449  26.311   0.362
31901W        W 3484   6.990  42.279  12.824
31902W        W 3485   1.401  34.446  14.888
31903W        W 3486  40.461  18.112  12.589
31904W        W 3487  19.871  16.845  11.073
31905W        W 3488  25.183   9.681   2.220
31906W        W 3489  15.819  42.394   3.668
31907W        W 3490   3.326  41.131   4.186
31908W        W 3491  35.467   8.925   2.338
31909W        W 3492  30.520   7.448   4.210
31910W        W 3493  39.059   9.218  14.793
31911W        W 3494  23.200   3.015   2.889
31912W        W 3495  13.352  34.576   4.527
31913W        W 3496  16.843  10.466  10.880
31914W        W 3497  10.188  14.618   4.617
31915W        W 3498  41.268  17.213  14.822
31916W        W 3499  37.576  16.722   0.276
31917W        W 3500  28.029  23.230  10.545
31918W        W 3501  20.167  26.353  11.543
31919W        W 3502  32.114  17.766   2.619
31920W        W 3503  19.533  31.056  12.513
31921W        W 3504  28.970  39.420  13.895
31922W        W 3505  11.229  26.224  10.717
31923W        W 3506   7.658   3.639  11.170
31924W        W 3507  15.065  35.451   0.278
31925W        W 3508  14.153  14.652   4.719
31926W        W 3509  11.044  23.162   3.166
31927W        W 3510  31.428  19.271  11.345
31928W        W 3511   8.892  32.894  11.932
31929W        W 3512  35.528  17.623   3.566
31930W        W 3513  35.878  34.095   1.475
31931W        W 3514  21.731  39.634  12.461
31932W        W 3515  44.254   2.307  11.499
31933W        W 3516  42.903  14.090  13.726
31934W        W 3517  38.810  31.234   1.784
31935W        W 3518   4.636   2.306  14.535
31936W        W 3519  33.989  24.732  13.400
31937W        W 3520   4.244  20.992   3.317
31938W        W 3521   3.794  10.800   1.880
31939W        W 3522   0.954  29.101  12.385
31940W        W 3523  40.091  25.504   4.273
31941W        W 3524  40.582  18.239  11.185
31942W        W 3525  43.460  10.831   1.625
31943W        W 3526  36.417  17.672  11.917
31944W        W 3527  20.798  41.523  12.988
31945W        W 3528  17.456  36.916  10.233
31946W        W 3529   2.943  43.999  13.405
31947W        W 3530  27.506  30.817  11.734
31948W        W 3531  34.964  32.630  10.787
31949W        W 3532  42.433  22.225  14.841
31950W        W 3533  18.625  33.616  13.820
31951W        W 3534  22.090   9.109  11.603
31952W        W 3535  29.509  37.860   4.850
31953W        W 3536   4.375  23.087   2.910
31954W        W 3537  44.977   7.977  11.190
31955W        W 3538  28.736  11.739  14.034
31956W        W 3539  35.457  18.716  12.410
31957W        W 3540  33.370   7.486   1.691
31958W        W 3541  26.877  36.883  13.004
31959W        W 3542  35.510  28.711  13.846
31960W        W 3543  23.531  16.700  11.060
31961W        W 3544  31.979   8.091   4.675
31962W        W 3545  15.990  19.760  13.795
31963W        W 3546  36.083  42.119  11.716
31964W        W 3547   4.922  30.059  11.621
31965W        W 3548  38.507  14.243   4.692
31966W        W 3549   6.247  31.710   0.339
31967W        W 3550  37.418  14.896  11.011
31968W        W 3551  37.534  22.940   2.436
31969W        W 3552   1.710  24.715  12.428
31970W        W 3553  32.206   2.219   1.215
31971W        W 3554  27.945  29.412  14.930
31972W        W 3555  28.921  38.145  11.127
31973W        W 3556   8.510   2.954  12.985
31974W        W 3557  27.701   2.933  14.498
31975W        W 3558   9.179   3.934   0.264
31976W        W 3559  39.791  18.768  13.483
31977W        W 3560  29.209  17.755   2.898
31978W        W 3561   8.924  44.889  13.137
31979W        W 3562  32.460  11.179  10.530
31980W        W 3563   7.774   6.114  12.438
31981W        W 3564  13.108  18.831   4.615
31982W        W 3565   3.813  31.542  14.330
31983W        W 3566  29.421  31.058  11.995
31984W        W 3567  32.473  24.619   0.984
31985W        W 3568  40.711  17.602  10.571
31986W        W 3569  37.984  37.057   0.016
31987W        W 3570   3.532  34.802  11.497
31988W        W 3571  11.385   1.286   2.634
31989W        W 3572  12.385  31.048   1.723
31990W        W 3573  15.115  23.004   2.295
31991W        W 3574  40.321  31.894   0.883
31992W        W 3575  29.556  31.527   5.047
31993W        W 3576  18.228  21.942   5.173
31994W        W 3577  37.438  42.699  11.467
31995W        W 3578  21.332  27.429  12.596
31996W        W 3579  25.727  10.669   5.290
31997W        W 3580  20.992  17.743  10.969
31998W        W 3581   6.231  20.797  11.107
31999W        W 3582   4.790  30.700  12.459
32000W        W 3583  19.482  28.195   3.342
32001W        W 3584  38.389  40.616  10.686
32002W        W 3585  18.072  25.531  11.765
32003W        W 3586  22.040  28.869  14.478
32004W        W 3587  40.448   8.443   2.847
32005W        W 3588   8.341  33.154  12.586
32006W        W 3589   4.173   8.829   2.135
32007W        W 3590  33.534  42.393   2.137
32008W        W 3591   9.674  27.491  14.411
32009W        W 3592   4.632   8.644   2.323
32010W        W 3593   4.099  27.481   1.854
32011W        W 3594  19.223  25.033   3.733
32012W        W 3595  33.975   8.643   1.391
32013W        W 3596  26.641   8.378  13.836
32014W        W 3597  15.884  37.013   4.492
32015W        W 3598  44.239   9.176   0.896
32016W        W 3599  27.476  29.179  14.937
32017W        W 3600  11.681  29.335  11.204
32018W        W 3601  34.973  44.475  13.049
32019W        W 3602  23.464   9.598  10.288
32020W        W 3603  29.253  29.239   0.098
32021W        W 3604  19.692   3.290  14.181
32022W        W 3605   7.246  25.648  13.302
32023W        W 3606   7.568  11.287  13.462
32024W        W 3607  10.806  34.159  14.036
32025W        W 3608  22.292   8.773  13.856
32026W        W 3609  33.412  43.971   4.658
32027W        W 3610  11.092  29.596   4.513
32028W        W 3611  20.432  20.601  10.373
32029W        W 3612  33.855  25.015  12.993
32030W        W 3613  26.042  27.146   4.457
32031W        W 3614  39.031  27.168  13.919
32032W        W 3615  25.135  30.176  13.881
32033W        W 3616  34.514  29.785  12.929
32034W        W 3617  15.160  39.078   0.347
32035W        W 3618  15.573  36.125  11.554
32036W        W 3619  29.989  28.630   1.617
32037W        W 3620  26.262  38.447  13.316
32038W        W 3621   7.160  24.602  10.326
32039W        W 3622  17.167  26.964   2.545
32040W        W 3623  34.362  18.222   2.341
32041W        W 3624   2.032  15.763   1.093
32042W        W 3625  11.118  26.087  14.274
32043W        W 3626  10.243  12.335  13.878
32044W        W 3627  13.848  25.738   0.351
32045W        W 3628   6.276  22.295   2.675
32046W        W 3629  14.287   6.431   1.988
32047W        W 3630  20.127  15.716   3.912
32048W        W 3631  42.615  37.070   4.992
32049W        W 3632  21.924   5.280  12.843
32050W        W 3633  43.319   5.052  13.039
32051W        W 3634  26.716  33.416   9.911
32052W        W 3635  10.871  28.397  12.959
32053W        W 3636   5.789   7.483  13.290
32054W        W 3637  36.994  22.496  11.016
32055W        W 3638   5.167   0.524   1.732
32056W        W 3639  40.142  43.839   4.783
32057W        W 3640   3.964  17.019   3.239
32058W        W 3641   7.709  33.680   0.517
32059W        W 3642  13.187  39.292   0.925
32060W        W 3643  29.677   8.135  14.917
32061W        W 3644   3.995   2.772   0.526
32062W        W 3645  32.649  22.091  12.544
32063W        W 3646  35.884   5.514   3.756
32064W        W 3647  41.949  11.564   4.159
32065W        W 3648  23.613  15.070   0.903
32066W        W 3649  22.788  22.210   3.322
32067W        W 3650  28.893   6.678  12.771
32068W        W 3651  25.087   9.410  11.956
32069W        W 3652   3.828  14.398   2.559
32070W        W 3653  34.746   7.262   0.151
32071W        W 3654  39.620  22.669  12.510
32072W        W 3655   6.938  41.250  10.866
32073W        W 3656  37.414   2.763  14.100
32074W        W 3657  25.438  18.310  14.329
32075W        W 3658  40.578  25.218  12.055
32076W        W 3659   8.228  18.870   3.100
32077W        W 3660  12.466   9.892  12.027
32078W        W 3661  16.068  20.657   3.091
32079W        W 3662  10.808  26.436  13.468
32080W        W 3663  18.110   6.102  10.732
32081W        W 3664  40.588  19.188  13.336
32082W        W 3665   2.945  13.424   1.953
32083W        W 3666  31.106   8.412  13.795
32084W        W 3667   0.578  32.518   3.232
32085W        W 3668  37.124   2.463  12.084
32086W        W 3669  34.390  34.334   2.924
32087W        W 3670   5.274  27.601   4.399
32088W        W 3671  34.866  27.248   4.342
32089W        W 3672  30.925   0.538  14.791
32090W        W 3673  21.570  34.891  12.328
32091W        W 3674  41.809  18.508   4.065
32092W        W 3675   8.260  33.148   2.341
32093W        W 3676  31.914  30.890  12.034
32094W        W 3677  11.162  37.520  10.680
32095W        W 3678  28.102   9.338  13.895
32096W        W 3679  12.281  41.927   2.342
32097W        W 3680   2.254  30.153  10.983
32098W        W 3681  28.436  22.630   3.285
32099W        W 3682  16.214  12.512  13.294
32100W        W 3683   9.603  33.375   2.199
32101W        W 3684  10.123  40.861  13.486
32102W        W 3685  22.597  24.158  12.209
32103W        W 3686   1.573  42.066   1.835
32104W        W 3687   5.632   9.354   4.014
32105W        W 3688  14.051   6.309   0.594
32106W        W 3689  33.580   3.231   2.703
32107W        W 3690  23.723  42.076  11.439
32108W        W 3691  33.634  18.180  11.406
32109W        W 3692  27.567  32.018   9.970
32110W        W 3693  11.171  41.922  14.831
32111W        W 3694  37.010  35.629   1.388
32112W        W 3695  39.032  33.552   3.674
32113W        W 3696  25.230   8.958   5.036
32114W        W 3697  12.082  44.230   1.792
32115W        W 3698  36.872   5.055  14.032
32116W        W 3699  37.205  27.757   2.728
32117W        W 3700  17.028  34.800  12.278
32118W        W 3701  10.689  43.958   1.800
32119W        W 3702  25.454  17.388  13.969
32120W        W 3703  17.241   6.746  11.427
32121W        W 3704  14.278  36.049   3.646
32122W        W 3705  33.369  44.046   0.741
32123W        W 3706  23.051  26.967   0.547
32124W        W 3707  17.773  40.755  14.462
32125W        W 3708  10.751  36.639  14.914
32126W        W 3709  29.510  39.335  11.289
32127W        W 3710  44.221  30.234   2.487
32128W        W 3711   2.516  22.634   3.862
32129W        W 3712  28.941  19.878  13.600
32130W        W 3713  16.835   2.943  13.448
32131W        W 3714  16.200  27.905   2.924
32132W        W 3715   9.357  41.369  13.224
32133W        W 3716  35.598  32.650  11.069
32134W        W 3717   5.929  26.899   4.713
32135W        W 3718  37.475  34.497  13.839
32136W        W 3719  35.578  44.903   4.003
32137W        W 3720  34.933  35.140   3.891
32138W        W 3721  28.965  21.027  12.569
32139W        W 3722  27.548  34.560   4.355
32140W        W 3723  27.769   6.371  12.243
32141W        W 3724  43.323  36.131  10.238
32142W        W 3725  16.267  12.859   1.694
32143W        W 3726  39.631  21.089   4.535
32144W        W 3727  11.762   1.455   2.952
32145W        W 3728  36.879  17.397   0.953
32146W        W 3729  35.339  39.480   2.421
32147W        W 3730  33.684  16.634  11.081
32148W        W 3731  44.720  32.018   5.166
32149W        W 3732  26.083   2.508   2.928
32150W        W 3733   3.189  33.837  12.090
32151W        W 3734  32.057  11.365  10.215
32152W        W 3735  22.785  42.357   1.752
32153W        W 3736  15.726  35.527   2.933
32154W        W 3737  28.636  12.583  12.028
32155W        W 3738   7.622   9.877   1.459
32156W        W 3739  15.214  29.893   0.508
32157W        W 3740  18.670  28.089  10.818
32158W        W 3741  26.687  35.556   4.852
32159W        W 3742  21.509  42.289  10.607
32160W        W 3743  16.749  42.583  12.899
32161W        W 3744  27.499  12.111   4.331
32162W        W 3745  26.218  40.253  12.104
32163W        W 3746  44.365   2.299   0.971
32164W        W 3747   9.586  32.149   0.481
32165W        W 3748  14.642  15.303   3.613
32166W        W 3749  13.677  44.950  12.014
32167W        W 3750  30.007  31.876  14.186
32168W        W 3751  17.145  18.613   0.923
32169W        W 3752  19.586  30.577   3.144
32170W        W 3753  12.458  15.086  12.060
32171W        W 3754  29.040  31.821   2.080
32172W        W 3755   4.074  24.584   0.424
32173W        W 3756  26.513  33.941   1.666
32174W        W 3757  20.735  26.623  12.403
32175W        W 3758   9.873  14.728   0.675
32176W        W 3759  21.941  37.845   1.327
32177W        W 3760   1.222   0.752  12.111
32178W        W 3761  28.406  26.599  14.037
32179W        W 3762  20.229  10.128   5.045
32180W        W 3763  21.169  20.636   2.209
32181W        W 3764   7.059  39.620  11.287
32182W        W 3765  32.856  22.426   3.333
32183W        W 3766  40.880  31.752  11.522
32184W        W 3767  34.827  44.019   2.768
32185W        W 3768  33.807  24.658   2.275
32186W        W 3769   5.954  35.079  11.543
32187W        W 3770  30.297  31.567  11.120
32188W        W 3771  23.015  26.325  11.163
32189W        W 3772  24.897  28.399  11.697
32190W        W 3773  17.751   2.894  14.947
32191W        W 3774  35.112  14.295   2.734
32192W        W 3775  14.315  28.927   1.886
32193W        W 3776  25.645  38.464  11.960
32194W        W 3777   9.094  42.944  13.345
32195W        W 3778  21.550  29.945  12.810
32196W        W 3779  32.102  15.969   3.295
32197W        W 3780  11.777  29.166   4.961
32198W        W 3781  22.500  17.917  12.477
32199W        W 3782  31.055  31.595   3.628
32200W        W 3783  22.735  30.792  13.810
32201W        W 3784  25.688  12.318  12.358
32202W        W 3785   7.217  11.787   3.045
32203W        W 3786  32.479   2.303   2.717
32204W        W 3787  41.855  30.525  14.924
32205W        W 3788   0.983  17.217  13.109
32206W        W 3789   3.953  27.705  11.633
32207W        W 3790   6.296  15.845   3.168
32208W        W 3791  35.426  31.599  13.298
32209W        W 3792  25.519  11.665   2.494
32210W        W 3793  12.896  26.120   1.508
32211W        W 3794  29.086  40.962  12.527
32212W        W 3795  10.775  27.533  13.394
32213W        W 3796   8.071  17.061  12.082
32214W        W 3797  26.649  14.649  11.029
32215W        W 3798  40.492  25.635   0.870
32216W        W 3799  19.684   6.185  13.273
32217W        W 3800  37.360   5.273   0.920
32218W        W 3801  13.138  33.259  13.573
32219W        W 3802  36.478  43.093   2.915
32220W        W 3803  19.297  16.649   4.931
32221W        W 3804   9.210  26.700  14.709
32222W        W 3805   0.115  38.987  14.015
32223W        W 3806  37.181  24.017   4.188
32224W        W 3807  31.709  24.448   1.216
32225W        W 3808  17.066  12.767   3.371
32226W        W 3809   7.541  16.266   3.770
32227W        W 3810  21.364  13.574  14.978
32228W        W 3811  27.655  10.191   2.753
32229W        W 3812  23.595  21.642  14.474
32230W        W 3813  26.939  26.676   3.262
32231W        W 3814  38.597  14.300  11.608
32232W        W 3815  44.916  12.615   3.548
32233W        W 3816   6.489  33.313   3.700
32234W        W 3817  44.048  10.304   2.774
32235W        W 3818  25.414  17.302  13.431
32236W        W 3819   3.343  24.162   0.863
32237W        W 3820  10.945  18.356   1.023
32238W        W 3821  37.498  18.218  13.376
32239W        W 3822   4.208  28.543  14.271
32240W        W 3823  31.842  12.441  13.749
32241W        W 3824  14.312  16.979  11.627
32242W        W 3825  25.567  33.659  14.445
32243W        W 3826  26.365  24.153   3.362
32244W        W 3827  12.343  44.967  11.977
32245W        W 3828  32.466  29.910   2.321
32246W        W 3829  42.833  26.422   5.002
32247W        W 3830  44.939  36.989  14.561
32248W        W 3831  21.029   4.482  13.742
32249W        W 3832  12.841  34.173   0.244
32250W        W 3833  16.270   2.167   1.262
32251W        W 3834  36.222  14.595   1.171
32252W        W 3835  14.399  37.338   4.637
32253W        W 3836  29.974  20.298   0.827
32254W        W 3837   8.938  22.088  12.535
32255W        W 3838  35.917  23.043  12.980
32256W        W 3839  12.944  38.485   3.140
32257W        W 3840  31.453  28.735  12.005
32258W        W 3841  31.612  11.097  10.269
32259W        W 3842  40.409  28.042   4.190
32260W        W 3843   5.444  40.034   4.034
32261W        W 3844  26.394  26.497   2.403
32262W        W 3845  40.814  31.673  13.841
32263W        W 3846  22.565   6.205   3.169
32264W        W 3847  40.731   8.452   3.304
32265W        W 3848  30.453  44.426   3.190
32266W        W 3849  36.136   8.188   3.703
32267W        W 3850  37.446   4.868  11.580
32268W        W 3851  23.066  34.097   2.245
32269W        W 3852  37.891  40.619   0.766
32270W        W 3853  36.420  21.561  10.448
32271W        W 3854  25.407  10.159   2.360
32272W        W 3855  15.417  36.402   0.924
32273W        W 3856   4.275  40.492  14.318
32274W        W 3857   9.998  19.121  13.067
32275W        W 3858  31.520  41.901  10.683
32276W        W 3859  22.149   1.816   2.655
32277W        W 3860  44.876  16.115  14.367
32278W        W 3861  16.004  11.207   1.370
32279W        W 3862  28.560  26.704  13.551
32280W        W 3863  17.152  10.835   0.522
32281W        W 3864  22.480  34.905   1.640
32282W        W 3865  15.851  19.936   4.572
32283W        W 3866  21.222  11.256   3.563
32284W        W 3867  26.662  18.059   2.549
32285W        W 3868  38.918  37.135   3.536
32286W        W 3869  10.903   5.304   3.655
32287W        W 3870  14.448  16.100   3.953
32288W        W 3871  28.424  23.976   4.645
32289W        W 3872   4.926  31.395  12.027
32290W        W 3873  25.786  25.580  11.324
32291W        W 3874  22.786   8.381  13.546
32292W        W 3875  11.868  23.037  10.576
32293W        W 3876   4.175  16.069  10.997
32294W        W 3877  37.567   2.179  12.108
32295W        W 3878   8.380  22.943  12.430
32296W        W 3879   3.752   3.222   1.899
32297W        W 3880  26.641   7.638   2.215
32298W        W 3881  15.171  19.164  13.841
32299W        W 3882  35.287  14.117   4.234
32300W        W 3883   1.869  35.854  14.398
32301W        W 3884  28.206  39.093  12.411
32302W        W 3885   9.705  10.762   0.042
32303W        W 3886  36.618   5.369  10.600
32304W        W 3887  42.379  23.769   0.845
32305W        W 3888   8.249  38.273   3.377
32306W        W 3889  23.127   9.294   2.690
32307W        W 3890  34.868   9.093  14.309
32308W        W 3891  15.554   9.968   0.983
32309W        W 3892  38.900   7.898   2.596
32310W        W 3893  26.691  30.061   3.605
32311W        W 3894  22.256  34.557   4.830
32312W        W 3895  14.107  19.821   4.020
32313W        W 3896  28.226  26.966   1.410
32314W        W 3897  36.136  34.308  12.478
32315W        W 3898  23.215  28.782  13.957
32316W        W 3899  24.208  11.327  13.055
32317W        W 3900  36.069  35.933   2.834
32318W        W 3901  15.823  16.780   0.967
32319W        W 3902  29.454  12.452  10.709
32320W        W 3903  23.157  17.341  10.577
32321W        W 3904  28.763  44.465  11.580
32322W        W 3905  11.841  30.923   0.782
32323W        W 3906  44.988  12.336  11.026
32324W        W 3907  17.405   9.872  14.817
32325W        W 3908  18.967  43.358  11.001
32326W        W 3909   7.928   9.676   0.503
32327W        W 3910  39.053  42.940  12.372
32328W        W 3911  32.808  14.648  14.914
32329W        W 3912  18.877  29.034   2.432
32330W        W 3913  34.623  32.112   0.053
32331W        W 3914   5.758  12.093  13.373
32332W        W 3915   0.774  23.427   2.289
32333W        W 3916  22.944  19.310   1.078
32334W        W 3917  25.195   2.579  12.890
32335W        W 3918   3.419  25.775   3.096
32336W        W 3919  41.419  17.266   3.404
32337W        W 3920  14.444  37.898   5.531
32338W        W 3921  13.276  19.265  11.498
32339W        W 3922  13.043  28.409   2.605
32340W        W 3923  33.062  40.809  12.463
32341W        W 3924  32.908   2.031  11.561
32342W        W 3925  38.594  27.943   1.457
32343W        W 3926  31.463  44.840  14.713
32344W        W 3927  43.319  29.309  13.025
32345W        W 3928   3.731  31.622   2.634
32346W        W 3929  27.390  15.747   0.184
32347W        W 3930  22.733   8.039  12.368
32348W        W 3931  11.852  44.341  10.871
32349W        W 3932  32.176   5.902  11.792
32350W        W 3933  26.714  22.056  14.849
32351W        W 3934   2.924  29.080  10.572
32352W        W 3935   6.585  39.559  12.537
32353W        W 3936  29.017  33.527   4.626
32354W        W 3937   0.274  28.957   4.493
32355W        W 3938  26.997   5.753  12.837
32356W        W 3939  10.868  23.654   0.050
32357W        W 3940   1.671  38.825   3.556
32358W        W 3941  36.089  39.935  13.493
32359W        W 3942  35.314  33.914  14.438
32360W        W 3943  23.770  39.278  14.270
32361W        W 3944   5.799   1.450   1.433
32362W        W 3945  10.285  36.074   2.286
32363W        W 3946  37.574  14.657  14.901
32364W        W 3947  40.843  23.986  14.579
32365W        W 3948   9.335  10.327   0.553
32366W        W 3949  21.758  26.995   4.619
32367W        W 3950  30.040  42.992  11.573
32368W        W 3951  24.322  42.539   4.551
32369W        W 3952  16.160  26.580   3.892
32370W        W 3953  38.575  12.377  13.285
32371W        W 3954  35.434   7.137  13.506
32372W        W 3955  15.636  36.885  10.144
32373W        W 3956  22.051   7.716   4.312
32374W        W 3957   7.647  40.119   0.385
32375W        W 3958  14.051  16.280   0.680
32376W        W 3959   1.831  40.815   3.831
32377W        W 3960  37.968  10.676  14.199
32378W        W 3961   2.806  35.634   9.737
32379W        W 3962  29.652  11.632  11.909
32380W        W 3963   3.952   3.442   1.039
32381W        W 3964  36.860  17.098  10.936
32382W        W 3965  39.892  12.133   2.214
32383W        W 3966  10.845   5.194   0.671
32384W        W 3967  29.356  24.551   2.711
32385W        W 3968  44.622  18.926  10.125
32386W        W 3969  32.349  23.626  13.882
32387W        W 3970  22.104  32.443  10.573
32388W        W 3971   8.035  31.783   0.771
32389W        W 3972  10.389  23.592  14.807
32390W        W 3973  33.039  30.763   3.175
32391W        W 3974  43.971  13.610  12.878
32392W        W 3975  41.485  13.985  10.720
32393W        W 3976  29.514  12.651   1.269
32394W        W 3977  24.082  33.103  11.716
32395W        W 3978  43.187   9.638   3.543
32396W        W 3979  39.437  25.718  12.975
32397W        W 3980   7.492   4.479  14.990
32398W        W 3981  14.305  26.708   2.708
32399W        W 3982  27.584   0.651   0.658
32400W        W 3983   6.495  17.794   2.542
32401W        W 3984  15.126  35.514   1.177
32402W        W 3985   4.333  42.850  12.093
32403W        W 3986  20.003   1.264  11.554
32404W        W 3987  12.333  37.033   3.131
32405W        W 3988  13.115  31.792  14.492
32406W        W 3989   6.162  44.492  11.121
32407W        W 3990  15.713  13.099   4.697
32408W        W 3991  20.240  43.468   1.352
32409W        W 3992  35.897   7.090   4.829
32410W        W 3993  37.270  30.930  11.065
32411W        W 3994  23.616   0.030  11.575
32412W        W 3995  28.234  34.528  11.360
32413W        W 3996  40.821  44.073  11.241
32414W        W 3997  35.548   0.664   0.204
32415W        W 3998   0.935  21.803  11.121
32416W        W 3999  20.878  30.511   4.546
32417W        W 4000  41.001   3.211  12.303
32418W        W 4001   4.656  30.921   2.749
32419W        W 4002  23.958  32.150  12.646
32420W        W 4003  35.816  27.606   2.260
32421W        W 4004   7.257  32.895  14.025
32422W        W 4005  32.495  38.616   1.783
32423W        W 4006  39.430  42.487  12.923
32424W        W 4007  16.076  26.276   5.287
32425W        W 4008   3.859  29.646   4.620
32426W        W 4009  20.628  18.656  12.959
32427W        W 4010   0.714   0.330  13.466
32428W        W 4011  15.616  21.339   5.091
32429W        W 4012  39.496  23.026   2.613
32430W        W 4013   8.566  11.512  10.481
32431W        W 4014   9.227  25.760   0.022
32432W        W 4015  33.827  28.585  13.470
32433W        W 4016  30.562  24.604  10.973
32434W        W 4017  14.565  36.132   1.289
32435W        W 4018  44.991  24.179  12.516
32436W        W 4019  42.958   2.113   1.913
32437W        W 4020  20.330  15.552   2.964
32438W        W 4021  43.463  29.371  11.192
32439W        W 4022  17.388   0.925  11.117
32440W        W 4023   9.569  42.850   5.039
32441W        W 4024  39.465   6.791  10.806
32442W        W 4025  11.280  38.553  10.858
32443W        W 4026  29.458  19.655   1.307
32444W        W 4027  18.664  30.454  13.486
32445W        W 4028  15.232  38.673   1.953
32446W        W 4029   9.921  31.328  11.644
32447W        W 4030  36.628   9.369   2.461
32448W        W 4031   9.232  15.845  12.505
32449W        W 4032  16.297  36.148  10.489
32450W        W 4033  43.216  38.502  11.287
32451W        W 4034  15.022  22.186   0.540
32452W        W 4035   1.586  38.870   9.732
32453W        W 4036  24.624  36.125  12.031
32454W        W 4037   2.746  15.876  14.713
32455W        W 4038  11.639  17.354  11.117
32456W        W 4039  28.983  18.668   0.798
32457W        W 4040  30.655  10.831   1.341
32458W        W 4041  13.216  43.529   2.028
32459W        W 4042  42.941   5.299   2.459
32460W        W 4043  40.373   5.814   0.726
32461W        W 4044  34.553   7.533   1.632
32462W        W 4045  10.759  28.041   0.731
32463W        W 4046  18.567  39.035  14.000
32464W        W 4047  14.269  36.083  10.260
32465W        W 4048  44.923  23.754   2.017
32466W        W 4049  40.757   2.235   2.113
32467W        W 4050  36.050  21.630   3.688
32468W        W 4051  21.132  40.263   5.084
32469W        W 4052  30.046  26.146   0.354
32470W        W 4053   8.154  22.960   1.327
32471W        W 4054  42.533  34.547  13.061
32472W        W 4055  13.599  14.821  10.642
32473W        W 4056  31.826  30.249  13.867
32474W        W 4057  27.884  26.949   4.121
32475W        W 4058  32.062  24.716  14.515
32476W        W 4059  35.045  17.103   1.316
32477W        W 4060  11.320  40.228   3.338
32478W        W 4061   0.807  13.854  12.116
32479W        W 4062  12.248  26.226  11.581
32480W        W 4063   5.344   5.016   1.812
32481W        W 4064  42.088  21.766   1.737
32482W        W 4065  41.197  41.912  11.258
32483W        W 4066  39.304  36.914  13.418
32484W        W 4067  39.013  28.773   3.968
32485W        W 4068  24.656  30.378  13.565
32486W        W 4069   5.818  11.976   1.283
32487W        W 4070  34.095  12.799  11.593
32488W        W 4071  33.709  16.858   3.419
32489W        W 4072  44.516  34.730  11.219
32490W        W 4073   5.719   3.472  14.135
32491W        W 4074  25.678   6.238   0.406
32492W        W 4075  44.301  32.859   4.708
32493W        W 4076  22.277  34.290  11.528
32494W        W 4077  15.811  11.322  12.885
32495W        W 4078  30.452  32.385   2.455
32496W        W 4079  29.966  11.916  13.052
32497W        W 4080  18.609  14.001   1.048
32498W        W 4081  21.511  11.113  13.112
32499W        W 4082  40.185  17.256  12.041
32500W        W 4083   6.752  32.377   1.281
32501W        W 4084  36.382  34.808  14.283
32502W        W 4085  35.120   0.848   2.914
32503W        W 4086  33.420  16.633  13.092
32504W        W 4087  11.770  41.844   3.683
32505W        W 4088  16.803  44.479  10.419
32506W        W 4089   7.684   1.393   0.400
32507W        W 4090  28.438  18.651   0.877
32508W        W 4091  20.745  16.757  14.300
32509W        W 4092   2.868  21.193   0.624
32510W        W 4093   8.718   9.480  10.632
32511W        W 4094  36.879  43.045  13.443
32512W        W 4095  13.604  33.549  12.393
32513W        W 4096  44.393  39.815   0.456
32514W        W 4097  33.543  14.436  13.877
32515W        W 4098  19.680  33.195  13.422
32516W        W 4099   2.571  26.546   0.058
32517W        W 4100  40.825   5.210   2.854
32518W        W 4101  40.783  36.329  12.556
32519W        W 4102  19.598  25.995   2.660
32520W        W 4103   9.320  17.609  10.846
32521W        W 4104  41.033  22.127   1.323
32522W        W 4105  10.528  38.564   0.558
32523W        W 4106  34.529  43.216  10.506
32524W        W 4107  31.553  22.528   0.912
32525W        W 4108  41.698   5.924   0.745
32526W        W 4109  42.501  37.879   4.890
32527W        W 4110  30.344   0.361  13.577
32528W        W 4111  28.978   8.336  13.523
32529W        W 4112  43.907  14.615  11.870
32530W        W 4113  20.528  25.415   2.718
32531W        W 4114  30.231  20.116  10.283
32532W        W 4115   4.510  43.004   2.254
32533W        W 4116  11.313  23.419   2.752
32534W        W 4117   7.610  39.572  11.586
32535W        W 4118  16.568  10.921   1.743
32536W        W 4119   6.485  41.893   1.418
32537W        W 4120   8.770  33.038   1.009
32538W        W 4121   2.728  11.461   0.298
32539W        W 4122  20.236  31.457   5.307
32540W        W 4123  44.367   9.355   1.355
32541W        W 4124   5.123  36.680  12.010
32542W        W 4125  40.822   5.259   0.029
32543W        W 4126  27.960  23.305  11.558
32544W        W 4127  41.089   7.415   5.496
32545W        W 4128   3.597  34.604   3.241
32546W        W 4129  22.807  35.339  11.959
32547W        W 4130  20.130  44.216   3.292
32548W        W 4131  40.534  22.947  10.412
32549W        W 4132  23.628  15.190   3.341
32550W        W 4133  29.193  10.875   0.323
32551W        W 4134  14.785  14.729  11.157
32552W        W 4135  30.768  39.223  13.081
32553W        W 4136  38.257  32.409   3.111
32554W        W 4137  42.939  42.001  14.469
32555W        W 4138   9.864   2.681  12.951
32556W        W 4139  26.142  27.587   3.698
32557W        W 4140  29.415   7.121  13.001
32558W        W 4141   7.496  11.114  14.438
32559W        W 4142  36.488   0.301   2.946
32560W        W 4143  35.093  41.360  12.140
32561W        W 4144  33.679   0.923   0.708
32562W        W 4145  43.423  21.744   1.136
32563W        W 4146  25.919  33.181  13.898
32564W        W 4147  27.986   9.313  12.058
32565W        W 4148  36.803  16.382   2.729
32566W        W 4149  14.218  39.936  11.530
32567W        W 4150  42.518  38.527  10.396
32568W        W 4151  38.382  35.023  14.414
32569W        W 4152  38.897  20.731  12.000
32570W        W 4153  44.328   5.828   2.838
32571W        W 4154   4.283   7.431   2.664
32572W        W 4155   6.630   6.723  14.620
32573W        W 4156  40.336  38.500   3.336
32574W        W 4157  42.483  39.106  12.145
32575W        W 4158  42.517   7.701   2.184
32576W        W 4159  16.633  39.572   4.429
32577W        W 4160  35.567  43.812   4.783
32578W        W 4161  20.547  14.697   1.341
32579W        W 4162  39.564  41.354   1.638
32580W        W 4163  24.429  23.240  11.970
32581W        W 4164  10.774  42.745  14.004
32582W        W 4165  15.263  34.333   5.304
32583W        W 4166   9.458   0.517   3.404
32584W        W 4167   7.701  28.650   2.157
32585W        W 4168  16.200  32.302   1.208
32586W        W 4169  40.982  25.727   4.689
32587W        W 4170  17.836  33.338   1.773
32588W        W 4171  25.533  19.120   1.451
32589W        W 4172   4.843  23.149   2.678
32590W        W 4173  22.444  40.489  10.541
32591W        W 4174  35.161  41.950  14.457
32592W        W 4175  40.455  34.499   4.069
32593W        W 4176  16.798  41.338   1.897
32594W        W 4177  17.321  44.794  10.659
32595W        W 4178   5.423   8.388  13.334
32596W        W 4179   0.996  35.548  12.400
32597W        W 4180  15.303  14.288  14.830
32598W        W 4181  22.769  16.209  11.182
32599W        W 4182  10.795   8.427  13.895
32600W        W 4183  33.487   1.234  14.207
32601W        W 4184  33.492  37.419   9.918
32602W        W 4185   3.941  28.684   1.000
32603W        W 4186  27.147   7.669   2.349
32604W        W 4187   1.139  26.539   3.410
32605W        W 4188  10.141  21.504   1.941
32606W        W 4189  40.089  15.749  12.069
32607W        W 4190   7.663  38.910  11.723
32608W        W 4191  17.244   7.984   1.741
32609W        W 4192  11.208   7.138  11.105
32610W        W 4193  41.601  18.819   0.550
32611W        W 4194   0.755  11.810   2.257
32612W        W 4195  33.314  11.874   4.144
32613W        W 4196   5.792   2.651  11.479
32614W        W 4197  21.696  21.682   1.407
32615W        W 4198  41.911  18.049  11.565
32616W        W 4199  28.428  13.664   0.414
32617W        W 4200  21.015   0.980   3.596
32618W        W 4201   6.071   2.335   5.009
32619W        W 4202  38.643  11.372  10.175
32620W        W 4203  11.086  17.488  12.994
32621W        W 4204  26.405   7.212  13.526
32622W        W 4205  32.036  19.728  12.991
32623W        W 4206   6.296  42.058   0.373
32624W        W 4207  36.523  14.876  11.126
32625W        W 4208  36.017   7.254   0.901
32626W        W 4209   8.277  33.274  13.107
32627W        W 4210  44.947  28.488  12.926
32628W        W 4211   0.666  18.065   2.269
32629W        W 4212  38.415  17.034   3.271
32630W        W 4213  39.639  17.625  10.642
32631W        W 4214  16.752  15.714  13.935
32632W        W 4215  11.754  18.555  11.530
32633W        W 4216  14.227  28.504   3.800
32634W        W 4217  36.945  32.317  11.219
32635W        W 4218   1.129  43.481   0.296
32636W        W 4219   3.353  13.338   1.231
32637W        W 4220  12.361  30.565  11.118
32638W        W 4221  27.458  10.111  11.805
32639W        W 4222  11.508   8.252   0.192
32640W        W 4223   3.179  23.181   0.767
32641W        W 4224  21.960  13.227   1.422
32642W        W 4225  31.453  35.717   2.133
32643W        W 4226  30.984  31.066   1.899
32644W        W 4227   5.784  19.018  14.056
32645W        W 4228  40.083  44.511   0.227
32646W        W 4229  24.301  43.301  11.994
32647W        W 4230  37.981  20.843   4.376
32648W        W 4231  40.345  13.269  14.695
32649W        W 4232  10.808  22.979   1.263
32650W        W 4233   5.270  20.123  14.499
32651W        W 4234  32.475  32.993   4.121
32652W        W 4235  17.419  22.185  12.940
32653W        W 4236  17.532  43.549  11.510
32654W        W 4237  39.407  40.594  10.642
32655W        W 4238  28.573   9.771   0.282
32656W        W 4239  37.286  38.097   2.640
32657W        W 4240  27.769   6.182  14.542
32658W        W 4241  16.611  31.959   3.420
32659W        W 4242  28.353  15.768   0.050
32660W        W 4243   8.199   5.891   3.629
32661W        W 4244  38.359  29.234   1.866
32662W        W 4245  34.468   8.371   4.244
32663W        W 4246  26.171  12.776  10.548
32664W        W 4247  27.730  36.860  14.861
32665W        W 4248  34.989  31.353  13.445
32666W        W 4249   3.846  43.498  12.936
32667W        W 4250  21.202  43.356   0.098
32668W        W 4251   1.938   6.297  12.447
32669W        W 4252  43.634  23.602   3.940
32670W        W 4253  11.816   8.014   1.369
32671W        W 4254  24.756  38.520  13.507
32672W        W 4255  28.440  15.293  12.781
32673W        W 4256   9.796   6.722  13.097
32674W        W 4257  21.531   9.735  12.543
32675W        W 4258  31.576   2.728   2.280
32676W        W 4259  22.214  14.122  12.187
32677W        W 4260  41.045  16.702  11.546
32678W        W 4261  18.851   2.527   0.275
32679W        W 4262  24.722   0.698  13.589
32680W        W 4263  38.370  39.045   1.464
32681W        W 4264  43.309  24.123  13.864
32682W        W 4265  11.924  29.618   1.317
32683W        W 4266  29.547   4.894   4.584
32684W        W 4267  43.681  42.119   2.797
32685W        W 4268   5.265  19.892   1.820
32686W        W 4269  36.879  15.195   0.086
32687W        W 4270  40.401  41.388   0.159
32688W        W 4271   9.915  23.229   2.371
32689W        W 4272  13.121   2.793  14.221
32690W        W 4273  16.501   8.932   3.950
32691W        W 4274  24.131  38.788   2.266
32692W        W 4275  31.631  27.591   4.728
32693W        W 4276  31.217   8.106  13.393
32694W        W 4277   9.804  15.151  14.071
32695W        W 4278  30.265  40.102   1.151
32696W        W 4279  17.648  16.694  12.610
32697W        W 4280  40.507  18.069   2.739
32698W        W 4281  25.665  11.367  14.581
32699W        W 4282   9.420  42.063  11.184
32700W        W 4283  30.255  10.673  11.153
32701W        W 4284  40.886  28.940  14.412
32702W        W 4285  17.704  13.831   1.447
32703W        W 4286  43.928   8.147  12.115
32704W        W 4287  25.619  19.775   3.999
32705W        W 4288  23.013  16.632  10.973
32706W        W 4289  25.956  35.580   1.443
32707W        W 4290  32.846   1.314   4.291
32708W        W 4291   1.887  28.942   1.961
32709W        W 4292  20.293  25.384   4.579
32710W        W 4293  38.741  23.298  13.844
32711W        W 4294  25.645  31.555  11.351
32712W        W 4295  15.245  27.955   4.680
32713W        W 4296  36.679  18.723  14.536
32714W        W 4297  44.881   6.230  11.499
32715W        W 4298  25.104   6.481  13.146
32716W        W 4299  22.923  43.223   1.219
32717W        W 4300   3.899  43.205  13.964
32718W        W 4301  11.258   0.395  11.910
32719W        W 4302   5.377  19.510   3.479
32720W        W 4303   5.453  36.835   2.911
32721W        W 4304  32.051  40.371   0.788
32722W        W 4305  32.280  17.369  12.913
32723W        W 4306  11.868  31.425  14.461
32724W        W 4307  22.284   3.460  11.326
32725W        W 4308  14.292  32.487   2.738
32726W        W 4309  32.169   4.231  13.357
32727W        W 4310  42.344  36.424  11.577
32728W        W 4311  23.355  23.910   2.833
32729W        W 4312   2.840  25.347  11.959
32730W        W 4313  13.642  21.282  14.365
32731W        W 4314  12.813  42.608   4.470
32732W        W 4315  38.570   1.795  13.881
32733W        W 4316  44.036  43.044   2.891
32734W        W 4317   3.050  13.425  14.843
32735W        W 4318   5.690   9.251  11.153
32736W        W 4319  19.213   8.424   3.566
32737W        W 4320  37.929   6.710   5.055
32738W        W 4321  39.003  15.768  10.720
32739W        W 4322   6.621  36.575   0.747
32740W        W 4323  18.521   9.789  12.054
32741W        W 4324   1.859  42.474   4.134
32742W        W 4325  41.357   6.483   4.647
32743W        W 4326  33.201   0.396   4.647
32744W        W 4327   1.969   4.371   3.351
32745W        W 4328  38.855  32.939  11.749
32746W        W 4329  10.868  24.957   4.572
32747W        W 4330  34.131  37.097  13.751
32748W        W 4331  14.727   9.427   0.350
32749W        W 4332   2.588  21.538  13.360
32750W        W 4333  40.021  44.213   1.209
32751W        W 4334   7.808  13.168  13.788
32752W        W 4335  15.496  23.769  12.480
32753W        W 4336   4.802  42.580   2.134
32754W        W 4337  43.312  38.298  13.484
32755W        W 4338   7.844   6.272   0.955
32756W        W 4339   2.387  36.414   0.676
32757W        W 4340  24.086  40.680  14.880
32758W        W 4341  33.460  27.646  10.304
32759W        W 4342  42.574   8.494   3.658
32760W        W 4343  39.026  20.483   2.374
32761W        W 4344  38.997  43.454  12.470
32762W        W 4345  10.934  19.588   4.594
32763W        W 4346  19.817  16.685  13.314
32764W        W 4347  11.140  44.952   2.236
32765W        W 4348  38.445  39.589  13.919
32766W        W 4349  33.145  34.647  10.623
32767W        W 4350  33.564  12.588   4.631
32768W        W 4351   4.421  23.115   2.024
32769W        W 4352  19.603   5.208  13.651
32770W        W 4353  24.676   6.947  11.094
32771W        W 4354  34.596  10.813   2.321
32772W        W 4355  12.307  40.116  12.557
32773W        W 4356   4.255  36.565  14.145
32774W        W 4357   9.332   0.263   4.367
32775W        W 4358   5.547  39.806  10.460
32776W        W 4359   8.307  40.577  11.047
32777W        W 4360   1.350  40.882   2.090
32778W        W 4361  41.454  41.999  11.707
32779W        W 4362  15.275  42.978   3.862
32780W        W 4363  37.160  11.319   1.625
32781W        W 4364  26.382  33.489  13.256
32782W        W 4365  21.047  26.010   2.938
32783W        W 4366  10.210  12.254   4.285
32784W        W 4367  15.766  25.027  14.153
32785W        W 4368  44.696  35.696  11.274
32786W        W 4369  38.863  43.473   4.512
32787W        W 4370   8.093  33.591   0.871
32788W        W 4371  24.282  14.284   0.382
32789W        W 4372  40.330  10.205   3.867
32790W        W 4373  43.024  30.666   0.847
32791W        W 4374  20.138  14.384  13.435
32792W        W 4375   8.356  37.933   2.503
32793W        W 4376  32.096  41.234   4.729
32794W        W 4377   4.563  17.526   3.469
32795W        W 4378  24.492  22.313   3.663
32796W        W 4379  26.429   6.868   3.319
32797W        W 4380  23.541  25.059  14.747
32798W        W 4381  27.232  25.620   3.985
32799W        W 4382  37.993  21.043  11.407
32800W        W 4383  22.452  43.781   3.674
32801W        W 4384  11.818  38.830   4.114
32802W        W 4385   3.917  21.722   1.374
32803W        W 4386   0.836  10.334  12.215
32804W        W 4387  33.111   1.712   0.339
32805W        W 4388  25.511  27.006   2.264
32806W        W 4389  30.081  32.481  11.055
32807W        W 4390  34.132  17.304   4.586
32808W        W 4391  41.320  32.871  14.319
32809W        W 4392   4.140  28.963   4.148
32810W        W 4393  29.721  42.768   0.888
32811W        W 4394  33.530  38.086   0.961
32812W        W 4395  29.178  37.872  10.733
32813W        W 4396  26.443  30.528   0.557
32814W        W 4397  44.912  37.585  14.902
32815W        W 4398  29.561  24.152  12.229
32816W        W 4399  37.682  21.755   1.963
32817W        W 4400  30.042  34.954   4.277
32818W        W 4401  25.775  43.887  11.700
32819W        W 4402  36.702   4.841   4.719
32820W        W 4403  41.310  36.010   1.655
32821W        W 4404  33.065  39.066  12.973
32822W        W 4405  43.366   8.317   4.609
32823W        W 4406  41.031  19.024  13.079
32824W        W 4407  13.253   5.363   4.432
32825W        W 4408   2.790   5.484  10.521
32826W        W 4409  43.970   2.993   1.310
32827W        W 4410  10.945  24.733   0.764
32828W        W 4411  43.352  17.259  11.146
32829W        W 4412  26.370   7.579   2.745
32830W        W 4413   4.399  27.066   1.982
32831W        W 4414  18.770  38.919   0.414
32832W        W 4415  12.080  29.074  12.536
32833W        W 4416  39.085  41.822  14.366
32834W        W 4417  25.123  18.160  14.761
32835W        W 4418  27.142   3.915   3.152
32836W        W 4419  25.558  16.664  14.205
32837W        W 4420  38.468  10.680  10.676
32838W        W 4421  40.128   7.762   4.138
32839W        W 4422   6.012  26.444  10.747
32840W        W 4423  32.378  39.467   3.799
32841W        W 4424  14.239  20.858  10.465
32842W        W 4425  19.851  38.846  12.640
32843W        W 4426  15.587  36.645   4.673
32844W        W 4427  25.151  37.472   4.864
32845W        W 4428   5.785  17.827  10.485
32846W        W 4429  13.411  24.874   4.225
32847W        W 4430  11.332  14.544  13.533
32848W        W 4431  37.051  11.882   3.751
32849W        W 4432  16.793  30.639  12.313
32850W        W 4433  32.398  41.448   1.655
32851W        W 4434  32.923  16.506  12.434
32852W        W 4435  40.040  21.501  12.630
32853W        W 4436  12.106  38.086  12.925
32854W        W 4437  25.976  14.033  13.282
32855W        W 4438  35.946  43.058  13.512
32856W        W 4439  28.959  29.401   4.582
32857W        W 4440  38.813  21.679   2.588
32858W        W 4441  11.027  35.901  13.894
32859W        W 4442  23.986  10.481  14.847
32860W        W 4443  43.880  38.890  12.878
32861W        W 4444   5.753  29.148   0.923
32862W        W 4445  39.859  15.812   5.066
32863W        W 4446  24.304  42.276  12.111
32864W        W 4447  22.430   0.320  13.056
32865W        W 4448  17.134  31.005  12.143
32866W        W 4449  19.768  32.057   2.099
32867W        W 4450   2.902  38.348  11.133
32868W        W 4451  29.056  21.559   4.509
32869W        W 4452  11.373   4.950  14.451
32870W        W 4453   5.539  32.583  13.496
32871W        W 4454  15.650  14.973   2.817
32872W        W 4455  20.295  36.873   4.339
32873W        W 4456  29.018  35.099  14.914
32874W        W 4457  34.144  38.535   4.015
32875W        W 4458   8.324  25.434   4.164
32876W        W 4459  24.402  19.775   3.393
32877W        W 4460  29.705   4.570  13.569
32878W        W 4461  27.733   1.898  12.899
32879W        W 4462  27.352  14.283   1.410
32880W        W 4463  39.475   8.326  13.920
32881W        W 4464  23.481  35.355  10.950
32882W        W 4465  18.028  44.058  12.215
32883W        W 4466  24.624  23.222  14.399
32884W        W 4467  28.199  18.782  11.148
32885W        W 4468  11.133  27.989   1.890
32886W        W 4469  12.197  32.371  10.855
32887W        W 4470  32.229  44.513   2.676
32888W        W 4471  23.229  33.975  12.493
32889W        W 4472  23.754  21.573   1.305
32890W        W 4473  44.384  21.797  13.372
32891W        W 4474  43.257   1.009   0.890
32892W        W 4475   6.031  43.900   3.091
32893W        W 4476  34.351  21.983   3.603
32894W        W 4477  28.204  35.036   2.136
32895W        W 4478  23.341  35.098   4.150
32896W        W 4479   5.335  41.584  12.365
32897W        W 4480  10.158  10.894  12.467
32898W        W 4481  15.186   6.195  13.101
32899W        W 4482  13.222   4.637   2.300
32900W        W 4483  22.775  43.370   3.730
32901W        W 4484  10.613  40.503   3.544
32902W        W 4485  15.749  14.163   0.654
32903W        W 4486  41.260  26.162   4.318
32904W        W 4487  39.157  34.950   1.857
32905W        W 4488   2.902  10.616  12.889
32906W        W 4489  21.686   7.291  11.366
32907W        W 4490   8.842  44.947   3.724
32908W        W 4491  38.186   3.267   4.537
32909W        W 4492  25.505  20.625   0.765
32910W        W 4493  22.023  15.626  10.603
32911W        W 4494  15.658  24.233   0.819
32912W        W 4495  19.026  43.308  12.211
32913W        W 4496  27.229  40.529   3.175
32914W        W 4497  39.463  24.146   0.876
32915W        W 4498  16.010  28.791   4.146
32916W        W 4499  28.488  43.303   3.248
32917W        W 4500  34.857  13.349   1.343
32918W        W 4501  35.436  44.737  13.225
32919W        W 4502  20.013  22.200   3.186
32920W        W 4503  19.863  40.619   0.704
32921W        W 4504  34.570  39.889  13.387
32922W        W 4505  24.977  11.640   0.123
32923W        W 4506  15.538   3.401  14.006
32924W        W 4507   0.994   0.068   0.897
32925W        W 4508  16.291  31.373   1.383
32926W        W 4509  21.058  27.687   4.283
32927W        W 4510  27.914   7.233   1.820
32928W        W 4511  40.413  18.481   4.185
32929W        W 4512  15.760  28.189  14.452
32930W        W 4513  19.192  37.951   1.586
32931W        W 4514  30.488  14.623  12.959
32932W        W 4515   1.764  31.969   4.695
32933W        W 4516  15.635  44.967  10.685
32934W        W 4517  26.116   8.439   5.047
32935W        W 4518   0.063  21.298   2.176
32936W        W 4519  16.213   8.657   3.188
32937W        W 4520  13.623  27.174  14.168
32938W        W 4521   3.867  26.104   4.570
32939W        W 4522  32.078   2.785  12.871
32940W        W 4523  37.156  10.641  14.815
32941W        W 4524   1.485  18.559   5.009
32942W        W 4525  12.924  35.019   4.702
32943W        W 4526  37.035   2.238  11.646
32944W        W 4527  15.141  15.644   4.774
32945W        W 4528  31.919  29.735  12.586
32946W        W 4529  12.614  24.729   1.692
32947W        W 4530  33.364  22.740  13.540
32948W        W 4531  22.949   3.840   0.073
32949W        W 4532  34.772  29.909  14.220
32950W        W 4533  33.819   5.837  10.677
32951W        W 4534  22.442  19.132  10.238
32952W        W 4535  28.382  33.407  10.824
32953W        W 4536  38.314  15.632   4.227
32954W        W 4537  21.164   1.470  13.529
32955W        W 4538  35.867   3.303  14.295
32956W        W 4539  16.831  35.167  13.579
32957W        W 4540  15.449   7.968  14.345
32958W        W 4541  42.319   8.178   1.239
32959W        W 4542   4.619  25.705  10.659
32960W        W 4543   3.313   3.466   4.383
32961W        W 4544  13.607   4.565   2.775
32962W        W 4545   1.225  12.206   3.019
32963W        W 4546  35.103  39.909   4.872
32964W        W 4547  27.514  31.537   0.128
32965W        W 4548   1.467   4.142  10.782
32966W        W 4549  36.525  29.106   0.229
32967W        W 4550  44.529  21.024  12.586
32968W        W 4551  29.892  27.678   2.652
32969W        W 4552  35.280  24.449   3.219
32970W        W 4553  27.917   5.635  10.075
32971W        W 4554  20.529  10.899   0.643
32972W        W 4555  32.985  32.040   0.921
32973W        W 4556  44.336  31.549   2.616
32974W        W 4557  43.743   2.382  12.583
32975W        W 4558  11.474  25.485   3.150
32976W        W 4559   2.352  23.151   3.982
32977W        W 4560   5.102  24.118   1.739
32978W        W 4561  29.391   8.063   3.840
32979W        W 4562   6.682  43.031   2.444
32980W        W 4563  27.221   1.388   1.756
32981W        W 4564  28.536  26.152  10.414
32982W        W 4565  25.304   1.805  14.881
32983W        W 4566  18.994   2.133   1.350
32984W        W 4567  14.168  21.304   1.429
32985W        W 4568  37.904  43.985   1.736
32986W        W 4569  11.794   4.453   3.280
32987W        W 4570  30.631  19.162  14.322
32988W        W 4571  35.344  36.488  12.886
32989W        W 4572  13.815  24.945  10.759
32990W        W 4573  12.227   6.699   2.542
32991W        W 4574   2.008   5.647   1.624
32992W        W 4575  26.058   7.434   1.198
32993W        W 4576  23.678  36.586   2.221
32994W        W 4577  23.249  34.050  10.474
32995W        W 4578  25.175  12.075  11.065
32996W        W 4579   5.457  29.408   4.032
32997W        W 4580   2.460   2.925  13.053
32998W        W 4581   4.715   4.682   2.472
32999W        W 4582  19.371  20.705  12.258
33000W        W 4583  41.519  27.931  13.948
33001W        W 4584   1.940  42.910  10.628
33002W        W 4585  15.894  42.959   2.226
33003W        W 4586  38.709  35.990   4.168
33004W        W 4587   5.175   2.776  10.771
33005W        W 4588   5.716  41.318  14.389
33006W        W 4589   3.671  10.601   1.380
33007W        W 4590  13.594  17.129   3.349
33008W        W 4591  28.510   1.472   0.729
33009W        W 4592  27.073  22.549   3.043
33010W        W 4593  26.411   1.179  10.999
33011W        W 4594   7.122   2.017  11.084
33012W        W 4595  16.290  25.256  11.487
33013W        W 4596   7.510  20.846   4.657
33014W        W 4597  20.714  44.909  13.536
33015W        W 4598  31.443  12.752  14.252
33016W        W 4599  18.267  17.088   3.739
33017W        W 4600  29.506  40.216  14.131
33018W        W 4601  10.853  29.904   3.284
33019W        W 4602  27.942  31.290   5.358
33020W        W 4603  18.787  20.850  14.821
33021W        W 4604   5.093  22.710   1.784
33022W        W 4605  24.715  25.550  12.186
33023W        W 4606  13.188  16.221   0.824
33024W        W 4607  23.577  24.279   0.756
33025W        W 4608  34.725  11.500  14.470
33026W        W 4609  15.052  19.164   3.682
33027W        W 4610   1.359  25.791   0.793
33028W        W 4611  21.102  39.421   1.367
33029W        W 4612  13.552  30.574   1.265
33030W        W 4613   0.241  30.403  11.145
33031W        W 4614   9.836   6.843  11.737
33032W        W 4615  32.354  33.622   0.089
33033W        W 4616   3.144   9.277  14.831
33034W        W 4617  38.098  42.291   2.833
33035W        W 4618  36.749   7.470  11.884
33036W        W 4619  22.547  39.652  12.010
33037W        W 4620  34.356  19.693   3.214
33038W        W 4621  35.388  14.955   0.899
33039W        W 4622  25.083   7.892  11.605
33040W        W 4623  31.456   5.586   1.493
33041W        W 4624  44.763  18.982  11.437
33042W        W 4625  40.834   1.811  14.790
33043W        W 4626  11.673  37.502   0.212
33044W        W 4627  43.513   5.272   3.877
33045W        W 4628  42.894  33.211  12.963
33046W        W 4629  13.509  11.810   1.816
33047W        W 4630  12.330  18.082   2.780
33048W        W 4631   1.229   6.359  11.042
33049W        W 4632   0.546   7.760   3.243
33050W        W 4633  15.625  34.585   0.322
33051W        W 4634  24.453   2.693  10.769
33052W        W 4635   1.879  10.169   0.022
33053W        W 4636   0.360  26.744   4.605
33054W        W 4637  12.809  30.530  14.540
33055W        W 4638  44.734   6.405   1.092
33056W        W 4639   3.987  34.696  13.741
33057W        W 4640   9.541  42.849   4.527
33058W        W 4641  30.014  21.178  10.219
33059W        W 4642  10.742  14.787  13.034
33060W        W 4643  23.098  29.411   3.610
33061W        W 4644  27.490  41.917  13.391
33062W        W 4645  37.523  29.545  12.455
33063W        W 4646  41.624  43.673  13.252
33064W        W 4647   6.770  29.669   4.288
33065W        W 4648  37.848  38.896  13.751
33066W        W 4649  10.577  23.749  13.353
33067W        W 4650   8.172   2.971   4.824
33068W        W 4651   7.157  20.765   0.237
33069W        W 4652  19.830   8.176   2.290
33070W        W 4653  40.341  42.692  13.212
33071W        W 4654  11.094  21.657   4.188
33072W        W 4655  31.822  31.636   4.186
33073W        W 4656  39.241  22.494  10.330
33074W        W 4657  32.425   3.340  11.960
33075W        W 4658  41.260  10.643  14.795
33076W        W 4659  17.714   3.935   4.421
33077W        W 4660  34.430  44.790   1.516
33078W        W 4661  19.985  17.253   2.292
33079W        W 4662  23.461  34.599  12.950
33080W        W 4663  23.049  22.516   2.766
33081W        W 4664   7.252   8.841  11.501
33082W        W 4665   8.958  40.039  12.901
33083W        W 4666  42.870  12.128  14.907
33084W        W 4667  21.998   8.730   1.826
33085W        W 4668  34.066   3.115   1.635
33086W        W 4669  38.040  22.558  14.696
33087W        W 4670  30.756   4.641  10.025
33088W        W 4671  22.328  25.174  12.621
33089W        W 4672  16.457   7.677  11.966
33090W        W 4673  35.151  23.990  13.501
33091W        W 4674  26.920  31.239  13.977
33092W        W 4675  18.008   4.373   0.487
33093W        W 4676  17.587   1.969   3.297
33094W        W 4677  31.043  24.394  11.107
33095W        W 4678  40.739  20.319   2.760
33096W        W 4679   6.930  29.661   2.834
33097W        W 4680  37.360  13.299   0.244
33098W        W 4681  27.440   5.369   3.325
33099W        W 4682  41.153  14.637  11.684
33100W        W 4683  35.351  43.964  12.632
33101W        W 4684  35.825   3.332   4.173
33102W        W 4685   5.273  14.297  13.917
33103W        W 4686   9.094   3.652   3.651
33104W        W 4687  26.760  26.493  13.356
33105W        W 4688  21.136  24.601   1.406
33106W        W 4689   0.832  31.481  10.895
33107W        W 4690  27.756  42.389   4.632
33108W        W 4691  35.154  25.183  11.380
33109W        W 4692  33.079  17.972  14.422
33110W        W 4693  16.904  35.632  13.341
33111W        W 4694  21.594   4.846  10.507
33112W        W 4695   3.822  15.678   0.304
33113W        W 4696   5.748  28.614  10.703
33114W        W 4697  40.518  34.519   2.557
33115W        W 4698  10.966  40.528   2.647
33116W        W 4699  27.351  21.528  14.891
33117W        W 4700  36.560  35.608   0.457
33118W        W 4701  44.142  42.885  14.602
33119W        W 4702  24.663  39.490  13.215
33120W        W 4703   2.290  26.413   3.698
33121W        W 4704  41.481  23.322  13.784
33122W        W 4705  31.985  36.717   2.693
33123W        W 4706  28.532  37.224  11.382
33124W        W 4707  32.456  26.449   1.604
33125W        W 4708  22.201  44.459  14.458
33126W        W 4709  38.026  25.651   2.035
33127W        W 4710   3.490  34.810  14.495
33128W        W 4711  26.662  34.516   4.431
33129W        W 4712  35.315  34.824  14.308
33130W        W 4713  27.124  38.395   3.271
33131W        W 4714  29.462  42.037   4.454
33132W        W 4715  36.628   6.231  12.943
33133W        W 4716  33.849  30.437  12.011
33134W        W 4717  18.337  44.740   4.566
33135W        W 4718  11.136  23.014  11.275
33136W        W 4719  17.298  31.311   2.181
33137W        W 4720   3.466  31.248  11.098
33138W        W 4721  31.331  12.637  13.041
33139W        W 4722   0.431  30.698  10.772
33140W        W 4723  24.005  14.182  10.653
33141W        W 4724  41.976  35.688  12.444
33142W        W 4725  43.892  32.484   4.780
33143W        W 4726  13.875   1.554   4.553
33144W        W 4727  18.543  22.724   2.623
33145W        W 4728  38.874  20.069  11.297
33146W        W 4729  37.364  35.899  14.001
33147W        W 4730  27.514  39.098  12.999
33148W        W 4731  38.347  10.551   1.845
33149W        W 4732  25.905  35.577   2.326
33150W        W 4733   0.782  31.874   0.362
33151W        W 4734   5.834  37.831  14.754
33152W        W 4735  24.613  29.693   3.643
33153W        W 4736  32.895   7.936  11.106
33154W        W 4737  19.133  41.136  13.526
33155W        W 4738   2.399  19.533   3.713
33156W        W 4739  10.194  35.341   0.482
33157W        W 4740  30.411  20.024   4.543
33158W        W 4741  26.213  33.108   0.172
33159W        W 4742  17.555  37.794  11.477
33160W        W 4743   7.111  41.357   2.436
33161W        W 4744  27.835  15.733  11.100
33162W        W 4745  27.585  33.351  11.436
33163W        W 4746  19.757  41.069   3.563
33164W        W 4747  40.287  39.912  11.542
33165W        W 4748  22.282  28.064  13.980
33166W        W 4749   0.417  12.193  13.807
33167W        W 4750  13.111  41.006   3.166
33168W        W 4751   5.217  27.271   3.242
33169W        W 4752  31.144  43.503   3.838
33170W        W 4753  44.390  32.492   2.888
33171W        W 4754  37.574  40.059  13.086
33172W        W 4755  37.330  30.642  14.474
33173W        W 4756  15.015   6.926  11.018
33174W        W 4757  14.110  25.774  11.066
33175W        W 4758  23.552  32.636  14.396
33176W        W 4759  18.168  12.107   0.776
33177W        W 4760  36.090  37.005   4.129
33178W        W 4761  16.574  31.177   3.687
33179W        W 4762   8.338  43.368   4.428
33180W        W 4763  31.298  35.772   0.549
33181W        W 4764  18.972  17.060   5.023
33182W        W 4765  24.080  18.473   2.908
33183W        W 4766  41.943  31.878  12.074
33184W        W 4767   4.473   8.705  13.355
33185W        W 4768  18.350  30.384  12.484
33186W        W 4769   2.271  40.566  12.060
33187W        W 4770   5.952  38.990  14.352
33188W        W 4771  17.801  41.437   3.064
33189W        W 4772  30.359   0.197   1.883
33190W        W 4773   1.409   7.436   1.927
33191W        W 4774  22.428  13.278  10.481
33192W        W 4775  20.708   4.305  14.651
33193W        W 4776   1.267  31.893   1.693
33194W        W 4777  12.603  33.149   0.315
33195W        W 4778  15.629  23.756   4.176
33196W        W 4779  24.076  21.230  11.062
33197W        W 4780  20.546  38.880   4.162
33198W        W 4781  35.766  38.186   3.372
33199W        W 4782  39.592   8.842   1.837
33200W        W 4783  14.140  34.520  14.054
33201W        W 4784  43.369  39.572  12.823
33202W        W 4785  44.569   8.650   3.281
33203W        W 4786  20.161  21.598   0.907
33204W        W 4787  30.079  17.150  14.351
33205W        W 4788   3.189  41.721   0.583
33206W        W 4789   8.998  39.683  11.183
33207W        W 4790  35.349  29.023  11.504
33208W        W 4791   7.734  20.544   1.224
33209W        W 4792   4.804  38.123   3.976
33210W        W 4793  41.580  20.043  14.800
33211W        W 4794  27.459   4.457   3.831
33212W        W 4795  17.246   2.316   4.527
33213W        W 4796  41.664  35.921   5.130
33214W        W 4797  39.521  32.056   1.301
33215W        W 4798  19.337  18.709   2.766
33216W        W 4799  31.141  19.803  14.740
33217W        W 4800  35.500   3.492   4.588
33218W        W 4801  24.560  12.249   0.153
33219W        W 4802   4.446  34.012   2.627
33220W        W 4803  41.274  40.944   3.746
33221W        W 4804  13.603   6.929  12.871
33222W        W 4805   9.610   1.098   2.758
33223W        W 4806  29.614   4.167   3.268
33224W        W 4807  19.562  16.239   3.803
33225W        W 4808  37.110  34.035  12.669
33226W        W 4809  43.737  36.091   4.108
33227W        W 4810  31.458   5.751   3.008
33228W        W 4811  34.928  20.708  12.938
33229W        W 4812  40.976   5.241   1.369
33230W        W 4813  18.404  21.295   3.787
33231W        W 4814   8.980   7.477  11.200
33232W        W 4815  35.080   2.912  11.990
33233W        W 4816   2.075   1.638  10.519
33234W        W 4817   1.117  14.046  11.321
33235W        W 4818   2.489  42.316   4.352
33236W        W 4819  32.127  20.876  11.647
33237W        W 4820   6.388  19.899   2.712
33238W        W 4821   3.261  18.217   4.213
33239W        W 4822  15.143  26.674   0.629
33240W        W 4823  17.676  42.960   1.721
33241W        W 4824  29.516   9.466   4.175
33242W        W 4825   7.341  32.357  12.035
33243W        W 4826  36.914  40.166   3.912
33244W        W 4827  19.805  19.676  12.961
33245W        W 4828  10.680  15.102   1.319
33246W        W 4829  42.839   2.972  14.455
33247W        W 4830  11.999  33.959  13.092
33248W        W 4831  21.276  36.530   3.213
33249W        W 4832  13.897  22.491  13.616
33250W        W 4833  13.686  16.865  13.635
33251W        W 4834  21.920  39.495  13.920
33252W        W 4835  33.047  34.996   2.032
33253W        W 4836   4.464  30.523  13.412
33254W        W 4837  21.234  28.148   2.564
33255W        W 4838  19.194  40.517   1.705
33256W        W 4839  26.609  13.618   2.373
33257W        W 4840  36.700  16.165  11.566
33258W        W 4841  32.080  21.763  11.438
33259W        W 4842  16.765  16.746  13.960
33260W        W 4843  41.157  43.249  11.944
33261W        W 4844  36.984  43.973   2.430
33262W        W 4845   7.708  36.144  13.831
33263W        W 4846  10.936  21.728   1.817
33264W        W 4847  41.330   5.103   0.943
33265W        W 4848  38.835   2.252  13.724
33266W        W 4849  32.984  29.009   0.865
33267W        W 4850  28.185   8.989  11.700
33268W        W 4851  26.838  35.964  11.292
33269W        W 4852   3.733  10.403  13.128
33270W        W 4853  41.331  27.620   1.118
33271W        W 4854  16.611  42.934   5.101
33272W        W 4855  37.555   8.937   2.239
33273W        W 4856   1.369  30.245  10.731
33274W        W 4857  11.901   6.867  12.421
33275W        W 4858  13.605  42.010  10.901
33276W        W 4859  25.501  15.155   4.051
33277W        W 4860  35.377  40.334  13.724
33278W        W 4861  21.165  38.342   3.622
33279W        W 4862  33.559   3.557   2.270
33280W        W 4863  11.230  29.049   1.898
33281W        W 4864   3.337  18.549   3.806
33282W        W 4865  32.156   6.819   1.033
33283W        W 4866  38.860  22.688  10.640
33284W        W 4867  33.653  41.378   2.277
33285W        W 4868  19.683  16.294   2.284
33286W        W 4869   3.268  11.045   3.314
33287W        W 4870  25.257  35.387   3.164
33288W        W 4871  11.370  16.601  13.030
33289W        W 4872   8.448  13.610   1.780
33290W        W 4873  27.548  42.314  11.181
33291W        W 4874  22.323  26.510   9.953
33292W        W 4875  30.460  43.888   0.914
33293W        W 4876  17.810  26.703   5.084
33294W        W 4877  14.681  36.316   2.229
33295W        W 4878  14.619  40.538   3.743
33296W        W 4879  41.350  33.034  11.915
33297W        W 4880   4.125   4.234   0.399
33298W        W 4881   3.918  15.236   0.007
33299W        W 4882  13.135   7.105  13.032
33300W        W 4883  27.431  43.357  12.477
33301W        W 4884  39.440  27.694  13.887
33302W        W 4885  34.614  10.259  14.574
33303W        W 4886  29.831  26.285   4.111
33304W        W 4887  10.777  38.115   0.694
33305W        W 4888  20.059  34.003   3.976
33306W        W 4889  24.437  16.781   0.745
33307W        W 4890  36.510   7.533  11.076
33308W        W 4891  31.055   4.799  12.642
33309W        W 4892  32.871   7.778  12.544
33310W        W 4893  25.929  25.000   3.178
33311W        W 4894  37.390   1.048   1.454
33312W        W 4895  14.745  21.404  14.068
33313W        W 4896   4.207  43.928  12.827
33314W        W 4897   7.385   1.006  13.179
33315W        W 4898  16.537  31.106  10.877
33316W        W 4899  21.327  37.962  10.628
33317W        W 4900  37.362  22.137   1.248
33318W        W 4901   2.244  10.733  11.856
33319W        W 4902  44.637   5.658  13.763
33320W        W 4903  28.139   9.293  10.730
33321W        W 4904  23.619  10.394   0.562
33322W        W 4905  39.685  17.387  11.973
33323W        W 4906  13.613   6.532  14.257
33324W        W 4907   4.685   8.192  10.896
33325W        W 4908  35.966  34.374   3.130
33326W        W 4909   6.221  43.907  13.908
33327W        W 4910  14.260  44.997   3.192
33328W        W 4911  20.669   7.361  13.029
33329W        W 4912  38.905   7.901  13.470
33330W        W 4913  26.718  38.974  11.496
33331W        W 4914  32.922   1.808   4.173
33332W        W 4915  31.054  21.228  13.561
33333W        W 4916  40.780  18.526  12.543
33334W        W 4917  20.503  40.299   2.674
33335W        W 4918  14.351  34.995   1.949
33336W        W 4919   1.960  25.176   1.745
33337W        W 4920  38.841  44.887  14.851
33338W        W 4921  16.680  25.046   5.479
33339W        W 4922  32.975   7.033  13.402
33340W        W 4923  38.856  18.069  12.111
33341W        W 4924  38.608   7.905  10.674
33342W        W 4925   0.942   8.146  14.882
33343W        W 4926  32.674   2.254   4.185
33344W        W 4927  37.124  34.924   4.285
33345W        W 4928   9.289   5.293   2.670
33346W        W 4929   3.241   5.244  10.662
33347W        W 4930  22.058  34.598  14.902
33348W        W 4931  19.214  33.372   0.671
33349W        W 4932  19.787  39.363  13.536
33350W        W 4933   9.983  27.037   0.251
33351W        W 4934  13.688  33.910   0.212
33352W        W 4935  13.663  29.694   4.612
33353W        W 4936  14.411  26.085   3.644
33354W        W 4937  27.596  12.987   0.619
33355W        W 4938  13.206  33.383   2.717
33356W        W 4939   7.627  31.990  11.622
33357W        W 4940  30.591   9.078  14.831
33358W        W 4941  36.908   2.176   4.300
33359W        W 4942  21.332  19.818  10.697
33360W        W 4943  33.083  13.441   1.038
33361W        W 4944  20.102  34.583   3.305
33362W        W 4945  26.730   6.312  12.087
33363W        W 4946  16.061  20.988   2.262
33364W        W 4947  15.484  12.244  12.515
33365W        W 4948  23.999  12.140  13.266
33366W        W 4949  17.194   4.672   5.093
33367W        W 4950   5.900  19.734   4.204
33368W        W 4951  12.687  15.550  10.358
33369W        W 4952  31.047  43.433  12.351
33370W        W 4953  32.299  32.642  12.036
33371W        W 4954  17.550  30.872   2.307
33372W        W 4955  31.586  40.915  12.235
33373W        W 4956   5.372  19.612  14.730
33374W        W 4957  42.029  33.818  11.162
33375W        W 4958  33.189  31.849   3.281
33376W        W 4959  33.576  41.265  14.344
33377W        W 4960  10.380  41.320   2.791
33378W        W 4961  12.938   8.776  12.594
33379W        W 4962  12.819  29.972  13.343
33380W        W 4963  42.312   5.340  10.775
33381W        W 4964   5.957  17.955   3.785
33382W        W 4965   4.517  29.467   5.239
33383W        W 4966  44.367  12.923   4.733
33384W        W 4967  16.379  10.730   2.183
33385W        W 4968  10.292  17.691  10.471
33386W        W 4969  28.518   5.204   1.430
33387W        W 4970  11.170  28.143   2.819
33388W        W 4971  43.383   2.194  11.033
33389W        W 4972  11.093  19.304  13.888
33390W        W 4973   9.062  32.422  11.748
33391W        W 4974   6.696   3.974  11.092
33392W        W 4975   0.801  28.121  12.056
33393W        W 4976  25.689   2.514  12.565
33394W        W 4977  24.116  39.995   4.588
33395W        W 4978   8.490  20.530  11.663
33396W        W 4979  26.599  38.150  12.001
33397W        W 4980  13.767  27.966   3.190
33398W        W 4981  14.665   4.601   3.230
33399W        W 4982   5.439   4.721  10.513
33400W        W 4983  21.772   9.660   3.710
33401W        W 4984   4.148  33.823   1.142
33402W        W 4985   3.144  31.282   1.879
33403W        W 4986  22.297  22.650  12.855
33404W        W 4987  10.512   6.385  13.214
33405W        W 4988  26.579  20.266  10.787
33406W        W 4989   5.742  39.818  14.534
33407W        W 4990  31.087  16.900   4.786
33408W        W 4991  25.955  22.044  10.758
33409W        W 4992  12.167   6.963  11.152
33410W        W 4993  11.109  22.132   0.926
33411W        W 4994  11.248  42.126   2.902
33412W        W 4995  30.937  18.568  11.443
33413W        W 4996  21.769   9.217   4.271
33414W        W 4997  23.806  25.464  12.602
33415W        W 4998   6.226  44.011   0.292
33416W        W 4999  42.733  26.227  13.372
33417W        W 5000  14.271   4.165   1.483
33418W        W 5001  21.444  40.783   3.717
33419W        W 5002   9.531  40.600   1.852
33420W        W 5003  18.222  25.466   0.259
33421W        W 5004  19.652  18.664   3.181
33422W        W 5005  24.697  21.551   0.436
33423W        W 5006  18.060  30.925   2.359
33424W        W 5007  24.561   9.030  14.544
33425W        W 5008  16.915  10.756   3.759
33426W        W 5009  34.993   7.723   1.406
33427W        W 5010  11.085   7.752   1.839
33428W        W 5011  12.252  38.856   4.681
33429W        W 5012  32.117  33.009  10.341
33430W        W 5013  28.102  32.327  12.986
33431W        W 5014  11.692  27.482   1.335
33432W        W 5015  29.758  39.612  13.076
33433W        W 5016  41.784   8.637   1.730
33434W        W 5017  13.820  16.642   1.135
33435W        W 5018   6.690   3.858  11.934
33436W        W 5019  16.885  17.036  10.630
33437W        W 5020   0.885  24.738   2.040
33438W        W 5021  35.598   4.210   3.237
33439W        W 5022   6.624   0.521  13.945
33440W        W 5023   5.747   2.433   2.600
33441W        W 5024   3.432  26.278   3.162
33442W        W 5025  21.272  40.729   0.794
33443W        W 5026   7.201  38.017  12.431
33444W        W 5027  30.673  23.738  11.495
33445W        W 5028  21.539  26.032   1.065
33446W        W 5029  27.672  39.544  13.279
33447W        W 5030  18.250  18.257  10.792
33448W        W 5031  37.304  14.821  14.476
33449W        W 5032   3.969  20.284   4.069
33450W        W 5033  20.653  18.218   5.092
33451W        W 5034  13.226  36.676   1.679
33452W        W 5035  13.640  44.933  14.955
33453W        W 5036  30.129   7.686   2.272
33454W        W 5037  35.069  12.285   0.397
33455W        W 5038  31.174  40.296  12.512
33456W        W 5039   5.009   6.082  12.418
33457W        W 5040  40.982   7.429  13.362
33458W        W 5041  38.502  15.847   0.014
33459W        W 5042  20.961  36.957  11.576
33460W        W 5043   3.790  26.419   4.139
33461W        W 5044  34.830  36.517   3.689
33462W        W 5045   2.943   8.675  14.366
33463W        W 5046  17.098   8.282  14.768
33464W        W 5047  32.975  10.511   5.052
33465W        W 5048  29.537  42.973  11.648
33466W        W 5049   7.204  10.882   1.810
33467W        W 5050   6.863   7.772   1.486
33468W        W 5051  39.489   1.286   1.639
33469W        W 5052   9.594   8.758  11.509
33470W        W 5053   3.647  20.735   1.226
33471W        W 5054  26.241  41.241   3.546
33472W        W 5055  31.120  26.974  14.224
33473W        W 5056  15.645  31.117   4.922
33474W        W 5057   0.418   9.648   3.868
33475W        W 5058  17.664  42.536  14.889
33476W        W 5059   5.219  21.257   1.897
33477W        W 5060   4.864  40.572   2.368
33478W        W 5061  37.923   6.684   3.463
33479W        W 5062  42.991  18.864  12.565
33480W        W 5063  21.418  24.303  11.137
33481W        W 5064  25.894  41.063   3.928
33482W        W 5065  27.147  29.636  11.533
33483W        W 5066  21.525  40.752   0.346
33484W        W 5067  24.444   3.219  12.148
33485W        W 5068  44.264  19.275  11.587
33486W        W 5069   0.375  31.969  13.164
33487W        W 5070  16.788   4.624  11.162
33488W        W 5071  28.717  17.201  11.776
33489W        W 5072  33.468   6.625   2.800
33490W        W 5073  15.200  29.384   0.407
33491W        W 5074  22.225   5.783   0.893
33492W        W 5075  32.898  20.172  12.471
33493W        W 5076  32.398  29.073  11.565
33494W        W 5077  32.463   5.841   4.367
33495W        W 5078  24.517  30.547   3.918
33496W        W 5079   0.429  41.777  12.477
33497W        W 5080  30.525  22.831   4.118
33498W        W 5081  22.536  10.732   3.213
33499W        W 5082   7.223  28.027  13.967
33500W        W 5083  42.207  37.963   3.404
33501W        W 5084   3.390  17.587  11.439
33502W        W 5085  17.489   7.137  10.335
33503W        W 5086  22.513  16.997  10.190
33504W        W 5087  27.388  20.034   3.146
33505W        W 5088  20.499  39.724  12.892
33506W        W 5089   7.967   7.576   2.891
33507W        W 5090  19.347  33.553   1.164
33508W        W 5091  18.839  25.031  13.490
33509W        W 5092  37.678   1.994  10.291
33510W        W 5093  13.882  39.750  11.920
33511W        W 5094  22.575  12.084   4.657
33512W        W 5095  37.710  21.359   3.236
33513W        W 5096  29.949  36.530  14.429
33514W        W 5097  38.783  11.691   1.737
33515W        W 5098  31.892  11.081  13.817
33516W        W 5099  41.821  25.842   4.847
33517W        W 5100  13.266   6.274  13.399
33518W        W 5101  22.122   9.712   5.504
33519W        W 5102  43.711   5.402  13.009
33520W        W 5103   0.169  12.760   1.568
33521W        W 5104  28.910  36.548  10.984
33522W        W 5105  36.505  40.758  11.587
33523W        W 5106  34.783  21.742  13.579
33524W        W 5107  18.115   5.678   2.071
33525W        W 5108   1.294  30.117   3.544
33526W        W 5109  42.954  31.937   3.935
33527W        W 5110  21.218  24.521  12.797
33528W        W 5111  28.511  21.795  13.340
33529W        W 5112  43.376  26.576  10.105
33530W        W 5113  33.834  16.666  14.350
33531W        W 5114  28.663   0.050  13.784
33532W        W 5115  36.462  31.313   2.856
33533W        W 5116  40.773  20.013   1.781
33534W        W 5117   0.839  40.900   3.300
33535W        W 5118   2.862  13.344  11.577
33536W        W 5119  35.595  24.049  11.592
33537W        W 5120  13.385  15.256  10.845
33538W        W 5121   5.763  25.615  13.334
33539W        W 5122   9.546  10.185   1.731
33540W        W 5123   6.115  20.128   1.880
33541W        W 5124  36.930  24.009   0.778
33542W        W 5125  38.012   8.308  13.738
33543W        W 5126  28.603  36.543  11.920
33544W        W 5127  32.153  12.391  11.128
33545W        W 5128  29.019  42.913  11.725
33546W        W 5129  14.266  27.095   3.511
33547W        W 5130   1.523  38.431  12.388
33548W        W 5131  10.375  10.365  11.586
33549W        W 5132  34.900  23.101   3.544
33550W        W 5133   5.305  24.319  11.658
33551W        W 5134   6.786  25.665  12.855
33552W        W 5135  24.093  27.409  13.838
33553W        W 5136   3.285  36.661   1.671
33554W        W 5137  11.405  42.100  14.415
33555W        W 5138   2.481   1.371  12.410
33556W        W 5139  27.078  24.195   1.161
33557W        W 5140   2.556  44.470  11.611
33558W        W 5141  29.892   3.458   3.218
33559W        W 5142  21.547  44.223   0.211
33560W        W 5143  27.759  21.045   2.245
33561W        W 5144  32.588  29.034   3.398
33562W        W 5145  14.321  14.012   1.882
33563W        W 5146  21.560  26.056   2.813
33564W        W 5147  27.574  34.612   2.409
33565W        W 5148   8.241   9.015   0.768
33566W        W 5149  33.456   4.618  12.585
33567W        W 5150  42.564   2.472  12.134
33568W        W 5151   9.370  39.393  12.087
33569W        W 5152  36.596   4.403  14.313
33570W        W 5153   6.945  19.527   0.808
33571W        W 5154  18.092  40.536   3.251
33572W        W 5155   0.826  27.244   0.965
33573W        W 5156   9.433  39.108   0.819
33574W        W 5157  32.235  26.725  12.481
33575W        W 5158  43.977  12.261   1.826
33576W        W 5159  31.128  21.753   1.695
33577W        W 5160  31.236  31.995  14.528
33578W        W 5161  30.889  22.603   2.677
33579W        W 5162  11.424  34.929  10.119
33580W        W 5163   0.968  39.954   2.892
33581W        W 5164  42.910  17.657   0.420
33582W        W 5165  31.675  23.454   4.072
33583W        W 5166  43.730   3.264   4.506
33584W        W 5167  10.283  22.728   5.208
33585W        W 5168  35.916  25.427   1.332
33586W        W 5169   8.906  21.009  13.298
33587W        W 5170   9.705  43.404  13.505
33588W        W 5171  16.070  17.137   3.761
33589W        W 5172   3.341  43.911   2.052
33590W        W 5173  13.737  36.910   0.638
33591W        W 5174  19.167   1.284  14.431
33592W        W 5175  40.019  42.973   0.434
33593W        W 5176  25.413  26.209  13.920
33594W        W 5177  26.707   6.214   3.195
33595W        W 5178  41.471  25.167  10.632
33596W        W 5179  37.286  29.910  12.110
33597W        W 5180  34.066   6.001  13.430
33598W        W 5181  42.562  32.688   3.776
33599W        W 5182  18.307  39.914   3.361
33600W        W 5183   4.835  35.288   2.355
33601W        W 5184  13.788  26.647   1.802
33602W        W 5185  25.098  22.032  11.112
33603W        W 5186   7.636   0.295   1.987
33604W        W 5187  26.646  20.814  11.667
33605W        W 5188  16.345  32.915  13.417
33606W        W 5189   4.793  25.019   4.889
33607W        W 5190  20.681   0.324   0.324
33608W        W 5191  34.345  38.286  12.028
33609W        W 5192  35.408   5.202   1.865
33610W        W 5193   4.645  23.609  11.190
33611W        W 5194   6.831   5.701  13.454
33612W        W 5195  35.810  21.671  13.526
33613W        W 5196  28.224  31.001  14.326
33614W        W 5197  38.442  19.617   4.914
33615W        W 5198  39.005  35.883   4.596
33616W        W 5199  29.470  22.800   2.413
33617W        W 5200   9.353  18.040  10.559
33618W        W 5201   8.823  41.386  11.023
33619W        W 5202  31.164  33.596  11.137
33620W        W 5203  13.312   9.399  12.217
33621W        W 5204  31.915  31.521   2.713
33622W        W 5205  27.405  31.339  10.377
33623W        W 5206  36.766  19.132   2.690
33624W        W 5207  31.937  37.045   4.588
33625W        W 5208  17.653  40.479  11.048
33626W        W 5209   8.626  43.685  12.562
33627W        W 5210  19.559  20.276  14.869
33628W        W 5211   1.236  22.415   4.231
33629W        W 5212  25.191  44.346   4.981
33630W        W 5213  31.464   3.856  10.904
33631W        W 5214   5.790   9.092   2.226
33632W        W 5215  41.139  25.852   2.853
33633W        W 5216  29.785  40.452   2.437
33634W        W 5217  19.294  28.987   3.971
33635W        W 5218  38.570  15.495  14.498
33636W        W 5219  12.428   9.137  11.536
33637W        W 5220  16.642  42.789  12.087
33638W        W 5221  35.326  30.183   2.414
33639W        W 5222  33.596   6.884   1.511
33640W        W 5223  40.183  11.870   0.883
33641W        W 5224   9.705  30.044   1.640
33642W        W 5225  42.726  41.026   2.189
33643W        W 5226  43.102  34.042  13.576
33644W        W 5227   5.899   6.836   4.185
33645W        W 5228  15.534  19.322   2.395
33646W        W 5229  24.715  35.321   1.739
33647W        W 5230  10.750  40.798   2.260
33648W        W 5231  20.691  30.568  11.077
33649W        W 5232  38.443  40.982   4.173
33650W        W 5233  31.710   4.239   0.179
33651W        W 5234  19.153  42.521   0.836
33652W        W 5235  15.619   4.879   0.298
33653W        W 5236  42.790  44.110   1.096
33654W        W 5237   1.945  22.092  12.525
33655W        W 5238  22.819  30.669  11.492
33656W        W 5239  28.008  34.186  12.959
33657W        W 5240  44.507  30.907   0.069
33658W        W 5241  31.614  36.578  12.607
33659W        W 5242  38.011  17.273  10.315
33660W        W 5243   4.387  36.504  12.655
33661W        W 5244   9.370   4.478   2.173
33662W        W 5245  38.551  13.067   1.888
33663W        W 5246   3.976   6.177   2.729
33664W        W 5247  26.894  33.618  14.111
33665W        W 5248  18.300  18.317   4.624
33666W        W 5249   8.150   3.128  11.617
33667W        W 5250  36.461  16.836   0.366
33668W        W 5251  33.853   4.323   1.958
33669W        W 5252  28.243   7.907   2.726
33670W        W 5253  37.899  35.195   2.466
33671W        W 5254   8.801  12.641   4.857
33672W        W 5255  20.079  11.223   2.723
33673W        W 5256  29.551  44.895  13.806
33674W        W 5257  35.585  22.181  13.366
33675W        W 5258   3.496   9.191  12.786
33676W        W 5259  21.513  41.776   3.662
33677W        W 5260   5.379  34.484   4.895
33678W        W 5261  44.801  30.283  13.317
33679W        W 5262  21.245   1.626  11.941
33680W        W 5263  22.626  39.434   3.365
33681W        W 5264   0.709  43.982  11.594
33682W        W 5265  26.235  39.664   4.126
33683W        W 5266  27.359  24.176   3.757
33684W        W 5267  18.545  26.502   1.909
33685W        W 5268  43.979   7.677   1.185
33686W        W 5269  44.278   0.932   0.113
33687W        W 5270  32.097  35.484   0.740
33688W        W 5271  20.752  11.217   3.285
33689W        W 5272  25.625  11.062  14.144
33690W        W 5273   6.281   0.973  11.228
33691W        W 5274   3.057   5.941  11.399
33692W        W 5275   6.932  17.762   2.870
33693W        W 5276  23.507  17.779  11.014
33694W        W 5277  17.062  13.220  13.500
33695W        W 5278  37.799  44.740   3.326
33696W        W 5279  30.572  24.059   4.569
33697W        W 5280  30.411  43.888  10.663
33698W        W 5281   9.226  25.915   4.174
33699W        W 5282  24.579  21.406   3.801
33700W        W 5283  35.006   2.943  13.372
33701W        W 5284   0.982  21.472  14.862
33702W        W 5285  39.355  26.936  13.446
33703W        W 5286  36.960  11.243  14.335
33704W        W 5287  21.268  20.812  14.037
33705W        W 5288  36.057  29.427   1.693
33706W        W 5289   3.838  33.839  14.529
33707W        W 5290  23.851   6.801   5.048
33708W        W 5291  23.070  30.182   1.169
33709W        W 5292  29.137  15.759  11.587
33710W        W 5293  14.130  31.463  11.730
33711W        W 5294  21.622  14.603  11.463
33712W        W 5295   5.469   8.226   0.739
33713W        W 5296  28.681  30.553   0.337
33714W        W 5297  20.326  12.865  13.843
33715W        W 5298  27.108   9.706   4.715
33716W        W 5299  17.080  22.273  10.542
33717W        W 5300  10.615  36.153   0.010
33718W        W 5301  31.107  23.288   1.930
33719W        W 5302   8.021   6.915   2.193
33720W        W 5303  12.018  29.205   2.905
33721W        W 5304  28.960  21.140   5.171
33722W        W 5305  30.132   7.238  10.657
33723W        W 5306   0.514   5.432   4.071
33724W        W 5307  34.456  25.085   2.405
33725W        W 5308  16.642  18.618   2.691
33726W        W 5309   1.459   1.800   4.863
33727W        W 5310  14.683  13.818   2.851
33728W        W 5311  29.389  29.837   1.396
33729W        W 5312  29.883  12.123  10.724
33730W        W 5313  38.925  11.419  11.937
33731W        W 5314  25.219  44.474  11.644
33732W        W 5315  41.277  20.052   1.863
33733W        W 5316   6.711  44.764   2.782
33734W        W 5317  41.786   4.394  12.393
33735W        W 5318  40.711  25.994  12.445
33736W        W 5319  28.181  43.676  14.769
33737W        W 5320  40.058  41.520  12.014
33738W        W 5321   5.442   7.638   2.807
33739W        W 5322   4.689  18.506  14.666
33740W        W 5323  38.541  27.045  12.028
33741W        W 5324  17.328  40.314  12.028
33742W        W 5325   5.670  32.391  13.950
33743W        W 5326  23.598  26.390  12.047
33744W        W 5327  10.702   3.674   4.146
33745W        W 5328  26.179  27.756  12.018
33746W        W 5329  30.636  37.839  14.026
33747W        W 5330  30.513  43.882   3.165
33748W        W 5331  29.983  12.898  12.970
33749W        W 5332  25.567  22.864   1.838
33750W        W 5333  43.745  28.422  11.092
33751W        W 5334  13.020  26.959   2.821
33752W        W 5335  10.494  41.901  12.007
33753W        W 5336  44.727  12.098  12.459
33754W        W 5337  25.034  19.348  11.159
33755W        W 5338   2.211   7.223  12.950
33756W        W 5339  34.338   0.677   1.742
33757W        W 5340  16.970  26.682   3.800
33758W        W 5341   1.747  11.242   0.260
33759W        W 5342  18.729  37.291   0.718
33760W        W 5343   6.403  44.379  13.751
33761W        W 5344  26.044  22.817   3.189
33762W        W 5345  12.214   8.576   1.903
33763W        W 5346   4.387  25.250  12.222
33764W        W 5347  43.939  15.476  11.589
33765W        W 5348  25.048  22.698   0.782
33766W        W 5349   4.353  23.602  13.036
33767W        W 5350  38.384  32.582  14.297
33768W        W 5351  16.208   5.433  11.219
33769W        W 5352  33.528  36.351   1.229
33770W        W 5353   5.932  28.699  13.814
33771W        W 5354  43.363  40.976  12.169
33772W        W 5355  14.370  42.378  14.798
33773W        W 5356   1.551  43.211   4.909
33774W        W 5357   9.576  16.055   3.739
33775W        W 5358  42.917   0.858  14.648
33776W        W 5359  16.836  11.214  11.983
33777W        W 5360  41.998  42.548  13.979
33778W        W 5361   1.681  43.931  14.682
33779W        W 5362  17.142   4.634  11.532
33780W        W 5363  38.746   5.728   0.125
33781W        W 5364  19.472  43.490  10.900
33782W        W 5365  28.987  33.355   3.117
33783W        W 5366  25.737  37.369   3.027
33784W        W 5367  31.298  36.529  14.552
33785W        W 5368  37.108   0.319  12.329
33786W        W 5369  21.556  13.947   4.139
33787W        W 5370  20.726  24.282   1.348
33788W        W 5371  14.602  23.521   0.300
33789W        W 5372  34.860   4.258  11.140
33790W        W 5373  28.577  20.930  14.872
33791W        W 5374  29.520  38.795   4.340
33792W        W 5375  18.806  43.762  13.798
33793W        W 5376  15.740  30.990   3.922
33794W        W 5377  11.226  36.017  11.796
33795W        W 5378  32.673  25.715  10.808
33796W        W 5379  39.821  35.369  14.345
33797W        W 5380   2.751  13.636   4.221
33798W        W 5381  20.053  33.448   1.685
33799W        W 5382  30.631  14.217   3.139
33800W        W 5383  39.998   0.782   4.291
33801W        W 5384  43.013   6.182   0.813
33802W        W 5385   4.106  17.587   4.318
33803W        W 5386   1.081  11.337   4.276
33804W        W 5387  16.001  37.365  13.825
33805W        W 5388   8.421   1.857  14.198
33806W        W 5389  36.115   2.519  10.663
33807W        W 5390  11.791  21.186  12.353
33808W        W 5391  39.469   3.022   3.930
33809W        W 5392  11.790   8.216   3.109
33810W        W 5393   0.913  44.403   1.254
33811W        W 5394  12.521  26.516   1.279
33812W        W 5395  29.022  11.678   2.235
33813W        W 5396  41.527  17.669   4.181
33814W        W 5397  13.208  40.807   2.695
33815W        W 5398  19.167  22.537  14.880
33816W        W 5399  40.434  10.698  13.860
33817W        W 5400  28.159  18.231   0.733
33818W        W 5401  28.420  22.718   4.915
33819W        W 5402   1.847  26.427  12.412
33820W        W 5403  35.383  37.624  10.684
33821W        W 5404  43.298  25.143  13.370
33822W        W 5405  33.113   6.850  12.088
33823W        W 5406   8.493   7.371   0.346
33824W        W 5407  28.769  34.242  11.786
33825W        W 5408   3.229  41.503  12.444
33826W        W 5409  26.254   8.177  12.098
33827W        W 5410  38.032  16.761  14.398
33828W        W 5411  44.887   5.639  10.685
33829W        W 5412   1.482   0.221  13.874
33830W        W 5413  38.787  10.213  14.790
33831W        W 5414  28.851  11.284   9.864
33832W        W 5415   1.227  30.709   4.149
33833W        W 5416  25.951   9.151   0.785
33834W        W 5417  18.627  41.931  12.634
33835W        W 5418  29.188  32.966   0.993
33836W        W 5419  11.277   5.339   3.102
33837W        W 5420  11.413  40.777  13.069
33838W        W 5421  14.311  25.421   0.312
33839W        W 5422  30.174   8.457   1.856
33840W        W 5423  24.524  29.124   3.353
33841W        W 5424  44.539  15.834  12.203
33842W        W 5425  24.519   6.899  12.579
33843W        W 5426  22.931  43.953   1.947
33844W        W 5427  39.866   7.254   0.796
33845W        W 5428  23.208  20.727   1.623
33846W        W 5429  19.620  16.041  10.733
33847W        W 5430  29.721   3.069   4.244
33848W        W 5431  29.968  38.873  12.051
33849W        W 5432  28.578  34.501   3.820
33850W        W 5433   3.592   9.092  11.078
33851W        W 5434  10.678  23.187  14.939
33852W        W 5435   0.070  34.906  13.432
33853W        W 5436  10.208  26.150   3.301
33854W        W 5437  14.488  33.785  13.865
33855W        W 5438  17.864  27.455  12.370
33856W        W 5439  13.035  11.135   2.709
33857W        W 5440  22.232  44.616  13.401
33858W        W 5441  35.630  16.422  11.625
33859W        W 5442  23.695   8.167   2.244
33860W        W 5443  39.869  14.964   3.027
33861W        W 5444  38.591  43.397   3.141
33862W        W 5445  19.423   4.374   4.220
33863W        W 5446  23.187  16.431   0.759
33864W        W 5447  11.082   1.180   2.247
33865W        W 5448   0.863  44.645   2.626
33866W        W 5449  19.530  44.011  11.484
33867W        W 5450  10.451   7.695  14.400
33868W        W 5451  37.045   6.824   3.071
33869W        W 5452   5.657  22.574  14.363
33870W        W 5453   5.708  27.460   4.629
33871W        W 5454  32.838  39.771   1.814
33872W        W 5455  29.835  32.810  13.068
33873W        W 5456  39.836  11.973  11.202
33874W        W 5457  32.341  15.724   2.307
33875W        W 5458  20.704  41.939   4.062
33876W        W 5459  20.024  37.604   2.270
33877W        W 5460   8.822   2.048   0.819
33878W        W 5461   9.135   4.312   1.129
33879W        W 5462  38.111  41.539   0.759
33880W        W 5463  40.805   6.256   3.454
33881W        W 5464  30.985   9.171  14.408
33882W        W 5465   9.328  13.819   0.266
33883W        W 5466  22.086   1.972  14.433
33884W        W 5467  24.695  41.148  13.111
33885W        W 5468  20.891  41.986   1.420
33886W        W 5469  36.357  22.764  12.934
33887W        W 5470  20.646  33.561  11.655
33888W        W 5471  22.786  10.275   0.708
33889W        W 5472  16.813  29.091   2.328
33890W        W 5473   9.258  37.970  14.943
33891W        W 5474  30.454  17.834   4.239
33892W        W 5475  10.439  21.359  14.342
33893W        W 5476  41.239  30.031  13.347
33894W        W 5477   9.481  29.465  13.550
33895W        W 5478  19.492  11.498   2.182
33896W        W 5479  27.633  36.573  13.053
33897W        W 5480   4.285  31.911   4.153
33898W        W 5481   8.926  20.653  12.591
33899W        W 5482  12.877  41.901   3.635
33900W        W 5483  16.998  16.221   2.638
33901W        W 5484  25.619  17.984  12.903
33902W        W 5485  34.332  18.597  13.776
33903W        W 5486   5.710  27.239  10.624
33904W        W 5487  37.818  28.886  10.398
33905W        W 5488   4.138   3.953  14.905
33906W        W 5489  37.872  32.487   1.101
33907W        W 5490  41.808   4.263   1.002
33908W        W 5491  29.099  24.133   3.332
33909W        W 5492  33.232  42.228  13.587
33910W        W 5493  44.843  26.743   2.071
33911W        W 5494   4.039  43.636  11.027
33912W        W 5495  29.508  33.541  14.532
33913W        W 5496  38.239  24.546  14.735
33914W        W 5497  22.889  37.025   9.871
33915W        W 5498  25.748  20.682   2.214
33916W        W 5499  30.872   0.401   0.774
33917W        W 5500  38.804  36.205  14.178
33918W        W 5501   2.273  26.778  11.022
33919W        W 5502   5.227  36.588   5.042
33920W        W 5503  14.172  17.622  13.868
33921W        W 5504  17.025  38.873   0.301
33922W        W 5505  39.116  20.363  10.956
33923W        W 5506  24.789   8.316  12.484
33924W        W 5507  27.633  19.627  11.891
33925W        W 5508  17.122  25.433   1.786
33926W        W 5509  34.967  13.595   4.580
33927W        W 5510  12.111  33.486   9.979
33928W        W 5511   5.697  13.219  11.436
33929W        W 5512  36.034  40.752  12.128
33930W        W 5513  43.355  43.353   3.276
33931W        W 5514   8.148   6.175  13.044
33932W        W 5515  30.935  19.587   9.934
33933W        W 5516  37.594  26.983   3.590
33934W        W 5517  35.028   6.367  13.447
33935W        W 5518  22.393  20.642   4.792
33936W        W 5519  35.068  13.622  13.870
33937W        W 5520  27.485  43.307   4.774
33938W        W 5521  42.786   6.787  10.550
33939W        W 5522  11.702  25.347   3.609
33940W        W 5523  32.586  30.243   3.867
33941W        W 5524   5.869  38.607  13.135
33942W        W 5525  25.496  25.100   3.831
33943W        W 5526   0.804  10.352   1.236
33944W        W 5527  17.812  35.476  13.389
33945W        W 5528  10.771  23.611  12.877
33946W        W 5529  12.819  33.013  11.684
33947W        W 5530   1.818  14.129   3.371
33948W        W 5531  39.961  12.668  14.289
33949W        W 5532  29.520  43.394   3.231
33950W        W 5533  44.816  14.591  12.413
33951W        W 5534  18.863  28.658   1.269
33952W        W 5535  40.029  44.402   1.724
33953W        W 5536   8.379  29.476  14.939
33954W        W 5537  33.580  33.074   3.053
33955W        W 5538  18.267  31.511   3.612
33956W        W 5539  11.369  34.022  14.418
33957W        W 5540  12.418   6.107  11.112
33958W        W 5541  32.035  26.738  14.349
33959W        W 5542  23.475  42.990   3.700
33960W        W 5543  43.190  37.819   2.817
33961W        W 5544  41.364  14.058   4.173
33962W        W 5545  42.341   8.640  13.921
33963W        W 5546  26.582   4.587  11.625
33964W        W 5547  38.779  22.056   0.785
33965W        W 5548   4.100  19.580  11.783
33966W        W 5549  22.242  24.686   4.364
33967W        W 5550   9.639   8.762   2.674
33968W        W 5551  11.748  20.196   1.970
33969W        W 5552  41.989   0.494  12.091
33970W        W 5553   5.888  44.682  12.957
33971W        W 5554  23.661  16.223   0.846
33972W        W 5555  29.619  15.611   0.446
33973W        W 5556   7.159  37.514  10.809
33974W        W 5557   4.414  43.243  11.082
33975W        W 5558  30.404  38.357  10.980
33976W        W 5559   1.957  18.161  14.654
33977W        W 5560  22.246  13.569  12.232
33978W        W 5561  26.717  34.970  13.886
33979W        W 5562   2.754  18.210  12.697
33980W        W 5563  22.060  21.365  11.095
33981W        W 5564  14.788   4.499  11.529
33982W        W 5565   8.263  18.273  11.090
33983W        W 5566  42.412  15.665   4.634
33984W        W 5567  39.922  20.091  11.572
33985W        W 5568  32.327   5.654  11.073
33986W        W 5569   9.854  12.854  10.965
33987W        W 5570  31.838  17.193   4.276
33988W        W 5571   5.225   8.414  14.712
33989W        W 5572  27.423  34.948  11.935
33990W        W 5573   2.903  14.177  11.959
33991W        W 5574  31.024  15.858  14.336
33992W        W 5575  30.570  33.762   2.477
33993W        W 5576  29.892   9.890  14.425
33994W        W 5577   0.419  21.360   3.079
33995W        W 5578  28.326  31.030  10.711
33996W        W 5579   7.188  12.717  12.525
33997W        W 5580  19.624  38.755   1.817
33998W        W 5581  33.521  29.495  11.581
33999W        W 5582  29.964  32.604   0.940
34000W        W 5583   7.140  37.456  11.637
34001W        W 5584  25.873  11.235  11.154
34002W        W 5585  24.466  21.277   1.375
34003W        W 5586  36.871  20.724  11.779
34004W        W 5587   1.878  34.491   0.767
34005W        W 5588  22.552  14.349   1.482
34006W        W 5589   4.622  34.484  12.466
34007W        W 5590  32.062   7.730   4.281
34008W        W 5591  31.498   9.773  13.396
34009W        W 5592  36.910  30.930  13.061
34010W        W 5593  36.377  25.466   0.347
34011W        W 5594  21.604  18.324   0.053
34012W        W 5595  13.323  37.995  13.876
34013W        W 5596  14.038   9.101   2.904
34014W        W 5597   2.496  20.774   3.569
34015W        W 5598  39.253  10.207  12.514
34016W        W 5599  35.022   2.710   1.357
34017W        W 5600  29.020  36.596  13.994
34018W        W 5601   8.439   2.763  14.390
34019W        W 5602   8.487  22.741   3.592
34020W        W 5603  17.032  32.108   3.820
34021W        W 5604  25.091  43.027   4.531
34022W        W 5605  15.869  37.618   5.143
34023W        W 5606   9.816  39.820   3.277
34024W        W 5607  18.508  25.454  12.028
34025W        W 5608  34.878   1.190   1.218
34026W        W 5609  40.459  26.243   1.903
34027W        W 5610  40.321  10.451   3.107
34028W        W 5611  32.807  14.695   0.876
34029W        W 5612  33.541  31.081  10.603
34030W        W 5613   4.523  28.960  12.980
34031W        W 5614  14.803   6.674  11.831
34032W        W 5615  17.714  41.287   4.759
34033W        W 5616  11.352  19.266   2.929
34034W        W 5617  33.777   5.962  14.975
34035W        W 5618   4.893  34.891   2.008
34036W        W 5619  41.456  34.538   3.672
34037W        W 5620  30.410   7.892   3.632
34038W        W 5621  34.449  30.980   4.807
34039W        W 5622   6.746  13.183   1.768
34040W        W 5623  25.663   2.898   1.630
34041W        W 5624  24.217  23.036   4.604
34042W        W 5625  19.299   4.799  11.173
34043W        W 5626  34.078  31.386   3.701
34044W        W 5627  20.792  28.525  11.051
34045W        W 5628  43.177  18.186   1.944
34046W        W 5629  13.681  17.872   3.610
34047W        W 5630   8.153  12.563   4.617
34048W        W 5631   3.259  21.835  13.041
34049W        W 5632  18.510   7.761   4.446
34050W        W 5633  25.502  36.527   3.661
34051W        W 5634   5.886   6.284   2.411
34052W        W 5635  29.506  27.463   1.376
34053W        W 5636  44.970  44.375  12.009
34054W        W 5637  18.099   7.163   1.307
34055W        W 5638  19.069  22.981  13.915
34056W        W 5639  30.132  35.961  12.331
34057W        W 5640  40.706  34.391   1.191
34058W        W 5641  38.565  27.945  13.804
34059W        W 5642  24.639  19.279   0.273
34060W        W 5643  23.779  39.216   0.728
34061W        W 5644  12.799  44.731  11.382
34062W        W 5645  20.943  32.631   4.898
34063W        W 5646  17.251  13.748  10.766
34064W        W 5647  17.526  22.679   5.094
34065W        W 5648  32.059   1.278  13.134
34066W        W 5649  23.024  37.589   9.867
34067W        W 5650  22.927  42.416  10.690
34068W        W 5651   6.190   4.745   2.782
34069W        W 5652   8.406  10.787  11.050
34070W        W 5653  37.955  25.748  13.839
34071W        W 5654  16.979  13.335   1.171
34072W        W 5655  10.237  34.901   4.080
34073W        W 5656   2.780  40.503   1.924
34074W        W 5657  35.327  19.588   0.316
34075W        W 5658   3.447  37.621   1.914
34076W        W 5659  23.048  38.007   4.712
34077W        W 5660  42.512  30.851   0.226
34078W        W 5661  35.556   2.013  11.134
34079W        W 5662  17.158  25.710   4.689
34080W        W 5663  11.880  24.167  13.538
34081W        W 5664  14.739  36.645  14.327
34082W        W 5665  14.622  36.441  13.393
34083W        W 5666  31.117   4.131   1.500
34084W        W 5667  34.036  43.293   2.521
34085W        W 5668  34.877  17.911   4.181
34086W        W 5669   6.405  27.124  14.352
34087W        W 5670  11.421  41.600   1.903
34088W        W 5671   2.271  21.255  14.313
34089W        W 5672  12.823  12.965   2.641
34090W        W 5673   3.344   6.359  11.502
34091W        W 5674  44.027  10.105   2.289
34092W        W 5675  19.265   8.361  14.784
34093W        W 5676  21.557  24.209   3.594
34094W        W 5677  38.675  33.900   2.721
34095W        W 5678  15.686  16.306   4.696
34096W        W 5679   7.173   2.806  13.432
34097W        W 5680  26.082  34.236   0.905
34098W        W 5681   2.808  10.679  14.866
34099W        W 5682  25.020  24.459   4.168
34100W        W 5683  17.199  20.492  11.910
34101W        W 5684  12.603  42.311   2.209
34102W        W 5685  33.989  19.166  10.444
34103W        W 5686   4.243  33.648  14.795
34104W        W 5687   7.414  43.032  11.003
34105W        W 5688   1.156  15.245  11.891
34106W        W 5689   5.162  26.268   1.194
34107W        W 5690   8.436  15.815   3.620
34108W        W 5691   0.946  13.052   1.685
34109W        W 5692   9.227   5.235   4.973
34110W        W 5693  31.619  16.620   2.369
34111W        W 5694  21.946  38.237   0.495
34112W        W 5695   1.895   5.137  13.231
34113W        W 5696  26.493  16.066   4.144
34114W        W 5697   5.385  44.393   4.399
34115W        W 5698  17.555   2.916   4.492
34116W        W 5699  43.350  42.993  12.988
34117W        W 5700  25.996  37.390   4.395
34118W        W 5701   3.329  39.334   4.119
34119W        W 5702  15.943  28.596  12.058
34120W        W 5703  43.102  12.806  10.916
34121W        W 5704  36.397  31.235  11.989
34122W        W 5705  39.825  16.270   2.707
34123W        W 5706  38.169  29.925  11.988
34124W        W 5707  37.751  39.392  10.500
34125W        W 5708  21.665  29.684   3.857
34126W        W 5709  27.553  22.963   4.177
34127W        W 5710  41.331  35.951   3.787
34128W        W 5711   5.986  35.452  11.169
34129W        W 5712  33.606   8.415  14.108
34130W        W 5713  44.744  29.241  13.574
34131W        W 5714  23.744  37.943  10.843
34132W        W 5715   9.888  16.752   1.804
34133W        W 5716  12.669   5.926   3.283
34134W        W 5717  38.995  11.596  12.408
34135W        W 5718  40.037   9.882  11.661
34136W        W 5719   8.646  23.096   1.228
34137W        W 5720  14.837   0.979   0.232
34138W        W 5721  39.383   2.414   2.693
34139W        W 5722  38.318  22.864   3.735
34140W        W 5723  18.334  42.890   3.282
34141W        W 5724  43.600   1.220  13.906
34142W        W 5725  12.320   2.012   1.955
34143W        W 5726  12.220  30.542   0.663
34144W        W 5727   7.428   0.413   4.590
34145W        W 5728   1.277  25.999  10.731
34146W        W 5729  18.391  14.028   3.584
34147W        W 5730  30.192   5.433  13.287
34148W        W 5731  27.422   8.111  12.463
34149W        W 5732   7.659  17.618   0.702
34150W        W 5733  44.462  44.295  11.978
34151W        W 5734   8.792  11.269  13.058
34152W        W 5735   5.383  41.485  11.492
34153W        W 5736  11.071  15.605  14.353
34154W        W 5737  34.871   8.742   2.713
34155W        W 5738  19.376  36.663   1.486
34156W        W 5739  33.469  43.012   0.739
34157W        W 5740  42.618  25.764   3.800
34158W        W 5741  11.504  25.020   0.450
34159W        W 5742   0.018  10.618   1.832
34160W        W 5743  23.002  26.697   0.995
34161W        W 5744   0.764  16.171   3.258
34162W        W 5745  19.704  15.925  10.241
34163W        W 5746  19.338   5.537   9.963
34164W        W 5747   8.684  36.486  12.945
34165W        W 5748  21.978   2.007   3.138
34166W        W 5749   8.060   4.287   4.222
34167W        W 5750  32.073  14.082   3.787
34168W        W 5751  14.273  32.117  13.507
34169W        W 5752  44.565  21.136   2.199
34170W        W 5753   4.891  10.350  14.854
34171W        W 5754  43.854   4.825  14.710
34172W        W 5755  38.594  41.910  12.857
34173W        W 5756  10.138   2.204   3.788
34174W        W 5757   5.947   8.399  13.489
34175W        W 5758  35.891  34.979  13.405
34176W        W 5759   9.685  12.733  12.971
34177W        W 5760  25.601   2.802   2.136
34178W        W 5761  19.021   7.286   1.741
34179W        W 5762  14.999  23.674  12.367
34180W        W 5763  39.600  36.456  13.427
34181W        W 5764  22.700  27.567   2.302
34182W        W 5765  24.610   8.308   3.840
34183W        W 5766  28.402  30.963   3.315
34184W        W 5767  12.258  19.763   0.399
34185W        W 5768  36.648  41.289   0.759
34186W        W 5769   0.812  12.243  10.341
34187W        W 5770  35.932  37.147   4.653
34188W        W 5771  33.940  41.580  10.865
34189W        W 5772  24.265   4.157   1.185
34190W        W 5773  26.313  34.750  12.486
34191W        W 5774  40.409   1.143  11.180
34192W        W 5775  42.360  42.081   1.231
34193W        W 5776   9.336  27.751   1.248
34194W        W 5777  19.496  27.941   1.392
34195W        W 5778   4.053  19.355   1.385
34196W        W 5779  34.991  41.354  11.076
34197W        W 5780  21.923  29.731  13.556
34198W        W 5781  22.252  32.472   0.521
34199W        W 5782  22.707  34.535   3.131
34200W        W 5783  20.405  28.584  14.929
34201W        W 5784  38.415   5.723   4.554
34202W        W 5785  22.185  17.380   4.671
34203W        W 5786   3.013   7.205   2.953
34204W        W 5787  41.035  30.087  10.671
34205W        W 5788  40.428  35.902  14.737
34206W        W 5789   8.792  44.169  13.027
34207W        W 5790  24.537  19.832  12.455
34208W        W 5791   1.301   0.288   4.224
34209W        W 5792  22.745   5.798   0.904
34210W        W 5793  32.090  22.618   3.646
34211W        W 5794  29.873  15.137   4.203
34212W        W 5795   7.004   3.876  11.513
34213W        W 5796  34.671   1.473   0.760
34214W        W 5797  20.454   1.889   5.056
34215W        W 5798  29.197   4.671   2.811
34216W        W 5799  22.483  25.521   2.661
34217W        W 5800  35.289  10.326  10.660
34218W        W 5801  34.026  26.435   1.434
34219W        W 5802  18.030  20.976   1.357
34220W        W 5803  32.049   3.796   4.171
34221W        W 5804  19.897  21.611   0.460
34222W        W 5805  43.358   5.185   0.436
34223W        W 5806  15.043  26.078  11.659
34224W        W 5807   9.808  34.020   4.940
34225W        W 5808  33.318  12.724  12.092
34226W        W 5809  16.580   8.928   2.844
34227W        W 5810  32.456  15.359  11.183
34228W        W 5811   2.196  38.301   1.773
34229W        W 5812  12.161   9.253  11.121
34230W        W 5813   2.146  36.488   4.523
34231W        W 5814  12.395   0.795   4.228
34232W        W 5815   2.341   2.368   3.791
34233W        W 5816  17.843  35.588   1.860
34234W        W 5817  30.884   0.984  11.931
34235W        W 5818  18.202   4.395  11.882
34236W        W 5819  16.619  41.961   3.240
34237W        W 5820  12.174  21.063   0.966
34238W        W 5821  21.223   3.764  13.401
34239W        W 5822  42.278  20.290   3.357
34240W        W 5823   0.888  31.170  11.324
34241W        W 5824  11.414  31.592   1.259
34242W        W 5825  12.675   7.904   0.042
34243W        W 5826   3.876  20.682  10.899
34244W        W 5827  20.724   1.061   2.305
34245W        W 5828   3.131  37.151  10.648
34246W        W 5829  27.947  17.261   3.183
34247W        W 5830  30.011  27.981   0.731
34248W        W 5831  10.063  17.436   3.487
34249W        W 5832  17.710   8.696   4.891
34250W        W 5833  40.493  34.983  10.902
34251W        W 5834   0.940   8.998   4.146
34252W        W 5835   4.973   7.431  14.370
34253W        W 5836  26.834   8.671   4.360
34254W        W 5837  37.402  17.201  13.323
34255W        W 5838  28.418   4.186   3.052
34256W        W 5839  30.915  41.666  14.984
34257W        W 5840   6.637  27.136   1.045
34258W        W 5841  42.929  20.482   2.877
34259W        W 5842   4.647   3.378  11.696
34260W        W 5843  35.184  21.567   1.835
34261W        W 5844  38.198  42.206  12.411
34262W        W 5845  33.881  22.353   2.342
34263W        W 5846  33.438  35.116  11.438
34264W        W 5847  33.509  37.841  14.097
34265W        W 5848  33.935   7.927  11.184
34266W        W 5849   8.749   6.244  10.579
34267W        W 5850  27.084  29.993  10.723
34268W        W 5851  27.664  10.321   5.789
34269W        W 5852  19.315   8.620   1.934
34270W        W 5853  19.128  38.868  11.441
34271W        W 5854   4.415  19.624   1.622
34272W        W 5855  42.527  34.935   0.737
34273W        W 5856  35.939  24.768   3.532
34274W        W 5857  32.733  27.461   4.079
34275W        W 5858  31.361  16.166   3.089
34276W        W 5859  10.727  24.521   3.805
34277W        W 5860   8.279  30.954  13.636
34278W        W 5861  38.115  37.374  14.290
34279W        W 5862  23.641  23.563  14.543
34280W        W 5863  27.363  21.682   0.406
34281W        W 5864  26.166  38.960   0.863
34282W        W 5865   0.282   1.575  11.171
34283W        W 5866  32.138  35.618  14.006
34284W        W 5867  15.623  36.651  10.622
34285W        W 5868  29.496  28.250  14.368
34286W        W 5869  14.209   4.210   0.467
34287W        W 5870  30.676  30.186   4.587
34288W        W 5871  18.037  37.098  12.608
34289W        W 5872   7.297  18.081   4.854
34290W        W 5873  22.143   7.048   3.220
34291W        W 5874   6.415  14.635  14.253
34292W        W 5875   3.418   3.064  13.982
34293W        W 5876  19.596  31.598   4.353
34294W        W 5877  26.123  41.757   0.934
34295W        W 5878  43.925  17.334  14.817
34296W        W 5879  20.414  39.460  13.705
34297W        W 5880  15.028  42.037   0.869
34298W        W 5881  33.920  10.280   2.167
34299W        W 5882  24.676   7.981   0.399
34300W        W 5883  34.964  32.005  11.983
34301W        W 5884  38.835  28.887  14.856
34302W        W 5885   8.957   6.550  14.555
34303W        W 5886  10.286  19.925   4.165
34304W        W 5887  16.593  30.357   4.217
34305W        W 5888   7.314   6.005  14.770
34306W        W 5889  13.056   8.800   4.146
34307W        W 5890  31.221  15.824  12.580
34308W        W 5891  33.994  20.182   1.349
34309W        W 5892   6.424  39.383  10.602
34310W        W 5893  21.721   1.091  10.642
34311W        W 5894  34.812  17.613   2.184
34312W        W 5895  10.213  18.602   4.356
34313W        W 5896  18.133  35.100  10.389
34314W        W 5897  39.834  19.661   2.179
34315W        W 5898  40.553  23.553   1.283
34316W        W 5899  22.805  17.092  11.035
34317W        W 5900   6.352  27.006   0.339
34318W        W 5901  20.292  28.593  10.902
34319W        W 5902  42.812  27.171  14.346
34320W        W 5903  11.438   0.997   3.491
34321W        W 5904   8.675  44.722   2.329
34322W        W 5905   1.925   8.746  12.502
34323W        W 5906   7.559  34.404   3.086
34324W        W 5907  17.717  34.937  12.065
34325W        W 5908  15.229  32.597   1.743
34326W        W 5909  20.061  25.206   4.175
34327W        W 5910  18.661  23.186   2.861
34328W        W 5911  15.789   7.709   3.028
34329W        W 5912  34.229  41.531  11.803
34330W        W 5913  29.614  17.382   3.574
34331W        W 5914  40.781  37.625   2.309
34332W        W 5915  41.373   1.200   0.710
34333W        W 5916  13.758  15.679   4.535
34334W        W 5917   7.284  19.263  13.822
34335W        W 5918  32.057  41.143  10.576
34336W        W 5919  43.310  26.584   0.367
34337W        W 5920  34.807  17.595  13.916
34338W        W 5921  27.666  18.142  10.567
34339W        W 5922  37.103   2.710   1.942
34340W        W 5923   7.233   6.443   0.057
34341W        W 5924  31.980   7.616  13.064
34342W        W 5925   4.659  32.625  13.838
34343W        W 5926   0.678  33.049  13.406
34344W        W 5927  25.181  23.316  10.652
34345W        W 5928  25.136  40.930   2.638
34346W        W 5929   1.803  31.339   0.081
34347W        W 5930  12.784  36.074  11.040
34348W        W 5931  33.627  27.829   4.450
34349W        W 5932   0.266   8.483   4.968
34350W        W 5933  31.007  18.783  14.271
34351W        W 5934   0.351  36.106   0.734
34352W        W 5935  38.357  20.287  12.585
34353W        W 5936  32.582  13.124  13.435
34354W        W 5937  11.363  24.660  13.978
34355W        W 5938   1.174  12.638   4.124
34356W        W 5939  13.818  32.180   2.802
34357W        W 5940  43.005  40.737  11.405
34358W        W 5941   1.774  37.254  14.081
34359W        W 5942  21.511  24.764  11.972
34360W        W 5943  20.069   5.880  10.716
34361W        W 5944  38.570  44.319  12.382
34362W        W 5945   8.177  43.074  10.815
34363W        W 5946  25.972  37.039   1.288
34364W        W 5947  38.421  10.427   2.908
34365W        W 5948  27.038  19.519  13.590
34366W        W 5949  15.447  18.966  11.943
34367W        W 5950  22.703  12.068   3.781
34368W        W 5951  17.536  15.075  10.622
34369W        W 5952  27.428  12.673  14.716
34370W        W 5953   3.956   7.638  12.561
34371W        W 5954  25.061  44.198   0.391
34372W        W 5955  33.707   6.423   1.319
34373W        W 5956  10.984  42.784  12.193
34374W        W 5957  23.492  38.314  12.472
34375W        W 5958  27.361  14.187  14.794
34376W        W 5959  27.146  19.243   0.346
34377W        W 5960  13.084  11.662  11.797
34378W        W 5961   8.400  37.990   4.886
34379W        W 5962  21.261   2.536  11.600
34380W        W 5963   9.099  13.252  10.578
34381W        W 5964  38.729  19.541  11.152
34382W        W 5965  19.672   9.432  10.241
34383W        W 5966   4.231  26.743  12.030
34384W        W 5967  18.255  34.881   4.159
34385W        W 5968  31.895  22.596  14.462
34386W        W 5969  39.377  24.889  10.593
34387W        W 5970   0.861   6.712  11.074
34388W        W 5971   1.267  30.866   1.790
34389W        W 5972  28.580   1.258   1.368
34390W        W 5973  23.293  41.504   5.214
34391W        W 5974  28.058  21.781   2.423
34392W        W 5975  25.605  12.518   9.838
34393W        W 5976  36.126  44.788   1.825
34394W        W 5977  22.173  37.901   2.863
34395W        W 5978   7.267   9.259  14.893
34396W        W 5979  29.430  10.186   1.666
34397W        W 5980  27.194  40.209  11.148
34398W        W 5981  20.654  13.021   3.624
34399W        W 5982  38.595   1.294   1.342
34400W        W 5983  23.123  29.269  13.788
34401W        W 5984  31.235  42.517   2.767
34402W        W 5985   0.692  27.012   1.869
34403W        W 5986  23.699  11.227  12.933
34404W        W 5987   8.818  32.059  11.045
34405W        W 5988   8.409  30.297   0.483
34406W        W 5989   7.932  10.249   2.357
34407W        W 5990   0.402  15.869  14.372
34408W        W 5991  44.855   2.168   1.715
34409W        W 5992  17.243   8.799  14.002
34410W        W 5993  43.424   7.271  11.675
34411W        W 5994   2.478  37.118   4.975
34412W        W 5995   3.065  25.292  12.859
34413W        W 5996  34.806   5.861   2.725
34414W        W 5997  42.923   8.441   2.077
34415W        W 5998  43.045  14.659   1.706
34416W        W 5999  42.146  17.508  13.006
34417W        W 6000  38.874  16.669  13.493
34418W        W 6001  26.071  17.411  10.815
34419W        W 6002   7.826  24.665   3.388
34420W        W 6003  18.338   2.575  13.951
34421W        W 6004  39.023   9.799   2.472
34422W        W 6005  10.369  24.624  14.871
34423W        W 6006  11.234   8.282   0.666
34424W        W 6007  18.238  14.704   3.271
34425W        W 6008  16.873   5.964  11.557
34426W        W 6009  41.449  15.678   1.929
34427W        W 6010  42.836  25.401   3.099
34428W        W 6011  38.961  33.308  14.389
34429W        W 6012  22.629  40.507   2.182
34430W        W 6013  35.539  29.726   2.543
34431W        W 6014  39.252  29.691  13.005
34432W        W 6015  30.802  12.263  11.437
34433W        W 6016   7.679   4.636   1.332
34434W        W 6017  42.654  26.294  11.147
34435W        W 6018  31.213   4.127  13.938
34436W        W 6019  27.765  26.415  11.058
34437W        W 6020  24.225   6.855   3.889
34438W        W 6021   2.874  25.268   1.755
34439W        W 6022   9.294  37.255  10.989
34440W        W 6023  35.430  35.887  13.426
34441W        W 6024  24.705  10.396  10.107
34442W        W 6025  27.575  22.168   0.488
34443W        W 6026  34.135  40.385  14.462
34444W        W 6027   9.284  30.561   0.735
34445W        W 6028  24.971   3.568   5.242
34446W        W 6029  27.040  37.608  14.776
34447W        W 6030  16.569  18.208  11.998
34448W        W 6031   9.595  31.967  14.192
34449W        W 6032  28.464  18.240  11.509
34450W        W 6033  11.430  10.475  13.339
34451W        W 6034  40.942   6.811  10.270
34452W        W 6035  35.239  18.601   4.427
34453W        W 6036  16.211  34.615  10.662
34454W        W 6037   7.710  19.149   0.440
34455W        W 6038   7.851  11.649   2.676
34456W        W 6039  42.400  26.701   0.360
34457W        W 6040  33.617  24.063   3.258
34458W        W 6041   5.148  32.539  12.601
34459W        W 6042  26.635  37.065   4.683
34460W        W 6043  38.395   2.505  11.648
34461W        W 6044  38.267   4.147   2.933
34462W        W 6045  16.081   8.847  14.861
34463W        W 6046  39.627  39.539   3.350
34464W        W 6047  38.985   6.639   0.371
34465W        W 6048  23.462  40.374   4.651
34466W        W 6049  36.750  25.565  11.146
34467W        W 6050   0.532  20.161  13.071
34468W        W 6051  34.593  23.518  11.403
34469W        W 6052  27.691   8.399  13.891
34470W        W 6053  10.176  17.730  12.199
34471W        W 6054  17.141  32.984   3.105
34472W        W 6055  26.547   3.722  10.522
34473W        W 6056  25.500  24.996   1.444
34474W        W 6057  23.961  21.725   3.184
34475W        W 6058  37.509  42.531  10.453
34476W        W 6059   7.794  19.996   2.667
34477W        W 6060  30.002  28.070  11.354
34478W        W 6061  32.804  20.006  10.149
34479W        W 6062  35.396   3.476   1.398
34480W        W 6063  36.401  26.455  11.067
34481W        W 6064  17.681  34.814   1.368
34482W        W 6065  37.851   4.247   0.466
34483W        W 6066  36.368  43.925   3.147
34484W        W 6067   1.300  17.305  14.548
34485W        W 6068  17.194  26.543   2.168
34486W        W 6069  12.667  17.082   0.014
34487W        W 6070  44.449  29.103   0.377
34488W        W 6071  26.703  21.626   4.572
34489W        W 6072   7.870  24.951  11.553
34490W        W 6073  20.509  22.260   4.166
34491W        W 6074  10.780  20.458  13.069
34492W        W 6075  20.668  10.297   3.391
34493W        W 6076   0.582   5.252  12.584
34494W        W 6077  40.903   1.431   1.491
34495W        W 6078   9.260  25.914  12.994
34496W        W 6079   7.839  31.948   4.668
34497W        W 6080  14.830  10.443   0.202
34498W        W 6081  12.337  38.873   0.844
34499W        W 6082  27.010  27.115  13.839
34500W        W 6083  31.409  19.878  12.558
34501W        W 6084  34.866  40.081  14.882
34502W        W 6085  20.296   5.347   0.315
34503W        W 6086  14.174  21.301   4.749
34504W        W 6087   0.642  30.815   2.741
34505W        W 6088  22.090  26.861   1.649
34506W        W 6089  26.112  25.214   2.705
34507W        W 6090  44.006  26.223   4.996
34508W        W 6091  10.604  23.690   2.341
34509W        W 6092  27.089  10.639  14.011
34510W        W 6093   8.366  13.130   0.691
34511W        W 6094  26.530   6.789  12.051
34512W        W 6095  43.534  25.880  14.947
34513W        W 6096   4.379   2.988   1.796
34514W        W 6097   7.455   3.412   2.260
34515W        W 6098  44.521   8.781  12.394
34516W        W 6099  25.965  12.775  14.928
34517W        W 6100  12.299  13.052  11.860
34518W        W 6101  38.460   7.673   2.818
34519W        W 6102  18.598   7.240  11.524
34520W        W 6103  30.803  34.524   1.718
34521W        W 6104   0.738  33.333  14.198
34522W        W 6105  39.481  25.915   1.969
34523W        W 6106  14.885  37.296  10.198
34524W        W 6107  29.851  40.054   0.835
34525W        W 6108  27.504  19.513  13.841
34526W        W 6109  13.095  22.513   1.361
34527W        W 6110  30.936  32.453   0.712
34528W        W 6111  23.556  42.894  11.166
34529W        W 6112  12.323  10.320   0.789
34530W        W 6113   6.927  28.574   3.601
34531W        W 6114  17.402  38.709   0.005
34532W        W 6115  10.710   8.377   2.893
34533W        W 6116   6.205  27.234   0.793
34534W        W 6117  19.158   2.439   2.851
34535W        W 6118   3.170  36.099   1.503
34536W        W 6119   9.467  35.342  13.024
34537W        W 6120  10.321  29.789  11.194
34538W        W 6121  27.101  36.464  12.832
34539W        W 6122  15.241  20.632  11.189
34540W        W 6123  31.033  32.833   1.204
34541W        W 6124  29.563  22.248  11.766
34542W        W 6125  32.356  20.047  11.517
34543W        W 6126   1.456  42.040  10.633
34544W        W 6127  36.562  38.818  11.538
34545W        W 6128  24.572   7.244   2.449
34546W        W 6129  39.369  14.356  12.639
34547W        W 6130  33.115  44.520   2.839
34548W        W 6131  20.732  27.714   1.699
34549W        W 6132  24.676  41.511   1.666
34550W        W 6133  26.681   5.917  10.950
34551W        W 6134  19.585  22.884   0.714
34552W        W 6135  11.329   9.779   4.541
34553W        W 6136   5.863   3.016  13.339
34554W        W 6137  19.547  29.642   4.097
34555W        W 6138  41.929   0.790  14.374
34556W        W 6139  31.468  29.675   3.351
34557W        W 6140  23.626  10.409  11.957
34558W        W 6141   9.418  25.117   2.431
34559W        W 6142  17.034  26.136  12.469
34560W        W 6143  25.725  15.644   0.354
34561W        W 6144  21.188  44.898   0.765
34562W        W 6145   5.248  29.318  14.164
34563W        W 6146   2.577  18.430   1.367
34564W        W 6147  10.636  22.194   1.763
34565W        W 6148  37.394  28.224   0.650
34566W        W 6149   0.921   8.230   1.270
34567W        W 6150  44.933  12.055  11.981
34568W        W 6151  21.225  33.685  12.350
34569W        W 6152  21.109  22.653   2.910
34570W        W 6153  42.827  24.281  11.555
34571W        W 6154  23.368   5.307   0.420
34572W        W 6155  20.256  26.527   1.838
34573W        W 6156  20.008   6.562   0.885
34574W        W 6157   0.665   5.627   0.382
34575W        W 6158  42.608  33.666   1.661
34576W        W 6159  41.362  31.633   1.094
34577W        W 6160  20.715  17.470   1.799
34578W        W 6161   4.275  30.643  12.505
34579W        W 6162  38.641  12.708  12.890
34580W        W 6163  27.104  38.271  11.817
34581W        W 6164  27.033   2.500  11.598
34582W        W 6165  11.941  33.878   3.598
34583W        W 6166  24.936  26.444   4.219
34584W        W 6167   8.931  20.182   1.294
34585W        W 6168  37.595  14.133  14.926
34586W        W 6169   9.335  31.189  13.742
34587W        W 6170  13.484   4.128   3.031
34588W        W 6171   0.713  10.980  11.605
34589W        W 6172  39.079  22.712  11.105
34590W        W 6173  40.994  22.326   1.802
34591W        W 6174  16.725  21.234  12.600
34592W        W 6175  38.856   6.454  12.697
34593W        W 6176  42.708  29.116   0.068
34594W        W 6177   9.423  40.067   0.617
34595W        W 6178  19.614  24.708  10.252
34596W        W 6179  17.453  28.376   2.366
34597W        W 6180  26.628  20.872   2.778
34598W        W 6181  11.550  37.001   0.444
34599W        W 6182  19.006  31.955   0.382
34600W        W 6183  44.723  14.171  12.716
34601W        W 6184  18.143  26.866   0.838
34602W        W 6185  13.515  36.671   5.689
34603W        W 6186  43.528  33.160  13.884
34604W        W 6187  43.336  32.339  12.415
34605W        W 6188  36.598  19.336  13.213
34606W        W 6189  23.210  27.669  13.756
34607W        W 6190  25.625  33.243   2.637
34608W        W 6191   0.656   5.830  13.633
34609W        W 6192  12.390  13.380  13.025
34610W        W 6193   3.800  38.102  12.619
34611W        W 6194  32.098  42.814   4.699
34612W        W 6195  43.869  16.084  14.362
34613W        W 6196  32.174  39.114  14.382
34614W        W 6197   9.968   5.461  11.518
34615W        W 6198  14.517  12.675   4.221
34616W        W 6199  41.938  35.214  11.640
34617W        W 6200   0.742   1.007   3.219
34618W        W 6201  39.846   0.402   0.590
34619W        W 6202  41.088  33.581  14.750
34620W        W 6203  18.688  29.085   3.320
34621W        W 6204  10.915   4.215   3.667
34622W        W 6205  34.411  18.000   3.075
34623W        W 6206  26.028  43.857   1.871
34624W        W 6207   5.551  22.073   4.037
34625W        W 6208  29.544   4.566  14.090
34626W        W 6209   7.667  40.606  12.673
34627W        W 6210   7.297  14.058  12.182
34628W        W 6211  35.628   9.119  13.947
34629W        W 6212  44.411   2.965   4.359
34630W        W 6213  39.648  37.897   3.646
34631W        W 6214  38.881  35.370   1.743
34632W        W 6215  41.993  20.553   0.261
34633W        W 6216  10.384  13.670  13.528
34634W        W 6217  28.318  28.254  13.549
34635W        W 6218  41.517  31.558   3.296
34636W        W 6219   4.441  20.883  11.259
34637W        W 6220   2.000   0.836  14.380
34638W        W 6221  26.033  16.361   3.190
34639W        W 6222  38.914  17.397  10.608
34640W        W 6223  11.383  30.721   4.304
34641W        W 6224  19.164   5.746   0.753
34642W        W 6225  29.073  35.594   0.009
34643W        W 6226  35.151  11.780   0.507
34644W        W 6227  32.158  29.808  14.476
34645W        W 6228  41.355  30.517  13.467
34646W        W 6229   7.166  41.586  11.205
34647W        W 6230  41.855  13.069  13.848
34648W        W 6231  17.600  40.759  12.033
34649W        W 6232  39.818   2.284   2.437
34650W        W 6233  31.075  14.567   1.532
34651W        W 6234   4.657  27.608   0.888
34652W        W 6235   7.401  43.257   1.375
34653W        W 6236  30.096  35.790  11.137
34654W        W 6237  28.294  32.964   3.150
34655W        W 6238  11.394  13.621  11.598
34656W        W 6239  30.983  41.088  12.891
34657W        W 6240  13.808  11.787   2.291
34658W        W 6241  42.985  42.701  10.725
34659W        W 6242  30.445  13.807  12.265
34660W        W 6243  11.717  25.651  12.996
34661W        W 6244  12.907  12.723  11.531
34662W        W 6245  19.064  25.829   2.621
34663W        W 6246  16.660   2.275   0.245
34664W        W 6247  38.481  26.907  13.302
34665W        W 6248  40.772  10.320  10.606
34666W        W 6249  31.438   7.456  11.982
34667W        W 6250  31.927  13.122   2.075
34668W        W 6251  14.647  17.606   1.306
34669W        W 6252  15.734   2.310  10.689
34670W        W 6253  15.824  32.410   2.573
34671W        W 6254  30.567  14.960  14.434
34672W        W 6255  41.889   3.169   2.435
34673W        W 6256  22.758  28.171   3.665
34674W        W 6257   8.135  25.014  12.029
34675W        W 6258  31.812  42.977  12.467
34676W        W 6259  13.603   2.264   0.324
34677W        W 6260   5.346   3.543   1.839
34678W        W 6261  11.306  25.315  12.212
34679W        W 6262  12.367  15.736  14.659
34680W        W 6263  29.163   7.045  12.543
34681W        W 6264  26.088  12.228  10.490
34682W        W 6265  23.639  23.993  13.323
34683W        W 6266   2.959  12.043  12.877
34684W        W 6267  43.131  15.793   3.754
34685W        W 6268  33.345  19.111  14.937
34686W        W 6269  23.338   3.339   2.046
34687W        W 6270  14.037  26.640   1.355
34688W        W 6271  14.328  38.638   2.823
34689W        W 6272   4.825  43.918   3.829
34690W        W 6273  44.766  35.823   1.734
34691W        W 6274  43.549  28.713  14.890
34692W        W 6275  27.129   9.775   1.583
34693W        W 6276  31.407   5.150   1.230
34694W        W 6277  21.114  19.551  11.967
34695W        W 6278   4.224   2.639  11.164
34696W        W 6279  38.565  16.569   1.830
34697W        W 6280  33.899  23.310   2.290
34698W        W 6281  10.620  16.876  13.493
34699W        W 6282  28.755   3.833  13.161
34700W        W 6283   4.189  15.563  11.016
34701W        W 6284  29.536   7.462  13.470
34702W        W 6285  41.609  16.579  12.279
34703W        W 6286  31.039  26.123   3.785
34704W        W 6287   9.814  19.796  11.493
34705W        W 6288  16.765  28.433   0.035
34706W        W 6289  21.765   7.622   0.918
34707W        W 6290   5.794  43.709  12.035
34708W        W 6291   9.305   6.893   3.589
34709W        W 6292   0.494  42.481  13.854
34710W        W 6293  17.569  37.973  12.437
34711W        W 6294  35.393  44.500  12.751
34712W        W 6295  43.862  17.223   3.512
34713W        W 6296  14.817  34.166  10.511
34714W        W 6297  24.570   3.200  10.794
34715W        W 6298  35.176  43.411  12.460
34716W        W 6299  20.754  21.074  12.182
34717W        W 6300  11.339  35.019  10.625
34718W        W 6301  10.156   3.846  12.432
34719W        W 6302  10.446  17.660   0.831
34720W        W 6303  20.653  17.369  12.430
34721W        W 6304  27.462  18.073   0.312
34722W        W 6305  37.344  42.891  11.926
34723W        W 6306  18.393  30.470   2.728
34724W        W 6307   6.774  43.855   1.441
34725W        W 6308   2.725  38.396   0.770
34726W        W 6309  23.028   8.374   1.096
34727W        W 6310  20.124  29.720  13.843
34728W        W 6311  15.906   4.333  12.172
34729W        W 6312   8.699  15.798   2.691
34730W        W 6313  16.537  32.005   3.968
34731W        W 6314  26.084  37.062   2.194
34732W        W 6315  24.150   5.530  11.899
34733W        W 6316   1.747  16.504   3.607
34734W        W 6317  36.427   3.204   3.665
34735W        W 6318  35.493  36.784  11.723
34736W        W 6319  35.290  10.310  14.666
34737W        W 6320  28.371  34.075  10.247
34738W        W 6321   5.679  41.339   3.140
34739W        W 6322  37.103  18.185  12.317
34740W        W 6323  43.780  33.777   2.270
34741W        W 6324   1.933  25.241   4.614
34742W        W 6325   1.961  13.294   1.728
34743W        W 6326  41.448   5.486   1.353
34744W        W 6327  37.435  35.518  14.689
34745W        W 6328   4.916   8.862   0.438
34746W        W 6329  18.592  44.915   1.687
34747W        W 6330  30.806  21.127   0.373
34748W        W 6331  17.450   8.552  14.455
34749W        W 6332   5.090  37.166  11.773
34750W        W 6333  26.960  40.249  12.651
34751W        W 6334  28.932  42.277   2.248
34752W        W 6335  25.776  10.329  12.591
34753W        W 6336  32.305  27.972  14.859
34754W        W 6337  36.136   8.213  10.675
34755W        W 6338  34.794  18.895   3.088
34756W        W 6339   0.960  21.246  13.488
34757W        W 6340  37.061  44.111   1.934
34758W        W 6341  10.640  27.584  14.276
34759W        W 6342  28.940  34.654   4.756
34760W        W 6343   4.217  37.898   1.689
34761W        W 6344  42.518  39.256   3.191
34762W        W 6345  10.232  10.438  10.729
34763W        W 6346  32.508  32.587   3.209
34764W        W 6347   1.006  37.048   3.659
34765W        W 6348  16.797  11.684  14.414
34766W        W 6349  17.190  36.420  12.944
34767W        W 6350  30.873   3.790  13.687
34768W        W 6351  42.867  23.961   1.955
34769W        W 6352  34.038  18.103   1.931
34770W        W 6353  15.172   5.155  13.044
34771W        W 6354   7.418  10.254   2.391
34772W        W 6355   1.486  43.854   2.427
34773W        W 6356  18.508  19.059  13.835
34774W        W 6357  30.386  37.868   4.883
34775W        W 6358  31.536   9.784  10.710
34776W        W 6359  17.302  41.153   5.067
34777W        W 6360  18.496   3.879  12.932
34778W        W 6361  32.386  25.568  14.823
34779W        W 6362   2.797  27.882   0.360
34780W        W 6363  41.342  13.000  12.892
34781W        W 6364  34.299  11.601  13.242
34782W        W 6365  37.385  36.560  11.902
34783W        W 6366  39.023  15.392   2.729
34784W        W 6367  28.027  20.246   0.206
34785W        W 6368  41.503   5.821  10.713
34786W        W 6369  32.839   2.818  13.324
34787W        W 6370   3.365  14.097  11.235
34788W        W 6371  36.605  19.642   4.129
34789W        W 6372  26.917  12.765   9.997
34790W        W 6373   2.326  20.043   3.799
34791W        W 6374   1.420  12.782   0.838
34792W        W 6375   3.518  35.406   3.871
34793W        W 6376  43.829  20.628  11.661
34794W        W 6377   1.765  12.204   0.234
34795W        W 6378  32.013  27.879   4.132
34796W        W 6379  44.355  37.041   4.551
34797W        W 6380   6.281   3.735  13.942
34798W        W 6381  33.521  43.446   4.556
34799W        W 6382  26.394  32.287   4.073
34800W        W 6383  33.379   0.715   1.380
34801W        W 6384  30.080  27.521   4.391
34802W        W 6385  33.638  38.796   5.109
34803W        W 6386  43.114  22.380   5.007
34804W        W 6387  24.053   9.451  14.748
34805W        W 6388  10.310  37.598  12.938
34806W        W 6389   9.679   7.779   1.821
34807W        W 6390  43.244  29.354   5.207
34808W        W 6391  14.082  33.600   4.160
34809W        W 6392  25.080  15.653  11.675
34810W        W 6393   5.174  33.856  14.036
34811W        W 6394  14.701  21.280   0.371
34812W        W 6395   8.799  42.557   4.138
34813W        W 6396  35.916   7.194  12.580
34814W        W 6397  10.429  21.652   3.660
34815W        W 6398  16.049  16.645   3.998
34816W        W 6399  26.517  24.030   4.871
34817W        W 6400  18.067  38.053  10.693
34818W        W 6401  16.827  33.821   3.303
34819W        W 6402  38.030  28.486  11.968
34820W        W 6403  41.722  40.617  14.707
34821W        W 6404  17.638  40.709   0.415
34822W        W 6405  21.752  18.279  11.098
34823W        W 6406  10.524  16.738   0.413
34824W        W 6407  36.043  24.586   0.750
34825W        W 6408  43.295   6.582  13.580
34826W        W 6409  36.130  42.553  14.395
34827W        W 6410  37.405  31.447   3.098
34828W        W 6411   0.433  34.092  14.046
34829W        W 6412  37.874   7.208   2.103
34830W        W 6413  12.739  10.883   0.962
34831W        W 6414   9.302  28.462   4.047
34832W        W 6415   3.277  34.105  12.521
34833W        W 6416  22.608  10.899   2.747
34834W        W 6417  32.211  20.595   0.503
34835W        W 6418   4.823  30.131   0.858
34836W        W 6419   7.029  23.987   1.825
34837W        W 6420  24.772  35.944  12.914
34838W        W 6421   0.974   6.776   2.973
34839W        W 6422  18.508  36.449  10.658
34840W        W 6423   9.991  22.685  12.003
34841W        W 6424  38.798  23.067  12.394
34842W        W 6425  10.584  32.071   2.753
34843W        W 6426  33.424  41.703  12.863
34844W        W 6427  20.134  35.599   3.224
34845W        W 6428  33.510  17.999  13.505
34846W        W 6429  27.681  16.812  12.863
34847W        W 6430  21.738   7.507  12.336
34848W        W 6431   1.283  13.719   3.127
34849W        W 6432   6.308   2.881  13.570
34850W        W 6433  27.564  16.049  13.916
34851W        W 6434   2.829  16.775  12.527
34852W        W 6435   3.265  44.388  11.052
34853W        W 6436   7.980   4.754   1.757
34854W        W 6437  26.517  34.608  14.229
34855W        W 6438  40.692  11.250  13.220
34856W        W 6439   8.903  27.057  12.374
34857W        W 6440  43.946  32.929   3.247
34858W        W 6441  20.196  40.833   1.501
34859W        W 6442  35.657  39.225  14.405
34860W        W 6443  21.218  19.053   2.721
34861W        W 6444  37.937  10.878   4.603
34862W        W 6445  15.304  37.189   9.852
34863W        W 6446  12.601  21.119   2.433
34864W        W 6447  31.900  41.949  13.826
34865W        W 6448  12.059   1.322  13.761
34866W        W 6449  21.205  21.059  14.522
34867W        W 6450  43.555   0.408  12.566
34868W        W 6451  19.340  17.869   4.910
34869W        W 6452  17.856  40.846   4.522
34870W        W 6453   5.347  25.766   0.277
34871W        W 6454  31.464  42.713   1.325
34872W        W 6455  20.745  42.066  11.562
34873W        W 6456  10.234   8.854   0.460
34874W        W 6457  17.121  32.941  12.818
34875W        W 6458  25.642  28.154   4.229
34876W        W 6459  15.804  28.416  13.847
34877W        W 6460  19.297  11.002   1.295
34878W        W 6461  38.057   1.468  11.105
34879W        W 6462  13.192  18.562  13.076
34880W        W 6463   3.523  14.299  14.049
34881W        W 6464  16.507  14.162   2.695
34882W        W 6465  12.288   4.298   3.428
34883W        W 6466  21.501   0.781   2.630
34884W        W 6467  10.169  20.243  11.303
34885W        W 6468  39.397  13.068   2.650
34886W        W 6469  19.609  37.124   3.909
34887W        W 6470  42.766  29.305   3.757
34888W        W 6471  15.463  35.126  10.262
34889W        W 6472  29.846  11.824   2.669
34890W        W 6473  34.966   0.724  11.240
34891W        W 6474  43.538  42.131  11.069
34892W        W 6475   8.767  13.267   2.684
34893W        W 6476  30.993  31.224  11.661
34894W        W 6477  28.128  40.852  14.468
34895W        W 6478  33.567  34.888   1.378
34896W        W 6479  15.162  13.345  14.108
34897W        W 6480   2.307   7.178   2.299
34898W        W 6481   0.056  41.334   4.052
34899W        W 6482  10.782  38.747  14.731
34900W        W 6483  41.914  10.341  12.848
34901W        W 6484  44.831  33.609  13.613
34902W        W 6485   4.327  34.905   0.055
34903W        W 6486  26.285  37.542   2.355
34904W        W 6487  32.490   4.943  14.396
34905W        W 6488   3.264  28.183  14.374
34906W        W 6489  43.298  28.473   3.289
34907W        W 6490  40.732  20.670  14.455
34908W        W 6491  35.784  39.857  14.022
34909W        W 6492  17.560  15.177   3.668
34910W        W 6493  15.787  26.720   4.211
34911W        W 6494   3.291  39.959   0.328
34912W        W 6495  29.841   8.140   2.244
34913W        W 6496  41.592  23.171  11.343
34914W        W 6497  30.204  23.246  14.144
34915W        W 6498  21.233   0.124  11.581
34916W        W 6499  30.696  19.741   1.995
34917W        W 6500  29.041   8.322   3.536
34918W        W 6501  23.980  14.701  10.681
34919W        W 6502   1.795  21.513   0.063
34920W        W 6503  12.374  32.713   4.872
34921W        W 6504   7.377  16.744  14.269
34922W        W 6505  31.410  35.012   3.727
34923W        W 6506  43.064  31.542   0.968
34924W        W 6507  26.620   6.437  11.578
34925W        W 6508   9.809  21.317  10.583
34926W        W 6509  35.329  35.413   4.608
34927W        W 6510   3.424  43.448  14.009
34928W        W 6511   3.726   0.491   0.462
34929W        W 6512  26.742  30.182  14.777
34930W        W 6513  42.940  33.172   3.310
34931W        W 6514  37.646  36.378   0.203
34932W        W 6515  26.113  23.091  12.403
34933W        W 6516   9.822  40.732   4.142
34934W        W 6517  27.199  18.159   2.347
34935W        W 6518  34.491  38.124  13.256
34936W        W 6519  13.823  36.809   5.279
34937W        W 6520  41.389  43.854   1.615
34938W        W 6521   5.163  12.775   2.617
34939W        W 6522  25.653  16.074  12.536
34940W        W 6523  20.332  44.323  11.889
34941W        W 6524  20.640  21.468  13.886
34942W        W 6525  35.989  15.323   2.608
34943W        W 6526  37.825   6.653  14.852
34944W        W 6527  10.713   5.201  11.086
34945W        W 6528  34.991  19.761  14.406
34946W        W 6529  10.382   7.886  10.651
34947W        W 6530  32.185   8.784   1.790
34948W        W 6531  11.398  40.038  10.755
34949W        W 6532  23.241  28.238   0.818
34950W        W 6533   6.797  39.552   2.826
34951W        W 6534   0.028  13.085   2.871
34952W        W 6535  36.628   6.976  11.783
34953W        W 6536  10.655   0.901   2.210
34954W        W 6537  12.710   8.674  13.499
34955W        W 6538  22.611  18.513  13.483
34956W        W 6539  37.885  10.269   0.442
34957W        W 6540  16.336  27.044   2.329
34958W        W 6541  35.430   1.256   2.842
34959W        W 6542  11.333  22.155  12.424
34960W        W 6543  33.741  32.409  10.809
34961W        W 6544   0.044  15.655   4.298
34962W        W 6545   3.612  19.336   0.446
34963W        W 6546  15.257   7.275   0.180
34964W        W 6547  32.494   6.063   2.563
34965W        W 6548  17.346  41.519  13.531
34966W        W 6549   8.777  37.037  12.131
34967W        W 6550  28.111  30.425  12.922
34968W        W 6551  11.227  36.604  13.548
34969W        W 6552   0.847  25.002   5.064
34970W        W 6553  16.191  16.656   3.042
34971W        W 6554  23.977  43.399   1.312
34972W        W 6555  24.029  34.278   2.147
34973W        W 6556  23.435  20.099  12.535
34974W        W 6557  41.317  30.020  12.483
34975W        W 6558   0.257  19.811  12.159
34976W        W 6559  35.899  34.638  11.089
34977W        W 6560  31.564  32.573   3.202
34978W        W 6561  31.229  43.965  13.965
34979W        W 6562  27.454  18.577   2.893
34980W        W 6563  25.636  21.614  10.737
34981W        W 6564  39.810  22.021   0.856
34982W        W 6565  16.753  38.317  11.052
34983W        W 6566  39.118  30.700  10.267
34984W        W 6567  22.773  23.760  10.444
34985W        W 6568  20.362  16.067   4.677
34986W        W 6569   5.828  14.519   3.584
34987W        W 6570   0.501  10.826   0.010
34988W        W 6571  38.319  32.641  11.131
34989W        W 6572  27.950   5.625   4.088
34990W        W 6573  35.912   3.709  11.544
34991W        W 6574  33.485  22.113  13.915
34992W        W 6575  27.674  32.739   4.434
34993W        W 6576  14.380  29.691   3.694
34994W        W 6577   4.619  40.860  14.944
34995W        W 6578   6.488  25.016  10.672
34996W        W 6579  24.417  13.775   1.384
34997W        W 6580  43.318  20.721   2.638
34998W        W 6581  32.462  22.767   1.855
34999W        W 6582  37.306  35.012   1.670
35000W        W 6583  15.409  22.782   0.286
35001W        W 6584  34.880  19.249  13.405
35002W        W 6585  35.500  30.913   0.035
35003W        W 6586  41.808  29.949   2.131
35004W        W 6587   4.632  19.879   3.607
35005W        W 6588  29.182  19.107  11.037
35006W        W 6589  43.608  16.242  11.917
35007W        W 6590   3.660  35.127  11.924
35008W        W 6591  13.769  36.345   2.915
35009W        W 6592   2.227   2.471  12.993
35010W        W 6593  28.448  28.616  12.396
35011W        W 6594   5.878   8.142  11.956
35012W        W 6595  11.808   9.647   0.305
35013W        W 6596  38.289  21.350  11.139
35014W        W 6597  34.581   1.972   4.563
35015W        W 6598  41.427   8.193  10.681
35016W        W 6599  36.771  43.484  10.719
35017W        W 6600  34.757  26.962   0.376
35018W        W 6601  40.440   8.068   9.881
35019W        W 6602  31.015   5.912   3.220
35020W        W 6603  32.634  10.310   1.271
35021W        W 6604  36.501  31.362  10.514
35022W        W 6605  39.676  27.632  14.833
35023W        W 6606  23.504   1.008   4.151
35024W        W 6607  19.648  29.249   9.995
35025W        W 6608  10.969  24.971  12.026
35026W        W 6609   6.317  23.067   0.498
35027W        W 6610  31.993  27.217  14.521
35028W        W 6611  22.994  22.165  10.795
35029W        W 6612  36.377  25.283   4.477
35030W        W 6613  41.965  20.331   1.223
35031W        W 6614  10.906  43.474  12.460
35032W        W 6615  36.135   5.201   1.381
35033W        W 6616  14.845  37.590   0.297
35034W        W 6617   8.849  40.846   0.381
35035W        W 6618  15.208  10.753   2.945
35036W        W 6619  39.483  42.942   0.316
35037W        W 6620   1.477  13.321   0.805
35038W        W 6621  26.942   1.538   4.133
35039W        W 6622  10.439   2.756   3.572
35040W        W 6623   8.920  43.340  13.975
35041W        W 6624  43.548  10.667  12.082
35042W        W 6625  35.476  22.605   0.414
35043W        W 6626  26.398  24.765  11.615
35044W        W 6627  35.115  42.889  12.999
35045W        W 6628  13.117  40.274   4.110
35046W        W 6629  44.318   1.875  14.440
35047W        W 6630  27.077  17.813  10.716
35048W        W 6631  42.233  35.298  12.122
35049W        W 6632  36.878  18.880  10.572
35050W        W 6633  22.358  30.856   0.456
35051W        W 6634  23.634  25.627  11.223
35052W        W 6635  27.128  42.372  14.424
35053W        W 6636  18.440   1.954   2.326
35054W        W 6637  22.482  27.630   4.516
35055W        W 6638   8.003  29.172  12.833
35056W        W 6639   3.187  30.771   1.775
35057W        W 6640  25.213   7.394  12.333
35058W        W 6641   6.078  32.043   3.795
35059W        W 6642  19.363  14.497   1.784
35060W        W 6643   9.335  29.550  11.701
35061W        W 6644  10.112  41.906  12.932
35062W        W 6645  43.379  27.273  11.164
35063W        W 6646  21.299  17.015   5.529
35064W        W 6647  21.992  41.125  14.999
35065W        W 6648  34.408  17.355  12.466
35066W        W 6649  38.746  27.232   1.917
35067W        W 6650  41.289  13.071  14.253
35068W        W 6651   4.763   9.713  14.273
35069W        W 6652  37.124  23.725  14.563
35070W        W 6653  17.218  39.445   3.378
35071W        W 6654  39.781  27.213  12.924
35072W        W 6655   6.342  20.119  13.671
35073W        W 6656  36.245   4.143   1.948
35074W        W 6657  26.557  18.549   1.202
35075W        W 6658  20.639   0.721  10.641
35076W        W 6659   2.791  15.247   1.028
35077W        W 6660  38.793   5.517  10.582
35078W        W 6661  40.989  18.629  13.873
35079W        W 6662  28.412  23.430  11.269
35080W        W 6663  38.431   8.824   3.738
35081W        W 6664   1.430  25.547  10.538
35082W        W 6665   9.373  44.158  13.392
35083W        W 6666  13.777  41.962   0.277
35084W        W 6667   5.666  18.177   3.428
35085W        W 6668  13.077  18.084  14.414
35086W        W 6669  21.523  19.282  12.905
35087W        W 6670  31.153  33.029  10.643
35088W        W 6671   7.730  26.791   3.219
35089W        W 6672  19.225  24.984  14.572
35090W        W 6673  15.840  10.321   1.287
35091W        W 6674   4.933   6.639  13.713
35092W        W 6675   7.926   7.878  13.483
35093W        W 6676   7.823  23.787   2.198
35094W        W 6677  10.583  34.110  10.823
35095W        W 6678   4.085  16.576   0.869
35096W        W 6679   7.403  17.306  12.536
35097W        W 6680  29.501  10.701   1.870
35098W        W 6681  36.973  23.166  13.899
35099W        W 6682  41.598  27.163  12.397
35100W        W 6683  16.182  26.448  14.743
35101W        W 6684   5.235   2.779  12.185
35102W        W 6685  28.315  17.941   1.808
35103W        W 6686  31.695  39.562  11.965
35104W        W 6687   4.374   5.388  12.173
35105W        W 6688  17.347  34.414   0.051
35106W        W 6689   4.910  15.849   2.516
35107W        W 6690  15.015  39.763   0.752
35108W        W 6691   0.422  36.357   1.192
35109W        W 6692   3.274  41.827   1.326
35110W        W 6693  34.600  39.563  11.298
35111W        W 6694   0.238  11.651  12.105
35112W        W 6695  17.041  37.396   2.419
35113W        W 6696  10.733   8.328  12.998
35114W        W 6697  41.067  18.138   0.853
35115W        W 6698  19.514  40.142  13.051
35116W        W 6699  25.607  11.048  10.750
35117W        W 6700  35.036  28.171  12.139
35118W        W 6701  23.559  11.880   1.790
35119W        W 6702  37.920  11.628   4.589
35120W        W 6703  13.254  43.809   1.075
35121W        W 6704  19.622  41.008  14.476
35122W        W 6705  38.415  21.174  13.780
35123W        W 6706  35.563  29.354   4.425
35124W        W 6707   3.195  10.089   0.517
35125W        W 6708   0.800   8.509  12.534
35126W        W 6709  35.540  20.013  13.790
35127W        W 6710  20.360   8.439  11.940
35128W        W 6711  30.541   0.370  10.665
35129W        W 6712  42.279  28.032   4.334
35130W        W 6713  27.771  22.150  11.949
35131W        W 6714  22.055   9.842  13.393
35132W        W 6715   1.790  22.026   3.382
35133W        W 6716  28.962  39.790   3.295
35134W        W 6717  26.061   1.227   0.031
35135W        W 6718  42.810  38.971  13.428
35136W        W 6719  19.081   1.990   3.078
35137W        W 6720  27.929  25.593  14.919
35138W        W 6721  12.287  19.356   3.653
35139W        W 6722  16.630  25.721  12.034
35140W        W 6723  10.869  24.027   4.108
35141W        W 6724  15.773  14.627  14.753
35142W        W 6725  24.245  22.994  11.552
35143W        W 6726  27.093  27.887   4.593
35144W        W 6727  30.038  14.860  11.163
35145W        W 6728  21.886  16.053   2.564
35146W        W 6729   3.724  21.193   4.574
35147W        W 6730   2.248  41.878   4.557
35148W        W 6731  16.025   9.158  14.446
35149W        W 6732  35.817  11.349  13.002
35150W        W 6733  41.881  28.735  12.517
35151W        W 6734  14.330  13.737  13.478
35152W        W 6735   6.848  30.406  11.669
35153W        W 6736  41.121  12.090  13.667
35154W        W 6737  35.886  31.385   0.526
35155W        W 6738   2.661  16.316  11.924
35156W        W 6739  33.645  26.474  10.749
35157W        W 6740  22.714  35.844   3.774
35158W        W 6741  18.414  42.848   4.945
35159W        W 6742  15.630  38.015   3.193
35160W        W 6743  17.301  44.311  10.451
35161W        W 6744  25.262  12.326  14.751
35162W        W 6745  27.245  39.263  12.482
35163W        W 6746  43.872  29.344  12.995
35164W        W 6747  13.092  24.686  14.865
35165W        W 6748  36.105   3.434   0.866
35166W        W 6749  42.896  29.606  14.854
35167W        W 6750   6.994  10.579   1.133
35168W        W 6751   4.594  22.639   1.948
35169W        W 6752   6.668  31.545  10.699
35170W        W 6753  24.063  38.196   3.744
35171W        W 6754  12.917  24.222  14.385
35172W        W 6755  14.340  11.733  14.961
35173W        W 6756  12.313  32.928  11.590
35174W        W 6757  42.935  14.967  12.996
35175W        W 6758  32.875  19.988   5.112
35176W        W 6759   2.402  42.708  12.515
35177W        W 6760  38.466   5.395   0.381
35178W        W 6761  43.906  25.141   1.244
35179W        W 6762  32.142  36.974   0.048
35180W        W 6763   0.480  21.027   1.231
35181W        W 6764   4.583  35.913  11.562
35182W        W 6765   0.395   7.866  12.434
35183W        W 6766  21.993  22.509   3.281
35184W        W 6767  27.095  19.206   2.266
35185W        W 6768   8.765   0.562   2.680
35186W        W 6769  24.447  15.802   2.786
35187W        W 6770  19.834  13.295  11.037
35188W        W 6771   6.169   4.804  13.352
35189W        W 6772  13.264  13.641   1.931
35190W        W 6773  18.137  22.715   3.243
35191W        W 6774  30.308  14.140  10.784
35192W        W 6775  21.633  41.258   3.663
35193W        W 6776   1.289  13.446   3.559
35194W        W 6777   5.044  29.695  13.314
35195W        W 6778   4.359   5.833  11.803
35196W        W 6779   3.445  36.948   4.508
35197W        W 6780  20.946  13.362   4.831
35198W        W 6781  29.387  11.087   4.167
35199W        W 6782  26.347   8.543  11.478
35200W        W 6783  18.297  39.283  10.767
35201W        W 6784   0.266  39.473  14.764
35202W        W 6785  17.193  31.912  14.907
35203W        W 6786   2.790  38.964  13.519
35204W        W 6787  40.320  25.932   3.230
35205W        W 6788  23.242  27.126  13.597
35206W        W 6789   0.781  27.139  10.937
35207W        W 6790  43.540  33.343   1.931
35208W        W 6791  24.908  31.087   2.704
35209W        W 6792   9.570  43.876  14.746
35210W        W 6793   8.234  20.545  14.767
35211W        W 6794   8.231  35.399   4.241
35212W        W 6795  27.976   5.431  14.473
35213W        W 6796  12.762  21.484   4.898
35214W        W 6797   4.928   4.322  11.601
35215W        W 6798  41.946  42.224  11.659
35216W        W 6799  27.600  17.013   4.078
35217W        W 6800   1.178   6.392  13.019
35218W        W 6801   0.932  17.329   0.878
35219W        W 6802  24.150  38.403  12.958
35220W        W 6803  28.022  13.735  10.520
35221W        W 6804  24.506  41.664   2.871
35222W        W 6805  11.611  27.462  10.776
35223W        W 6806  31.416   8.076   4.060
35224W        W 6807   7.284   8.176  13.926
35225W        W 6808  34.998  38.654  11.127
35226W        W 6809   9.870   3.395  10.684
35227W        W 6810  40.186  35.020  14.173
35228W        W 6811   8.451  41.486   0.900
35229W        W 6812  26.556  29.334  14.614
35230W        W 6813  33.503   5.020   2.396
35231W        W 6814   9.166  24.673  14.458
35232W        W 6815  15.152  30.875   1.880
35233W        W 6816  36.383  16.575   0.846
35234W        W 6817  17.070  20.580   1.735
35235W        W 6818  11.824  12.690  10.264
35236W        W 6819   0.581  35.491   2.671
35237W        W 6820  37.899   3.616   4.965
35238W        W 6821  42.936  20.580  11.585
35239W        W 6822  19.442  19.143  12.418
35240W        W 6823  27.915  39.343   4.622
35241W        W 6824  24.233  41.336  12.960
35242W        W 6825  22.540  27.646  14.657
35243W        W 6826  35.571  17.866  13.424
35244W        W 6827   2.689   9.239   0.037
35245W        W 6828  36.970  39.951   2.663
35246W        W 6829  43.733  39.566  13.776
35247W        W 6830   5.249   1.861  10.694
35248W        W 6831  35.856  11.040   0.294
35249W        W 6832  21.626   5.993  11.231
35250W        W 6833  12.194   6.290   0.247
35251W        W 6834  43.320  23.053   2.295
35252W        W 6835   1.970   2.855   0.562
35253W        W 6836  12.211   4.972   1.717
35254W        W 6837   2.747  19.640   1.951
35255W        W 6838  38.579  42.473   3.288
35256W        W 6839  31.890   1.265   3.928
35257W        W 6840   7.842   6.781   0.372
35258W        W 6841  19.938   3.815  12.125
35259W        W 6842   6.736  42.230   3.590
35260W        W 6843  32.562  16.589  13.704
35261W        W 6844  23.667  11.869  13.562
35262W        W 6845  43.802  22.594  13.334
35263W        W 6846  26.032  18.803  10.753
35264W        W 6847   8.888  41.454  11.561
35265W        W 6848  43.353  33.665  13.925
35266W        W 6849  11.508  15.813   0.311
35267W        W 6850  23.293  38.850   3.739
35268W        W 6851  26.128   5.516   0.605
35269W        W 6852  18.845  24.852  12.973
35270W        W 6853   4.351   4.520   2.833
35271W        W 6854  25.607  41.883   0.782
35272W        W 6855  27.439  19.665   0.241
35273W        W 6856   9.327  43.367   2.901
35274W        W 6857   0.047  22.033  11.090
35275W        W 6858  22.502   2.268  14.280
35276W        W 6859  27.924  29.965  12.162
35277W        W 6860  20.459   9.568  11.418
35278W        W 6861  18.747  10.973  13.492
35279W        W 6862  16.533  35.956   3.930
35280W        W 6863  21.065  43.728  11.991
35281W        W 6864  43.522  14.247  13.990
35282W        W 6865  26.584  10.289  12.925
35283W        W 6866  29.889  38.505  14.255
35284W        W 6867  24.622  16.294   0.739
35285W        W 6868  32.034  16.046  11.504
35286W        W 6869  29.651  17.379  14.542
35287W        W 6870  41.364   2.391  12.589
35288W        W 6871   9.249  31.191   0.455
35289W        W 6872  38.094  39.099  12.285
35290W        W 6873  26.391  38.701  12.293
35291W        W 6874  24.989  28.076   3.275
35292W        W 6875  19.862   9.854  10.020
35293W        W 6876  40.048  26.681  14.484
35294W        W 6877  18.253   3.338  11.990
35295W        W 6878  10.269  38.327  13.562
35296W        W 6879  42.583   9.357  14.992
35297W        W 6880  34.621  13.728   0.050
35298W        W 6881  36.365  42.831   2.490
35299W        W 6882  28.685   6.093  13.395
35300W        W 6883  15.630  38.637   2.302
35301W        W 6884  25.073  26.603   1.144
35302W        W 6885  39.202  28.395  10.754
35303W        W 6886  16.213  34.985   9.532
35304W        W 6887  36.305  28.431   3.788
35305W        W 6888  11.846  36.549  13.912
35306W        W 6889  36.281  24.621  14.861
35307W        W 6890  29.766  12.267  11.571
35308W        W 6891  39.464   5.696   1.263
35309W        W 6892   3.585  11.041   0.320
35310W        W 6893   1.224  19.609  14.240
35311W        W 6894  41.687   7.645  11.120
35312W        W 6895  12.727  10.091   0.567
35313W        W 6896  33.687  29.410  13.899
35314W        W 6897   3.305  36.859   4.989
35315W        W 6898  29.158  43.913  13.872
35316W        W 6899  14.441  35.478  13.214
35317W        W 6900   0.698  24.832  12.582
35318W        W 6901  37.837  19.295  13.085
35319W        W 6902   3.486  24.418  11.941
35320W        W 6903   0.201  41.023  11.036
35321W        W 6904  12.618   1.298  13.967
35322W        W 6905  44.080  37.879  13.630
35323W        W 6906   3.322  32.208  11.234
35324W        W 6907  27.577   8.751   5.042
35325W        W 6908  27.344   5.947   0.604
35326W        W 6909   0.207  25.313  14.389
35327W        W 6910   5.344  35.407   4.873
35328W        W 6911  18.782  15.228   1.327
35329W        W 6912  12.456  23.211  12.826
35330W        W 6913  44.292  44.594   2.255
35331W        W 6914  31.077  18.301   3.073
35332W        W 6915  40.959   6.808   1.251
35333W        W 6916  15.097  42.475   4.626
35334W        W 6917  28.473  13.253   2.265
35335W        W 6918  44.979  31.634  12.904
35336W        W 6919   6.757  12.340   0.454
35337W        W 6920   1.756  13.620   3.296
35338W        W 6921  19.741  26.447   4.912
35339W        W 6922   8.422  15.353   0.748
35340W        W 6923   1.415  20.773   0.671
35341W        W 6924  32.110  28.013  14.321
35342W        W 6925  38.595   9.955   2.752
35343W        W 6926   8.332  28.741  12.113
35344W        W 6927  25.223  34.019   2.358
35345W        W 6928  39.860  14.377   0.919
35346W        W 6929   5.687   3.938   2.551
35347W        W 6930   5.022  12.691   0.532
35348W        W 6931  43.756  44.902   0.185
35349W        W 6932  33.489  24.540   2.690
35350W        W 6933  41.106   0.476  11.993
35351W        W 6934   3.041  26.750   1.220
35352W        W 6935  13.964  25.590   4.594
35353W        W 6936   6.710  24.200   2.614
35354W        W 6937   7.133   0.028  14.526
35355W        W 6938  40.852  12.770   3.591
35356W        W 6939  15.737  27.464   3.123
35357W        W 6940  28.332  44.021   4.169
35358W        W 6941  14.507  19.197  11.111
35359W        W 6942  43.452  17.477  10.700
35360W        W 6943  14.074  12.819   0.355
35361W        W 6944  21.058  30.056   4.757
35362W        W 6945  40.153  12.747   1.442
35363W        W 6946  36.383  22.099  10.622
35364W        W 6947  26.258   7.394  12.570
35365W        W 6948   6.232  24.909   5.121
35366W        W 6949  19.425  20.542   3.812
35367W        W 6950   2.713  12.074   2.580
35368W        W 6951  25.723  35.562  12.594
35369W        W 6952  44.164  42.921  10.980
35370W        W 6953  10.270  26.937   4.702
35371W        W 6954  25.117  39.367   1.424
35372W        W 6955   5.513   0.853  12.481
35373W        W 6956   3.965  32.731   0.804
35374W        W 6957  24.632  33.099  13.420
35375W        W 6958  26.227  40.758   1.189
35376W        W 6959  28.712  28.140  12.406
35377W        W 6960   8.364   9.930   0.418
35378W        W 6961  12.402  24.182  14.465
35379W        W 6962   1.212  24.191   0.916
35380W        W 6963   3.166  42.292   3.586
35381W        W 6964  15.186   7.688   1.354
35382W        W 6965  14.203  13.115  12.796
35383W        W 6966  33.600  43.585  10.725
35384W        W 6967  17.755  17.833   2.287
35385W        W 6968  20.553  34.115   2.284
35386W        W 6969  18.318  11.125  11.696
35387W        W 6970  26.710  30.079   0.719
35388W        W 6971  19.570   5.789  10.780
35389W        W 6972  43.550  19.824  12.899
35390W        W 6973  20.240   9.144  13.574
35391W        W 6974  12.173  28.483   3.102
35392W        W 6975   1.503  18.073  13.429
35393W        W 6976  30.637  36.821  12.923
35394W        W 6977  44.239  23.389   2.844
35395W        W 6978   6.677   3.819  14.310
35396W        W 6979   8.869  13.282  11.033
35397W        W 6980  42.890  41.940   4.550
35398W        W 6981  14.298  39.849   3.388
35399W        W 6982   9.785   0.292   2.291
35400W        W 6983   5.234  28.440  10.778
35401W        W 6984  25.810  13.860   4.791
35402W        W 6985  15.195  42.589   1.725
35403W        W 6986  42.104  33.050  12.555
35404W        W 6987   4.894  37.920   0.990
35405W        W 6988   8.189   4.845  11.578
35406W        W 6989   7.376  24.977  10.651
35407W        W 6990  13.411  21.194  11.566
35408W        W 6991  42.883  34.522  14.320
35409W        W 6992  19.912  23.714  12.661
35410W        W 6993  16.352   6.649   3.688
35411W        W 6994  16.561  32.018  14.393
35412W        W 6995   0.802   2.955   4.329
35413W        W 6996  27.150  26.606   1.871
35414W        W 6997  40.273  20.137  13.843
35415W        W 6998  26.031   1.883  13.750
35416W        W 6999  10.401  24.751   4.165
35417W        W 7000  21.574  16.738   5.002
35418W        W 7001  23.502   4.834   1.458
35419W        W 7002  42.575   5.457   2.141
35420W        W 7003  15.647   7.433   1.254
35421W        W 7004   7.659   5.345   0.924
35422W        W 7005   5.747   0.459   2.301
35423W        W 7006  27.620  29.517  11.035
35424W        W 7007   9.402  33.393  11.238
35425W        W 7008  29.466  11.232  12.150
35426W        W 7009  18.102   4.236  12.940
35427W        W 7010  28.447  22.959  10.621
35428W        W 7011  21.193   9.134  11.198
35429W        W 7012   1.567  22.314  11.094
35430W        W 7013   2.525  39.119   0.217
35431W        W 7014  30.251  12.065   5.055
35432W        W 7015   5.214  29.031   2.716
35433W        W 7016  15.859  41.526   0.488
35434W        W 7017  27.423  17.817  13.577
35435W        W 7018  22.012  35.226  11.656
35436W        W 7019  42.801  10.442  11.690
35437W        W 7020  27.922  22.245  14.036
35438W        W 7021  31.591  18.496   4.232
35439W        W 7022  20.598  15.092   2.864
35440W        W 7023  42.105  20.496  12.932
35441W        W 7024  31.659  32.528  14.896
35442W        W 7025   1.517   2.897   2.871
35443W        W 7026  27.030  16.695   1.386
35444W        W 7027  32.552  29.509   2.645
35445W        W 7028  42.065  35.987  13.859
35446W        W 7029  10.718  15.707   4.078
35447W        W 7030  10.072  22.625   4.283
35448W        W 7031  35.304  20.792   0.300
35449W        W 7032  15.363  16.201   2.944
35450W        W 7033  22.095   0.528  11.207
35451W        W 7034  16.623  37.569   5.562
35452W        W 7035   5.917  32.521  11.483
35453W        W 7036  39.825  30.464   1.923
35454W        W 7037  31.325   3.675   3.629
35455W        W 7038   0.275  23.212  14.885
35456W        W 7039  17.727  35.523  14.280
35457W        W 7040  13.195  17.829  11.099
35458W        W 7041  22.152  41.730  13.377
35459W        W 7042  15.203  15.735   0.279
35460W        W 7043  34.908  35.120   0.864
35461W        W 7044  39.519   9.202  10.228
35462W        W 7045   9.939  38.323  10.375
35463W        W 7046  37.806  28.779  11.622
35464W        W 7047  42.336  38.986   3.915
35465W        W 7048  30.517  16.821   1.491
35466W        W 7049  11.185  25.809   1.826
35467W        W 7050   7.957  38.963   4.830
35468W        W 7051  12.184  28.640  11.358
35469W        W 7052  21.249   1.978   2.225
35470W        W 7053  17.184  26.517  11.114
35471W        W 7054  15.960   8.908  11.191
35472W        W 7055   4.388  39.485   2.714
35473W        W 7056  18.386  42.083   3.138
35474W        W 7057  18.142  18.162  13.997
35475W        W 7058  21.749  26.051  11.527
35476W        W 7059  43.501  12.634   3.645
35477W        W 7060   1.503   2.278   2.261
35478W        W 7061  33.951  34.560  13.421
35479W        W 7062   1.177  43.733   1.996
35480W        W 7063   4.310   3.312   1.396
35481W        W 7064   0.263  13.007  13.925
35482W        W 7065  37.051  19.354   1.766
35483W        W 7066  36.831  37.196   4.278
35484W        W 7067  21.062  38.808  11.447
35485W        W 7068  26.709  43.309  10.873
35486W        W 7069  41.335  43.487  14.040
35487W        W 7070  44.898  39.412  10.522
35488W        W 7071  32.440  10.531  11.816
35489W        W 7072   3.263  32.543  14.997
35490W        W 7073  14.216  40.847   3.560
35491W        W 7074   1.922  30.339   4.604
35492W        W 7075   2.863  25.241  10.568
35493W        W 7076  23.829  15.549   4.137
35494W        W 7077  11.275  27.532   1.001
35495W        W 7078  43.222  14.263  12.361
35496W        W 7079  26.444  43.433  14.725
35497W        W 7080  44.218  42.045  12.179
35498W        W 7081  12.746  26.135   0.996
35499W        W 7082  16.614  27.005  14.796
35500W        W 7083  34.422  30.140   0.707
35501W        W 7084   8.680  33.154   3.225
35502W        W 7085   3.807  16.416  11.128
35503W        W 7086   7.442  40.403  14.924
35504W        W 7087   5.270   5.425  12.213
35505W        W 7088  12.192  37.502   0.412
35506W        W 7089  33.084  26.898   3.638
35507W        W 7090  20.819  25.994   4.052
35508W        W 7091  19.768  42.472   1.502
35509W        W 7092  33.525  38.596  14.486
35510W        W 7093  28.135  27.759  13.429
35511W        W 7094  22.488  19.251  12.975
35512W        W 7095  37.929   1.679  10.649
35513W        W 7096  17.324  28.890   3.243
35514W        W 7097   1.305  21.524   0.252
35515W        W 7098  44.980  35.657  14.008
35516W        W 7099   4.738  27.782  10.115
35517W        W 7100  39.246  21.707  13.360
35518W        W 7101  30.471  19.876  13.535
35519W        W 7102  25.016  20.030   2.151
35520W        W 7103  25.102   1.869   3.564
35521W        W 7104  32.553  44.952   4.603
35522W        W 7105  14.618  40.471  14.953
35523W        W 7106  16.751  25.674  13.500
35524W        W 7107   1.728  14.176  13.245
35525W        W 7108  15.726  26.676  12.474
35526W        W 7109  30.433  25.053   1.945
35527W        W 7110  34.901  17.132  10.879
35528W        W 7111  19.775  41.423  11.021
35529W        W 7112  16.292  36.412  14.899
35530W        W 7113  26.008   2.573   1.240
35531W        W 7114  29.486  12.813  13.128
35532W        W 7115   6.563   0.193  11.443
35533W        W 7116  18.156  37.834   3.941
35534W        W 7117  27.162  44.528  14.472
35535W        W 7118  39.354  13.268  12.526
35536W        W 7119   6.897  17.253  13.753
35537W        W 7120  15.373   9.140   4.130
35538W        W 7121  20.689  18.808  12.429
35539W        W 7122  23.517  19.047   4.597
35540W        W 7123  28.857   5.881  11.632
35541W        W 7124  20.503  16.230  14.010
35542W        W 7125  27.956  34.712  12.920
35543W        W 7126  33.676   3.861   1.833
35544W        W 7127   2.339  28.203   5.015
35545W        W 7128  29.513  41.788   0.788
35546W        W 7129  37.474  34.859   2.636
35547W        W 7130  11.718  15.440  11.638
35548W        W 7131  43.397   4.475  10.840
35549W        W 7132  11.323  27.110   1.343
35550W        W 7133  38.336  34.473   3.313
35551W        W 7134  11.846   8.671  14.364
35552W        W 7135  27.104  36.012  10.441
35553W        W 7136  38.662  14.522   2.688
35554W        W 7137  12.343  10.645   1.730
35555W        W 7138  27.343   2.047   3.660
35556W        W 7139   4.794  12.158   1.198
35557W        W 7140  35.665  35.426  13.530
35558W        W 7141  39.828  16.874   1.429
35559W        W 7142  12.246  19.895  10.636
35560W        W 7143  27.624   0.768   3.188
35561W        W 7144  25.662  10.307   5.664
35562W        W 7145   2.916   1.243   3.930
35563W        W 7146  14.048  12.910   4.188
35564W        W 7147  35.685  31.493  10.792
35565W        W 7148  20.914  19.444   9.907
35566W        W 7149   6.691   5.447   1.748
35567W        W 7150  23.588  18.632   2.656
35568W        W 7151   1.552  15.118   4.627
35569W        W 7152   6.758  35.008   3.331
35570W        W 7153  22.264  13.770  13.909
35571W        W 7154  17.671  12.741   2.778
35572W        W 7155  21.518  43.152   2.663
35573W        W 7156   1.773  42.798   3.752
35574W        W 7157  31.970  26.117  10.926
35575W        W 7158  36.999   1.078  14.870
35576W        W 7159  29.590  17.283  10.696
35577W        W 7160  25.760  36.092   5.123
35578W        W 7161  12.105  22.294  13.515
35579W        W 7162  11.852  34.182  14.448
35580W        W 7163  41.944  41.294  10.810
35581W        W 7164  29.607  27.862  12.082
35582W        W 7165  23.973  10.666  11.156
35583W        W 7166  18.784  26.037   2.172
35584W        W 7167  24.621  42.279  11.399
35585W        W 7168   4.614  23.448   1.243
35586W        W 7169  31.211  30.457   3.703
35587W        W 7170  44.029  36.117  10.642
35588W        W 7171  23.784  35.277   3.683
35589W        W 7172  44.064  34.909  11.097
35590W        W 7173   9.210   4.184  11.624
35591W        W 7174  34.877  18.229  14.926
35592W        W 7175  12.767  19.619  13.290
35593W        W 7176   4.275   7.464   2.155
35594W        W 7177   3.347  26.174   4.143
35595W        W 7178  27.902   6.859  13.362
35596W        W 7179  17.162  27.924   0.825
35597W        W 7180  33.079  30.485   4.528
35598W        W 7181   9.406   7.779   4.118
35599W        W 7182  43.255  15.293  13.922
35600W        W 7183  22.895  43.235   2.119
35601W        W 7184  37.081  13.009  11.118
35602W        W 7185  35.398   9.737   2.158
35603W        W 7186  37.050  41.592   4.251
35604W        W 7187   4.368  20.002   4.823
35605W        W 7188  31.084   7.825  10.748
35606W        W 7189  36.529   4.527   3.166
35607W        W 7190  19.233  38.840   4.502
35608W        W 7191  32.402  17.931   4.171
35609W        W 7192  44.164  28.703   0.624
35610W        W 7193  18.969   3.316   2.808
35611W        W 7194  29.735  21.262   5.655
35612W        W 7195  39.471   5.919  10.582
35613W        W 7196  17.627   1.764   1.386
35614W        W 7197  34.830   4.737  12.060
35615W        W 7198   0.684  14.230   4.085
35616W        W 7199  39.873  36.886  12.582
35617W        W 7200  35.312  11.407  13.025
35618W        W 7201  12.347  40.821  12.991
35619W        W 7202  31.441  37.424  14.939
35620W        W 7203   2.464   0.903  10.463
35621W        W 7204  30.447  23.116   4.546
35622W        W 7205  22.048  39.249   2.178
35623W        W 7206  16.059  12.648  11.487
35624W        W 7207  17.895  29.375  11.142
35625W        W 7208  40.033  44.857  14.273
35626W        W 7209  40.966  32.638  14.612
35627W        W 7210  28.511  40.436   2.669
35628W        W 7211  34.811  20.935   5.026
35629W        W 7212  12.723  19.676   4.862
35630W        W 7213  32.152  44.023   0.771
35631W        W 7214  18.291   3.077  14.047
35632W        W 7215   3.454  43.534   3.969
35633W        W 7216   0.380  30.032   4.627
35634W        W 7217  18.429  21.246  10.317
35635W        W 7218  25.973  37.992   1.229
35636W        W 7219  13.602  21.701   3.855
35637W        W 7220   6.693   4.703   2.931
35638W        W 7221  11.855  44.113  13.325
35639W        W 7222  30.085  29.426   4.675
35640W        W 7223  22.430  23.966   1.890
35641W        W 7224  19.235  29.999   2.479
35642W        W 7225  19.640  24.577   4.043
35643W        W 7226  16.945   8.559  14.362
35644W        W 7227  32.414  36.491  13.859
35645W        W 7228  27.087  11.246  13.274
35646W        W 7229  33.206  33.919  12.453
35647W        W 7230  39.332  25.540   3.173
35648W        W 7231  22.518  33.877  12.948
35649W        W 7232  28.439  37.280  13.826
35650W        W 7233  10.152  41.948   2.083
35651W        W 7234  32.211   4.357  10.546
35652W        W 7235  42.289   0.837   2.887
35653W        W 7236  34.067  15.778  13.400
35654W        W 7237  20.558  41.168   1.042
35655W        W 7238  11.872   9.362   0.738
35656W        W 7239  43.585  10.979  14.033
35657W        W 7240  26.134   8.373  14.000
35658W        W 7241  15.264  11.371  11.416
35659W        W 7242  15.776  12.806   3.863
35660W        W 7243  35.478   8.776  11.606
35661W        W 7244   7.835  14.115   3.658
35662W        W 7245  32.453  26.717  13.048
35663W        W 7246   4.689  22.728   0.206
35664W        W 7247   3.731  16.121   2.148
35665W        W 7248   8.613  29.437  10.593
35666W        W 7249   9.993  32.627  11.441
35667W        W 7250  29.384  25.548  11.089
35668W        W 7251  10.865  23.330   4.611
35669W        W 7252  19.645  44.869  14.308
35670W        W 7253   3.061  36.028   2.840
35671W        W 7254  19.222  18.164   4.471
35672W        W 7255  33.475   4.360   4.189
35673W        W 7256  13.296  28.004  11.986
35674W        W 7257  23.676  24.559   3.295
35675W        W 7258  37.276  25.758   1.919
35676W        W 7259  27.112  24.907  11.032
35677W        W 7260  43.867  35.838   3.670
35678W        W 7261  20.994  28.035   0.361
35679W        W 7262  41.866  26.473  11.957
35680W        W 7263  39.731  31.045   3.295
35681W        W 7264  13.293  16.562   0.340
35682W        W 7265  44.915  15.897  13.400
35683W        W 7266  22.785  33.166  10.809
35684W        W 7267  20.544  40.376  11.420
35685W        W 7268  10.161  12.895  12.465
35686W        W 7269  21.585  20.804  12.990
35687W        W 7270  43.151  34.758   4.098
35688W        W 7271  16.805  13.048  13.039
35689W        W 7272  39.841  26.145  10.764
35690W        W 7273  25.798   1.813  13.012
35691W        W 7274  34.947  37.327  11.933
35692W        W 7275  13.584  41.538   1.118
35693W        W 7276  19.304   9.010  10.206
35694W        W 7277  41.299   1.376  11.162
35695W        W 7278   5.412  19.485  12.251
35696W        W 7279   8.786  17.355  13.855
35697W        W 7280  18.061   3.893  14.394
35698W        W 7281  17.591  29.952   4.087
35699W        W 7282  22.100   7.345  10.233
35700W        W 7283  25.695  21.563   3.774
35701W        W 7284  36.109  21.441   1.308
35702W        W 7285   5.292  10.371  12.062
35703W        W 7286  39.255   3.598   2.281
35704W        W 7287   8.497  38.300   1.177
35705W        W 7288   8.453   2.442  13.010
35706W        W 7289  25.080  32.841  13.520
35707W        W 7290  32.564  14.249   3.677
35708W        W 7291   0.944  29.943  10.727
35709W        W 7292  30.184   6.383   4.374
35710W        W 7293  38.471  18.012   1.936
35711W        W 7294  43.856  13.303   0.310
35712W        W 7295   1.451  13.193  13.409
35713W        W 7296  23.114  37.628   2.902
35714W        W 7297  23.787  34.033  11.612
35715W        W 7298   1.133   2.421  14.241
35716W        W 7299  19.783  11.393  11.574
35717W        W 7300  24.166   2.699   1.309
35718W        W 7301   0.402   2.772  11.780
35719W        W 7302  30.498   1.115  13.971
35720W        W 7303  44.332   1.693  12.445
35721W        W 7304  29.475   1.022  12.292
35722W        W 7305  35.584  35.327   0.326
35723W        W 7306  25.707  39.018   3.816
35724W        W 7307  41.767  37.877  12.449
35725W        W 7308  26.167  29.653  14.459
35726W        W 7309  19.829   2.847   1.845
35727W        W 7310  32.309  17.436   4.217
35728W        W 7311  36.994  26.728  13.884
35729W        W 7312  41.971  13.744   3.221
35730W        W 7313  32.126  22.519   2.349
35731W        W 7314  27.503  27.461   0.173
35732W        W 7315  42.487  41.432   2.422
35733W        W 7316  18.547  20.062   2.704
35734W        W 7317   2.315  19.972   0.308
35735W        W 7318  44.788   8.073   0.371
35736W        W 7319   7.728  42.975  13.381
35737W        W 7320  34.741  22.631  13.543
35738W        W 7321   3.944  26.539  12.533
35739W        W 7322   6.146  23.034  12.927
35740W        W 7323  42.540  34.900  14.767
35741W        W 7324   4.271   3.513   2.744
35742W        W 7325  24.054  15.466  13.086
35743W        W 7326  25.906  30.176   0.002
35744W        W 7327  30.828  33.582   1.714
35745W        W 7328  10.434  35.622   0.947
35746W        W 7329  26.188  19.736  13.078
35747W        W 7330  31.503  18.937  14.303
35748W        W 7331  10.218  31.005   1.272
35749W        W 7332   5.228  14.215  13.406
35750W        W 7333  21.041  33.041  14.412
35751W        W 7334  18.842  29.665   3.652
35752W        W 7335  11.605  18.106   0.479
35753W        W 7336   7.921  15.160   2.649
35754W        W 7337  12.114  39.480  13.975
35755W        W 7338  21.980  16.111  10.710
35756W        W 7339  27.148   7.923   3.880
35757W        W 7340  11.237   5.912  13.436
35758W        W 7341  43.822  37.098   1.736
35759W        W 7342  23.678  31.683   0.848
35760W        W 7343  43.506  43.459   3.742
35761W        W 7344  24.075   8.246   3.296
35762W        W 7345  19.715  30.571  14.903
35763W        W 7346  40.585  41.041   3.200
35764W        W 7347  30.964  20.718   0.908
35765W        W 7348  21.302  32.099  13.330
35766W        W 7349  41.021  36.831   1.298
35767W        W 7350  30.459   2.988   4.389
35768W        W 7351  40.873  21.209   3.221
35769W        W 7352   0.840  33.319  12.697
35770W        W 7353  26.991   3.287  12.030
35771W        W 7354  23.333  17.290   2.777
35772W        W 7355  22.712  34.499  11.348
35773W        W 7356  14.577   6.286   0.509
35774W        W 7357  18.798  43.660  11.913
35775W        W 7358   4.269  26.891   0.983
35776W        W 7359  32.999   3.154  12.949
35777W        W 7360  24.157  19.797  12.056
35778W        W 7361  33.522   7.686   3.712
35779W        W 7362  12.422  35.864   1.539
35780W        W 7363  36.252  35.900   3.712
35781W        W 7364   9.809  23.961  12.309
35782W        W 7365  41.464  26.602   4.108
35783W        W 7366  18.856  17.856   1.050
35784W        W 7367  11.091  25.761  12.412
35785W        W 7368  44.855  21.199   0.271
35786W        W 7369  39.233  30.919   3.176
35787W        W 7370   6.341  43.614   0.843
35788W        W 7371  21.570  44.604  13.412
35789W        W 7372  44.038   0.248  13.761
35790W        W 7373   2.525   4.453   0.873
35791W        W 7374  37.100  26.844   3.779
35792W        W 7375  40.233  12.089  14.767
35793W        W 7376  29.828  30.296   2.503
35794W        W 7377  33.102  14.704  12.671
35795W        W 7378  19.226   8.036  11.120
35796W        W 7379  27.887  36.602   2.361
35797W        W 7380  33.079  20.180   1.599
35798W        W 7381  43.816  11.372  13.071
35799W        W 7382  42.042  27.267  10.685
35800W        W 7383  17.038  14.548  11.138
35801W        W 7384  44.794  11.893   0.036
35802W        W 7385  17.742  18.471   3.572
35803W        W 7386  16.746   5.781   2.183
35804W        W 7387  31.084  42.966  10.041
35805W        W 7388   0.084  18.012  14.461
35806W        W 7389  41.674  20.943   0.266
35807W        W 7390  43.892  19.491  13.772
35808W        W 7391  23.979  19.660  13.774
35809W        W 7392  19.646  39.989  14.410
35810W        W 7393   7.340  23.759   0.445
35811W        W 7394   5.177   8.889  11.914
35812W        W 7395  14.100  40.715  12.521
35813W        W 7396   1.259  34.109   3.680
35814W        W 7397  24.242  33.964  12.554
35815W        W 7398  29.189  34.926   3.167
35816W        W 7399  25.984   8.411   0.052
35817W        W 7400   8.441  39.324   1.179
35818W        W 7401  22.752   4.199   0.478
35819W        W 7402   3.336  13.283   0.685
35820W        W 7403   9.347   1.279  13.254
35821W        W 7404  23.078   2.246  14.703
35822W        W 7405   4.955  25.786  10.234
35823W        W 7406   9.677  23.099   0.752
35824W        W 7407  35.080  23.718   4.141
35825W        W 7408  36.335  12.272  14.947
35826W        W 7409  24.393   8.846   0.877
35827W        W 7410  30.471  16.792  13.978
35828W        W 7411  32.945  33.129   4.421
35829W        W 7412   5.869  33.508  10.166
35830W        W 7413  34.830  31.585   2.052
35831W        W 7414  22.950   5.168  14.225
35832W        W 7415  17.991  31.369   0.257
35833W        W 7416   2.323  37.538  12.028
35834W        W 7417  29.194   9.779   2.604
35835W        W 7418  24.678  10.548   0.683
35836W        W 7419   4.204  16.973   0.129
35837W        W 7420  14.183   5.819   3.146
35838W        W 7421   0.793   0.945  13.858
35839W        W 7422  24.632   4.346   2.417
35840W        W 7423  30.152  19.629  10.519
35841W        W 7424  25.049   0.307  14.355
35842W        W 7425  37.542  40.638  10.552
35843W        W 7426   2.324  35.980   0.407
35844W        W 7427  17.707  39.897  14.019
35845W        W 7428   2.397  37.188  13.398
35846W        W 7429  43.323  40.376   0.001
35847W        W 7430  34.274  13.639   3.203
35848W        W 7431  28.670  29.987   0.852
35849W        W 7432   3.932  35.586   4.750
35850W        W 7433   3.818  27.228   2.246
35851W        W 7434   0.868  10.829  12.086
35852W        W 7435  19.156   0.922   0.767
35853W        W 7436  41.351   4.653  12.079
35854W        W 7437   2.987  33.332   3.676
35855W        W 7438   9.385  31.098  12.845
35856W        W 7439  11.757   0.221  10.648
35857W        W 7440   3.305  27.419  13.853
35858W        W 7441  36.867  22.110   2.066
35859W        W 7442  10.848  18.360   2.087
35860W        W 7443  18.229  26.002   2.722
35861W        W 7444  40.855  21.568   4.515
35862W        W 7445   8.352  31.420   1.275
35863W        W 7446  37.612  11.077   1.774
35864W        W 7447   0.794  12.579  14.321
35865W        W 7448  44.954  38.524   2.132
35866W        W 7449   6.862  19.240  11.742
35867W        W 7450  21.885  38.934   1.276
35868W        W 7451  20.449   9.867   2.750
35869W        W 7452  14.262  37.487   4.142
35870W        W 7453  22.724   9.223  10.709
35871W        W 7454  32.495   4.589  11.045
35872W        W 7455   7.325   4.414   2.843
35873W        W 7456  28.496   1.797  14.571
35874W        W 7457  11.234  12.044  12.136
35875W        W 7458  25.256  40.456   3.684
35876W        W 7459   3.339   5.641  11.004
35877W        W 7460  41.312   4.384  12.557
35878W        W 7461  38.991  25.923  14.747
35879W        W 7462  25.237  29.851   2.425
35880W        W 7463  28.488  25.024  10.472
35881W        W 7464   6.922   8.066  14.350
35882W        W 7465  29.607  26.084   3.690
35883W        W 7466  24.858  25.541  11.041
35884W        W 7467  35.103  22.696  10.485
35885W        W 7468  23.719  29.946   2.887
35886W        W 7469  35.286  41.769  11.208
35887W        W 7470  22.940  41.322   4.676
35888W        W 7471  18.673  17.299   2.330
35889W        W 7472  16.708  11.374  10.411
35890W        W 7473   5.982  32.408  14.817
35891W        W 7474  32.820  22.542   5.079
35892W        W 7475  24.680  30.871   1.766
35893W        W 7476  38.536  41.539   1.939
35894W        W 7477  13.074  20.176   3.706
35895W        W 7478  24.221   9.655  13.002
35896W        W 7479  44.075   8.225  14.927
35897W        W 7480  42.065   9.351  11.417
35898W        W 7481  39.438  11.890   2.298
35899W        W 7482  11.756  26.057  10.762
35900W        W 7483  26.578  19.609  13.814
35901W        W 7484  33.791  42.615  13.036
35902W        W 7485  21.231  20.824   0.666
35903W        W 7486  16.102  14.764   1.629
35904W        W 7487   4.897  23.565  11.640
35905W        W 7488  26.554  42.782   2.338
35906W        W 7489   9.182   9.582   0.316
35907W        W 7490  39.798  20.839   0.258
35908W        W 7491  26.591   6.759   4.867
35909W        W 7492  33.628  22.850   0.199
35910W        W 7493   6.481  26.078  13.510
35911W        W 7494  22.120  39.863   3.959
35912W        W 7495  31.075  17.420   3.168
35913W        W 7496  40.610   0.642  11.224
35914W        W 7497   0.526   4.680   0.559
35915W        W 7498  26.968  13.301  14.016
35916W        W 7499  21.201  15.183   4.414
35917W        W 7500  33.890  34.288   2.783
35918W        W 7501  10.784  22.919  13.956
35919W        W 7502  15.006  41.012   0.208
35920W        W 7503  31.042  27.957  10.355
35921W        W 7504  32.019   4.935   0.165
35922W        W 7505  15.636  24.333   5.051
35923W        W 7506  34.103  15.208   3.695
35924W        W 7507  24.636  17.127  13.114
35925W        W 7508   3.807  13.881   3.299
35926W        W 7509   2.984  13.211  12.494
35927W        W 7510   0.697  13.638  11.146
35928W        W 7511   5.749  24.024  13.102
35929W        W 7512  31.916  41.910   0.256
35930W        W 7513  41.403  17.242   3.911
35931W        W 7514   4.902  38.393   5.134
35932W        W 7515  10.756  22.630  10.580
35933W        W 7516  38.876  10.189  13.966
35934W        W 7517  26.644  11.679   2.633
35935W        W 7518   9.153  36.361  13.846
35936W        W 7519  12.299  40.082  11.149
35937W        W 7520   2.130  12.403   3.116
35938W        W 7521   8.744  31.046   3.319
35939W        W 7522  27.240  21.327  11.182
35940W        W 7523  10.298  21.448  11.607
35941W        W 7524  16.445  35.507  12.476
35942W        W 7525  16.067  35.350   2.246
35943W        W 7526  26.034  43.358  14.043
35944W        W 7527   5.146  26.736  13.799
35945W        W 7528   0.762  43.481  11.633
35946W        W 7529   7.958  36.877  12.459
35947W        W 7530  21.576  15.379  10.586
35948W        W 7531  16.004  38.800  13.003
35949W        W 7532  24.485  26.974  12.411
35950W        W 7533  20.022  12.699  13.318
35951W        W 7534  17.682  29.269   3.235
35952W        W 7535  21.542   4.458  12.391
35953W        W 7536  38.415  43.117   2.748
35954W        W 7537  29.931  40.385  12.863
35955W        W 7538  23.348  25.611   2.816
35956W        W 7539  42.567   0.817  12.991
35957W        W 7540  38.879  11.469   4.792
35958W        W 7541   9.680  24.463   3.744
35959W        W 7542  32.917   2.487  14.985
35960W        W 7543   3.147  17.095  12.132
35961W        W 7544  44.194   0.307  11.116
35962W        W 7545  10.520  29.323  12.994
35963W        W 7546  33.055  14.700   4.616
35964W        W 7547  13.855  37.372  11.893
35965W        W 7548   7.898  14.274   0.385
35966W        W 7549  11.546  37.040  13.422
35967W        W 7550   7.708  35.114  13.054
35968W        W 7551  12.225  43.279  11.819
35969W        W 7552  38.018  19.453  11.616
35970W        W 7553   9.852  17.364  10.483
35971W        W 7554   8.804  39.601  11.983
35972W        W 7555  25.035  14.310   4.941
35973W        W 7556   2.098  35.567   3.524
35974W        W 7557  44.776  28.121   0.859
35975W        W 7558  31.428   4.742   4.680
35976W        W 7559  41.852  26.943   4.130
35977W        W 7560   4.264  15.049   3.687
35978W        W 7561  34.047  33.303  14.821
35979W        W 7562  30.165  12.957  10.975
35980W        W 7563  27.574  37.896  13.569
35981W        W 7564  36.392  25.891   3.180
35982W        W 7565   3.352   0.773  10.749
35983W        W 7566  22.744  31.973   3.563
35984W        W 7567  21.569  40.832   1.204
35985W        W 7568  19.152   9.836  13.045
35986W        W 7569  14.630  14.140  14.092
35987W        W 7570  32.896   8.417  10.920
35988W        W 7571  31.472   0.900  13.931
35989W        W 7572  19.570  16.075  14.838
35990W        W 7573  17.846  13.806  12.188
35991W        W 7574   9.917  10.711  12.001
35992W        W 7575  29.494  22.973  14.536
35993W        W 7576  13.764  24.730  14.562
35994W        W 7577  37.453  41.793   4.528
35995W        W 7578  35.562  35.491   1.271
35996W        W 7579   4.151  29.232   4.572
35997W        W 7580  25.497  20.574  11.683
35998W        W 7581  37.593  41.377   0.701
35999W        W 7582  25.705  34.108  14.214
36000W        W 7583  21.744  31.766  13.974
36001W        W 7584  24.500  10.199  12.804
36002W        W 7585   2.919   0.905   1.573
36003W        W 7586  37.724  44.956   2.864
36004W        W 7587  42.316   5.774  13.412
36005W        W 7588  41.011  16.254   2.815
36006W        W 7589  33.825   0.553   1.172
36007W        W 7590  37.802  12.039  12.713
36008W        W 7591  12.796  22.115  14.763
36009W        W 7592  43.327  36.890  14.556
36010W        W 7593  28.747  21.190  10.667
36011W        W 7594  31.268  16.804  13.358
36012W        W 7595  37.348  26.695  12.135
36013W        W 7596  15.600  41.876  12.329
36014W        W 7597   9.410  13.581  13.443
36015W        W 7598  33.432  41.564   1.781
36016W        W 7599   7.566  21.290  10.927
36017W        W 7600   2.976  42.876   1.316
36018W        W 7601  21.001  40.956  12.136
36019W        W 7602   5.706  40.182   0.527
36020W        W 7603  13.346   9.827   2.344
36021W        W 7604  44.647   8.453   2.157
36022W        W 7605  34.157  37.912  11.560
36023W        W 7606  34.364  32.267   4.030
36024W        W 7607  41.306   3.268  11.887
36025W        W 7608  32.469  30.235  14.496
36026W        W 7609  32.143  14.918   0.259
36027W        W 7610   9.737   7.682   3.719
36028W        W 7611  33.842  28.681  12.014
36029W        W 7612  39.362   7.975   1.768
36030W        W 7613  44.043   1.855   4.542
36031W        W 7614   2.937  27.619   1.227
36032W        W 7615  40.067  41.815  12.466
36033W        W 7616  33.379  38.708  10.432
36034W        W 7617  12.797  30.129  12.056
36035W        W 7618  22.032   1.747  12.479
36036W        W 7619  10.309  43.452  14.336
36037W        W 7620  19.353  17.540  12.324
36038W        W 7621  29.577  40.284   0.015
36039W        W 7622  29.360  25.505   4.531
36040W        W 7623  22.642  44.990   4.686
36041W        W 7624  15.377  23.742   3.461
36042W        W 7625  37.372   9.688   2.738
36043W        W 7626  22.932  34.691  13.025
36044W        W 7627  19.326   8.613  13.885
36045W        W 7628   2.844  44.432   3.063
36046W        W 7629  26.519   1.932   1.887
36047W        W 7630  10.641  27.276  13.863
36048W        W 7631  12.142  12.165   1.884
36049W        W 7632  18.282   4.308   0.964
36050W        W 7633   7.146  14.744  13.500
36051W        W 7634   5.357  35.400   1.204
36052W        W 7635  31.514  36.506   2.665
36053W        W 7636  28.112   0.799   5.300
36054W        W 7637  42.853  16.004   3.283
36055W        W 7638   8.770   9.287  12.567
36056W        W 7639  21.272  41.991  13.317
36057W        W 7640   8.951  18.780   0.396
36058W        W 7641  33.743   8.826  11.176
36059W        W 7642   4.922  26.688   0.872
36060W        W 7643  42.832  41.400   1.740
36061W        W 7644   7.966  10.237  13.354
36062W        W 7645   0.642  39.319  13.280
36063W        W 7646  13.902  41.501   1.542
36064W        W 7647  26.337  40.861  14.360
36065W        W 7648  22.743  13.652  12.081
36066W        W 7649  25.738   3.597  13.286
36067W        W 7650  27.256  18.526  14.494
36068W        W 7651  15.802  20.441  14.958
36069W        W 7652   4.424  11.434   2.985
36070W        W 7653  19.653  21.683  12.994
36071W        W 7654  17.717  25.779   3.411
36072W        W 7655  10.945   1.858   3.732
36073W        W 7656   9.578  30.575   4.222
36074W        W 7657  15.547  20.508   0.418
36075W        W 7658   8.387  38.257  14.036
36076W        W 7659  34.670  37.076  13.802
36077W        W 7660   9.576   9.391   3.245
36078W        W 7661   6.330  43.761  12.870
36079W        W 7662  23.269  11.605   4.368
36080W        W 7663   5.215  28.292   3.125
36081W        W 7664  34.305  41.820  12.322
36082W        W 7665  15.201   0.957   3.248
36083W        W 7666   0.026   1.309   0.540
36084W        W 7667  15.609   2.982  12.837
36085W        W 7668  10.297  24.184   3.240
36086W        W 7669   7.856   2.017   4.529
36087W        W 7670   2.890  13.173   3.914
36088W        W 7671  25.039   0.917  14.549
36089W        W 7672  10.445  30.303  11.123
36090W        W 7673  31.906  22.752  14.970
36091W        W 7674  23.207  39.884  10.732
36092W        W 7675  14.387  40.468   4.725
36093W        W 7676  14.587  30.200   1.983
36094W        W 7677  17.582  19.168   2.857
36095W        W 7678  37.868   8.297  11.968
36096W        W 7679  44.033  22.515   3.216
36097W        W 7680   5.944   2.041  14.402
36098W        W 7681  37.400  15.568   4.210
36099W        W 7682  22.845  16.180  12.473
36100W        W 7683  22.978  10.240   3.250
36101W        W 7684  10.593  19.668   2.725
36102W        W 7685   7.483   0.200  13.840
36103W        W 7686  29.656  23.282  10.697
36104W        W 7687  40.607  38.016   3.174
36105W        W 7688  10.634   7.712   3.630
36106W        W 7689  27.530   3.852  13.779
36107W        W 7690  22.594  26.229   0.011
36108W        W 7691   5.203  31.786   0.445
36109W        W 7692  26.546  17.759  13.848
36110W        W 7693  40.057  27.668  13.038
36111W        W 7694   2.027  24.944  10.716
36112W        W 7695   2.251  28.708  13.516
36113W        W 7696  29.758  29.403   0.024
36114W        W 7697   7.014  43.897   1.909
36115W        W 7698  44.275  28.278   0.882
36116W        W 7699  13.175  44.056  13.634
36117W        W 7700  28.817  39.878   1.026
36118W        W 7701  25.904  30.637   4.567
36119W        W 7702  18.680  27.630   3.248
36120W        W 7703   7.956  38.026  14.242
36121W        W 7704  17.150  14.768   0.665
36122W        W 7705   4.644   8.635   1.393
36123W        W 7706  18.831   7.097  11.069
36124W        W 7707   6.525  16.021   1.781
36125W        W 7708  18.899   5.197  14.224
36126W        W 7709  42.890  34.038  12.368
36127W        W 7710  20.225  17.475   4.594
36128W        W 7711  10.697   7.210  12.763
36129W        W 7712  13.758   2.672  13.011
36130W        W 7713  37.055  13.714   0.514
36131W        W 7714   6.320  23.836   3.667
36132W        W 7715   0.958  26.022   1.333
36133W        W 7716   7.783  20.199  10.641
36134W        W 7717  39.594  20.833   2.072
36135W        W 7718  32.234  21.084   0.357
36136W        W 7719  34.564  43.527   1.875
36137W        W 7720  34.475  42.681   0.261
36138W        W 7721   4.724   4.348   3.185
36139W        W 7722  13.127  11.136  14.384
36140W        W 7723  11.895  22.868   2.177
36141W        W 7724  26.025  32.805  14.253
36142W        W 7725  14.752   6.177   4.126
36143W        W 7726   4.790  30.127  13.490
36144W        W 7727  40.657  17.437  12.013
36145W        W 7728   9.420  38.018  13.032
36146W        W 7729   1.511  30.402  11.400
36147W        W 7730  37.445   7.630   2.781
36148W        W 7731  13.195  35.003  13.053
36149W        W 7732  25.730   8.642   1.004
36150W        W 7733  33.572  18.078   4.870
36151W        W 7734  34.494   9.761  13.357
36152W        W 7735  23.481  12.541  10.936
36153W        W 7736   9.060  38.537  12.025
36154W        W 7737  21.693  11.275   1.385
36155W        W 7738  33.659  43.485  11.507
36156W        W 7739  39.436   1.675  13.128
36157W        W 7740  24.644   0.229   2.156
36158W        W 7741  22.966  23.141   4.560
36159W        W 7742   8.190  43.422  11.630
36160W        W 7743   7.838  36.616  13.661
36161W        W 7744  20.257  37.795   4.040
36162W        W 7745   3.543  21.726  11.644
36163W        W 7746  27.403  26.637   2.337
36164W        W 7747  25.898  21.813  12.048
36165W        W 7748  36.684  19.298   0.290
36166W        W 7749  29.009   8.354   4.083
36167W        W 7750  34.309  11.744  14.305
36168W        W 7751   6.367  19.946   0.457
36169W        W 7752   6.755  21.081   2.639
36170W        W 7753  20.985   8.225  13.986
36171W        W 7754  33.955  19.104  14.415
36172W        W 7755  42.027  24.472  14.426
36173W        W 7756  36.080  35.571   1.196
36174W        W 7757  32.379  36.244   1.877
36175W        W 7758  10.844   3.648   3.612
36176W        W 7759   1.430   6.110  13.367
36177W        W 7760  43.840   3.083   3.622
36178W        W 7761  33.372  25.987  13.653
36179W        W 7762  32.439  29.029   2.900
36180W        W 7763   6.492  10.651   1.087
36181W        W 7764   5.575  16.597   4.444
36182W        W 7765  22.271  34.399   3.803
36183W        W 7766  31.826   7.626  11.214
36184W        W 7767  27.326  34.429  11.593
36185W        W 7768   9.751   0.987  14.512
36186W        W 7769  32.718  34.101  11.248
36187W        W 7770   0.665  30.706  11.256
36188W        W 7771  39.013  15.778  14.421
36189W        W 7772  20.020  19.551   0.356
36190W        W 7773  22.765   9.938  11.954
36191W        W 7774   6.482   4.311  13.458
36192W        W 7775   1.272  41.962  13.705
36193W        W 7776  17.251  13.167   2.645
36194W        W 7777   3.004  29.580  12.654
36195W        W 7778  36.593  15.539  12.884
36196W        W 7779   2.805   2.883  14.863
36197W        W 7780  31.030  14.400   3.383
36198W        W 7781  39.444  43.887   4.064
36199W        W 7782  27.653  29.851  13.084
36200W        W 7783  29.378   2.382  13.873
36201W        W 7784  14.837  32.685  10.771
36202W        W 7785   2.047  33.412   0.193
36203W        W 7786  25.559  41.346  10.695
36204W        W 7787  12.131  18.580   1.667
36205W        W 7788   6.041  26.938  10.873
36206W        W 7789  27.192  14.235  13.080
36207W        W 7790  41.985  29.996  10.970
36208W        W 7791  21.581  30.000   3.105
36209W        W 7792   1.720  25.337   3.303
36210W        W 7793  44.841  34.094   2.732
36211W        W 7794  32.162   1.409   1.441
36212W        W 7795  22.951  26.996  13.159
36213W        W 7796   5.318  27.765   3.171
36214W        W 7797   1.334  28.589  11.728
36215W        W 7798  21.776   2.765  11.607
36216W        W 7799  14.390  13.135  11.465
36217W        W 7800  34.729  15.856   4.070
36218W        W 7801  22.729  24.265   4.937
36219W        W 7802  10.958  23.024   2.289
36220W        W 7803  31.376   7.829  11.440
36221W        W 7804  40.122  26.896   3.311
36222W        W 7805  17.203   6.221   1.021
36223W        W 7806  44.201  29.081  14.899
36224W        W 7807  34.480  44.412  12.913
36225W        W 7808   4.966  43.709  13.634
36226W        W 7809  42.045  28.028  11.165
36227W        W 7810  23.751  23.669  12.915
36228W        W 7811  19.904  23.683  14.557
36229W        W 7812  16.944   3.433  12.475
36230W        W 7813  18.355   4.769  11.152
36231W        W 7814  18.342  33.969  13.092
36232W        W 7815   6.689  35.191   1.377
36233W        W 7816  18.923  23.961  13.045
36234W        W 7817   4.929  17.710  11.480
36235W        W 7818  41.371  24.200   0.807
36236W        W 7819  28.097   5.339  10.878
36237W        W 7820  42.940   8.186   0.855
36238W        W 7821  23.606  44.763  13.894
36239W        W 7822   0.725   2.300   0.343
36240W        W 7823  44.340  26.103  13.524
36241W        W 7824  15.726  40.218   0.929
36242W        W 7825  20.200   4.454  10.767
36243W        W 7826  23.629  19.504   0.410
36244W        W 7827  39.585  39.557   0.247
36245W        W 7828  32.785  41.620  13.959
36246W        W 7829   7.993  41.019  14.368
36247W        W 7830  22.952  38.524   2.441
36248W        W 7831  30.227   8.358   3.719
36249W        W 7832   0.585   4.229   2.747
36250W        W 7833  39.404  14.873  11.303
36251W        W 7834  42.617  22.045   4.298
36252W        W 7835  44.407  18.215   4.128
36253W        W 7836  32.407  40.106  14.844
36254W        W 7837  23.049  40.301  13.479
36255W        W 7838  35.287  19.095  11.332
36256W        W 7839  11.214  13.322  14.456
36257W        W 7840  11.137  40.423   0.916
36258W        W 7841   9.271  23.968  11.229
36259W        W 7842  29.547   0.877  13.278
36260W        W 7843   4.874   1.917  13.214
36261W        W 7844  42.320  41.839   4.678
36262W        W 7845  38.479  12.853  14.199
36263W        W 7846  41.131  26.946   3.156
36264W        W 7847   0.003   6.441   2.367
36265W        W 7848   1.729  30.885  11.364
36266W        W 7849   9.652   5.252  14.754
36267W        W 7850  32.393  27.134   4.333
36268W        W 7851   2.928   7.386  11.548
36269W        W 7852  23.943  14.649   2.313
36270W        W 7853  17.684   5.036   1.462
36271W        W 7854  29.214   0.767   4.111
36272W        W 7855  23.080  27.202   4.297
36273W        W 7856  43.629  40.333  11.884
36274W        W 7857  17.708  34.306   1.388
36275W        W 7858   4.308  26.692  14.765
36276W        W 7859  44.785  14.216  14.504
36277W        W 7860  42.816  14.113   2.715
36278W        W 7861   8.425  29.278   3.278
36279W        W 7862   2.016   5.351   0.354
36280W        W 7863  30.140  43.836  11.952
36281W        W 7864   4.357  24.480   4.181
36282W        W 7865  13.387  10.070   5.304
36283W        W 7866  12.023  15.150  13.052
36284W        W 7867  40.063  17.139  13.341
36285W        W 7868  16.064  14.296   2.896
36286W        W 7869  37.506  25.729   4.609
36287W        W 7870   3.992  41.875  11.584
36288W        W 7871  41.232  36.159  13.463
36289W        W 7872   0.867  19.650   4.563
36290W        W 7873  25.689   2.297   4.946
36291W        W 7874  33.875   5.527  12.543
36292W        W 7875  29.301   5.848   0.295
36293W        W 7876  30.517   8.916  14.342
36294W        W 7877  39.880  25.740  14.433
36295W        W 7878   8.217   5.515  10.431
36296W        W 7879  25.183  21.781   0.410
36297W        W 7880  37.037   6.027   0.826
36298W        W 7881   8.148   9.927   2.687
36299W        W 7882  33.717  41.009  11.101
36300W        W 7883  17.828  29.442  12.947
36301W        W 7884  11.056   2.916  11.761
36302W        W 7885  12.997  29.400  14.363
36303W        W 7886  40.808   7.740  12.386
36304W        W 7887  40.988  42.341   4.334
36305W        W 7888   3.729  18.632  12.117
36306W        W 7889  23.760  18.232  10.925
36307W        W 7890  16.812  25.605  14.838
36308W        W 7891   9.287  15.237  13.315
36309W        W 7892  19.680  31.563  12.485
36310W        W 7893   3.677  32.391   4.289
36311W        W 7894  13.272   3.312   4.771
36312W        W 7895  36.554  23.969   1.688
36313W        W 7896  12.603   6.351   2.021
36314W        W 7897   7.047   3.245  10.615
36315W        W 7898   8.200  25.554  13.374
36316W        W 7899  14.508  26.750   3.203
36317W        W 7900  41.509  32.421   3.686
36318W        W 7901  44.350  34.196  12.003
36319W        W 7902  22.455  11.264  12.383
36320W        W 7903  36.527  21.810   2.287
36321W        W 7904   7.187  16.495  14.714
36322W        W 7905   4.879  31.945  12.806
36323W        W 7906  18.658   0.263   3.026
36324W        W 7907  35.394  29.953   4.442
36325W        W 7908  28.900  26.626  13.935
36326W        W 7909  13.501  15.490   0.430
36327W        W 7910  32.405  13.123  12.906
36328W        W 7911  37.362  42.713   3.320
36329W        W 7912  37.035  27.640   1.760
36330W        W 7913  19.370  15.741  12.529
36331W        W 7914  13.361  10.687  13.766
36332W        W 7915   4.757  40.933  10.258
36333W        W 7916  34.356  16.337  12.502
36334W        W 7917  36.421   7.746  13.014
36335W        W 7918  17.644  17.301  11.737
36336W        W 7919  27.901  21.286   1.808
36337W        W 7920  15.117   7.612   2.356
36338W        W 7921  11.384  32.586  11.524
36339W        W 7922  33.038  44.168  14.461
36340W        W 7923   1.326  28.511  10.765
36341W        W 7924  37.075  10.071   4.206
36342W        W 7925  32.685   8.991   4.550
36343W        W 7926  43.844  33.357  13.517
36344W        W 7927   1.573  15.641  11.074
36345W        W 7928  16.297  13.370   1.766
36346W        W 7929  14.223  39.265  14.266
36347W        W 7930   0.194  40.573   0.239
36348W        W 7931  18.273   5.154   4.524
36349W        W 7932  28.357  19.814   0.259
36350W        W 7933  16.939  12.710  11.858
36351W        W 7934  30.189  26.499  14.793
36352W        W 7935   4.776  27.198  12.496
36353W        W 7936  41.665  40.373   4.600
36354W        W 7937   4.271  22.947  14.267
36355W        W 7938  37.793  25.736  11.840
36356W        W 7939  44.487  25.764   0.791
36357W        W 7940  34.386  11.719  12.751
36358W        W 7941  15.720  35.790  11.912
36359W        W 7942   0.947  11.368   3.123
36360W        W 7943  34.443  26.489  14.236
36361W        W 7944  37.010  26.010  12.024
36362W        W 7945  27.675  18.302  14.374
36363W        W 7946  43.797  18.914   4.581
36364W        W 7947  42.757   8.867   1.777
36365W        W 7948  18.530  18.603   4.196
36366W        W 7949  22.717  13.544  12.988
36367W        W 7950   9.608  33.890   2.810
36368W        W 7951   9.359  36.424   2.681
36369W        W 7952  27.080   3.555  12.537
36370W        W 7953  36.135  38.940  12.533
36371W        W 7954  40.488  31.424  13.504
36372W        W 7955   9.599  30.731  13.553
36373W        W 7956  24.194  42.976  12.561
36374W        W 7957  10.290  35.458  14.122
36375W        W 7958  13.292  32.185   2.309
36376W        W 7959  31.624   4.486  13.055
36377W        W 7960   6.410   8.849   1.889
36378W        W 7961  15.292  42.123   1.899
36379W        W 7962  40.016  30.001   1.769
36380W        W 7963  17.058  44.642   0.943
36381W        W 7964  42.436  35.663   2.204
36382W        W 7965  14.682   0.824   1.336
36383W        W 7966   1.524  42.565  10.580
36384W        W 7967  23.932  41.974  13.708
36385W        W 7968  22.160   4.837  14.327
36386W        W 7969   9.988  24.033   3.639
36387W        W 7970  12.341  11.251   1.031
36388W        W 7971  28.417   0.360   2.744
36389W        W 7972  40.640  11.580   3.694
36390W        W 7973  31.200  37.464   4.512
36391W        W 7974  18.299  19.627  12.984
36392W        W 7975  10.180  13.570   4.690
36393W        W 7976  30.438   4.827   4.806
36394W        W 7977  16.777  20.246  10.768
36395W        W 7978  21.774  14.755  14.453
36396W        W 7979  42.358  27.187  13.569
36397W        W 7980   8.321   9.301   2.290
36398W        W 7981  13.869  11.135  13.001
36399W        W 7982  37.460  39.010   1.307
36400W        W 7983  15.489  19.073   4.762
36401W        W 7984  33.887  19.980  11.502
36402W        W 7985  24.910  40.011  11.206
36403W        W 7986   9.408  29.433  14.880
36404W        W 7987  16.547  11.222  14.524
36405W        W 7988   3.726  37.342   0.572
36406W        W 7989  13.624  21.277   4.615
36407W        W 7990  28.179   9.146  12.537
36408W        W 7991  39.414  21.993  10.414
36409W        W 7992  42.502   3.353   2.235
36410W        W 7993   4.838   8.986   4.332
36411W        W 7994  34.870  35.605   1.081
36412W        W 7995  42.471  25.094  14.675
36413W        W 7996  28.541  30.303   2.846
36414W        W 7997  28.004   4.907  11.614
36415W        W 7998  42.810   4.175  12.951
36416W        W 7999   6.605  12.807   1.382
36417W        W 8000  30.513  32.078   0.747
36418W        W 8001  26.420   5.377   3.768
36419W        W 8002  15.315  29.045  11.702
36420W        W 8003  28.842   1.952   2.588
36421W        W 8004   2.332  25.827  14.833
36422W        W 8005  10.233  42.977   2.459
36423W        W 8006   1.291   5.627  10.671
36424W        W 8007  26.464  17.821  11.108
36425W        W 8008  19.771  39.312  12.014
36426W        W 8009  16.272  41.431   3.716
36427W        W 8010  19.672   3.501   0.134
36428W        W 8011  37.784  36.183  11.076
36429W        W 8012  15.121  27.194  11.154
36430W        W 8013  33.922  14.671  11.157
36431W        W 8014  12.175  42.559  12.235
36432W        W 8015   4.913  20.191  10.213
36433W        W 8016  30.993  44.149   4.117
36434W        W 8017   3.626  30.212  12.139
36435W        W 8018  17.033  14.025   4.111
36436W        W 8019  36.798  39.845  12.912
36437W        W 8020  30.389  27.471   1.336
36438W        W 8021  18.855  12.989   0.272
36439W        W 8022  42.739   7.644   2.687
36440W        W 8023  34.350   0.403  14.503
36441W        W 8024   6.585  27.544  14.117
36442W        W 8025  30.172  31.392  13.596
36443W        W 8026  39.274  36.471  12.592
36444W        W 8027  12.722  34.493   1.563
36445W        W 8028  43.736  31.497   1.616
36446W        W 8029   4.327  11.204   4.884
36447W        W 8030  42.962  32.028   3.435
36448W        W 8031  27.120  41.243   2.454
36449W        W 8032   5.865  29.120  10.631
36450W        W 8033  13.922  26.258   0.379
36451W        W 8034  24.973  20.079  12.288
36452W        W 8035   9.938  42.221   5.065
36453W        W 8036  16.246  39.475  10.465
36454W        W 8037  43.968  17.511  13.103
36455W        W 8038  21.718  28.145   9.790
36456W        W 8039  43.799  42.756  13.594
36457W        W 8040  38.405   9.712   0.678
36458W        W 8041  43.719  44.217  14.426
36459W        W 8042  37.280  17.096   0.834
36460W        W 8043  11.226  21.675  13.571
36461W        W 8044  33.086  32.439  12.590
36462W        W 8045  43.462  44.912   3.250
36463W        W 8046  26.869  36.474  11.130
36464W        W 8047  43.009   4.473  14.223
36465W        W 8048  19.676  31.603  11.651
36466W        W 8049  27.747  34.340  13.368
36467W        W 8050  12.346  16.669  11.167
36468W        W 8051  30.657   7.259  10.646
36469W        W 8052  14.239  14.578  12.380
36470W        W 8053  18.198  17.166  10.993
36471W        W 8054  14.182  36.442  14.919
36472W        W 8055  22.413   8.633   3.661
36473W        W 8056  30.551  25.924  12.473
36474W        W 8057  44.940   8.827  13.326
36475W        W 8058  44.906  29.867  14.260
36476W        W 8059  17.803  38.039  12.886
36477W        W 8060  21.768  20.068  10.684
36478W        W 8061  23.732  22.694  12.888
36479W        W 8062  33.385  10.691  14.869
36480W        W 8063  21.772  28.161  13.976
36481W        W 8064   3.243  40.948  12.514
36482W        W 8065  25.510   0.429   2.252
36483W        W 8066  18.605  33.297  11.124
36484W        W 8067  27.963  34.761   2.728
36485W        W 8068  44.233  12.224  10.770
36486W        W 8069  32.579   4.204  12.369
36487W        W 8070  19.525  44.457  11.183
36488W        W 8071  15.126  25.733   1.826
36489W        W 8072  41.008   7.626   3.539
36490W        W 8073  11.069  41.334   2.254
36491W        W 8074  29.458   3.712   0.365
36492W        W 8075   0.895  36.854   3.180
36493W        W 8076   0.190  20.201  11.673
36494W        W 8077  23.981  22.630  10.770
36495W        W 8078  39.613  44.453   0.461
36496W        W 8079  30.900  13.305  14.896
36497W        W 8080  33.929  38.994   2.186
36498W        W 8081  13.188  43.668   3.704
36499W        W 8082  31.192  23.309  13.953
36500W        W 8083   7.724  22.147  14.861
36501W        W 8084  15.011  34.421  12.595
36502W        W 8085  30.713  19.301  12.456
36503W        W 8086   6.856  31.073  10.504
36504W        W 8087   5.438  24.624  12.093
36505W        W 8088  31.491  39.337  14.114
36506W        W 8089   2.343  44.654   4.508
36507W        W 8090  40.107  20.004   3.048
36508W        W 8091  44.759  29.976  14.790
36509W        W 8092   5.256  33.566  13.197
36510W        W 8093  36.973  10.326   2.903
36511W        W 8094  22.660  15.213  14.772
36512W        W 8095  14.659  34.703  10.509
36513W        W 8096  26.967  31.696   0.816
36514W        W 8097  38.417  28.640   0.509
36515W        W 8098   3.740   8.847  13.067
36516W        W 8099  42.908  14.342  14.747
36517W        W 8100  16.344  44.099  11.300
36518W        W 8101  14.089  36.335   1.409
36519W        W 8102  17.678  37.862   1.329
36520W        W 8103  27.562  22.121   4.069
36521W        W 8104   8.765  19.771   2.339
36522W        W 8105  25.163  44.672   2.677
36523W        W 8106  27.925  40.881  12.011
36524W        W 8107   3.897  12.203  12.471
36525W        W 8108  41.429   8.983  11.117
36526W        W 8109   2.056   7.406  10.740
36527W        W 8110   8.051  42.572  13.504
36528W        W 8111  23.643  32.054   5.123
36529W        W 8112  17.144  11.088  12.960
36530W        W 8113  40.867  11.806   4.567
36531W        W 8114   3.734  35.494  11.524
36532W        W 8115  42.216   7.243   3.354
36533W        W 8116   2.763  29.490  14.424
36534W        W 8117  12.596   4.472   2.853
36535W        W 8118   0.650  40.399   1.673
36536W        W 8119  24.793   7.150   1.343
36537W        W 8120   8.335  43.867  14.735
36538W        W 8121  17.286  27.171   1.539
36539W        W 8122  15.968   1.371  10.863
36540W        W 8123  42.560  33.447  14.803
36541W        W 8124   9.047   4.402  12.972
36542W        W 8125  24.306  14.795   4.321
36543W        W 8126  43.256  29.606   3.832
36544W        W 8127  19.492  14.343  11.136
36545W        W 8128   3.642  22.598  11.210
36546W        W 8129  42.712  32.046   1.020
36547W        W 8130  37.980  34.123   0.564
36548W        W 8131   8.315   7.895   2.656
36549W        W 8132  31.363   8.977   1.319
36550W        W 8133  21.766   2.003   2.340
36551W        W 8134   3.419   7.942   2.752
36552W        W 8135  38.567  16.319   4.582
36553W        W 8136  17.002  39.455  12.282
36554W        W 8137  32.952   8.471   2.294
36555W        W 8138  29.644   4.883  13.153
36556W        W 8139   2.009  24.456  14.876
36557W        W 8140  25.256  18.075  10.674
36558W        W 8141  17.606  34.636  11.095
36559W        W 8142  20.291  39.808   2.639
36560W        W 8143  34.867  28.941   0.217
36561W        W 8144  29.361   3.454  13.936
36562W        W 8145  26.623  16.674   3.294
36563W        W 8146  34.782   9.048  12.454
36564W        W 8147   8.825  40.296  10.464
36565W        W 8148  34.707  34.665   2.701
36566W        W 8149  40.072  11.789   0.360
36567W        W 8150  27.548  17.534  14.028
36568W        W 8151   4.273  38.280   3.191
36569W        W 8152  12.216  16.099   0.794
36570W        W 8153   0.993   1.194   3.613
36571W        W 8154  13.697   0.471  12.132
36572W        W 8155   9.904  22.335   3.388
36573W        W 8156  15.701   6.940  12.481
36574W        W 8157  11.765  24.733  12.995
36575W        W 8158  30.356  16.773  11.989
36576W        W 8159  28.002  14.583  14.813
36577W        W 8160   1.142   5.463   0.203
36578W        W 8161  30.929  22.548   3.195
36579W        W 8162   6.964  44.864  11.651
36580W        W 8163  15.183  26.870   3.598
36581W        W 8164  32.102   2.595   0.866
36582W        W 8165   5.441   0.754   3.059
36583W        W 8166  27.260   0.962  13.436
36584W        W 8167  22.474  32.659   0.090
36585W        W 8168  32.398   4.828  10.609
36586W        W 8169  15.304  17.697   2.835
36587W        W 8170  32.965   8.323   4.087
36588W        W 8171  20.962  24.226   0.888
36589W        W 8172  30.909  28.150  11.535
36590W        W 8173   9.130  39.863   1.599
36591W        W 8174  38.250  29.156   2.752
36592W        W 8175  20.039  41.534   4.587
36593W        W 8176   2.760  37.409  10.949
36594W        W 8177  21.958  16.344  14.045
36595W        W 8178  34.141  28.413   1.298
36596W        W 8179  19.379  37.222   0.238
36597W        W 8180  37.983  44.320  11.139
36598W        W 8181  34.991  30.001   3.578
36599W        W 8182  40.270  25.554   0.327
36600W        W 8183  25.438   1.484   0.985
36601W        W 8184  14.986   4.129  14.948
36602W        W 8185   6.343  11.720  13.514
36603W        W 8186  22.163   5.891  14.026
36604W        W 8187  16.781  12.288   4.819
36605W        W 8188  20.529  29.997   4.627
36606W        W 8189  32.926  39.575  12.997
36607W        W 8190  38.770  38.891   4.186
36608W        W 8191   5.755  31.090  13.528
36609W        W 8192  10.324   9.846   4.579
36610W        W 8193  44.969   0.035   0.912
36611W        W 8194  23.888  15.421  14.290
36612W        W 8195  31.774  31.468  11.074
36613W        W 8196  34.589  25.111   0.259
36614W        W 8197  24.491  19.536  13.816
36615W        W 8198  41.096   0.456  13.755
36616W        W 8199  36.008  44.483   4.023
36617W        W 8200   3.999  29.468   4.112
36618W        W 8201  16.153  32.348  14.316
36619W        W 8202  28.440  43.761  12.546
36620W        W 8203  28.999  32.360  11.971
36621W        W 8204   8.736  31.528  14.858
36622W        W 8205  38.402  33.762  13.034
36623W        W 8206  23.623  33.840  11.161
36624W        W 8207  18.225  30.649  11.376
36625W        W 8208  22.216  35.881   3.687
36626W        W 8209  41.594  33.778  13.384
36627W        W 8210  36.396  17.750  10.895
36628W        W 8211  38.965   5.878   3.640
36629W        W 8212  41.896   8.464  12.472
36630W        W 8213  25.247  36.833   0.859
36631W        W 8214  32.141  37.505   4.784
36632W        W 8215  35.596  23.140   1.248
36633W        W 8216  18.576  43.348   0.753
36634W        W 8217  40.292  15.053   4.722
36635W        W 8218  20.011   1.642   9.970
36636W        W 8219  44.331  22.184   4.608
36637W        W 8220  22.260  28.052   2.737
36638W        W 8221  21.956  17.800  11.106
36639W        W 8222  19.714  37.884   4.900
36640W        W 8223   3.508  22.098  10.706
36641W        W 8224  37.457  28.988   1.309
36642W        W 8225   1.711   0.767   3.402
36643W        W 8226   7.244   2.214   4.248
36644W        W 8227   9.683  19.224   1.002
36645W        W 8228  32.961  28.680   1.724
36646W        W 8229  40.527  39.419   4.623
36647W        W 8230  37.988  43.332  13.835
36648W        W 8231  38.241  10.420  12.409
36649W        W 8232  28.951  23.034   0.826
36650W        W 8233  25.259  29.027   2.701
36651W        W 8234  14.777  19.859  12.264
36652W        W 8235  14.327  25.588   2.859
36653W        W 8236  44.512  39.241  12.408
36654W        W 8237  19.183   8.527  10.939
36655W        W 8238  44.364  19.664  13.888
36656W        W 8239  16.792  43.787   3.768
36657W        W 8240  40.367   4.631  13.427
36658W        W 8241  38.556   7.427  14.939
36659W        W 8242  11.061   3.758   2.279
36660W        W 8243  34.760  23.847   5.129
36661W        W 8244  31.017  25.604  14.502
36662W        W 8245  13.655  23.555   3.280
36663W        W 8246  40.726  10.643   3.942
36664W        W 8247  44.510  31.680   1.238
36665W        W 8248  35.395  29.981   3.914
36666W        W 8249  42.423  40.878   1.767
36667W        W 8250   3.389  26.450   0.465
36668W        W 8251  25.521  20.276   3.142
36669W        W 8252  16.884  30.626   4.560
36670W        W 8253  10.306  25.728   1.769
36671W        W 8254  37.067  26.536   0.195
36672W        W 8255  41.788  40.917   4.601
36673W        W 8256  33.930   4.657   4.147
36674W        W 8257   0.464  29.657  10.721
36675W        W 8258  43.552  40.078  14.066
36676W        W 8259  28.402   1.615  12.471
36677W        W 8260  24.553  19.353   1.163
36678W        W 8261   1.729  16.061  13.300
36679W        W 8262  44.830   3.686   2.251
36680W        W 8263  12.436   6.779  14.015
36681W        W 8264  10.521   2.423  10.629
36682W        W 8265  38.740   3.980   3.100
36683W        W 8266  19.307  24.284  13.406
36684W        W 8267  32.359  33.870   1.785
36685W        W 8268  27.677  42.916  13.392
36686W        W 8269  17.505  17.778   0.796
36687W        W 8270  43.558  30.672   0.868
36688W        W 8271   3.852  30.040  13.046
36689W        W 8272  20.079  10.789   0.311
36690W        W 8273  38.570   9.122  14.590
36691W        W 8274   3.818   4.684   3.181
36692W        W 8275  34.598   4.893   1.584
36693W        W 8276  15.856  38.849   5.349
36694W        W 8277   8.616  23.756  13.011
36695W        W 8278  25.384  16.071  11.554
36696W        W 8279   3.724   1.662  10.427
36697W        W 8280  11.276  28.139  11.656
36698W        W 8281  16.273   4.505   3.798
36699W        W 8282   8.340  29.372  11.276
36700W        W 8283   1.978  40.037  14.873
36701W        W 8284  33.512   4.228   2.863
36702W        W 8285   0.593  18.164  14.428
36703W        W 8286   8.303  44.758   1.970
36704W        W 8287  18.456  40.357  11.586
36705W        W 8288   2.359   0.457  10.207
36706W        W 8289  29.465   9.356   1.955
36707W        W 8290  26.956  14.273   3.899
36708W        W 8291  18.231  19.716   2.440
36709W        W 8292  19.209  11.177  13.417
36710W        W 8293   9.240  40.612  11.220
36711W        W 8294   4.770  44.180  12.085
36712W        W 8295  17.901  22.317  13.016
36713W        W 8296  35.875  39.145   5.212
36714W        W 8297  14.246  34.474   2.537
36715W        W 8298  36.611  33.896  14.915
36716W        W 8299  37.295  38.638   3.195
36717W        W 8300  15.703  33.583   3.669
36718W        W 8301  23.979  35.492   0.195
36719W        W 8302  41.021   8.852  12.056
36720W        W 8303  28.139  34.594  14.242
36721W        W 8304   3.737  16.291   1.215
36722W        W 8305  34.006  37.572  13.562
36723W        W 8306  34.871  41.525   1.377
36724W        W 8307   5.675  20.235   4.363
36725W        W 8308  34.034  24.287  12.438
36726W        W 8309  14.808   9.625  11.572
36727W        W 8310   0.051  41.427   3.286
36728W        W 8311  34.502   3.751   1.675
36729W        W 8312  36.619  12.135   4.140
36730W        W 8313  41.737  43.008  10.599
36731W        W 8314  25.236  41.589  11.030
36732W        W 8315   0.978   8.320   0.753
36733W        W 8316  40.805  24.430  14.070
36734W        W 8317  20.128   0.917  10.674
36735W        W 8318  31.872  30.722  12.532
36736W        W 8319   3.913  22.722  13.906
36737W        W 8320  32.027  26.754   5.056
36738W        W 8321  16.758  27.056   0.292
36739W        W 8322   5.884  33.691   4.889
36740W        W 8323  22.459  21.286  14.150
36741W        W 8324  31.433  31.391  11.452
36742W        W 8325  41.092   2.513  12.146
36743W        W 8326  29.485  24.259  10.578
36744W        W 8327   2.076  15.417  13.129
36745W        W 8328  17.602  30.591  14.879
36746W        W 8329   1.327  22.427   1.786
36747W        W 8330  17.290  40.995  11.279
36748W        W 8331  35.608  39.067   2.339
36749W        W 8332  23.060   9.643  11.158
36750W        W 8333  26.363  39.596  12.082
36751W        W 8334  24.133  32.153   2.980
36752W        W 8335  20.482  11.260  11.439
36753W        W 8336  35.496  29.500  11.351
36754W        W 8337  10.873  34.277   2.279
36755W        W 8338  20.203  17.979  12.415
36756W        W 8339  26.423  10.300   4.981
36757W        W 8340  24.575   3.040   4.253
36758W        W 8341   2.479  40.087  11.085
36759W        W 8342  34.101  13.750  13.798
36760W        W 8343   1.786  27.979   4.432
36761W        W 8344  24.504  10.332   5.537
36762W        W 8345  28.008  14.243  10.681
36763W        W 8346  33.182  33.409   4.065
36764W        W 8347  39.035   8.208  12.883
36765W        W 8348  18.869  20.663  12.077
36766W        W 8349  25.104  23.943   4.141
36767W        W 8350  11.089  26.923  14.849
36768W        W 8351   8.343  10.682   1.497
36769W        W 8352  41.542  33.467  10.755
36770W        W 8353  40.837  28.939   1.867
36771W        W 8354  44.248  25.007   1.816
36772W        W 8355   4.818  25.120   2.792
36773W        W 8356  43.364  15.240   0.305
36774W        W 8357  41.733  19.213  11.581
36775W        W 8358  43.520  11.771   0.337
36776W        W 8359  37.550  29.695   2.747
36777W        W 8360  40.430  33.592   0.311
36778W        W 8361   7.775  25.919   4.573
36779W        W 8362   7.207  37.793   2.057
36780W        W 8363   2.805   6.612  13.339
36781W        W 8364  15.445  36.702   1.345
36782W        W 8365  10.826  36.479   3.737
36783W        W 8366  36.384  42.257  13.489
36784W        W 8367  41.745  26.235   2.169
36785W        W 8368  22.029  32.600  13.607
36786W        W 8369  33.881  44.305  14.852
36787W        W 8370  24.259   5.227   4.176
36788W        W 8371   9.711   7.118  12.730
36789W        W 8372  38.505  13.608   1.375
36790W        W 8373   5.705   4.913  11.144
36791W        W 8374  18.420  34.985   1.797
36792W        W 8375   3.186  29.144   4.200
36793W        W 8376  29.322  37.402   4.078
36794W        W 8377  23.998  42.361   2.260
36795W        W 8378  17.016   8.166  11.571
36796W        W 8379  19.011  42.765  11.160
36797W        W 8380  32.285  17.306   2.851
36798W        W 8381   3.905  26.392  13.545
36799W        W 8382  43.055  34.944  14.060
36800W        W 8383   6.229  25.549  12.538
36801W        W 8384   9.729  11.905  12.099
36802W        W 8385  25.483  44.372   3.054
36803W        W 8386  31.879  11.586   1.257
36804W        W 8387  35.859   2.803  14.485
36805W        W 8388  41.397  27.505  11.222
36806W        W 8389  21.528   7.185   3.669
36807W        W 8390   9.352   6.503   0.836
36808W        W 8391  35.075   3.459   0.954
36809W        W 8392  24.685  22.044  11.931
36810W        W 8393  33.431   3.190  10.841
36811W        W 8394   5.424  13.433   2.090
36812W        W 8395  44.586   2.531   4.141
36813W        W 8396  37.109  39.829  13.747
36814W        W 8397  25.746  40.513   3.846
36815W        W 8398   7.764   0.472   0.192
36816W        W 8399   7.256  31.548  12.487
36817W        W 8400  11.759  11.305  13.409
36818W        W 8401  35.994  14.867   2.872
36819W        W 8402   1.023  18.574  14.836
36820W        W 8403  42.006   6.790   3.240
36821W        W 8404  20.255  24.650  10.854
36822W        W 8405   2.653  30.091   5.031
36823W        W 8406  32.689  11.212   2.345
36824W        W 8407   2.399  35.981   4.266
36825W        W 8408  26.493  25.098  10.309
36826W        W 8409  37.675   9.203   3.768
36827W        W 8410  20.840  19.908  11.411
36828W        W 8411  34.539  12.202  11.993
36829W        W 8412  33.612  23.105  13.023
36830W        W 8413  25.943  11.401   0.956
36831W        W 8414   2.387  21.181   3.881
36832W        W 8415  42.344   9.743  13.599
36833W        W 8416  17.269  27.597  10.082
36834W        W 8417  10.424  36.474  14.263
36835W        W 8418  21.684  42.318  11.985
36836W        W 8419  14.033   5.106   1.855
36837W        W 8420  37.844  33.934   2.442
36838W        W 8421  28.651  32.094   2.345
36839W        W 8422   6.993  44.849  12.472
36840W        W 8423  36.925   6.306   0.274
36841W        W 8424  41.267  27.859   4.738
36842W        W 8425  43.492  23.164  11.130
36843W        W 8426   4.277  29.886   4.232
36844W        W 8427   7.702   6.211  14.483
36845W        W 8428  13.502  28.093   0.374
36846W        W 8429  40.826  20.862  13.939
36847W        W 8430  15.831  10.632  11.533
36848W        W 8431  35.932  39.987   1.816
36849W        W 8432  32.841  21.471  13.322
36850W        W 8433  21.333  19.168   4.046
36851W        W 8434  43.621  23.225  13.083
36852W        W 8435  10.123  15.375  12.508
36853W        W 8436   3.132  29.322   1.922
36854W        W 8437   9.371   8.302  11.645
36855W        W 8438  39.354  39.555  13.407
36856W        W 8439  35.482   0.032   1.219
36857W        W 8440  14.729  28.601  12.961
36858W        W 8441   8.825  10.374   0.479
36859W        W 8442  15.292  28.454   4.901
36860W        W 8443  26.802  36.052  12.880
36861W        W 8444  24.156  34.787   2.064
36862W        W 8445  27.015   7.731   4.704
36863W        W 8446   1.697  37.320   9.634
36864W        W 8447  14.587  10.929  12.874
36865W        W 8448   4.480  42.777   1.217
36866W        W 8449  30.093  12.645   3.130
36867W        W 8450  31.570  15.509   1.008
36868W        W 8451   7.274   7.151  12.184
36869W        W 8452   4.024  29.898   2.378
36870W        W 8453   6.974  21.992   3.130
36871W        W 8454  31.407   5.926   4.455
36872W        W 8455   5.757  37.542   1.843
36873W        W 8456  26.433   1.694   1.244
36874W        W 8457  42.443  36.566  13.232
36875W        W 8458  27.989  37.007  13.971
36876W        W 8459  44.567  35.525  14.438
36877W        W 8460  34.170  15.533  10.728
36878W        W 8461  18.230  39.994   4.411
36879W        W 8462  25.713  37.602  12.164
36880W        W 8463  39.050  40.137  11.845
36881W        W 8464  36.847  17.688   0.462
36882W        W 8465  12.716  28.119  13.864
36883W        W 8466   3.769  44.279  10.693
36884W        W 8467  40.151  23.617   2.751
36885W        W 8468  44.767   6.959   4.067
36886W        W 8469  30.646  12.215   1.321
36887W        W 8470  14.740  31.053   0.929
36888W        W 8471  29.237  29.158   1.501
36889W        W 8472  16.900  28.262  12.151
36890W        W 8473  15.132   4.298   0.968
36891W        W 8474  42.757  24.587   0.813
36892W        W 8475  34.690  38.662   2.305
36893W        W 8476  18.513  33.084   2.772
36894W        W 8477  20.738  27.427   5.566
36895W        W 8478  44.874  35.087  11.105
36896W        W 8479  40.056   2.747   3.813
36897W        W 8480  11.378  13.584  14.921
36898W        W 8481  34.062  16.703   1.192
36899W        W 8482  19.567   8.548   3.226
36900W        W 8483  10.758  14.395  14.847
36901W        W 8484  39.355  21.030   0.048
36902W        W 8485  29.892  23.150   3.730
36903W        W 8486  20.579   1.402  12.855
36904W        W 8487  26.158  43.126   2.182
36905W        W 8488  44.876  39.873  11.170
36906W        W 8489  11.567  16.259  14.005
36907W        W 8490  23.525  28.470  14.883
36908W        W 8491  36.316  40.910   1.742
36909W        W 8492  30.135  38.925  14.030
36910W        W 8493  40.872  16.023  10.417
36911W        W 8494   3.495  14.417   4.161
36912W        W 8495   6.661  25.908  10.794
36913W        W 8496  18.661   7.380  10.680
36914W        W 8497  43.398   3.177  12.685
36915W        W 8498   6.528  42.259  13.045
36916W        W 8499  22.483  23.955   2.426
36917W        W 8500  32.147  19.197  12.898
36918W        W 8501  15.300   6.015  14.019
36919W        W 8502  14.522  39.513  11.557
36920W        W 8503  18.731  37.539  13.077
36921W        W 8504  35.096  15.707  13.179
36922W        W 8505  21.947  19.026   3.242
36923W        W 8506  18.787   5.160  13.317
36924W        W 8507  22.742  34.063  11.644
36925W        W 8508   5.956  18.485   3.691
36926W        W 8509   2.697   1.137  12.018
36927W        W 8510   4.923  37.281  14.413
36928W        W 8511   0.006  24.358  13.424
36929W        W 8512  12.670  22.003   0.263
36930W        W 8513   6.224  10.099   0.400
36931W        W 8514  32.249  15.121   3.738
36932W        W 8515  40.227   3.886   2.296
36933W        W 8516  29.167  33.384   0.353
36934W        W 8517  21.036  12.950  14.314
36935W        W 8518  29.284   1.433  14.980
36936W        W 8519   7.160  14.822   1.849
36937W        W 8520  36.696  39.305  10.765
36938W        W 8521  15.889  31.922   1.860
36939W        W 8522  35.371  13.565  11.657
36940W        W 8523  17.974  18.584   4.344
36941W        W 8524  39.542   6.993   4.631
36942W        W 8525  44.922   1.793   4.614
36943W        W 8526  11.607  26.989   2.414
36944W        W 8527  26.086  22.128   1.235
36945W        W 8528  18.626  34.646  11.516
36946W        W 8529  22.191  24.168  10.683
36947W        W 8530   9.526  10.600  14.580
36948W        W 8531  23.561   7.452   3.856
36949W        W 8532   1.736  18.335   0.503
36950W        W 8533  20.591  16.333  10.590
36951W        W 8534  20.978  22.492   2.205
36952W        W 8535  16.307   7.694   3.660
36953W        W 8536  21.773  19.545   9.830
36954W        W 8537   3.319  14.332   3.325
36955W        W 8538  14.105   6.439  11.610
36956W        W 8539  35.585  21.614   0.349
36957W        W 8540  11.801  34.898   3.493
36958W        W 8541  43.044  15.833   2.034
36959W        W 8542  24.316  31.489  14.774
36960W        W 8543  10.397  35.000   2.678
36961W        W 8544  18.739  34.907  14.494
36962W        W 8545  28.990  41.013   3.807
36963W        W 8546  42.335   4.297  13.092
36964W        W 8547  10.942  31.692  11.230
36965W        W 8548  37.898  37.356  12.462
36966W        W 8549  19.892  34.877  12.920
36967W        W 8550  43.287  21.794  11.192
36968W        W 8551  14.661  20.554  13.473
36969W        W 8552  11.595  40.432   3.766
36970W        W 8553  34.330  21.579   2.728
36971W        W 8554  26.484  21.160   1.216
36972W        W 8555  11.124  33.552  12.947
36973W        W 8556   6.441   0.146  12.439
36974W        W 8557  39.450  37.454  13.325
36975W        W 8558  13.872   7.344  12.744
36976W        W 8559  20.227  30.513  14.995
36977W        W 8560  21.690   1.211  11.153
36978W        W 8561  26.413  22.383  11.577
36979W        W 8562  33.436  19.626  14.953
36980W        W 8563   3.232  20.258   3.838
36981W        W 8564   2.615  25.784   1.764
36982W        W 8565  34.506  38.869   4.105
36983W        W 8566  35.005  28.693  12.161
36984W        W 8567  41.850  18.294  14.855
36985W        W 8568   9.395  43.375  14.857
36986W        W 8569  16.131  42.022   1.438
36987W        W 8570  29.109  20.817  14.004
36988W        W 8571  31.163  43.032   2.627
36989W        W 8572  13.262   5.597   3.568
36990W        W 8573  23.372   9.162   5.085
36991W        W 8574  20.452   1.450  14.008
36992W        W 8575  12.688  31.355   2.110
36993W        W 8576  27.592  24.138  11.375
36994W        W 8577  39.240  15.502   4.622
36995W        W 8578  37.113   5.140   2.246
36996W        W 8579  21.054  23.711   1.797
36997W        W 8580  33.882  32.162   1.231
36998W        W 8581  18.666   8.722   1.147
36999W        W 8582  44.004  37.055  10.752
37000W        W 8583  43.502  30.499  14.402
37001W        W 8584  28.929  18.632  12.431
37002W        W 8585  33.943  19.986  10.816
37003W        W 8586  36.083  11.381  10.864
37004W        W 8587   0.477   0.346   0.105
37005W        W 8588  10.208  42.976  10.577
37006W        W 8589   1.900  21.333   3.823
37007W        W 8590  41.348  16.092   1.635
37008W        W 8591   4.927  17.701   0.299
37009W        W 8592  36.899  34.220   1.930
37010W        W 8593  10.396   6.521   5.179
37011W        W 8594  20.039  35.491  14.009
37012W        W 8595  11.719  25.501  11.655
37013W        W 8596  30.925  33.389   4.300
37014W        W 8597   2.320  39.353   4.599
37015W        W 8598  41.425  32.310  13.474
37016W        W 8599  24.218   2.396   0.396
37017W        W 8600  24.127   5.741   1.604
37018W        W 8601  30.980   0.036  14.818
37019W        W 8602  33.793  27.165  13.246
37020W        W 8603  11.434  37.581  14.724
37021W        W 8604  36.385  32.181   3.201
37022W        W 8605  15.381  30.004   3.750
37023W        W 8606   1.535   7.652  12.505
37024W        W 8607  16.136   3.221   3.054
37025W        W 8608  34.504  39.612   0.595
37026W        W 8609  19.064   5.772  10.791
37027W        W 8610   4.498  11.219   0.838
37028W        W 8611  26.460  13.243   5.058
37029W        W 8612  36.835  27.467  13.353
37030W        W 8613  23.264  29.073  13.334
37031W        W 8614  22.228  11.554  13.829
37032W        W 8615  43.469  12.167  14.412
37033W        W 8616  25.667  10.612  11.536
37034W        W 8617  40.011  27.280   3.945
37035W        W 8618  20.431   4.504   0.190
37036W        W 8619  33.547  18.740  10.208
37037W        W 8620  34.376  34.555  12.428
37038W        W 8621   7.599   2.848   1.429
37039W        W 8622  12.951  38.088  11.123
37040W        W 8623  27.482  26.106  12.358
37041W        W 8624  25.396  10.793  11.142
37042W        W 8625  43.466   2.933  11.371
37043W        W 8626  11.850  10.046   5.059
37044W        W 8627  24.892   0.318  11.412
37045W        W 8628   1.828  22.549  14.843
37046W        W 8629  30.738  36.080  10.393
37047W        W 8630   4.400  31.863   1.758
37048W        W 8631  13.165  15.808  11.499
37049W        W 8632  27.536  27.076   4.567
37050W        W 8633  34.379  22.485  12.422
37051W        W 8634  40.326  22.007  10.645
37052W        W 8635  30.974  21.092  13.071
37053W        W 8636  15.907  22.026  11.844
37054W        W 8637  20.293   7.065   4.234
37055W        W 8638  15.312  11.606   2.299
37056W        W 8639  23.647   1.908  13.971
37057W        W 8640   2.020  36.626  14.070
37058W        W 8641  38.107  37.906  14.907
37059W        W 8642  43.936   9.289  14.510
37060W        W 8643   6.723  29.498   3.288
37061W        W 8644  17.547   2.257   2.271
37062W        W 8645  32.509  38.821  10.573
37063W        W 8646  29.346  12.647   2.354
37064W        W 8647   9.801  28.898  14.070
37065W        W 8648  20.502   2.266  10.637
37066W        W 8649  44.044  43.656   0.290
37067W        W 8650   6.990  20.806  14.307
37068W        W 8651   5.963  29.091   1.393
37069W        W 8652  24.754   2.831  14.837
37070W        W 8653   8.134  28.861   0.102
37071W        W 8654  35.437  26.705  13.119
37072W        W 8655  22.789  23.034  13.604
37073W        W 8656  41.543  39.423   1.685
37074W        W 8657   4.749   7.363   2.847
37075W        W 8658   7.018  17.249   3.929
37076W        W 8659  24.445   1.853   2.324
37077W        W 8660  40.944  42.526  10.657
37078W        W 8661  10.853  30.395  11.936
37079W        W 8662  38.760  26.601  12.185
37080W        W 8663   0.030   7.267  14.571
37081W        W 8664  33.897  41.578  14.061
37082W        W 8665  13.850   8.374  11.270
37083W        W 8666   6.649  10.804  13.817
37084W        W 8667  32.092   0.061  13.936
37085W        W 8668  16.761  16.223  14.848
37086W        W 8669  34.485  23.999   4.722
37087W        W 8670  11.819  30.534   2.662
37088W        W 8671   3.681  32.467   0.343
37089W        W 8672  27.062  19.190   3.670
37090W        W 8673  37.964  30.750  14.969
37091W        W 8674   4.234  41.884  14.955
37092W        W 8675  35.933  33.133   3.722
37093W        W 8676  31.964  12.112   3.304
37094W        W 8677  30.682  29.276  13.859
37095W        W 8678  41.696  15.818   0.985
37096W        W 8679  42.515  30.524   1.734
37097W        W 8680  17.298  28.916   2.377
37098W        W 8681  40.464  39.123  12.576
37099W        W 8682   8.643  25.410   1.334
37100W        W 8683   6.803  21.597   2.650
37101W        W 8684  14.759  22.226   4.200
37102W        W 8685  32.428   2.941   3.302
37103W        W 8686   6.778  13.428   2.266
37104W        W 8687  26.135  40.000  10.500
37105W        W 8688   4.821   7.698   2.393
37106W        W 8689  22.384  36.305  11.640
37107W        W 8690   4.252  21.544   1.007
37108W        W 8691  37.812   3.790   3.547
37109W        W 8692   1.819  30.708   1.378
37110W        W 8693  34.402   5.332  13.158
37111W        W 8694  17.747  26.082  11.477
37112W        W 8695  36.893  19.741  10.960
37113W        W 8696  36.897  32.477  13.905
37114W        W 8697  33.598  20.969  11.964
37115W        W 8698  44.914  22.257   3.120
37116W        W 8699  43.289   5.166  11.665
37117W        W 8700  41.404   2.045  13.442
37118W        W 8701  23.616  43.728  11.410
37119W        W 8702  28.378  23.405  11.847
37120W        W 8703  12.277  39.281   4.238
37121W        W 8704  35.264   0.490  14.681
37122W        W 8705  28.001   9.569  13.416
37123W        W 8706  11.807   9.294  14.241
37124W        W 8707  27.109  17.303  10.657
37125W        W 8708  10.206   1.027  12.561
37126W        W 8709  44.297   8.248   4.036
37127W        W 8710  18.757  25.676   5.408
37128W        W 8711  15.025  17.328   3.594
37129W        W 8712   4.278  42.874  10.740
37130W        W 8713   6.690  41.277   0.405
37131W        W 8714  10.908  14.285  14.315
37132W        W 8715  19.719  20.657  11.526
37133W        W 8716  40.565  41.264  14.154
37134W        W 8717  39.814  31.954  14.845
37135W        W 8718  43.846  39.425  12.859
37136W        W 8719   2.585   9.496  11.971
37137W        W 8720  33.473   1.449   3.785
37138W        W 8721   9.120  24.453   3.252
37139W        W 8722   8.500  22.807  13.068
37140W        W 8723  20.023  41.670   0.257
37141W        W 8724   3.532   8.400   0.430
37142W        W 8725  23.428   2.363  12.731
37143W        W 8726  13.682  13.540  14.895
37144W        W 8727  40.337   5.844   1.257
37145W        W 8728  36.414  30.975   2.016
37146W        W 8729  18.091  15.998  14.890
37147W        W 8730   0.774  20.312   2.253
37148W        W 8731  35.656  42.068  12.048
37149W        W 8732   2.891  43.839   4.353
37150W        W 8733  42.801   4.666   4.909
37151W        W 8734  25.595  36.433  13.852
37152W        W 8735  10.571  14.301   1.933
37153W        W 8736  32.447  41.384  12.007
37154W        W 8737  42.962   7.836  12.183
37155W        W 8738   4.956  27.537   4.787
37156W        W 8739   6.497  24.201  12.425
37157W        W 8740   9.055  26.931   3.774
37158W        W 8741  34.904  26.595  14.515
37159W        W 8742  39.952   3.258  12.687
37160W        W 8743  35.706  31.563   1.534
37161W        W 8744  23.691  44.452   1.895
37162W        W 8745  17.274  14.541   2.608
37163W        W 8746   5.939  11.239   0.431
37164W        W 8747  36.166  27.629  12.547
37165W        W 8748  12.176  11.154   2.901
37166W        W 8749  32.146  11.254  13.402
37167W        W 8750  40.047   2.882  11.595
37168W        W 8751  14.575  19.708   4.177
37169W        W 8752  42.415  30.171   3.574
37170W        W 8753  16.705  37.789   1.350
37171W        W 8754   5.382  20.981  14.529
37172W        W 8755   4.639   3.889  14.746
37173W        W 8756  15.882  39.501   2.056
37174W        W 8757  19.790   2.749   0.813
37175W        W 8758  35.128  22.570   1.971
37176W        W 8759  10.481   9.480  11.201
37177W        W 8760  11.576  39.432  13.981
37178W        W 8761  13.847  25.709   2.696
37179W        W 8762  22.825  37.694  10.934
37180W        W 8763  44.953  37.182   2.804
37181W        W 8764  13.183  43.892   2.417
37182W        W 8765  35.049   8.813  11.906
37183W        W 8766   2.478  40.100  12.057
37184W        W 8767  23.392  22.314  12.920
37185W        W 8768  37.549  23.049  14.702
37186W        W 8769  41.552  28.791  11.888
37187W        W 8770  38.672  18.906   3.767
37188W        W 8771   0.814  34.902   3.361
37189W        W 8772  35.552   8.233   3.774
37190W        W 8773  42.446  14.330  13.816
37191W        W 8774  19.351  43.868   1.035
37192W        W 8775  28.849   2.296  13.927
37193W        W 8776   7.611  31.517   3.630
37194W        W 8777  20.047  26.894  11.552
37195W        W 8778  38.878  24.300   2.288
37196W        W 8779   3.515  18.480   4.652
37197W        W 8780  13.850  29.979   0.461
37198W        W 8781  32.542   9.643   1.386
37199W        W 8782  32.472   7.447  12.794
37200W        W 8783  13.640   2.011  11.131
37201W        W 8784   8.526  24.423  11.095
37202W        W 8785  26.477  39.935   0.849
37203W        W 8786  21.232  29.710   2.261
37204W        W 8787  16.688  34.596  10.129
37205W        W 8788  17.541  29.192  13.321
37206W        W 8789   5.630  22.817   1.881
37207W        W 8790  42.785  31.304   0.239
37208W        W 8791   4.321  41.470  11.590
37209W        W 8792  37.737  21.877  12.926
37210W        W 8793  34.162   1.898   1.353
37211W        W 8794   8.153   5.151  12.997
37212W        W 8795  12.760  43.329   3.805
37213W        W 8796   8.065  26.503  14.769
37214W        W 8797  42.715   1.460   1.396
37215W        W 8798  17.129  41.469  11.461
37216W        W 8799  31.941  10.129  10.623
37217W        W 8800  29.974   9.369   1.989
37218W        W 8801  40.951  17.208   3.629
37219W        W 8802  35.020  12.233  11.649
37220W        W 8803  16.786  21.608  11.441
37221W        W 8804  32.743  18.809   3.219
37222W        W 8805  32.350   5.656   3.400
37223W        W 8806   5.367  23.699   3.252
37224W        W 8807   7.867  33.627  14.576
37225W        W 8808  36.454  30.209   1.221
37226W        W 8809  13.915  33.883   3.301
37227W        W 8810   2.690   3.384  12.301
37228W        W 8811  24.511   7.410  11.178
37229W        W 8812  30.043  43.579   3.209
37230W        W 8813  11.713  20.796  14.919
37231W        W 8814   4.318   0.215  12.924
37232W        W 8815  21.493  35.103   0.820
37233W        W 8816  29.271  30.558   3.260
37234W        W 8817  17.054  18.063   2.229
37235W        W 8818  38.795  35.180  10.710
37236W        W 8819  18.060   6.338   2.839
37237W        W 8820  11.426   8.648  12.329
37238W        W 8821   6.425  14.345   2.385
37239W        W 8822  37.209  18.031  10.106
37240W        W 8823  43.835  16.069   2.777
37241W        W 8824  42.830  27.682  11.512
37242W        W 8825  22.656   0.433  11.756
37243W        W 8826  15.050  34.686   2.376
37244W        W 8827  38.015  26.112   3.250
37245W        W 8828   5.087  21.511  13.378
37246W        W 8829  31.553  19.235  10.846
37247W        W 8830  33.607   9.125  11.618
37248W        W 8831  22.300  17.173   0.497
37249W        W 8832   4.324   4.147   0.906
37250W        W 8833  31.164  23.133  14.467
37251W        W 8834  21.633   1.934  12.155
37252W        W 8835  34.511  34.461   0.616
37253W        W 8836  26.626  42.693  14.416
37254W        W 8837  24.527  21.524  12.002
37255W        W 8838   9.290  25.050  10.107
37256W        W 8839  16.882  25.730  10.194
37257W        W 8840  28.548  40.342   1.150
37258W        W 8841  24.696  36.410  12.670
37259W        W 8842  39.376   1.830  12.646
37260W        W 8843   3.391  38.846  14.910
37261W        W 8844  44.392  18.145   3.618
37262W        W 8845  17.774  19.202   1.797
37263W        W 8846  34.130  37.412   1.506
37264W        W 8847   3.398  17.198   0.344
37265W        W 8848  38.716  28.515   1.477
37266W        W 8849  42.813   6.285  13.581
37267W        W 8850  33.049  40.699   0.827
37268W        W 8851  34.680  44.559  10.663
37269W        W 8852  38.411   1.293  14.382
37270W        W 8853  32.469  24.495  11.249
37271W        W 8854  33.413   6.227  13.739
37272W        W 8855   8.415  33.543  10.807
37273W        W 8856   0.955  42.224   2.937
37274W        W 8857  31.873  17.219  13.816
37275W        W 8858  19.980  25.041  12.907
37276W        W 8859  24.643   8.577  14.311
37277W        W 8860  35.641  27.593  12.565
37278W        W 8861   3.552  26.021   3.673
37279W        W 8862  11.591   1.060  12.378
37280W        W 8863  44.417  26.279  14.022
37281W        W 8864  41.469   5.988   4.643
37282W        W 8865  34.382  41.872   3.677
37283W        W 8866  14.703   9.662  12.478
37284W        W 8867  37.514  19.312  12.476
37285W        W 8868  31.608   2.863  14.988
37286W        W 8869   6.616  18.642   2.478
37287W        W 8870   3.617   2.959   2.335
37288W        W 8871   3.364   8.470   2.677
37289W        W 8872  39.500  30.918  13.601
37290W        W 8873  40.065   6.202  13.051
37291W        W 8874  37.033  27.753  13.862
37292W        W 8875  43.302  12.230  11.131
37293W        W 8876  18.899  36.359   4.545
37294W        W 8877  28.208  37.593  11.159
37295W        W 8878  29.605   6.786   2.336
37296W        W 8879  36.365  25.698  11.495
37297W        W 8880  16.362  14.226   4.716
37298W        W 8881   6.945   1.876  14.289
37299W        W 8882  33.255  30.171  12.775
37300W        W 8883  23.786  19.539   1.458
37301W        W 8884  36.085   5.963  11.182
37302W        W 8885  41.504  44.358   4.589
37303W        W 8886   6.022  29.195   2.331
37304W        W 8887   5.699  13.165  12.439
37305W        W 8888  21.952  40.263   4.374
37306W        W 8889  29.221  13.424  13.689
37307W        W 8890  22.994  13.012   2.818
37308W        W 8891   8.972  19.108  13.329
37309W        W 8892  28.206  35.410  11.761
37310W        W 8893  27.188  15.357   2.999
37311W        W 8894   5.421  31.214   3.923
37312W        W 8895  26.722   9.961  13.297
37313W        W 8896  35.390  25.200   1.252
37314W        W 8897  17.270  10.763   4.152
37315W        W 8898  20.672  36.664  11.897
37316W        W 8899  11.142  37.495   5.010
37317W        W 8900  43.530  36.361   4.516
37318W        W 8901   9.659   4.996  10.622
37319W        W 8902  26.245  20.135  11.176
37320W        W 8903  37.809  43.484  10.750
37321W        W 8904  29.544  12.634  11.202
37322W        W 8905  38.952  24.053   0.744
37323W        W 8906  38.465   3.394  13.392
37324W        W 8907   4.191  15.403   1.347
37325W        W 8908   9.995  10.812   3.015
37326W        W 8909  24.499  16.367  14.865
37327W        W 8910   9.717   3.463  12.468
37328W        W 8911  28.518  34.804   1.408
37329W        W 8912  35.455  14.794  12.106
37330W        W 8913  22.545  22.049  11.055
37331W        W 8914  13.838   5.461  12.906
37332W        W 8915  17.405   8.856  11.148
37333W        W 8916  40.406  10.117   1.179
37334W        W 8917  44.580  32.476   3.347
37335W        W 8918  26.184  39.495  14.469
37336W        W 8919  39.313  10.083   4.596
37337W        W 8920  15.053  12.670  11.481
37338W        W 8921  14.840  32.662   1.330
37339W        W 8922  23.213  40.413  11.009
37340W        W 8923  29.233  42.467   2.617
37341W        W 8924  10.341  36.413  13.749
37342W        W 8925  15.488   6.107   2.824
37343W        W 8926  31.114  42.392  10.899
37344W        W 8927  40.390  40.387   1.328
37345W        W 8928   6.741  14.751  13.837
37346W        W 8929  11.789  28.047  14.928
37347W        W 8930  24.221  15.819  13.495
37348W        W 8931  30.162  23.488   2.033
37349W        W 8932  41.290  21.633  14.361
37350W        W 8933  21.039   3.440   0.373
37351W        W 8934  12.854  21.715   1.735
37352W        W 8935  19.538  40.389  11.179
37353W        W 8936  30.889   0.607  11.575
37354W        W 8937   2.420  32.420   1.384
37355W        W 8938  38.336  24.730  11.133
37356W        W 8939  29.014  41.513  12.478
37357W        W 8940  18.521  40.365   4.181
37358W        W 8941  26.043  13.178   3.783
37359W        W 8942   2.667   2.885  13.534
37360W        W 8943   8.668  17.751   3.838
37361W        W 8944  30.875  39.572   3.544
37362W        W 8945  23.283  26.885   4.634
37363W        W 8946  19.637  14.829   3.188
37364W        W 8947  11.322  25.755  10.921
37365W        W 8948  34.020  15.339  14.759
37366W        W 8949  20.513  27.973   1.289
37367W        W 8950   9.811  13.466   2.827
37368W        W 8951  20.028  32.509   2.120
37369W        W 8952  20.943  16.122   5.431
37370W        W 8953  38.973  42.681  13.172
37371W        W 8954  44.897  30.602  11.624
37372W        W 8955  29.200  26.501   4.536
37373W        W 8956  12.423  10.927   4.159
37374W        W 8957  11.152  27.151  11.279
37375W        W 8958  33.069  20.309   1.094
37376W        W 8959  31.557  19.843   4.564
37377W        W 8960  41.909   7.728  12.976
37378W        W 8961   2.461   7.427   4.086
37379W        W 8962  19.060   6.261   0.857
37380W        W 8963  40.282   0.712  14.830
37381W        W 8964  41.508   6.857   1.172
37382W        W 8965  27.952   6.680  10.654
37383W        W 8966   7.793   7.302   1.276
37384W        W 8967  37.013  42.920   3.667
37385W        W 8968  36.005   6.413  11.474
37386W        W 8969  39.617  44.752   2.846
37387W        W 8970  34.011  32.947   4.631
37388W        W 8971  23.026   0.978  11.052
37389W        W 8972  21.739  23.712  14.681
37390W        W 8973  25.583  16.778  14.712
37391W        W 8974   3.379  25.668  10.694
37392W        W 8975  11.156  27.215  13.849
37393W        W 8976  38.092  21.965   3.687
37394W        W 8977  29.673  44.095   3.681
37395W        W 8978  42.699  44.727  13.928
37396W        W 8979   9.467  10.399   3.242
37397W        W 8980  36.566   3.113  11.108
37398W        W 8981  41.934  15.162  13.315
37399W        W 8982  38.495  25.470  10.593
37400W        W 8983  10.058  10.289   1.778
37401W        W 8984  32.058  43.969  12.474
37402W        W 8985  26.545  32.481   0.395
37403W        W 8986  29.406  13.227  12.865
37404W        W 8987  16.310  30.276  13.621
37405W        W 8988  36.131  44.560   5.061
37406W        W 8989  11.371  16.070  12.233
37407W        W 8990   9.116  16.489  13.893
37408W        W 8991  35.555   2.802  13.454
37409W        W 8992  27.468   9.348   1.011
37410W        W 8993  33.542  19.541   4.765
37411W        W 8994   5.772  38.361   0.457
37412W        W 8995  25.517  27.754   1.489
37413W        W 8996  12.868   4.402   1.267
37414W        W 8997   2.439  34.159  13.500
37415W        W 8998  26.228  33.982   0.440
37416W        W 8999  13.826  31.706  14.746
37417W        W 9000   2.255  36.295  10.924
37418W        W 9001   4.753  29.335   0.389
37419W        W 9002  25.450   7.928  10.307
37420W        W 9003   8.787  31.028   1.201
37421W        W 9004   9.172  20.574   2.941
37422W        W 9005  42.577   7.292  10.682
37423W        W 9006  36.762   1.359   2.826
37424W        W 9007  41.819  27.937   4.630
37425W        W 9008  34.030  28.965   2.388
37426W        W 9009  33.851  20.530  12.101
37427W        W 9010  44.069  16.074  12.038
37428W        W 9011  42.426  17.580  14.888
37429W        W 9012  10.882  36.079  11.354
37430W        W 9013   8.925  26.577   1.889
37431W        W 9014  11.900  39.334  13.538
37432W        W 9015  38.192  44.389  10.146
37433W        W 9016  43.268  24.189   3.423
37434W        W 9017  33.428  40.058   3.172
37435W        W 9018  26.966  34.937  11.524
37436W        W 9019  31.883  19.340  11.574
37437W        W 9020  27.786  30.438   1.299
37438W        W 9021  29.672  29.412   1.383
37439W        W 9022  33.403  42.119   4.485
37440W        W 9023   0.851  21.851   2.201
37441W        W 9024  17.119   8.650  12.502
37442W        W 9025   5.631  23.364   1.203
37443W        W 9026   1.565  24.501   3.611
37444W        W 9027  29.565   9.881   0.294
37445W        W 9028   8.298   4.741   0.265
37446W        W 9029  24.598   4.488   0.616
37447W        W 9030  32.335   7.346   4.503
37448W        W 9031  34.326  38.586   0.965
37449W        W 9032  24.551  14.540  12.219
37450W        W 9033  41.009  17.596  13.828
37451W        W 9034  35.017  11.571   2.769
37452W        W 9035  44.815  25.493  11.029
37453W        W 9036  12.272  17.695   3.108
37454W        W 9037   4.367  16.742   1.627
37455W        W 9038  27.463  19.165  12.002
37456W        W 9039  22.424   4.776   2.664
37457W        W 9040  25.545   8.361  13.311
37458W        W 9041  38.772  31.177   3.243
37459W        W 9042  28.432  30.499  13.345
37460W        W 9043   3.512   7.817   3.686
37461W        W 9044  41.287   5.961  12.554
37462W        W 9045  27.403   7.661  11.506
37463W        W 9046  16.490  43.457   0.640
37464W        W 9047  26.217  26.882  12.540
37465W        W 9048   1.451  43.925   0.531
37466W        W 9049  25.077  40.001  12.384
37467W        W 9050  15.005  10.046  13.862
37468W        W 9051  37.058   6.320   2.890
37469W        W 9052  44.254  35.449  13.519
37470W        W 9053  15.833  13.184  12.906
37471W        W 9054  10.396  21.161  10.117
37472W        W 9055  41.798   2.899  10.844
37473W        W 9056  14.093  18.666  12.323
37474W        W 9057  39.037  17.015   3.627
37475W        W 9058  15.294   9.385  11.584
37476W        W 9059   7.502  25.098   0.311
37477W        W 9060  11.329  10.632  13.847
37478W        W 9061  42.341  26.180   0.203
37479W        W 9062  34.891   6.340  14.300
37480W        W 9063  31.874  38.505  14.123
37481W        W 9064  38.942  13.870   1.943
37482W        W 9065  33.019  28.093   3.843
37483W        W 9066  33.848   9.073   0.827
37484W        W 9067  18.604   2.287   5.177
37485W        W 9068  34.397  19.651  11.647
37486W        W 9069   3.829  14.161  14.992
37487W        W 9070  13.995  19.276   0.214
37488W        W 9071   5.707  23.797   4.612
37489W        W 9072   8.777  42.373   4.613
37490W        W 9073  23.213  44.838   3.413
37491W        W 9074   8.050   6.431  10.306
37492W        W 9075  29.085  35.477   1.934
37493W        W 9076  22.208  37.977  10.625
37494W        W 9077  24.063  27.133  14.281
37495W        W 9078   0.738  38.555  13.597
37496W        W 9079  36.083  11.115   1.751
37497W        W 9080   4.858  21.103  14.392
37498W        W 9081  12.557   2.259  10.725
37499W        W 9082   8.693  22.394  12.179
37500W        W 9083  13.878  33.619   1.646
37501W        W 9084   4.035   4.357   4.436
37502W        W 9085   3.151   2.795   2.207
37503W        W 9086  44.533  21.607  11.683
37504W        W 9087  24.225  36.508  14.606
37505W        W 9088   8.414   5.424   3.689
37506W        W 9089  37.591  16.699   0.795
37507W        W 9090  41.817   4.885  12.106
37508W        W 9091  38.440  37.559  13.280
37509W        W 9092   9.150  28.998   3.937
37510W        W 9093  36.885   0.041  13.690
37511W        W 9094   2.724  21.080  12.501
37512W        W 9095   0.832   3.337   2.713
37513W        W 9096  31.124  23.070   1.454
37514W        W 9097  34.034  15.329   0.303
37515W        W 9098  44.009  19.201   2.613
37516W        W 9099  12.125  29.889   3.783
37517W        W 9100  41.878  31.129   4.701
37518W        W 9101  17.172  29.468   5.170
37519W        W 9102  27.727  39.852   4.733
37520W        W 9103  17.382  12.310   2.672
37521W        W 9104   4.978  17.470  12.100
37522W        W 9105   0.235  17.172  11.200
37523W        W 9106   8.706  20.662  12.115
37524W        W 9107   0.968  37.004  10.953
37525W        W 9108  43.822   9.397  11.205
37526W        W 9109   7.192  33.129   1.754
37527W        W 9110  38.272  11.637   1.768
37528W        W 9111  40.505  32.084  14.010
37529W        W 9112   6.924  23.931  10.978
37530W        W 9113  37.356   9.209   1.782
37531W        W 9114  36.556   6.849   3.272
37532W        W 9115  38.332  22.390  11.826
37533W        W 9116  28.981  35.157   2.709
37534W        W 9117   7.130  41.036  13.395
37535W        W 9118   8.126   6.440  13.565
37536W        W 9119  34.356  30.628   0.453
37537W        W 9120  13.771  21.370   0.334
37538W        W 9121  37.860  26.975   2.970
37539W        W 9122  14.885  42.718  11.367
37540W        W 9123  21.491  28.488  11.968
37541W        W 9124  36.598   8.402  10.808
37542W        W 9125   5.703  24.968   2.876
37543W        W 9126   7.439  44.975   4.899
37544W        W 9127  22.023   0.785   3.833
37545W        W 9128  30.874  32.919  14.327
37546W        W 9129  36.602   2.747   1.802
37547W        W 9130  33.735   2.196   4.152
37548W        W 9131  19.022  26.170  11.169
37549W        W 9132  29.378  22.079   1.837
37550W        W 9133   3.961   7.846  10.534
37551W        W 9134  14.555  39.429  12.451
37552W        W 9135  14.233  10.878   3.423
37553W        W 9136  40.853  44.701   3.239
37554W        W 9137  38.533   3.518   3.104
37555W        W 9138  44.839  19.803   3.173
37556W        W 9139  19.439  35.919  13.498
37557W        W 9140  33.143  40.831  13.423
37558W        W 9141  27.047  43.360   5.122
37559W        W 9142  20.419  12.959  13.018
37560W        W 9143  38.033  25.320  14.121
37561W        W 9144  39.885  10.457   3.853
37562W        W 9145  22.197  37.895  14.684
37563W        W 9146  24.771   4.187   2.897
37564W        W 9147  19.725  19.551  10.735
37565W        W 9148  44.119  29.607  10.127
37566W        W 9149  40.068  42.605  11.365
37567W        W 9150  36.925  29.734   4.438
37568W        W 9151  21.514  15.873  10.642
37569W        W 9152  29.403  16.644  10.704
37570W        W 9153  25.535   1.631   3.733
37571W        W 9154  35.147  12.114  10.645
37572W        W 9155  26.557  42.476   1.918
37573W        W 9156  40.305  13.817   1.737
37574W        W 9157  35.644  26.900   3.783
37575W        W 9158  21.750  23.722   3.105
37576W        W 9159  15.412  35.950   2.885
37577W        W 9160  17.843  24.268   1.595
37578W        W 9161  30.092  32.486  11.947
37579W        W 9162  44.487   1.990   4.834
37580W        W 9163   5.873   0.473  12.435
37581W        W 9164  28.635  18.212  13.454
37582W        W 9165  44.502  26.603  14.509
37583W        W 9166  39.040   1.845   3.497
37584W        W 9167  11.606   9.726  13.458
37585W        W 9168  34.409  21.353  12.838
37586W        W 9169  12.960  38.060   0.433
37587W        W 9170   5.470   1.524   2.728
37588W        W 9171  25.534  32.649  14.339
37589W        W 9172  36.103  42.427  11.303
37590W        W 9173  41.411  33.042  10.474
37591W        W 9174  10.804  27.014  11.626
37592W        W 9175  18.085   7.166   0.779
37593W        W 9176  39.101  39.728  10.640
37594W        W 9177  39.639  14.513  11.633
37595W        W 9178  22.415  18.069   4.201
37596W        W 9179  33.945  21.500   4.669
37597W        W 9180  32.563   8.960   0.860
37598W        W 9181  28.485  37.061   3.837
37599W        W 9182  37.480  41.361   3.428
37600W        W 9183   9.627   7.865  11.480
37601W        W 9184  44.878  37.051   1.118
37602W        W 9185  35.819   9.648   1.898
37603W        W 9186  43.934  36.765  13.543
37604W        W 9187   0.027  25.098   0.538
37605W        W 9188   7.877  35.924  11.947
37606W        W 9189   5.766  41.399   5.058
37607W        W 9190  19.099  30.881   3.995
37608W        W 9191  22.212   6.276   4.295
37609W        W 9192   8.440  11.159   3.311
37610W        W 9193  40.062  25.132  14.025
37611W        W 9194  23.085   8.177   0.580
37612W        W 9195  10.083  16.150   3.714
37613W        W 9196  32.075  19.601  10.814
37614W        W 9197  11.865   4.559   1.708
37615W        W 9198  28.634   5.898   1.823
37616W        W 9199  28.373  36.138   2.730
37617W        W 9200  19.315  29.644   1.418
37618W        W 9201  21.254  32.200  13.830
37619W        W 9202   0.208  18.356  11.967
37620W        W 9203  11.802   8.296  14.737
37621W        W 9204  19.354  14.407   3.698
37622W        W 9205   7.535  44.844   3.205
37623W        W 9206  17.699  43.995  11.305
37624W        W 9207  32.707  27.420   1.893
37625W        W 9208  14.094  41.915  14.471
37626W        W 9209  25.190  18.628  13.425
37627W        W 9210  37.120  34.063  14.059
37628W        W 9211  27.172  40.414  13.133
37629W        W 9212  21.647  14.868  10.532
37630W        W 9213  43.587  25.600  10.513
37631W        W 9214  32.143  43.434  11.609
37632W        W 9215  11.394  36.484   2.173
37633W        W 9216  20.864  27.167  11.554
37634W        W 9217   2.247  34.145  14.266
37635W        W 9218  21.042  21.957   2.180
37636W        W 9219  38.497  24.590  11.631
37637W        W 9220  35.556   8.875   0.069
37638W        W 9221  40.988  29.922   1.454
37639W        W 9222  33.210  12.330  11.593
37640W        W 9223  41.351  28.899   0.709
37641W        W 9224   3.337  21.599  10.667
37642W        W 9225  44.705  30.452  11.171
37643W        W 9226  13.614   3.832   4.557
37644W        W 9227  13.521  22.572  14.603
37645W        W 9228  13.476  35.630  12.356
37646W        W 9229   3.770  28.757  11.822
37647W        W 9230  36.068  30.079  14.915
37648W        W 9231  40.034   6.483   1.232
37649W        W 9232   1.623  16.584   1.075
37650W        W 9233  32.892  38.611   3.452
37651W        W 9234  13.227  13.137   1.802
37652W        W 9235   3.596   5.334  12.392
37653W        W 9236  35.370  35.519  14.860
37654W        W 9237  41.501  31.473  13.255
37655W        W 9238  22.834  22.536  13.749
37656W        W 9239  25.564  28.660   4.274
37657W        W 9240  13.262  42.410   4.324
37658W        W 9241  23.961  25.214   4.464
37659W        W 9242  25.722  16.646  12.323
37660W        W 9243  36.048  27.099  10.708
37661W        W 9244  36.981  28.012   3.573
37662W        W 9245  35.523  36.609  10.670
37663W        W 9246  39.586  33.619  14.150
37664W        W 9247  12.406  10.383   4.188
37665W        W 9248  37.046  36.356   3.319
37666W        W 9249  27.889   4.424   2.310
37667W        W 9250  22.316   3.815   0.875
37668W        W 9251   8.371   0.960  14.617
37669W        W 9252  20.943  43.830  14.501
37670W        W 9253  10.163  42.023  10.660
37671W        W 9254  44.491  23.615   4.240
37672W        W 9255  10.620  32.421   3.158
37673W        W 9256  40.696  37.052  13.685
37674W        W 9257  11.866  15.325   2.714
37675W        W 9258  25.141   1.244  12.418
37676W        W 9259  32.324  27.670   1.369
37677W        W 9260  21.103  10.775   4.445
37678W        W 9261  27.487  43.913   1.479
37679W        W 9262  25.454   5.716   2.876
37680W        W 9263  27.664  29.460  11.533
37681W        W 9264  19.203  16.505   2.233
37682W        W 9265  39.490  10.843  12.567
37683W        W 9266  21.267  20.753  10.085
37684W        W 9267  37.910  34.610   2.799
37685W        W 9268  33.115  26.762   1.194
37686W        W 9269  19.209   6.453  12.409
37687W        W 9270  41.327  29.896   2.333
37688W        W 9271  41.018   0.200   1.361
37689W        W 9272  18.374  27.188   4.125
37690W        W 9273  21.834  34.041   2.690
37691W        W 9274  27.276  42.505   0.221
37692W        W 9275   3.765   3.385   2.826
37693W        W 9276  24.208  34.469  14.382
37694W        W 9277  40.841  28.049   2.880
37695W        W 9278   3.338   4.037   2.383
37696W        W 9279  15.663  38.312  13.789
37697W        W 9280  42.434   2.725   3.626
37698W        W 9281  42.936  40.755   2.629
37699W        W 9282  36.585  30.730   1.135
37700W        W 9283  44.628   5.157   1.829
37701W        W 9284  38.405  26.986  14.324
37702W        W 9285  14.196  27.126   3.016
37703W        W 9286  11.528  38.523   0.731
37704W        W 9287   1.676  30.524  14.989
37705W        W 9288   5.981   2.998  11.138
37706W        W 9289  19.627  20.335  11.040
37707W        W 9290  30.116  40.012  14.837
37708W        W 9291   7.804  25.434  10.398
37709W        W 9292   4.903  43.661  14.961
37710W        W 9293  37.106  36.935   2.684
37711W        W 9294  34.137  30.463   4.702
37712W        W 9295  32.461  15.281   0.938
37713W        W 9296  18.328  35.946  12.020
37714W        W 9297  20.008  18.132   3.832
37715W        W 9298   0.995  23.556  14.773
37716W        W 9299  34.452  43.000   3.611
37717W        W 9300  32.886  26.652  13.984
37718W        W 9301  26.050  33.371   1.276
37719W        W 9302  29.734  25.576  13.967
37720W        W 9303  36.590  18.106   3.305
37721W        W 9304   9.292  29.936  13.455
37722W        W 9305   4.235  44.857  13.560
37723W        W 9306  15.875   7.490   3.852
37724W        W 9307  18.392  18.287  12.568
37725W        W 9308  10.369  43.312  10.229
37726W        W 9309  33.136  27.607   0.792
37727W        W 9310   7.382  21.126  13.559
37728W        W 9311   5.722  32.927   3.384
37729W        W 9312  38.951  30.743  10.762
37730W        W 9313  26.455  12.314   3.861
37731W        W 9314  24.929  11.173   5.171
37732W        W 9315  30.939  42.611   1.220
37733W        W 9316  42.575  36.845   1.302
37734W        W 9317  18.110  14.614  13.993
37735W        W 9318  31.963   4.826  13.264
37736W        W 9319   2.934  18.844   3.604
37737W        W 9320   4.091  21.231  13.515
37738W        W 9321  34.847   5.368  14.289
37739W        W 9322  40.204   6.842   1.682
37740W        W 9323   5.838  15.794   2.445
37741W        W 9324   8.031  11.300   1.198
37742W        W 9325  10.618  23.288   1.975
37743W        W 9326  34.711  14.077  12.153
37744W        W 9327  31.998  21.310  13.909
37745W        W 9328   3.815  33.457  10.666
37746W        W 9329  38.329   8.938  11.548
37747W        W 9330  11.745  41.358  10.960
37748W        W 9331  43.718  43.221  13.278
37749W        W 9332  35.930  17.002  12.189
37750W        W 9333   8.061  30.501   1.351
37751W        W 9334  41.365  18.174  11.746
37752W        W 9335  25.288  29.485   0.475
37753W        W 9336  15.630  15.691  14.955
37754W        W 9337   7.179  31.570  10.556
37755W        W 9338  37.459  23.986  13.785
37756W        W 9339  23.450  38.323   4.531
37757W        W 9340   0.171  18.836  13.184
37758W        W 9341  14.441   3.481  11.655
37759W        W 9342  22.445  39.811  11.161
37760W        W 9343  39.007  44.501  10.368
37761W        W 9344  10.160   2.368   1.761
37762W        W 9345  11.880   2.316   2.415
37763W        W 9346   2.916  22.986  11.516
37764W        W 9347  16.759  38.072   3.130
37765W        W 9348  24.958  23.097  14.013
37766W        W 9349  10.394  33.457  11.220
37767W        W 9350  32.082  27.960  12.041
37768W        W 9351  35.194  28.992  14.328
37769W        W 9352  15.600  21.634  12.625
37770W        W 9353  17.313   6.211  13.555
37771W        W 9354  15.783  16.029   1.041
37772W        W 9355  24.715  19.715  14.315
37773W        W 9356  42.569  17.629  12.126
37774W        W 9357   5.671  29.033   3.640
37775W        W 9358  44.469  18.065   2.704
37776W        W 9359  11.731  10.693  10.516
37777W        W 9360  30.591  27.696   2.294
37778W        W 9361  33.199   1.214   2.201
37779W        W 9362  36.567   8.301   2.758
37780W        W 9363  43.520   1.882   4.525
37781W        W 9364  38.313  23.721  11.152
37782W        W 9365  23.089  18.522  10.033
37783W        W 9366  39.792  25.326   3.076
37784W        W 9367  40.575  28.851  10.654
37785W        W 9368  24.553  31.604   1.898
37786W        W 9369  18.709  14.013   4.087
37787W        W 9370   3.768  10.794   3.212
37788W        W 9371  24.497  14.657   2.587
37789W        W 9372  41.823  30.748   3.977
37790W        W 9373  35.820   1.953   0.703
37791W        W 9374  22.407   4.491  13.546
37792W        W 9375  21.747  10.681  13.887
37793W        W 9376  28.468  17.700  11.505
37794W        W 9377   2.974  44.831   2.374
37795W        W 9378  33.362  40.805  11.967
37796W        W 9379  22.469  19.967  12.465
37797W        W 9380  31.397  37.919   2.594
37798W        W 9381   0.845  12.189   4.850
37799W        W 9382  17.873   3.958   0.797
37800W        W 9383  19.116  26.763  12.882
37801W        W 9384  23.835  13.404  14.502
37802W        W 9385   5.795   5.812   2.121
37803W        W 9386   9.508   4.775   4.923
37804W        W 9387  34.578  27.153  11.503
37805W        W 9388  12.633  19.167   0.056
37806W        W 9389  37.029  37.630   1.416
37807W        W 9390   4.915  17.028  10.934
37808W        W 9391  20.298  16.564  14.543
37809W        W 9392  25.495  23.000   1.322
37810W        W 9393  31.470  20.754  14.086
37811W        W 9394  17.122  17.356  11.728
37812W        W 9395  13.769   8.592   1.953
37813W        W 9396  44.878  23.716  13.894
37814W        W 9397  33.525  20.001   2.469
37815W        W 9398  30.146  30.030  12.748
37816W        W 9399  16.776   5.868  10.642
37817W        W 9400   5.126  30.904  10.379
37818W        W 9401  18.259  21.563   2.902
37819W        W 9402  38.586  13.701  14.801
37820W        W 9403  38.735  29.464   4.380
37821W        W 9404  37.431  41.484  12.543
37822W        W 9405  30.524  27.597   3.150
37823W        W 9406  38.298  38.550   2.386
37824W        W 9407  42.185  16.298  11.048
37825W        W 9408   7.896  34.069  12.886
37826W        W 9409  32.877  11.757   3.820
37827W        W 9410   5.912  33.083   2.945
37828W        W 9411  19.501  44.492   2.025
37829W        W 9412  15.033  25.725   4.709
37830W        W 9413   8.448  34.658  12.266
37831W        W 9414   4.415   2.945   4.554
37832W        W 9415  41.341  21.225  13.043
37833W        W 9416  11.236  14.247  14.741
37834W        W 9417  18.644   3.633   1.153
37835W        W 9418  41.575  23.583   2.037
37836W        W 9419  39.998  26.558  14.979
37837W        W 9420  18.630  40.825  14.456
37838W        W 9421  29.867   6.787  10.657
37839W        W 9422  33.525  29.545  10.562
37840W        W 9423  41.356   8.350   1.852
37841W        W 9424  28.822   1.966  11.028
37842W        W 9425  11.561  43.883  12.947
37843W        W 9426  43.781  19.065   4.084
37844W        W 9427   1.555  18.632   1.271
37845W        W 9428  31.590  27.767   2.432
37846W        W 9429  42.273  19.185   0.441
37847W        W 9430  37.412   2.504   1.345
37848W        W 9431   0.859  34.148  10.667
37849W        W 9432  19.630  31.893  12.078
37850W        W 9433  32.792   0.307  14.826
37851W        W 9434  37.362   8.944  12.667
37852W        W 9435  38.031   7.272  14.414
37853W        W 9436  15.746  40.753   0.929
37854W        W 9437  33.200   2.169  12.894
37855W        W 9438  34.665  42.048  11.532
37856W        W 9439  17.032  19.640   4.519
37857W        W 9440   7.940  11.771   3.595
37858W        W 9441  20.042  10.544  13.353
37859W        W 9442  22.180  35.924   0.868
37860W        W 9443  12.285   8.193   2.261
37861W        W 9444   4.881  13.581  12.412
37862W        W 9445  13.808  19.797  14.115
37863W        W 9446  36.250  29.033  10.767
37864W        W 9447  44.863  14.076  13.192
37865W        W 9448  32.203  15.185  14.211
37866W        W 9449  40.629  36.037   0.909
37867W        W 9450  11.628   9.285  10.679
37868W        W 9451   6.553   8.657   3.603
37869W        W 9452  13.104   0.794  10.698
37870W        W 9453  32.955  28.334  12.573
37871W        W 9454  21.634  32.974   1.772
37872W        W 9455  19.203  15.653   1.706
37873W        W 9456  27.522   1.930  10.690
37874W        W 9457  11.314  10.380   1.098
37875W        W 9458   0.998   7.679  10.767
37876W        W 9459  11.254  20.305  14.347
37877W        W 9460  12.194  19.448  14.984
37878W        W 9461  33.599   9.310  11.065
37879W        W 9462  31.314  41.787   3.203
37880W        W 9463  21.783   5.801  14.464
37881W        W 9464   4.769   9.334   2.326
37882W        W 9465  10.443  27.080  14.305
37883W        W 9466  32.464  30.923  13.327
37884W        W 9467   9.801  34.220  14.755
37885W        W 9468  37.978   9.401   0.587
37886W        W 9469  27.872  28.624  11.603
37887W        W 9470   1.226  33.995  12.373
37888W        W 9471  17.718  10.208  10.220
37889W        W 9472  10.809  19.981  10.728
37890W        W 9473   0.226  14.718   1.264
37891W        W 9474  37.402   6.926   0.859
37892W        W 9475   3.143  33.987  14.865
37893W        W 9476  21.788  17.180   0.459
37894W        W 9477  15.788  42.148   2.710
37895W        W 9478  27.603   5.880  13.032
37896W        W 9479   8.412   3.310  14.339
37897W        W 9480  42.417   3.875   2.413
37898W        W 9481  14.080  27.237  14.387
37899W        W 9482  28.121  31.620   1.223
37900W        W 9483  29.624  11.799   2.222
37901W        W 9484  32.052  28.688  11.585
37902W        W 9485  10.596   8.740   0.847
37903W        W 9486   8.394  22.804   0.860
37904W        W 9487   4.483  44.406   4.168
37905W        W 9488  15.737  41.131  11.229
37906W        W 9489  23.905  30.604  14.532
37907W        W 9490  18.748  29.105   0.887
37908W        W 9491  43.879  12.171  13.583
37909W        W 9492  17.592  25.953   4.669
37910W        W 9493  28.110  29.670   0.389
37911W        W 9494  19.865   1.529  11.117
37912W        W 9495  38.066  11.084   1.449
37913W        W 9496  40.014  27.267   2.467
37914W        W 9497   2.197  30.711   4.342
37915W        W 9498  23.131  27.665  12.450
37916W        W 9499  16.078  29.917   3.249
37917W        W 9500  33.401   2.483   4.668
37918W        W 9501   7.215   0.694  14.051
37919W        W 9502  23.633  33.417  13.912
37920W        W 9503  33.786  24.044  11.149
37921W        W 9504   2.511   2.026  13.010
37922W        W 9505  28.957  19.556   3.187
37923W        W 9506  26.720  27.086  11.838
37924W        W 9507  24.688  17.231  10.755
37925W        W 9508  40.545  16.602   4.039
37926W        W 9509  25.059   9.442  13.417
37927W        W 9510  26.282  17.223  13.087
37928W        W 9511   4.884  33.920   3.655
37929W        W 9512  26.600  43.966   3.034
37930W        W 9513  33.996   9.194   0.329
37931W        W 9514   6.848  13.623  11.539
37932W        W 9515  41.856  24.213   2.317
37933W        W 9516  41.291  44.276  12.046
37934W        W 9517  38.616  16.597   0.394
37935W        W 9518  19.909  29.635  10.231
37936W        W 9519  18.971  11.394   3.935
37937W        W 9520  33.110  20.444   0.588
37938W        W 9521  25.728   8.615  12.673
37939W        W 9522  28.695   2.350   4.563
37940W        W 9523  11.259   4.890  13.544
37941W        W 9524   0.788  29.668  11.130
37942W        W 9525  16.439  20.619  14.457
37943W        W 9526  43.236   4.257   0.721
37944W        W 9527  11.924  23.262  14.315
37945W        W 9528  22.505  17.863   9.936
37946W        W 9529  21.274   9.053   3.175
37947W        W 9530   1.778  31.943  10.336
37948W        W 9531  19.102  17.179  11.380
37949W        W 9532  21.749  31.835  12.636
37950W        W 9533  44.389  21.547   0.737
37951W        W 9534  19.051  26.862  10.637
37952W        W 9535  18.387  18.035  11.648
37953W        W 9536   0.872  16.544  13.481
37954W        W 9537  42.420  20.076   1.158
37955W        W 9538   0.751  42.975  14.736
37956W        W 9539   9.718  34.341  13.041
37957W        W 9540  39.227  32.523   1.422
37958W        W 9541  25.520   4.245  10.447
37959W        W 9542  18.639  22.515  11.463
37960W        W 9543  43.921  39.087   4.119
37961W        W 9544  10.889   9.846  12.922
37962W        W 9545  29.505   3.186   0.277
37963W        W 9546  37.475  33.203   1.347
37964W        W 9547   1.969  42.925  13.992
37965W        W 9548  13.754   5.791   0.441
37966W        W 9549  37.535  43.077  11.090
37967W        W 9550  44.482   7.320   2.744
37968W        W 9551  28.279   4.934   2.594
37969W        W 9552  35.574  19.185   0.513
37970W        W 9553  44.757  20.038  13.752
37971W        W 9554  12.057  16.727   3.407
37972W        W 9555  36.851  21.527   0.320
37973W        W 9556  26.502   5.627  12.820
37974W        W 9557  11.554  35.524   4.608
37975W        W 9558  41.158  24.937   3.115
37976W        W 9559  36.815   8.278  14.573
37977W        W 9560  11.491  15.854  13.375
37978W        W 9561  39.154  44.654   3.636
37979W        W 9562  10.922  38.148  13.302
37980W        W 9563  36.960  26.982  14.876
37981W        W 9564  33.386  41.886   2.215
37982W        W 9565  36.918  13.675  14.026
37983W        W 9566  17.211   5.230   4.720
37984W        W 9567   0.924  34.650   0.692
37985W        W 9568  39.247   4.833  12.690
37986W        W 9569  29.638  23.868  14.323
37987W        W 9570   2.394   3.705  11.372
37988W        W 9571  15.464   2.237   3.657
37989W        W 9572  43.678  38.031  12.565
37990W        W 9573  10.425  24.014  14.511
37991W        W 9574  32.533  24.105  12.476
37992W        W 9575  12.303  44.279   2.758
37993W        W 9576  40.596  10.700  12.843
37994W        W 9577  20.167  17.670   5.075
37995W        W 9578  42.915  44.756  13.469
37996W        W 9579  29.677  13.241  11.628
37997W        W 9580  31.860   0.953   1.213
37998W        W 9581  21.688  41.804  11.989
37999W        W 9582  37.767  42.999  12.232
38000W        W 9583  13.251  19.218  10.567
38001W        W 9584  42.624   4.164  14.450
38002W        W 9585  33.478  14.191  13.384
38003W        W 9586   5.836  42.115  14.046
38004W        W 9587  21.094  27.580  11.722
38005W        W 9588  22.357  24.733  11.093
38006W        W 9589  39.625   2.242   1.418
38007W        W 9590   8.682  10.356   3.781
38008W        W 9591  11.581  11.783   0.245
38009W        W 9592  26.560  25.289  11.594
38010W        W 9593  22.974   1.778   3.112
38011W        W 9594  21.230  37.043   2.413
38012W        W 9595  27.245  36.908   0.538
38013W        W 9596   3.262  40.524  11.645
38014W        W 9597  15.234  12.106   3.371
38015W        W 9598  25.893  36.702   0.876
38016W        W 9599  27.022   7.199   1.552
38017W        W 9600   6.017  14.109   3.845
38018W        W 9601  39.808   5.124  13.970
38019W        W 9602  25.073  43.910  12.427
38020W        W 9603  12.660  15.579  11.408
38021W        W 9604  17.949   9.606   0.918
38022W        W 9605  12.217   1.904   5.015
38023W        W 9606   7.193  10.183   0.867
38024W        W 9607  38.025   6.706  12.405
38025W        W 9608  28.166  21.973   1.321
38026W        W 9609   9.406   5.247  12.554
38027W        W 9610   0.120  29.613   0.591
38028W        W 9611   2.514  26.021   3.318
38029W        W 9612  36.096  36.807   3.243
38030W        W 9613  11.556  30.859   5.043
38031W        W 9614  21.253   9.627   3.666
38032W        W 9615   2.629   5.064   4.078
38033W        W 9616  37.123   5.757  14.415
38034W        W 9617  15.861  19.062   0.010
38035W        W 9618  19.025  29.088   0.402
38036W        W 9619  18.754  11.297   0.796
38037W        W 9620   9.411   2.009  10.534
38038W        W 9621   1.053   5.644  14.588
38039W        W 9622  43.938   0.736   3.214
38040W        W 9623  44.996  10.790  12.089
38041W        W 9624  23.580  32.679   2.605
38042W        W 9625  25.076  24.637   2.799
38043W        W 9626  42.021  31.988  13.745
38044W        W 9627  10.330  14.164  13.398
38045W        W 9628  44.556  19.250   0.343
38046W        W 9629   4.422  39.848   0.892
38047W        W 9630   9.970  33.159  11.088
38048W        W 9631  44.836  14.320   0.534
38049W        W 9632  19.328  18.705   4.616
38050W        W 9633  11.755  29.847  12.201
38051W        W 9634  34.040  10.899  14.297
38052W        W 9635  28.772  25.909  12.040
38053W        W 9636   5.252  16.668  12.030
38054W        W 9637  19.145  44.964   4.144
38055W        W 9638  32.535  39.870   4.746
38056W        W 9639  16.631  44.972  11.622
38057W        W 9640  24.216   1.475   0.275
38058W        W 9641  20.291   0.164  14.500
38059W        W 9642   0.982  24.457  11.103
38060W        W 9643  39.565  41.773  12.485
38061W        W 9644   8.647  28.083  11.051
38062W        W 9645  35.100  18.151   1.374
38063W        W 9646   1.850  20.486   4.215
38064W        W 9647  31.004  35.556   3.412
38065W        W 9648  20.564  32.612   4.389
38066W        W 9649  21.766  35.664  10.725
38067W        W 9650   1.475   9.359   1.799
38068W        W 9651  18.710  15.986  10.622
38069W        W 9652  11.350  39.828  13.111
38070W        W 9653  33.385  39.467   3.810
38071W        W 9654  30.501   7.747  13.804
38072W        W 9655  23.606  17.266   2.310
38073W        W 9656  37.311  18.466   0.719
38074W        W 9657  42.360  36.854   3.856
38075W        W 9658  39.448  35.547  11.296
38076W        W 9659  15.099  25.656   0.898
38077W        W 9660  41.282   8.195   1.370
38078W        W 9661  12.302   4.882   2.645
38079W        W 9662  37.081   4.919  11.934
38080W        W 9663  36.492   1.240   4.999
38081W        W 9664  39.580  37.453  14.226
38082W        W 9665   3.248  14.654   2.729
38083W        W 9666  10.183  27.109   0.739
38084W        W 9667  30.411  33.994   0.830
38085W        W 9668  36.446   4.756  13.971
38086W        W 9669  24.952  28.477  13.522
38087W        W 9670  34.546  41.363   3.819
38088W        W 9671  18.530  11.581   4.111
38089W        W 9672   2.988  14.299   4.944
38090W        W 9673  34.457  27.200  13.451
38091W        W 9674  24.999  33.962  13.484
38092W        W 9675  29.429  33.673   3.290
38093W        W 9676  18.156  33.811  11.640
38094W        W 9677  43.373   0.030  13.453
38095W        W 9678   3.929  16.186   4.282
38096W        W 9679   9.437  39.477   3.964
38097W        W 9680  43.787   5.815  13.948
38098W        W 9681   5.304  39.554   4.087
38099W        W 9682  37.626   2.508  10.577
38100W        W 9683  42.697  41.761   2.103
38101W        W 9684  43.016  22.721  11.681
38102W        W 9685  41.993  33.534  11.641
38103W        W 9686  44.222  10.849   3.948
38104W        W 9687  31.020  19.068  13.633
38105W        W 9688  41.346   2.226   3.310
38106W        W 9689  26.330  12.535  13.444
38107W        W 9690  13.090   0.305  13.983
38108W        W 9691  44.938  30.127  10.822
38109W        W 9692  22.735   5.921  13.032
38110W        W 9693   4.002  15.121   4.328
38111W        W 9694  31.908  16.768   4.576
38112W        W 9695  17.273  32.531  10.356
38113W        W 9696  21.753  40.555   0.811
38114W        W 9697  40.620  42.387  11.971
38115W        W 9698  40.866  31.475  14.328
38116W        W 9699  28.238  36.850   1.651
38117W        W 9700  28.414   6.348  10.820
38118W        W 9701   1.401  33.916   0.959
38119W        W 9702   8.107  13.917  14.162
38120W        W 9703  13.389  29.835   5.029
38121W        W 9704  11.865  20.125   2.963
38122W        W 9705  27.923   7.725  11.505
38123W        W 9706  40.838  10.154   3.759
38124W        W 9707  41.009  21.100   4.339
38125W        W 9708  22.110  18.767  10.352
38126W        W 9709  15.222  20.208   3.320
38127W        W 9710  33.509  30.910   3.299
38128W        W 9711  33.039  14.665  12.158
38129W        W 9712  18.813  44.448  11.619
38130W        W 9713  19.636   7.214  11.449
38131W        W 9714   6.192  26.735   2.640
38132W        W 9715  19.489  23.188  14.446
38133W        W 9716   1.663  13.931   1.294
38134W        W 9717   6.618  27.598  13.268
38135W        W 9718  14.254  29.717   3.182
38136W        W 9719  39.968   3.265  10.780
38137W        W 9720  44.730  32.137   0.439
38138W        W 9721  26.593  37.936   5.022
38139W        W 9722  40.176  17.601  10.693
38140W        W 9723  34.392  15.445  12.233
38141W        W 9724   3.892  27.822  12.160
38142W        W 9725  19.193   0.472  12.549
38143W        W 9726  11.856  32.532   2.899
38144W        W 9727  43.476   2.688  10.933
38145W        W 9728  18.663  14.425   2.698
38146W        W 9729  34.560  12.721  13.967
38147W        W 9730  33.075  12.820   2.270
38148W        W 9731  25.217  40.414  13.412
38149W        W 9732  33.167  30.470   1.244
38150W        W 9733  27.116  28.967  11.207
38151W        W 9734   3.240  42.590  11.602
38152W        W 9735   3.453  12.769  11.917
38153W        W 9736  27.039  19.458  14.106
38154W        W 9737  14.593  38.032   0.239
38155W        W 9738  28.077  28.103   3.366
38156W        W 9739  11.553  19.328  11.150
38157W        W 9740  26.017   4.879   3.724
38158W        W 9741  42.756  21.065   1.657
38159W        W 9742  37.050   1.783  11.405
38160W        W 9743  21.067  12.843   2.748
38161W        W 9744  23.302   4.780   0.454
38162W        W 9745   7.099  24.912   4.042
38163W        W 9746   1.011   0.429  13.903
38164W        W 9747  36.808  35.528  10.947
38165W        W 9748   2.211  24.024  14.653
38166W        W 9749  27.219  37.531   2.632
38167W        W 9750  17.892   5.121  14.835
38168W        W 9751  29.211  34.986  13.552
38169W        W 9752   4.923  19.833  14.798
38170W        W 9753  33.938   6.168  11.090
38171W        W 9754  41.300  26.011  11.570
38172W        W 9755  20.979  41.827   4.514
38173W        W 9756  29.605  28.448  14.860
38174W        W 9757  21.094   3.472   1.837
38175W        W 9758  24.604  42.720  12.317
38176W        W 9759  43.061  26.728  14.267
38177W        W 9760  13.071   9.740   4.106
38178W        W 9761   6.390  23.259  14.254
38179W        W 9762  11.058  28.632   3.694
38180W        W 9763  27.501  10.927   2.302
38181W        W 9764   0.383  15.217  13.422
38182W        W 9765   9.166  36.944  11.467
38183W        W 9766   2.350  13.709   0.486
38184W        W 9767  20.863  38.207  14.649
38185W        W 9768  33.490  17.668   4.580
38186W        W 9769  39.796  44.004  12.350
38187W        W 9770   3.674  36.550  14.951
38188W        W 9771  38.908   9.403  10.797
38189W        W 9772   8.641  17.248   4.602
38190W        W 9773  41.022  24.244  13.217
38191W        W 9774  28.670  37.002   1.408
38192W        W 9775   0.780  13.388   1.351
38193W        W 9776  25.469  31.623  13.286
38194W        W 9777   7.383   6.383  11.185
38195W        W 9778  25.868  28.514  11.595
38196W        W 9779  11.299  20.324  10.674
38197W        W 9780  28.989   1.304   3.790
38198W        W 9781   9.748  13.095  13.880
38199W        W 9782  18.543   7.110  12.756
38200W        W 9783  31.568   7.913  14.317
38201W        W 9784  26.413   2.229   1.208
38202W        W 9785  27.702  17.283   2.247
38203W        W 9786  23.277  42.744  12.399
38204W        W 9787  14.266  28.289  13.759
38205W        W 9788  27.965  28.862  14.962
38206W        W 9789  21.451   2.453   2.360
38207W        W 9790  35.645  35.135  12.980
38208W        W 9791  12.547  33.784  13.982
38209W        W 9792  25.527   9.286   2.204
38210W        W 9793  36.554  19.631   5.054
38211W        W 9794  37.424  31.646   2.246
38212W        W 9795  22.559  23.997   4.534
38213W        W 9796   0.127   8.451   2.753
38214W        W 9797  32.415  43.818  14.532
38215W        W 9798  26.635  41.502  11.206
38216W        W 9799  14.589  41.891  14.599
38217W        W 9800  37.457  10.552  14.102
38218W        W 9801  21.821   8.282  10.288
38219W        W 9802  14.308   1.472   1.903
38220W        W 9803  44.675   6.583  12.137
38221W        W 9804  10.617  31.273   4.860
38222W        W 9805   9.486  13.894   0.739
38223W        W 9806  33.211   7.164  13.878
38224W        W 9807  14.631  15.777  14.041
38225W        W 9808   3.715  29.036   3.855
38226W        W 9809  23.278  30.963  13.390
38227W        W 9810  16.126  38.458   0.894
38228W        W 9811  28.777   3.327   2.229
38229W        W 9812  21.219  16.588   9.749
38230W        W 9813  38.470  28.649   1.028
38231W        W 9814  20.163  35.499  13.460
38232W        W 9815  31.595  22.108  13.776
38233W        W 9816  13.655  16.469   3.748
38234W        W 9817  32.201  30.610   3.676
38235W        W 9818  11.137   3.962  14.291
38236W        W 9819  23.725  13.749  10.626
38237W        W 9820  36.495  17.501   4.955
38238W        W 9821   1.731  20.543  14.332
38239W        W 9822  24.824  44.761   4.057
38240W        W 9823   1.235  10.696  12.955
38241W        W 9824  11.459  42.366   1.626
38242W        W 9825   8.098  28.928  11.219
38243W        W 9826  28.326  12.386   5.552
38244W        W 9827  12.588  13.300  12.218
38245W        W 9828  31.953  21.486  14.440
38246W        W 9829  41.354  17.863   0.506
38247W        W 9830  15.803  39.840   1.276
38248W        W 9831  43.531  40.555  10.566
38249W        W 9832   6.373  34.530  10.839
38250W        W 9833   4.269  30.146  14.313
38251W        W 9834  15.620   9.133  14.770
38252W        W 9835  33.465  20.450   9.932
38253W        W 9836   3.475  24.549   3.547
38254W        W 9837  11.623  35.881  14.746
38255W        W 9838  12.737   3.927   4.068
38256W        W 9839  28.679  12.858   9.745
38257W        W 9840  26.546  18.274   0.559
38258W        W 9841   4.180  38.987   4.034
38259W        W 9842   5.444  15.279   4.123
38260W        W 9843  23.008  18.824  10.479
38261W        W 9844   0.281   5.611   0.741
38262W        W 9845  22.242  42.874  11.582
38263W        W 9846  38.797  17.860  11.645
38264W        W 9847  19.270  18.869   1.886
38265W        W 9848  27.169  34.365   1.394
38266W        W 9849  28.197  21.147  10.575
38267W        W 9850  13.605   3.662  14.500
38268W        W 9851  19.693  35.549  11.438
38269W        W 9852  33.556  20.133   1.839
38270W        W 9853  40.184  10.229   2.188
38271W        W 9854   5.615  41.974   2.353
38272W        W 9855  13.225  35.942   4.347
38273W        W 9856  33.067  42.310  12.236
38274W        W 9857  23.087  27.585   3.659
38275W        W 9858  34.053  22.549   0.990
38276W        W 9859  35.094  25.695  12.149
38277W        W 9860  19.878  26.537  14.773
38278W        W 9861  13.877  36.666  12.418
38279W        W 9862  42.009  18.211   2.761
38280W        W 9863  25.511  10.884   0.348
38281W        W 9864  30.925  39.735   2.610
38282W        W 9865   6.343  41.929   4.068
38283W        W 9866  26.476  13.017  14.439
38284W        W 9867  28.010  34.685   3.650
38285W        W 9868  33.189  29.867  11.419
38286W        W 9869  13.634  35.543   1.126
38287W        W 9870  35.469  24.583   3.689
38288W        W 9871  16.251  43.343  10.785
38289W        W 9872  44.540  14.182  12.242
38290W        W 9873   4.272  11.828   3.743
38291W        W 9874  32.243  40.569   5.159
38292W        W 9875  32.042  13.211  14.809
38293W        W 9876   2.093  11.751  13.563
38294W        W 9877   4.678  30.904   0.192
38295W        W 9878  44.431  30.860   0.601
38296W        W 9879  10.414  40.923   0.918
38297W        W 9880   7.391  26.454   4.199
38298W        W 9881  32.179  36.560   2.243
38299W        W 9882  17.722   3.806   1.511
38300W        W 9883  16.477   8.803  14.515
38301W        W 9884  14.242  15.212  10.535
38302W        W 9885  39.841  15.100  12.496
38303W        W 9886  31.303  29.493   3.804
38304W        W 9887  30.562  20.704   2.294
38305W        W 9888  35.043   0.859   3.417
38306W        W 9889  24.689  36.513  14.394
38307W        W 9890  20.596  12.998   1.193
38308W        W 9891  36.285  37.919   2.693
38309W        W 9892  16.077  18.084  11.988
38310W        W 9893  17.219   9.665   3.371
38311W        W 9894  42.058  20.042  11.592
38312W        W 9895  19.068  33.730   1.577
38313W        W 9896  36.942  14.769   2.783
38314W        W 9897  27.005  14.590  12.473
38315W        W 9898  39.566  38.509  11.851
38316W        W 9899  15.645   1.473   0.245
38317W        W 9900   1.945   4.355   3.860
38318W        W 9901   0.389  19.155   2.839
38319W        W 9902  36.390   1.762   1.687
38320W        W 9903  39.406   8.330  12.045
38321W        W 9904  11.465  27.064  14.308
38322W        W 9905  24.259  43.764   3.131
38323W        W 9906  14.372  27.844   2.602
38324W        W 9907  37.161  33.940  14.955
38325W        W 9908  24.154   2.039   3.640
38326W        W 9909  18.527  13.525   4.098
38327W        W 9910   2.413   4.332   3.632
38328W        W 9911  27.370   4.350  13.635
38329W        W 9912   4.264  13.587   2.750
38330W        W 9913  25.259  18.145   4.677
38331W        W 9914  14.697  43.550   4.100
38332W        W 9915   9.375   6.844   0.428
38333W        W 9916   5.976  22.504   3.998
38334W        W 9917  31.916  39.601   1.204
38335W        W 9918  20.842  31.573  12.386
38336W        W 9919  44.329   0.524   4.550
38337W        W 9920  24.965  19.101  13.529
38338W        W 9921  19.997  22.596   0.777
38339W        W 9922  33.593   0.081   0.389
38340W        W 9923   3.015  13.016  13.781
38341W        W 9924  25.679   9.214  10.282
38342W        W 9925  30.338  21.757  10.232
38343W        W 9926  43.802  39.300  11.958
38344W        W 9927   5.513  39.425  14.112
38345W        W 9928  38.790  37.855   1.407
38346W        W 9929  20.319  28.130   4.925
38347W        W 9930  40.960  43.325  13.383
38348W        W 9931  32.011   9.306   0.779
38349W        W 9932  17.042  32.135   2.807
38350W        W 9933  44.562  12.280   4.207
38351W        W 9934  11.794   3.394  13.009
38352W        W 9935  39.969  22.324  11.189
38353W        W 9936   6.267  20.700  12.519
38354W        W 9937  18.961   9.781   0.747
38355W        W 9938  27.381  31.172   4.150
38356W        W 9939  37.867   7.803  13.780
38357W        W 9940  34.851  40.533   2.751
38358W        W 9941  33.673  15.368   2.528
38359W        W 9942   2.207  34.623   4.872
38360W        W 9943  22.454  29.945  12.962
38361W        W 9944  33.427  15.640   3.645
38362W        W 9945  33.680  14.567   3.669
38363W        W 9946  20.014  19.681  10.301
38364W        W 9947  44.602  30.416   0.390
38365W        W 9948  29.547  19.207  13.469
38366W        W 9949  43.074   8.401   3.588
38367W        W 9950  36.865  12.464   4.496
38368W        W 9951  23.077  37.012   0.337
38369W        W 9952  21.333   3.012   0.384
38370W        W 9953  37.497  21.249  13.801
38371W        W 9954  13.214  12.061  13.553
38372W        W 9955  32.612  38.941  13.916
38373W        W 9956  16.298  29.049  11.533
38374W        W 9957  19.482  22.352   2.157
38375W        W 9958  38.268  10.216  10.516
38376W        W 9959  25.867  26.608   2.400
38377W        W 9960  28.910  16.329  12.347
38378W        W 9961  37.509   8.779  14.611
38379W        W 9962   1.338  43.523  12.974
38380W        W 9963   6.699  37.939   4.620
38381W        W 9964  12.707  29.482  13.393
38382W        W 9965  34.125  30.140  10.615
38383W        W 9966  20.471  24.924  13.830
38384W        W 9967   1.085   8.341  12.931
38385W        W 9968  11.027  15.674  12.290
38386W        W 9969  29.054  15.131   2.185
38387W        W 9970  16.550  43.731   1.304
38388W        W 9971  35.826  35.520  11.148
38389W        W 9972  38.507  30.111  14.922
38390W        W 9973  36.574  19.145  14.803
38391W        W 9974  41.539  26.724   2.764
38392W        W 9975   5.323  35.723  13.980
38393W        W 9976   4.509  32.449  14.295
38394W        W 9977  22.799  15.175  10.242
38395W        W 9978   9.155  30.567  14.402
38396W        W 9979  31.464  35.940  13.805
38397W        W 9980   7.685   3.669  14.730
38398W        W 9981  37.536  12.037   2.857
38399W        W 9982  37.974  15.610   3.742
38400W        W 9983  36.296  17.568  12.855
38401W        W 9984  23.929  40.089   1.700
38402W        W 9985  35.069  40.939   0.298
38403W        W 9986  36.564   5.691   1.884
38404W        W 9987  33.684   1.554   3.321
38405W        W 9988  40.270  17.285  12.884
38406W        W 9989  44.989  14.120   3.135
38407W        W 9990   6.108  29.972   2.849
38408W        W 9991  17.282  39.416  10.573
38409W        W 9992  22.519   3.447  13.927
38410W        W 9993   0.711  15.429   3.158
38411W        W 9994  33.300  32.818  14.605
38412W        W 9995  37.583  27.039  13.446
38413W        W 9996  41.672  31.554  13.717
38414W        W 9997  34.902  30.977  12.579
38415W        W 9998  30.502   9.395  12.390
38416W        W 9999   7.796  34.463  11.692
38417W        W10000  20.747  34.098   1.703
38418W        W10001  12.909  42.526  10.626
38419W        W10002  35.628   6.964   2.099
38420W        W10003  19.977  21.390   2.203
38421W        W10004  30.741  23.112  14.156
38422W        W10005  16.638  24.714  13.615
38423W        W10006  10.496   1.713   0.292
38424W        W10007  20.830  16.983   4.655
38425W        W10008  27.161   9.140  10.646
38426W        W10009  39.987  40.968   3.192
38427W        W10010  33.254   1.241   0.559
38428W        W10011  21.788  38.411  12.004
38429W        W10012  24.831  14.066  12.373
38430W        W10013  25.064  24.543  11.226
38431W        W10014   8.448  43.301  12.933
38432W        W10015   5.789  22.796   0.300
38433W        W10016  10.474  28.973  11.624
38434W        W10017  32.325  19.003  14.873
38435W        W10018  24.776  21.428  11.562
38436W        W10019  17.261  41.084  11.788
38437W        W10020   5.669  33.423  12.468
38438W        W10021  16.612  16.201   0.777
38439W        W10022   0.052  29.613   4.653
38440W        W10023  23.991  43.328   3.234
38441W        W10024  44.834  28.186  11.133
38442W        W10025  33.910   0.963  12.873
38443W        W10026  33.464  19.003  13.574
38444W        W10027  11.794  35.452  11.730
38445W        W10028  38.357  43.892  12.168
38446W        W10029   3.490  40.862   1.369
38447W        W10030  12.413   3.785  12.390
38448W        W10031   9.541  18.181  13.957
38449W        W10032  20.288  37.989  10.617
38450W        W10033  31.581  23.088  11.895
38451W        W10034  38.403  36.064  10.671
38452W        W10035  43.779  44.902   3.714
38453W        W10036  14.567  13.682   0.864
38454W        W10037  20.256   4.487   3.936
38455W        W10038  41.991  13.747  14.445
38456W        W10039  41.471  40.035  12.078
38457W        W10040  31.423   5.112  13.873
38458W        W10041   8.329   4.014  11.499
38459W        W10042  29.110   0.778   3.604
38460W        W10043  19.634  23.545  13.625
38461W        W10044  40.580  31.381   0.843
38462W        W10045  13.505  32.922   0.319
38463W        W10046   4.647  37.184   0.288
38464W        W10047  20.571   7.135   0.227
38465W        W10048  43.791  23.004   4.491
38466W        W10049  27.983  13.695   2.251
38467W        W10050   0.515   8.941  12.524
38468W        W10051  11.286  35.936   2.995
38469W        W10052  35.442   1.274   3.357
38470W        W10053  27.005  20.240   2.175
38471W        W10054  40.309  18.893   2.325
38472W        W10055  10.942  13.109  13.026
38473W        W10056   9.910  41.889  13.433
38474W        W10057  43.804  38.551  12.471
38475W        W10058  24.032  36.066   2.691
38476W        W10059  18.171  26.473   1.190
38477W        W10060  30.210  14.755   4.767
38478W        W10061  30.197  18.727   2.275
38479W        W10062  14.511   6.421   3.759
38480W        W10063  43.404  19.804   2.313
38481W        W10064  35.403  39.118  11.074
38482W        W10065  19.175   6.055  13.236
38483W        W10066   7.395   1.661  10.810
38484W        W10067  18.841  24.105  14.680
38485W        W10068  36.754  43.393   3.661
38486W        W10069  43.574   8.375   1.418
38487W        W10070  16.446   2.495  13.660
38488W        W10071  36.595  40.016   3.121
38489W        W10072   0.762  20.503  10.727
38490W        W10073  23.886   2.322  12.995
38491W        W10074   8.152  31.487  10.919
38492W        W10075  20.953  37.869  13.341
38493W        W10076   4.490  20.304  12.151
38494W        W10077  42.840  29.164   1.886
38495W        W10078  15.215   7.523  14.256
38496W        W10079  16.155  20.604   2.602
38497W        W10080  18.614  31.555  14.935
38498W        W10081   0.711  40.409  11.192
38499W        W10082  15.560  41.008   3.271
38500W        W10083   5.106  39.377  14.409
38501W        W10084  25.532  34.298  11.450
38502W        W10085  20.960  41.256  14.481
38503W        W10086  30.073  20.858  10.652
38504W        W10087  36.319   3.675   2.788
38505W        W10088  43.294   3.716  13.919
38506W        W10089  34.174  30.645   2.726
38507W        W10090  24.073  14.907  12.028
38508W        W10091  37.712   5.998   4.095
38509W        W10092   4.519  28.481  12.374
38510W        W10093  27.016  27.882  11.632
38511W        W10094   4.803   5.166  14.982
38512W        W10095   6.174  27.958  12.638
38513W        W10096  11.465  43.806  11.926
38514W        W10097  28.337   2.329  13.894
38515W        W10098  25.525  37.443  10.872
38516W        W10099  42.457  33.957  14.734
38517W        W10100   2.806  11.097   3.645
38518W        W10101  16.010   7.776   4.552
38519W        W10102  41.753  33.956   3.045
38520W        W10103  12.549  15.048   4.044
38521W        W10104  13.882   9.366   0.906
38522W        W10105  17.493  34.256   2.406
38523W        W10106  23.599  21.980   2.210
38524W        W10107  31.580  10.669  14.957
38525W        W10108   1.793  27.705   3.196
38526W        W10109   6.531   3.236  12.057
38527W        W10110  23.954   4.446   1.784
38528W        W10111  13.506   8.653   5.234
38529W        W10112  38.786  39.360   4.440
38530W        W10113  20.134  39.434  10.561
38531W        W10114  22.710  15.055   4.740
38532W        W10115  32.450  11.750  13.091
38533W        W10116  41.020  16.719   2.315
38534W        W10117  10.237  16.656   0.837
38535W        W10118   9.895  30.598  12.652
38536W        W10119  24.973  26.454   3.283
38537W        W10120  19.075  39.594   0.701
38538W        W10121  11.468  34.026  12.404
38539W        W10122   2.331  22.535   2.628
38540W        W10123  23.322  18.323  11.143
38541W        W10124  20.009  28.952   1.286
38542W        W10125  40.991  20.542  14.923
38543W        W10126  14.091  24.025   0.681
38544W        W10127  12.818  30.130   4.412
38545W        W10128  18.525  24.505  14.755
38546W        W10129  24.889  28.491  11.149
38547W        W10130  20.706   6.434  11.231
38548W        W10131  21.130   4.022  14.550
38549W        W10132  26.289   5.001   4.129
38550W        W10133  38.068   4.482  13.851
38551W        W10134  26.723  17.438   0.087
38552W        W10135  18.530  31.376  10.733
38553W        W10136  30.500  11.655   0.749
38554W        W10137  34.296  33.287  14.057
38555W        W10138   4.920  35.531  14.874
38556W        W10139  20.632   2.487  13.910
38557W        W10140  15.342   3.087  13.625
38558W        W10141  33.287  18.212  11.022
38559W        W10142  13.233  40.533  12.064
38560W        W10143   0.328  34.881   1.416
38561W        W10144  28.820   7.355   2.187
38562W        W10145  29.248  36.635   4.448
38563W        W10146   9.283  26.039  10.716
38564W        W10147  26.739  18.076   4.487
38565W        W10148   3.356   0.413   2.563
38566W        W10149  26.924  24.004  10.638
38567W        W10150  27.899  29.452  11.987
38568W        W10151  19.197  35.822  12.524
38569W        W10152   1.206  37.337   4.546
38570W        W10153  22.413   5.823   2.301
38571W        W10154  16.454  15.828   4.347
38572W        W10155  37.511   6.942   3.691
38573W        W10156  37.956  20.569  14.085
38574W        W10157   1.839  32.030  13.809
38575W        W10158  38.000  11.176   0.922
38576W        W10159   2.198   0.046  14.897
38577W        W10160   0.185  10.956   1.425
38578W        W10161  25.107  35.477  13.972
38579W        W10162  18.687  43.134  10.152
38580W        W10163   9.387  26.036   3.695
38581W        W10164   7.322  39.565   2.780
38582W        W10165  37.268  21.510   0.015
38583W        W10166  21.156  10.277   4.559
38584W        W10167  31.653  28.302   3.349
38585W        W10168  11.113   1.259  12.373
38586W        W10169  44.912  21.550  14.039
38587W        W10170  31.707  22.517   0.385
38588W        W10171   8.607  30.960  14.165
38589W        W10172  34.740  40.894  11.137
38590W        W10173   6.403  33.592   1.585
38591W        W10174  17.740  19.049   2.290
38592W        W10175  19.990  33.167   0.987
38593W        W10176  41.386  32.392   2.219
38594W        W10177   3.306   3.757   1.764
38595W        W10178  37.038   6.343  13.276
38596W        W10179  26.232  18.277   3.275
38597W        W10180   1.880  16.249   0.264
38598W        W10181  43.482  34.902  14.980
38599W        W10182   4.013  36.146   2.664
38600W        W10183   1.903  40.249  10.542
38601W        W10184  16.658  18.574  14.012
38602W        W10185  40.430  25.099   3.658
38603W        W10186  19.673  25.979  14.776
38604W        W10187  23.779  27.991   2.715
38605W        W10188  17.754   1.055   3.795
38606W        W10189  32.771  18.140   0.713
38607W        W10190   7.745   0.919  12.280
38608W        W10191   9.340  38.136   1.309
38609W        W10192   8.243   7.643   1.189
38610W        W10193  17.278  11.648   3.710
38611W        W10194  15.355  38.174  11.990
38612W        W10195   3.506  23.943   4.768
38613W        W10196  39.379  19.694   3.619
38614W        W10197   7.167  30.625  10.611
38615W        W10198  22.746  27.058  11.383
38616W        W10199  19.090  11.650  10.702
38617W        W10200  37.316  24.471   3.943
38618W        W10201  44.547  25.120  11.960
38619W        W10202  43.851  24.212   2.700
38620W        W10203  34.061   4.977  13.407
38621W        W10204  28.878  14.664  12.132
38622W        W10205  12.149  37.843   4.644
38623W        W10206  10.171  37.501   0.480
38624W        W10207   4.414   2.423   4.641
38625W        W10208  31.675  27.099   2.733
38626W        W10209   7.478   7.655   2.798
38627W        W10210  42.849  10.166   2.192
38628W        W10211  36.643   2.817   0.482
38629W        W10212  18.577   3.344  10.718
38630W        W10213   9.114  43.161   0.807
38631W        W10214  40.288  34.741  14.601
38632W        W10215  13.308  43.656   2.862
38633W        W10216  16.217  27.185  13.137
38634W        W10217  42.340  39.514   2.778
38635W        W10218   2.909  15.863  10.725
38636W        W10219  13.843  12.774   1.227
38637W        W10220  20.226   0.016   0.346
38638W        W10221  20.978   5.405  10.693
38639W        W10222  22.170  41.708   3.174
38640W        W10223  22.638   4.698  10.765
38641W        W10224   8.699  24.914   2.626
38642W        W10225  32.506  12.224  12.902
38643W        W10226   1.469  22.734   0.842
38644W        W10227  41.974  15.469   3.322
38645W        W10228  37.568  16.711   1.913
38646W        W10229  16.871   5.306   2.461
38647W        W10230  25.558   0.267  10.707
38648W        W10231  19.655   5.413  12.654
38649W        W10232  41.538  17.151  10.610
38650W        W10233  23.315  15.697  13.843
38651W        W10234  10.623   4.462  10.627
38652W        W10235  20.685  37.609   4.666
38653W        W10236   6.090  11.629  11.084
38654W        W10237  20.024  15.178  11.853
38655W        W10238  32.774   0.493  11.606
38656W        W10239   6.315   0.980   1.839
38657W        W10240   0.742  43.407  10.695
38658W        W10241   8.390  33.130  14.905
38659W        W10242  41.787  14.164  10.317
38660W        W10243   3.399  21.746  11.156
38661W        W10244   9.371  35.279   4.212
38662W        W10245  26.574  41.848   0.697
38663W        W10246   7.538  43.398  12.898
38664W        W10247  33.916  24.539  11.116
38665W        W10248   5.404  37.392   5.471
38666W        W10249  33.856  43.790  12.397
38667W        W10250  15.115  15.728  10.984
38668W        W10251  25.626   9.288  13.598
38669W        W10252  41.457  13.731  14.434
38670W        W10253   5.645   1.400  14.289
38671W        W10254  23.459   3.789  13.944
38672W        W10255  15.717  37.802  13.899
38673W        W10256  15.021   2.954   4.646
38674W        W10257   7.891  44.379   4.155
38675W        W10258  12.177  16.578  12.145
38676W        W10259  19.127   6.893  12.151
38677W        W10260  39.136   2.974  12.550
38678W        W10261   0.487  43.903   4.192
38679W        W10262  31.555  28.908  11.538
38680W        W10263  26.976  28.092   2.757
38681W        W10264  12.339  11.878  12.703
38682W        W10265  35.678  13.545   0.461
38683W        W10266  34.321  24.178   4.162
38684W        W10267  13.193  24.924   3.709
38685W        W10268  21.348   6.752   9.531
38686W        W10269  31.733  22.593   5.731
38687W        W10270  15.609   0.595  12.019
38688W        W10271  12.260  11.637  14.550
38689W        W10272  39.382  15.962   9.827
38690W        W10273  36.487  20.151   2.850
38691W        W10274  36.078  14.316  12.542
38692W        W10275  22.616  41.022   2.087
38693W        W10276  12.074   5.413   2.516
38694W        W10277  25.039  17.012  11.653
38695W        W10278  38.849  43.790  14.852
38696W        W10279  18.210  30.455   2.194
38697W        W10280  42.168  23.510   2.567
38698W        W10281  42.301  15.277   1.766
38699W        W10282  35.742  20.519   0.342
38700W        W10283   5.250  36.089  13.473
38701W        W10284  25.677  28.899   1.843
38702W        W10285  21.463  14.332   2.296
38703W        W10286  17.830  32.032  12.451
38704W        W10287  29.991  26.974  14.880
38705W        W10288  37.020  41.506   3.226
38706W        W10289  23.020  24.996   3.704
38707W        W10290   8.485   4.754   1.757
38708W        W10291  41.843  12.628   0.743
38709W        W10292  37.215   6.820  11.015
38710W        W10293  32.175  39.523   3.202
38711W        W10294  16.062  24.022  13.034
38712W        W10295  13.229  15.451   3.615
38713W        W10296  27.108  39.707  11.218
38714W        W10297  17.189  26.005  11.110
38715W        W10298  16.222  18.471   0.906
38716W        W10299   5.011  19.182   3.290
38717W        W10300  16.885   5.166   0.820
38718W        W10301   4.199  31.126  12.772
38719W        W10302  32.850  25.782   1.341
38720W        W10303   0.696   0.307  11.549
38721W        W10304  18.665  21.733   3.629
38722W        W10305   5.271   3.832   2.258
38723W        W10306   4.266  12.095  14.087
38724W        W10307  18.079  31.438  13.235
38725W        W10308  24.194  15.185  10.780
38726W        W10309  11.094  34.913   1.217
38727W        W10310  25.286  24.678   0.880
38728W        W10311  21.157   6.832  12.502
38729W        W10312  37.538  13.087   2.718
38730W        W10313  25.966   0.739   3.751
38731W        W10314  41.824  33.397   2.305
38732W        W10315  40.647   1.309  12.091
38733W        W10316   4.420  33.625  11.686
38734W        W10317  19.268  16.015   2.422
38735W        W10318   0.259  17.939  12.877
38736W        W10319  19.177  38.295   1.159
38737W        W10320  15.579   1.929  11.407
38738W        W10321  26.702   6.776   0.950
38739W        W10322  14.679   5.727  13.339
38740W        W10323   2.387  20.885  13.917
38741W        W10324  19.936  23.538   2.815
38742W        W10325  26.866   9.585  10.687
38743W        W10326  24.848  26.074  13.886
38744W        W10327  10.776  22.559   3.040
38745W        W10328   2.295   9.905  14.867
38746W        W10329  42.466  20.774  13.921
38747W        W10330  42.944   1.503   0.462
38748W        W10331  10.697  26.534  14.353
38749W        W10332  44.889   8.902   5.099
38750W        W10333  14.775  39.187   0.789
38751W        W10334  37.256  31.393  14.497
38752W        W10335  42.411   5.867   4.394
38753W        W10336   3.443   8.063   4.708
38754W        W10337  31.031   0.740  12.424
38755W        W10338  35.807   8.146   0.494
38756W        W10339  10.277   2.198  13.430
38757W        W10340  28.478  33.187   3.562
38758W        W10341  11.939  20.955   4.494
38759W        W10342  42.806  18.054   4.861
38760W        W10343  13.371  33.846   3.374
38761W        W10344  36.958  29.020   2.496
38762W        W10345  19.394  11.121   3.915
38763W        W10346   2.288  22.053   0.937
38764W        W10347  35.520  22.372  13.827
38765W        W10348  22.200  38.420  14.540
38766W        W10349  22.279   9.716   0.303
38767W        W10350  21.910  41.581  10.707
38768W        W10351  39.398  30.502  10.671
38769W        W10352   7.372  26.183   2.321
38770W        W10353  44.227  11.737  11.935
38771W        W10354  40.221  41.163   2.793
38772W        W10355  40.052  14.509  10.737
38773W        W10356  36.575  29.293   3.850
38774W        W10357  36.074  19.991  12.912
38775W        W10358  38.056  36.081   0.377
38776W        W10359  34.215  30.524   1.226
38777W        W10360  31.512  44.230  10.498
38778W        W10361  35.265  19.093   2.944
38779W        W10362  35.610   3.887  12.569
38780W        W10363  38.085  33.146   2.624
38781W        W10364  25.097  21.191  12.150
38782W        W10365  36.355  14.975   4.182
38783W        W10366  14.990  28.182   1.709
38784W        W10367  40.515   8.928   2.641
38785W        W10368  25.491  37.560  10.377
38786W        W10369  35.970  33.031   2.791
38787W        W10370  22.696  21.712  14.003
38788W        W10371  19.682  25.741   3.569
38789W        W10372  28.998  25.381  13.446
38790W        W10373  16.086  13.800   4.334
38791W        W10374   8.943  28.959   0.466
38792W        W10375  27.901  31.368   4.143
38793W        W10376  19.630  35.091   3.729
38794W        W10377  16.286  15.205   1.432
38795W        W10378  15.314   6.623   2.243
38796W        W10379  37.521   8.849  13.138
38797W        W10380  10.163   1.668   3.804
38798W        W10381  14.231  24.286  11.264
38799W        W10382  24.326   5.295  14.766
38800W        W10383  20.556  27.589   4.183
38801W        W10384  23.184  11.237   3.127
38802W        W10385  17.333  31.447  12.026
38803W        W10386   6.382   7.897   0.120
38804W        W10387   8.897  33.598   1.834
38805W        W10388  30.638   7.362   2.697
38806W        W10389   3.343  10.592   0.437
38807W        W10390  42.936  17.464   4.280
38808W        W10391   8.936  18.652  14.480
38809W        W10392  28.111  15.434   5.045
38810W        W10393  23.971  31.626  12.229
38811W        W10394  32.675  33.478  13.026
38812W        W10395  37.995  17.222   1.831
38813W        W10396   4.226   4.699  14.401
38814W        W10397  26.102  12.591  14.453
38815W        W10398  30.643  27.536  12.869
38816W        W10399  24.077  13.273   1.294
38817W        W10400  11.596  39.476   3.613
38818W        W10401  18.381   0.861   5.116
38819W        W10402  44.404  14.241   2.302
38820W        W10403  25.282  21.516  11.140
38821W        W10404  30.387  44.862  12.852
38822W        W10405  37.040  43.563   2.100
38823W        W10406  13.209  43.064  11.172
38824W        W10407  17.340  41.917  11.619
38825W        W10408   7.241  18.338   1.797
38826W        W10409   6.413  18.536   3.470
38827W        W10410  38.031  28.264  11.499
38828W        W10411   5.884  14.362   2.397
38829W        W10412   6.642  34.910   0.933
38830W        W10413   2.651  39.954   4.635
38831W        W10414  31.366  43.765  11.358
38832W        W10415  36.000  28.373   1.750
38833W        W10416  34.546  10.757  12.058
38834W        W10417  25.696  34.465   2.699
38835W        W10418  39.659  36.286   4.189
38836W        W10419  20.578  30.577   1.395
38837W        W10420  19.438  20.223  13.632
38838W        W10421   0.281  13.790  12.041
38839W        W10422  38.888   1.889  12.445
38840W        W10423  19.238  18.509   2.299
38841W        W10424   5.296  34.782  14.460
38842W        W10425  18.525   4.890   5.047
38843W        W10426  40.323   1.935  12.517
38844W        W10427   8.793  40.515  10.916
38845W        W10428  10.694  38.403   1.936
38846W        W10429   2.746  28.557  13.465
38847W        W10430  42.017  42.373  14.819
38848W        W10431   1.041  39.594   1.815
38849W        W10432  36.931  31.296  11.181
38850W        W10433  14.821  16.693   0.711
38851W        W10434  29.011  27.379   3.618
38852W        W10435   7.344  22.297   3.330
38853W        W10436  13.243  17.575  10.655
38854W        W10437  26.782  32.874   0.895
38855W        W10438  26.946  31.372  12.318
38856W        W10439  42.468  23.833   3.722
38857W        W10440  28.014  20.135   1.834
38858W        W10441  24.311  19.850  14.728
38859W        W10442  12.802   7.807   1.449
38860W        W10443   3.758  40.551   4.554
38861W        W10444  38.619  36.634  14.422
38862W        W10445  38.959   1.233   1.756
38863W        W10446   1.494   1.951  13.046
38864W        W10447  14.252  34.921   0.946
38865W        W10448  42.904  15.918  14.517
38866W        W10449  18.156   1.495   3.192
38867W        W10450  23.136  14.033  11.792
38868W        W10451  12.898  15.153  10.701
38869W        W10452   8.651  31.503  12.550
38870W        W10453  27.570  26.636  12.589
38871W        W10454  34.912   4.326   0.982
38872W        W10455  31.433  15.059   0.773
38873W        W10456  30.648  35.809   1.388
38874W        W10457   4.742  30.957   0.732
38875W        W10458  24.973  31.920   1.869
38876W        W10459  18.454  27.133  12.163
38877W        W10460  14.341  21.488  14.405
38878W        W10461  40.523  32.934  14.550
38879W        W10462  24.143  26.961   2.861
38880W        W10463  18.181  34.792  12.997
38881W        W10464  20.664  11.097   1.236
38882W        W10465  13.683  35.555   3.664
38883W        W10466   9.534   3.221  13.759
38884W        W10467  16.115  37.528   5.588
38885W        W10468  25.926  17.067  13.473
38886W        W10469  17.668  13.667  13.198
38887W        W10470  44.006  25.264  10.525
38888W        W10471  20.311   0.011   3.689
38889W        W10472  38.830  28.057  12.875
38890W        W10473   4.745   9.666   1.276
38891W        W10474  28.370  11.369  14.934
38892W        W10475  39.520  33.095  14.203
38893W        W10476   3.782  19.264   2.421
38894W        W10477  44.359   6.914  10.519
38895W        W10478  36.664  35.153  14.878
38896W        W10479  21.640  25.771  12.855
38897W        W10480  42.434  44.322  10.111
38898W        W10481   0.315  17.323  12.071
38899W        W10482  27.341  17.028  11.034
38900W        W10483  44.819  24.186   3.568
38901W        W10484  15.659  41.502  13.069
38902W        W10485  35.006  27.208   1.725
38903W        W10486   6.593  43.886   2.904
38904W        W10487  33.036  37.569   4.531
38905W        W10488  35.747  24.265   0.447
38906W        W10489  36.242  26.094   1.534
38907W        W10490  22.951  14.657   1.341
38908W        W10491   5.778  44.963   2.120
38909W        W10492  24.083  10.629   3.894
38910W        W10493   1.401   7.967   0.828
38911W        W10494  15.770   8.445   3.406
38912W        W10495   8.362   9.838   3.757
38913W        W10496  35.860  30.913  13.082
38914W        W10497   0.000   3.473  14.904
38915W        W10498  44.004  43.135   0.428
38916W        W10499  40.435  43.307  12.428
38917W        W10500  44.047  39.386   3.713
38918W        W10501  17.546  30.272  12.036
38919W        W10502   1.280  26.877  11.020
38920W        W10503  19.642  27.489  10.616
38921W        W10504  19.168   5.209   0.515
38922W        W10505   4.800  13.804  12.871
38923W        W10506  10.122   9.982  12.527
38924W        W10507  10.261  15.264  13.809
38925W        W10508  17.099  34.862  11.431
38926W        W10509  17.240  25.183  12.396
38927W        W10510  22.582  12.887   0.216
38928W        W10511  33.963  38.787  14.274
38929W        W10512  27.142  37.601   1.722
38930W        W10513  14.743  10.008   2.486
38931W        W10514  22.777  41.306  12.968
38932W        W10515  19.055  10.189   0.454
38933W        W10516  39.085  13.347  14.348
38934W        W10517   8.805  42.908   0.474
38935W        W10518  39.415  12.855  14.860
38936W        W10519  12.937  27.928   2.741
38937W        W10520  40.546  17.655  11.052
38938W        W10521   4.392  14.926   1.379
38939W        W10522  42.240   6.769   2.768
38940W        W10523  31.697  15.647  12.540
38941W        W10524  27.449  28.188  12.442
38942W        W10525  11.168  39.791  13.925
38943W        W10526   4.473  27.518   0.372
38944W        W10527  13.676  12.200   1.479
38945W        W10528  30.612  38.066  11.726
38946W        W10529   5.374  21.560  13.844
38947W        W10530  40.405  14.550  14.375
38948W        W10531  17.341   8.102   1.235
38949W        W10532  20.143  30.653  11.846
38950W        W10533  25.928  44.676   3.307
38951W        W10534  29.173  34.140   9.997
38952W        W10535  27.337  32.875  13.990
38953W        W10536  18.109  37.604  10.973
38954W        W10537  20.528   6.277  14.655
38955W        W10538  22.990   8.714  10.672
38956W        W10539  10.259  34.390   3.310
38957W        W10540  29.577  22.256   5.039
38958W        W10541  19.092  22.942  13.141
38959W        W10542  10.795   8.141  14.922
38960W        W10543   8.324  16.474   3.265
38961W        W10544   8.477  17.517  13.442
38962W        W10545  26.134  40.764  14.886
38963W        W10546  34.055  21.622  12.564
38964W        W10547  11.161  10.576   3.778
38965W        W10548  22.917   3.550   1.777
38966W        W10549  19.905  28.831   0.370
38967W        W10550  24.188  19.598  10.652
38968W        W10551  42.565  43.470   4.591
38969W        W10552  28.209   0.748   3.715
38970W        W10553  26.092  20.520   1.803
38971W        W10554  42.913  40.762  12.299
38972W        W10555  34.038  20.284   4.806
38973W        W10556  31.563  11.634   2.236
38974W        W10557  16.004  11.054   3.830
38975W        W10558   5.003   2.778   0.413
38976W        W10559   6.196  23.019  14.987
38977W        W10560  38.505  41.273   0.512
38978W        W10561  30.952  39.943   3.146
38979W        W10562  15.617  13.353   0.018
38980W        W10563   5.467  18.730   4.124
38981W        W10564   6.558  28.143   2.917
38982W        W10565   8.544  44.869   0.352
38983W        W10566  25.623  22.474   0.430
38984W        W10567   4.781  27.381   4.310
38985W        W10568   2.708  33.127  13.563
38986W        W10569  28.591  43.307  12.404
38987W        W10570  27.220   6.912  13.973
38988W        W10571  26.253  28.043  14.770
38989W        W10572  19.496  17.081   5.114
38990W        W10573  43.758  32.193  14.029
38991W        W10574  28.636  40.485   3.174
38992W        W10575  35.930  32.196   2.316
38993W        W10576   1.713   3.994  12.015
38994W        W10577  23.962  11.299  14.361
38995W        W10578  36.636  19.514  10.038
38996W        W10579   4.513  27.061  11.147
38997W        W10580  43.466  26.466   3.102
38998W        W10581   0.119  41.452  12.207
38999W        W10582  22.778  40.934   2.569
39000W        W10583   8.650   0.260  10.709
39001W        W10584   4.967   1.395  10.659
39002W        W10585   1.580  39.849  11.880
39003W        W10586   0.407   8.255  11.248
39004W        W10587   2.096  24.960   1.280
39005W        W10588  21.879  12.237  11.052
39006W        W10589  42.450  28.006   1.154
39007W        W10590   4.753  39.608  10.974
39008W        W10591  20.265  33.034   4.231
39009W        W10592  16.141  34.546   2.738
39010W        W10593  16.284  42.871  14.809
39011W        W10594  37.555  35.379   4.557
39012W        W10595  20.543  34.032   0.165
39013W        W10596   0.491  36.149  12.940
39014W        W10597  23.627  34.091   0.391
39015W        W10598  24.494   7.871   1.805
39016W        W10599  36.370  20.088   1.760
39017W        W10600  43.467  33.906   0.892
39018W        W10601   2.973  39.061  14.429
39019W        W10602   3.924  24.174  14.500
39020W        W10603  43.444  18.473  14.508
39021W        W10604  25.309  27.629  13.774
39022W        W10605  32.309  44.239  14.813
39023W        W10606  17.046   2.012   2.319
39024W        W10607  17.795  18.005  10.756
39025W        W10608  17.738  29.845   2.265
39026W        W10609  19.165  33.556   3.062
39027W        W10610  35.459  21.176  14.506
39028W        W10611  35.423  27.117  12.600
39029W        W10612  44.772  21.326   2.640
39030W        W10613  44.422  30.311  12.355
39031W        W10614   4.145  23.085   4.385
39032W        W10615  15.878   2.322  11.173
39033W        W10616  37.078  22.512  13.598
39034W        W10617   8.984  13.804   4.171
39035W        W10618  11.352  15.053  13.666
39036W        W10619   9.145  16.089   4.435
39037W        W10620  39.058  28.484  12.715
39038W        W10621   2.119  44.491   2.460
39039W        W10622  36.236  37.093  11.148
39040W        W10623  29.978  41.682  13.278
39041W        W10624   2.223   2.099  13.904
39042W        W10625   9.853   7.446   2.368
39043W        W10626  41.360  22.114   0.027
39044W        W10627   7.963   0.452   3.727
39045W        W10628  23.190   4.068   4.815
39046W        W10629  25.486  25.550  14.412
39047W        W10630   7.205  40.077  13.501
39048W        W10631  32.096  15.306  12.876
39049W        W10632  14.709  13.640   0.339
39050W        W10633  28.194   3.238  13.428
39051W        W10634  33.423  23.783  14.836
39052W        W10635  25.054   3.593  12.910
39053W        W10636  34.021  24.015  13.767
39054W        W10637   4.603  28.295   2.811
39055W        W10638  42.531  16.208  12.038
39056W        W10639   8.662  32.532  14.139
39057W        W10640  42.925  33.538  10.486
39058W        W10641  13.609   1.407  14.298
39059W        W10642  43.246  23.692   3.588
39060W        W10643  38.089   9.404  12.457
39061W        W10644  34.903  14.825   1.754
39062W        W10645   8.083  34.597   3.729
39063W        W10646  21.014  26.808  13.924
39064W        W10647  14.648  18.788   4.593
39065W        W10648  17.654   4.206  14.528
39066W        W10649  18.197  36.812  12.994
39067W        W10650   6.884   0.478   4.578
39068W        W10651  43.893  38.749  13.801
39069W        W10652  29.577  39.502   1.535
39070W        W10653   3.756  17.549   1.788
39071W        W10654  21.077  40.997  10.816
39072W        W10655  41.189  18.776  14.315
39073W        W10656   6.434  18.859  11.592
39074W        W10657  20.111  44.919   1.353
39075W        W10658   3.738  30.206   2.882
39076W        W10659  13.675  14.717   1.158
39077W        W10660  44.877   2.761   0.352
39078W        W10661  41.590  40.711   3.088
39079W        W10662  43.060  42.891  12.591
39080W        W10663  29.132   2.799  11.489
39081W        W10664  27.942  20.041  13.536
39082W        W10665  16.589   4.529  12.851
39083W        W10666   1.329  17.647   0.775
39084W        W10667   0.530  22.000  11.984
39085W        W10668  38.504  22.791  12.061
39086W        W10669  41.007  31.765   4.137
39087W        W10670  16.579  21.014   0.137
39088W        W10671   2.415   7.879  14.952
39089W        W10672   1.226  24.469   2.752
39090W        W10673  25.877  23.682  13.342
39091W        W10674  16.925  43.965   2.297
39092W        W10675  41.033  20.869  11.774
39093W        W10676  43.851  44.273   3.461
39094W        W10677   5.771  12.667   4.532
39095W        W10678  15.578  41.185   2.436
39096W        W10679  14.774  23.197   3.841
39097W        W10680  38.747  41.447  12.627
39098W        W10681  25.632   9.113  11.631
39099W        W10682   5.253  23.860  12.555
39100W        W10683  40.471  32.470  13.276
39101W        W10684  40.493   6.246   1.929
39102W        W10685  22.583  26.604  11.224
39103W        W10686  22.732  37.779  11.426
39104W        W10687  11.636  32.354  10.548
39105W        W10688  42.968  44.595   1.192
39106W        W10689   4.637   0.033  13.313
39107W        W10690  27.905  13.257  10.811
39108W        W10691  25.220   4.386   2.701
39109W        W10692  20.461   7.131   1.742
39110W        W10693   0.411  19.997   0.335
39111W        W10694  40.538   3.472   1.421
39112W        W10695  34.651  18.142  13.975
39113W        W10696  16.723  43.525   2.503
39114W        W10697   5.635  37.883   5.477
39115W        W10698  33.746   6.116   3.194
39116W        W10699  34.503  27.804  12.898
39117W        W10700  36.566  27.255   0.619
39118W        W10701   4.905  40.579  13.078
39119W        W10702  21.473  13.149  13.849
39120W        W10703   2.717  40.467  12.330
39121W        W10704  28.534  10.438  12.621
39122W        W10705  29.523   1.372   1.017
39123W        W10706  18.527  14.015  10.376
39124W        W10707  20.297  41.279   1.748
39125W        W10708  16.153   8.298   4.564
39126W        W10709  31.575   9.460   3.822
39127W        W10710  17.074  26.088   2.727
39128W        W10711  25.162  40.603   1.535
39129W        W10712  25.962  11.298  10.465
39130W        W10713   5.446  17.488   1.323
39131W        W10714  35.856   4.476   1.940
39132W        W10715  38.447  37.126   2.236
39133W        W10716  24.670  10.829   0.225
39134W        W10717   5.429   9.230  11.612
39135W        W10718  27.915  31.957  14.387
39136W        W10719  12.085   3.978  10.595
39137W        W10720  14.667   3.724   3.111
39138W        W10721  15.602   6.254   4.482
39139W        W10722  43.801  14.653  14.512
39140W        W10723  18.211  36.319   4.233
39141W        W10724  13.954  11.221  11.678
39142W        W10725   6.654  25.692  13.886
39143W        W10726  11.329   2.092  12.024
39144W        W10727  19.078  23.536  10.669
39145W        W10728   6.429  34.031   4.254
39146W        W10729   0.903  26.685  10.739
39147W        W10730   3.987  28.443  10.993
39148W        W10731  10.214  43.035  11.290
39149W        W10732  37.838  19.030   1.430
39150W        W10733   9.301  32.550   3.571
39151W        W10734   6.370  30.685  12.961
39152W        W10735  17.843  40.330  12.161
39153W        W10736  42.246  13.346   1.012
39154W        W10737  23.408   7.400  14.516
39155W        W10738   7.411  23.560   4.367
39156W        W10739  33.733  21.334  12.287
39157W        W10740  20.079  35.461  11.132
39158W        W10741  42.747  30.475  11.092
39159W        W10742  35.971  28.108   4.388
39160W        W10743  10.348  10.035   5.069
39161W        W10744  33.015   4.202  12.983
39162W        W10745  12.795  28.738  14.387
39163W        W10746   3.456  43.493   1.773
39164W        W10747  38.898  18.197  12.618
39165W        W10748  33.758  10.088  14.391
39166W        W10749  12.208  20.349   1.740
39167W        W10750  44.359  42.387   1.091
39168W        W10751  22.240  23.631  14.860
39169W        W10752  38.565  20.185  10.642
39170W        W10753  26.168   3.250   1.959
39171W        W10754   1.991  19.242  13.322
39172W        W10755   0.591  32.888   1.495
39173W        W10756   1.692   6.293  12.940
39174W        W10757  22.705  28.124   1.772
39175W        W10758  29.972  19.171   4.116
39176W        W10759  44.310  30.090  13.270
39177W        W10760  16.710  28.314   4.401
39178W        W10761  20.251  42.977  12.604
39179W        W10762  40.477  13.755  14.713
39180W        W10763  42.051  43.060  14.119
39181W        W10764  22.067  14.463  11.227
39182W        W10765  13.667  44.169  11.555
39183W        W10766  40.586  23.047  11.938
39184W        W10767   8.668  18.985   2.860
39185W        W10768   4.906  40.887   4.065
39186W        W10769   4.168  28.594  13.332
39187W        W10770   4.127   5.620  14.461
39188W        W10771  16.678  14.177  11.156
39189W        W10772   4.925  41.894  12.473
39190W        W10773  22.166  42.039  10.707
39191W        W10774  37.036  43.580  14.237
39192W        W10775  22.739  15.693  14.956
39193W        W10776  23.275  23.089  10.663
39194W        W10777  35.580   8.744   3.685
39195W        W10778   3.946  35.087  14.758
39196W        W10779  26.220  40.371   0.824
39197W        W10780   1.830  16.809  10.585
39198W        W10781  20.621  19.023  11.416
39199W        W10782  37.160  40.278  12.868
39200W        W10783  33.902   2.406   3.683
39201W        W10784  42.361  35.363  12.624
39202W        W10785   7.863   6.023   4.393
39203W        W10786  19.644  23.573   5.490
39204W        W10787   1.232  33.558   3.122
39205W        W10788  22.698  20.025   1.873
39206W        W10789  43.698  15.260  11.167
39207W        W10790  25.237  31.927  11.154
39208W        W10791  36.541  12.508   2.736
39209W        W10792  43.519  23.138   0.213
39210W        W10793  28.760  40.410  11.352
39211W        W10794  31.836   0.773  13.592
39212W        W10795  41.241  10.341  13.593
39213W        W10796   0.773  42.101   4.229
39214W        W10797  11.700   2.770   1.158
39215W        W10798  30.081  33.959   1.703
39216W        W10799   4.219  22.098   0.290
39217W        W10800   5.236  40.962  12.922
39218W        W10801  14.346  16.140  10.696
39219W        W10802  44.777  30.657   1.446
39220W        W10803   7.945  17.279  12.524
39221W        W10804  40.753  17.174  13.012
39222W        W10805  33.873  36.420  13.984
39223W        W10806  28.675   9.722   2.621
39224W        W10807  13.893   7.364  14.145
39225W        W10808   3.944  13.813   0.849
39226W        W10809  24.977  14.248  11.496
39227W        W10810  40.923  14.288   0.454
39228W        W10811   5.150  36.910   4.107
39229W        W10812  38.794  36.758  13.517
39230W        W10813  37.378  29.174   2.718
39231W        W10814  16.743  22.067   1.364
39232W        W10815  24.805   7.755  14.931
39233W        W10816  22.682  24.476  14.710
39234W        W10817  28.931  38.826   4.057
39235W        W10818  17.114   5.748   4.757
39236W        W10819  12.260  40.204  12.035
39237W        W10820  31.879  35.853   0.430
39238W        W10821  10.280  17.891  13.309
39239W        W10822  24.565  13.912  11.471
39240W        W10823  17.084  41.830   0.885
39241W        W10824  20.801  43.805  12.427
39242W        W10825  42.466  26.177  13.845
39243W        W10826   4.336   0.145  11.256
39244W        W10827   4.723  12.730  11.375
39245W        W10828  33.360  29.033  10.632
39246W        W10829  12.324  34.535   4.567
39247W        W10830   8.190   0.215   0.236
39248W        W10831  25.602   8.215   2.732
39249W        W10832   2.407   7.798   3.653
39250W        W10833  20.165  29.048   2.781
39251W        W10834  20.092   8.250   4.761
39252W        W10835   2.210  21.691   3.574
39253W        W10836   3.283  32.958  12.012
39254W        W10837  38.531  13.326  12.059
39255W        W10838  28.151  38.480   1.399
39256W        W10839  16.747  33.150   1.268
39257W        W10840  12.939  42.081   1.465
39258W        W10841  43.079  32.295   4.284
39259W        W10842   1.277  39.442  14.404
39260W        W10843  28.603  39.917  11.841
39261W        W10844  21.537   8.370   4.607
39262W        W10845   1.876  35.619  10.453
39263W        W10846   8.557   7.795  11.556
39264W        W10847  33.712  44.902  12.476
39265W        W10848  26.946  42.205  11.603
39266W        W10849  30.378   5.052   9.839
39267W        W10850  43.970  15.601  14.898
39268W        W10851  11.868   0.044   2.711
39269W        W10852   6.877  23.471  12.616
39270W        W10853  31.756  37.399  11.157
39271W        W10854  24.534  25.578   1.409
39272W        W10855  10.113  32.878  14.337
39273W        W10856   8.308  26.471   1.865
39274W        W10857  24.076  14.056  14.982
39275W        W10858  34.148  12.814  14.819
39276W        W10859   1.836  42.219   3.660
39277W        W10860   1.273  11.821   4.207
39278W        W10861  40.450  15.559  14.490
39279W        W10862   4.022  31.335   0.674
39280W        W10863  24.296   0.825  12.922
39281W        W10864   6.270  11.780  11.555
39282W        W10865  42.403   5.526   3.142
39283W        W10866  43.825  44.474   1.428
39284W        W10867   1.275  27.916  13.446
39285W        W10868   7.126  43.816   2.849
39286W        W10869  14.071  20.190   2.215
39287W        W10870  22.947  39.339  13.760
39288W        W10871  43.989   7.719  13.345
39289W        W10872  17.000  25.371  11.985
39290W        W10873  31.073   6.365  14.802
39291W        W10874  42.713  11.258   1.295
39292W        W10875  23.253  25.070  14.323
39293W        W10876   4.194   3.840   1.432
39294W        W10877  30.984  35.041   2.443
39295W        W10878   7.149  35.392   3.735
39296W        W10879  43.919  23.951  14.803
39297W        W10880  19.558   6.304  11.578
39298W        W10881  20.699  40.407   4.067
39299W        W10882  40.950  23.344   4.135
39300W        W10883  24.509  34.860   3.257
39301W        W10884  11.953  21.752   5.091
39302W        W10885   6.730  36.099   2.735
39303W        W10886  25.739  27.911   3.749
39304W        W10887   7.848  16.714   3.333
39305W        W10888   1.184  16.356  11.265
39306W        W10889  39.913  43.249   3.526
39307W        W10890   1.757  29.370   1.723
39308W        W10891  20.403  13.996  14.809
39309W        W10892  18.586  23.719  10.678
39310W        W10893   9.665  34.807   1.323
39311W        W10894  41.915  15.125   2.752
39312W        W10895  34.916  16.813  14.932
39313W        W10896  17.548  29.078   2.788
39314W        W10897  27.561  14.525  10.511
39315W        W10898  28.665   4.872  12.692
39316W        W10899   5.200  13.562  10.693
39317W        W10900  40.304   5.488   5.514
39318W        W10901  24.492  37.280  11.589
39319W        W10902  21.515  44.502   2.600
39320W        W10903  40.578  25.916  14.412
39321W        W10904  15.862  25.374   9.699
39322W        W10905  19.162  19.810   1.884
39323W        W10906  22.191  17.979   0.362
39324W        W10907  36.835  27.977  13.449
39325W        W10908  39.798  34.178  13.004
39326W        W10909   0.038  43.243  12.868
39327W        W10910  44.910   4.652  10.710
39328W        W10911  31.024  15.406   1.666
39329W        W10912   9.429  24.626   2.262
39330W        W10913   4.721  38.841  14.827
39331W        W10914  10.540  21.513  13.856
39332W        W10915  21.688  25.092  11.582
39333W        W10916  27.202  31.182  11.504
39334W        W10917  20.183  12.549  12.826
39335W        W10918  10.697  13.272  10.637
39336W        W10919  17.958  13.906   0.405
39337W        W10920   4.141  11.899  14.800
39338W        W10921  42.531  38.943  10.707
39339W        W10922  21.972  27.673  12.964
39340W        W10923  43.900   3.229   0.865
39341W        W10924  43.910  27.090   0.419
39342W        W10925  20.572  36.275   2.939
39343W        W10926  19.041   3.796   2.227
39344W        W10927  27.606  29.064   3.451
39345W        W10928  33.874  10.794  13.424
39346W        W10929  10.344   8.290   0.797
39347W        W10930  39.383  18.164  13.082
39348W        W10931  30.411  35.524  12.421
39349W        W10932  22.640  39.564  13.371
39350W        W10933  29.264  18.642   4.970
39351W        W10934  11.525   6.144   2.753
39352W        W10935  29.060  12.597   1.038
39353W        W10936   8.283  42.077   2.143
39354W        W10937  17.528  42.470  12.147
39355W        W10938  32.605  38.820   1.263
39356W        W10939  35.428  14.773  11.241
39357W        W10940  39.117  25.519   0.053
39358W        W10941  37.059   6.452   1.151
39359W        W10942  17.243   5.218   1.200
39360W        W10943  38.527   8.270   1.224
39361W        W10944  28.678  23.155   3.201
39362W        W10945  13.616  23.805  10.808
39363W        W10946  25.504  37.609  13.055
39364W        W10947  25.623  39.277   1.543
39365W        W10948  13.355  25.061   3.249
39366W        W10949  15.822  20.093   0.736
39367W        W10950  32.544   2.664   0.428
39368W        W10951  11.375  31.041   2.674
39369W        W10952  26.126  32.591   3.702
39370W        W10953  33.670  36.137   0.797
39371W        W10954   8.479  30.599   2.652
39372W        W10955  23.469  26.134  12.876
39373W        W10956  22.270  34.111   1.859
39374W        W10957  12.886  18.595   0.225
39375W        W10958  27.655   7.808   0.338
39376W        W10959   4.324  39.388  11.113
39377W        W10960  33.429  11.378   4.297
39378W        W10961  36.462   6.370  14.332
39379W        W10962  31.837  42.349   1.428
39380W        W10963  14.535   2.839   4.733
39381W        W10964  29.501   4.315   1.895
39382W        W10965  10.586  22.762   0.876
39383W        W10966  34.031  16.141  11.612
39384W        W10967  13.779   2.878   2.303
39385W        W10968  12.992  35.916   3.012
39386W        W10969  13.472   9.699  13.057
39387W        W10970   8.158   7.725  12.024
39388W        W10971  23.325  42.797   4.547
39389W        W10972  39.732  14.054  12.393
39390W        W10973  23.303  36.099  14.053
39391W        W10974  12.155  28.444  13.126
39392W        W10975  39.562  27.692  12.187
39393W        W10976  44.919  33.618  12.363
39394W        W10977   3.792  35.617   3.509
39395W        W10978   8.069  17.199   2.780
39396W        W10979  12.832   6.726  14.340
39397W        W10980  13.191  36.780   1.177
39398W        W10981   2.504  35.865  12.526
39399W        W10982  25.082  41.664  13.008
39400W        W10983  35.096  15.552   1.303
39401W        W10984   9.960  31.167   2.723
39402W        W10985   9.143  10.200  12.003
39403W        W10986   0.767  12.843   1.205
39404W        W10987  13.840   3.278  11.615
39405W        W10988  16.677  30.060  13.291
39406W        W10989  41.579   9.120   2.745
39407W        W10990  22.990  26.462   0.456
39408W        W10991  18.306   2.387  13.474
39409W        W10992  25.351   5.875  12.443
39410W        W10993  30.190  16.258   2.017
39411W        W10994   4.964  31.845   2.973
39412W        W10995  26.098  19.465  13.579
39413W        W10996  42.877  27.830   3.165
39414W        W10997  28.296   3.264  12.039
39415W        W10998  39.097  21.628  12.456
39416W        W10999  24.092  40.168  14.734
39417W        W11000   9.797   2.606  11.137
39418W        W11001   4.735  12.656  10.874
39419W        W11002  18.867  14.662  13.802
39420W        W11003  22.523   4.370  11.155
39421W        W11004  42.995  43.107   0.209
39422W        W11005  32.674  12.667   1.849
39423W        W11006  12.349  15.707   1.817
39424W        W11007  33.646  18.557  12.103
39425W        W11008   7.505  40.484   2.846
39426W        W11009  33.485  33.996  10.769
39427W        W11010  39.024  29.210  14.487
39428W        W11011  20.086  32.935  14.555
39429W        W11012  33.074  25.740   1.810
39430W        W11013  23.161  16.305   4.073
39431W        W11014   5.619  22.128   2.262
39432W        W11015  34.118  43.396   3.694
39433W        W11016   6.284  17.979  12.590
39434W        W11017   8.828  25.173  13.829
39435W        W11018  26.675  17.489  11.507
39436W        W11019  10.106  21.682  14.085
39437W        W11020   1.770  12.354  11.477
39438W        W11021  30.132  41.025   3.881
39439W        W11022  31.866  27.944   0.158
39440W        W11023   3.149  26.317   4.998
39441W        W11024  23.518   1.680  11.112
39442W        W11025   1.811  21.571  12.614
39443W        W11026   0.637  15.541  11.122
39444W        W11027  12.798  39.331   3.483
39445W        W11028  12.941  43.549  13.005
39446W        W11029  30.702  22.995   0.408
39447W        W11030   5.335  40.593   2.644
39448W        W11031  11.914  41.795   0.311
39449W        W11032  41.111  29.027   1.441
39450W        W11033   3.253  16.214  11.228
39451W        W11034  43.871  27.142   3.665
39452W        W11035  32.542  19.707   4.563
39453W        W11036   3.292  30.588  14.922
39454W        W11037  35.348  10.274   2.803
39455W        W11038  33.215   9.697  13.947
39456W        W11039  22.476  32.008   2.299
39457W        W11040  10.689   9.646  10.735
39458W        W11041  44.157  23.678  13.401
39459W        W11042   9.235  30.138   1.848
39460W        W11043   5.273  22.471  11.980
39461W        W11044  33.064  43.414   1.456
39462W        W11045  14.537   2.446   2.022
39463W        W11046  14.876  42.818   1.375
39464W        W11047   2.517  38.051  13.069
39465W        W11048  19.846   2.247  12.956
39466W        W11049  19.444  22.957  11.197
39467W        W11050  32.510  16.322  12.196
39468W        W11051  33.962  29.803   3.727
39469W        W11052  36.326   8.669   3.759
39470W        W11053  33.576  14.056   1.742
39471W        W11054  21.072  18.949   3.605
39472W        W11055   5.746  34.517   0.392
39473W        W11056  41.413  10.558  12.091
39474W        W11057  41.977   9.815   4.630
39475W        W11058   6.438  27.177  12.015
39476W        W11059  28.090  14.164  12.575
39477W        W11060   2.558   0.448  12.351
39478W        W11061  36.033  24.981  14.561
39479W        W11062  23.787  43.772  13.928
39480W        W11063  34.452  42.027   4.585
39481W        W11064  37.630  14.729   3.823
39482W        W11065  32.448  11.422  12.027
39483W        W11066   8.798  29.016   2.173
39484W        W11067  43.038  30.479  11.640
39485W        W11068   5.996  34.285  13.955
39486W        W11069  25.664  32.546  14.841
39487W        W11070  34.624  16.356   2.352
39488W        W11071   4.770  10.211   1.246
39489W        W11072  11.099  19.534  12.068
39490W        W11073  27.180  26.574   2.815
39491W        W11074  36.047  20.722   0.724
39492W        W11075  11.824  10.263   0.821
39493W        W11076  31.452   2.912  11.093
39494W        W11077  29.082  19.319  13.718
39495W        W11078  18.057   6.169   2.354
39496W        W11079  19.831  32.615  12.478
39497W        W11080  33.271   0.375  11.624
39498W        W11081   2.943   8.715  11.033
39499W        W11082  37.494   4.667   4.572
39500W        W11083  33.356  14.717   1.776
39501W        W11084  42.377  38.917  11.208
39502W        W11085  32.911  11.198  11.436
39503W        W11086  13.036   7.870   3.348
39504W        W11087  17.973  44.412  14.357
39505W        W11088   1.070   2.256   0.732
39506W        W11089  19.314  10.336   3.329
39507W        W11090  18.080  28.160  14.501
39508W        W11091  24.169   7.306   3.170
39509W        W11092  31.669   4.337  11.621
39510W        W11093  44.519  34.972   2.356
39511W        W11094   4.039  20.089  11.971
39512W        W11095  31.075  36.837  13.303
39513W        W11096  13.837  38.429   2.746
39514W        W11097  20.125   3.576   0.393
39515W        W11098  28.947  20.114   0.309
39516W        W11099  24.493   6.161  11.404
39517W        W11100  26.843  32.620   2.401
39518W        W11101  11.650   7.802  11.457
39519W        W11102  22.550  33.480  11.570
39520W        W11103   2.442  11.136   1.446
39521W        W11104  29.111  10.647   2.431
39522W        W11105  34.898   2.926  11.493
39523W        W11106  37.191  22.014  14.801
39524W        W11107   7.364  23.574   2.369
39525W        W11108  33.077  43.182   0.998
39526W        W11109  13.688  36.154  12.372
39527W        W11110  14.598  26.730  12.285
39528W        W11111  32.816  19.144  10.145
39529W        W11112  27.326  13.124  14.951
39530W        W11113  13.159   1.238  12.164
39531W        W11114  15.486  33.998   1.687
39532W        W11115  29.365  14.488  12.143
39533W        W11116  44.789  36.674  14.097
39534W        W11117  24.353  12.413  12.995
39535W        W11118   2.414  30.514   3.359
39536W        W11119  36.481  39.315   3.864
39537W        W11120  44.777   9.009  11.001
39538W        W11121   1.499   2.095  14.023
39539W        W11122  36.180   2.391   3.386
39540W        W11123  42.700  16.424   4.229
39541W        W11124  29.131   4.046   0.617
39542W        W11125  22.016  25.633  10.702
39543W        W11126  25.145  36.831  10.957
39544W        W11127  18.608   7.385   3.358
39545W        W11128  29.201  20.506   3.669
39546W        W11129   0.386  10.127  13.267
39547W        W11130  36.522  19.455   3.646
39548W        W11131  29.767  22.765  10.639
39549W        W11132   2.324  20.792  12.320
39550W        W11133  38.403   6.796  11.991
39551W        W11134  26.600   2.365  10.708
39552W        W11135   4.711   1.872  11.198
39553W        W11136  28.501  18.743  14.346
39554W        W11137   5.374  36.501   1.106
39555W        W11138  39.004  13.094  11.187
39556W        W11139  19.584  26.629   3.862
39557W        W11140  15.201  41.218  10.721
39558W        W11141  39.296  23.022  10.723
39559W        W11142  17.645   2.761  11.576
39560W        W11143  28.606   1.139   2.322
39561W        W11144  29.109  10.301  14.330
39562W        W11145  14.894  12.331   0.375
39563W        W11146  20.585  21.960  12.504
39564W        W11147  42.292  28.458   0.818
39565W        W11148  11.366  19.628   4.924
39566W        W11149  16.011  18.121  13.319
39567W        W11150   5.971  11.123  11.030
39568W        W11151  41.277   7.077   0.287
39569W        W11152  10.320  41.440  12.960
39570W        W11153  28.009  15.824   0.450
39571W        W11154  17.624  27.834  11.158
39572W        W11155  26.749  33.722  11.830
39573W        W11156  42.860  32.462  13.558
39574W        W11157  24.492   4.900   1.704
39575W        W11158  32.910  10.475  14.848
39576W        W11159   4.176  10.038  10.713
39577W        W11160  11.761  16.277   3.124
39578W        W11161  39.308  16.280  12.958
39579W        W11162   2.685  20.141   4.683
39580W        W11163  32.664   3.293  13.518
39581W        W11164  28.910  28.908   4.871
39582W        W11165  32.099   8.060  13.376
39583W        W11166  35.630  37.844   1.274
39584W        W11167  13.141  25.503  14.830
39585W        W11168   7.759  17.143  14.324
39586W        W11169  35.262  19.816  14.865
39587W        W11170  32.436   6.746   0.358
39588W        W11171   2.144  43.886  14.450
39589W        W11172   7.765  42.298   0.984
39590W        W11173  15.506   7.634   1.737
39591W        W11174  10.072   1.396  13.909
39592W        W11175  41.733  40.065  12.581
39593W        W11176  42.334   9.160   2.307
39594W        W11177  25.292  19.575   1.334
39595W        W11178  16.725  36.863   1.790
39596W        W11179  23.884  18.853   4.235
39597W        W11180   0.562  39.902   2.574
39598W        W11181   9.572  42.395   0.509
39599W        W11182  20.103   2.347  13.392
39600W        W11183  28.040   0.904   1.383
39601W        W11184   1.276  23.670   0.206
39602W        W11185  37.408  38.901  11.179
39603W        W11186   7.253  22.683  12.637
39604W        W11187  13.020   5.638   1.342
39605W        W11188  24.230  29.184  10.721
39606W        W11189  29.958  22.993   0.950
39607W        W11190  32.947   6.743   3.331
39608W        W11191  32.853  19.177  14.801
39609W        W11192  30.643   7.930  14.528
39610W        W11193  24.986  19.275  13.032
39611W        W11194  44.423  33.181   0.851
39612W        W11195  32.431  19.204  11.119
39613W        W11196  17.848   2.001   3.921
39614W        W11197  10.106  10.178  14.525
39615W        W11198  42.647  18.920   2.870
39616W        W11199  17.873  29.111   4.098
39617W        W11200  39.871   4.291  14.934
39618W        W11201   8.287  43.468   3.360
39619W        W11202  15.768  44.425  12.541
39620W        W11203  12.982  39.019  10.642
39621W        W11204  44.614  38.152  11.131
39622W        W11205  29.436  10.400  12.175
39623W        W11206   3.764   7.250  14.973
39624W        W11207   5.405  13.721   4.890
39625W        W11208   6.138  42.359  14.985
39626W        W11209  13.476  19.273   0.388
39627W        W11210  18.564  24.309   2.943
39628W        W11211  27.416  20.537   2.362
39629W        W11212  10.456  14.537  12.579
39630W        W11213  20.057  19.038  14.984
39631W        W11214  17.163  15.541  11.112
39632W        W11215  30.549  19.195  13.805
39633W        W11216  44.967  42.230   3.715
39634W        W11217   6.078  21.707   0.892
39635W        W11218   6.193   8.180  11.542
39636W        W11219  27.015  20.102  12.784
39637W        W11220  33.594  26.478   1.730
39638W        W11221   4.431  34.632  11.981
39639W        W11222  16.424  18.542  11.189
39640W        W11223  24.148   6.659   2.368
39641W        W11224  23.598  12.652  14.025
39642W        W11225   3.497  10.156   1.713
39643W        W11226  39.429   1.086   2.131
39644W        W11227   2.815  24.026   1.929
39645W        W11228  15.223  21.575  11.178
39646W        W11229  13.357  33.731  10.720
39647W        W11230  21.022  15.615   3.629
39648W        W11231  25.453  31.580   0.710
39649W        W11232  13.872  30.618  13.995
39650W        W11233  27.725  32.698   3.734
39651W        W11234  24.481  23.084   3.271
39652W        W11235   1.346  29.082   0.447
39653W        W11236  20.036   9.629  12.352
39654W        W11237  19.631  33.036  14.902
39655W        W11238  41.711  31.924  13.352
39656W        W11239  22.080  13.224  10.867
39657W        W11240  22.210  42.251  12.031
39658W        W11241   4.475  27.190  12.055
39659W        W11242  28.597  26.152   0.731
39660W        W11243  11.122  37.436   3.607
39661W        W11244  17.477  39.544   4.210
39662W        W11245  42.214  37.182   0.411
39663W        W11246  35.367   1.691   0.790
39664W        W11247  41.120  34.337  13.317
39665W        W11248  32.182  11.168   3.741
39666W        W11249  17.779  41.660  13.000
39667W        W11250  24.121  44.008   0.834
39668W        W11251  15.379  33.198   3.367
39669W        W11252  44.534  15.548   4.302
39670W        W11253  16.627  36.662   2.816
39671W        W11254  41.653   1.599  12.581
39672W        W11255  28.040  43.896   1.903
39673W        W11256  35.036  23.646   3.635
39674W        W11257  30.571  32.164   5.007
39675W        W11258   3.824  29.025   2.300
39676W        W11259  25.068  40.357  14.928
39677W        W11260  26.728  37.429   2.763
39678W        W11261   2.675  12.808  12.442
39679W        W11262  42.935  36.616  11.525
39680W        W11263  13.447  28.266  10.633
39681W        W11264  28.665  12.129  11.113
39682W        W11265  43.814  31.476   2.725
39683W        W11266  41.493   7.166  14.811
39684W        W11267  20.329  29.112   4.235
39685W        W11268  30.507  14.605   1.301
39686W        W11269  15.330  37.613   3.097
39687W        W11270  41.486  32.557   2.697
39688W        W11271  33.095  27.678   1.626
39689W        W11272  41.529  15.327   1.170
39690W        W11273   5.951  25.995   0.830
39691W        W11274   5.784  17.812  12.555
39692W        W11275  41.016  26.622   4.359
39693W        W11276   6.351  37.280  11.355
39694W        W11277   9.720  18.389  14.969
39695W        W11278  33.154  27.168   1.975
39696W        W11279  26.234  13.602  11.498
39697W        W11280  21.145  23.082   2.616
39698W        W11281  23.131   2.979  11.021
39699W        W11282   3.235  29.277  12.996
39700W        W11283   9.140  29.572  10.692
39701W        W11284  42.485  25.579  13.421
39702W        W11285  16.778  16.694  11.122
39703W        W11286  19.150  35.605   2.356
39704W        W11287  23.564  22.004  11.031
39705W        W11288  44.177  41.332  10.648
39706W        W11289  31.460  20.993   2.871
39707W        W11290  32.008  22.541   4.164
39708W        W11291  18.813  29.726  13.026
39709W        W11292   7.610  25.931   2.793
39710W        W11293  39.272  20.285  12.663
39711W        W11294  14.382  27.343   2.617
39712W        W11295   4.927  18.324  10.752
39713W        W11296  36.839   9.159  11.572
39714W        W11297  14.314  13.201  14.399
39715W        W11298  32.590   1.533  14.296
39716W        W11299  32.910  36.113   2.909
39717W        W11300  29.153  32.997   0.012
39718W        W11301  24.232  39.134   1.937
39719W        W11302   6.619  44.487   2.141
39720W        W11303  18.808   5.613  13.910
39721W        W11304  40.616  34.226  14.522
39722W        W11305  44.729  34.806   1.926
39723W        W11306   4.402  18.390   1.156
39724W        W11307  28.562   9.310   0.507
39725W        W11308   8.624  38.551   4.087
39726W        W11309  40.459   9.810  13.828
39727W        W11310   0.257   2.549  12.674
39728W        W11311  25.987  32.096   3.770
39729W        W11312  22.664   5.004   1.712
39730W        W11313  15.772  35.213  10.646
39731W        W11314  16.390  37.774   9.652
39732W        W11315   5.986  30.666  13.332
39733W        W11316  19.647  42.865  10.483
39734W        W11317  14.998  16.620  13.266
39735W        W11318  44.727   3.250   0.275
39736W        W11319  16.526   1.800   2.809
39737W        W11320  20.163  38.904  13.083
39738W        W11321  25.469   6.245  13.439
39739W        W11322   4.816  16.520  11.781
39740W        W11323  37.265   3.674   2.742
39741W        W11324  28.668  44.796   1.781
39742W        W11325  16.980   3.202   2.859
39743W        W11326   0.275  28.838  13.450
39744W        W11327   6.440   6.337  11.127
39745W        W11328  26.589  34.040   4.659
39746W        W11329  24.392  26.099   4.769
39747W        W11330  10.353  13.344   1.621
39748W        W11331  26.074  28.136   4.585
39749W        W11332  19.163   2.356   4.883
39750W        W11333  31.095  42.543  12.366
39751W        W11334   5.678   2.052  12.714
39752W        W11335  16.320  43.747  14.373
39753W        W11336  29.478  34.665   4.779
39754W        W11337  44.005   9.462   1.736
39755W        W11338  37.203  17.190  11.910
39756W        W11339   2.339  32.641   4.567
39757W        W11340  37.108  37.021   4.677
39758W        W11341  14.750  21.704  11.432
39759W        W11342  29.273  39.507  12.322
39760W        W11343  43.381  14.751  13.990
39761W        W11344  24.239  14.196  12.446
39762W        W11345  17.320  40.505   3.728
39763W        W11346  15.823  11.669   2.290
39764W        W11347   3.301  25.655   4.169
39765W        W11348  37.312  39.562   2.740
39766W        W11349  29.973  17.235  11.132
39767W        W11350   5.986  20.972   3.628
39768W        W11351  27.216  32.967  12.797
39769W        W11352   0.396  23.495  12.860
39770W        W11353  38.650   8.230   0.295
39771W        W11354  39.689  30.235  12.993
39772W        W11355  27.298  42.255  12.533
39773W        W11356  28.621  32.573  14.433
39774W        W11357  19.213  22.226   4.263
39775W        W11358  29.418  28.708   1.765
39776W        W11359  18.993   7.796   4.160
39777W        W11360  31.629  33.598  13.850
39778W        W11361  25.982  18.740   2.613
39779W        W11362   7.886  20.552   4.448
39780W        W11363  38.466   1.712  12.123
39781W        W11364   6.782   4.800   1.866
39782W        W11365  22.314   6.836  10.140
39783W        W11366  32.668  39.478   3.276
39784W        W11367  13.804  21.117  10.629
39785W        W11368  20.140  27.405  11.623
39786W        W11369  22.436  13.564  11.558
39787W        W11370   5.932   2.975  14.405
39788W        W11371   4.844  38.283   1.383
39789W        W11372  15.609   9.446  13.327
39790W        W11373  42.105  26.211   4.616
39791W        W11374  37.369  44.165   0.864
39792W        W11375   3.357   2.470  12.577
39793W        W11376   2.865  17.291  14.502
39794W        W11377  42.193  27.972  12.720
39795W        W11378  24.137  23.988   3.280
39796W        W11379  22.275   8.794   4.567
39797W        W11380  26.183  43.957  12.049
39798W        W11381   8.143  18.604   0.025
39799W        W11382  44.219  42.917   2.417
39800W        W11383   2.118   3.883  14.731
39801W        W11384   0.891  35.602  14.124
39802W        W11385   7.622  44.394  11.986
39803W        W11386  14.588  42.918   2.672
39804W        W11387  17.835  37.254   0.781
39805W        W11388   2.125  21.721  13.425
39806W        W11389  44.995  28.559  12.003
39807W        W11390   0.732  23.576   2.836
39808W        W11391  19.182  36.918   3.697
39809W        W11392  31.338  17.481   2.494
39810W        W11393  32.357  27.051  14.845
39811W        W11394  22.484  13.074   3.732
39812W        W11395  33.457  28.091   2.243
39813W        W11396  22.875   1.639   1.845
39814W        W11397  40.908  15.284   0.554
39815W        W11398  44.511  43.396   4.668
39816W        W11399   7.835  24.744   2.433
39817W        W11400  30.004  30.034   0.813
39818W        W11401  18.335  22.632   4.578
39819W        W11402  35.826  35.330   0.799
39820W        W11403  15.867  30.158  13.405
39821W        W11404  13.528  34.231  10.651
39822W        W11405  15.255  23.078   0.707
39823W        W11406  38.779   8.412   4.728
39824W        W11407  33.434  24.271   0.730
39825W        W11408   3.847   7.610   1.223
39826W        W11409   2.157  10.307   1.387
39827W        W11410  39.808   8.746  14.883
39828W        W11411  39.328  22.288   4.614
39829W        W11412   9.857  41.340  11.443
39830W        W11413  13.246  33.152  13.078
39831W        W11414  30.373  37.931  12.166
39832W        W11415  37.526  31.864   4.393
39833W        W11416  38.288  39.802   0.958
39834W        W11417  30.536  37.407  12.940
39835W        W11418  20.826  12.803  13.842
39836W        W11419  12.295  19.372  10.683
39837W        W11420  44.672  28.784  13.964
39838W        W11421   7.753   3.951  10.777
39839W        W11422  10.213  26.772   1.747
39840W        W11423  11.892  17.752  13.243
39841W        W11424  41.198  36.316  10.735
39842W        W11425  39.943  27.561  13.920
39843W        W11426  23.477   8.334  14.263
39844W        W11427  11.333  24.248  14.386
39845W        W11428  13.709  20.219  12.852
39846W        W11429  22.037   2.000   0.367
39847W        W11430  23.095   3.912   2.656
39848W        W11431  11.809  17.657  13.758
39849W        W11432   8.688  20.073   0.819
39850W        W11433   4.267  27.672  13.275
39851W        W11434   1.940  41.907   3.176
39852W        W11435  10.623  15.682   3.175
39853W        W11436  25.240   4.397  11.445
39854W        W11437  24.090  44.211  14.004
39855W        W11438   5.930  40.482  12.778
39856W        W11439  26.691   8.747   3.882
39857W        W11440  29.569   9.381   0.535
39858W        W11441  20.990   1.680  13.986
39859W        W11442  33.410  24.562   3.211
39860W        W11443  37.050  15.263  14.079
39861W        W11444  26.217  40.582   0.365
39862W        W11445  38.716  10.740  12.674
39863W        W11446  22.938  38.370   1.926
39864W        W11447   5.368   0.751   3.617
39865W        W11448   6.343  11.595  10.641
39866W        W11449  41.087  37.302   4.005
39867W        W11450  21.230   1.455  11.275
39868W        W11451  32.479   1.203  13.922
39869W        W11452  17.426   0.518  11.591
39870W        W11453  36.992  24.934  11.948
39871W        W11454  23.467  24.522   4.386
39872W        W11455  22.536  19.962   1.065
39873W        W11456  22.436   3.502   2.077
39874W        W11457  36.064   9.311   3.124
39875W        W11458   0.471  28.815  11.437
39876W        W11459  44.857  12.390  14.887
39877W        W11460  17.258  13.373  10.398
39878W        W11461   8.688  43.124   3.244
39879W        W11462  44.877  30.890   0.911
39880W        W11463  40.977  13.196  11.937
39881W        W11464  25.413   8.889  11.197
39882W        W11465  33.621  31.138   3.783
39883W        W11466   2.228  32.218  10.331
39884W        W11467  19.660  24.472   3.132
39885W        W11468  20.068   3.389   2.748
39886W        W11469  40.828  20.101  14.615
39887W        W11470  31.111  40.701   2.652
39888W        W11471  11.448   4.787   2.229
39889W        W11472  22.985   5.411   1.717
39890W        W11473   2.554  30.116  12.175
39891W        W11474  22.129  17.798   1.641
39892W        W11475  41.174   9.274   0.790
39893W        W11476  21.474   3.672   0.531
39894W        W11477   0.824  21.245  11.489
39895W        W11478  28.534   7.626  11.334
39896W        W11479  33.147  27.907   0.369
39897W        W11480  35.164  44.332   4.520
39898W        W11481  38.241  38.624  12.420
39899W        W11482  24.188   1.474  14.374
39900W        W11483  22.189  38.494   3.636
39901W        W11484   3.688   1.378  14.509
39902W        W11485   9.690  38.193   0.101
39903W        W11486   9.547  44.905   1.356
39904W        W11487  13.332  22.271   2.307
39905W        W11488  42.281  37.293   1.255
39906W        W11489  31.419  27.951   1.468
39907W        W11490  35.462   7.354   4.959
39908W        W11491  18.275  38.934   0.566
39909W        W11492  33.128   1.883   4.639
39910W        W11493  16.548  14.961   1.818
39911W        W11494  20.544   3.003  13.894
39912W        W11495  13.050  44.851  12.825
39913W        W11496  24.759   5.578  14.661
39914W        W11497   6.747  20.652   2.064
39915W        W11498  39.088  26.209  12.069
39916W        W11499   3.020  44.834  13.037
39917W        W11500   9.821  29.253  10.514
39918W        W11501   8.404  39.604  14.421
39919W        W11502   9.696  41.105   3.191
39920W        W11503  12.145  32.183   4.175
39921W        W11504  21.064  26.013   0.853
39922W        W11505  29.162  30.152  14.917
39923W        W11506  11.710  42.144   3.231
39924W        W11507  43.497   8.840  10.320
39925W        W11508  43.837  28.096  12.401
39926W        W11509  36.515   1.895  12.111
39927W        W11510  39.243   4.327   1.773
39928W        W11511  20.154   5.460  14.839
39929W        W11512   9.926  42.777  14.446
39930W        W11513  12.678  28.947   4.194
39931W        W11514   5.977   6.809   2.378
39932W        W11515  20.957   5.566  14.506
39933W        W11516  36.312   4.189   2.844
39934W        W11517  12.349   1.215  11.184
39935W        W11518  38.063  41.380  13.564
39936W        W11519  18.767  10.975  14.430
39937W        W11520   6.997  14.888  12.436
39938W        W11521  28.973  19.570  12.861
39939W        W11522   1.440  30.549  11.900
39940W        W11523  22.499  43.440   3.297
39941W        W11524  31.121   9.442   4.073
39942W        W11525  33.496  10.717   4.858
39943W        W11526  42.377  17.116  13.974
39944W        W11527  29.925  35.445   4.315
39945W        W11528  11.246   0.657  11.025
39946W        W11529  16.205  17.884  13.920
39947W        W11530   6.440   1.401  11.462
39948W        W11531   1.689  38.235  12.872
39949W        W11532  21.124   5.873  10.478
39950W        W11533  30.936  31.082  13.028
39951W        W11534   2.326  41.535  13.340
39952W        W11535   7.925  36.734  14.343
39953W        W11536  19.753   6.298  10.731
39954W        W11537   2.726  14.895  13.111
39955W        W11538  10.421   3.128   0.456
39956W        W11539  15.601  30.466   0.673
39957W        W11540  36.407   8.783   2.606
39958W        W11541  33.713  19.064  11.220
39959W        W11542  35.396   8.183   4.288
39960W        W11543  20.645  20.461   3.259
39961W        W11544   9.167  33.720  13.984
39962W        W11545  14.850  41.449  14.669
39963W        W11546  36.826   0.567  14.929
39964W        W11547  11.313  38.472  14.221
39965W        W11548  23.079  32.424  11.580
39966W        W11549  23.085   2.654   4.583
39967W        W11550  40.733  39.405   1.212
39968W        W11551  18.325  24.025   0.412
39969W        W11552   9.424  43.287  13.087
39970W        W11553  24.801   0.663  13.079
39971W        W11554  39.790  29.698  12.961
39972W        W11555  21.978   6.213   1.722
39973W        W11556  41.253  34.947  14.437
39974W        W11557  23.454  20.397  11.232
39975W        W11558  30.561  39.609  14.821
39976W        W11559   6.786   8.627  11.981
39977W        W11560  16.618  27.936  14.219
39978W        W11561  43.456  22.696   3.843
39979W        W11562  30.770  31.395  11.142
39980W        W11563  30.481  19.035  13.293
39981W        W11564  38.285  43.224   1.966
39982W        W11565  20.784  40.818   0.710
39983W        W11566  24.156  11.736  14.082
39984W        W11567  16.544  10.467  11.576
39985W        W11568  23.252  33.574   1.735
39986W        W11569  41.568  23.294   0.973
39987W        W11570  39.603  17.689  12.908
39988W        W11571  15.677   3.599   1.010
39989W        W11572  33.912  43.588  12.869
39990W        W11573   4.661  28.968   2.816
39991W        W11574   7.616  27.475   4.042
39992W        W11575  21.114  25.600   1.167
39993W        W11576  22.341   5.271  11.605
39994W        W11577  32.620  20.030   2.164
39995W        W11578   6.738   6.448  12.851
39996W        W11579  33.203  28.022  13.501
39997W        W11580   1.057  22.305  11.056
39998W        W11581  38.268  22.763   0.567
39999W        W11582  23.396  25.557  11.695
40000W        W11583  11.366  23.641  12.041
40001W        W11584  24.723  25.129   2.175
40002W        W11585  19.839   9.786   0.388
40003W        W11586   2.347  28.424   2.866
40004W        W11587  27.797  19.747   3.611
40005W        W11588   8.094  23.521  11.633
40006W        W11589  29.901  43.056   3.723
40007W        W11590  39.086  29.039  11.990
40008W        W11591  24.110  35.200   2.380
40009W        W11592  21.665  27.188  13.575
40010W        W11593  41.154  36.393   3.021
40011W        W11594  13.265  44.486  13.344
40012W        W11595  29.962  43.533   4.523
40013W        W11596  26.970  31.885  14.814
40014W        W11597  34.106  16.679  14.782
40015W        W11598  19.032  12.176  10.689
40016W        W11599   8.955   4.356  13.844
40017W        W11600   1.780   8.160  14.735
40018W        W11601  37.822   3.007  13.927
40019W        W11602  27.340  29.934  11.174
40020W        W11603  21.571  44.497   4.034
40021W        W11604  28.872  36.026   1.785
40022W        W11605  23.953  44.059  11.635
40023W        W11606   7.299  13.621   3.840
40024W        W11607  21.543  28.228  13.495
40025W        W11608  22.287  15.746  14.705
40026W        W11609  24.053   5.183  11.520
40027W        W11610  15.590  22.365  11.611
40028W        W11611  44.723  29.291  14.098
40029W        W11612  11.092  34.857   0.403
40030W        W11613  30.363  23.694   1.591
40031W        W11614  10.989  19.678   1.498
40032W        W11615  36.971  36.012   1.746
40033W        W11616   7.387  25.148  13.367
40034W        W11617  44.943  34.680  10.580
40035W        W11618  19.204  31.919   4.002
40036W        W11619  15.252  21.560   2.102
40037W        W11620  32.384  19.603   1.365
40038W        W11621   7.414   7.399  12.630
40039W        W11622  25.531  17.252  14.919
40040W        W11623  38.326  11.043   3.039
40041W        W11624  32.401  16.155   0.512
40042W        W11625  32.566  21.463  14.750
40043W        W11626  29.572  31.167  14.464
40044W        W11627  43.543   6.510  13.123
40045W        W11628  29.161  36.485   2.800
40046W        W11629  10.367  36.822  11.518
40047W        W11630  37.362  43.880   2.755
40048W        W11631  29.903  25.086  14.052
40049W        W11632   2.619  21.699  12.032
40050W        W11633  36.939  23.630   3.903
40051W        W11634   4.240  41.473  12.453
40052W        W11635  15.419   1.689   3.772
40053W        W11636  12.125  24.698   1.311
40054W        W11637  39.169  42.016  11.550
40055W        W11638  27.123  19.596  12.035
40056W        W11639   9.751  21.580  11.048
40057W        W11640  22.937  15.658  11.914
40058W        W11641   0.914  44.442  14.778
40059W        W11642  21.180  41.364   9.718
40060W        W11643   7.705  43.922   4.017
40061W        W11644  29.189   9.628   4.649
40062W        W11645  36.074  42.907   3.320
40063W        W11646  42.629  24.602   2.178
40064W        W11647  43.555  27.297  14.777
40065W        W11648  33.957  11.115   0.485
40066W        W11649  18.276  40.505   3.722
40067W        W11650   0.757  42.044  11.760
40068W        W11651   5.197  39.444  12.086
40069W        W11652  22.171  44.443   2.689
40070W        W11653  41.447  29.504  14.012
40071W        W11654  35.646  44.862   1.988
40072W        W11655  16.872   4.619  11.964
40073W        W11656   4.189   8.800  11.641
40074W        W11657  42.082  24.030   4.555
40075W        W11658  44.802  16.123   2.224
40076W        W11659   7.253   2.312   2.363
40077W        W11660  34.567  24.542   1.195
40078W        W11661  35.192  39.403   3.295
40079W        W11662   1.529  43.254   3.897
40080W        W11663  32.657  22.587   2.312
40081W        W11664  29.193  32.890   3.036
40082W        W11665  42.446  22.466   0.327
40083W        W11666  32.346  28.446  12.059
40084W        W11667  36.102  16.788   2.178
40085W        W11668  10.929  40.913   3.581
40086W        W11669  37.026  10.592   3.330
40087W        W11670  36.496   8.557  14.996
40088W        W11671  20.991  15.432  14.486
40089W        W11672  39.094  20.957   2.103
40090W        W11673  14.730   8.664   3.731
40091W        W11674  27.285  40.451   4.934
40092W        W11675  30.662  25.703   1.780
40093W        W11676  43.533  35.566  12.982
40094W        W11677  32.526  25.040  11.190
40095W        W11678  27.849  15.392  11.485
40096W        W11679   4.225   6.866   4.736
40097W        W11680  30.943  42.971  12.067
40098W        W11681  35.083  28.291  11.238
40099W        W11682  21.289  27.907  10.535
40100W        W11683  29.260  30.965   4.383
40101W        W11684  31.641   7.789  13.439
40102W        W11685  38.170  40.032   1.921
40103W        W11686  14.993  35.317   5.032
40104W        W11687   7.298  12.696  11.116
40105W        W11688  33.614  11.698   2.655
40106W        W11689  21.145  14.731  11.135
40107W        W11690  17.873  40.863   0.924
40108W        W11691  34.020   5.484  14.910
40109W        W11692  10.653   6.974  11.925
40110W        W11693  25.202   1.905   2.661
40111W        W11694  26.000   9.697   1.347
40112W        W11695  19.021  26.338  10.664
40113W        W11696   4.716  30.265   4.121
40114W        W11697  40.484  22.148   1.881
40115W        W11698  30.025  30.534   3.763
40116W        W11699  26.504   0.777   4.041
40117W        W11700  11.131   7.222   2.003
40118W        W11701  12.861  12.647   4.654
40119W        W11702  20.288  34.280   1.857
40120W        W11703  20.611  11.639   3.560
40121W        W11704   5.515  16.420  12.425
40122W        W11705  24.111   0.408   2.867
40123W        W11706  15.796  23.469   3.602
40124W        W11707  33.136  38.626  14.845
40125W        W11708   5.456  21.032  14.029
40126W        W11709  22.253  43.039   0.577
40127W        W11710  33.737  25.955  12.156
40128W        W11711  26.627  10.332  13.914
40129W        W11712  37.138  21.296   3.226
40130W        W11713  35.966  18.170  14.230
40131W        W11714  43.259  32.682  12.039
40132W        W11715   9.662   3.963  11.515
40133W        W11716   8.742   1.570  11.107
40134W        W11717  19.302  17.979   0.415
40135W        W11718   8.017  15.139  12.438
40136W        W11719  16.297  22.862   2.801
40137W        W11720  24.244  38.308  14.421
40138W        W11721  21.137  40.824  12.608
40139W        W11722  42.982   2.495   2.756
40140W        W11723   5.131  26.552  14.323
40141W        W11724  14.189  20.582  12.609
40142W        W11725  37.073  15.552   3.694
40143W        W11726  14.884  38.032  12.840
40144W        W11727  10.560  16.576   3.083
40145W        W11728  34.012   3.210  14.084
40146W        W11729   5.370  27.956   0.403
40147W        W11730  22.980  43.390  12.969
40148W        W11731  34.017   3.506   2.542
40149W        W11732   1.825  18.347   2.480
40150W        W11733  12.002   7.598   2.764
40151W        W11734  38.922   7.626   1.694
40152W        W11735  42.823  12.950  11.783
40153W        W11736  20.513   8.725  14.436
40154W        W11737   8.885  28.887  12.307
40155W        W11738   3.432   1.295   5.093
40156W        W11739   8.430  44.266   1.860
40157W        W11740  43.072  10.092  13.100
40158W        W11741  39.108  33.924  10.068
40159W        W11742  38.563  37.959  11.196
40160W        W11743  17.662  20.502   2.696
40161W        W11744  20.046   8.689  13.297
40162W        W11745  10.712   8.913   0.198
40163W        W11746   7.702  42.800  10.649
40164W        W11747  24.515  25.070   2.643
40165W        W11748  42.334   8.107  14.686
40166W        W11749  42.134  12.055  13.964
40167W        W11750  35.761  20.038  11.157
40168W        W11751  17.098  41.793   2.773
40169W        W11752   2.797   2.066  11.011
40170W        W11753  18.054  11.031  10.774
40171W        W11754  30.699   1.895  13.966
40172W        W11755  28.153  39.893  12.102
40173W        W11756  19.261  42.929   4.431
40174W        W11757  16.680  13.651  12.029
40175W        W11758  41.025  15.239   1.078
40176W        W11759  35.606   5.174   4.059
40177W        W11760   5.887   1.991   4.578
40178W        W11761   6.731  23.573  11.299
40179W        W11762  22.082  44.076   1.975
40180W        W11763  14.790  18.136   1.343
40181W        W11764  25.716  21.016   2.627
40182W        W11765  43.974  25.204  11.571
40183W        W11766  31.952  12.613  12.401
40184W        W11767  27.919  18.714  12.558
40185W        W11768  12.176  25.468  11.918
40186W        W11769  34.956  30.329  14.422
40187W        W11770   1.285  19.768  10.649
40188W        W11771  20.741  35.537   4.257
40189W        W11772   7.457  24.181   4.789
40190W        W11773  33.980  31.172   4.182
40191W        W11774  30.530   4.644   3.141
40192W        W11775   2.895  37.961   4.831
40193W        W11776  41.905  21.733  11.562
40194W        W11777  28.869  19.132  10.617
40195W        W11778   3.421  32.141  13.678
40196W        W11779  37.336  22.097   0.725
40197W        W11780  28.017  43.444   0.761
40198W        W11781   7.864  20.730   1.924
40199W        W11782  26.643  30.480  13.560
40200W        W11783  39.512  39.082  14.947
40201W        W11784  16.866  26.505  12.985
40202W        W11785  22.694  15.340   1.804
40203W        W11786  20.980  34.618  12.636
40204W        W11787  14.647  14.322   2.744
40205W        W11788   0.739  23.304   4.610
40206W        W11789   0.334  13.799  14.937
40207W        W11790  20.332  42.926   0.932
40208W        W11791   0.993   8.307  13.855
40209W        W11792  28.111  43.359  14.360
40210W        W11793   9.159  24.965  12.994
40211W        W11794  19.887  22.548  10.783
40212W        W11795  17.960  34.833   4.585
40213W        W11796  15.698   5.306  11.502
40214W        W11797  10.883  38.054   4.843
40215W        W11798  20.163   1.804   4.585
40216W        W11799  27.960   3.919   4.625
40217W        W11800   1.350  34.180   4.715
40218W        W11801   5.778  13.645   2.463
40219W        W11802  20.889  44.724  11.581
40220W        W11803  11.318  20.496  14.812
40221W        W11804  43.009  24.603  12.118
40222W        W11805  44.256   0.793  13.460
40223W        W11806  25.373   3.885  11.586
40224W        W11807   7.682  23.765  13.539
40225W        W11808  20.916  34.537  10.793
40226W        W11809  42.579  35.905   1.447
40227W        W11810  20.071  12.690   1.878
40228W        W11811  22.220  31.126  12.586
40229W        W11812  16.596   0.800   2.411
40230W        W11813  29.640   5.212   2.263
40231W        W11814  23.932  43.995   1.702
40232W        W11815  17.578  43.854  12.357
40233W        W11816   9.112  12.288  10.977
40234W        W11817  12.307  19.756  11.514
40235W        W11818  20.327  18.595  14.917
40236W        W11819  39.464  30.469   2.946
40237W        W11820   3.167  39.944  12.922
40238W        W11821  44.031  41.295   2.313
40239W        W11822  25.584  38.905   2.821
40240W        W11823  10.363   0.226  10.214
40241W        W11824   9.752  36.306   3.443
40242W        W11825  42.849  11.094  12.517
40243W        W11826  11.715  24.569   0.289
40244W        W11827  38.446  13.307   3.238
40245W        W11828   2.903  30.563   3.197
40246W        W11829   5.121  21.318  14.815
40247W        W11830  41.215  43.405   1.756
40248W        W11831  36.679  19.870   4.602
40249W        W11832  12.380  41.348   1.641
40250W        W11833  40.314  24.257  12.059
40251W        W11834  10.678  39.768   2.311
40252W        W11835  41.831  34.372   0.455
40253W        W11836  12.414  14.321  14.393
40254W        W11837  24.612   9.253   1.507
40255W        W11838   5.335  30.975  13.811
40256W        W11839  11.633  13.898  11.970
40257W        W11840  37.091   3.875   1.780
40258W        W11841  33.492   6.095  11.917
40259W        W11842  20.765   9.820  13.931
40260W        W11843   9.174  31.136  11.539
40261W        W11844  20.028   5.739   1.697
40262W        W11845  15.704  24.516  11.346
40263W        W11846  33.517  39.919  12.456
40264W        W11847   1.058  42.846   0.131
40265W        W11848  23.678  17.726  12.414
40266W        W11849  10.683   5.838   0.721
40267W        W11850  29.333  30.796  14.787
40268W        W11851  21.157  29.585   4.186
40269W        W11852  42.583   9.797  12.470
40270W        W11853  36.028  10.213   0.733
40271W        W11854   8.295  34.334  13.979
40272W        W11855  12.741  41.316  14.437
40273W        W11856  42.596   0.373  14.788
40274W        W11857  12.323  23.574   2.714
40275W        W11858   1.881  37.073   1.806
40276W        W11859   2.303   2.642  11.391
40277W        W11860   1.649  15.666  12.959
40278W        W11861  34.852  35.132   2.890
40279W        W11862  22.506   4.433   0.887
40280W        W11863  24.137  38.839  14.847
40281W        W11864   8.675  23.580  13.499
40282W        W11865  42.880  43.218  13.002
40283W        W11866  19.622  29.613  11.533
40284W        W11867   8.069  29.248   5.059
40285W        W11868  24.991  15.251   3.239
40286W        W11869  13.088  21.187   4.608
40287W        W11870  34.643  21.201   2.954
40288W        W11871  18.802  30.009  11.844
40289W        W11872   5.625   7.300  12.843
40290W        W11873  20.619  25.842   4.507
40291W        W11874  17.226  20.246  14.904
40292W        W11875  39.467   9.087   0.080
40293W        W11876  33.332   1.821   0.882
40294W        W11877  16.524  44.514   3.419
40295W        W11878  18.126  43.289  10.932
40296W        W11879  30.975  32.492   4.870
40297W        W11880  18.227  21.991   4.206
40298W        W11881  13.234  28.806   3.518
40299W        W11882  25.512  13.156   3.918
40300W        W11883  14.622   9.911  12.007
40301W        W11884  40.893   8.998   4.095
40302W        W11885  25.619  14.031   1.378
40303W        W11886   4.138   5.241   2.298
40304W        W11887  41.463  28.518  10.613
40305W        W11888  30.686  14.385   0.726
40306W        W11889  29.600  25.565   3.707
40307W        W11890  18.060  12.758   4.383
40308W        W11891  15.664  14.570   1.977
40309W        W11892  26.028  20.212   3.117
40310W        W11893   0.501  36.830   2.321
40311W        W11894  17.082  16.008   0.914
40312W        W11895   1.752  28.455  12.658
40313W        W11896  15.802  43.997  10.677
40314W        W11897  20.228  22.713  14.477
40315W        W11898   5.718  20.624   3.191
40316W        W11899   3.680  26.565   2.758
40317W        W11900  43.466  30.834  12.446
40318W        W11901   9.417  28.701  11.087
40319W        W11902  35.914  31.094   2.808
40320W        W11903  11.531  19.120   3.593
40321W        W11904   3.431  39.604  13.847
40322W        W11905  29.904  43.478  13.056
40323W        W11906  32.950  23.534   4.729
40324W        W11907  27.833  26.696   4.804
40325W        W11908  23.659  15.366   0.213
40326W        W11909  25.219  41.659   0.491
40327W        W11910  26.771  42.392  12.523
40328W        W11911  32.018  32.399   4.584
40329W        W11912  32.955   7.830   4.288
40330W        W11913   4.841  33.350  13.398
40331W        W11914  16.211  25.110   2.225
40332W        W11915  32.234  18.825   0.381
40333W        W11916  30.588  39.424   0.839
40334W        W11917  24.165  19.498  12.508
40335W        W11918  38.746   4.830   1.722
40336W        W11919  22.625  18.589   9.686
40337W        W11920   1.956  35.124   2.632
40338W        W11921  19.657   9.684  14.915
40339W        W11922  13.023  13.828   2.380
40340W        W11923  22.978  24.739   2.803
40341W        W11924   1.782   3.547   4.482
40342W        W11925   1.315  10.794  13.864
40343W        W11926  16.749   7.723   1.885
40344W        W11927  40.292  38.750   0.477
40345W        W11928  26.961  40.774   0.528
40346W        W11929  15.691   1.388  11.656
40347W        W11930  12.483  21.745  13.072
40348W        W11931  24.980   7.274   2.125
40349W        W11932  28.148  26.403   2.092
40350W        W11933  22.802  26.743  14.962
40351W        W11934  23.796  37.922   3.398
40352W        W11935   8.857  28.240   2.837
40353W        W11936   7.491   4.426  11.528
40354W        W11937  36.465  23.682  12.008
40355W        W11938  41.781   2.452   1.282
40356W        W11939  29.518   8.607   4.650
40357W        W11940   5.639   6.352  10.786
40358W        W11941  23.481  14.778  13.910
40359W        W11942  31.371  11.678   2.720
40360W        W11943  33.742  21.957   4.826
40361W        W11944  40.984   5.414  14.061
40362W        W11945  40.070  10.657   4.633
40363W        W11946   7.801  36.280  12.344
40364W        W11947  38.046   7.681   4.212
40365W        W11948  15.967  18.262   3.145
40366W        W11949  13.627  41.063  13.286
40367W        W11950  12.133  22.108   2.533
40368W        W11951  20.724  33.917   2.722
40369W        W11952  33.137  40.026  12.104
40370W        W11953  13.318  13.624  13.504
40371W        W11954  24.560  31.610  13.447
40372W        W11955  39.950  27.821  11.566
40373W        W11956   4.036  24.187   3.904
40374W        W11957  14.455  21.063   1.781
40375W        W11958  30.881  18.693  12.401
40376W        W11959  42.292   7.231  11.110
40377W        W11960  25.601  38.243  11.129
40378W        W11961  10.645  27.073   1.863
40379W        W11962  34.931  33.833  13.565
40380W        W11963  15.206  41.292  12.998
40381W        W11964  32.687   3.778   1.015
40382W        W11965   0.930  12.647   2.607
40383W        W11966   7.420  43.991   0.910
40384W        W11967  30.954   8.629   1.349
40385W        W11968   3.318   6.882  14.245
40386W        W11969   4.790   2.369   5.004
40387W        W11970  26.175  25.636  11.640
40388W        W11971   3.422  27.208   1.848
40389W        W11972  29.602  35.608  11.103
40390W        W11973  10.715   7.480   2.915
40391W        W11974  27.954  10.776  12.535
40392W        W11975  42.168   3.205  12.053
40393W        W11976   3.709  29.260  11.126
40394W        W11977  28.839  41.276  11.152
40395W        W11978  19.125  10.314  13.896
40396W        W11979  21.977  21.206   1.298
40397W        W11980  11.987  19.589   2.291
40398W        W11981  26.151  15.123   4.723
40399W        W11982  36.904  41.844  11.362
40400W        W11983   5.651  19.019  12.050
40401W        W11984  37.015  16.596   3.692
40402W        W11985  26.480   3.793   4.065
40403W        W11986  41.232  27.878   0.673
40404W        W11987   4.665   2.781  14.304
40405W        W11988  38.738   8.297   3.385
40406W        W11989  41.056  40.276   2.420
40407W        W11990  39.477  15.288   1.746
40408W        W11991  41.317   8.390   4.654
40409W        W11992  20.054  38.799  14.139
40410W        W11993  26.648  44.331  10.645
40411W        W11994  17.087  34.565  10.982
40412W        W11995  22.426   2.304   1.359
40413W        W11996  41.775  12.230  11.175
40414W        W11997  44.280  31.034   4.019
40415W        W11998  10.331  30.678  13.039
40416W        W11999  28.856  15.283  11.615
40417W        W12000  15.696   1.974   0.529
40418W        W12001   3.784  27.058   0.809
40419W        W12002   1.897   7.852   4.554
40420W        W12003  21.648   6.849   4.533
40421W        W12004  40.819   5.256  13.086
40422W        W12005  43.457  40.455   2.390
40423W        W12006   4.119  10.386  10.335
40424W        W12007   7.751  29.010   3.766
40425W        W12008  20.309  17.608  12.793
40426W        W12009  24.183   0.854  10.424
40427W        W12010  29.209  22.600  14.049
40428W        W12011  12.319  14.084  12.561
40429W        W12012  38.969   8.906  14.372
40430W        W12013   5.813  13.224  11.925
40431W        W12014  13.708   0.936   1.272
40432W        W12015   5.588  27.381  14.178
40433W        W12016  39.824  17.563  11.516
40434W        W12017  44.246   6.588  12.511
40435W        W12018  41.322   4.800  10.730
40436W        W12019   3.084  12.587  10.987
40437W        W12020  30.425  42.764   0.128
40438W        W12021  23.551  24.937   3.616
40439W        W12022  24.928  43.832  11.465
40440W        W12023  22.856   6.991   1.677
40441W        W12024  35.893  11.938   1.826
40442W        W12025  39.800  25.159  10.886
40443W        W12026  36.280  37.412  11.542
40444W        W12027   3.865  38.094   4.397
40445W        W12028  34.479   2.489  12.708
40446W        W12029   4.374  17.983  12.412
40447W        W12030  38.669  14.195   3.241
40448W        W12031   2.184  19.904  10.716
40449W        W12032  24.572   5.486   3.822
40450W        W12033  23.741  12.457  13.570
40451W        W12034  28.214   8.982   0.300
40452W        W12035  15.795  11.639   4.538
40453W        W12036   4.692  12.961  10.186
40454W        W12037  30.174   5.197   2.202
40455W        W12038  25.276   0.248   4.144
40456W        W12039  18.115  23.607   0.646
40457W        W12040  35.530  38.552   0.592
40458W        W12041  37.941  34.683  11.507
40459W        W12042   6.252  12.141  14.797
40460W        W12043  34.969  42.086   2.730
40461W        W12044  40.149   0.725  11.963
40462W        W12045   6.159  15.102   1.493
40463W        W12046  35.488   6.394  10.736
40464W        W12047  20.872  21.905   0.439
40465W        W12048  33.898  39.471   1.287
40466W        W12049  23.166   5.275  11.521
40467W        W12050  38.080  30.887   0.439
40468W        W12051  29.029  20.511  10.303
40469W        W12052  28.159  32.873   2.417
40470W        W12053  36.267  14.457  13.774
40471W        W12054  24.216  33.458   1.827
40472W        W12055  21.671  20.070   2.737
40473W        W12056   1.236  22.918   4.107
40474W        W12057   9.696  36.141  12.548
40475W        W12058  29.121  29.693   2.728
40476W        W12059   2.231  38.374  14.577
40477W        W12060  35.597  36.983   4.305
40478W        W12061  40.876  22.860   2.483
40479W        W12062   3.278  29.644   3.127
40480W        W12063  13.649   8.616   0.460
40481W        W12064   5.727  31.478  13.898
40482W        W12065  15.133  32.403  12.905
40483W        W12066  24.000  12.755  10.954
40484W        W12067  44.639  11.246   2.745
40485W        W12068  40.320  26.216   2.769
40486W        W12069  25.923  18.938   0.649
40487W        W12070  12.332  30.682   2.681
40488W        W12071  39.601  24.491   0.204
40489W        W12072   4.796   7.635  13.891
40490W        W12073  39.140  18.520  12.162
40491W        W12074  18.966  14.091  10.642
40492W        W12075  23.689  19.349   4.204
40493W        W12076  14.201   0.227   4.535
40494W        W12077   4.452   3.970   1.870
40495W        W12078   4.770   1.981  13.710
40496W        W12079  42.940  28.153  11.698
40497W        W12080  29.369  12.177   0.969
40498W        W12081   3.707  29.902   3.285
40499W        W12082  36.900  24.720  13.964
40500W        W12083   1.399  12.739   4.588
40501W        W12084   4.990  37.654   0.430
40502W        W12085   7.588  19.168   3.873
40503W        W12086  19.175   9.465  10.466
40504W        W12087  13.112  29.548   3.763
40505W        W12088  12.444  28.063   3.268
40506W        W12089   8.669   0.394   1.182
40507W        W12090  33.544  40.464   0.143
40508W        W12091  32.537  27.575  13.037
40509W        W12092  43.342  30.911   1.458
40510W        W12093  27.130  22.683   2.057
40511W        W12094  28.005  35.192   3.548
40512W        W12095  12.244  21.722  12.603
40513W        W12096  26.521  20.000   3.251
40514W        W12097  17.614  36.188   2.548
40515W        W12098  40.366  17.518   4.823
40516W        W12099   0.677  40.363   0.320
40517W        W12100  44.791   4.652   1.840
40518W        W12101  43.060  27.151  14.803
40519W        W12102  18.711  19.962  10.646
40520W        W12103   1.952   7.622  13.863
40521W        W12104  34.328  21.466   3.848
40522W        W12105   7.041  33.502  10.995
40523W        W12106  44.679  40.536   1.757
40524W        W12107  33.067  37.972  13.369
40525W        W12108  36.259  43.848  12.185
40526W        W12109  15.284  36.840  13.247
40527W        W12110  27.623   5.852   3.373
40528W        W12111  24.569   6.154  13.337
40529W        W12112   6.684   6.301  10.671
40530W        W12113  28.652  40.963  13.392
40531W        W12114  27.905  37.545  10.761
40532W        W12115  40.534  14.423   0.126
40533W        W12116   9.626  20.212  14.927
40534W        W12117  32.700   1.238   2.364
40535W        W12118  42.240  31.102  11.443
40536W        W12119  31.550  28.637  14.721
40537W        W12120  22.789  27.965   0.807
40538W        W12121  13.550  41.901  14.299
40539W        W12122   7.385  35.918  10.685
40540W        W12123  19.993  44.411   2.181
40541W        W12124  31.681   1.705   3.763
40542W        W12125  11.379  12.864   0.385
40543W        W12126   0.772  30.318   3.617
40544W        W12127  18.364  21.657  10.627
40545W        W12128   2.787  33.421   0.830
40546W        W12129  43.557  28.910  10.977
40547W        W12130  26.686   9.847   4.979
40548W        W12131  12.383  29.013   3.773
40549W        W12132  36.596  37.410   1.212
40550W        W12133  40.010  25.529   1.785
40551W        W12134  32.383  30.339   3.287
40552W        W12135  22.307  23.197  13.574
40553W        W12136  16.135  20.516   4.103
40554W        W12137  20.565  27.216  14.686
40555W        W12138   3.636  25.255   4.962
40556W        W12139  14.309   1.881  13.470
40557W        W12140  32.717  20.189   4.639
40558W        W12141   3.756  12.426  13.392
40559W        W12142  34.488   8.417   0.374
40560W        W12143  19.448  42.419  11.539
40561W        W12144  34.417  23.028  12.566
40562W        W12145  26.599  39.936   3.867
40563W        W12146  28.249  33.926   4.926
40564W        W12147  39.084  42.795  14.978
40565W        W12148   6.340  26.150  14.952
40566W        W12149  22.629  29.210   3.660
40567W        W12150  39.333  25.161   2.815
40568W        W12151  30.653  17.292   1.692
40569W        W12152  35.603  38.732  10.702
40570W        W12153  13.698  43.910  12.065
40571W        W12154  26.983  39.014  13.586
40572W        W12155  25.009   9.638   1.601
40573W        W12156   1.188  36.466  11.022
40574W        W12157  15.164  17.578  12.958
40575W        W12158  34.296  37.601  14.805
40576W        W12159   3.792  28.039  10.722
40577W        W12160   0.128  10.540   0.260
40578W        W12161   7.991  29.143   1.430
40579W        W12162  18.979  32.874   1.952
40580W        W12163  16.230  42.214   2.146
40581W        W12164  28.626  13.666  11.179
40582W        W12165  40.049  39.286  13.914
40583W        W12166  41.456   4.173  13.006
40584W        W12167   9.268  10.250  14.282
40585W        W12168   8.895   4.222   4.616
40586W        W12169  32.971  16.178  14.322
40587W        W12170   7.703  29.142   2.829
40588W        W12171  23.166  36.496   0.440
40589W        W12172  31.976   2.319   1.933
40590W        W12173  41.254  12.680  11.968
40591W        W12174  41.844  11.605  13.966
40592W        W12175  14.957  31.881   1.658
40593W        W12176  35.391  43.746   3.834
40594W        W12177  30.441  23.765   2.386
40595W        W12178  30.575  19.993   3.609
40596W        W12179  33.462  30.581  14.460
40597W        W12180   8.688  17.636  12.499
40598W        W12181   1.317  22.047   3.792
40599W        W12182  11.831   4.704   2.780
40600W        W12183  24.431  14.575  14.035
40601W        W12184  22.066   5.421   2.202
40602W        W12185  40.189  15.512  12.537
40603W        W12186  37.957  42.544  13.487
40604W        W12187   5.541  16.150  11.176
40605W        W12188  37.032   5.344  10.902
40606W        W12189   5.337  39.770  11.298
40607W        W12190  20.276  36.704   2.890
40608W        W12191  17.083   9.831   4.329
40609W        W12192   2.732  36.798  13.044
40610W        W12193  34.973  23.462  14.825
40611W        W12194   5.782  41.295  13.884
40612W        W12195  24.195  14.622   3.759
40613W        W12196  29.930   3.854  13.544
40614W        W12197  40.946  12.195  10.741
40615W        W12198  23.272  16.189   2.735
40616W        W12199   6.457  30.979   3.345
40617W        W12200  20.461  27.980   0.378
40618W        W12201  29.426  26.504   2.237
40619W        W12202  43.052  12.161   1.365
40620W        W12203  21.535  41.523   3.216
40621W        W12204  16.082   0.254  12.862
40622W        W12205  42.072  23.236  14.945
40623W        W12206  39.017  13.182  14.862
40624W        W12207   8.267  30.721  14.528
40625W        W12208  41.195  40.227   4.425
40626W        W12209  39.957  18.056  10.610
40627W        W12210  17.570  24.461  14.782
40628W        W12211  39.103  17.858  14.831
40629W        W12212  35.156  30.145  10.735
40630W        W12213  40.701  29.994   4.104
40631W        W12214   7.787  44.987   3.631
40632W        W12215   5.386   9.733  13.081
40633W        W12216  24.051   8.242  13.561
40634W        W12217  30.932  28.919  12.943
40635W        W12218  17.791  34.123   0.036
40636W        W12219  35.185  39.934   1.325
40637W        W12220  35.656  11.229  14.444
40638W        W12221   2.845   3.853   3.186
40639W        W12222  19.141  24.937   0.557
40640W        W12223  18.102  25.539  14.417
40641W        W12224  42.049   0.237  12.540
40642W        W12225  15.704  16.716  13.066
40643W        W12226  39.245  25.982  12.572
40644W        W12227   8.728  13.626  14.495
40645W        W12228  11.383  26.251   4.967
40646W        W12229   0.718  36.080   3.862
40647W        W12230  13.948   3.911   2.317
40648W        W12231  43.247  26.262  14.617
40649W        W12232   7.815  11.908  14.337
40650W        W12233  30.636  10.948  13.418
40651W        W12234   9.406  19.541   3.104
40652W        W12235  30.822  17.739  11.897
40653W        W12236  36.177   6.326   0.871
40654W        W12237  44.876  18.882  14.794
40655W        W12238  23.144   9.394   2.194
40656W        W12239  12.461  10.663   2.258
40657W        W12240  17.320  21.523   1.828
40658W        W12241   5.521  11.790   4.300
40659W        W12242  25.095  20.499   1.815
40660W        W12243   6.159  11.848   2.460
40661W        W12244   0.208  43.865   4.618
40662W        W12245  25.601  21.000  11.987
40663W        W12246  34.506  27.900  14.327
40664W        W12247  17.750   2.384   0.307
40665W        W12248  33.303   8.648  12.514
40666W        W12249  27.738  21.481   3.278
40667W        W12250  41.756   5.447   0.940
40668W        W12251  13.633  16.920   0.143
40669W        W12252  31.518  13.252   1.779
40670W        W12253  13.600  20.230   2.422
40671W        W12254  40.532  30.428   0.863
40672W        W12255   8.405  24.230  11.575
40673W        W12256  40.536  22.059   0.456
40674W        W12257  41.391  13.781   1.002
40675W        W12258   9.846   3.158  12.035
40676W        W12259  42.815  29.699  14.344
40677W        W12260   0.484  36.370  10.629
40678W        W12261  40.222  37.879  12.935
40679W        W12262  12.568  12.373  12.539
40680W        W12263  32.161  38.566   3.593
40681W        W12264  33.787  39.155  11.149
40682W        W12265  17.704  15.177  14.948
40683W        W12266  23.790  32.695  11.975
40684W        W12267  21.984   3.676  11.723
40685W        W12268  36.037  20.095   0.247
40686W        W12269  10.177   4.686  14.878
40687W        W12270  13.156  23.933   3.928
40688W        W12271  37.376  22.110  14.302
40689W        W12272  30.382  22.240  12.471
40690W        W12273  12.197  42.015   3.318
40691W        W12274  35.871   7.977   4.079
40692W        W12275  31.379  37.532   0.789
40693W        W12276  16.433   7.697  11.090
40694W        W12277   0.484   7.645  12.908
40695W        W12278  32.012  11.657   0.737
40696W        W12279   6.898   9.154  11.080
40697W        W12280  15.080  42.298  11.645
40698W        W12281  38.895   7.142   1.893
40699W        W12282  10.727  17.347  12.578
40700W        W12283  22.827  33.109   3.183
40701W        W12284  29.155  18.151  12.565
40702W        W12285   3.536  32.902  11.445
40703W        W12286  39.565  22.437   1.078
40704W        W12287  34.334  15.982   2.768
40705W        W12288   7.415  32.909   3.674
40706W        W12289  34.057   8.208   0.202
40707W        W12290  25.628   1.361  10.655
40708W        W12291  29.609  31.720   0.192
40709W        W12292  39.446   0.775  13.999
40710W        W12293  10.960  33.502   4.938
40711W        W12294  44.059  35.595  13.057
40712W        W12295  16.334  34.497  14.905
40713W        W12296  41.266  12.213  14.206
40714W        W12297  22.161  44.045   3.355
40715W        W12298  10.700   4.621  11.497
40716W        W12299   1.934  11.384   2.708
40717W        W12300   5.595  14.859  11.214
40718W        W12301  38.523  19.290  13.219
40719W        W12302  13.596  14.257   3.801
40720W        W12303  35.366  37.881  13.083
40721W        W12304  27.650  15.182  11.905
40722W        W12305  27.774  43.259   2.157
40723W        W12306  33.919  34.913   0.688
40724W        W12307  44.019  31.839   1.353
40725W        W12308  30.823   2.777  12.942
40726W        W12309  30.650  39.482   3.078
40727W        W12310  30.404   3.753  14.921
40728W        W12311  41.256   7.162   4.280
40729W        W12312  19.119   0.706   3.711
40730W        W12313  29.667  42.238  11.987
40731W        W12314   6.831  34.100   3.678
40732W        W12315  16.885  34.297   3.124
40733W        W12316  22.722  16.803   2.280
40734W        W12317  21.996  25.545  14.531
40735W        W12318   8.178  33.096   4.737
40736W        W12319   1.505  12.149  11.034
40737W        W12320  16.451  26.548  14.267
40738W        W12321  23.432  19.172  11.203
40739W        W12322   4.706  26.570  11.156
40740W        W12323  44.018  11.900   0.334
40741W        W12324  19.992  25.447  11.578
40742W        W12325   8.321  17.061   0.538
40743W        W12326  34.102  34.622  11.608
40744W        W12327   0.634  20.283   4.900
40745W        W12328  10.190  35.551   1.390
40746W        W12329  20.267   4.851   1.756
40747W        W12330   9.004   8.264   0.419
40748W        W12331   9.183  15.122   3.646
40749W        W12332   6.696   4.070   3.648
40750W        W12333  23.039   1.752  14.597
40751W        W12334  36.848   8.079  12.949
40752W        W12335  14.838  20.043   1.716
40753W        W12336  43.702   0.735   2.760
40754W        W12337  44.110  30.614  14.058
40755W        W12338   3.945  28.750   4.577
40756W        W12339  12.453  10.793  13.780
40757W        W12340   7.720  20.237  13.245
40758W        W12341  15.292  20.656   4.583
40759W        W12342  17.189   0.947   1.175
40760W        W12343   6.441   6.382   1.314
40761W        W12344  18.119  44.523  12.480
40762W        W12345  18.272  36.892   3.594
40763W        W12346   7.745  29.030  11.963
40764W        W12347  25.024  16.012   4.221
40765W        W12348  38.157   4.108   1.736
40766W        W12349  13.432  20.152  13.529
40767W        W12350  22.215  28.899   3.682
40768W        W12351  26.951   6.209  14.830
40769W        W12352  15.311  11.310  12.387
40770W        W12353  27.686  26.653   3.712
40771W        W12354   3.210  17.983  11.140
40772W        W12355   8.662  23.301   4.844
40773W        W12356  14.109  17.403  12.551
40774W        W12357  13.805  29.662   3.798
40775W        W12358  13.376   0.478   4.079
40776W        W12359  44.285  42.935   3.731
40777W        W12360   7.299  28.586  12.971
40778W        W12361  41.318  12.368   0.120
40779W        W12362  19.039  21.224   2.107
40780W        W12363   0.330  26.596   3.328
40781W        W12364   1.691  42.070   1.325
40782W        W12365  40.323  25.472   2.333
40783W        W12366  26.895  25.756  14.781
40784W        W12367  32.420  12.311   1.538
40785W        W12368  19.570  38.846   4.081
40786W        W12369   6.941  41.776  10.768
40787W        W12370  21.312  19.819   9.807
40788W        W12371  34.059  39.771   0.323
40789W        W12372   4.661  17.505  11.039
40790W        W12373  29.593  37.565   0.388
40791W        W12374   0.625   0.701   2.819
40792W        W12375   0.476  35.178   4.139
40793W        W12376  30.579  24.122  11.177
40794W        W12377  13.794  23.875  13.351
40795W        W12378   0.238   8.827  14.734
40796W        W12379  15.157  29.529  13.356
40797W        W12380  12.223   3.330   0.407
40798W        W12381  31.926  18.701   0.002
40799W        W12382  19.276  10.350   0.887
40800W        W12383  17.161  37.518   0.544
40801W        W12384   5.106   1.320  13.402
40802W        W12385  32.182  13.717   0.657
40803W        W12386  21.133  43.868   0.966
40804W        W12387  36.414  24.611   3.676
40805W        W12388  37.959  32.633   2.749
40806W        W12389  35.395  19.151  12.708
40807W        W12390  22.989  16.682  12.377
40808W        W12391   0.554  17.686   3.908
40809W        W12392  13.532  19.261  13.392
40810W        W12393   5.338   2.795  11.677
40811W        W12394  43.225  34.946  10.681
40812W        W12395   8.783   8.326   0.921
40813W        W12396  44.410  26.831   5.328
40814W        W12397  15.266  27.383  11.889
40815W        W12398  37.907  15.543   4.673
40816W        W12399  24.086  41.228   1.476
40817W        W12400   3.489   3.208   0.978
40818W        W12401  36.058  17.296  13.226
40819W        W12402  40.046   3.360   1.307
40820W        W12403  10.855   0.419   3.409
40821W        W12404   2.167  43.521   2.302
40822W        W12405  16.560  17.124  12.039
40823W        W12406  42.467  38.627  12.439
40824W        W12407  30.446  33.612  12.417
40825W        W12408  15.946  28.302   2.701
40826W        W12409  32.834  43.009  12.447
40827W        W12410  15.087  13.637  14.538
40828W        W12411   8.196  32.018   3.378
40829W        W12412   3.229   8.891   3.791
40830W        W12413  15.868  34.599   9.846
40831W        W12414  32.213  20.244   1.321
40832W        W12415  20.603  31.854  11.583
40833W        W12416  12.166  34.636   2.732
40834W        W12417  20.110  18.229  11.938
40835W        W12418   1.719  27.262   3.450
40836W        W12419  11.699  40.942  12.678
40837W        W12420  42.788  10.797   1.043
40838W        W12421  10.137  10.706   0.341
40839W        W12422  28.668  31.073   9.864
40840W        W12423  17.162   9.440  12.002
40841W        W12424   5.900   7.594  13.920
40842W        W12425  20.746  20.620  12.569
40843W        W12426  39.843   3.149   3.544
40844W        W12427  22.582  16.526  12.132
40845W        W12428  29.180  14.813  12.531
40846W        W12429  20.770  39.529   3.613
40847W        W12430  27.874  33.097  12.130
40848W        W12431  24.200  28.908  13.999
40849W        W12432  25.770   2.573  11.278
40850W        W12433   3.130  25.446  14.577
40851W        W12434  38.320  40.276   0.706
40852W        W12435   9.127  20.026  14.964
40853W        W12436  13.353  35.949  13.544
40854W        W12437  17.628  26.411  11.915
40855W        W12438  13.348  37.523   4.598
40856W        W12439  43.214  21.297  10.450
40857W        W12440  21.906  18.492  14.069
40858W        W12441  16.062  21.074   3.670
40859W        W12442  23.644   4.859   1.956
40860W        W12443  42.784  15.102  13.870
40861W        W12444  20.784   7.407  11.004
40862W        W12445  35.770  44.856   4.776
40863W        W12446   5.538  13.824  13.498
40864W        W12447  44.226  40.790   0.022
40865W        W12448  29.500  36.530   0.552
40866W        W12449  20.715  41.355  13.875
40867W        W12450  21.408  13.546  14.183
40868W        W12451  20.253  42.002  11.460
40869W        W12452  26.456   8.287   4.263
40870W        W12453  41.853  23.777   4.131
40871W        W12454  32.182  35.130   1.120
40872W        W12455  31.485  23.191  10.940
40873W        W12456  37.226  16.739  13.966
40874W        W12457   7.282  32.351   4.140
40875W        W12458  13.655  25.480  11.049
40876W        W12459  14.670  13.239  14.019
40877W        W12460  44.630  40.092  13.031
40878W        W12461   5.641  14.484  13.608
40879W        W12462  17.356   6.739   4.595
40880W        W12463  43.930  29.668   0.010
40881W        W12464  32.036  15.718  14.178
40882W        W12465  42.241  29.178   0.296
40883W        W12466   1.324  44.869  11.429
40884W        W12467  42.905  41.740  10.915
40885W        W12468  29.085  31.943  13.907
40886W        W12469  37.887  20.308  12.791
40887W        W12470  26.576  10.408   3.142
40888W        W12471  11.680  27.233  13.871
40889W        W12472  38.908  24.148  10.592
40890W        W12473  31.124   6.161   3.639
40891W        W12474   4.632   5.865  13.349
40892W        W12475  37.062  35.313  10.567
40893W        W12476  24.060  20.549   2.125
40894W        W12477  15.140  28.537  14.856
40895W        W12478   1.979  14.721   3.103
40896W        W12479  42.509  37.470  13.251
40897W        W12480   2.671  23.044   4.371
40898W        W12481  42.262  26.151  12.564
40899W        W12482  42.889  35.447  13.995
40900W        W12483  39.167  35.953  11.070
40901W        W12484   9.094  31.899   3.765
40902W        W12485  30.120  18.315  10.913
40903W        W12486  26.032  15.750   2.440
40904W        W12487  29.200  29.758   3.732
40905W        W12488  13.012  42.816   2.618
40906W        W12489  27.573   4.641  14.442
40907W        W12490  36.398  23.832   1.200
40908W        W12491  41.742  14.244  14.339
40909W        W12492  25.533   4.051   2.289
40910W        W12493  26.216  25.229   0.843
40911W        W12494  15.838  29.435   4.020
40912W        W12495  41.459  36.409   5.071
40913W        W12496  33.325   6.133   2.833
40914W        W12497  28.691   0.873   3.867
40915W        W12498   3.236  21.173  12.458
40916W        W12499  36.844  10.634   0.792
40917W        W12500  22.770  18.180   3.842
40918W        W12501  25.423  40.935   3.778
40919W        W12502  30.692  32.813  10.696
40920W        W12503  14.800  21.953   4.617
40921W        W12504  38.607  20.943   0.783
40922W        W12505   0.501  33.799  14.499
40923W        W12506  22.018  19.243   0.041
40924W        W12507  37.539  41.054   0.090
40925W        W12508  15.260  18.088  13.811
40926W        W12509  26.317   3.304   3.933
40927W        W12510  28.517  11.372   2.837
40928W        W12511   5.346  20.045  10.539
40929W        W12512  26.628  37.729   0.547
40930W        W12513   6.124  12.691  12.900
40931W        W12514  25.465  37.951   3.817
40932W        W12515  31.527  30.013   1.090
40933W        W12516  23.590  34.427  13.812
40934W        W12517  17.935  21.978   0.567
40935W        W12518  11.442  12.213  13.056
40936W        W12519   7.218  37.325  14.548
40937W        W12520  40.882  23.926   3.177
40938W        W12521  43.365  37.248  12.238
40939W        W12522   7.186  24.652   0.023
40940W        W12523  19.867   2.283  11.598
40941W        W12524  22.381  18.193   1.946
40942W        W12525  33.994  44.660   4.081
40943W        W12526  10.263  21.139  10.736
40944W        W12527  42.035  40.389   1.908
40945W        W12528  40.315  19.505   0.380
40946W        W12529  34.341  41.315  13.948
40947W        W12530  23.060   0.705   0.740
40948W        W12531   7.218  35.401   2.082
40949W        W12532  27.007  21.588   1.760
40950W        W12533  15.043   1.146  12.760
40951W        W12534  39.511  43.966   0.303
40952W        W12535   7.627  40.977   0.380
40953W        W12536  19.040  39.618  11.070
40954W        W12537  21.262  39.729  11.570
40955W        W12538   2.845  13.547  13.798
40956W        W12539   0.964   9.418   4.470
40957W        W12540  26.041  40.389  10.841
40958W        W12541  28.395  35.432   0.251
40959W        W12542  30.983  38.738   4.103
40960W        W12543  21.811  22.684   3.744
40961W        W12544  38.182  13.717  11.312
40962W        W12545  28.300  37.992   0.327
40963W        W12546  36.988  13.516   1.003
40964W        W12547  13.836  27.947  10.725
40965W        W12548  35.873  17.766  12.503
40966W        W12549  32.636  38.601  11.912
40967W        W12550  27.488  12.263   3.866
40968W        W12551  44.416  30.717   3.235
40969W        W12552  32.461  19.864  10.563
40970W        W12553  34.633  21.745  14.536
40971W        W12554  29.892  22.402   0.197
40972W        W12555  16.743  31.587   1.320
40973W        W12556  15.751  23.973  11.457
40974W        W12557  34.793  20.964  14.099
40975W        W12558  10.849  23.584  12.025
40976W        W12559  20.978  32.444   0.014
40977W        W12560  23.079  43.250   0.295
40978W        W12561  11.516  34.468  10.865
40979W        W12562  40.400  42.215  14.432
40980W        W12563  13.155  31.963   5.173
40981W        W12564  20.648  44.610   2.702
40982W        W12565  14.229   6.878   3.809
40983W        W12566  19.634  18.312  10.241
40984W        W12567  25.326  15.799  10.413
40985W        W12568  37.539  28.093   5.032
40986W        W12569  23.703  27.250   2.208
40987W        W12570   2.293  14.724   0.401
40988W        W12571  26.684   8.706   0.510
40989W        W12572  22.375  21.045  10.853
40990W        W12573  34.191  26.040   3.305
40991W        W12574  34.649  29.542   3.828
40992W        W12575  30.226  11.668  14.590
40993W        W12576  43.196  19.131   0.702
40994W        W12577  16.229  19.115   3.550
40995W        W12578  32.579  19.582  11.615
40996W        W12579  20.246   8.660  11.061
40997W        W12580  41.446  19.854  12.849
40998W        W12581  21.582  13.135  11.576
40999W        W12582  19.958  31.241  10.754
41000W        W12583  39.914   7.047  12.683
41001W        W12584  15.364  21.984  14.799
41002W        W12585   9.643  37.723  13.401
41003W        W12586  44.214  31.986   2.914
41004W        W12587  15.041   7.424   1.885
41005W        W12588   2.738  24.950   3.109
41006W        W12589   2.890  31.159   2.314
41007W        W12590  43.216   2.390  13.843
41008W        W12591   4.305  14.157   2.466
41009W        W12592  11.644   4.973   4.152
41010W        W12593   7.346  41.579   3.830
41011W        W12594  16.778  24.653  12.577
41012W        W12595  42.840  41.052   3.078
41013W        W12596  28.559  17.567  12.600
41014W        W12597  33.405  15.920   0.795
41015W        W12598  34.859  20.212   1.682
41016W        W12599  10.731  34.227  14.907
41017W        W12600  21.512  30.245  12.367
41018W        W12601  25.946   4.294  12.199
41019W        W12602  29.158  41.501  10.779
41020W        W12603   8.736  28.977   4.766
41021W        W12604  27.568  22.728   1.781
41022W        W12605  32.860   4.934  11.225
41023W        W12606  21.187  40.450   2.297
41024W        W12607  19.355  32.065   4.473
41025W        W12608  33.419   9.486  11.991
41026W        W12609  12.869  29.508  12.426
41027W        W12610  29.512  17.158  12.642
41028W        W12611  41.623  42.556   4.970
41029W        W12612  32.952   8.401  12.851
41030W        W12613  14.623  40.750  12.567
41031W        W12614  16.663  30.914   4.171
41032W        W12615  25.710  16.278  14.520
41033W        W12616   4.324   3.472   3.619
41034W        W12617   0.156  32.837  11.529
41035W        W12618  17.666  30.358   2.288
41036W        W12619   9.936  37.266   2.136
41037W        W12620  14.778  12.329  11.172
41038W        W12621  23.633  11.455  12.199
41039W        W12622  29.323  14.399  10.517
41040W        W12623  18.990  23.746  11.514
41041W        W12624  11.599  36.782  12.421
41042W        W12625  43.824  42.281  12.796
41043W        W12626  28.075  32.116   1.902
41044W        W12627  42.452  41.034  13.094
41045W        W12628  41.669  30.169   0.436
41046W        W12629  28.210  29.552  10.130
41047W        W12630  32.371  14.025  12.856
41048W        W12631  23.552   1.256   1.335
41049W        W12632  20.323  27.258   3.298
41050W        W12633  19.634  10.635  14.501
41051W        W12634  36.467  29.692   4.825
41052W        W12635  29.049   6.875   4.681
41053W        W12636  12.987   5.076   0.635
41054W        W12637  22.953  42.448  12.865
41055W        W12638  12.875  10.074  12.292
41056W        W12639  12.292   8.399  10.888
41057W        W12640  42.062   8.957  13.252
41058W        W12641   3.573  33.355  13.614
41059W        W12642  11.288  39.377  14.936
41060W        W12643  22.255  23.600   0.887
41061W        W12644  26.438  39.260  10.741
41062W        W12645  19.579  13.118   0.791
41063W        W12646  11.229  14.549  11.235
41064W        W12647  17.267  20.679  13.796
41065W        W12648  43.775  44.435  12.558
41066W        W12649  21.659  23.134  11.136
41067W        W12650   1.286  12.619  14.505
41068W        W12651   6.886   4.289  14.342
41069W        W12652   5.638  43.783  11.090
41070W        W12653   3.387   4.236   0.992
41071W        W12654  18.098   6.763   4.090
41072W        W12655  15.653   6.150   3.981
41073W        W12656   8.217  11.748   0.023
41074W        W12657   5.431   5.240  11.404
41075W        W12658  22.096  13.887   2.106
41076W        W12659  25.217   7.742  13.107
41077W        W12660  26.456  18.914  11.995
41078W        W12661  28.121   6.743  14.967
41079W        W12662   8.642  12.517  12.414
41080W        W12663  22.546  23.892   4.028
41081W        W12664  20.066  38.797   1.493
41082W        W12665   1.441  32.957  13.927
41083W        W12666   2.209  13.312   3.648
41084W        W12667  25.639   2.340  13.045
41085W        W12668  30.653  32.960   4.194
41086W        W12669  39.749  21.498   1.364
41087W        W12670  15.068   6.189   3.192
41088W        W12671  36.082  32.848  11.080
41089W        W12672  16.524   5.769  14.294
41090W        W12673  29.204   8.907   2.707
41091W        W12674  22.558   2.011  12.461
41092W        W12675  17.723  44.706   1.325
41093W        W12676  37.163   7.379  11.053
41094W        W12677  21.817  28.391  11.103
41095W        W12678  32.009   2.462   2.459
41096W        W12679  34.619  24.035  11.534
41097W        W12680   4.990   7.053   0.277
41098W        W12681   5.386  33.127   4.753
41099W        W12682  28.872   7.675  12.987
41100W        W12683   2.265  36.054   5.292
41101W        W12684  19.035   1.072   0.290
41102W        W12685  26.759  34.354  13.399
41103W        W12686  39.897  35.362   3.291
41104W        W12687  42.137   6.727  12.868
41105W        W12688   9.738  29.531   2.874
41106W        W12689  22.715  41.891  13.855
41107W        W12690  19.186  16.345   2.831
41108W        W12691   5.807   6.343  14.440
41109W        W12692  13.609   0.672  12.999
41110W        W12693   7.630  43.741   2.743
41111W        W12694  18.455   7.429  14.281
41112W        W12695  33.830   1.301  13.800
41113W        W12696  26.806  42.562  10.413
41114W        W12697  19.362  11.700  11.522
41115W        W12698  27.912  34.253  10.512
41116W        W12699  26.677  40.001  11.975
41117W        W12700  11.312  26.572   4.096
41118W        W12701  11.227  17.162   4.597
41119W        W12702  19.703   2.564  14.748
41120W        W12703  42.376  23.368   3.525
41121W        W12704   8.758  24.615  13.015
41122W        W12705  12.338  24.023   1.424
41123W        W12706   9.771  41.984   3.712
41124W        W12707  17.767   0.051   2.304
41125W        W12708  22.597  28.632  13.120
41126W        W12709  31.158  16.665  10.729
41127W        W12710  41.279  37.075  12.336
41128W        W12711  39.384  29.017  11.088
41129W        W12712  22.978   5.891  14.912
41130W        W12713  32.182  33.839  11.167
41131W        W12714  13.373  23.598   2.409
41132W        W12715  15.142   5.702  14.407
41133W        W12716  39.509  35.300  11.728
41134W        W12717  30.575  23.131   1.928
41135W        W12718  44.845  22.708   1.926
41136W        W12719  21.492  40.998  14.889
41137W        W12720  31.141   2.289  12.659
41138W        W12721  36.568  23.891  13.731
41139W        W12722   0.303  30.641  11.952
41140W        W12723  44.838   9.127   1.381
41141W        W12724  30.017  28.608  14.080
41142W        W12725  34.239   1.827   2.639
41143W        W12726   6.382  39.644  14.472
41144W        W12727  34.436  20.589   4.959
41145W        W12728  21.611  21.993   0.694
41146W        W12729   4.359  33.561  12.184
41147W        W12730  36.444   9.904   3.624
41148W        W12731  38.490   6.936  11.502
41149W        W12732  32.757  17.580   1.230
41150W        W12733  17.857   5.505  11.133
41151W        W12734  36.442  26.579   1.323
41152W        W12735  30.876  13.480  12.970
41153W        W12736  30.999  37.484  12.444
41154W        W12737  36.019  30.549  10.608
41155W        W12738  13.401  32.969   3.445
41156W        W12739  42.037  32.132  12.523
41157W        W12740  18.994   6.229   3.182
41158W        W12741  43.823  13.394  14.743
41159W        W12742  43.544  34.508   3.772
41160W        W12743  18.166   4.914   0.245
41161W        W12744  13.265  23.932   1.701
41162W        W12745  26.337  41.804   4.511
41163W        W12746   7.009  14.050   3.685
41164W        W12747  43.352  13.186  12.003
41165W        W12748  30.517  36.754  14.345
41166W        W12749   5.603   4.775  14.122
41167W        W12750   1.463  21.007  14.322
41168W        W12751  11.225  32.462   4.552
41169W        W12752  29.583  24.434   1.187
41170W        W12753  23.254  32.324   2.478
41171W        W12754  13.868  22.931  14.457
41172W        W12755  25.092  32.903  14.385
41173W        W12756  44.438   2.228   3.286
41174W        W12757  23.692  27.253   3.184
41175W        W12758  27.541  37.252  10.963
41176W        W12759   2.612  19.170   0.162
41177W        W12760  12.342  31.519  11.639
41178W        W12761   5.864  39.606  11.504
41179W        W12762  14.553  17.080   2.297
41180W        W12763  33.107  35.083   2.512
41181W        W12764   9.133  15.860   0.156
41182W        W12765  34.499   0.981  11.165
41183W        W12766   0.274  26.140  11.500
41184W        W12767   2.548   1.673  13.939
41185W        W12768  36.612  14.698   3.709
41186W        W12769   5.343  33.084  10.858
41187W        W12770  21.715   7.347  11.865
41188W        W12771   8.148  14.314  11.370
41189W        W12772   1.527  16.637   2.240
41190W        W12773  21.031  19.097   4.512
41191W        W12774  42.359   2.495  13.476
41192W        W12775  22.682  41.905  10.718
41193W        W12776   4.436  34.665   0.821
41194W        W12777   9.412  38.789  10.176
41195W        W12778   0.496  27.941  12.986
41196W        W12779  31.129  20.118  11.071
41197W        W12780   9.423  27.224  13.471
41198W        W12781  21.603  29.742  11.420
41199W        W12782  32.969  21.698  14.529
41200W        W12783   6.648   5.318   3.047
41201W        W12784  13.111   3.725   5.106
41202W        W12785  20.745  44.411   1.724
41203W        W12786  23.203  12.859  10.641
41204W        W12787  21.313  19.893   4.971
41205W        W12788   9.378   4.051   0.727
41206W        W12789  14.308  23.106  10.623
41207W        W12790  13.675  33.358  13.480
41208W        W12791  33.016  41.373  14.376
41209W        W12792  28.061  29.098  11.623
41210W        W12793  33.023   4.122   3.975
41211W        W12794  13.624  39.732   3.302
41212W        W12795  11.915  13.144  11.514
41213W        W12796  36.072  14.088  12.087
41214W        W12797  26.869  25.197  13.016
41215W        W12798  27.418   1.983   0.318
41216W        W12799   1.936  13.218   3.058
41217W        W12800  37.191  22.836  12.458
41218W        W12801  41.441  21.973   2.847
41219W        W12802  44.956  15.424  13.636
41220W        W12803  10.701  21.972  10.506
41221W        W12804  12.814  18.304   2.798
41222W        W12805  16.522  35.552  11.108
41223W        W12806   4.905  14.604   3.837
41224W        W12807  28.450  17.572  12.013
41225W        W12808  40.042   1.364   0.900
41226W        W12809   6.299   6.968   5.106
41227W        W12810  22.575  37.893  12.834
41228W        W12811  30.533   4.731  13.378
41229W        W12812  41.951  30.999  13.845
41230W        W12813   4.964  41.119  10.679
41231W        W12814   8.340   6.014  10.348
41232W        W12815  19.079  28.667  13.392
41233W        W12816  10.858   4.492   1.897
41234W        W12817  32.025  38.048  11.534
41235W        W12818  43.428  33.337  14.358
41236W        W12819   9.951  19.962   1.331
41237W        W12820   0.007  43.422  13.365
41238W        W12821   1.056  26.629  14.482
41239W        W12822   4.235  17.559   0.900
41240W        W12823   0.799   9.186   2.807
41241W        W12824  37.861  18.292   1.923
41242W        W12825   3.223  10.811  11.565
41243W        W12826  25.998  34.775  12.040
41244W        W12827   7.383  34.535   0.815
41245W        W12828   6.640  19.698   4.816
41246W        W12829   2.923  34.329  11.204
41247W        W12830   9.396  41.844   1.346
41248W        W12831  34.444   4.732   3.653
41249W        W12832  33.790  17.144  14.017
41250W        W12833  43.513  22.556  13.835
41251W        W12834  13.312  30.119   1.337
41252W        W12835  10.160  36.839  12.446
41253W        W12836  23.613  26.739   2.254
41254W        W12837  27.578  15.657  10.655
41255W        W12838  29.596  20.234  12.565
41256W        W12839  27.164  20.119   0.357
41257W        W12840  31.603  25.229  12.108
41258W        W12841  37.951   6.145  14.698
41259W        W12842  33.369  28.071   0.851
41260W        W12843  29.582   8.683  12.972
41261W        W12844   0.500  18.737   0.867
41262W        W12845  39.880  16.661   2.376
41263W        W12846   5.647   2.309   0.282
41264W        W12847  30.876  39.863   0.736
41265W        W12848  30.056  34.039   2.219
41266W        W12849  32.843  19.472   4.943
41267W        W12850  35.842  40.044  11.200
41268W        W12851  11.843   2.494  12.951
41269W        W12852  44.793  25.931   3.136
41270W        W12853  33.984  42.511   3.007
41271W        W12854   9.438  11.225   0.217
41272W        W12855  15.815  43.302   1.841
41273W        W12856  10.812  31.456   3.765
41274W        W12857  23.361  25.380   3.793
41275W        W12858   8.468  14.783  10.735
41276W        W12859  11.626  16.734   0.751
41277W        W12860   2.293   1.527  14.806
41278W        W12861  33.056  36.979  13.820
41279W        W12862  32.619  17.141   3.920
41280W        W12863  26.523  20.153  12.953
41281W        W12864  14.256  32.644   1.988
41282W        W12865   7.140  21.685   4.615
41283W        W12866  20.577  15.129  14.070
41284W        W12867  23.614  20.932   0.941
41285W        W12868  23.277  18.724   0.145
41286W        W12869  29.236   4.131  12.391
41287W        W12870  23.287   2.231  11.426
41288W        W12871   3.963  41.067  14.403
41289W        W12872  44.773  12.590   3.030
41290W        W12873  24.167  30.172  11.918
41291W        W12874   9.225  23.402   3.109
41292W        W12875  41.319  33.656   0.215
41293W        W12876  38.891  10.493  12.257
41294W        W12877  44.344  11.693  14.842
41295W        W12878  40.379  24.048   1.397
41296W        W12879  22.021  16.551  12.404
41297W        W12880  11.740  33.115  11.059
41298W        W12881  37.108   9.686  13.214
41299W        W12882  15.875  22.631  11.267
41300W        W12883  27.665   6.467  14.129
41301W        W12884  35.113   5.581  13.072
41302W        W12885  15.377   3.189  14.884
41303W        W12886  34.488   9.491  11.561
41304W        W12887   1.809  16.217   3.186
41305W        W12888   1.648  43.327  13.911
41306W        W12889  21.099  13.186   4.339
41307W        W12890   6.620   2.729  11.908
41308W        W12891  41.862  13.601   1.819
41309W        W12892  44.387  24.019   3.821
41310W        W12893  37.853  34.831  10.960
41311W        W12894   7.284  28.942   0.774
41312W        W12895  30.557  43.654   2.699
41313W        W12896  36.420  44.258   4.254
41314W        W12897   8.012  24.529  11.842
41315W        W12898   3.338  32.505  13.336
41316W        W12899  10.503  17.432  13.459
41317W        W12900  31.679  20.573  14.544
41318W        W12901  28.117  26.658  10.139
41319W        W12902  11.796  29.405   2.461
41320W        W12903   8.293  22.274  10.741
41321W        W12904  38.586  16.269  11.502
41322W        W12905  21.055  33.945   4.522
41323W        W12906  42.055  32.081   5.032
41324W        W12907   2.303   5.382  12.448
41325W        W12908  32.561   9.603   3.091
41326W        W12909  36.146  25.480  12.922
41327W        W12910  20.596  29.177  12.562
41328W        W12911  21.713  17.222   4.631
41329W        W12912  15.239  10.886  11.273
41330W        W12913   8.090  21.185   2.881
41331W        W12914  36.868  12.264   1.309
41332W        W12915  13.176   6.706   3.639
41333W        W12916   2.847  32.712   2.131
41334W        W12917  26.044  10.328  10.712
41335W        W12918  17.603  13.369  11.612
41336W        W12919  32.883  37.880   0.369
41337W        W12920  30.117  17.041   3.484
41338W        W12921  29.045  40.168  13.853
41339W        W12922   2.263  38.492  10.674
41340W        W12923  26.177  15.552   5.055
41341W        W12924  42.948   3.921  11.979
41342W        W12925  41.100  10.332   4.176
41343W        W12926  25.164   1.055   0.987
41344W        W12927  37.499  27.874   9.839
41345W        W12928   9.909  18.104   4.136
41346W        W12929  16.770  16.537  14.430
41347W        W12930  15.709  37.884  10.207
41348W        W12931   5.618   8.087  10.697
41349W        W12932  11.165  28.618  14.457
41350W        W12933   6.867  19.804   0.341
41351W        W12934   0.727   1.619  14.339
41352W        W12935  31.092   0.868   0.708
41353W        W12936  19.117  38.305  13.041
41354W        W12937  20.000  19.746  11.167
41355W        W12938   8.963  35.533   0.773
41356W        W12939  10.252  36.810  13.370
41357W        W12940  34.406   4.843   0.451
41358W        W12941  16.739  19.721  10.715
41359W        W12942  37.903  26.271   0.306
41360W        W12943   5.589   1.421  13.391
41361W        W12944  24.234  26.555   4.573
41362W        W12945  11.160  39.873   2.688
41363W        W12946  21.234  22.234   2.634
41364W        W12947  36.194  41.691  10.807
41365W        W12948  23.251  44.931   0.969
41366W        W12949   8.237  19.029   1.609
41367W        W12950  37.934   5.345  10.338
41368W        W12951  27.478  20.322  13.545
41369W        W12952  38.009  28.439   0.235
41370W        W12953  13.367  43.418  10.848
41371W        W12954  30.565  14.917  13.390
41372W        W12955  31.700   9.839  12.931
41373W        W12956  39.403   2.311   5.125
41374W        W12957  34.095  19.411   3.617
41375W        W12958   9.288   1.954   3.667
41376W        W12959  34.371  22.052  12.749
41377W        W12960  44.090  34.095   1.961
41378W        W12961  25.110  21.481  14.355
41379W        W12962  15.067  15.308   3.934
41380W        W12963  14.660  29.041   4.921
41381W        W12964  20.034  38.119   2.296
41382W        W12965  30.857  30.122  11.048
41383W        W12966  17.093   6.312  12.708
41384W        W12967  16.737  32.800   3.352
41385W        W12968   7.315  42.497  12.396
41386W        W12969  13.779  13.796   2.827
41387W        W12970  20.587  13.837  12.892
41388W        W12971  13.582  18.403   0.218
41389W        W12972  36.038  31.617  10.400
41390W        W12973  30.432   9.994   4.410
41391W        W12974  22.168   3.585  13.004
41392W        W12975  13.015   2.414   4.130
41393W        W12976  11.456  31.427  12.556
41394W        W12977  21.543   3.667  11.412
41395W        W12978   5.118  40.595  12.467
41396W        W12979  17.527  44.583  14.565
41397W        W12980  38.605   6.783   3.239
41398W        W12981  18.281  32.384  14.036
41399W        W12982  17.340  11.129   3.759
41400W        W12983  33.475  15.228  11.647
41401W        W12984  27.893  33.872  10.168
41402W        W12985   1.413  27.569   0.399
41403W        W12986  27.332  44.857  11.971
41404W        W12987  34.811  34.552  13.929
41405W        W12988   5.424  35.873   2.998
41406W        W12989  19.503  40.266   0.777
41407W        W12990  21.536  25.119   4.110
41408W        W12991  31.920  40.581  12.981
41409W        W12992  25.678  34.991  11.226
41410W        W12993   5.385  40.771   3.177
41411W        W12994  11.296  10.041   4.973
41412W        W12995   8.263  32.075  14.693
41413W        W12996  40.797   3.227  13.298
41414W        W12997  40.867   9.841   1.703
41415W        W12998  37.320  10.908   2.175
41416W        W12999  22.542  20.848   4.296
41417W        W13000  30.449  32.503   4.656
41418W        W13001  36.402  37.519  14.563
41419W        W13002  24.041  28.214  12.547
41420W        W13003   2.721  13.854  10.617
41421W        W13004  26.088  15.102  14.838
41422W        W13005  14.565  43.848   1.219
41423W        W13006  12.861  13.056   0.346
41424W        W13007  43.524  40.582  14.490
41425W        W13008  11.914  27.722  12.085
41426W        W13009  31.510  28.376  12.356
41427W        W13010  16.719  34.367  12.032
41428W        W13011  38.806  22.348  12.056
41429W        W13012   3.859   3.616  11.164
41430W        W13013  43.027  13.958   3.720
41431W        W13014  25.225   9.839  11.637
41432W        W13015  19.311  35.457  13.290
41433W        W13016  13.248  41.031   0.973
41434W        W13017  22.366  34.382  10.550
41435W        W13018   0.831  14.555  10.825
41436W        W13019   0.498  10.822   0.556
41437W        W13020  26.498   0.922  14.906
41438W        W13021  43.385   4.498   4.372
41439W        W13022   6.294  34.443  13.383
41440W        W13023  34.660  36.638   1.302
41441W        W13024  32.978  41.320   3.049
41442W        W13025  24.156  41.378   9.996
41443W        W13026  43.079  31.257   2.285
41444W        W13027  24.937  13.249  11.473
41445W        W13028  10.768  32.946   0.427
41446W        W13029  39.485  35.085  10.656
41447W        W13030  32.028   6.715  14.078
41448W        W13031   5.337  23.695   1.882
41449W        W13032  17.091   7.834  13.810
41450W        W13033  33.630  14.070   2.858
41451W        W13034   7.876  20.147   4.100
41452W        W13035  44.788  28.990   4.268
41453W        W13036  33.933  35.493   0.407
41454W        W13037  17.612  26.104   0.701
41455W        W13038  42.682  12.701   3.225
41456W        W13039   3.950  10.852  13.342
41457W        W13040  28.443  27.847   4.290
41458W        W13041  43.307  41.015   3.311
41459W        W13042  40.190  29.990   4.114
41460W        W13043  37.408   7.715  14.472
41461W        W13044  22.777  24.515   0.219
41462W        W13045  38.980   4.165  13.390
41463W        W13046  20.302   1.927   1.735
41464W        W13047   6.215  43.297  13.062
41465W        W13048  36.853   7.594  12.732
41466W        W13049  35.144  41.365   0.956
41467W        W13050  32.513   6.606  13.848
41468W        W13051  43.595  44.427   3.882
41469W        W13052   9.854  38.878   2.786
41470W        W13053   0.011  30.120  11.524
41471W        W13054  26.420  10.722   1.249
41472W        W13055  39.856  18.216   3.798
41473W        W13056  33.974  24.996   1.036
41474W        W13057   4.706  11.135  13.895
41475W        W13058   9.808  36.363   2.388
41476W        W13059  21.992  15.968   3.779
41477W        W13060   1.726  33.862  13.087
41478W        W13061   9.323  38.384   2.919
41479W        W13062  34.891  16.377  14.260
41480W        W13063   1.005  24.530   4.886
41481W        W13064  17.362  37.607  11.979
41482W        W13065  19.253  26.025  10.318
41483W        W13066  38.074  36.824   1.430
41484W        W13067  24.173   4.430   4.692
41485W        W13068  23.890   4.352  10.975
41486W        W13069  36.346  30.537  14.379
41487W        W13070  17.435  37.089   0.351
41488W        W13071  11.322  34.370  12.004
41489W        W13072   6.099   2.712   1.289
41490W        W13073  37.555   5.713   0.733
41491W        W13074  33.439  17.732   4.061
41492W        W13075  28.444   3.265   4.775
41493W        W13076   7.604  33.562  13.557
41494W        W13077   7.851  37.625   3.730
41495W        W13078   3.916  26.997  14.922
41496W        W13079  12.259  19.922   4.955
41497W        W13080  17.588   6.747   4.129
41498W        W13081  28.961  44.995   0.486
41499W        W13082  42.291  32.168  10.470
41500W        W13083  17.143  18.934  13.909
41501W        W13084  34.826  36.005  13.835
41502W        W13085  10.174   1.526  12.509
41503W        W13086   5.447  13.391   4.046
41504W        W13087  33.627   4.993   3.310
41505W        W13088  13.243   1.188   5.348
41506W        W13089   7.336  36.041   0.082
41507W        W13090  37.257   7.712  13.015
41508W        W13091   6.872  29.244  13.457
41509W        W13092  20.208  22.971  10.712
41510W        W13093   4.444   9.769   4.320
41511W        W13094  17.558  32.219   0.768
41512W        W13095  14.907  29.287  10.416
41513W        W13096   5.828   9.658  12.044
41514W        W13097  22.350  16.349   3.695
41515W        W13098  33.863  21.513   4.132
41516W        W13099   7.989  22.966   3.690
41517W        W13100  11.400  26.616  12.340
41518W        W13101   4.000  12.485  12.889
41519W        W13102  15.606  19.161   0.986
41520W        W13103  11.448  28.159  14.430
41521W        W13104  31.158  41.520   0.417
41522W        W13105   5.863  28.040   0.698
41523W        W13106  19.315  41.861  14.810
41524W        W13107   2.837  27.905  14.431
41525W        W13108  29.451  38.848   3.183
41526W        W13109  17.788  10.744   1.355
41527W        W13110  27.104   3.889   1.769
41528W        W13111   5.246  33.400  12.175
41529W        W13112  10.472  25.447  13.594
41530W        W13113   9.690   2.584   0.810
41531W        W13114  21.771  30.126   4.185
41532W        W13115  36.664   6.783   1.265
41533W        W13116  34.631  43.906   0.984
41534W        W13117  13.391  24.113   1.235
41535W        W13118  30.049  16.722  11.147
41536W        W13119  17.122  13.650  14.248
41537W        W13120   9.214  25.518  10.865
41538W        W13121  30.086  25.654   2.963
41539W        W13122  26.160  32.366   2.778
41540W        W13123  15.650  31.066  11.141
41541W        W13124  26.059  14.807   0.269
41542W        W13125   0.781  28.089  11.202
41543W        W13126   6.320   6.788  12.993
41544W        W13127  30.045  16.830   4.604
41545W        W13128   8.284   5.668  12.146
41546W        W13129  26.601  12.445   1.532
41547W        W13130  37.143   2.784  13.301
41548W        W13131   3.729  20.172   1.231
41549W        W13132  43.531  41.407   3.048
41550W        W13133   6.135  32.057  11.408
41551W        W13134  24.730  39.612  12.730
41552W        W13135  22.037  40.776   0.415
41553W        W13136   9.850  28.581   2.384
41554W        W13137  40.401  39.462  11.798
41555W        W13138  37.881  25.672  12.353
41556W        W13139  31.161  35.188   1.006
41557W        W13140   5.282  38.862  11.490
41558W        W13141  37.134  19.712   0.936
41559W        W13142  16.145  36.565  10.756
41560W        W13143  14.160   2.193   4.724
41561W        W13144  18.078  28.788  11.202
41562W        W13145  18.422   5.142  14.858
41563W        W13146   9.934  22.975  10.404
41564W        W13147  19.680  39.416   4.086
41565W        W13148  44.360   9.023  14.588
41566W        W13149  36.516  13.519   5.138
41567W        W13150  24.124   9.845   2.201
41568W        W13151  35.340  38.020   3.128
41569W        W13152  32.696   0.466   4.638
41570W        W13153  15.740  25.613  10.176
41571W        W13154   7.951  28.558   3.518
41572W        W13155  13.370   7.142   1.457
41573W        W13156  12.229  11.437   3.342
41574W        W13157  12.688   9.050   3.175
41575W        W13158  32.719   2.804  14.278
41576W        W13159  10.864  24.521   4.305
41577W        W13160   7.563  24.001   2.612
41578W        W13161  38.922  35.817  11.497
41579W        W13162  29.855  34.211  11.177
41580W        W13163  43.341   2.664   2.026
41581W        W13164  25.270  34.066  13.910
41582W        W13165  31.673  22.228   4.543
41583W        W13166  41.888   9.858  10.759
41584W        W13167  31.135   5.621   3.650
41585W        W13168  27.861  15.562   0.013
41586W        W13169  31.575  28.011  11.988
41587W        W13170  21.618  10.894  14.905
41588W        W13171  16.149  41.563  11.531
41589W        W13172  40.573  24.505   0.321
41590W        W13173  37.343  20.021   2.842
41591W        W13174  41.249   4.364   1.622
41592W        W13175  34.801  24.118   0.611
41593W        W13176  16.938   3.212  11.362
41594W        W13177  40.082  13.671   4.207
41595W        W13178   7.279  16.170   0.442
41596W        W13179  12.757  26.579   1.752
41597W        W13180  26.425  13.299   2.892
41598W        W13181  39.192  31.097  11.441
41599W        W13182   5.726   4.065   3.224
41600W        W13183  13.109   3.002   0.327
41601W        W13184   3.766   4.263   2.892
41602W        W13185  41.769  11.403   1.321
41603W        W13186  36.664  18.251  12.569
41604W        W13187   6.355  16.139  12.803
41605W        W13188  31.110   0.492   2.349
41606W        W13189  22.521  38.603   2.777
41607W        W13190  25.794  22.569   1.319
41608W        W13191  19.202  40.885  13.977
41609W        W13192  24.427  43.832  11.625
41610W        W13193  40.006  44.795   4.556
41611W        W13194   0.822   8.701   9.399
41612W        W13195  34.906   6.655  12.156
41613W        W13196   0.233  10.791   3.108
41614W        W13197  38.859  21.956  14.717
41615W        W13198  34.517  17.340   1.226
41616W        W13199  30.409  35.304   4.171
41617W        W13200   7.401  37.451  12.642
41618W        W13201  15.171  20.713   3.581
41619W        W13202   5.003  16.236  13.740
41620W        W13203  18.268  36.310  12.385
41621W        W13204  12.714   2.728   0.501
41622W        W13205  24.139  33.534   3.733
41623W        W13206  31.342  44.391   2.991
41624W        W13207  13.068  15.732  12.454
41625W        W13208   6.650  41.297   3.366
41626W        W13209   0.216  41.658   2.834
41627W        W13210  17.287   6.376  12.231
41628W        W13211   4.129  17.717  12.018
41629W        W13212  28.654  11.339  11.504
41630W        W13213  40.104   8.485   0.277
41631W        W13214  18.870  27.877   2.443
41632W        W13215  27.253   5.832  12.394
41633W        W13216   5.490  34.913   4.179
41634W        W13217  31.784  34.378  11.069
41635W        W13218   9.457   4.374   0.282
41636W        W13219   7.348   3.972  14.988
41637W        W13220  37.899   4.477   4.199
41638W        W13221  27.896   1.945   3.720
41639W        W13222  13.236  10.304   1.346
41640W        W13223   1.206   9.529   0.553
41641W        W13224  32.318  44.861   2.268
41642W        W13225  18.547  16.633   0.342
41643W        W13226  37.177  30.217   2.295
41644W        W13227  21.146  33.606   0.219
41645W        W13228   6.270  42.999  10.642
41646W        W13229  44.846  12.438   1.272
41647W        W13230   7.424  37.851  11.856
41648W        W13231  30.339  33.513   1.610
41649W        W13232  26.209  36.833   0.332
41650W        W13233  39.008  14.386   4.825
41651W        W13234  35.353   2.546  13.033
41652W        W13235  16.491  17.868  13.181
41653W        W13236   7.082  21.160   4.618
41654W        W13237   3.804  13.759   0.341
41655W        W13238   0.273  20.226   3.890
41656W        W13239  40.013   7.273  14.073
41657W        W13240  24.501  15.787   1.778
41658W        W13241   2.066  24.476   3.758
41659W        W13242  13.145  16.397   3.729
41660W        W13243  24.259  25.604   1.895
41661W        W13244  39.594  21.613  12.361
41662W        W13245  14.169  35.576  10.288
41663W        W13246  17.605  10.763  13.902
41664W        W13247  19.675  10.376   4.636
41665W        W13248   0.655  15.176  11.977
41666W        W13249  28.006  32.171  14.861
41667W        W13250  41.916   3.138  13.848
41668W        W13251  26.995  23.605   4.248
41669W        W13252  34.374  15.554   3.163
41670W        W13253  13.670  28.708  11.995
41671W        W13254  11.596   1.829   0.717
41672W        W13255  11.356  25.999  14.733
41673W        W13256  14.618  19.787   1.327
41674W        W13257   9.545  43.938  12.491
41675W        W13258  38.448  25.025  14.871
41676W        W13259  14.744  13.507  12.021
41677W        W13260  29.607  18.653  14.264
41678W        W13261  35.008  13.901  14.365
41679W        W13262  29.178  29.879   0.788
41680W        W13263  10.599   9.339   1.442
41681W        W13264   5.500  36.461   3.288
41682W        W13265  25.530  23.003   0.377
41683W        W13266  10.823   7.715  12.612
41684W        W13267  13.627   8.256   4.938
41685W        W13268  38.450  19.061   0.689
41686W        W13269  15.822  12.114   2.655
41687W        W13270  29.681   9.029  14.562
41688W        W13271  40.336   9.745   2.427
41689W        W13272  42.287  39.930   1.830
41690W        W13273  12.798  44.245  11.642
41691W        W13274  12.262  10.608  12.357
41692W        W13275  42.967   6.204   4.119
41693W        W13276  32.375  41.826   3.339
41694W        W13277  13.682  23.528  10.358
41695W        W13278  39.273  18.974   4.089
41696W        W13279  22.136  31.126   0.932
41697W        W13280   9.394  23.606  13.763
41698W        W13281  22.983   9.026   0.289
41699W        W13282   2.844  18.203  14.838
41700W        W13283   5.958   8.156   1.738
41701W        W13284  42.109  34.587  14.931
41702W        W13285  11.277   4.184  11.733
41703W        W13286   6.448  25.148  13.843
41704W        W13287   1.382  15.481  14.877
41705W        W13288  30.167  37.267   1.425
41706W        W13289  34.324  30.547  11.833
41707W        W13290  42.264  27.158   2.317
41708W        W13291  18.984  25.839  10.750
41709W        W13292  21.152  26.125  12.133
41710W        W13293  26.473   4.392   1.899
41711W        W13294   3.352  29.238   1.416
41712W        W13295  26.200  12.836   0.808
41713W        W13296  11.432  35.201   0.942
41714W        W13297  11.831  37.592   3.658
41715W        W13298   9.863  39.544  11.882
41716W        W13299  15.799  17.788   4.421
41717W        W13300  33.994   0.242  12.201
41718W        W13301  33.583  31.623  12.554
41719W        W13302   6.454   9.013  13.224
41720W        W13303  10.496  43.014   2.879
41721W        W13304  36.553  16.264   3.649
41722W        W13305  40.283  30.152   1.252
41723W        W13306  44.943  29.622  11.428
41724W        W13307  20.337  35.891  13.878
41725W        W13308  31.148  21.586  14.894
41726W        W13309  19.837  27.670   1.706
41727W        W13310  38.545  37.071  11.261
41728W        W13311   6.448  32.841  14.120
41729W        W13312  21.355   3.880   3.325
41730W        W13313  20.193  16.510  12.587
41731W        W13314  10.185  33.907  11.064
41732W        W13315  21.584  36.056  10.418
41733W        W13316  17.751  43.146  11.261
41734W        W13317  39.478  42.999   3.395
41735W        W13318  37.619  16.726   4.926
41736W        W13319  12.222   2.684   1.216
41737W        W13320  26.267  43.045  10.982
41738W        W13321   6.815  13.679  12.027
41739W        W13322  23.989  33.457   3.219
41740W        W13323  43.233  37.476   4.045
41741W        W13324  14.886  23.507  13.991
41742W        W13325   3.683  34.976   1.220
41743W        W13326  11.678  15.224  14.950
41744W        W13327   4.931  20.407   0.694
41745W        W13328  28.106  15.382   2.697
41746W        W13329  34.134  19.203  12.117
41747W        W13330  18.545  24.413   1.660
41748W        W13331  29.296   5.845  11.352
41749W        W13332  34.270  13.821  11.924
41750W        W13333  33.780  36.367  14.551
41751W        W13334  21.655  41.278   1.796
41752W        W13335   8.042  30.612   3.634
41753W        W13336  28.096  40.308   1.419
41754W        W13337  30.519   2.888   2.298
41755W        W13338  15.418  28.620  11.384
41756W        W13339  29.988  29.312  12.114
41757W        W13340  39.932   1.322  10.979
41758W        W13341   5.751  32.450   3.823
41759W        W13342  25.899  42.246  11.963
41760W        W13343  17.307  27.701  13.300
41761W        W13344  35.544  21.685   3.568
41762W        W13345  38.589  44.488  13.487
41763W        W13346  29.029  30.231   3.574
41764W        W13347  26.566  43.956   2.528
41765W        W13348   3.087  30.021  12.023
41766W        W13349  11.875  18.652   0.309
41767W        W13350  38.822  21.564  13.681
41768W        W13351  11.378  42.955  14.336
41769W        W13352  14.865  18.587  14.812
41770W        W13353  34.811  31.084  13.053
41771W        W13354  36.601   6.099  13.882
41772W        W13355  11.749  16.814  14.708
41773W        W13356  14.257  27.225   0.723
41774W        W13357   1.005  37.366   4.057
41775W        W13358  39.751   1.228  14.031
41776W        W13359  24.595  41.748  14.381
41777W        W13360  39.230  23.099  13.564
41778W        W13361  38.859  16.889  10.752
41779W        W13362  31.078   2.859  14.989
41780W        W13363  11.795  23.368   3.634
41781W        W13364  25.053  10.323   0.993
41782W        W13365  24.950  38.515  11.144
41783W        W13366  13.125  29.805   0.942
41784W        W13367  44.622  18.177  12.866
41785W        W13368  30.800  17.106  12.706
41786W        W13369   2.390  42.371  12.101
41787W        W13370  25.730  21.615   4.300
41788W        W13371  26.801   4.410  14.817
41789W        W13372  19.195  31.941   2.161
41790W        W13373  40.563  28.424  13.950
41791W        W13374  20.588  10.977   2.120
41792W        W13375  23.710   6.844  11.577
41793W        W13376   7.189  11.403   1.698
41794W        W13377   2.759  34.467   2.117
41795W        W13378  32.475  17.976  14.866
41796W        W13379  40.585  41.483  11.969
41797W        W13380  26.655  13.560  13.656
41798W        W13381  16.112   4.111  11.759
41799W        W13382  16.008  14.640   4.644
41800W        W13383  18.504  23.331  11.090
41801W        W13384  41.874  28.521   3.231
41802W        W13385   6.975   0.251   0.478
41803W        W13386   3.293  19.252  11.962
41804W        W13387  35.836  15.662  10.576
41805W        W13388  38.881  19.309  12.503
41806W        W13389  38.841  43.966  12.631
41807W        W13390  11.342   6.196  13.854
41808W        W13391   5.349  17.764  11.868
41809W        W13392  28.421  34.646   4.662
41810W        W13393  44.108  26.023   2.551
41811W        W13394  12.578  18.306  12.002
41812W        W13395   7.401   4.849  11.149
41813W        W13396   4.789  25.958   3.061
41814W        W13397  26.006  27.075  13.757
41815W        W13398   5.954  28.030  14.648
41816W        W13399  31.522  40.172   1.876
41817W        W13400  16.260  27.445   3.174
41818W        W13401  20.110  17.483  12.332
41819W        W13402  35.860  11.137   2.254
41820W        W13403  25.566   4.836   0.363
41821W        W13404  25.936  29.137  13.403
41822W        W13405   2.925  37.610  14.246
41823W        W13406   4.060   9.223   2.883
41824W        W13407   9.777  43.097   1.271
41825W        W13408  20.150  11.309  12.784
41826W        W13409  27.667   9.294   0.027
41827W        W13410  37.586  38.824  14.966
41828W        W13411   1.048  28.985   1.296
41829W        W13412  27.701   9.196  11.528
41830W        W13413  17.300  23.175  12.318
41831W        W13414  33.613   6.593   2.317
41832W        W13415   5.608   9.485  14.326
41833W        W13416  22.697  21.567  12.055
41834W        W13417  39.060   8.720  13.883
41835W        W13418  25.287   1.248  11.393
41836W        W13419  16.096  21.322  10.394
41837W        W13420  41.349   9.965   1.839
41838W        W13421  27.747  10.207   1.513
41839W        W13422  36.984  42.792  11.239
41840W        W13423   9.038  19.189   3.143
41841W        W13424  41.863  34.588  12.517
41842W        W13425   6.550  11.887  10.260
41843W        W13426  36.538   5.913   0.956
41844W        W13427   2.637  17.994   2.891
41845W        W13428   8.052  17.344   1.890
41846W        W13429  23.347  40.340   0.415
41847W        W13430  36.940   2.398   4.784
41848W        W13431   8.364  31.843   0.380
41849W        W13432   9.315   5.985   0.814
41850W        W13433  17.126  11.766   3.214
41851W        W13434  32.043  37.472  10.708
41852W        W13435  16.524  18.645  12.606
41853W        W13436   7.716   6.324  10.705
41854W        W13437  19.841  26.592  12.194
41855W        W13438   2.512  14.491  12.149
41856W        W13439  27.467  36.685   1.517
41857W        W13440  35.370   2.202   0.688
41858W        W13441  27.669  41.279  12.561
41859W        W13442   8.841   7.633  14.407
41860W        W13443   7.876   2.842   4.067
41861W        W13444  27.457   5.594   0.234
41862W        W13445  30.048   0.272   0.813
41863W        W13446  17.632  10.654   0.343
41864W        W13447  43.826  44.024   1.685
41865W        W13448  26.097  19.677  10.988
41866W        W13449  16.022  11.663  14.022
41867W        W13450   8.106   6.691   0.833
41868W        W13451  39.130   2.363  10.368
41869W        W13452  44.761  20.311   3.051
41870W        W13453  39.226   6.346   0.920
41871W        W13454  20.272   9.723  13.714
41872W        W13455  14.800  28.537   3.082
41873W        W13456   1.276  23.040  14.604
41874W        W13457   9.266  30.129   2.814
41875W        W13458  35.440   7.169   1.666
41876W        W13459   9.095   0.866  13.466
41877W        W13460  19.430  40.708  13.031
41878W        W13461   3.787  15.485   3.057
41879W        W13462  42.412  16.798   3.294
41880W        W13463  44.357   3.853  11.943
41881W        W13464   8.880   7.293  12.965
41882W        W13465   5.376  38.922   2.600
41883W        W13466  20.216   4.332  12.848
41884W        W13467  23.163   4.371  12.459
41885W        W13468  15.234  12.251   4.377
41886W        W13469  41.445  19.238  12.366
41887W        W13470  35.071  17.785  13.491
41888W        W13471  11.451  28.999  11.524
41889W        W13472   0.834  29.068  10.151
41890W        W13473  18.978  20.767   2.372
41891W        W13474  11.273  21.600   0.720
41892W        W13475  37.340  29.004   3.386
41893W        W13476  17.528  12.215  10.668
41894W        W13477  32.693  18.592  12.307
41895W        W13478  40.001  37.013   2.191
41896W        W13479   8.373  31.401   5.060
41897W        W13480  38.569  36.680   0.535
41898W        W13481   0.185   8.129   1.781
41899W        W13482  27.393   8.946  13.306
41900W        W13483  13.481  14.827   1.637
41901W        W13484  15.158  24.719   3.899
41902W        W13485   0.839  14.729  11.808
41903W        W13486  34.613  32.247   0.979
41904W        W13487  28.577  23.742   1.262
41905W        W13488  34.275  31.917   4.991
41906W        W13489  12.680   2.201   0.372
41907W        W13490  35.157  14.563   2.278
41908W        W13491   4.427  35.177   2.736
41909W        W13492  17.070  19.750  14.864
41910W        W13493  44.795  19.039   0.812
41911W        W13494  29.153  36.105   1.302
41912W        W13495  33.604  32.244  11.590
41913W        W13496  36.290  44.259   0.273
41914W        W13497   4.818   9.993   4.579
41915W        W13498  24.432   4.976   9.824
41916W        W13499   0.721   0.278  14.327
41917W        W13500  24.654  39.302   1.203
41918W        W13501  36.016  19.263   3.238
41919W        W13502   9.336   1.420  11.945
41920W        W13503  29.218   9.243   1.511
41921W        W13504  16.186  29.767  13.555
41922W        W13505  18.799   7.737   1.853
41923W        W13506  21.340  29.404  11.927
41924W        W13507  38.291   1.476   2.356
41925W        W13508   2.466  44.427  13.794
41926W        W13509  30.553  12.717  10.685
41927W        W13510  39.728   9.827   4.400
41928W        W13511  20.869  41.797  12.534
41929W        W13512  10.427  18.729  14.433
41930W        W13513   8.053  22.546  13.079
41931W        W13514  19.996  37.992   4.444
41932W        W13515  37.373  30.925  10.545
41933W        W13516  40.393  11.210  12.785
41934W        W13517  17.134  31.957  12.055
41935W        W13518   5.742  40.092   2.351
41936W        W13519  24.785  38.920   0.802
41937W        W13520   2.602  14.751  11.408
41938W        W13521   4.241   2.007   1.639
41939W        W13522  41.869  17.070  12.144
41940W        W13523  21.068  33.604   3.218
41941W        W13524  34.379  43.895   3.696
41942W        W13525  23.035  19.812   1.024
41943W        W13526  15.046   0.232  11.132
41944W        W13527  11.895  15.703  14.957
41945W        W13528  33.410  32.921   0.444
41946W        W13529   5.774  40.851   1.826
41947W        W13530  24.925   1.273  11.775
41948W        W13531   0.974  23.926  11.116
41949W        W13532  36.422  15.214   3.705
41950W        W13533   2.945  33.837   3.541
41951W        W13534  14.995  15.631   1.385
41952W        W13535   1.473  40.110   0.671
41953W        W13536  43.000  42.804   4.077
41954W        W13537  27.502  42.975   0.383
41955W        W13538   2.249  17.186  11.961
41956W        W13539  26.084  35.135  14.858
41957W        W13540  33.292   5.928   3.329
41958W        W13541   6.113  19.486   1.431
41959W        W13542   7.618  39.371   3.153
41960W        W13543   2.712   4.695  11.106
41961W        W13544  17.167  32.920  13.326
41962W        W13545  34.884   6.213  12.414
41963W        W13546  14.598  19.289   3.865
41964W        W13547  23.459   5.759  10.651
41965W        W13548  33.319  27.674  14.116
41966W        W13549  44.544  16.824  13.596
41967W        W13550   8.147   3.682  13.960
41968W        W13551  23.661  41.482   3.320
41969W        W13552  28.213  35.171   1.627
41970W        W13553  44.803  11.742   3.241
41971W        W13554  21.778  26.938   3.683
41972W        W13555  11.314  31.011  13.850
41973W        W13556  20.280  15.128   1.141
41974W        W13557  43.361  13.371  13.430
41975W        W13558  25.486  10.582   0.789
41976W        W13559   1.494  36.441   1.111
41977W        W13560  28.120  17.774  12.354
41978W        W13561  30.139  37.973  14.935
41979W        W13562   4.420  12.522  10.466
41980W        W13563  14.329  37.818  11.453
41981W        W13564  40.442  36.708   0.420
41982W        W13565  25.060  13.981   2.909
41983W        W13566  26.796  38.667  11.961
41984W        W13567  10.232  37.932   3.655
41985W        W13568  40.916   1.310   0.944
41986W        W13569  27.989  25.951   3.690
41987W        W13570  15.748  16.741   0.443
41988W        W13571  12.770  27.205  14.261
41989W        W13572  39.061   4.355   4.494
41990W        W13573  33.271  12.758  10.720
41991W        W13574   2.378   1.797   1.372
41992W        W13575  43.570  36.139   1.313
41993W        W13576  22.070  30.484   3.948
41994W        W13577   0.957  18.028  14.814
41995W        W13578  28.410  12.773   1.989
41996W        W13579   8.659  40.095  14.808
41997W        W13580  35.403  42.519   4.518
41998W        W13581  40.963  37.834  12.641
41999W        W13582   6.156   3.985   2.338
42000W        W13583  22.886  35.106   0.818
42001W        W13584  44.774  44.313   1.984
42002W        W13585  35.244  33.798  11.696
42003W        W13586   2.322   1.786   4.565
42004W        W13587   8.474  20.323  10.839
42005W        W13588  29.932  42.399   1.237
42006W        W13589  36.599  19.640   0.929
42007W        W13590   1.947  11.869   1.505
42008W        W13591  11.777   4.135   2.606
42009W        W13592  17.443  14.964   4.121
42010W        W13593   0.440  14.367   3.122
42011W        W13594  33.794  35.005   0.173
42012W        W13595  34.057   0.166   4.165
42013W        W13596  28.900  12.124  12.033
42014W        W13597   3.875   9.151   3.360
42015W        W13598  13.407   0.859   0.446
42016W        W13599  24.801  41.977  13.965
42017W        W13600  19.782   1.238   0.800
42018W        W13601   0.443  17.602   2.458
42019W        W13602  15.597  23.756  13.007
42020W        W13603   4.966  44.787   3.750
42021W        W13604   6.709  44.399  10.623
42022W        W13605   4.274  37.933   4.671
42023W        W13606  44.295  18.355   4.609
42024W        W13607   0.840  15.320  13.703
42025W        W13608   9.449  23.546   4.132
42026W        W13609  16.531  26.120   1.841
42027W        W13610   5.835  17.145   4.543
42028W        W13611  11.423  27.686  13.842
42029W        W13612   4.581  42.460  10.517
42030W        W13613  25.455  25.928  11.130
42031W        W13614  30.506  21.006   3.676
42032W        W13615  43.762  20.988  14.849
42033W        W13616  27.534  33.395  12.389
42034W        W13617  31.872  42.493   2.934
42035W        W13618  29.246  40.775   1.477
42036W        W13619  43.425  10.479  13.913
42037W        W13620  12.069  20.633  11.995
42038W        W13621  31.765  24.666   2.555
42039W        W13622  40.327   1.366   2.236
42040W        W13623   5.353  19.132   4.895
42041W        W13624   5.898  39.940  14.021
42042W        W13625  37.333   8.828   3.522
42043W        W13626  30.395  19.565  11.216
42044W        W13627   5.960  25.574  11.127
42045W        W13628  11.275   1.088  11.926
42046W        W13629  40.498  19.936  10.612
42047W        W13630  44.010  28.216   0.437
42048W        W13631   5.788  19.136  10.439
42049W        W13632  25.540  13.094  14.068
42050W        W13633  39.984  22.589  14.286
42051W        W13634  34.146  32.566   3.429
42052W        W13635   7.337  43.336   0.398
42053W        W13636  44.370   7.974  12.437
42054W        W13637   4.401  38.229   0.356
42055W        W13638  28.340  32.684  14.000
42056W        W13639  22.336  21.140  13.655
42057W        W13640  13.100  17.859   2.317
42058W        W13641  17.068   2.775   4.640
42059W        W13642  38.537   0.763  10.098
42060W        W13643  33.665  43.066  14.836
42061W        W13644  42.790  12.275   0.404
42062W        W13645  21.051   4.736   2.824
42063W        W13646  31.568  19.086  12.883
42064W        W13647  41.503  40.547   2.604
42065W        W13648  24.261  42.770   1.414
42066W        W13649  10.101  19.811   2.756
42067W        W13650  19.217  41.880   1.445
42068W        W13651  34.324  14.342  11.949
42069W        W13652   1.895  28.177   0.869
42070W        W13653  25.291  39.083   2.285
42071W        W13654  31.095   1.801  10.873
42072W        W13655  16.358   1.111   3.897
42073W        W13656  20.743  16.654  13.802
42074W        W13657  36.421  27.907  14.266
42075W        W13658  42.261  13.630   1.453
42076W        W13659  31.447  41.642   2.708
42077W        W13660  16.544  12.222  12.468
42078W        W13661  43.525  37.307   2.789
42079W        W13662  36.853  33.851  14.459
42080W        W13663  29.374  28.782  11.542
42081W        W13664  21.822   1.211   4.628
42082W        W13665  11.105  20.471  13.489
42083W        W13666  18.533  28.588  10.659
42084W        W13667  42.296   4.016  14.857
42085W        W13668  15.743  30.806  14.710
42086W        W13669  27.386  16.245   2.387
42087W        W13670  11.092   9.957  10.754
42088W        W13671   0.211  39.574  11.960
42089W        W13672  22.515  13.697  13.443
42090W        W13673  20.156  12.759  12.318
42091W        W13674  24.136  17.857  14.729
42092W        W13675  36.937  14.120  12.016
42093W        W13676  20.510  25.081  12.020
42094W        W13677  43.871  33.801   1.259
42095W        W13678  44.568  37.809   0.817
42096W        W13679  36.583  33.204  12.344
42097W        W13680  20.523   6.540   4.951
42098W        W13681   8.842  39.268   4.577
42099W        W13682  26.721  35.391  12.562
42100W        W13683  30.597   4.744  12.858
42101W        W13684  35.335  35.009   2.752
42102W        W13685   2.341  31.051   3.147
42103W        W13686  13.643  22.965  13.714
42104W        W13687  37.243   9.146  11.937
42105W        W13688  16.731  16.021  14.355
42106W        W13689  24.603  13.489  11.159
42107W        W13690  41.736  10.289   3.307
42108W        W13691   9.379  24.651  14.927
42109W        W13692  21.104  36.860  10.698
42110W        W13693  29.217  37.087  13.984
42111W        W13694  17.740  32.868  14.421
42112W        W13695  26.515  38.677   5.179
42113W        W13696  42.671  20.457  12.019
42114W        W13697  27.144  39.606  14.074
42115W        W13698  27.137  37.880  14.321
42116W        W13699  33.033  28.550  14.917
42117W        W13700  17.195  11.836   2.530
42118W        W13701  17.137  33.439  11.503
42119W        W13702   8.267  39.539  12.123
42120W        W13703  11.322  29.124   1.297
42121W        W13704   0.614  40.990  13.935
42122W        W13705  33.716  26.594   2.358
42123W        W13706   5.399  19.016  11.572
42124W        W13707  39.705   9.316   4.396
42125W        W13708  23.450  13.321   3.610
42126W        W13709   1.818  39.031  14.953
42127W        W13710  24.628  15.874  12.542
42128W        W13711   1.672  25.713   0.368
42129W        W13712  15.192   0.931   1.597
42130W        W13713  39.880  38.766   3.196
42131W        W13714  32.073  28.494  10.696
42132W        W13715  25.373   7.416  13.536
42133W        W13716   7.383  21.812  10.843
42134W        W13717   9.633  20.527  12.002
42135W        W13718  24.579  17.958  11.189
42136W        W13719  17.087  12.350   4.071
42137W        W13720   3.690  28.863  13.368
42138W        W13721   0.091  20.262   0.006
42139W        W13722  33.147  18.051  11.522
42140W        W13723  23.228  16.008   1.162
42141W        W13724  26.898  18.171   3.981
42142W        W13725  14.635  32.447   3.181
42143W        W13726  34.738  40.336   3.231
42144W        W13727  39.292  11.199   3.324
42145W        W13728  25.189  38.783  13.618
42146W        W13729  10.513  25.894  11.193
42147W        W13730  14.495  35.458   5.111
42148W        W13731  18.797  16.896   0.729
42149W        W13732  22.058  41.296   2.348
42150W        W13733  22.191   0.952  14.302
42151W        W13734  24.488  34.342   3.361
42152W        W13735   6.303  30.788   1.187
42153W        W13736   7.225  16.661   2.623
42154W        W13737  14.835  30.612  10.844
42155W        W13738  17.173  29.393   3.242
42156W        W13739  31.746  30.945  14.752
42157W        W13740  44.871  27.913  14.485
42158W        W13741   7.795   3.329   4.953
42159W        W13742  30.523   4.279  13.087
42160W        W13743  25.899   5.062  13.406
42161W        W13744  41.902  38.723   3.753
42162W        W13745   7.344   4.468  14.470
42163W        W13746  11.827   1.681  10.854
42164W        W13747  11.359  44.441   4.330
42165W        W13748   6.272  40.569  14.042
42166W        W13749  42.979  17.246   2.928
42167W        W13750  28.137  36.445   3.850
42168W        W13751  18.059  41.025   1.830
42169W        W13752  29.545  43.197  10.458
42170W        W13753  22.456  28.080   5.061
42171W        W13754  35.912   8.569  14.307
42172W        W13755  31.434  25.205   2.791
42173W        W13756  21.635  13.647   3.670
42174W        W13757  29.289  15.861   4.195
42175W        W13758  10.924  12.431  14.477
42176W        W13759  16.099  17.724   1.378
42177W        W13760   5.213   4.024   2.756
42178W        W13761  22.224  43.884  12.960
42179W        W13762   3.922  11.253   0.974
42180W        W13763   8.742  30.142   2.820
42181W        W13764  13.188  14.676   2.946
42182W        W13765   0.539   1.745  11.648
42183W        W13766   5.388  42.588  12.232
42184W        W13767  31.606   2.309  12.420
42185W        W13768  15.216  14.754   1.686
42186W        W13769  25.853   6.394  13.775
42187W        W13770  44.953  29.085  12.678
42188W        W13771  26.835  20.188   4.247
42189W        W13772  29.217  44.330  14.813
42190W        W13773  39.133  12.399   1.688
42191W        W13774  15.755  15.148  14.834
42192W        W13775  26.708   8.229   3.809
42193W        W13776  12.493  42.872  10.675
42194W        W13777  33.501  13.114  10.423
42195W        W13778  34.992  39.855  10.621
42196W        W13779  25.053   7.915  14.460
42197W        W13780  24.013  28.267   4.235
42198W        W13781  27.456  21.246   1.139
42199W        W13782   6.228  12.613  12.389
42200W        W13783   8.913  20.248   2.181
42201W        W13784  30.426  15.128  12.823
42202W        W13785  38.484  28.710   1.907
42203W        W13786  31.047   3.231  11.039
42204W        W13787  16.161   3.600  14.563
42205W        W13788  39.541  44.911  13.381
42206W        W13789   3.239  33.147   3.209
42207W        W13790   3.465  25.226  12.506
42208W        W13791  43.801  10.340   3.236
42209W        W13792   9.153  25.627   2.345
42210W        W13793  44.568   3.487   4.464
42211W        W13794  11.107  37.503  13.354
42212W        W13795  24.188  28.208   1.833
42213W        W13796  30.987  43.954   2.761
42214W        W13797  25.513  39.480   1.082
42215W        W13798  34.825  20.792  10.664
42216W        W13799  22.466  34.638   2.400
42217W        W13800  33.444  37.935   4.206
42218W        W13801  38.933  30.464  14.052
42219W        W13802  32.243  21.305   5.067
42220W        W13803  22.733  43.939  10.938
42221W        W13804  38.597   7.231  13.609
42222W        W13805  23.607  18.542   3.709
42223W        W13806  27.061  44.511   1.988
42224W        W13807  13.387  26.943  11.095
42225W        W13808  43.529   9.098  10.771
42226W        W13809   7.934  21.463  14.789
42227W        W13810  39.002  20.728   2.826
42228W        W13811  20.698  14.669   0.379
42229W        W13812  25.160   3.292   1.450
42230W        W13813  32.089  11.930  14.294
42231W        W13814  21.437  21.020   2.450
42232W        W13815   6.849  24.456  11.168
42233W        W13816  13.355  33.925   3.886
42234W        W13817  37.342  43.836  12.168
42235W        W13818  15.981   8.747   4.218
42236W        W13819  26.803  23.016   2.782
42237W        W13820  15.249   2.500  10.649
42238W        W13821  16.232  13.561  14.558
42239W        W13822  34.117   9.815   1.968
42240W        W13823  37.921  31.492  11.658
42241W        W13824   0.926  38.633   2.380
42242W        W13825  32.019  44.506  11.135
42243W        W13826   7.924  16.797   4.612
42244W        W13827  43.181  22.002  14.402
42245W        W13828  11.556  43.187   4.496
42246W        W13829  23.234  22.442   0.439
42247W        W13830  42.930  38.389   0.243
42248W        W13831   3.699  10.752   4.430
42249W        W13832  16.004  15.618   1.292
42250W        W13833  22.530  32.030   4.018
42251W        W13834   6.720  33.246   4.608
42252W        W13835  25.037   2.079   3.117
42253W        W13836  33.754  17.346   3.277
42254W        W13837  15.564   4.578  11.014
42255W        W13838  20.710   9.399  13.511
42256W        W13839  39.324   4.488  10.725
42257W        W13840  36.016   0.844  14.504
42258W        W13841  36.909  28.524   1.198
42259W        W13842  31.603  44.576   0.370
42260W        W13843  22.538  21.454   2.670
42261W        W13844  13.596  40.107  12.179
42262W        W13845   8.324  30.547  14.026
42263W        W13846  18.034   3.964   2.368
42264W        W13847  38.398  33.487   2.878
42265W        W13848  12.275  44.201  12.095
42266W        W13849  30.026  39.421  13.892
42267W        W13850  12.539   2.505  11.643
42268W        W13851   5.820  18.658  13.027
42269W        W13852  17.001  33.034  11.819
42270W        W13853  30.462  12.182   4.132
42271W        W13854   6.673  17.707  14.925
42272W        W13855  40.090  15.351   3.301
42273W        W13856   8.384  41.358  12.542
42274W        W13857  13.279  30.909  12.427
42275W        W13858  22.429   0.905   3.053
42276W        W13859  44.407  22.983   1.004
42277W        W13860  36.620  10.465   2.542
42278W        W13861  23.429  36.420  11.861
42279W        W13862  41.981  15.696  14.073
42280W        W13863   3.480  27.455   1.403
42281W        W13864  30.908  35.354   1.426
42282W        W13865   8.870  11.582   2.749
42283W        W13866   6.416  41.423   4.328
42284W        W13867  24.640  41.477  12.686
42285W        W13868   7.831   7.776  13.996
42286W        W13869  37.067  11.416   4.527
42287W        W13870  25.826  35.104   4.441
42288W        W13871  12.111  28.136  12.499
42289W        W13872  33.878  19.105   3.973
42290W        W13873  35.134  19.577  11.553
42291W        W13874  27.987  21.285   3.684
42292W        W13875  23.123  20.526   0.162
42293W        W13876  44.947  31.866   3.889
42294W        W13877   4.732  42.270   4.712
42295W        W13878  10.690  33.957   3.902
42296W        W13879   3.948   6.707   2.756
42297W        W13880  18.214  42.544   0.456
42298W        W13881  15.339  16.252   0.046
42299W        W13882  30.760  14.114  12.590
42300W        W13883  26.464  33.136   3.610
42301W        W13884  27.574   2.242   4.579
42302W        W13885  27.645   8.704   1.813
42303W        W13886  19.507  28.437  13.622
42304W        W13887  19.190  34.820   4.654
42305W        W13888  29.200  44.906   4.154
42306W        W13889  13.260  14.041   3.193
42307W        W13890   5.906   2.260   1.074
42308W        W13891   2.727  35.393  12.880
42309W        W13892   2.081  35.083   3.302
42310W        W13893   6.741  12.227  14.950
42311W        W13894  16.570   0.397  12.006
42312W        W13895  43.610   7.221   1.978
42313W        W13896  15.262  18.252   2.711
42314W        W13897  37.513  12.348   4.719
42315W        W13898  31.033  38.154  12.653
42316W        W13899  15.604  18.126  11.030
42317W        W13900  25.961  24.046  13.927
42318W        W13901  30.700   2.971  11.621
42319W        W13902   0.007  25.349  12.049
42320W        W13903  24.055  24.643  11.193
42321W        W13904  11.107  36.202   0.802
42322W        W13905   8.727  24.586   3.921
42323W        W13906  17.562   5.861   1.174
42324W        W13907   2.424  10.336  14.026
42325W        W13908  26.682   1.388  10.625
42326W        W13909   1.617   9.791   2.366
42327W        W13910  30.533  20.165   2.256
42328W        W13911  17.161  15.615   2.638
42329W        W13912   3.375  16.249   3.142
42330W        W13913  23.103   2.721  10.564
42331W        W13914  37.009  43.945  10.570
42332W        W13915  17.242  14.889  13.070
42333W        W13916  42.449  44.873  14.868
42334W        W13917   8.926  12.265  12.952
42335W        W13918  20.522   9.958  12.878
42336W        W13919  36.566  11.817   9.861
42337W        W13920  10.670  12.270   1.711
42338W        W13921   8.513   6.362   0.325
42339W        W13922  31.505  39.919  11.380
42340W        W13923  18.749  43.013   4.591
42341W        W13924  10.704  20.518  12.144
42342W        W13925  30.223  27.198  11.971
42343W        W13926  32.728  42.140  13.466
42344W        W13927  18.562  43.541   2.660
42345W        W13928  29.694  21.923  12.996
42346W        W13929  37.948  23.685   1.437
42347W        W13930  17.781  16.165   2.298
42348W        W13931  31.166  43.430  11.828
42349W        W13932  19.443  35.361  12.612
42350W        W13933   3.345   9.704  11.045
42351W        W13934  16.422   9.834  14.804
42352W        W13935   5.972  42.365   2.133
42353W        W13936  39.274  30.984   0.810
42354W        W13937  41.898  13.537   2.757
42355W        W13938  37.752  24.719   3.265
42356W        W13939  44.027  33.032  10.675
42357W        W13940  16.342  40.422  10.720
42358W        W13941  20.165   6.665   4.594
42359W        W13942  33.891  11.812  12.017
42360W        W13943  20.073  34.079   1.006
42361W        W13944   9.134  42.871  13.864
42362W        W13945  40.660   7.144  14.988
42363W        W13946  23.236  29.191   0.988
42364W        W13947  36.162  38.529   1.930
42365W        W13948  21.239  38.015  14.957
42366W        W13949  28.738  32.883  12.634
42367W        W13950  17.358  36.881  11.149
42368W        W13951   9.399  26.561  10.666
42369W        W13952  23.174  39.611   1.169
42370W        W13953  39.778   7.466   1.277
42371W        W13954  28.775   1.371   1.883
42372W        W13955  11.291  12.442  11.190
42373W        W13956  30.321  28.656   3.794
42374W        W13957  40.207  40.620   2.683
42375W        W13958  38.525   9.354  10.448
42376W        W13959  12.817  31.383  14.192
42377W        W13960  26.152  28.101  11.610
42378W        W13961  11.343  36.702  11.974
42379W        W13962  18.241  22.412  13.959
42380W        W13963  28.437  33.539  10.319
42381W        W13964   3.799  39.129   3.531
42382W        W13965  27.685  19.508   4.088
42383W        W13966  37.016  22.466  12.799
42384W        W13967   9.484  28.836   2.708
42385W        W13968  27.109  25.676   1.909
42386W        W13969  35.913  21.652   0.844
42387W        W13970  38.609  20.177   4.042
42388W        W13971  21.973   8.156  14.905
42389W        W13972  43.520   7.335   5.070
42390W        W13973  36.838   8.105   3.171
42391W        W13974   5.860  16.277  12.929
42392W        W13975   0.353  35.635   3.180
42393W        W13976  11.563  20.185   0.807
42394W        W13977   1.128  40.988  13.889
42395W        W13978  18.723   0.890  11.038
42396W        W13979  17.120  11.880  10.704
42397W        W13980  18.746  18.077   4.697
42398W        W13981  39.650  22.567   3.216
42399W        W13982  10.842  32.307   1.837
42400W        W13983  38.777  33.102   1.963
42401W        W13984  21.104  14.094   1.971
42402W        W13985  21.019  21.909   1.267
42403W        W13986  38.775  33.527  10.216
42404W        W13987   1.584  15.771   3.227
42405W        W13988   9.831   9.664  13.473
42406W        W13989  42.052  32.781   3.147
42407W        W13990  10.780  36.980  11.250
42408W        W13991   3.523  40.764  12.935
42409W        W13992  24.417  26.309  13.723
42410W        W13993  36.455  21.001   3.970
42411W        W13994  41.355  20.921  14.863
42412W        W13995   1.212   8.097   0.353
42413W        W13996  29.998  22.616  10.179
42414W        W13997  42.259  34.899  10.510
42415W        W13998  41.003  33.366  11.616
42416W        W13999  17.864  30.324  14.517
42417W        W14000   7.528  16.337   4.740
42418W        W14001  16.370  33.599   2.255
42419W        W14002   1.204  14.028   1.905
42420W        W14003  28.730  39.286   4.190
42421W        W14004  39.312  11.932  11.137
42422W        W14005  41.838  19.119   2.699
42423W        W14006  22.654   7.431   0.201
42424W        W14007  15.082  13.691   2.220
42425W        W14008  42.035  37.969   4.712
42426W        W14009  12.296  19.851  12.437
42427W        W14010   5.278  37.640  10.069
42428W        W14011  27.232  19.279  14.833
42429W        W14012   6.787  30.489   0.271
42430W        W14013   5.892  14.749  14.484
42431W        W14014  40.433  23.686   3.187
42432W        W14015  43.984  18.292   2.689
42433W        W14016  20.662  21.670   2.933
42434W        W14017  10.598   6.819  14.671
42435W        W14018  11.041  16.695   0.428
42436W        W14019  20.083  30.023  14.271
42437W        W14020  29.059  20.191  10.744
42438W        W14021  20.078  11.640   0.523
42439W        W14022  34.752  27.499  11.142
42440W        W14023  43.484   7.762   3.335
42441W        W14024  29.158  37.977  14.009
42442W        W14025  11.077  34.826  12.209
42443W        W14026  28.907  21.877   4.078
42444W        W14027  15.517  19.537  13.060
42445W        W14028  40.028  30.435   3.285
42446W        W14029   0.037  11.361   4.904
42447W        W14030  29.194  28.489   4.576
42448W        W14031  40.138  21.129   1.254
42449W        W14032   5.120  36.041   5.090
42450W        W14033  33.077  14.999   4.182
42451W        W14034  24.505  20.959  13.839
42452W        W14035  44.246  22.645  11.912
42453W        W14036  26.005  20.236  12.930
42454W        W14037  25.647  26.164  14.954
42455W        W14038  14.855   1.342  12.300
42456W        W14039  21.572   6.848   5.445
42457W        W14040  10.888  24.711  14.910
42458W        W14041  25.471  13.888  10.670
42459W        W14042   3.491  40.788   0.859
42460W        W14043  17.894  10.465   2.740
42461W        W14044  44.757  22.480   0.472
42462W        W14045  34.373  44.843   3.222
42463W        W14046  10.931   9.414   0.233
42464W        W14047  39.270  36.336   1.273
42465W        W14048  15.579  34.118   1.202
42466W        W14049  28.645  28.932  11.877
42467W        W14050  18.838  24.204  12.151
42468W        W14051  17.369   7.956   3.807
42469W        W14052  17.164  10.265   4.054
42470W        W14053  41.911  22.214  12.310
42471W        W14054  40.821  35.886   3.820
42472W        W14055  33.827  18.580   4.105
42473W        W14056   2.693  19.186   0.679
42474W        W14057  42.514  22.239   1.858
42475W        W14058  22.317  41.825   2.675
42476W        W14059  27.909  14.703  13.497
42477W        W14060   5.316  21.476   1.438
42478W        W14061  10.293  40.034   0.771
42479W        W14062  37.221  44.422  12.564
42480W        W14063  16.502  19.622  13.850
42481W        W14064  38.861   2.340   1.692
42482W        W14065  25.561   6.740   4.701
42483W        W14066  16.835  17.826   3.251
42484W        W14067  19.549  20.114  14.133
42485W        W14068  18.513  19.614   0.277
42486W        W14069  37.152  11.715   2.713
42487W        W14070   5.404  25.389   2.168
42488W        W14071  27.629  29.038  10.835
42489W        W14072  35.673   8.929   3.209
42490W        W14073   3.602  30.774   3.833
42491W        W14074  35.548  13.105   4.277
42492W        W14075   8.194  25.662   2.226
42493W        W14076  29.030  42.022  12.430
42494W        W14077  25.204  37.655  14.396
42495W        W14078   1.922   6.924   4.373
42496W        W14079  14.745  41.853   4.500
42497W        W14080  17.184  37.796   2.068
42498W        W14081  12.370  44.567  11.661
42499W        W14082  36.369  25.437   1.669
42500W        W14083  10.190  19.689  14.841
42501W        W14084  19.185  39.050   1.694
42502W        W14085  42.899  28.347   3.653
42503W        W14086  20.275   3.425  12.896
42504W        W14087  37.403  36.447   4.027
42505W        W14088  23.112   7.149  13.314
42506W        W14089  34.122  22.663  14.320
42507W        W14090  41.924  34.635   1.768
42508W        W14091  37.564  43.323  12.921
42509W        W14092  28.836  16.536  14.952
42510W        W14093   5.225   0.405  13.880
42511W        W14094  27.913   0.548   1.761
42512W        W14095  27.896  10.682   4.129
42513W        W14096   7.188  26.606   3.720
42514W        W14097  44.311  42.301  12.622
42515W        W14098  15.536  17.767  10.674
42516W        W14099   1.183  39.315  13.040
42517W        W14100   5.792  41.277   0.356
42518W        W14101  27.500  41.905   1.971
42519W        W14102  24.719  12.345  11.130
42520W        W14103  25.002  14.100  10.559
42521W        W14104  16.339  22.315   0.570
42522W        W14105  27.586  19.201   1.172
42523W        W14106  24.652  27.863  14.474
42524W        W14107  36.066  38.849  11.592
42525W        W14108  21.238  12.737  14.776
42526W        W14109  29.829  26.574  13.967
42527W        W14110  30.446  22.069  13.946
42528W        W14111  36.980  22.731  14.178
42529W        W14112  41.741  16.138  12.959
42530W        W14113  13.744  37.074   1.121
42531W        W14114  20.273  20.053   5.036
42532W        W14115   3.827  23.680  14.403
42533W        W14116  39.039  41.268  14.516
42534W        W14117   5.172  23.084  14.788
42535W        W14118   3.729  26.833  14.479
42536W        W14119  17.426   2.819   0.350
42537W        W14120  42.548  24.328  11.991
42538W        W14121  31.827  32.593   4.123
42539W        W14122  10.296  18.246   3.657
42540W        W14123  33.586  14.659  10.767
42541W        W14124  40.845   3.223  11.470
42542W        W14125  13.315  39.644  13.928
42543W        W14126   8.337  15.268  13.895
42544W        W14127   9.640   7.784  13.811
42545W        W14128  15.409  35.631  12.450
42546W        W14129  29.138  10.256   3.841
42547W        W14130  16.326   5.274  12.251
42548W        W14131  43.924  12.299  12.764
42549W        W14132   4.803  36.302  13.563
42550W        W14133  18.952  25.763   4.038
42551W        W14134  23.378  14.528   2.267
42552W        W14135   3.755  37.535   3.656
42553W        W14136  36.734  11.742  11.627
42554W        W14137  15.434  32.101   4.191
42555W        W14138  34.125  18.066  11.097
42556W        W14139   7.721  27.331  10.723
42557W        W14140  38.332  15.775  12.536
42558W        W14141  11.126   1.386  13.815
42559W        W14142   6.347  24.652  12.616
42560W        W14143  18.177   7.885   0.923
42561W        W14144   0.004  20.727  13.108
42562W        W14145  39.967   7.223   4.149
42563W        W14146  33.012  37.089  14.818
42564W        W14147  31.572  17.347   0.725
42565W        W14148  16.621   5.254   1.780
42566W        W14149  30.980  13.635  13.459
42567W        W14150  10.636  33.268  10.534
42568W        W14151  32.334   0.887  13.541
42569W        W14152  21.182  11.851  13.506
42570W        W14153   3.363   6.031  12.613
42571W        W14154   0.788  23.183   4.095
42572W        W14155  44.988   9.497   0.064
42573W        W14156  31.217  15.098   3.864
42574W        W14157  30.868   0.932   2.178
42575W        W14158  29.979  31.312   1.017
42576W        W14159  36.141  13.675   1.196
42577W        W14160   3.296   1.635   0.935
42578W        W14161  11.348  33.134   3.229
42579W        W14162   1.092  12.874  11.982
42580W        W14163  37.467  23.942  10.730
42581W        W14164  33.523  37.386  13.512
42582W        W14165  31.602  31.448  11.937
42583W        W14166  24.575   3.964  14.028
42584W        W14167  34.383  31.655   1.815
42585W        W14168  37.440  33.560  12.723
42586W        W14169   8.394  37.808   0.968
42587W        W14170  16.577  30.035   2.625
42588W        W14171  25.221  19.754  13.042
42589W        W14172  39.093  15.316   1.356
42590W        W14173   8.430  28.552  11.112
42591W        W14174  29.825  39.612   4.678
42592W        W14175  30.573  34.108  11.175
42593W        W14176  30.626  24.913  12.613
42594W        W14177  16.178   2.687   1.306
42595W        W14178  36.388  44.751   0.372
42596W        W14179   9.452  14.822   1.013
42597W        W14180  40.849  27.022  10.682
42598W        W14181   2.191   2.578   2.201
42599W        W14182  26.573  22.710   4.359
42600W        W14183  27.015  12.775  10.513
42601W        W14184  29.856  19.023   2.030
42602W        W14185   0.896  22.524  14.881
42603W        W14186  11.886  14.250   1.337
42604W        W14187  33.968  39.012   4.020
42605W        W14188   9.247  10.938   2.263
42606W        W14189  23.267   9.981  14.303
42607W        W14190  29.170   1.333   3.307
42608W        W14191  44.700   1.339  10.460
42609W        W14192  42.202  42.989  10.823
42610W        W14193  20.043   2.521  12.568
42611W        W14194  43.170  43.726  12.139
42612W        W14195   7.818  24.584   4.447
42613W        W14196  23.004  28.957   3.363
42614W        W14197   3.849   3.979   1.081
42615W        W14198   2.151  42.069   4.065
42616W        W14199  27.220   4.057   0.454
42617W        W14200  37.570  35.177  12.887
42618W        W14201  19.050  36.619  11.071
42619W        W14202  13.408  39.797   4.160
42620W        W14203  12.340  13.208   2.724
42621W        W14204   8.682  35.472   0.339
42622W        W14205  44.457  11.176  14.902
42623W        W14206   3.854  42.606   4.831
42624W        W14207   5.466   4.398  11.156
42625W        W14208  40.873  13.911  10.802
42626W        W14209  10.824   2.042  11.991
42627W        W14210  21.323   3.910   2.796
42628W        W14211  10.621  25.162   0.647
42629W        W14212  32.106  16.491  13.451
42630W        W14213  19.126  44.811  14.425
42631W        W14214   4.787  12.585   3.708
42632W        W14215  32.093  25.776   1.742
42633W        W14216  25.226  39.275   2.757
42634W        W14217  44.548  43.218  11.180
42635W        W14218  40.749   8.216   1.388
42636W        W14219  16.561  39.968   4.039
42637W        W14220  37.445  16.072   1.470
42638W        W14221  16.048  36.847   0.525
42639W        W14222  33.607   5.091  12.529
42640W        W14223  13.580  31.154   3.590
42641W        W14224   8.193  34.898  11.039
42642W        W14225  36.921  39.551  12.508
42643W        W14226   8.156  26.595   0.321
42644W        W14227  29.069  44.731   3.677
42645W        W14228   6.204  16.137   0.388
42646W        W14229  32.993  35.563   2.763
42647W        W14230  25.339  20.660   0.248
42648W        W14231   4.686  20.624  10.433
42649W        W14232  27.384  23.492   3.265
42650W        W14233   6.157  35.801   2.642
42651W        W14234   8.839  33.335  11.506
42652W        W14235  21.029  32.591  11.546
42653W        W14236  31.338  33.617   1.772
42654W        W14237  22.099   7.221  12.578
42655W        W14238   8.764  33.406  12.023
42656W        W14239  37.287  44.402   2.280
42657W        W14240  41.272  44.717  13.976
42658W        W14241  25.935   0.101   2.497
42659W        W14242  39.259  41.964  12.056
42660W        W14243  19.713  14.039   3.729
42661W        W14244   3.975  25.136  12.569
42662W        W14245  39.996  43.675   1.162
42663W        W14246  36.993  27.983  10.672
42664W        W14247  19.668  44.494   4.100
42665W        W14248  39.535  25.672   4.924
42666W        W14249  31.548  30.547   0.942
42667W        W14250   3.886   4.997  10.779
42668W        W14251   7.665  16.507   4.275
42669W        W14252  34.808  16.117  13.790
42670W        W14253  17.999  40.085  13.572
42671W        W14254   8.122  23.789  12.913
42672W        W14255  38.070  24.241  14.363
42673W        W14256  22.671  42.597  13.407
42674W        W14257   1.890   3.897   1.597
42675W        W14258  41.347  28.395   0.651
42676W        W14259   3.943  42.263   0.961
42677W        W14260  17.093  11.961  13.459
42678W        W14261  27.503  41.423   2.147
42679W        W14262  29.163  23.991  13.601
42680W        W14263  42.915  18.026  11.231
42681W        W14264  44.874  19.657   4.693
42682W        W14265  37.301  32.344   3.168
42683W        W14266  14.778  36.766   1.995
42684W        W14267  12.626  16.466  14.858
42685W        W14268  19.225  24.758   3.243
42686W        W14269  34.458   7.090   2.374
42687W        W14270   0.123  14.207  11.156
42688W        W14271  20.217  13.580   1.629
42689W        W14272  38.991  34.332   2.760
42690W        W14273  21.163   0.759   2.248
42691W        W14274  38.608  39.343  14.361
42692W        W14275  15.008   4.305   1.497
42693W        W14276   1.966  24.260  12.437
42694W        W14277  28.435   3.429  12.970
42695W        W14278  11.125  31.054  11.501
42696W        W14279  13.528  43.537  12.583
42697W        W14280  26.851  12.106   1.243
42698W        W14281  19.715  31.152   1.440
42699W        W14282  38.767  17.206  12.890
42700W        W14283   4.927  28.524   1.915
42701W        W14284  42.353  43.833  12.365
42702W        W14285  18.217  18.737  10.632
42703W        W14286  25.014   8.657  13.878
42704W        W14287   1.258  35.523  14.936
42705W        W14288  11.179  21.618  11.636
42706W        W14289  23.517  21.720   1.760
42707W        W14290   9.361   3.392  11.199
42708W        W14291  29.961   8.637   2.309
42709W        W14292  44.844   0.727   3.295
42710W        W14293  26.221  41.339  12.961
42711W        W14294  27.455   8.125   4.308
42712W        W14295  22.628   6.059  11.636
42713W        W14296  29.993   1.183   1.171
42714W        W14297  18.991  24.173   1.555
42715W        W14298  37.071  26.241   1.915
42716W        W14299   4.122  28.591   0.454
42717W        W14300  14.771  30.470   0.737
42718W        W14301  30.904  24.024   3.276
42719W        W14302  28.935  32.081  11.489
42720W        W14303  32.947   2.574   1.621
42721W        W14304  11.678  40.428  14.023
42722W        W14305  21.857  19.494  11.564
42723W        W14306  10.668  33.886   4.417
42724W        W14307   9.377  13.212  12.927
42725W        W14308   2.341   8.426   0.826
42726W        W14309  20.735  30.544  14.872
42727W        W14310  14.943   3.023  11.529
42728W        W14311  40.410  21.775   0.012
42729W        W14312   4.898   7.576  12.450
42730W        W14313   1.338  40.020   1.400
42731W        W14314   4.245  38.869  13.866
42732W        W14315  31.634  39.789   4.686
42733W        W14316  32.611  11.233   0.801
42734W        W14317  35.981  41.005   0.788
42735W        W14318  22.594  39.456   2.846
42736W        W14319  28.414  41.006  13.861
42737W        W14320  32.000  33.075   3.859
42738W        W14321   5.542  12.166   1.745
42739W        W14322  12.644  14.684  14.712
42740W        W14323  11.769  12.720  11.210
42741W        W14324  18.185  29.198   1.812
42742W        W14325   7.704  37.769   0.029
42743W        W14326  15.033  17.148   4.493
42744W        W14327   7.198  34.649  12.468
42745W        W14328  24.523  44.565  11.175
42746W        W14329  22.801  38.846  10.253
42747W        W14330   6.910  39.010  13.367
42748W        W14331  18.791  23.614  13.578
42749W        W14332  23.006  15.650  10.621
42750W        W14333  19.726  13.584   2.802
42751W        W14334  24.444   0.681   0.875
42752W        W14335   2.438  25.874   2.239
42753W        W14336   3.164   0.437  13.130
42754W        W14337  28.080  41.314   4.705
42755W        W14338  36.071  37.091   2.804
42756W        W14339  29.697  33.018   1.868
42757W        W14340  32.535  43.340  10.703
42758W        W14341  29.193  22.670  12.956
42759W        W14342  29.088  35.832   4.114
42760W        W14343  36.354  28.653   1.977
42761W        W14344   7.109   5.639   1.456
42762W        W14345   2.315  38.977  13.833
42763W        W14346  11.754  29.276  13.873
42764W        W14347  37.344  32.582   3.628
42765W        W14348  44.913  28.955   0.993
42766W        W14349  28.867   1.844  14.229
42767W        W14350  17.405  43.860   1.050
42768W        W14351  15.150   2.447   4.712
42769W        W14352  13.897  27.489  13.868
42770W        W14353  25.513  30.439   3.658
42771W        W14354  27.056   5.686  14.755
42772W        W14355   9.803  43.929  12.017
42773W        W14356  35.634   0.212  13.344
42774W        W14357  33.998  11.838   4.821
42775W        W14358   2.885  32.477  11.998
42776W        W14359  24.987  30.438   3.679
42777W        W14360  41.021   3.381   5.069
42778W        W14361  38.378  39.679   4.340
42779W        W14362  27.629  35.339  14.870
42780W        W14363   4.154  12.549   1.564
42781W        W14364  20.303  26.561   4.945
42782W        W14365  36.166  32.035  11.453
42783W        W14366  24.570   4.549   1.318
42784W        W14367   3.283  18.585   2.888
42785W        W14368  24.760  39.096  12.842
42786W        W14369  18.309  17.252  14.559
42787W        W14370  24.445  25.138   3.640
42788W        W14371  17.750  40.919   3.092
42789W        W14372   2.181  38.424  12.916
42790W        W14373  32.431  41.771  11.080
42791W        W14374  44.745  17.102  12.010
42792W        W14375   9.312  40.112  13.890
42793W        W14376  36.453  44.078  13.031
42794W        W14377  13.183  18.104  11.529
42795W        W14378   0.374  20.972  14.373
42796W        W14379  42.453  16.868   0.386
42797W        W14380   9.603   1.686  11.172
42798W        W14381  27.679   9.931   2.296
42799W        W14382   9.390  27.166   4.611
42800W        W14383  10.570  29.986  11.631
42801W        W14384  41.792  33.092   1.867
42802W        W14385  36.081  40.271  13.920
42803W        W14386  25.535  15.158  13.614
42804W        W14387  24.126  44.188   2.156
42805W        W14388  36.095  34.993   2.392
42806W        W14389  16.473  30.964  14.250
42807W        W14390  10.883   2.168  12.797
42808W        W14391  39.354  13.714  13.993
42809W        W14392   6.756  15.657  11.008
42810W        W14393  43.329   0.511   3.124
42811W        W14394  25.417   5.543  14.905
42812W        W14395  22.445  30.328  11.430
42813W        W14396  10.789  22.727  11.508
42814W        W14397   6.947  33.098  12.417
42815W        W14398   2.608  42.296   0.703
42816W        W14399   0.792  19.444   4.096
42817W        W14400   8.998  12.192   0.411
42818W        W14401  14.111   4.535  12.011
42819W        W14402  42.989   4.741  14.976
42820W        W14403  39.645  30.491   3.965
42821W        W14404  33.274  39.102   4.510
42822W        W14405  38.428  15.913   3.740
42823W        W14406  22.964  32.379   2.916
42824W        W14407  20.361  20.980   4.963
42825W        W14408  12.172  43.421  14.614
42826W        W14409  10.777  42.814   3.241
42827W        W14410   3.497  23.573  13.979
42828W        W14411  25.740  21.693   2.160
42829W        W14412  35.874  18.823  10.682
42830W        W14413  39.761   5.804  13.325
42831W        W14414  24.540  33.626   0.519
42832W        W14415  42.312  38.403   3.721
42833W        W14416  39.789  36.393  12.531
42834W        W14417   2.867   9.923   1.926
42835W        W14418   2.881  41.566  10.322
42836W        W14419  18.083   7.621   3.145
42837W        W14420  14.244  29.449  14.558
42838W        W14421  41.828  37.521  14.387
42839W        W14422  40.507   3.211   1.869
42840W        W14423  42.209  26.021  13.433
42841W        W14424  43.448  31.331  12.565
42842W        W14425  10.270  24.675  12.881
42843W        W14426  35.965  14.737  11.013
42844W        W14427  36.499   7.785   2.863
42845W        W14428   6.206  26.468   3.097
42846W        W14429  21.754   4.646  11.935
42847W        W14430   9.891  27.498  13.491
42848W        W14431  34.526  44.310   1.308
42849W        W14432  44.282  14.148  14.532
42850W        W14433  42.876  39.405  14.063
42851W        W14434  32.128  39.362   0.782
42852W        W14435  37.822  17.121   3.668
42853W        W14436  28.876  26.070  12.520
42854W        W14437   1.911  17.369   4.530
42855W        W14438   1.185  19.023   2.374
42856W        W14439  41.527  39.506   0.316
42857W        W14440  31.690   1.290  14.454
42858W        W14441   1.965  41.870  14.929
42859W        W14442  38.783  30.714   1.811
42860W        W14443  18.381  30.892  13.499
42861W        W14444  22.390  10.952   5.031
42862W        W14445  26.938  33.414   2.295
42863W        W14446  34.224  38.512  10.739
42864W        W14447  26.015   6.773   4.223
42865W        W14448  19.631  35.892  10.632
42866W        W14449  18.216  34.465   3.864
42867W        W14450  41.274   1.916  12.440
42868W        W14451  25.457  16.280  13.605
42869W        W14452  36.794   3.920   2.769
42870W        W14453  37.177   0.364   3.741
42871W        W14454  37.441  10.865   0.406
42872W        W14455   7.516   7.764  13.021
42873W        W14456   0.665  44.300  12.501
42874W        W14457   7.852  24.196   3.590
42875W        W14458  39.895  10.095   0.980
42876W        W14459  35.578   3.437   2.284
42877W        W14460  10.326  31.343  13.654
42878W        W14461  26.633  43.399   4.224
42879W        W14462   1.612   3.379  13.007
42880W        W14463  30.976  44.714  14.428
42881W        W14464  29.724  29.883  13.033
42882W        W14465  18.790  30.909  14.404
42883W        W14466  40.590   5.415  10.232
42884W        W14467   5.005  43.955   3.343
42885W        W14468  32.472  24.945  14.293
42886W        W14469  28.893  21.505  12.433
42887W        W14470  18.270  37.469   1.011
42888W        W14471  12.605  27.599   0.985
42889W        W14472  16.825   4.244   4.602
42890W        W14473   3.530  38.947   4.484
42891W        W14474  44.522  12.094  14.056
42892W        W14475  24.479  41.257  14.388
42893W        W14476  20.828  11.910  14.925
42894W        W14477   4.866  42.642   0.888
42895W        W14478  38.497   3.403   2.192
42896W        W14479  34.603  17.035  13.047
42897W        W14480   2.801  15.717  13.735
42898W        W14481  33.976   4.452   2.825
42899W        W14482  31.691   6.529  10.665
42900W        W14483  10.797  20.201   3.384
42901W        W14484   6.434  43.937  13.383
42902W        W14485   8.912   2.705   1.735
42903W        W14486  16.411   5.007   3.740
42904W        W14487  16.678  31.146  12.320
42905W        W14488  32.536  14.734  13.961
42906W        W14489  37.935  17.092   4.542
42907W        W14490   1.805  11.065  14.787
42908W        W14491  42.093  30.363  13.045
42909W        W14492  27.676  22.626  13.624
42910W        W14493  23.867   5.294  14.523
42911W        W14494  28.393  13.771   3.617
42912W        W14495   0.882  31.052  14.863
42913W        W14496   6.257  16.618  10.785
42914W        W14497  10.254  31.832  13.530
42915W        W14498  30.771  34.624   4.663
42916W        W14499  12.115  29.858   0.004
42917W        W14500   7.221  41.035   1.783
42918W        W14501  26.527  40.345  10.588
42919W        W14502  37.837  14.174  12.055
42920W        W14503  35.003  34.377  12.017
42921W        W14504  18.551   0.212   3.517
42922W        W14505   9.155  26.198   4.612
42923W        W14506  19.774  10.056   3.338
42924W        W14507  34.573   1.488  13.474
42925W        W14508  36.938  14.627   3.293
42926W        W14509  25.591  14.577  14.467
42927W        W14510  13.632   4.928   2.361
42928W        W14511  17.167  20.005  10.999
42929W        W14512   7.214  28.441  10.754
42930W        W14513  34.175  33.056  13.578
42931W        W14514  34.219  23.597   3.873
42932W        W14515  26.229  14.318  13.886
42933W        W14516  41.524  11.898  13.397
42934W        W14517  23.611   1.030   1.818
42935W        W14518  34.938   6.356   0.505
42936W        W14519  17.653  13.200  14.912
42937W        W14520  39.196  25.932  13.384
42938W        W14521  13.113  20.589   1.875
42939W        W14522  20.866  15.250  12.073
42940W        W14523  21.032  30.160   2.430
42941W        W14524  38.833   2.232   0.854
42942W        W14525  34.090  18.915  10.911
42943W        W14526  36.572   8.963   2.138
42944W        W14527  30.447   7.340  11.103
42945W        W14528  26.159  41.398  11.384
42946W        W14529  29.447   0.048   0.303
42947W        W14530   3.032  38.574   3.706
42948W        W14531  18.428  25.731   1.263
42949W        W14532  22.196  36.412   4.533
42950W        W14533  19.137  15.253   0.901
42951W        W14534  39.823  31.606   0.413
42952W        W14535  14.332  35.472  12.660
42953W        W14536   6.717  40.360   2.326
42954W        W14537  24.009  41.858  12.214
42955W        W14538  29.499  35.837  10.652
42956W        W14539   6.729  28.676  10.727
42957W        W14540  29.202  14.208  14.385
42958W        W14541  26.501  30.224  14.023
42959W        W14542   7.429  34.058   2.640
42960W        W14543  32.094  32.598  13.041
42961W        W14544  25.572  14.096  13.611
42962W        W14545  44.889  20.728   1.059
42963W        W14546  32.441  35.871   3.606
42964W        W14547  25.630  16.221  10.501
42965W        W14548  36.162  19.880   4.034
42966W        W14549  43.083  16.283  11.927
42967W        W14550  16.857  30.531   2.743
42968W        W14551  44.271   8.722   0.002
42969W        W14552  16.951   9.136  11.098
42970W        W14553  37.060   7.095  10.614
42971W        W14554   6.457  43.842   3.413
42972W        W14555   4.709   7.204   2.295
42973W        W14556  29.604  15.785   0.947
42974W        W14557  36.455  39.053  13.341
42975W        W14558  38.892  12.602   2.114
42976W        W14559  15.486   3.547  11.212
42977W        W14560  44.773   0.564  13.193
42978W        W14561   2.393  30.029   4.587
42979W        W14562  26.042  29.971  12.138
42980W        W14563  18.055  26.727  14.722
42981W        W14564   7.899  11.410  14.280
42982W        W14565  44.557  34.967  13.538
42983W        W14566  19.837   8.384  14.372
42984W        W14567  26.103  28.422   3.222
42985W        W14568  10.450  12.686   3.677
42986W        W14569   8.405  39.737   2.136
42987W        W14570  39.920  20.490   2.883
42988W        W14571  42.825   9.972  11.512
42989W        W14572  24.108  15.130   0.078
42990W        W14573  32.507  32.356  14.975
42991W        W14574  11.158  41.491   4.122
42992W        W14575  21.223  39.087  14.154
42993W        W14576  22.450  14.101  11.644
42994W        W14577  25.040  41.365  10.594
42995W        W14578  25.713  29.389   0.208
42996W        W14579  16.584  17.612   1.200
42997W        W14580  11.247   6.293  12.162
42998W        W14581  25.143  10.816   2.721
42999W        W14582  24.959  35.036   0.785
43000W        W14583  42.756  17.349  11.703
43001W        W14584  16.863   5.363  14.461
43002W        W14585   8.612  29.600  13.777
43003W        W14586  24.787   0.782   4.735
43004W        W14587  19.192   4.301   2.803
43005W        W14588   6.062   3.290  13.782
43006W        W14589  40.905  24.462   4.946
43007W        W14590  20.295  38.428   0.807
43008W        W14591  29.722   6.012   4.955
43009W        W14592  41.716  21.270  11.541
43010W        W14593  28.077  18.147  14.696
43011W        W14594  31.745  13.721   1.683
43012W        W14595  24.093  31.940  10.994
43013W        W14596  42.182  24.884  12.876
43014W        W14597  25.910   1.831  11.225
43015W        W14598  29.193  17.666  14.423
43016W        W14599  18.708  31.334   0.955
43017W        W14600  30.614  29.406   0.621
43018W        W14601  19.084  33.844  10.668
43019W        W14602   1.838  21.308  13.586
43020W        W14603  44.043  36.839   2.417
43021W        W14604  38.881  27.173  14.468
43022W        W14605  10.072   5.337  10.707
43023W        W14606  34.617  29.258   1.249
43024W        W14607  42.054   5.403   0.500
43025W        W14608  16.441  39.632  13.815
43026W        W14609  17.845   8.139   1.288
43027W        W14610  41.623  26.873  14.701
43028W        W14611  20.594  15.594   1.282
43029W        W14612  33.997  32.640   3.912
43030W        W14613  16.132   7.851  13.813
43031W        W14614  13.258  35.296  14.432
43032W        W14615  37.491  16.745   3.914
43033W        W14616  39.127   6.337   3.748
43034W        W14617  38.796  28.192   2.769
43035W        W14618  10.167  33.806   0.473
43036W        W14619  16.841  19.679  13.407
43037W        W14620  31.615  27.555  13.744
43038W        W14621   8.962   3.213  12.949
43039W        W14622  38.327   8.640  10.191
43040W        W14623  44.788  20.366   2.052
43041W        W14624  18.731  27.547  14.427
43042W        W14625  24.103  21.434   3.599
43043W        W14626  30.289   0.779  10.451
43044W        W14627  40.073  24.043  12.965
43045W        W14628  24.418  26.430   1.950
43046W        W14629   4.732  24.855  11.158
43047W        W14630   7.428  28.018  12.497
43048W        W14631  29.257   4.320  13.671
43049W        W14632   1.334  38.313   0.454
43050W        W14633  17.811  33.457   4.714
43051W        W14634  39.909  14.726  11.222
43052W        W14635  31.448  27.644  12.309
43053W        W14636  14.363  43.784   0.270
43054W        W14637  36.808  40.337  11.655
43055W        W14638  35.524  35.264  14.441
43056W        W14639  19.758  19.799  14.962
43057W        W14640  11.173  36.729   0.761
43058W        W14641  17.874   1.345  12.786
43059W        W14642   9.820  33.032  13.245
43060W        W14643  27.380  33.513  13.949
43061W        W14644  12.766  23.107   3.436
43062W        W14645  12.693  20.452   4.338
43063W        W14646   5.298  16.193   4.218
43064W        W14647  27.392  42.477  11.665
43065W        W14648  18.585   4.738  11.619
43066W        W14649  17.318  38.436  14.083
43067W        W14650  18.313  24.484  12.563
43068W        W14651  36.285  44.080  11.215
43069W        W14652   4.946  37.623   1.886
43070W        W14653  19.740  11.420  12.473
43071W        W14654   7.423  38.959   0.739
43072W        W14655  33.268  24.596   2.245
43073W        W14656   6.686  22.616   1.897
43074W        W14657   5.640   5.924   4.543
43075W        W14658  24.188  41.335   4.210
43076W        W14659  39.461   0.323  11.547
43077W        W14660  31.529   8.108  13.839
43078W        W14661  42.073  34.066   1.115
43079W        W14662  16.214  30.126   2.265
43080W        W14663   5.002   1.480   2.512
43081W        W14664  24.704  24.647   3.776
43082W        W14665  40.799  10.296   1.478
43083W        W14666  10.431  15.787   3.646
43084W        W14667  37.023  31.043   3.221
43085W        W14668  23.461   6.677  14.004
43086W        W14669   8.579  44.003   2.730
43087W        W14670  15.585  44.994  12.599
43088W        W14671   9.821  42.753   2.260
43089W        W14672  10.243  34.203  13.483
43090W        W14673   5.849   1.998   3.699
43091W        W14674  19.768   1.042   4.360
43092W        W14675  23.563  26.083  14.840
43093W        W14676  13.171  31.368   2.830
43094W        W14677   4.773   6.158   9.951
43095W        W14678   4.819  19.963   4.056
43096W        W14679  44.397  26.600  10.304
43097W        W14680  22.676  44.822   3.278
43098W        W14681  39.846  30.750  13.202
43099W        W14682  31.415  29.058  11.077
43100W        W14683  41.788   2.935   0.211
43101W        W14684  33.130  20.251  11.066
43102W        W14685  32.422  11.228   4.220
43103W        W14686  19.469   1.422   1.739
43104W        W14687  29.506  31.166   3.158
43105W        W14688  24.007   7.449  11.147
43106W        W14689  41.049  28.165  13.946
43107W        W14690  33.123   5.993   3.830
43108W        W14691  18.078  34.689  11.341
43109W        W14692  31.623  42.707  14.371
43110W        W14693  18.267   7.346  13.325
43111W        W14694  34.124  44.855  13.135
43112W        W14695  34.437  19.594   4.686
43113W        W14696  25.262  35.411  13.479
43114W        W14697   3.631  17.356   3.058
43115W        W14698  22.969  21.154   4.200
43116W        W14699  10.288  20.026   3.242
43117W        W14700  22.251  14.147   0.647
43118W        W14701  38.034   3.331   2.426
43119W        W14702  17.138  18.144   0.723
43120W        W14703  24.910  20.566  14.327
43121W        W14704  42.773  28.951  10.572
43122W        W14705  13.179   4.128   2.306
43123W        W14706  26.025  16.546   0.491
43124W        W14707  41.834  13.205   3.234
43125W        W14708  10.651   3.884   0.491
43126W        W14709  18.798  14.184  12.902
43127W        W14710   5.088  29.881   1.245
43128W        W14711  40.909  32.969   4.531
43129W        W14712  23.065  28.243   4.265
43130W        W14713  24.576   9.667  13.501
43131W        W14714  29.890  26.741  10.244
43132W        W14715  26.540  15.370   0.229
43133W        W14716   6.361   8.915  12.007
43134W        W14717  44.480  13.526  10.558
43135W        W14718  26.780  39.059   1.713
43136W        W14719  25.605  32.043  11.499
43137W        W14720  17.031  41.998   1.862
43138W        W14721   4.650   4.628   3.679
43139W        W14722  44.951   2.978  12.731
43140W        W14723  38.857  22.790  12.866
43141W        W14724  28.177  11.751  12.170
43142W        W14725  19.045  11.254   2.248
43143W        W14726  37.611  42.508   2.811
43144W        W14727  26.642  21.018  13.661
43145W        W14728   2.754  11.228  14.830
43146W        W14729  26.936   7.286  11.627
43147W        W14730   7.797  11.135   2.808
43148W        W14731  38.251  22.999  13.263
43149W        W14732  21.485  20.529   0.302
43150W        W14733  44.282  35.103   1.913
43151W        W14734   6.671   3.532   3.627
43152W        W14735  34.492  42.742   3.140
43153W        W14736  10.395  26.258  14.775
43154W        W14737  14.210  21.779  12.161
43155W        W14738  12.304  43.035  13.717
43156W        W14739  40.774  26.593   1.275
43157W        W14740  39.103  18.861   1.272
43158W        W14741   4.765  19.801   2.344
43159W        W14742  25.571  13.756   0.921
43160W        W14743  39.273  35.431  13.520
43161W        W14744  32.854  19.952  11.389
43162W        W14745  35.855  41.946   0.894
43163W        W14746  26.988  38.479  12.875
43164W        W14747  41.993  16.243  13.381
43165W        W14748  14.826   0.442  10.720
43166W        W14749  19.679  20.761  14.981
43167W        W14750  28.902  24.336  14.330
43168W        W14751  43.320  26.893  13.050
43169W        W14752  22.158  39.880   3.397
43170W        W14753  16.222   2.924  13.486
43171W        W14754  19.074  44.180  11.256
43172W        W14755  23.785   2.250   0.778
43173W        W14756   3.711  38.634  12.739
43174W        W14757  40.476   4.557  11.633
43175W        W14758  44.397  19.524  12.073
43176W        W14759  18.319  28.640   3.220
43177W        W14760  38.982  28.670  14.335
43178W        W14761  31.068   5.796   1.761
43179W        W14762  15.539   0.817   0.747
43180W        W14763  22.682  21.114  12.340
43181W        W14764  26.505  30.137  10.808
43182W        W14765  38.515  29.942   2.233
43183W        W14766   9.639  17.627   3.271
43184W        W14767  20.825  28.066   4.584
43185W        W14768  36.583   0.062  14.904
43186W        W14769  22.429  10.320  12.750
43187W        W14770  12.910  41.519  11.287
43188W        W14771  38.553  31.867   2.294
43189W        W14772  21.533  37.092  14.936
43190W        W14773   4.891  23.673  13.002
43191W        W14774   5.925   1.376  11.191
43192W        W14775  36.052   0.733   2.453
43193W        W14776  12.862  10.534  13.585
43194W        W14777  39.030  33.489  14.946
43195W        W14778  39.090  28.037   3.186
43196W        W14779   3.519  25.475  14.236
43197W        W14780  20.102   7.171   4.701
43198W        W14781   3.471   4.938   4.903
43199W        W14782   1.830  31.256  11.684
43200W        W14783  13.728  15.020   4.352
43201W        W14784  44.729  11.778   4.102
43202W        W14785  25.197  34.646  11.182
43203W        W14786   0.409  28.595  10.616
43204W        W14787   0.542  44.853   1.784
43205W        W14788  23.394  33.640   2.227
43206W        W14789  12.054   1.473   0.710
43207W        W14790  40.963  38.613  13.865
43208W        W14791   3.362  14.101  11.740
43209W        W14792   2.324  15.652   2.772
43210W        W14793  26.487  38.618  10.171
43211W        W14794  10.877  27.384   4.105
43212W        W14795  10.095  15.965  13.119
43213W        W14796  20.329  16.801  11.670
43214W        W14797   6.348  36.011   9.880
43215W        W14798   8.682  19.239   1.882
43216W        W14799  37.902   1.721  11.511
43217W        W14800  41.572   2.987   3.733
43218W        W14801  28.750  27.422  11.130
43219W        W14802   7.434  20.625  11.734
43220W        W14803  15.353  31.162  13.877
43221W        W14804  38.251  18.340   4.522
43222W        W14805  14.834  39.038   2.096
43223W        W14806  16.015  13.802   1.696
43224W        W14807  30.529  40.592  10.777
43225W        W14808  36.701  44.460  11.690
43226W        W14809   7.651   7.148  11.508
43227W        W14810   4.107  38.312   0.804
43228W        W14811  44.862  18.806  14.277
43229W        W14812   8.767  17.110   3.217
43230W        W14813  36.109  17.381  11.604
43231W        W14814  31.460  26.166   2.136
43232W        W14815   6.495  32.803   3.715
43233W        W14816  36.414  38.961   3.114
43234W        W14817  35.034  35.973  10.346
43235W        W14818  22.163  43.816   1.520
43236W        W14819  27.690  17.553  12.190
43237W        W14820  32.480   7.849   4.576
43238W        W14821   5.468  44.381   2.683
43239W        W14822  38.156   8.445  13.275
43240W        W14823  34.337   5.961  13.887
43241W        W14824  15.210  32.843   0.565
43242W        W14825  44.541  16.736   1.474
43243W        W14826   5.750  13.064   3.776
43244W        W14827  11.472  38.143  12.148
43245W        W14828  37.587  29.906  13.476
43246W        W14829   6.395  30.043   2.364
43247W        W14830   9.299  40.531  13.579
43248W        W14831  39.011   2.831  10.647
43249W        W14832   2.392  15.696   0.729
43250W        W14833   0.161  14.354   2.698
43251W        W14834  22.486  10.436  10.644
43252W        W14835  12.630  25.551  14.684
43253W        W14836  42.147  31.478  13.878
43254W        W14837  38.083  38.324  14.566
43255W        W14838  26.223  37.501   2.862
43256W        W14839   7.106  34.124  14.320
43257W        W14840  26.548  10.156   9.546
43258W        W14841   7.724   4.178  14.626
43259W        W14842  10.332  15.800  11.616
43260W        W14843  37.756  43.049   3.301
43261W        W14844   8.728  26.100   1.835
43262W        W14845  33.444  20.853  13.762
43263W        W14846   7.946  41.511  11.627
43264W        W14847   7.120  35.883   3.632
43265W        W14848   2.917  42.478   4.597
43266W        W14849   6.267  16.084  14.328
43267W        W14850   1.240  32.328  11.993
43268W        W14851  24.027  32.601   3.890
43269W        W14852   2.415  28.854   3.158
43270W        W14853   2.627  31.015  14.220
43271W        W14854  31.903  17.123  14.324
43272W        W14855  14.355  16.755   3.567
43273W        W14856  11.094  13.818  14.522
43274W        W14857  38.497  36.177  13.460
43275W        W14858  21.487  22.734   3.336
43276W        W14859  29.399  39.113   0.376
43277W        W14860  36.030   3.623  10.410
43278W        W14861   5.636  39.628  13.301
43279W        W14862   8.873  34.172  13.866
43280W        W14863  25.965  15.884   4.150
43281W        W14864   1.451  12.247  13.808
43282W        W14865   8.892   7.093  14.397
43283W        W14866  30.830   1.727   0.322
43284W        W14867  16.675  18.038  14.932
43285W        W14868  23.046  42.016  13.453
43286W        W14869  25.882  30.997   4.189
43287W        W14870  28.976  16.324  10.749
43288W        W14871  21.260  30.953   2.795
43289W        W14872  22.125  18.490   4.146
43290W        W14873  41.416  37.914  14.857
43291W        W14874  16.759  16.127   2.171
43292W        W14875  34.244  26.029  12.060
43293W        W14876  29.612  43.926   3.166
43294W        W14877  30.518  19.402  12.935
43295W        W14878  40.257  29.860  13.326
43296W        W14879  40.950  36.633  13.408
43297W        W14880  24.225  34.598  10.306
43298W        W14881  13.664   7.413  11.231
43299W        W14882  29.454   8.197  12.018
43300W        W14883  29.664  29.788   2.744
43301W        W14884  18.587  37.633   3.230
43302W        W14885  30.664   2.798  13.809
43303W        W14886  35.378   4.211   2.761
43304W        W14887  17.651   7.984  10.654
43305W        W14888  39.260   9.132   4.201
43306W        W14889   9.887  37.581  10.240
43307W        W14890  39.869  27.891  13.485
43308W        W14891  20.088  12.802  10.838
43309W        W14892  38.234  42.512   0.945
43310W        W14893   2.247  22.231  14.738
43311W        W14894  28.589  10.341  11.592
43312W        W14895  40.783  30.937   4.507
43313W        W14896   4.870  33.645   0.326
43314W        W14897  15.659  42.055   4.049
43315W        W14898  21.222  18.466   3.655
43316W        W14899  43.133  30.383  13.629
43317W        W14900  33.657  23.622   2.994
43318W        W14901  37.640  12.801   0.955
43319W        W14902  15.642   0.964   1.870
43320W        W14903   5.891  15.172  13.403
43321W        W14904  43.373  18.450   3.330
43322W        W14905  32.584   0.812  10.145
43323W        W14906  28.948  25.137  12.342
43324W        W14907   0.914  37.626  12.686
43325W        W14908   7.867  25.448  11.421
43326W        W14909  20.845  35.924  13.786
43327W        W14910  31.587  43.215   1.408
43328W        W14911   3.463  33.436  13.110
43329W        W14912  36.643  16.638   4.463
43330W        W14913  42.933  22.829  13.479
43331W        W14914   0.828  10.079   2.689
43332W        W14915  40.377   2.445  12.532
43333W        W14916  43.469  42.962   0.377
43334W        W14917  14.323  17.594   1.772
43335W        W14918   3.867   1.770   1.908
43336W        W14919  44.694  31.635  14.316
43337W        W14920  34.826  27.752   5.026
43338W        W14921  14.747  29.169   0.277
43339W        W14922   6.648  20.772   0.348
43340W        W14923   0.223   2.197   0.417
43341W        W14924  39.618  32.009   2.221
43342W        W14925  18.214  24.974   3.756
43343W        W14926  40.442  42.276   0.932
43344W        W14927  38.074  10.639   4.134
43345W        W14928   5.936  30.511  14.773
43346W        W14929   3.323   2.654   2.687
43347W        W14930  28.636  39.943   0.168
43348W        W14931  42.726  13.769   0.950
43349W        W14932   9.346   8.691   0.069
43350W        W14933  44.875  21.784   1.824
43351W        W14934  21.239   3.489  12.962
43352W        W14935  28.154  11.045   3.847
43353W        W14936  33.443  33.780   3.602
43354W        W14937  28.052   6.805   4.284
43355W        W14938  15.813  39.904   3.383
43356W        W14939  21.600  38.598   4.410
43357W        W14940  18.945  42.440   2.717
43358W        W14941  37.539  31.945   0.938
43359W        W14942  43.499  41.364   3.921
43360W        W14943  43.355   8.867  14.828
43361W        W14944   7.662  22.704  14.363
43362W        W14945  18.061  26.026   0.941
43363W        W14946  27.620  24.807  13.265
43364W        W14947  22.569  11.957  14.754
43365W        W14948   2.831   2.439  11.358
43366W        W14949   7.425  10.863  12.787
43367W        W14950  37.020   7.273  14.961
43368W        W14951  28.454  36.355  11.076
43369W        W14952  14.838   3.945   3.864
43370W        W14953   5.234  23.003  12.058
43371W        W14954  44.868   6.760   1.908
43372W        W14955   0.975   3.460  11.145
43373W        W14956  20.064  38.933  12.185
43374W        W14957  26.813  35.361   3.440
43375W        W14958  44.512  38.764   2.280
43376W        W14959  32.654  32.452   0.891
43377W        W14960  10.205  32.303  11.068
43378W        W14961  43.458   4.663  12.555
43379W        W14962  13.559  32.592   0.745
43380W        W14963  42.780  10.311   0.837
43381W        W14964  43.808  22.004   0.240
43382W        W14965  37.902  43.650  14.212
43383W        W14966  41.882  14.064   4.143
43384W        W14967  43.392  26.882  12.535
43385W        W14968   8.236  44.365   2.334
43386W        W14969  35.051  44.330  12.387
43387W        W14970  16.681  36.807  12.486
43388W        W14971   4.694  33.923   4.567
43389W        W14972  39.724  10.219  11.444
43390W        W14973  34.089  42.013   2.790
43391W        W14974   1.979  40.836  14.408
43392W        W14975  41.029  13.584   1.294
43393W        W14976  26.552  41.902   0.177
43394W        W14977   5.017  35.096   4.180
43395W        W14978  10.626  21.284   1.825
43396W        W14979   3.998  25.754  10.702
43397W        W14980  23.968   3.550   4.925
43398W        W14981   4.879  13.991  13.784
43399W        W14982  28.012  31.453  14.408
43400W        W14983  13.638  18.797  13.165
43401W        W14984  18.834  25.285  14.424
43402W        W14985   7.364   2.831   0.909
43403W        W14986  11.178  41.672  12.176
43404W        W14987  17.297  34.922   3.244
43405W        W14988  14.801   6.799  13.999
43406W        W14989   0.040  25.777  14.287
43407W        W14990  40.337  23.505   0.242
43408W        W14991   7.628  24.978  14.370
43409W        W14992  27.785  33.034  12.635
43410W        W14993  27.601  11.612  12.942
43411W        W14994  35.429  15.348   3.759
43412W        W14995   0.447   3.452   4.881
43413W        W14996   8.324   4.365   3.763
43414W        W14997  19.637  22.198  12.942
43415W        W14998   0.564  26.590  13.315
43416W        W14999   4.693  28.175   2.280
43417W        W15000  43.457  26.174   1.780
43418W        W15001  26.396   1.714  14.507
43419W        W15002  30.330  21.181   0.591
43420W        W15003   0.922   9.024  11.339
43421W        W15004  23.986  33.673  12.963
43422W        W15005  22.072   5.631  14.938
43423W        W15006  40.568  16.768   1.428
43424W        W15007  39.901  26.482  12.241
43425W        W15008  21.844  15.981  12.433
43426W        W15009  20.730  16.281  14.481
43427W        W15010  44.713   2.408  14.022
43428W        W15011   1.079  28.596   0.701
43429W        W15012  14.939   7.601   0.437
43430W        W15013  20.947  18.802  10.718
43431W        W15014  36.227  29.957   2.774
43432W        W15015   0.982  28.871  11.489
43433W        W15016  18.409  24.569   4.612
43434W        W15017  19.407  20.106  12.369
43435W        W15018   1.929  20.940  14.578
43436W        W15019   9.729  43.872  10.580
43437W        W15020  22.067   3.847   3.571
43438W        W15021  11.778  35.856   3.667
43439W        W15022   6.647  24.288  12.980
43440W        W15023  43.340   7.758  11.844
43441W        W15024  19.781  36.347   4.252
43442W        W15025  18.232   3.958   3.689
43443W        W15026  43.521  27.432  13.851
43444W        W15027  37.433   3.354   0.380
43445W        W15028   3.736  12.290   1.774
43446W        W15029  34.969   9.552   2.350
43447W        W15030  27.803  36.080  13.129
43448W        W15031  23.575  13.999   0.854
43449W        W15032  17.368  37.905   0.251
43450W        W15033  14.432   9.771  12.931
43451W        W15034  12.897  39.713   0.987
43452W        W15035  10.253  15.040   2.412
43453W        W15036  34.397   1.983   0.906
43454W        W15037  11.651  29.537   3.800
43455W        W15038  23.441  23.634  12.085
43456W        W15039  26.442  14.222   4.688
43457W        W15040   8.353  31.587   2.208
43458W        W15041   1.253   8.086  11.358
43459W        W15042   2.449  37.506   2.916
43460W        W15043  31.500   5.150   0.716
43461W        W15044  35.364   8.389  10.726
43462W        W15045  13.431   9.135   4.703
43463W        W15046  10.489  24.706   3.289
43464W        W15047  15.791   4.042   3.201
43465W        W15048  32.820   4.145   1.794
43466W        W15049  19.152  26.997   0.377
43467W        W15050  36.693   3.338  12.783
43468W        W15051  33.114  11.357   0.858
43469W        W15052  22.362  37.553   3.218
43470W        W15053  12.117  41.654   1.940
43471W        W15054  18.310  30.105  14.409
43472W        W15055  32.824  26.561   3.337
43473W        W15056  44.255  32.851  11.504
43474W        W15057  29.647  41.800  14.736
43475W        W15058  37.341  43.388   0.413
43476W        W15059  10.414  14.751   2.835
43477W        W15060  14.296  16.120   0.246
43478W        W15061  40.297  41.415  11.549
43479W        W15062  18.377  31.656  12.879
43480W        W15063  15.844  11.300   2.691
43481W        W15064   4.717  34.528  11.545
43482W        W15065  21.762   4.762   0.915
43483W        W15066  40.612  17.556   3.774
43484W        W15067   0.868  22.262   4.568
43485W        W15068  32.612  10.634  12.274
43486W        W15069  11.328  37.562   2.188
43487W        W15070   2.022  11.824  12.533
43488W        W15071  16.647  16.228  13.838
43489W        W15072  16.205  34.832  12.775
43490W        W15073  25.754  26.707  12.550
43491W        W15074  10.577  32.040  12.598
43492W        W15075  14.117  44.041  13.274
43493W        W15076  33.198   7.079   0.423
43494W        W15077  39.674  37.994   1.263
43495W        W15078  10.441  44.701  11.847
43496W        W15079  34.530  34.944  12.143
43497W        W15080   9.096  25.458  12.835
43498W        W15081  25.157   8.142  13.972
43499W        W15082   7.105  14.030  14.418
43500W        W15083   3.620   4.564  11.825
43501W        W15084  38.519  26.030   1.329
43502W        W15085   4.260   6.847  14.388
43503W        W15086   6.053   4.894  12.539
43504W        W15087  36.490  32.546  11.216
43505W        W15088  20.632  25.636  14.417
43506W        W15089  29.004  11.377   4.299
43507W        W15090   0.006  28.099  14.005
43508W        W15091  33.229  42.479   3.544
43509W        W15092  15.683  27.068  11.816
43510W        W15093  44.500   3.578   3.029
43511W        W15094  10.206  30.461   1.188
43512W        W15095   3.167  13.095  12.949
43513W        W15096  39.550  44.581   3.342
43514W        W15097  20.005  21.876   1.323
43515W        W15098  33.210  36.859   0.248
43516W        W15099  18.328  40.388   1.548
43517W        W15100   2.196   1.240  11.953
43518W        W15101  32.563  11.974   2.839
43519W        W15102  18.735  17.043  13.348
43520W        W15103  19.973  31.511  12.064
43521W        W15104  35.094   4.780  13.597
43522W        W15105  32.721  13.684  13.913
43523W        W15106   2.147   8.674   0.298
43524W        W15107  13.993  38.820  10.558
43525W        W15108   2.090  28.661   0.790
43526W        W15109   7.712  28.204  14.877
43527W        W15110   0.339  23.031  11.141
43528W        W15111  26.601  42.999   1.858
43529W        W15112  19.005   3.289   1.898
43530W        W15113  38.441  10.920  14.356
43531W        W15114  17.189  21.029   1.962
43532W        W15115  13.620  16.150  11.506
43533W        W15116  29.671  40.109   4.834
43534W        W15117   1.158   9.987   2.289
43535W        W15118  41.534  43.789   4.056
43536W        W15119  10.836  20.465   2.180
43537W        W15120  34.887  37.059  11.492
43538W        W15121  24.091  17.354  10.615
43539W        W15122   4.254   2.522  12.863
43540W        W15123  33.931   5.461  11.657
43541W        W15124  10.127  13.897  13.906
43542W        W15125   1.720  41.829   2.693
43543W        W15126  31.948  10.008  13.926
43544W        W15127  18.590   4.727   0.484
43545W        W15128  16.852  28.144   3.567
43546W        W15129  42.757  31.114   0.724
43547W        W15130  31.981  26.882  13.025
43548W        W15131  37.030  24.236  10.767
43549W        W15132   3.416  11.201   4.366
43550W        W15133  41.885  42.752  14.487
43551W        W15134  11.144  22.200   1.672
43552W        W15135  17.014  38.777   4.127
43553W        W15136  30.030  17.586  13.011
43554W        W15137  13.887  38.071  12.545
43555W        W15138   1.695  23.154   1.478
43556W        W15139  19.371  28.382   4.955
43557W        W15140  28.686  15.138   1.333
43558W        W15141  33.122  29.567   4.006
43559W        W15142   5.315  25.047  12.362
43560W        W15143  14.685  19.890  14.015
43561W        W15144  16.137  27.932  12.363
43562W        W15145  28.777  32.679   3.822
43563W        W15146  13.613  41.537  10.686
43564W        W15147  25.987  40.468   4.295
43565W        W15148  39.491   9.704  13.475
43566W        W15149  16.876  33.586  11.078
43567W        W15150  13.707  13.054   3.811
43568W        W15151  40.787  25.619  11.718
43569W        W15152  37.763  16.653   1.312
43570W        W15153  13.217   0.282   2.764
43571W        W15154  37.680  19.678   1.453
43572W        W15155  15.561  19.516   4.519
43573W        W15156  33.623  13.136  11.896
43574W        W15157  22.062   7.010  14.927
43575W        W15158  34.884   6.878  11.683
43576W        W15159  39.468   8.948  14.526
43577W        W15160  13.600  34.417   2.271
43578W        W15161  26.788  16.149  12.001
43579W        W15162  20.305  38.607  10.436
43580W        W15163  44.545  37.515   1.860
43581W        W15164  40.107   8.325  12.751
43582W        W15165   6.922  43.061   3.813
43583W        W15166  27.213  13.162   4.512
43584W        W15167  35.113  25.404   2.219
43585W        W15168   9.141   2.289  14.507
43586W        W15169  19.721  34.852   5.083
43587W        W15170  31.333  22.656   5.424
43588W        W15171  26.657  27.038  11.311
43589W        W15172   8.138  14.328  13.357
43590W        W15173   4.656  22.591  13.395
43591W        W15174  27.701  42.148  12.044
43592W        W15175  26.136   0.921  13.777
43593W        W15176  38.635   1.279   3.280
43594W        W15177  36.008  39.421  13.311
43595W        W15178  37.254  30.203  12.572
43596W        W15179  44.343  24.105   4.335
43597W        W15180  32.542  21.004   4.311
43598W        W15181  40.270   8.027  10.944
43599W        W15182  40.412  39.761  14.940
43600W        W15183  14.130  12.109   2.915
43601W        W15184   6.642  31.682   1.736
43602W        W15185  43.497  41.503  11.509
43603W        W15186  19.128  22.563  11.330
43604W        W15187  40.982  11.746  11.531
43605W        W15188  30.741   8.276   3.789
43606W        W15189  27.672  38.606   0.308
43607W        W15190  39.585   7.421  12.873
43608W        W15191  20.759   0.498   3.132
43609W        W15192  11.952  31.961   9.921
43610W        W15193  17.108  28.577  10.675
43611W        W15194  23.992  24.127   4.580
43612W        W15195  10.874  21.942   4.572
43613W        W15196  31.098  37.936   4.613
43614W        W15197  27.827  11.207  14.811
43615W        W15198   7.754  28.907   4.804
43616W        W15199  22.172  27.700   5.503
43617W        W15200  34.371   3.438  14.366
43618W        W15201  40.344  17.359   2.278
43619W        W15202  37.022  29.096   0.395
43620W        W15203  44.338  24.643  11.752
43621W        W15204  28.118   6.201  14.907
43622W        W15205  10.474  31.173   2.660
43623W        W15206  19.284  35.546   2.861
43624W        W15207  31.640  39.952   0.431
43625W        W15208  13.385  16.728  14.045
43626W        W15209  19.531   2.397  11.236
43627W        W15210  10.114  12.188   2.297
43628W        W15211  32.673  23.015  11.900
43629W        W15212  29.029  37.034  14.911
43630W        W15213  17.864  33.299   3.873
43631W        W15214  22.211  11.428   3.714
43632W        W15215  10.720   8.858   3.110
43633W        W15216  17.369  34.113   0.927
43634W        W15217  39.288  19.485   4.126
43635W        W15218   1.042   7.904   2.043
43636W        W15219  33.031  29.022  14.374
43637W        W15220  33.724  11.132  10.735
43638W        W15221  35.172  43.578  13.331
43639W        W15222  18.064  40.335  12.623
43640W        W15223   9.431   0.707   0.223
43641W        W15224  12.164  29.156  11.106
43642W        W15225  35.424  18.720   0.365
43643W        W15226  40.515  36.401  13.042
43644W        W15227  15.560  41.272   4.268
43645W        W15228  23.652  35.365   1.480
43646W        W15229  35.075  33.811   2.866
43647W        W15230   7.707  14.658  11.406
43648W        W15231  27.945  10.671  10.670
43649W        W15232  34.450   0.335   3.421
43650W        W15233  39.606  19.248   3.779
43651W        W15234  29.593  10.586  14.787
43652W        W15235   6.973  31.672   0.640
43653W        W15236  36.587  15.802   2.715
43654W        W15237  38.802  11.541   0.822
43655W        W15238  29.502  22.214   2.756
43656W        W15239  34.325  14.956   4.087
43657W        W15240  38.411  37.157  12.540
43658W        W15241  28.697   5.334   3.165
43659W        W15242  41.552  42.296   3.240
43660W        W15243  31.488  40.954  13.987
43661W        W15244  19.097  19.294  10.505
43662W        W15245  35.032  30.947   0.859
43663W        W15246  13.683  32.678  13.984
43664W        W15247   8.911  36.297   2.938
43665W        W15248  35.420  34.068  12.118
43666W        W15249  20.061   7.769  12.501
43667W        W15250  10.700  25.894   4.130
43668W        W15251  17.018  36.686  13.355
43669W        W15252  39.826  18.085  11.523
43670W        W15253  27.033  15.933  13.443
43671W        W15254   2.239  14.174   4.216
43672W        W15255  30.361  20.626   1.814
43673W        W15256  15.381  37.014   3.679
43674W        W15257   4.230  19.853   0.294
43675W        W15258  41.857  18.353  12.555
43676W        W15259  25.945  12.644   3.143
43677W        W15260  39.869  27.236  11.381
43678W        W15261  11.781  34.013   3.119
43679W        W15262  23.440   8.060   1.269
43680W        W15263  28.662  37.861  10.781
43681W        W15264  15.387  36.108   4.679
43682W        W15265  11.336  34.655   0.814
43683W        W15266  26.917   1.496   1.320
43684W        W15267  10.452  36.945   1.320
43685W        W15268   7.891   5.180   2.470
43686W        W15269  23.126  36.075  13.548
43687W        W15270  25.635  30.333  13.989
43688W        W15271  21.733  22.078   3.286
43689W        W15272  31.487  24.382  14.292
43690W        W15273  41.611   1.230  14.269
43691W        W15274   4.219  17.065   0.666
43692W        W15275  44.783  38.868  10.480
43693W        W15276   2.369  29.480   1.256
43694W        W15277   6.194   2.518  14.356
43695W        W15278  13.195   2.366  12.188
43696W        W15279  12.372  30.623  13.782
43697W        W15280  27.498  15.563  13.687
43698W        W15281  43.736  18.352  12.881
43699W        W15282  35.845  17.121   3.481
43700W        W15283  17.731   4.221  11.712
43701W        W15284  11.300  39.002  14.534
43702W        W15285  41.475  29.986  13.806
43703W        W15286  29.176  19.686  11.629
43704W        W15287  15.601  21.298   2.384
43705W        W15288  30.655  38.751  12.678
43706W        W15289  30.401   7.863  11.123
43707W        W15290  31.866  33.465   2.786
43708W        W15291  41.754  11.012   2.696
43709W        W15292  23.583  18.596  11.991
43710W        W15293   3.194  15.720  14.052
43711W        W15294  19.624   9.208   1.440
43712W        W15295  41.985  13.074   1.843
43713W        W15296  19.959   2.221   1.440
43714W        W15297  32.751  36.328  10.779
43715W        W15298  33.624  22.717  11.641
43716W        W15299  11.650  36.356  13.451
43717W        W15300   1.035  11.089   2.695
43718W        W15301   5.297  25.756  13.076
43719W        W15302  28.655  37.883  12.484
43720W        W15303  26.132   2.868  14.269
43721W        W15304   3.182   8.355   0.065
43722W        W15305  15.615  16.207  12.999
43723W        W15306  12.868  37.524  11.064
43724W        W15307  20.216  26.548  12.956
43725W        W15308  21.917  20.822   0.299
43726W        W15309  32.641  23.711   0.717
43727W        W15310   4.090  17.294   2.767
43728W        W15311  34.579  34.297   3.413
43729W        W15312  15.778  43.663  12.064
43730W        W15313   6.968  24.333   4.672
43731W        W15314  29.077   1.406   1.446
43732W        W15315  30.633   8.569   2.050
43733W        W15316   9.548   7.845   0.860
43734W        W15317  30.872  44.779   3.214
43735W        W15318  34.611  22.073  12.255
43736W        W15319  33.989  27.600   4.747
43737W        W15320   0.274   7.643  11.987
43738W        W15321  33.441  27.436  13.640
43739W        W15322  32.419  42.515   2.880
43740W        W15323  40.302  36.304  13.989
43741W        W15324   0.012   7.264   1.938
43742W        W15325  33.470   4.912   4.246
43743W        W15326  27.623  40.984  11.586
43744W        W15327   1.266  23.805  12.551
43745W        W15328  34.317   6.603   2.502
43746W        W15329  24.149   0.376  12.660
43747W        W15330  40.779   3.140   0.328
43748W        W15331  10.774   2.562  12.033
43749W        W15332  12.653  16.259  13.129
43750W        W15333   5.541  12.315  11.094
43751W        W15334  39.800   5.111   2.805
43752W        W15335  22.037  18.590   1.773
43753W        W15336   7.425  23.680   1.362
43754W        W15337  10.623   3.044  12.003
43755W        W15338  36.917  40.647  12.623
43756W        W15339  12.350  27.209   0.375
43757W        W15340  32.420  25.241   0.247
43758W        W15341  13.799  42.780   3.243
43759W        W15342  27.786  32.246   4.611
43760W        W15343   1.305  26.804  14.915
43761W        W15344  22.639  30.700   2.698
43762W        W15345   0.378  17.145  13.902
43763W        W15346   6.629  12.132  14.440
43764W        W15347  14.181  40.946   4.639
43765W        W15348  14.606  20.986   4.767
43766W        W15349  35.247  24.129   0.341
43767W        W15350  16.843  33.510  12.172
43768W        W15351  35.774   8.027   3.361
43769W        W15352  20.578  21.555   4.683
43770W        W15353  43.769  39.899  12.615
43771W        W15354  27.153   8.262   3.496
43772W        W15355   0.805  33.393   4.542
43773W        W15356  41.396  11.697  12.926
43774W        W15357  39.254  37.623   1.364
43775W        W15358  42.876  12.266  10.876
43776W        W15359   8.444  29.934   0.849
43777W        W15360  25.519  28.718  13.459
43778W        W15361  44.865  24.462  11.094
43779W        W15362  25.607  33.842   0.160
43780W        W15363  34.792  40.654  11.610
43781W        W15364   3.451  23.106   2.680
43782W        W15365  14.823  42.038   2.345
43783W        W15366   5.304  13.626   3.179
43784W        W15367  20.624  17.291   3.234
43785W        W15368  18.246   4.094   2.846
43786W        W15369  38.318  35.485  12.195
43787W        W15370  22.793  21.054   1.852
43788W        W15371  21.611  18.067  14.044
43789W        W15372   6.754  31.367   4.465
43790W        W15373  13.121  17.448   2.660
43791W        W15374  42.599   4.861   0.897
43792W        W15375  25.486  15.246   3.036
43793W        W15376  35.497  27.071   2.803
43794W        W15377  43.695   3.313  11.645
43795W        W15378  10.709  38.557  13.007
43796W        W15379   4.329  30.678   1.477
43797W        W15380   7.290  34.361  10.819
43798W        W15381  44.860   4.917  14.992
43799W        W15382  15.774  42.696  14.782
43800W        W15383  13.180  28.617   5.042
43801W        W15384  43.275   1.748  12.970
43802W        W15385  10.639  39.040  13.322
43803W        W15386   4.232  42.420  12.396
43804W        W15387  19.597   2.479   2.575
43805W        W15388  20.114  30.619   2.341
43806W        W15389  27.098   6.118   2.237
43807W        W15390   7.205   6.243  10.713
43808W        W15391  43.835  39.335   1.322
43809W        W15392   9.988  43.513  13.931
43810W        W15393  37.976  39.571   0.293
43811W        W15394  41.289  35.166  12.678
43812W        W15395  42.511  36.903  13.931
43813W        W15396   3.407  22.252   1.741
43814W        W15397   8.660   5.450  11.895
43815W        W15398  17.225  15.702  12.498
43816W        W15399  11.879  27.040   0.546
43817W        W15400   1.379   5.443   3.217
43818W        W15401   2.936  32.205   2.340
43819W        W15402   8.242   3.789   4.155
43820W        W15403  13.186  17.296  11.804
43821W        W15404  39.071   6.680   4.159
43822W        W15405  16.335  35.036  13.758
43823W        W15406  12.756  35.470   2.777
43824W        W15407  32.512   2.516  13.057
43825W        W15408  12.454  44.964   3.166
43826W        W15409   2.306  13.342  13.093
43827W        W15410  39.555  30.994   2.180
43828W        W15411  23.521  36.894  13.472
43829W        W15412  17.801  21.807  12.912
43830W        W15413   8.136  37.900  13.707
43831W        W15414  35.614  34.131  11.486
43832W        W15415  21.155  12.222   4.072
43833W        W15416  43.462  41.253   2.548
43834W        W15417  33.591  27.419   3.494
43835W        W15418  43.840  11.358   0.476
43836W        W15419  24.951  41.429  13.480
43837W        W15420  42.346  40.327  13.810
43838W        W15421  25.428  33.551   2.294
43839W        W15422  10.043  13.683  14.922
43840W        W15423  14.966  33.027  13.494
43841W        W15424  16.242  35.153  10.451
43842W        W15425  31.874   9.894  11.094
43843W        W15426  21.943  43.944  12.076
43844W        W15427  40.987  44.450   2.792
43845W        W15428   3.330  14.851  11.989
43846W        W15429  42.565  41.032   3.844
43847W        W15430   8.480   4.929  12.680
43848W        W15431   3.837  42.521   2.553
43849W        W15432  40.972  42.825  12.316
43850W        W15433  23.950  21.152   3.200
43851W        W15434  21.296  29.394  11.143
43852W        W15435  36.810  42.783  13.893
43853W        W15436  40.526   8.283  11.641
43854W        W15437   9.844   7.803  13.319
43855W        W15438  19.596  18.318  11.961
43856W        W15439  26.468   5.085   2.779
43857W        W15440  11.784  34.688   1.759
43858W        W15441  44.456  27.289   0.954
43859W        W15442  19.839   5.111  11.899
43860W        W15443  37.935   7.620  10.685
43861W        W15444  11.753  25.508  10.723
43862W        W15445  11.626  23.668   2.396
43863W        W15446  41.934  30.611  14.374
43864W        W15447  30.448  19.896  12.135
43865W        W15448  11.220  12.276  14.057
43866W        W15449  42.742   4.354  10.742
43867W        W15450  38.237  32.632  12.603
43868W        W15451   0.868  31.901  12.970
43869W        W15452  26.660  15.190   3.341
43870W        W15453  36.127  35.425  11.560
43871W        W15454  13.064  35.188   0.360
43872W        W15455   0.024   3.342   4.315
43873W        W15456  34.443  18.027   4.758
43874W        W15457  29.713  13.625   2.225
43875W        W15458   8.348  36.907   2.838
43876W        W15459   3.485  19.571  12.568
43877W        W15460  19.108   6.436  14.038
43878W        W15461   1.351  17.182   3.893
43879W        W15462  30.554  29.723  12.918
43880W        W15463  38.378  13.157  10.702
43881W        W15464   0.281  39.031   1.239
43882W        W15465  26.783  23.105   4.665
43883W        W15466  41.352  42.107   1.815
43884W        W15467  36.237   7.078  10.877
43885W        W15468   4.774  44.690  14.960
43886W        W15469  22.165  10.965   0.813
43887W        W15470  26.027  12.179   0.186
43888W        W15471   6.685  26.099   4.722
43889W        W15472   8.473  10.154  13.355
43890W        W15473  20.693  41.020   1.553
43891W        W15474  27.405  20.703  11.843
43892W        W15475  20.371  37.230  13.037
43893W        W15476   7.078  11.151  13.583
43894W        W15477   9.972  12.785  14.314
43895W        W15478  27.966  42.618  13.771
43896W        W15479   1.861  11.471  12.909
43897W        W15480  26.187  27.077   0.678
43898W        W15481  44.084  34.325   4.499
43899W        W15482  41.920  25.712   3.333
43900W        W15483  21.914  18.023   4.101
43901W        W15484  18.174  32.594  10.673
43902W        W15485  40.872   4.477  11.991
43903W        W15486   5.007  16.791   2.377
43904W        W15487  11.129  36.152  14.863
43905W        W15488  13.389   6.134   3.320
43906W        W15489  27.216  30.253  13.416
43907W        W15490  11.762  19.935   4.726
43908W        W15491   9.314  37.916  14.413
43909W        W15492  21.142  36.464  12.044
43910W        W15493   8.622   7.234  11.543
43911W        W15494  35.964  22.982  11.992
43912W        W15495  29.255  37.883   0.712
43913W        W15496  25.677  41.854  13.744
43914W        W15497  28.197  43.885  14.289
43915W        W15498  42.543  12.632   2.381
43916W        W15499   7.234  36.578   1.431
43917W        W15500  34.631  11.243  10.869
43918W        W15501  23.321  36.652   1.854
43919W        W15502  22.964  22.826  12.084
43920W        W15503   0.203  44.535  12.516
43921W        W15504  20.681  17.884  12.535
43922W        W15505   4.866  43.538   1.171
43923W        W15506  25.732  40.435   1.750
43924W        W15507  28.167  30.332   1.668
43925W        W15508  36.684  33.339  13.767
43926W        W15509  18.960  43.335   2.924
43927W        W15510  40.204  12.604   0.025
43928W        W15511  24.821  38.553  10.011
43929W        W15512   0.949  15.345   2.710
43930W        W15513  11.257  18.386  11.516
43931W        W15514  10.662  39.562  10.406
43932W        W15515   4.521  42.284   0.239
43933W        W15516  24.605  30.397   2.016
43934W        W15517  34.799   4.036   4.842
43935W        W15518  42.423   2.995  13.370
43936W        W15519  42.101  22.723   4.063
43937W        W15520  35.367  15.478   0.824
43938W        W15521   2.156  19.863  12.424
43939W        W15522  14.391   3.192  13.412
43940W        W15523  43.620   6.925   0.165
43941W        W15524   7.405  30.070  14.013
43942W        W15525  44.819  19.719  14.165
43943W        W15526   9.761  23.426  10.668
43944W        W15527  34.482   4.744   2.128
43945W        W15528  18.344  16.485   3.746
43946W        W15529  10.759  33.974  11.274
43947W        W15530   5.628  34.071   4.609
43948W        W15531  35.759   2.229   0.223
43949W        W15532  30.410  32.191  14.010
43950W        W15533  20.718  30.909  10.611
43951W        W15534   1.247  28.432  13.430
43952W        W15535  40.451  32.686   3.674
43953W        W15536  23.736  23.664   4.515
43954W        W15537  18.860  27.122   4.297
43955W        W15538  21.319  37.542   3.329
43956W        W15539   3.310  33.971  11.227
43957W        W15540  10.001  14.834   3.175
43958W        W15541  28.472  25.132   4.177
43959W        W15542  18.303  15.128  11.558
43960W        W15543  43.068  26.148   2.752
43961W        W15544   4.388   4.919  10.582
43962W        W15545  15.336   2.307  12.582
43963W        W15546  32.527   5.313  10.709
43964W        W15547  29.619  11.033   2.876
43965W        W15548  34.322  37.004   3.419
43966W        W15549   6.252  28.462  10.759
43967W        W15550   8.166   9.297  12.823
43968W        W15551   0.102  44.121  11.138
43969W        W15552   0.463  25.245   0.297
43970W        W15553  15.859   9.939   3.443
43971W        W15554  25.173   2.252   4.186
43972W        W15555   7.166   4.676   1.313
43973W        W15556  21.168  19.692   2.274
43974W        W15557   9.818  17.627  14.610
43975W        W15558   6.855  41.622   4.169
43976W        W15559  35.933   1.550  13.770
43977W        W15560  42.161   9.716  14.496
43978W        W15561  15.638  19.055  11.116
43979W        W15562   7.479   3.347  12.841
43980W        W15563  20.232  29.861  11.478
43981W        W15564  22.986  36.652   4.220
43982W        W15565  11.402  36.525   1.236
43983W        W15566  24.353  13.273   2.665
43984W        W15567  38.351  44.285   3.696
43985W        W15568   0.068  37.626   3.040
43986W        W15569  32.497  18.090   2.449
43987W        W15570  37.465   2.219  14.951
43988W        W15571  38.784   5.424   9.800
43989W        W15572  27.137  36.945  13.478
43990W        W15573  12.844   1.817  10.685
43991W        W15574  21.980   8.746   0.351
43992W        W15575  44.797  31.088  11.606
43993W        W15576  32.508  33.063  13.819
43994W        W15577   3.205  21.193  13.782
43995W        W15578  31.944  17.031  11.170
43996W        W15579  31.380   3.725   4.577
43997W        W15580   3.783  26.462  13.013
43998W        W15581  19.753  29.968   3.277
43999W        W15582  21.323  18.632   4.515
44000W        W15583  19.860  38.993   0.496
44001W        W15584  15.037  36.555   0.226
44002W        W15585  43.867  27.183  12.432
44003W        W15586  20.777   8.647  12.678
44004W        W15587   6.190   4.086   1.785
44005W        W15588  38.401  11.407   4.537
44006W        W15589  17.296  15.204  12.428
44007W        W15590  35.893  30.280  12.480
44008W        W15591  17.700  41.464  14.904
44009W        W15592  13.700  39.510  13.025
44010W        W15593   9.783  22.384   1.915
44011W        W15594   5.663  24.488   4.644
44012W        W15595  35.896   8.956  11.169
44013W        W15596  24.465  39.566   3.866
44014W        W15597  17.502   2.764   2.327
44015W        W15598  42.940  28.569   4.116
44016W        W15599  28.502  15.031   2.794
44017W        W15600   3.960  36.843  12.732
44018W        W15601  14.237  26.523  13.994
44019W        W15602  14.848  30.009  12.723
44020W        W15603  35.074  11.245  10.568
44021W        W15604  32.045  18.850  12.489
44022W        W15605  30.811  22.114   0.503
44023W        W15606  30.597   7.420   3.673
44024W        W15607   4.162  29.210  12.090
44025W        W15608  37.575   5.661  12.073
44026W        W15609  38.980  35.144  14.994
44027W        W15610   6.286  13.798  12.466
44028W        W15611  23.052  17.271  11.464
44029W        W15612  21.829   8.232  12.571
44030W        W15613  42.451  13.025  12.407
44031W        W15614  36.149  38.770  10.674
44032W        W15615  43.931  41.801   0.699
44033W        W15616  33.189  33.681  12.011
44034W        W15617  43.420  29.623  14.783
44035W        W15618   8.565  27.138   3.608
44036W        W15619  36.078  25.674   2.830
44037W        W15620  37.165  19.799   1.461
44038W        W15621  39.965   4.984   9.883
44039W        W15622  10.959   2.074   2.748
44040W        W15623  16.861  30.023   0.752
44041W        W15624  30.960   5.648  14.265
44042W        W15625  15.162  23.147  13.536
44043W        W15626  39.054  17.034   5.202
44044W        W15627  16.214   7.654  12.404
44045W        W15628  35.471   5.130  13.887
44046W        W15629   0.896  43.110   4.998
44047W        W15630  22.583  40.982   0.385
44048W        W15631  12.157  28.965   4.249
44049W        W15632  31.155  35.350   1.922
44050W        W15633  44.508  43.478  12.185
44051W        W15634  44.856  28.678  11.001
44052W        W15635  10.841  38.393   3.372
44053W        W15636  26.544  22.062   2.312
44054W        W15637  12.746  13.173  14.838
44055W        W15638  25.637   9.254  14.109
44056W        W15639  14.236  43.109  11.191
44057W        W15640  35.672  39.610   3.288
44058W        W15641  35.554  12.557  13.671
44059W        W15642  24.619  42.185   2.778
44060W        W15643  38.976  42.496  12.671
44061W        W15644  31.958   1.767  14.522
44062W        W15645  27.076  28.065  10.772
44063W        W15646   1.962  15.989  11.017
44064W        W15647  27.091  23.122  12.992
44065W        W15648  19.600  33.792   4.177
44066W        W15649  11.765  11.900  12.160
44067W        W15650  24.827  16.182   2.787
44068W        W15651  39.528  44.231   0.943
44069W        W15652  37.419  32.872  10.692
44070W        W15653   3.314  28.026   4.915
44071W        W15654  11.235  36.931  11.517
44072W        W15655   2.163  38.983  10.760
44073W        W15656  43.287  38.025   1.696
44074W        W15657  31.156  24.035  14.498
44075W        W15658   9.441  34.138  13.886
44076W        W15659  31.659  16.091   2.689
44077W        W15660  44.982  39.166   4.272
44078W        W15661  18.128  32.659   0.954
44079W        W15662  29.114  27.523   2.228
44080W        W15663   6.744  35.423   0.046
44081W        W15664  15.381  18.590  11.088
44082W        W15665  19.747  42.086  11.111
44083W        W15666  41.745   7.311   1.333
44084W        W15667  28.926  12.552   1.928
44085W        W15668  32.008  31.294   3.196
44086W        W15669  15.136  26.947  10.653
44087W        W15670   7.359   9.396   2.556
44088W        W15671  30.363  28.153   0.341
44089W        W15672  14.542  20.861  10.890
44090W        W15673  13.243   1.726  11.018
44091W        W15674   8.385   2.457  12.143
44092W        W15675  41.742  44.361   3.233
44093W        W15676  10.447  15.154  12.057
44094W        W15677   4.135  26.228   2.462
44095W        W15678   9.416  15.650  11.531
44096W        W15679  33.743  24.906   1.826
44097W        W15680  18.924  27.090   1.139
44098W        W15681  19.222  27.514   2.445
44099W        W15682  40.511  36.885   1.298
44100W        W15683  44.683   0.986   3.689
44101W        W15684  38.450  16.030   1.236
44102W        W15685   3.443  26.607  12.438
44103W        W15686   6.371  18.522  12.524
44104W        W15687  21.824  41.823   2.418
44105W        W15688   0.859  27.587  10.693
44106W        W15689  24.151   7.253   5.084
44107W        W15690  21.961   3.908  10.717
44108W        W15691  11.258  35.395   1.854
44109W        W15692   5.272  32.100  11.108
44110W        W15693  36.971  42.994   4.587
44111W        W15694  41.701  10.212  12.396
44112W        W15695  35.797  37.152  11.906
44113W        W15696  23.484   7.615   2.765
44114W        W15697  38.570   5.299   5.199
44115W        W15698  26.946  36.076   0.959
44116W        W15699  25.624   2.242  12.125
44117W        W15700  24.033   6.669  14.371
44118W        W15701  26.456  23.060   2.370
44119W        W15702  13.826  25.919  12.807
44120W        W15703  21.055  19.291  14.011
44121W        W15704   6.239  31.393   3.114
44122W        W15705  13.631  19.105   4.170
44123W        W15706  32.135  16.939  12.675
44124W        W15707   0.417  12.140  11.236
44125W        W15708  27.746   8.417   4.662
44126W        W15709  10.575  38.920  13.852
44127W        W15710  30.501  20.967  12.879
44128W        W15711  32.305   8.886  11.506
44129W        W15712  39.426  38.731   3.968
44130W        W15713   8.945   0.853   0.301
44131W        W15714  36.301   9.765   1.792
44132W        W15715  37.437   8.279   0.905
44133W        W15716  24.547  31.074   0.780
44134W        W15717  36.839  43.421   4.852
44135W        W15718  36.873  40.085   4.421
44136W        W15719  36.991  17.613   1.399
44137W        W15720   1.856  18.040   3.685
44138W        W15721  11.724  35.105   1.383
44139W        W15722   6.388  12.641   2.723
44140W        W15723   7.260  38.037  13.318
44141W        W15724  36.628  25.108  13.275
44142W        W15725  37.930  44.138  14.041
44143W        W15726   1.946  34.783  13.548
44144W        W15727  28.831  34.075  14.632
44145W        W15728  19.303  26.007  11.632
44146W        W15729  13.118  41.432   1.277
44147W        W15730   2.602  33.593  13.342
44148W        W15731  26.906  40.782   2.332
44149W        W15732  21.750  29.699  14.773
44150W        W15733  34.121  34.360   4.216
44151W        W15734   6.445  44.734  11.631
44152W        W15735  35.539  13.505   3.858
44153W        W15736  20.376  35.340  14.941
44154W        W15737  36.346  34.945  11.649
44155W        W15738  39.061  16.702   1.836
44156W        W15739  33.991  12.190   1.781
44157W        W15740   3.572  28.532   0.672
44158W        W15741  44.750  15.168  12.960
44159W        W15742   3.305  12.400   3.944
44160W        W15743  21.142   3.974  12.855
44161W        W15744  25.568   8.168  14.293
44162W        W15745  30.414   2.273   1.770
44163W        W15746  33.946   0.680   4.231
44164W        W15747  18.465   9.291   2.837
44165W        W15748  17.612  10.722  13.003
44166W        W15749  28.174  16.211   0.839
44167W        W15750  20.285  26.540  13.579
44168W        W15751  27.968  30.615  10.619
44169W        W15752  16.528  31.476  14.445
44170W        W15753   3.895  31.916   5.057
44171W        W15754   0.921  34.009  13.814
44172W        W15755  38.596  39.020  12.485
44173W        W15756  14.129   1.390  14.226
44174W        W15757  28.929  19.722   1.386
44175W        W15758  32.158  24.232   0.803
44176W        W15759   7.375   9.351  14.388
44177W        W15760  26.428  26.262   5.007
44178W        W15761  39.584  44.469  14.931
44179W        W15762  11.841  24.988   0.018
44180W        W15763  32.410  27.048  11.186
44181W        W15764   1.415  23.966   1.825
44182W        W15765  12.891  40.864   3.869
44183W        W15766   6.661  44.774  13.355
44184W        W15767   7.639  21.744  12.060
44185W        W15768  15.362   9.687   3.297
44186W        W15769  23.052  17.172  14.370
44187W        W15770  38.070  19.018  10.853
44188W        W15771  11.003  17.257  13.457
44189W        W15772   4.815  16.252   3.984
44190W        W15773  42.246  34.486   1.383
44191W        W15774  36.209   8.910  11.971
44192W        W15775   8.907  42.026   4.157
44193W        W15776  40.375  36.174   3.802
44194W        W15777  16.795  33.262  10.694
44195W        W15778  25.185  40.894  12.984
44196W        W15779  41.827  13.810   1.267
44197W        W15780   2.961  14.277   2.500
44198W        W15781  32.999  35.885  14.934
44199W        W15782  21.470  19.754   5.718
44200W        W15783  26.627   4.697   5.169
44201W        W15784  29.470  19.511   0.256
44202W        W15785  10.825  11.665  13.979
44203W        W15786   2.003  10.450  13.098
44204W        W15787  32.977   1.568   1.842
44205W        W15788  43.538  41.484  13.401
44206W        W15789  39.266  31.328   3.848
44207W        W15790  28.234  31.793  12.035
44208W        W15791  42.999   8.073   5.063
44209W        W15792  28.413  17.349  13.142
44210W        W15793  38.450  37.856  14.536
44211W        W15794  44.145  25.432  12.090
44212W        W15795  25.632  11.104   4.057
44213W        W15796  24.761   8.601  13.027
44214W        W15797  28.986  41.754  12.970
44215W        W15798  17.678  15.267  13.097
44216W        W15799  31.044  10.827   4.625
44217W        W15800  33.326  20.116  11.517
44218W        W15801  18.103   5.031  10.757
44219W        W15802  37.412  11.370  13.054
44220W        W15803  16.580  11.196   2.251
44221W        W15804  37.481  34.006   4.252
44222W        W15805  18.382  13.224  11.130
44223W        W15806   9.766  26.670  13.998
44224W        W15807  43.790  26.679  10.406
44225W        W15808  31.669   6.153  12.522
44226W        W15809   7.969  41.022   3.657
44227W        W15810  35.900  33.160  14.720
44228W        W15811  30.926  26.985  13.740
44229W        W15812  29.819  14.243   4.162
44230W        W15813  14.662   2.308   4.574
44231W        W15814  34.050  32.051  10.976
44232W        W15815  10.434  20.783  14.948
44233W        W15816  23.464   3.932  11.684
44234W        W15817  35.795  24.721  12.359
44235W        W15818  37.986  30.447  12.109
44236W        W15819  42.391  44.872   1.848
44237W        W15820  16.603   2.646  10.784
44238W        W15821  25.012  19.518   2.853
44239W        W15822  37.155   6.928  12.612
44240W        W15823  25.052  31.935  12.087
44241W        W15824  10.691  35.239   4.318
44242W        W15825  10.149  35.036   2.222
44243W        W15826  27.013   7.125  12.111
44244W        W15827  41.713  44.763  14.271
44245W        W15828  29.444   0.043  12.475
44246W        W15829  24.927  36.033  12.435
44247W        W15830  31.889  18.618  14.472
44248W        W15831   4.187  16.720   4.381
44249W        W15832  16.862  42.823  11.537
44250W        W15833  33.072  23.210   1.176
44251W        W15834  38.291  39.370   2.836
44252W        W15835  20.650   4.142  10.641
44253W        W15836  33.377   3.499   3.145
44254W        W15837   3.757  18.619   1.628
44255W        W15838  33.353   6.446   3.269
44256W        W15839  26.987  33.416  13.125
44257W        W15840  37.405   7.913   2.320
44258W        W15841  32.419  26.246  13.969
44259W        W15842  43.405   3.677  12.599
44260W        W15843   9.253   3.917   4.061
44261W        W15844   0.959  29.404   3.587
44262W        W15845  16.606  41.875   1.155
44263W        W15846  33.835  18.251   2.392
44264W        W15847   1.731  10.080   3.609
44265W        W15848  41.550  16.702   1.453
44266W        W15849   6.791   3.820  14.861
44267W        W15850  41.440  18.591   3.219
44268W        W15851  12.342  34.880  14.297
44269W        W15852  17.873  32.349  14.365
44270W        W15853  29.962  36.563  13.054
44271W        W15854  25.273   4.783   1.961
44272W        W15855  42.330  27.122   4.203
44273W        W15856  14.279   5.976   0.918
44274W        W15857  40.335   6.689   5.121
44275W        W15858   8.241  34.685   2.379
44276W        W15859  39.066  11.109  12.776
44277W        W15860  21.545  18.709  12.103
44278W        W15861   2.038  37.842   2.877
44279W        W15862  10.329  23.671  11.939
44280W        W15863  37.320  41.962  13.502
44281W        W15864  16.100  37.326   2.486
44282W        W15865  37.654   8.378  13.334
44283W        W15866  31.666  10.737   4.365
44284W        W15867   0.854  37.588   0.517
44285W        W15868  14.883  21.989   2.407
44286W        W15869  40.448  12.839   3.894
44287W        W15870  12.178  11.676   2.867
44288W        W15871  14.517  39.361   3.344
44289W        W15872  30.057   4.942  10.569
44290W        W15873  21.660  12.706  10.701
44291W        W15874  39.098  16.364  11.530
44292W        W15875  23.589  39.869   4.606
44293W        W15876   6.335  40.808   1.397
44294W        W15877  11.369   0.486   3.312
44295W        W15878  16.638  36.428   3.803
44296W        W15879  27.450  37.562  10.513
44297W        W15880  16.915  21.374  14.300
44298W        W15881  35.477  24.918   4.645
44299W        W15882   3.764   0.990  12.930
44300W        W15883  12.510  32.016  12.058
44301W        W15884   7.301  16.044   2.979
44302W        W15885  10.142  35.814  12.395
44303W        W15886   2.072  21.613   0.491
44304W        W15887  37.854  11.474  13.361
44305W        W15888  12.822  29.380   2.661
44306W        W15889  36.799  12.738   3.173
44307W        W15890  19.546   7.412   2.908
44308W        W15891  40.805  17.210  11.207
44309W        W15892   7.395  18.608  14.417
44310W        W15893  44.483  23.532   1.783
44311W        W15894  31.918  37.405   1.904
44312W        W15895  23.065   8.447  14.556
44313W        W15896   8.605  32.947   1.491
44314W        W15897  18.676   0.998  13.622
44315W        W15898  21.102   9.047  10.230
44316W        W15899  20.741  27.255   0.711
44317W        W15900   0.162  34.367  11.563
44318W        W15901  39.411  34.961  12.544
44319W        W15902  24.852  23.506  13.690
44320W        W15903  12.387  14.572  11.858
44321W        W15904   1.771  38.692   4.466
44322W        W15905  44.353  44.410   3.177
44323W        W15906  36.044  38.175   1.360
44324W        W15907  18.816  11.283  11.574
44325W        W15908  19.602  30.526  13.880
44326W        W15909   3.900  23.285  11.601
44327W        W15910  32.691   5.896  13.547
44328W        W15911  29.747   4.422   4.613
44329W        W15912  25.144  30.395   0.688
44330W        W15913  27.745   6.761   3.436
44331W        W15914  39.470  14.623   4.661
44332W        W15915   2.924  10.133  13.145
44333W        W15916  12.323  18.998  12.773
44334W        W15917   5.682  35.843  13.375
44335W        W15918   0.052   5.149   2.783
44336W        W15919  10.500  13.931  14.815
44337W        W15920  42.943  22.539   1.716
44338W        W15921  37.913  42.911   0.812
44339W        W15922   4.222  33.298   4.097
44340W        W15923  19.724  28.451  10.250
44341W        W15924   2.966  29.998  10.570
44342W        W15925  15.049  12.596   3.237
44343W        W15926  36.793  10.893   2.270
44344W        W15927  24.633  29.872  10.840
44345W        W15928  31.378   8.755  13.441
44346W        W15929  44.296  11.980  10.303
44347W        W15930  27.182   4.774  14.769
44348W        W15931  16.916  29.577   3.666
44349W        W15932  35.013  18.641  11.029
44350W        W15933  23.660   2.796   2.786
44351W        W15934  41.378  11.349  14.274
44352W        W15935  21.126   3.828   2.318
44353W        W15936  33.639  21.201  12.795
44354W        W15937  44.393  15.243   3.705
44355W        W15938  41.922  38.321  11.712
44356W        W15939   8.472  32.640   0.801
44357W        W15940  41.295   6.551   2.418
44358W        W15941   1.352  37.459   3.687
44359W        W15942  43.279  39.941  12.429
44360W        W15943   1.762  29.396  14.388
44361W        W15944   0.921  25.183  13.598
44362W        W15945  34.136   2.939   3.804
44363W        W15946  38.616   9.771   1.708
44364W        W15947  38.862   9.421   0.691
44365W        W15948  12.564  42.003   4.130
44366W        W15949  19.890   0.505  11.961
44367W        W15950  23.047  22.202   0.887
44368W        W15951  28.021  27.378   0.022
44369W        W15952  14.747  38.898  10.751
44370W        W15953  41.377   6.664  13.347
44371W        W15954  17.067  42.284  13.928
44372W        W15955  35.054  40.987  13.328
44373W        W15956  22.933   4.862   4.178
44374W        W15957   2.444  14.876  13.963
44375W        W15958  42.979   8.616   4.440
44376W        W15959  39.786  18.722   2.645
44377W        W15960   5.934  30.486  11.399
44378W        W15961  37.791  31.716   0.346
44379W        W15962  36.262   0.452   3.378
44380W        W15963  35.766  40.906  11.155
44381W        W15964  26.289  32.443   1.762
44382W        W15965  39.322  24.404   2.615
44383W        W15966  20.507  14.430  12.873
44384W        W15967  40.478  13.545  10.758
44385W        W15968   8.729  29.487  14.274
44386W        W15969  43.497  27.792  14.900
44387W        W15970  18.239  17.278  10.498
44388W        W15971  39.061  11.738  14.463
44389W        W15972  23.526   2.008   2.318
44390W        W15973   9.633  39.548   1.019
44391W        W15974  17.932  33.912  13.367
44392W        W15975  32.504  16.611   2.772
44393W        W15976  23.439  41.454  12.506
44394W        W15977  43.692  28.098   4.619
44395W        W15978  26.492  33.445  10.907
44396W        W15979  37.246   9.901   1.418
44397W        W15980  15.354  32.418   4.937
44398W        W15981  34.043  30.301  14.744
44399W        W15982  26.294  19.159   1.904
44400W        W15983  18.669  43.982  10.987
44401W        W15984  18.836  15.527  12.499
44402W        W15985  33.261  39.548   2.410
44403W        W15986   4.378  26.063   4.463
44404W        W15987  33.220  21.537  12.089
44405W        W15988  36.406  17.351   0.354
44406W        W15989  14.397   2.300   1.098
44407W        W15990  41.789  29.174   0.572
44408W        W15991  39.452  27.455  12.609
44409W        W15992   9.860   5.000  12.430
44410W        W15993  16.170  25.167   2.745
44411W        W15994  37.851  21.999  13.410
44412W        W15995  40.384  35.365   1.990
44413W        W15996  20.617   5.296   0.723
44414W        W15997  37.089  41.900  12.988
44415W        W15998   6.881   1.743   0.312
44416W        W15999   8.798   4.381   0.219
44417W        W16000  41.376   4.517   1.148
44418W        W16001  19.242  13.339   0.327
44419W        W16002   8.881  18.840  10.740
44420W        W16003  44.791  22.982   2.356
44421W        W16004  33.670  26.493  12.544
44422W        W16005  22.200  25.665  12.584
44423W        W16006   7.639  32.807   1.933
44424W        W16007  31.130   1.914  14.892
44425W        W16008  40.521   4.146  10.698
44426W        W16009  28.252  16.642   2.153
44427W        W16010  31.397  13.205  10.361
44428W        W16011  32.182  22.778  11.123
44429W        W16012  20.610  42.495  13.091
44430W        W16013  35.660  13.590   2.447
44431W        W16014   0.156   0.651   3.708
44432W        W16015  21.555   4.927   2.848
44433W        W16016   5.598  20.803   9.847
44434W        W16017  40.940   0.298   0.752
44435W        W16018  13.650  21.220   2.641
44436W        W16019  40.743   1.801   0.783
44437W        W16020  38.586   4.969  13.457
44438W        W16021  35.118  42.294   0.818
44439W        W16022   6.011  27.767   2.215
44440W        W16023  37.361  29.959   4.181
44441W        W16024  22.300  35.071  14.967
44442W        W16025  34.406   2.541   0.692
44443W        W16026  37.565  30.452  14.896
44444W        W16027  20.605   8.370   3.605
44445W        W16028  12.930  10.059  11.620
44446W        W16029  24.050  20.664   1.602
44447W        W16030   6.608  31.041  14.815
44448W        W16031   7.537   3.169  10.395
44449W        W16032  15.786  30.090   1.637
44450W        W16033  13.927  32.035  13.901
44451W        W16034   4.136   6.473  10.395
44452W        W16035  15.909  42.218  12.070
44453W        W16036  12.247  23.642   1.814
44454W        W16037  27.917  13.758   0.275
44455W        W16038  32.102  22.480  12.140
44456W        W16039  35.543  27.594  11.697
44457W        W16040   3.805   2.749  12.016
44458W        W16041   2.598  27.731   1.644
44459W        W16042  32.933  26.371   0.255
44460W        W16043  35.661  38.786  12.698
44461W        W16044  40.253  24.820   0.811
44462W        W16045  37.932  37.349  13.396
44463W        W16046  23.132   0.807  14.247
44464W        W16047  23.696  27.220   1.305
44465W        W16048  25.792   3.408   1.486
44466W        W16049   9.401  33.030   3.368
44467W        W16050  32.848   5.920   2.912
44468W        W16051  12.626  26.928   2.286
44469W        W16052  34.898   0.471  10.780
44470W        W16053  17.748  13.670  10.640
44471W        W16054  44.012  41.443   4.281
44472W        W16055   4.644  42.986   3.259
44473W        W16056  43.343  44.258   1.320
44474W        W16057  12.712  17.656  11.125
44475W        W16058  41.003  21.642   3.519
44476W        W16059  28.057  16.356   0.365
44477W        W16060  24.199  19.304  12.041
44478W        W16061  19.325  26.308  12.941
44479W        W16062  38.059  25.222  13.637
44480W        W16063   4.417  28.136   4.659
44481W        W16064  44.572  20.009  10.973
44482W        W16065   6.684  20.185   4.568
44483W        W16066   8.382  39.945  14.017
44484W        W16067  15.986  29.036   0.865
44485W        W16068  33.394  20.764  12.962
44486W        W16069  23.753  39.183  14.845
44487W        W16070  23.476  42.022   3.816
44488W        W16071  43.298  40.286   2.842
44489W        W16072  27.547  13.192   2.142
44490W        W16073  25.180   5.811  14.314
44491W        W16074  44.011  30.371  14.511
44492W        W16075  12.662   9.681   0.849
44493W        W16076  22.227  37.401  12.938
44494W        W16077  34.863  28.931   3.601
44495W        W16078  39.803  25.224  14.460
44496W        W16079  20.009  13.486   4.305
44497W        W16080   9.223  38.828  11.142
44498W        W16081  17.867  41.509  13.481
44499W        W16082   6.841   9.900   4.119
44500W        W16083  20.692  31.633  11.111
44501W        W16084  19.712  39.364   3.229
44502W        W16085  24.430  12.382  10.673
44503W        W16086  31.885   3.779   4.667
44504W        W16087  22.145  12.296  10.632
44505W        W16088  20.241  24.641  13.150
44506W        W16089  30.668   0.585  11.123
44507W        W16090  16.742  28.674   2.853
44508W        W16091  22.125  37.350   0.434
44509W        W16092  28.840  33.603  10.715
44510W        W16093  33.493  33.751   0.461
44511W        W16094  16.519  39.317  10.875
44512W        W16095  34.565  12.911   2.487
44513W        W16096  37.918  41.398  10.749
44514W        W16097   4.975  11.668   1.270
44515W        W16098  13.869  18.563   2.768
44516W        W16099  38.353  44.632  13.923
44517W        W16100  38.623   2.917  12.580
44518W        W16101  16.793   6.145   4.211
44519W        W16102  29.629  37.315  14.319
44520W        W16103   0.788  39.460  14.686
44521W        W16104  28.055  26.034  13.514
44522W        W16105  25.476  31.936   4.176
44523W        W16106   8.683  43.128  11.017
44524W        W16107  11.305   6.252   1.230
44525W        W16108  39.532  20.757   0.694
44526W        W16109  13.338  18.343  11.101
44527W        W16110   2.025   8.450   3.281
44528W        W16111  15.306   6.715  12.717
44529W        W16112  21.917  17.650   0.665
44530W        W16113  23.830  20.532  13.352
44531W        W16114  28.604  19.292   1.446
44532W        W16115  20.744  24.579   4.884
44533W        W16116  10.911  40.048  10.879
44534W        W16117   3.791  24.595  13.064
44535W        W16118   5.534   3.889  12.418
44536W        W16119  14.297  39.367   0.303
44537W        W16120  28.908  18.141   3.356
44538W        W16121  25.624   2.743   2.635
44539W        W16122  34.774  21.056   0.666
44540W        W16123  39.961  17.518  14.730
44541W        W16124   7.957  17.729   4.403
44542W        W16125  13.154  27.008  13.972
44543W        W16126  24.589  39.072   0.335
44544W        W16127  37.717  28.505   2.160
44545W        W16128  37.761  35.338   3.334
44546W        W16129   2.086  41.046  12.180
44547W        W16130  29.011  13.770  14.059
44548W        W16131  31.220  44.261  11.355
44549W        W16132  19.756   1.038  11.115
44550W        W16133  31.074  29.807  12.381
44551W        W16134  27.096  29.677  12.442
44552W        W16135   8.340   8.260  14.590
44553W        W16136  19.625  17.773  11.150
44554W        W16137  11.734  26.640   0.245
44555W        W16138  40.000  36.495  13.009
44556W        W16139  44.398   8.599  13.253
44557W        W16140  26.029  13.612   3.144
44558W        W16141  23.093  40.827   4.695
44559W        W16142  28.561  27.577   2.573
44560W        W16143  35.907  38.321  10.555
44561W        W16144  21.745  44.999  11.631
44562W        W16145  10.203  42.116   0.750
44563W        W16146  24.488   3.339   3.402
44564W        W16147  41.843  25.765   1.259
44565W        W16148  19.189   1.519   2.337
44566W        W16149  31.818   5.862  11.418
44567W        W16150  34.097  41.091   3.812
44568W        W16151  28.901  17.816   4.256
44569W        W16152  39.294  17.582   3.693
44570W        W16153  25.996  21.806  13.383
44571W        W16154   1.295  43.904   0.034
44572W        W16155  14.248  42.590  13.431
44573W        W16156   8.846  38.857   3.697
44574W        W16157  25.074  43.378  14.912
44575W        W16158   4.392  32.927   4.499
44576W        W16159  28.415  32.325   3.328
44577W        W16160  18.119   4.786   3.398
44578W        W16161   3.844  33.749   2.719
44579W        W16162  14.692  16.237   1.333
44580W        W16163  44.268  29.113  13.863
44581W        W16164  40.458  44.515   4.544
44582W        W16165  26.080  35.532  11.563
44583W        W16166  43.548   3.330   3.178
44584W        W16167  22.184  27.678   2.402
44585W        W16168  29.988  43.790  12.589
44586W        W16169  38.751  40.667   1.562
44587W        W16170  13.707  41.415  11.594
44588W        W16171  21.328  37.648  14.172
44589W        W16172  28.318  19.186  13.486
44590W        W16173   6.654  38.137  10.619
44591W        W16174   9.136  29.005  14.974
44592W        W16175  23.175  41.537  13.597
44593W        W16176  44.313  26.471   4.635
44594W        W16177  21.773  16.584  14.808
44595W        W16178  26.815  15.194  11.702
44596W        W16179  13.677  23.276  10.847
44597W        W16180   5.746  27.952  11.892
44598W        W16181  17.732  15.760  10.886
44599W        W16182  36.463   9.180  12.867
44600W        W16183  21.062  15.880   2.478
44601W        W16184  20.339  28.603   5.136
44602W        W16185  42.953  23.596  12.235
44603W        W16186  36.803  29.152  14.000
44604W        W16187  15.647  34.406  12.048
44605W        W16188  27.051  11.816  11.627
44606W        W16189   0.278   5.261  10.692
44607W        W16190   6.743   7.719  12.943
44608W        W16191   0.900  10.018  14.446
44609W        W16192  38.339  40.515  11.527
44610W        W16193  33.852   6.622   3.170
44611W        W16194  22.731  27.183   2.661
44612W        W16195  27.349  26.971  12.954
44613W        W16196   6.232  26.241   2.492
44614W        W16197   3.437  19.661  10.138
44615W        W16198  38.492   8.717  11.093
44616W        W16199  31.054   0.010   2.764
44617W        W16200  21.274  39.496   4.269
44618W        W16201  19.945  36.374  11.328
44619W        W16202  36.950  27.008  11.422
44620W        W16203  43.747  11.190  14.478
44621W        W16204  34.186   1.876  12.993
44622W        W16205  22.095   3.681   2.747
44623W        W16206  31.523   8.911  11.176
44624W        W16207  31.753  34.974  13.596
44625W        W16208  27.524  16.316  11.478
44626W        W16209  24.187  23.200   3.678
44627W        W16210   9.320  33.480  13.554
44628W        W16211  11.737  44.726   0.413
44629W        W16212  29.368   4.013   1.491
44630W        W16213  15.607   7.977   1.324
44631W        W16214  19.043  43.809   2.709
44632W        W16215  27.285  22.834   9.688
44633W        W16216  34.106  44.354  13.273
44634W        W16217  40.006  33.144  13.357
44635W        W16218  29.639  39.741  13.990
44636W        W16219   8.345  11.562   0.901
44637W        W16220   4.439  39.889   3.695
44638W        W16221  16.354  37.231   5.213
44639W        W16222  23.660  42.535  13.179
44640W        W16223  34.610  44.005   0.057
44641W        W16224  38.782  41.307   3.785
44642W        W16225  27.611  37.572   0.986
44643W        W16226   3.331  20.333  13.012
44644W        W16227  29.707   7.928  13.347
44645W        W16228   5.870  20.035   0.265
44646W        W16229  35.972  23.312  13.426
44647W        W16230  15.512  12.670  14.483
44648W        W16231   0.435  41.128  14.499
44649W        W16232   9.818  22.017   3.790
44650W        W16233  26.796  13.205   3.244
44651W        W16234   5.400  30.222   3.691
44652W        W16235  16.875  34.216   1.106
44653W        W16236  30.997   5.789   4.102
44654W        W16237  11.563   7.390  10.325
44655W        W16238   4.339  18.061   0.754
44656W        W16239  36.682  20.433  14.718
44657W        W16240   5.238  14.763   4.762
44658W        W16241  12.430  38.511   3.321
44659W        W16242  24.790   7.260  14.049
44660W        W16243  17.590  20.228   0.404
44661W        W16244  31.172   9.236  12.099
44662W        W16245  32.569  32.798   2.708
44663W        W16246  24.059   1.396   1.300
44664W        W16247  34.724  44.432  11.503
44665W        W16248   5.647  11.152  13.010
44666W        W16249   5.412  22.168  10.475
44667W        W16250  13.170  12.631   1.751
44668W        W16251  12.866  21.577   2.599
44669W        W16252  42.838  35.915  11.933
44670W        W16253  41.068  31.837   0.394
44671W        W16254  33.301  20.055  10.215
44672W        W16255  10.432  20.423   4.192
44673W        W16256   9.697   7.708   2.811
44674W        W16257  15.920   1.138   1.018
44675W        W16258   6.013   8.633  10.268
44676W        W16259  19.866  23.267   0.957
44677W        W16260  36.095  36.088   1.138
44678W        W16261  18.657  39.552   2.146
44679W        W16262  19.496  16.097  13.912
44680W        W16263  21.688  20.977   4.862
44681W        W16264  19.680  28.022  10.513
44682W        W16265  17.720  23.819   3.332
44683W        W16266  22.948  31.543  10.520
44684W        W16267  35.541  35.901   2.797
44685W        W16268  13.162  27.553  14.756
44686W        W16269  34.665  25.092  10.654
44687W        W16270  14.292   0.370  10.706
44688W        W16271  33.449  44.986   4.804
44689W        W16272  12.847  20.666  10.706
44690W        W16273  34.080  33.407  12.634
44691W        W16274   2.079  20.041   0.772
44692W        W16275  41.846  35.600  11.963
44693W        W16276  29.627  18.809  12.007
44694W        W16277  26.495  41.686  13.183
44695W        W16278  19.361   3.736  14.795
44696W        W16279   6.162  33.941  13.586
44697W        W16280  39.424  29.976  10.735
44698W        W16281  20.820  21.134  12.678
44699W        W16282  11.772  43.198   0.369
44700W        W16283   6.893  34.157  14.829
44701W        W16284   5.877  25.384   1.379
44702W        W16285  33.030   1.936  13.757
44703W        W16286  22.140   2.298   0.912
44704W        W16287  28.494  21.292  13.443
44705W        W16288  25.538  32.906  11.273
44706W        W16289   0.869  35.475   0.342
44707W        W16290  12.260   8.434  13.001
44708W        W16291  41.977  31.565  11.613
44709W        W16292  42.073   2.436  10.747
44710W        W16293   7.780   6.158   3.827
44711W        W16294  21.170  15.355   2.427
44712W        W16295  12.098  33.836  10.818
44713W        W16296  11.450  31.819  11.226
44714W        W16297  25.006  35.382   0.393
44715W        W16298  16.592  44.385   1.089
44716W        W16299  25.648   1.432  12.360
44717W        W16300   8.158   7.191  14.053
44718W        W16301  29.656  26.752  12.844
44719W        W16302  13.698  19.725  13.087
44720W        W16303  18.319  30.108   3.931
44721W        W16304  26.597   5.734   0.478
44722W        W16305  23.469  13.574  12.483
44723W        W16306  21.457  13.877   3.240
44724W        W16307   9.887  40.228   4.094
44725W        W16308  30.966   0.919  13.870
44726W        W16309  38.404  42.527   1.878
44727W        W16310  40.874  33.573   4.905
44728W        W16311   0.947   2.850  13.963
44729W        W16312  34.564  34.799   2.210
44730W        W16313   8.163  26.566   3.024
44731W        W16314   2.443  43.565   1.845
44732W        W16315   7.777   8.115   3.724
44733W        W16316   8.239  33.294  14.001
44734W        W16317  28.959  12.853  12.371
44735W        W16318  28.187  28.817   4.121
44736W        W16319   2.928  34.004  13.431
44737W        W16320  10.765  12.998   4.088
44738W        W16321  27.116  33.349   4.684
44739W        W16322  15.570  22.400  12.169
44740W        W16323  24.997  30.073  10.498
44741W        W16324   9.231  27.421   2.917
44742W        W16325  12.177  12.105  10.692
44743W        W16326   0.505  44.019   3.329
44744W        W16327  37.089  15.939   2.714
44745W        W16328  22.526  10.911   0.468
44746W        W16329  10.745   6.266   3.936
44747W        W16330  20.241  37.185   2.676
44748W        W16331  35.543  13.832   0.029
44749W        W16332   3.882  23.087   3.114
44750W        W16333  26.175  21.749  11.150
44751W        W16334  31.112   6.159   0.280
44752W        W16335   0.991  31.537   3.192
44753W        W16336  25.293   3.535  11.191
44754W        W16337  41.049  40.380   1.907
44755W        W16338  43.706  32.063   0.816
44756W        W16339  33.155  34.336  12.865
44757W        W16340  21.720  13.828  13.900
44758W        W16341  21.205  25.382  12.468
44759W        W16342  26.426  26.304  11.989
44760W        W16343  15.584  41.350  13.911
44761W        W16344  20.327   5.356   1.817
44762W        W16345   1.321  41.290  12.594
44763W        W16346  15.339  42.010   1.289
44764W        W16347  37.403  22.515  13.985
44765W        W16348  43.073  14.459   3.631
44766W        W16349  26.831   4.857  10.788
44767W        W16350   8.247   9.749  13.598
44768W        W16351   2.115  43.507  13.782
44769W        W16352   6.281  31.747  12.619
44770W        W16353  12.657  15.338   0.516
44771W        W16354   9.972  10.305   3.146
44772W        W16355  40.919  30.099   3.332
44773W        W16356  35.267   7.346   0.315
44774W        W16357   4.058  24.891   1.751
44775W        W16358  29.658   6.525  10.239
44776W        W16359  11.129  37.751  12.049
44777W        W16360  23.455  42.490  14.014
44778W        W16361  12.147   7.825  11.302
44779W        W16362  35.105  31.001  11.603
44780W        W16363  40.913   1.201   0.411
44781W        W16364  34.749   7.948   5.379
44782W        W16365  14.588  39.918  13.813
44783W        W16366  28.173  35.662  12.204
44784W        W16367  31.543  37.041  12.940
44785W        W16368  15.081  39.597  14.840
44786W        W16369  32.494  15.255   3.303
44787W        W16370   6.019  32.716   1.186
44788W        W16371  35.353  39.380  13.994
44789W        W16372   4.740  39.785  12.610
44790W        W16373  13.748  10.792  10.578
44791W        W16374   7.734  34.996   3.549
44792W        W16375  41.476  18.676   0.048
44793W        W16376  36.515  13.430  13.719
44794W        W16377  22.246  31.424   1.871
44795W        W16378  19.485  19.953   0.382
44796W        W16379   7.784  10.684  13.568
44797W        W16380   0.268  10.802  11.098
44798W        W16381  39.791  39.300  13.469
44799W        W16382  11.126  26.697  11.903
44800W        W16383  16.649   7.024  14.005
44801W        W16384  31.227  21.277   0.647
44802W        W16385  18.618   8.045  13.009
44803W        W16386  43.923  28.562   3.892
44804W        W16387   0.997  11.173  12.920
44805W        W16388  34.060  34.879   4.904
44806W        W16389   4.257  37.494  10.270
44807W        W16390   2.145  37.651   3.340
44808W        W16391  20.432  27.141  11.278
44809W        W16392   7.982  41.778  11.179
44810W        W16393  32.965  29.115   4.239
44811W        W16394   4.694  20.019   1.886
44812W        W16395  28.449  32.264  12.096
44813W        W16396  41.593   2.496  14.883
44814W        W16397  15.061   7.105  11.952
44815W        W16398  13.422   8.424   4.108
44816W        W16399   3.403  35.920  11.994
44817W        W16400   8.196  35.234  14.854
44818W        W16401   1.830  25.900   0.953
44819W        W16402  34.918  29.143  14.745
44820W        W16403  27.538  37.576  14.528
44821W        W16404  19.369  24.156   1.887
44822W        W16405   7.878  38.651  14.836
44823W        W16406   0.049   4.702  14.083
44824W        W16407  30.068  41.655  13.965
44825W        W16408  23.763  19.891   0.751
44826W        W16409  24.669  37.450   3.767
44827W        W16410  38.122   3.201  11.155
44828W        W16411   7.712   9.392  13.631
44829W        W16412   6.968  26.647  11.596
44830W        W16413   0.957  34.340  11.157
44831W        W16414  14.202   4.817   3.188
44832W        W16415  44.691  44.581  11.607
44833W        W16416  44.746  36.348   2.312
44834W        W16417  34.588  16.823   1.136
44835W        W16418  13.786  43.685   3.218
44836W        W16419  43.157  21.932  13.512
44837W        W16420  30.571  42.747  13.457
44838W        W16421  11.937  31.704   3.234
44839W        W16422  12.157   9.604  11.517
44840W        W16423  15.656  15.035   1.752
44841W        W16424  16.247  40.717  12.094
44842W        W16425   9.637  12.611  11.643
44843W        W16426  35.886   1.216   2.603
44844W        W16427  37.542  16.716   4.416
44845W        W16428  40.093   5.876   9.752
44846W        W16429  14.912  15.238  10.970
44847W        W16430  10.314  22.263  10.686
44848W        W16431  20.539  25.362  11.537
44849W        W16432   1.299  29.190   4.113
44850W        W16433  43.922  29.960  10.487
44851W        W16434  23.538  39.330   3.237
44852W        W16435   7.264  31.073   4.498
44853W        W16436  34.495  25.756  11.147
44854W        W16437  43.438  16.149   1.924
44855W        W16438  40.914  37.668   3.612
44856W        W16439  42.985  14.891  11.498
44857W        W16440  12.865  18.127   3.705
44858W        W16441  20.306   3.265   4.635
44859W        W16442  14.414  30.656   1.041
44860W        W16443  16.753   1.254  14.255
44861W        W16444   6.361   6.483   0.436
44862W        W16445   6.145  26.341   5.333
44863W        W16446  32.687  30.012  11.479
44864W        W16447  40.050  24.244  14.306
44865W        W16448  26.439  10.739  11.048
44866W        W16449   4.951  32.866   3.776
44867W        W16450  16.828  18.596   0.524
44868W        W16451  36.321   1.630   2.777
44869W        W16452  28.732  38.015   0.026
44870W        W16453  31.759  18.906   5.381
44871W        W16454  38.280   0.947   2.332
44872W        W16455  18.259  12.119  12.272
44873W        W16456  32.493   6.897  11.379
44874W        W16457  18.666  20.883   0.754
44875W        W16458   1.388  38.450   3.347
44876W        W16459  22.945  32.577   1.765
44877W        W16460  42.755  33.531   2.150
44878W        W16461  10.716  39.685   2.842
44879W        W16462  14.520  44.802  14.429
44880W        W16463  14.718  30.512   3.279
44881W        W16464  33.988   8.772  11.610
44882W        W16465  13.251  13.876  11.104
44883W        W16466  44.436  25.077  11.447
44884W        W16467  33.919   5.982  11.574
44885W        W16468  34.501  28.486   4.973
44886W        W16469  17.531  33.174   0.550
44887W        W16470   6.302   8.828   1.099
44888W        W16471   5.323  30.120  13.504
44889W        W16472  38.790  32.471   0.230
44890W        W16473  27.713  37.510   2.492
44891W        W16474  33.935  33.583  11.634
44892W        W16475  42.410  16.223   3.502
44893W        W16476  13.063   4.286  10.639
44894W        W16477  36.966  24.210  13.753
44895W        W16478  44.191  37.021  11.890
44896W        W16479   3.747  18.844   2.089
44897W        W16480  27.601  28.134   4.612
44898W        W16481  14.541  26.043   2.736
44899W        W16482  15.154  17.758   1.396
44900W        W16483  39.160   2.679  13.793
44901W        W16484  13.730   5.839   3.642
44902W        W16485  32.013  16.186  13.941
44903W        W16486  21.671  17.817  14.904
44904W        W16487  39.170  42.591   3.250
44905W        W16488  29.076  17.789  13.930
44906W        W16489  25.534  28.637  11.063
44907W        W16490   8.390   1.876  14.701
44908W        W16491  27.268  36.910   1.049
44909W        W16492  38.796  38.422   4.735
44910W        W16493  24.205  30.905   3.692
44911W        W16494  18.925  42.379  11.510
44912W        W16495  28.493  20.338   0.918
44913W        W16496  21.671  35.636  14.263
44914W        W16497  33.659  26.086   2.444
44915W        W16498  41.346  28.737  13.547
44916W        W16499  34.018  13.329  12.609
44917W        W16500  42.195   5.746   0.866
44918W        W16501   1.044   7.837  14.119
44919W        W16502  10.272  14.063   3.642
44920W        W16503  39.294  12.919   5.082
44921W        W16504  33.881  36.834   3.606
44922W        W16505  40.940   4.221   1.224
44923W        W16506  24.864   0.932   3.851
44924W        W16507  21.291   2.336   4.571
44925W        W16508  39.482  32.604  11.967
44926W        W16509  44.457   3.712   3.510
44927W        W16510  29.641  40.653  13.317
44928W        W16511  25.191  16.124   3.716
44929W        W16512  42.870   1.729  13.901
44930W        W16513  28.231  29.990  13.172
44931W        W16514  35.441  23.129   4.825
44932W        W16515  18.875  27.159   3.015
44933W        W16516  10.349  27.506   9.905
44934W        W16517  13.583  37.641  10.390
44935W        W16518  13.780  18.870  13.655
44936W        W16519  23.820   8.607   0.543
44937W        W16520  31.518   4.269   1.169
44938W        W16521  34.848  12.145  13.935
44939W        W16522  31.863  31.153  11.611
44940W        W16523  37.287  38.994  14.590
44941W        W16524   6.689  14.587   1.806
44942W        W16525  38.897  35.992   1.257
44943W        W16526  15.935  13.627  12.669
44944W        W16527   5.535   7.888   3.664
44945W        W16528  23.997  11.229   2.110
44946W        W16529  43.963   4.121  10.491
44947W        W16530  28.833  40.370  11.957
44948W        W16531  25.247  22.659  13.919
44949W        W16532  22.621   3.512  14.864
44950W        W16533  26.177   1.722  11.649
44951W        W16534  20.681   5.326   4.509
44952W        W16535  12.083  43.548  11.018
44953W        W16536  21.701  30.165   3.643
44954W        W16537   2.844   5.209   0.260
44955W        W16538   9.228  25.905   0.528
44956W        W16539  42.458  10.259   4.025
44957W        W16540   8.239  34.028  11.010
44958W        W16541   9.925  23.451   4.278
44959W        W16542   5.893  40.363   0.057
44960W        W16543   6.237  42.454  10.732
44961W        W16544  43.843  26.699   1.322
44962W        W16545  42.415   3.114  11.116
44963W        W16546  27.710  28.759   3.852
44964W        W16547   9.251  16.626  13.410
44965W        W16548   4.294  37.418   4.201
44966W        W16549   2.480  32.965   0.014
44967W        W16550  14.254  38.054  13.003
44968W        W16551  21.785  28.123   0.795
44969W        W16552  18.760  34.844   2.236
44970W        W16553  36.023  43.289   4.192
44971W        W16554  15.332   4.184  12.831
44972W        W16555  15.636   0.216   2.284
44973W        W16556  31.710  30.451   1.946
44974W        W16557  19.222  22.074  11.135
44975W        W16558  38.316  30.461   0.274
44976W        W16559  43.279  26.042   0.383
44977W        W16560   3.348  41.827  10.419
44978W        W16561  16.703   7.369   2.895
44979W        W16562  44.488   2.056  12.906
44980W        W16563  24.519  31.697  12.935
44981W        W16564   5.765  13.600  14.808
44982W        W16565  28.116  41.582  13.894
44983W        W16566   1.359  24.675  14.327
44984W        W16567  38.952  38.931   4.671
44985W        W16568  28.426   8.286   1.181
44986W        W16569  14.791  28.740   2.598
44987W        W16570  25.439   4.592   4.207
44988W        W16571  40.780   5.466   0.911
44989W        W16572  38.330  43.514   0.888
44990W        W16573   0.786   5.302   4.792
44991W        W16574  24.001   8.576   4.653
44992W        W16575  15.603  11.368  11.959
44993W        W16576  43.564  12.320   4.121
44994W        W16577  31.129  26.944   3.383
44995W        W16578   8.428  21.126   0.183
44996W        W16579  43.330  15.083   2.461
44997W        W16580  34.562   6.735   0.343
44998W        W16581  26.925   8.075   4.324
44999W        W16582  30.052  41.115  12.447
45000W        W16583  38.569  15.375   5.232
45001W        W16584  40.991  22.839   1.959
45002W        W16585  29.873   3.137  12.583
45003W        W16586  18.709  37.751   0.995
45004W        W16587  31.456   0.316  11.025
45005W        W16588  27.676  16.254  12.869
45006W        W16589  39.899  18.046  13.229
45007W        W16590  26.949  16.862  12.511
45008W        W16591  44.680  38.962  14.546
45009W        W16592  10.954  27.956   3.264
45010W        W16593   6.099  25.619   3.709
45011W        W16594   0.944   0.749  14.334
45012W        W16595  12.294  35.959   4.400
45013W        W16596  13.110  20.270   3.177
45014W        W16597  24.541  24.857  13.443
45015W        W16598  41.389  33.599   3.095
45016W        W16599  18.826  34.221  14.009
45017W        W16600  13.711  13.898  11.395
45018W        W16601  31.099  33.053   3.934
45019W        W16602  12.149  38.080   2.770
45020W        W16603  18.611  25.188  12.630
45021W        W16604  35.082  20.085  14.027
45022W        W16605   6.646  27.514   4.694
45023W        W16606   7.938  22.780  13.924
45024W        W16607  42.634  23.320   0.727
45025W        W16608  33.428   2.883  13.116
45026W        W16609  20.702  20.275   2.764
45027W        W16610  18.975   6.860  12.637
45028W        W16611   7.802  38.286   0.240
45029W        W16612  38.345  30.122   3.731
45030W        W16613  20.371  28.450  11.394
45031W        W16614  16.189  23.749  11.695
45032W        W16615  21.264  42.022  12.280
45033W        W16616  24.708  16.111  14.460
45034W        W16617   8.043  37.470   1.345
45035W        W16618  36.796  35.163   1.689
45036W        W16619   1.238  17.190  11.232
45037W        W16620   9.304  16.402   3.265
45038W        W16621  38.733  14.838   0.642
45039W        W16622  25.248  38.292  13.423
45040W        W16623  10.603  25.484  14.483
45041W        W16624  16.712   9.965  12.475
45042W        W16625  41.390   7.216  14.251
45043W        W16626  20.167  33.109   0.044
45044W        W16627   9.247  24.905   0.354
45045W        W16628  20.070   9.604   1.816
45046W        W16629   6.028  36.967  12.068
45047W        W16630  11.644  30.592   1.350
45048W        W16631   9.587  41.979   2.673
45049W        W16632  31.338  22.523   0.008
45050W        W16633  40.819   8.385  10.087
45051W        W16634   6.954  35.870  11.169
45052W        W16635  15.199  19.703   4.847
45053W        W16636   4.807  11.789   2.408
45054W        W16637  24.287  20.807  13.357
45055W        W16638  40.543  16.019   4.502
45056W        W16639  40.656   8.242   2.392
45057W        W16640  41.732  15.186  11.122
45058W        W16641  16.275  31.156   2.216
45059W        W16642  11.183  23.075  13.665
45060W        W16643  35.011  19.205  12.366
45061W        W16644   4.246  21.718  12.421
45062W        W16645  35.838   1.702  14.314
45063W        W16646  15.786  18.257  14.465
45064W        W16647  18.794  42.198   1.256
45065W        W16648   0.998   9.924   0.968
45066W        W16649  39.470  20.045  12.255
45067W        W16650  40.294   9.968  12.141
45068W        W16651  37.868  26.165  10.662
45069W        W16652   5.855  13.561   4.696
45070W        W16653  30.546  42.826   3.064
45071W        W16654  20.674  42.740   4.618
45072W        W16655  26.047  10.284  13.983
45073W        W16656   1.489  37.858  12.605
45074W        W16657  32.291  14.575  14.885
45075W        W16658  32.446   4.861  13.484
45076W        W16659   4.857  29.917  12.106
45077W        W16660  21.170  34.908  10.536
45078W        W16661  29.003  29.619  14.236
45079W        W16662  28.466  16.705   4.848
45080W        W16663   2.374  30.419   2.323
45081W        W16664   7.379  11.353  14.900
45082W        W16665  36.540  19.859  12.138
45083W        W16666  35.487   1.788   0.296
45084W        W16667  15.085  27.353   3.819
45085W        W16668  32.438  41.582   4.578
45086W        W16669   9.278  41.522  14.759
45087W        W16670  39.371  36.628  10.627
45088W        W16671  20.272  14.550   1.799
45089W        W16672   7.213  20.723  13.837
45090W        W16673  32.915  24.197  11.231
45091W        W16674  36.427  23.029   4.335
45092W        W16675  19.223  10.729  11.437
45093W        W16676   6.393  26.874   2.189
45094W        W16677   2.695  10.205   1.448
45095W        W16678  13.225  16.852  11.556
45096W        W16679  39.418  37.863  14.528
45097W        W16680   9.856   5.720  13.076
45098W        W16681  42.910  37.407   2.739
45099W        W16682   0.774  10.812  13.878
45100W        W16683  25.557  41.052   2.330
45101W        W16684  26.241  23.641   0.430
45102W        W16685  37.598  17.996   1.406
45103W        W16686   4.756  17.326  10.554
45104W        W16687  14.962  33.491   4.222
45105W        W16688  12.299   1.993   2.466
45106W        W16689  14.465  11.269   1.420
45107W        W16690  23.192  22.132   1.927
45108W        W16691  30.044  34.225  11.661
45109W        W16692  14.136  26.155  10.602
45110W        W16693   7.103  36.254  12.521
45111W        W16694  35.484  23.660   1.340
45112W        W16695   6.351  32.358  13.950
45113W        W16696  14.832  44.796   3.617
45114W        W16697  43.210  39.026  14.853
45115W        W16698  34.408  23.063  11.575
45116W        W16699  16.745   9.840   3.355
45117W        W16700  12.102  20.058   0.822
45118W        W16701  20.517   3.579   3.298
45119W        W16702  42.341  35.601  11.104
45120W        W16703   6.372  22.112   0.217
45121W        W16704  42.230  33.974  10.630
45122W        W16705  11.893  24.994   3.266
45123W        W16706  35.932  19.030  11.958
45124W        W16707  32.477   6.094   1.189
45125W        W16708  17.739   3.035   3.618
45126W        W16709  16.016  41.490   4.317
45127W        W16710  23.112  23.243  13.274
45128W        W16711  33.160   6.677  13.727
45129W        W16712  27.411  31.930  11.599
45130W        W16713  32.635   9.678   2.587
45131W        W16714  23.693  35.210   4.575
45132W        W16715  10.170  40.041   3.648
45133W        W16716  40.882   9.124  13.405
45134W        W16717   6.689  26.521   3.850
45135W        W16718  43.461  43.365   2.402
45136W        W16719  17.644  41.111   1.329
45137W        W16720   3.823   7.991   4.328
45138W        W16721  19.835  29.581   1.368
45139W        W16722  33.738   8.067  10.722
45140W        W16723  16.816  28.996   3.273
45141W        W16724  17.121  14.773  10.668
45142W        W16725  25.416  29.925  11.390
45143W        W16726  16.372  37.729   5.140
45144W        W16727   0.309  20.042   1.415
45145W        W16728  30.134  39.001  12.574
45146W        W16729  17.649  13.132  10.659
45147W        W16730  11.062  43.073   4.553
45148W        W16731  14.653  34.597  11.442
45149W        W16732  12.726  26.442  11.638
45150W        W16733   5.417  15.897  13.768
45151W        W16734  21.691  17.959  11.514
45152W        W16735  24.929  33.446   0.230
45153W        W16736   8.746  17.124  13.234
45154W        W16737  12.819  27.664  11.952
45155W        W16738   0.889  29.846   0.319
45156W        W16739  11.777  18.595  10.667
45157W        W16740  29.473  23.453  11.183
45158W        W16741  11.598  22.015   0.821
45159W        W16742   9.583   8.912  14.627
45160W        W16743   7.978   3.645  11.584
45161W        W16744  37.114   2.050   0.461
45162W        W16745   4.172  40.340  10.714
45163W        W16746  38.917  41.054   3.300
45164W        W16747  37.053  33.077   0.377
45165W        W16748  38.171  33.887  12.599
45166W        W16749  26.388  41.461   0.381
45167W        W16750  38.881  23.454   4.558
45168W        W16751  12.085  26.557   1.631
45169W        W16752  39.002  10.858   0.311
45170W        W16753  10.233  26.176  12.003
45171W        W16754  10.929  10.654  11.129
45172W        W16755  25.431  35.940  14.796
45173W        W16756  34.013  18.283  11.736
45174W        W16757  41.260  37.304   1.290
45175W        W16758  28.564  15.104   1.856
45176W        W16759  40.915  44.704   1.471
45177W        W16760  32.182  21.667   3.211
45178W        W16761  31.044  36.992   3.310
45179W        W16762  44.525  27.760  14.869
45180W        W16763  10.361  30.486   3.726
45181W        W16764  10.638  38.733   2.364
45182W        W16765  28.091  28.514  13.980
45183W        W16766  16.867  39.303   2.811
45184W        W16767  16.449   0.444   2.768
45185W        W16768  26.614  43.216  12.031
45186W        W16769   1.357  11.114   3.904
45187W        W16770  41.944  34.123  14.737
45188W        W16771   4.495  13.360   4.407
45189W        W16772   7.591  30.053   0.031
45190W        W16773  36.059  30.018  13.358
45191W        W16774  33.268  44.699   0.267
45192W        W16775  18.549   0.725  12.506
45193W        W16776   5.184  12.298  13.870
45194W        W16777   3.862   0.024   1.429
45195W        W16778  38.509  17.086  10.417
45196W        W16779  15.224  27.429  13.345
45197W        W16780  17.132  10.268   0.064
45198W        W16781  14.581  40.352  14.125
45199W        W16782  27.430   5.161   1.346
45200W        W16783  36.828  25.206  13.724
45201W        W16784  13.794  24.601   4.615
45202W        W16785  44.006  16.560   3.713
45203W        W16786  40.801  26.593  11.815
45204W        W16787  41.429  23.183   4.020
45205W        W16788   8.433   8.826  12.891
45206W        W16789  15.762  21.535   0.420
45207W        W16790  38.102   1.613   4.174
45208W        W16791   8.288  36.073   0.205
45209W        W16792  28.880  13.117  12.817
45210W        W16793  41.905   4.916   0.295
45211W        W16794  26.127  34.795  12.970
45212W        W16795  20.587   7.225   3.744
45213W        W16796  37.394  43.137  14.953
45214W        W16797  44.229  16.390   0.009
45215W        W16798  18.343   8.416  11.241
45216W        W16799  20.569  12.088   2.601
45217W        W16800   9.326  28.236  11.625
45218W        W16801  40.020   0.820  13.265
45219W        W16802  44.264   7.845  12.925
45220W        W16803  31.439   1.739  14.467
45221W        W16804  19.593  32.142  12.536
45222W        W16805   5.395  29.987  11.403
45223W        W16806  23.387  18.830   4.117
45224W        W16807  38.053  15.272  10.412
45225W        W16808   3.764  39.583   5.379
45226W        W16809  21.475  24.961  13.746
45227W        W16810  32.465  36.428  14.401
45228W        W16811   4.291  18.792   2.896
45229W        W16812  20.546  24.997   0.287
45230W        W16813  27.023  21.734  11.474
45231W        W16814   9.896  13.879  13.410
45232W        W16815  24.672  37.792  14.681
45233W        W16816   0.848  13.491  14.469
45234W        W16817  40.061  35.803  10.151
45235W        W16818  36.450  31.538   3.764
45236W        W16819  41.682  36.445   3.082
45237W        W16820  43.781  30.979   2.858
45238W        W16821  40.984  41.462  11.203
45239W        W16822   9.149   6.817  11.067
45240W        W16823   8.600  28.017   0.504
45241W        W16824   9.762  31.658   2.785
45242W        W16825  21.054  15.613   4.150
45243W        W16826  28.540   2.349   0.419
45244W        W16827  20.260   1.638  10.818
45245W        W16828  39.954  32.180   2.630
45246W        W16829  21.966  27.756  10.039
45247W        W16830  38.104  33.454   4.710
45248W        W16831  29.745  24.261   2.858
45249W        W16832  25.544  25.145   0.941
45250W        W16833  19.715  40.886   3.090
45251W        W16834  13.120  43.232  12.635
45252W        W16835  41.851   5.986  13.413
45253W        W16836  12.664  43.464  13.482
45254W        W16837  16.091  21.460   2.442
45255W        W16838  18.091  27.758   0.049
45256W        W16839  17.978   0.775  11.774
45257W        W16840  32.551  25.759  13.910
45258W        W16841  41.323   0.896   2.852
45259W        W16842  24.527  29.172  11.998
45260W        W16843  18.829  28.600   3.186
45261W        W16844  30.121  19.629  11.665
45262W        W16845  27.939  37.962   3.045
45263W        W16846  23.795   8.703  12.877
45264W        W16847  14.784  29.184  11.724
45265W        W16848   6.564  17.756  10.970
45266W        W16849   8.788   5.931  13.443
45267W        W16850   4.181  26.703  14.261
45268W        W16851  10.655  10.785  10.715
45269W        W16852  23.654  32.056   1.794
45270W        W16853  22.038  28.557   0.920
45271W        W16854   7.858   8.075  14.424
45272W        W16855  13.331   3.792  14.089
45273W        W16856  21.270  10.149  10.278
45274W        W16857   6.970   3.810   0.783
45275W        W16858  15.239  22.493   3.199
45276W        W16859  30.961  28.542  14.520
45277W        W16860  34.898  23.689   4.646
45278W        W16861  33.075  29.779   1.845
45279W        W16862   7.306  36.836   3.845
45280W        W16863  24.117  26.095   3.920
45281W        W16864  20.567  20.545   4.145
45282W        W16865   5.375  17.455   4.477
45283W        W16866  30.086  15.648   0.704
45284W        W16867  28.522  28.637  13.268
45285W        W16868  30.774  32.019  14.877
45286W        W16869  21.454  15.961   5.503
45287W        W16870  37.028  30.176   3.785
45288W        W16871  20.829  14.762  13.795
45289W        W16872  41.408   1.519  10.679
45290W        W16873  43.935   5.696   0.860
45291W        W16874  30.687   2.315  11.250
45292W        W16875  14.269  38.954  14.969
45293W        W16876  19.266  37.573  11.178
45294W        W16877  21.425  20.542   2.669
45295W        W16878  30.387  30.043   1.218
45296W        W16879  35.662  28.671  12.593
45297W        W16880  34.606  15.817  10.439
45298W        W16881  39.912   4.098   4.520
45299W        W16882  14.408  25.188   2.121
45300W        W16883  16.259  33.129   2.067
45301W        W16884  31.197  32.444   3.588
45302W        W16885  28.117  21.014  10.084
45303W        W16886  40.639  29.711  11.141
45304W        W16887  23.595  38.740   0.808
45305W        W16888   5.853  31.019   4.318
45306W        W16889  32.530  30.475   1.832
45307W        W16890  39.554  16.618  11.523
45308W        W16891   2.791  35.241  11.404
45309W        W16892  10.927  18.721   2.447
45310W        W16893  34.433  29.776   2.333
45311W        W16894  17.053  11.469  11.540
45312W        W16895  13.668  12.218  10.528
45313W        W16896   5.276  26.942  12.406
45314W        W16897  23.369   3.458   2.543
45315W        W16898  14.712  16.363   3.601
45316W        W16899   4.990  38.527  13.088
45317W        W16900  42.976  37.592  12.173
45318W        W16901  13.087  41.979   4.081
45319W        W16902  32.824  22.202   0.739
45320W        W16903  10.357  19.427  11.590
45321W        W16904   0.223   2.779   1.631
45322W        W16905  21.517  10.399  13.387
45323W        W16906  24.689  12.602  14.208
45324W        W16907  32.661  23.579  11.623
45325W        W16908  10.987  29.571  13.037
45326W        W16909  16.601  39.376  14.743
45327W        W16910  44.893  31.583   2.217
45328W        W16911  20.823  20.179  10.405
45329W        W16912  34.462  37.385   0.247
45330W        W16913  13.622  31.605  13.817
45331W        W16914  24.505  34.156  12.159
45332W        W16915  36.012  13.159  13.520
45333W        W16916  40.509  40.812  13.005
45334W        W16917  22.549   0.242   0.311
45335W        W16918  39.485  40.423   2.039
45336W        W16919  24.448  31.420  12.475
45337W        W16920   4.263  33.917   4.858
45338W        W16921  33.929  20.997  13.629
45339W        W16922   2.324  32.579   4.045
45340W        W16923  25.529   6.161  11.498
45341W        W16924  24.024  10.893   2.918
45342W        W16925  25.769   2.333   2.026
45343W        W16926  39.017  27.197  12.472
45344W        W16927  18.068  21.108   2.336
45345W        W16928  30.430  22.469  11.087
45346W        W16929   1.316   1.000  13.971
45347W        W16930  17.079  20.538   3.273
45348W        W16931  39.375  39.444   2.661
45349W        W16932   9.851  17.774  14.005
45350W        W16933   1.697  41.972  13.387
45351W        W16934  12.309  23.676  12.972
45352W        W16935  34.977  43.924   1.811
45353W        W16936  12.736  23.446   0.384
45354W        W16937  33.196  42.520  11.499
45355W        W16938   5.386   2.717   3.517
45356W        W16939  42.734   6.276   2.155
45357W        W16940   0.227  40.532  12.091
45358W        W16941  29.680  24.187  14.734
45359W        W16942  39.304  34.115  10.538
45360W        W16943  39.807  37.463   3.881
45361W        W16944  25.523  23.294  14.324
45362W        W16945  44.274  19.691   1.009
45363W        W16946  15.225  38.253  10.111
45364W        W16947  29.590  39.911  12.151
45365W        W16948  40.835  14.960   3.036
45366W        W16949  32.044  24.000  10.683
45367W        W16950  18.670  32.456   1.815
45368W        W16951  35.153  30.643   1.725
45369W        W16952  13.270  36.247  11.152
45370W        W16953  25.025   8.906  13.359
45371W        W16954  11.745  21.465  13.559
45372W        W16955  34.914  42.527  11.665
45373W        W16956  36.910  21.959   2.589
45374W        W16957  31.173   0.841  12.918
45375W        W16958  44.301   8.275  10.674
45376W        W16959   9.759  10.577  10.515
45377W        W16960  34.344  33.555   1.316
45378W        W16961  20.228  21.095  14.851
45379W        W16962  26.229  39.892  11.009
45380W        W16963  35.574   2.993  12.150
45381W        W16964   9.662  44.488   4.351
45382W        W16965   2.821  24.597  13.470
45383W        W16966  28.539  15.363   0.881
45384W        W16967  31.358  27.196  12.547
45385W        W16968  14.113  39.459  12.696
45386W        W16969  23.169  31.462   2.112
45387W        W16970   3.772  35.634  13.432
45388W        W16971  33.428  12.704   3.649
45389W        W16972  23.044   7.346  11.384
45390W        W16973  42.723  28.160   4.567
45391W        W16974  24.608  36.627   3.193
45392W        W16975  39.395   7.140   1.539
45393W        W16976  36.529  25.653  10.648
45394W        W16977  31.067  30.128  11.557
45395W        W16978  44.444  36.328  12.328
45396W        W16979  39.710  38.837  10.677
45397W        W16980   5.674  17.207  13.948
45398W        W16981  27.658  20.049   0.516
45399W        W16982   8.176   9.797  11.364
45400W        W16983  21.885  38.521   1.625
45401W        W16984  33.926  30.597   4.233
45402W        W16985  36.303   4.092  11.440
45403W        W16986   4.913  31.727  13.856
45404W        W16987  22.472  42.396  11.598
45405W        W16988  19.567  10.639  13.905
45406W        W16989  22.484  24.639  14.273
45407W        W16990  14.010  10.611   0.336
45408W        W16991   9.266   5.104   3.156
45409W        W16992   6.479  16.655   4.241
45410W        W16993  36.298  35.483  10.961
45411W        W16994  35.107  30.535  12.494
45412W        W16995   1.540  43.094  10.905
45413W        W16996  32.677  27.608   3.389
45414W        W16997  13.901  21.712  14.258
45415W        W16998  19.897  40.503  14.740
45416W        W16999   0.332  13.855   3.861
45417W        W17000  32.923  38.405   0.325
45418W        W17001  43.240  11.714  11.997
45419W        W17002   1.733  30.067  12.630
45420W        W17003  44.412   9.014  10.485
45421W        W17004  31.964  42.860   1.386
45422W        W17005  21.993  23.088  10.732
45423W        W17006  15.279  27.698  11.090
45424W        W17007  17.760  25.893  11.985
45425W        W17008  41.336  26.087   4.837
45426W        W17009  38.974   0.905   3.314
45427W        W17010   1.370   7.013   3.227
45428W        W17011  10.674   9.810  11.656
45429W        W17012   9.689  21.857   1.964
45430W        W17013  38.470  40.017  13.505
45431W        W17014  16.405  12.282  11.519
45432W        W17015  33.666  10.192   4.052
45433W        W17016   0.046  14.246  14.942
45434W        W17017   9.275   8.274   4.022
45435W        W17018   3.852  12.797   0.978
45436W        W17019  27.455  22.443   0.942
45437W        W17020  28.513  16.804  13.856
45438W        W17021   4.481  25.059  12.698
45439W        W17022  38.408   4.187   0.148
45440W        W17023  35.588  22.572   0.913
45441W        W17024  17.132  25.909   0.888
45442W        W17025  35.406  30.569  14.307
45443W        W17026   4.749   7.116  14.787
45444W        W17027  10.226  41.783   1.143
45445W        W17028  32.140  28.404   1.206
45446W        W17029   9.477   1.932   3.189
45447W        W17030  16.871   6.856   1.331
45448W        W17031  22.341  30.445  13.860
45449W        W17032   9.702  26.184  12.901
45450W        W17033  37.562  26.741   4.578
45451W        W17034   5.879  41.025   1.308
45452W        W17035  37.882  12.187   3.841
45453W        W17036  41.267  42.015  14.000
45454W        W17037  15.166  43.815  13.276
45455W        W17038  18.706  23.254  14.891
45456W        W17039  44.518  43.534  14.330
45457W        W17040  17.152  39.081  13.051
45458W        W17041  10.204  26.646  14.458
45459W        W17042  14.106   9.448   0.425
45460W        W17043   6.880  28.861  13.818
45461W        W17044   8.440   7.941   3.631
45462W        W17045  43.483   4.972   1.784
45463W        W17046   2.468  15.006  12.272
45464W        W17047  37.941  23.697  13.045
45465W        W17048  29.509  35.114  11.136
45466W        W17049   0.840  44.771   3.122
45467W        W17050  28.142   8.175  11.324
45468W        W17051  27.640  11.035  12.002
45469W        W17052  42.432  15.046  12.572
45470W        W17053  15.104  20.226   4.179
45471W        W17054  12.737  20.008  11.480
45472W        W17055  40.448  42.976  11.331
45473W        W17056  29.891  36.004   3.615
45474W        W17057  43.079  43.967  13.423
45475W        W17058   2.965   2.833  13.130
45476W        W17059  17.151  30.047   3.840
45477W        W17060  31.172   0.232   3.223
45478W        W17061  18.291   5.824  12.787
45479W        W17062  29.945   9.843   4.178
45480W        W17063  29.153   3.939   1.979
45481W        W17064  41.939  23.468  11.876
45482W        W17065  20.006  26.081  11.108
45483W        W17066   5.137  11.692   1.985
45484W        W17067   7.902  18.625   0.487
45485W        W17068   7.422   7.317   0.418
45486W        W17069  44.423  25.535  11.672
45487W        W17070  25.628  12.621   4.081
45488W        W17071  15.441  35.904   1.108
45489W        W17072  41.340  24.150   3.181
45490W        W17073  29.111  27.949   0.789
45491W        W17074  18.327  20.653   1.074
45492W        W17075  26.613  25.781   0.464
45493W        W17076  27.705  30.631  13.881
45494W        W17077  25.117  41.839  11.927
45495W        W17078   5.158  42.574  10.518
45496W        W17079  31.709  41.448  13.917
45497W        W17080  18.541  43.124   1.238
45498W        W17081  40.609  14.795  13.055
45499W        W17082  28.555  10.325  10.687
45500W        W17083  29.476  23.618  13.843
45501W        W17084  35.999  32.396   0.388
45502W        W17085  33.023  18.386  13.012
45503W        W17086   5.618   4.366   2.824
45504W        W17087  12.820  21.020  11.449
45505W        W17088  33.209  21.054   4.924
45506W        W17089  21.542  33.622   4.662
45507W        W17090  14.767   1.758   1.901
45508W        W17091  29.428  40.934   0.582
45509W        W17092  10.847   0.763   4.706
45510W        W17093  39.005  20.771   3.337
45511W        W17094  43.817  32.835  13.615
45512W        W17095  40.313  12.381  12.921
45513W        W17096  40.370  33.403   0.815
45514W        W17097  14.829  40.862   1.894
45515W        W17098  31.347  36.756  10.675
45516W        W17099  41.328  30.616  12.014
45517W        W17100  23.910  23.804  11.181
45518W        W17101  34.702  20.732  13.408
45519W        W17102  22.076  41.280   4.618
45520W        W17103  25.100  19.268   4.672
45521W        W17104  32.897  25.232  14.350
45522W        W17105   2.407  32.634   3.543
45523W        W17106  24.293  35.146  13.881
45524W        W17107   0.124  29.032  13.912
45525W        W17108   3.515  14.655  13.385
45526W        W17109   3.762  11.534   0.427
45527W        W17110  34.414  39.636  10.814
45528W        W17111  24.695  41.019   4.372
45529W        W17112  41.036  26.764   2.658
45530W        W17113  29.510  34.825  13.943
45531W        W17114  43.741  28.016   3.641
45532W        W17115  24.699  21.846   3.545
45533W        W17116  13.710  34.674  10.385
45534W        W17117  25.533   6.935   4.209
45535W        W17118  21.514   5.991   0.436
45536W        W17119  18.783   8.727  11.170
45537W        W17120  20.554  29.968  12.232
45538W        W17121  22.370  32.025  14.844
45539W        W17122  44.769   6.793  14.770
45540W        W17123  20.291  32.248   2.925
45541W        W17124  42.916  25.013   2.340
45542W        W17125  22.866  22.079   4.676
45543W        W17126  34.947  38.126  10.951
45544W        W17127  32.999   0.771  13.059
45545W        W17128  10.593   3.858   4.599
45546W        W17129  33.631  42.563  14.833
45547W        W17130  37.547  27.930  12.630
45548W        W17131   4.264  12.098  10.763
45549W        W17132  43.074  10.178  12.089
45550W        W17133  20.817  27.122   3.237
45551W        W17134   4.690  10.134  10.608
45552W        W17135   7.160  19.954  11.407
45553W        W17136   6.362   8.721  10.661
45554W        W17137  30.708  36.414   3.623
45555W        W17138  32.962  25.159  12.426
45556W        W17139  24.399  18.762   4.214
45557W        W17140  44.303  35.620   1.841
45558W        W17141  13.691   4.594  14.408
45559W        W17142   7.709  23.243  13.816
45560W        W17143  18.548  29.113   1.415
45561W        W17144  25.025   6.426  14.621
45562W        W17145  27.464  41.704   0.689
45563W        W17146   5.758  15.851   0.495
45564W        W17147  26.985   9.639  14.282
45565W        W17148  27.482  44.721   3.195
45566W        W17149  18.538  24.443   0.671
45567W        W17150  34.616  36.492  10.742
45568W        W17151  36.480  39.348   1.258
45569W        W17152  44.239  28.178  14.966
45570W        W17153  14.524  24.708   1.340
45571W        W17154   6.781  29.028   0.988
45572W        W17155   9.047  24.439   0.377
45573W        W17156  13.206  36.983   0.713
45574W        W17157  26.106  18.532  12.124
45575W        W17158  22.841  28.579   4.601
45576W        W17159  34.085  35.612   3.400
45577W        W17160  33.495   5.934   4.189
45578W        W17161   9.844  27.109  12.058
45579W        W17162  19.262   1.888   1.752
45580W        W17163  17.573  40.336   2.365
45581W        W17164   3.207   4.916   0.496
45582W        W17165  11.313   3.766   1.348
45583W        W17166   0.028  14.300  12.054
45584W        W17167   6.928  22.612   2.385
45585W        W17168  12.252   1.316   4.286
45586W        W17169  35.517  25.978   2.811
45587W        W17170  23.111  37.895   1.785
45588W        W17171  43.920   6.736   0.828
45589W        W17172  20.773   4.084   4.608
45590W        W17173  44.710   5.852  13.271
45591W        W17174  36.296  17.270   2.270
45592W        W17175  25.523  16.573   1.453
45593W        W17176  21.545   4.653   3.724
45594W        W17177  17.340  20.116   1.732
45595W        W17178  33.376  13.105   0.220
45596W        W17179  36.279   6.414   3.316
45597W        W17180  39.979  43.440  10.669
45598W        W17181  17.056  10.526   5.148
45599W        W17182   1.342  14.623   4.540
45600W        W17183   8.885  14.227   3.592
45601W        W17184  22.501  38.105  11.029
45602W        W17185  29.902  43.355   1.905
45603W        W17186   5.920  15.688   0.965
45604W        W17187  17.354   9.798  13.791
45605W        W17188  30.079   3.286   1.314
45606W        W17189  22.089  21.580   4.832
45607W        W17190   2.932  10.451  11.785
45608W        W17191   3.087  28.244   4.494
45609W        W17192  27.156  20.633   4.555
45610W        W17193   4.407   8.391   0.908
45611W        W17194  25.262  37.948  13.840
45612W        W17195  25.573  18.166  11.068
45613W        W17196   4.891  34.402   0.828
45614W        W17197  43.443  42.021  13.397
45615W        W17198  22.205   4.770  11.061
45616W        W17199  33.773  32.312  13.397
45617W        W17200  26.949  43.403   1.893
45618W        W17201   2.259  13.369  11.116
45619W        W17202   7.482  15.464  10.320
45620W        W17203   6.702  17.733   0.843
45621W        W17204  14.615  20.782   0.337
45622W        W17205  23.988  26.888   0.337
45623W        W17206  33.572   0.788  12.146
45624W        W17207  20.296  40.915   0.625
45625W        W17208  13.664  43.962   3.666
45626W        W17209   4.917   4.098   5.112
45627W        W17210  36.893  30.443  12.123
45628W        W17211  11.845  12.885   3.733
45629W        W17212  28.915  28.792   2.753
45630W        W17213  39.740   9.124   2.246
45631W        W17214   3.016  16.812   2.391
45632W        W17215  39.074   8.861   4.899
45633W        W17216  39.433   4.452   3.792
45634W        W17217  22.160  37.004   0.015
45635W        W17218  40.478  15.962  13.432
45636W        W17219  23.483  33.130   2.356
45637W        W17220  20.142  44.797  14.870
45638W        W17221  31.539  36.864   3.332
45639W        W17222  27.540  38.866   2.737
45640W        W17223  11.780  20.035   2.458
45641W        W17224  39.553   6.668  14.251
45642W        W17225  15.613  17.889  14.160
45643W        W17226   5.614  27.923  14.176
45644W        W17227  40.844  36.393   0.313
45645W        W17228   1.996  12.835   0.416
45646W        W17229  18.355  17.579   3.595
45647W        W17230  11.593  30.981  14.307
45648W        W17231  30.126  31.637   2.877
45649W        W17232   2.060  10.065   2.434
45650W        W17233   8.355  17.647  14.732
45651W        W17234   1.782  40.259   4.092
45652W        W17235   4.075  41.637  12.012
45653W        W17236   6.186  30.508   4.641
45654W        W17237  21.998  13.723  13.470
45655W        W17238  33.066  35.953   2.420
45656W        W17239   0.422  13.144  11.233
45657W        W17240   5.290  38.179   9.957
45658W        W17241  33.591  23.619  12.911
45659W        W17242   0.399   7.125   0.920
45660W        W17243  27.535  22.482   2.313
45661W        W17244  33.684  38.768   4.536
45662W        W17245  36.053  29.235   4.188
45663W        W17246  31.928  37.151  14.039
45664W        W17247  28.906  17.277   0.468
45665W        W17248  23.237  41.961  11.536
45666W        W17249  37.911  16.902   3.187
45667W        W17250  38.742   0.345  14.308
45668W        W17251  10.755  15.401   0.877
45669W        W17252   8.956  36.017  13.100
45670W        W17253  18.074  30.624   1.719
45671W        W17254  26.310  36.245   3.232
45672W        W17255   1.218   1.759   0.825
45673W        W17256  33.002  26.917   2.402
45674W        W17257   7.908  18.828  11.590
45675W        W17258  11.941  29.076  11.568
45676W        W17259  15.577  43.427   0.757
45677W        W17260  31.525  30.414  13.479
45678W        W17261  19.342   2.319  14.422
45679W        W17262  32.569  23.484  14.331
45680W        W17263  22.205   8.647   3.150
45681W        W17264  19.285   1.310  13.559
45682W        W17265  27.203  18.772  11.572
45683W        W17266  18.018  17.695  11.628
45684W        W17267  23.640  39.173   4.281
45685W        W17268  19.080  40.112  13.370
45686W        W17269   1.932  19.582  12.926
45687W        W17270  30.564  34.825   4.237
45688W        W17271  43.344   6.839   1.727
45689W        W17272  39.990  35.096   1.439
45690W        W17273  19.633  17.507  10.682
45691W        W17274  14.845   0.824  11.098
45692W        W17275   1.203   2.325  11.505
45693W        W17276  27.714  42.485   2.661
45694W        W17277  44.969  13.877   0.299
45695W        W17278   8.903  11.249  14.378
45696W        W17279  21.025   5.671  11.922
45697W        W17280  25.912  32.492  12.822
45698W        W17281  38.806  23.720   3.569
45699W        W17282  28.650  26.042   0.236
45700W        W17283  18.326  26.957   1.743
45701W        W17284  29.288  26.086  12.175
45702W        W17285  44.366  27.428  10.809
45703W        W17286   8.212   0.897   3.705
45704W        W17287  26.831  21.079   0.830
45705W        W17288  11.659  12.455   1.008
45706W        W17289  33.344  16.220  12.776
45707W        W17290  22.643  34.495  12.495
45708W        W17291  42.881   1.253  13.013
45709W        W17292   1.843  33.957   0.673
45710W        W17293  43.721  38.032   0.342
45711W        W17294  43.966  19.258  12.016
45712W        W17295  17.665   9.781   1.903
45713W        W17296  10.859  28.702   1.317
45714W        W17297  29.889  36.982   2.791
45715W        W17298  13.076  27.213   2.361
45716W        W17299   6.463   2.976  14.560
45717W        W17300  32.310   5.381   0.322
45718W        W17301  17.144  40.475   0.206
45719W        W17302  27.146   8.773   3.594
45720W        W17303  36.898  43.078  11.662
45721W        W17304  31.126  39.981   1.637
45722W        W17305   1.412  25.280  13.738
45723W        W17306  28.017   6.716   4.807
45724W        W17307  21.027  14.224   2.999
45725W        W17308  22.822  18.606   4.945
45726W        W17309  41.722  38.126   1.397
45727W        W17310  10.416   5.399   0.846
45728W        W17311   3.457  25.012  11.250
45729W        W17312  21.636  32.347  12.584
45730W        W17313  30.000  11.296   2.247
45731W        W17314  42.335  43.002  12.313
45732W        W17315  21.126  30.514  14.528
45733W        W17316  22.071   4.886   2.286
45734W        W17317  22.051  35.057   4.161
45735W        W17318  18.792  18.626  11.357
45736W        W17319  31.445  15.884  13.496
45737W        W17320   7.699  34.007  10.976
45738W        W17321  27.806  31.100  10.724
45739W        W17322  25.138  13.824  13.513
45740W        W17323  13.200  11.837  14.985
45741W        W17324  19.292  13.816  13.545
45742W        W17325  32.553   7.920   3.649
45743W        W17326   8.447  39.426  10.717
45744W        W17327  23.594  40.803  13.494
45745W        W17328  42.623   3.483  11.942
45746W        W17329   1.491  22.347  12.161
45747W        W17330  23.733  33.100  12.901
45748W        W17331   4.030  20.610  11.373
45749W        W17332   0.051  39.066  14.995
45750W        W17333   1.233  21.699  13.858
45751W        W17334  41.322  17.748  11.469
45752W        W17335  28.649  23.614   3.744
45753W        W17336   9.813  19.541  13.362
45754W        W17337  31.484  23.741   2.116
45755W        W17338  22.136   6.695  12.582
45756W        W17339  14.680  11.955  13.816
45757W        W17340   4.519  13.375   4.923
45758W        W17341   6.316   6.353  11.618
45759W        W17342   8.130  11.812   0.520
45760W        W17343  10.066  37.339  11.596
45761W        W17344  32.452  14.397  12.029
45762W        W17345  10.240  22.539  13.324
45763W        W17346  17.015  19.809  12.868
45764W        W17347  40.623   8.407   0.895
45765W        W17348  38.357  33.071   1.626
45766W        W17349  22.396  34.178  12.122
45767W        W17350  20.277  36.842   1.503
45768W        W17351  13.898  36.970   4.777
45769W        W17352  36.954  28.042   4.100
45770W        W17353  19.962   3.106   1.165
45771W        W17354  17.553   6.332   2.977
45772W        W17355   7.166  35.352   4.249
45773W        W17356  13.381  33.521   1.704
45774W        W17357  17.288  26.622  13.919
45775W        W17358  11.684  38.825   2.342
45776W        W17359   9.326  10.616   4.175
45777W        W17360  26.328  23.337   1.300
45778W        W17361  16.343  20.542   0.824
45779W        W17362  35.094  11.164  10.052
45780W        W17363   1.940   9.582   4.737
45781W        W17364  37.416  11.429  14.673
45782W        W17365  39.967  21.173  10.362
45783W        W17366  11.842  24.132   3.137
45784W        W17367   1.867   0.210   1.719
45785W        W17368  28.956  24.915  13.233
45786W        W17369  30.632  30.949  10.458
45787W        W17370  11.974  31.167  11.834
45788W        W17371   9.170  42.374   3.860
45789W        W17372  34.574  31.063  14.689
45790W        W17373   5.194  41.437   1.479
45791W        W17374  23.716  42.551   1.236
45792W        W17375  29.502  33.441   4.746
45793W        W17376  31.398   9.366  13.027
45794W        W17377  12.729  16.009   4.501
45795W        W17378  26.835   2.271   3.634
45796W        W17379  40.474  36.962  11.038
45797W        W17380  36.510  26.827   5.006
45798W        W17381  14.085  16.616  13.833
45799W        W17382  43.589  27.179  10.481
45800W        W17383  32.968   9.462  14.385
45801W        W17384  40.806  37.248   1.512
45802W        W17385  24.238  25.651   3.705
45803W        W17386   2.353  21.022   4.379
45804W        W17387   6.380  24.643   2.320
45805W        W17388   5.373  29.094  11.527
45806W        W17389  16.317   3.162   0.370
45807W        W17390  21.525  23.945   1.729
45808W        W17391  16.279  12.872   4.103
45809W        W17392  15.770  37.823  12.020
45810W        W17393  23.105  35.678   0.160
45811W        W17394   6.937  40.515   2.782
45812W        W17395  38.955   4.790  14.554
45813W        W17396  21.671  12.437  14.920
45814W        W17397  19.964  37.280   4.241
45815W        W17398   8.164  29.248  12.207
45816W        W17399  36.625  20.870   9.827
45817W        W17400  20.111  30.819   1.393
45818W        W17401  44.663  14.805  13.400
45819W        W17402  30.756  20.198  14.790
45820W        W17403  35.584  31.875   2.668
45821W        W17404  38.492  13.314   4.797
45822W        W17405  40.506  38.093   2.264
45823W        W17406  26.947   2.386   1.177
45824W        W17407   2.178  32.928  14.449
45825W        W17408  17.229  25.482   3.364
45826W        W17409  21.233  40.413   1.227
45827W        W17410  31.937  38.462   0.458
45828W        W17411  16.554   6.276  12.747
45829W        W17412  44.277  43.535   3.149
45830W        W17413   3.439  27.038  13.126
45831W        W17414  16.298  26.002   0.498
45832W        W17415  43.685  40.173   1.843
45833W        W17416  10.316  21.115   5.214
45834W        W17417  22.958  20.893   3.316
45835W        W17418   8.847  34.071  14.777
45836W        W17419  12.892  13.675   3.346
45837W        W17420  42.448  32.142   0.259
45838W        W17421  14.818  24.736   2.284
45839W        W17422  38.054   0.439  14.936
45840W        W17423  27.017  27.913  12.245
45841W        W17424   0.098  36.465  13.076
45842W        W17425  17.503  35.317   0.546
45843W        W17426  26.525   8.246   0.747
45844W        W17427  34.838  24.587  10.680
45845W        W17428  33.637   2.860   3.706
45846W        W17429  28.686  40.427   4.612
45847W        W17430  42.500  27.338  11.957
45848W        W17431  44.678  15.221   3.217
45849W        W17432  12.910   4.232   0.761
45850W        W17433  27.501  39.747  12.454
45851W        W17434  30.509   4.389   0.888
45852W        W17435  36.533  10.705   4.421
45853W        W17436  18.779  26.679   3.350
45854W        W17437  21.165   5.826   0.783
45855W        W17438  32.809   3.691   3.761
45856W        W17439  17.681  38.963  13.051
45857W        W17440  41.116  44.471  10.673
45858W        W17441  14.857  35.577  14.797
45859W        W17442  20.154   0.178  11.652
45860W        W17443   0.061  38.297   0.271
45861W        W17444  39.105  10.392  14.407
45862W        W17445  11.871  24.134  14.413
45863W        W17446   2.667   7.780  11.769
45864W        W17447   0.933   5.565  14.092
45865W        W17448  12.458  27.755  11.122
45866W        W17449   7.188  26.235   2.785
45867W        W17450  10.413  33.557   2.572
45868W        W17451  19.349  28.189  11.845
45869W        W17452   7.305  22.280   3.849
45870W        W17453  10.829   1.046   1.735
45871W        W17454  21.219  10.342   0.408
45872W        W17455  17.269   1.208  14.410
45873W        W17456  13.615  29.723   1.136
45874W        W17457  33.382  13.852  12.977
45875W        W17458   3.130  26.207  12.513
45876W        W17459  34.376  37.683   0.654
45877W        W17460   3.695  25.761   4.907
45878W        W17461  31.359  23.996   0.474
45879W        W17462  42.572  43.074   1.376
45880W        W17463  14.654  33.523   9.959
45881W        W17464  15.705  14.381  11.328
45882W        W17465  27.930  29.524   3.389
45883W        W17466  32.173  27.207  11.617
45884W        W17467  38.592  43.455   4.064
45885W        W17468  27.984  18.012  11.447
45886W        W17469  19.134  16.627   3.348
45887W        W17470  37.230  31.995  11.522
45888W        W17471  33.238   8.321   2.699
45889W        W17472  12.617   9.134  12.321
45890W        W17473  26.169   2.533  10.954
45891W        W17474  40.904  11.502  12.823
45892W        W17475  23.305  26.761   0.109
45893W        W17476  29.534  10.935   4.631
45894W        W17477  42.920  29.899   2.803
45895W        W17478  12.313  42.219  11.862
45896W        W17479   2.837   5.834   1.133
45897W        W17480  30.467   4.914  10.875
45898W        W17481  37.927  24.308  12.044
45899W        W17482  23.808  41.781   4.129
45900W        W17483  35.888  16.806  14.922
45901W        W17484  14.291  21.988  11.294
45902W        W17485  14.585   2.989   2.751
45903W        W17486   4.696  26.090  13.763
45904W        W17487   7.161  16.350  11.686
45905W        W17488  21.110  27.645  13.011
45906W        W17489  43.533  31.739   1.190
45907W        W17490  18.761  23.750   1.391
45908W        W17491  21.457  13.505  11.903
45909W        W17492  16.690  35.061  13.061
45910W        W17493  24.198  31.964   0.521
45911W        W17494  24.573  24.619  11.400
45912W        W17495  36.427  16.888  12.106
45913W        W17496   4.894  12.346  13.096
45914W        W17497  27.415   6.726  12.550
45915W        W17498   3.535  11.396  12.587
45916W        W17499  19.055  11.550  11.936
45917W        W17500  44.834  21.564   1.007
45918W        W17501   5.734  39.277   4.232
45919W        W17502   5.550   8.648   2.342
45920W        W17503  25.107   6.456  11.615
45921W        W17504   5.911  29.116   0.422
45922W        W17505  26.737  38.030  11.530
45923W        W17506  42.482  37.093   2.837
45924W        W17507  18.339   0.252  13.568
45925W        W17508  39.522   3.865   2.665
45926W        W17509  11.117  10.839   2.347
45927W        W17510  30.521  27.412   1.842
45928W        W17511  37.880  38.934  13.221
45929W        W17512  18.219  20.987  14.578
45930W        W17513   1.777   2.543  12.065
45931W        W17514  15.871  34.819  10.316
45932W        W17515  29.448  32.324  13.869
45933W        W17516  30.494   2.971   3.853
45934W        W17517  27.062  16.490  11.714
45935W        W17518  18.333  30.099  11.530
45936W        W17519   7.948  25.919   0.748
45937W        W17520  34.453   5.643   2.318
45938W        W17521  30.824   8.545  12.545
45939W        W17522  27.275  10.896  11.065
45940W        W17523  36.265  37.947   0.404
45941W        W17524   5.719  42.483   3.676
45942W        W17525  17.737  28.893  12.047
45943W        W17526   2.593  26.934   1.437
45944W        W17527  36.520  31.589  11.282
45945W        W17528  19.698  12.670  12.066
45946W        W17529  31.317  20.067   4.955
45947W        W17530  38.980   5.040  10.733
45948W        W17531  28.459  26.025   4.609
45949W        W17532   9.075  12.520   1.215
45950W        W17533  32.873  23.159  10.633
45951W        W17534  42.242  38.537  10.863
45952W        W17535  43.337  40.103   4.414
45953W        W17536  41.847   6.290   4.473
45954W        W17537  16.298  24.628  12.408
45955W        W17538  18.121   8.702   4.576
45956W        W17539  31.162   8.238  11.641
45957W        W17540   4.991  26.782  11.543
45958W        W17541   5.536  19.310   1.230
45959W        W17542  26.201   1.787   2.589
45960W        W17543  16.773  28.253   0.921
45961W        W17544   2.881  34.020   3.056
45962W        W17545   9.636  28.649  11.557
45963W        W17546  40.796  40.621  13.391
45964W        W17547   8.454   0.772   3.232
45965W        W17548  25.691  31.557  14.670
45966W        W17549  27.454   4.210   2.880
45967W        W17550   7.438  27.920   1.703
45968W        W17551  23.090  14.289  14.700
45969W        W17552  11.240  26.590   0.487
45970W        W17553  25.058  36.876  13.274
45971W        W17554  10.870  28.863  12.031
45972W        W17555   6.554  12.015  10.879
45973W        W17556   3.207  31.611  14.926
45974W        W17557  21.133  16.704  12.573
45975W        W17558  28.947   6.391   0.786
45976W        W17559  16.449  18.168   3.259
45977W        W17560  22.107  38.493  12.850
45978W        W17561  11.058  10.239  14.075
45979W        W17562  37.106  23.265  11.182
45980W        W17563   4.822  41.046  14.070
45981W        W17564  39.449  30.836  11.072
45982W        W17565  31.369  44.828  11.235
45983W        W17566  28.094  16.757  12.533
45984W        W17567  14.205  11.716   1.301
45985W        W17568  23.287  28.164  11.231
45986W        W17569  33.743   2.135  10.444
45987W        W17570  18.196   8.780  13.052
45988W        W17571  37.048  18.950  11.526
45989W        W17572  19.312   6.914  14.342
45990W        W17573  44.276  38.079  10.691
45991W        W17574  21.787   6.282  14.088
45992W        W17575  41.119  25.329   0.097
45993W        W17576  41.471  22.350   0.478
45994W        W17577   1.707   3.005  11.198
45995W        W17578  21.542  28.968   1.358
45996W        W17579  37.234   7.230   4.024
45997W        W17580  18.774  16.207  13.152
45998W        W17581  41.050  11.722   2.204
45999W        W17582  26.441   3.514  11.093
46000W        W17583  43.577   0.791  13.063
46001W        W17584   1.372   8.420  14.948
46002W        W17585   0.870  17.294   3.651
46003W        W17586  36.495  23.545  13.327
46004W        W17587  38.838  35.118   2.219
46005W        W17588  23.155  11.798   3.872
46006W        W17589  25.663  19.001   2.938
46007W        W17590   7.638  43.508  11.553
46008W        W17591  29.070  37.456   1.850
46009W        W17592   0.108  42.716  13.112
46010W        W17593  12.156  40.810   0.214
46011W        W17594  38.353  42.846   0.559
46012W        W17595  36.059  43.051   4.658
46013W        W17596  17.818  31.352   0.769
46014W        W17597  40.009  18.269   2.730
46015W        W17598  43.596  44.867  13.024
46016W        W17599  13.800  31.563   0.687
46017W        W17600  10.285  33.980  11.573
46018W        W17601  15.246  39.147  11.957
46019W        W17602  10.909  35.439   3.860
46020W        W17603  42.254  23.969  11.575
46021W        W17604  38.081   5.263   3.073
46022W        W17605  15.328  24.604   2.322
46023W        W17606  17.295   9.342  14.906
46024W        W17607  19.105  20.079   0.021
46025W        W17608  10.122  42.454   3.717
46026W        W17609  16.764   6.394  12.284
46027W        W17610   8.650   9.151  14.484
46028W        W17611  19.970   7.322  13.127
46029W        W17612  18.258  18.552  11.653
46030W        W17613  41.137  34.125   2.266
46031W        W17614  10.392  40.313   3.130
46032W        W17615   7.804   0.017   0.764
46033W        W17616  36.267   0.805   4.810
46034W        W17617   7.930  23.670   1.256
46035W        W17618  34.947  10.647  13.337
46036W        W17619  11.355  39.942  12.623
46037W        W17620  42.191  14.437   1.724
46038W        W17621  30.378  18.335   4.271
46039W        W17622  15.621   5.785  13.288
46040W        W17623  43.922  22.406  11.473
46041W        W17624  11.724  15.095   3.677
46042W        W17625  22.579  22.166   2.305
46043W        W17626   0.767  15.781   3.721
46044W        W17627  21.256  23.514   4.867
46045W        W17628   2.698  32.380   0.657
46046W        W17629  22.480  40.852   2.976
46047W        W17630  10.174   5.211  14.659
46048W        W17631   0.394   0.102  11.107
46049W        W17632  31.214  16.990   0.887
46050W        W17633  24.559  12.357   3.324
46051W        W17634  28.525  27.595  11.575
46052W        W17635  38.491  21.258   2.133
46053W        W17636  11.722  39.824   1.951
46054W        W17637  34.442  26.080   2.824
46055W        W17638  42.503  30.135   4.102
46056W        W17639   1.956  36.319   0.935
46057W        W17640   4.866   4.595   4.994
46058W        W17641  24.495  32.633   1.757
46059W        W17642  30.594  11.768  10.704
46060W        W17643  16.112  21.260   4.897
46061W        W17644   1.262   5.698  12.444
46062W        W17645  20.089  20.874   2.091
46063W        W17646  29.370  35.978   3.664
46064W        W17647   3.475  10.278   0.919
46065W        W17648  32.174  30.162  13.494
46066W        W17649  26.583  15.531   1.266
46067W        W17650   4.332   3.919  13.879
46068W        W17651  42.083  26.611   0.894
46069W        W17652  34.966  21.466  14.015
46070W        W17653  29.691  37.991  13.992
46071W        W17654   3.753  15.178   2.125
46072W        W17655   1.462   6.929   4.592
46073W        W17656  19.721   0.817  11.571
46074W        W17657  37.463  42.634   0.856
46075W        W17658  31.032  43.306   3.372
46076W        W17659  42.353  15.318  11.559
46077W        W17660  21.822   6.265  13.506
46078W        W17661  29.700  39.269  14.536
46079W        W17662  31.660  37.255   2.400
46080W        W17663  32.735  16.048   0.097
46081W        W17664  14.848  10.655  11.546
46082W        W17665  41.603   5.397  14.562
46083W        W17666  23.671  34.437  12.480
46084W        W17667  24.063  18.161  11.404
46085W        W17668  34.147   4.901  11.008
46086W        W17669  37.122  12.550  10.456
46087W        W17670  35.126  35.896  12.079
46088W        W17671  17.749  17.103  12.957
46089W        W17672  16.665  36.011   3.450
46090W        W17673  26.534  32.889  14.817
46091W        W17674  18.147  27.648   4.256
46092W        W17675  22.000   5.323   0.733
46093W        W17676  24.359  31.357   2.362
46094W        W17677   3.660  13.285  13.018
46095W        W17678   2.163  22.921  12.004
46096W        W17679   2.339  29.503   4.738
46097W        W17680  38.755   9.765   1.065
46098W        W17681   7.781   5.144   1.472
46099W        W17682  19.294  15.223   1.425
46100W        W17683   3.919  27.982  14.884
46101W        W17684  32.974  40.065   4.964
46102W        W17685  12.317  11.451  11.465
46103W        W17686  11.999   5.331   0.046
46104W        W17687   3.817   7.220   2.297
46105W        W17688  29.368  35.192   0.297
46106W        W17689  43.498   5.374  11.098
46107W        W17690  10.944   0.419   4.309
46108W        W17691  44.290  37.981   3.596
46109W        W17692  28.187  14.681   4.555
46110W        W17693  35.539   7.600  12.567
46111W        W17694  25.721  20.797  14.265
46112W        W17695  41.286  26.566  12.045
46113W        W17696   2.976   8.860  13.527
46114W        W17697  10.613   5.298   4.529
46115W        W17698  43.302  37.109   1.746
46116W        W17699   8.826   7.018  10.167
46117W        W17700  30.991  29.374   3.332
46118W        W17701  31.452  20.524   4.118
46119W        W17702   9.776   3.918  10.636
46120W        W17703  36.352  43.409   3.304
46121W        W17704  25.160  31.563   1.294
46122W        W17705  11.797   6.938   3.303
46123W        W17706  37.555  21.677  14.630
46124W        W17707  17.552  42.742  12.650
46125W        W17708  34.050   5.640   0.513
46126W        W17709   3.480  14.174   2.873
46127W        W17710  26.408   6.799   0.534
46128W        W17711  40.153  24.144   4.643
46129W        W17712  29.281  26.486   3.664
46130W        W17713  12.067  24.709   4.045
46131W        W17714  38.276  19.057  11.880
46132W        W17715   4.868  18.745   1.180
46133W        W17716  24.845  14.812   4.968
46134W        W17717  37.975  39.059   0.366
46135W        W17718   5.811   4.003   3.726
46136W        W17719   6.383   3.853  10.683
46137W        W17720  44.905   9.890  14.015
46138W        W17721  16.924  23.616  12.938
46139W        W17722  32.523  15.856   1.827
46140W        W17723  14.790  44.621  10.318
46141W        W17724   4.699  18.014  11.101
46142W        W17725  38.887  43.839  12.135
46143W        W17726  19.711  16.800   1.329
46144W        W17727  40.259  25.419   3.265
46145W        W17728  43.829  39.047   3.171
46146W        W17729   9.653  10.920  12.574
46147W        W17730  41.958  26.197  13.883
46148W        W17731  31.112  11.714  10.682
46149W        W17732  31.235  17.890  14.327
46150W        W17733  23.594  37.966  13.290
46151W        W17734   6.836  40.042   3.286
46152W        W17735  31.855  40.261  12.107
46153W        W17736  11.712   2.857  14.636
46154W        W17737  39.765  34.855  14.411
46155W        W17738  14.178  10.470   3.738
46156W        W17739  27.693   2.250   2.327
46157W        W17740  22.282  23.528  12.945
46158W        W17741  14.015  35.798   5.020
46159W        W17742   1.808  43.891  14.048
46160W        W17743  27.779   9.742  13.876
46161W        W17744  40.032  40.516   3.784
46162W        W17745  25.315  34.651   1.460
46163W        W17746   8.521  38.415  10.674
46164W        W17747   9.787  16.356  14.923
46165W        W17748  39.064  41.312  13.495
46166W        W17749  18.109  35.125   1.284
46167W        W17750  43.345   5.704   0.405
46168W        W17751   5.251  15.054  12.890
46169W        W17752   1.182  26.878   4.379
46170W        W17753   0.836  22.245  14.449
46171W        W17754  30.713  43.654   3.580
46172W        W17755  31.463   4.850  13.440
46173W        W17756  10.463  10.310   3.286
46174W        W17757  19.634  26.144  12.037
46175W        W17758  14.437  26.740   4.770
46176W        W17759   1.541  32.124  12.813
46177W        W17760  17.995  22.833   4.922
46178W        W17761   3.993  27.730   0.486
46179W        W17762  19.638  32.609  14.495
46180W        W17763  11.297  14.293  10.493
46181W        W17764  23.243   6.218  13.784
46182W        W17765   7.778  33.579  10.666
46183W        W17766  36.273  12.513  12.640
46184W        W17767  44.597   7.819  10.455
46185W        W17768  40.353  20.617  14.061
46186W        W17769  37.828   7.054  13.982
46187W        W17770  14.075  37.512  10.523
46188W        W17771   2.883  30.631   0.791
46189W        W17772  13.887  11.286   4.606
46190W        W17773  29.950   8.299  13.050
46191W        W17774   6.903   9.379  14.073
46192W        W17775   8.184  35.976   3.575
46193W        W17776  43.370  29.751   0.728
46194W        W17777  22.039  18.106  12.634
46195W        W17778  40.938  18.621   0.229
46196W        W17779  41.547  40.542   1.699
46197W        W17780   8.884  40.365   4.574
46198W        W17781  23.456  11.378  14.393
46199W        W17782  43.989   5.234   4.072
46200W        W17783  32.091  11.815  14.820
46201W        W17784  40.360  40.540  12.107
46202W        W17785  29.987   4.257   3.729
46203W        W17786  17.448   7.667   4.565
46204W        W17787  38.125  12.727   0.803
46205W        W17788  23.146  40.002   4.305
46206W        W17789  44.277  39.506   4.940
46207W        W17790  21.071  44.002   4.819
46208W        W17791  32.915   3.240   3.031
46209W        W17792  43.666  11.906  11.353
46210W        W17793  33.594  19.741   9.937
46211W        W17794  14.279  24.056  13.538
46212W        W17795   2.340  38.585  12.009
46213W        W17796  35.295   2.734   0.699
46214W        W17797  10.578  30.528   0.289
46215W        W17798  24.964   8.417  10.553
46216W        W17799  32.200  32.113  14.159
46217W        W17800  24.567   8.968  14.003
46218W        W17801  14.074  40.013  11.049
46219W        W17802  42.059   8.478   3.662
46220W        W17803  20.024   9.789  12.857
46221W        W17804  25.791   6.145  11.942
46222W        W17805  27.602   4.052  11.975
46223W        W17806  10.497  18.848   3.560
46224W        W17807   0.386  16.089   4.942
46225W        W17808  39.883  40.359  14.703
46226W        W17809  18.748  38.375   1.899
46227W        W17810  16.472   7.909   0.493
46228W        W17811   5.257   8.923   5.152
46229W        W17812  33.313  25.095  13.184
46230W        W17813  26.208   9.854   5.672
46231W        W17814  38.503  40.296  12.867
46232W        W17815  15.774  14.314  14.350
46233W        W17816  37.433  10.376   0.175
46234W        W17817  33.144  13.258   4.848
46235W        W17818  31.245  36.932   2.412
46236W        W17819  35.373  40.540   0.634
46237W        W17820  11.331   7.305   4.905
46238W        W17821  32.562  33.833   2.738
46239W        W17822   3.209  13.781  13.432
46240W        W17823  37.394   7.903  14.949
46241W        W17824   5.272   5.034  11.876
46242W        W17825  23.841  13.247   2.768
46243W        W17826  41.998   7.831  14.385
46244W        W17827  18.330  21.250  12.488
46245W        W17828   0.593  34.867  13.498
46246W        W17829   2.724  37.862   3.231
46247W        W17830   1.510  18.712  14.648
46248W        W17831  30.637  17.362  10.804
46249W        W17832  11.748  16.715  13.388
46250W        W17833   8.365  28.376   3.749
46251W        W17834  31.554   6.010  13.059
46252W        W17835   9.864  21.773  11.517
46253W        W17836  32.484  30.790  10.531
46254W        W17837  43.040  29.416   2.279
46255W        W17838  26.700   1.449   1.785
46256W        W17839  22.504   8.261   3.304
46257W        W17840  31.302   8.639  10.351
46258W        W17841  19.722  19.340  14.755
46259W        W17842   1.651   1.726  10.808
46260W        W17843  30.646  35.491   2.705
46261W        W17844  13.631  22.249  12.044
46262W        W17845  37.909  33.580  13.922
46263W        W17846  16.945  19.557  11.982
46264W        W17847   4.858  27.980  11.993
46265W        W17848  19.272  27.108  12.440
46266W        W17849  10.957  32.544  12.764
46267W        W17850  13.210  42.007  13.469
46268W        W17851  37.885  32.302  11.082
46269W        W17852   3.437  12.442   3.462
46270W        W17853   9.305  28.102   3.491
46271W        W17854  32.406   6.089  10.755
46272W        W17855  23.266  13.842  11.274
46273W        W17856  15.053  31.897  12.799
46274W        W17857  20.849  33.418   2.798
46275W        W17858  29.242  18.727   4.341
46276W        W17859   8.688  44.078   4.067
46277W        W17860   7.391  16.245   1.982
46278W        W17861   2.383  26.798  12.350
46279W        W17862   3.143   0.913  12.154
46280W        W17863   0.776   9.641   1.373
46281W        W17864  24.269   8.802   0.364
46282W        W17865  37.902  17.523  10.771
46283W        W17866   6.174   7.299   2.475
46284W        W17867  42.777   3.369  13.249
46285W        W17868  18.279  13.871  11.782
46286W        W17869  21.296   1.991   0.687
46287W        W17870  37.347  23.056   3.923
46288W        W17871  11.139  30.716   1.404
46289W        W17872  14.342  21.275  12.010
46290W        W17873  11.282  36.339   2.673
46291W        W17874  16.643   8.195  11.994
46292W        W17875  41.852   7.153  13.923
46293W        W17876  11.213  16.148   0.872
46294W        W17877  44.313   3.235   0.567
46295W        W17878  26.607  44.487   4.831
46296W        W17879  41.282  18.157   1.322
46297W        W17880  38.254  40.636   1.753
46298W        W17881  39.883  22.525   0.648
46299W        W17882  14.077  37.441   3.641
46300W        W17883   8.208  14.766  14.065
46301W        W17884  40.832  42.917  11.010
46302W        W17885   2.753   3.146   2.163
46303W        W17886  10.384  26.745  13.462
46304W        W17887  36.859  30.690  13.512
46305W        W17888  25.129  19.102  12.558
46306W        W17889  31.558  25.143  14.808
46307W        W17890   8.844  22.084   4.730
46308W        W17891  38.604   1.135  11.100
46309W        W17892  27.412  24.363   3.016
46310W        W17893  25.407   9.386  14.960
46311W        W17894  30.666   0.178  13.214
46312W        W17895  32.679  33.406   1.808
46313W        W17896  12.103  29.420   4.558
46314W        W17897  18.302  36.813  12.266
46315W        W17898  34.986  39.060   4.095
46316W        W17899  25.490   7.310   3.763
46317W        W17900  15.083  31.372  12.860
46318W        W17901  18.684   4.377   2.821
46319W        W17902  11.410  19.849  11.795
46320W        W17903   1.024  24.156   1.430
46321W        W17904   1.354  18.836  13.736
46322W        W17905  15.348  18.381   0.719
46323W        W17906   5.404  14.386   1.250
46324W        W17907  19.075  34.929  11.596
46325W        W17908  31.432  28.460   1.805
46326W        W17909  11.778   5.482   3.264
46327W        W17910  26.658  10.016   3.461
46328W        W17911   4.453  18.001   0.242
46329W        W17912   0.068  44.208  13.275
46330W        W17913  15.578  34.093   3.736
46331W        W17914  33.516   1.717  13.800
46332W        W17915   5.373  23.765  13.857
46333W        W17916  17.593   2.427  14.815
46334W        W17917  41.092  34.596   2.090
46335W        W17918  15.778  11.154  13.412
46336W        W17919  20.982  23.640   2.732
46337W        W17920  15.065   4.420  10.359
46338W        W17921  38.554  31.364  13.493
46339W        W17922  26.032  10.891   0.414
46340W        W17923   3.339  36.786   2.183
46341W        W17924  44.496  19.547  11.222
46342W        W17925  24.899  24.276  11.657
46343W        W17926   9.321  26.993  11.988
46344W        W17927  12.968  19.717   2.345
46345W        W17928   4.346  32.151  13.835
46346W        W17929  28.049  33.448  12.487
46347W        W17930  19.125  14.305  13.529
46348W        W17931  24.442  14.518   4.844
46349W        W17932  13.360  29.711  11.014
46350W        W17933  17.654   8.562   4.387
46351W        W17934  42.344  24.596  10.939
46352W        W17935  17.314  44.426   4.963
46353W        W17936  10.843   7.482  11.809
46354W        W17937  28.370  35.906  14.007
46355W        W17938  24.714  19.679   4.453
46356W        W17939   4.679  21.206   1.876
46357W        W17940  18.218   1.716  11.094
46358W        W17941  13.734   6.914  13.919
46359W        W17942   3.228   8.293  14.562
46360W        W17943  43.877  30.633   3.216
46361W        W17944   1.714  42.986  13.526
46362W        W17945  31.138  43.378  13.332
46363W        W17946  32.939   0.267  12.969
46364W        W17947  10.719  37.207   3.330
46365W        W17948   4.078  28.585   1.479
46366W        W17949  30.857  26.469  12.826
46367W        W17950  28.825   8.371   4.572
46368W        W17951  30.373  13.780   2.914
46369W        W17952  33.032  13.227  10.679
46370W        W17953   7.254  17.506  13.462
46371W        W17954  43.408  13.472   0.035
46372W        W17955  42.774  10.629  13.804
46373W        W17956   6.920  25.144  11.569
46374W        W17957  22.269  44.895  14.777
46375W        W17958   7.088  42.293  10.790
46376W        W17959  11.492  42.715   4.670
46377W        W17960  14.840  15.821   2.734
46378W        W17961   3.390  26.108  13.027
46379W        W17962   0.682  38.540   0.686
46380W        W17963  44.952  44.795  11.196
46381W        W17964  42.379  24.420  12.880
46382W        W17965  17.726  20.007  11.653
46383W        W17966  33.643  29.075  11.081
46384W        W17967   4.224  14.176   3.447
46385W        W17968  19.217  23.988   3.736
46386W        W17969   0.479  36.470   2.759
46387W        W17970   8.433   5.718   0.929
46388W        W17971   6.504  30.600  13.453
46389W        W17972  20.282  36.170   0.350
46390W        W17973  39.045  29.915  11.788
46391W        W17974  20.395   9.121   5.239
46392W        W17975  20.963  23.718   0.254
46393W        W17976  30.988  42.512  11.388
46394W        W17977   1.866  13.783   4.833
46395W        W17978  29.149  21.723   3.182
46396W        W17979  15.812  35.046   5.292
46397W        W17980  41.843  43.927   1.954
46398W        W17981   5.525  29.015  12.943
46399W        W17982  26.736  23.587  14.102
46400W        W17983  14.094  31.994  14.392
46401W        W17984  14.292  20.841   2.619
46402W        W17985   3.836  38.076  13.536
46403W        W17986  32.656  23.800   0.193
46404W        W17987  10.773  21.732  14.452
46405W        W17988  20.306  22.517  10.490
46406W        W17989  32.443   6.605   3.299
46407W        W17990  38.698  15.240   2.362
46408W        W17991  22.998  24.958   4.780
46409W        W17992  26.416  30.393  12.317
46410W        W17993  43.817   8.533  11.397
46411W        W17994  19.190  26.134   5.237
46412W        W17995  14.995  38.588   4.273
46413W        W17996  34.479  23.082  13.088
46414W        W17997  38.073  43.904   4.621
46415W        W17998   8.335  44.779   0.813
46416W        W17999  18.095   7.382  11.635
46417W        W18000  10.805   0.016   0.947
46418W        W18001  17.694  30.967  10.903
46419W        W18002  34.651  26.637  14.955
46420W        W18003  30.083  21.218   2.773
46421W        W18004  22.947  24.720  13.462
46422W        W18005  44.011  44.967  14.174
46423W        W18006  11.349  35.709   0.806
46424W        W18007  39.667  24.254   4.474
46425W        W18008   3.339  34.541   1.718
46426W        W18009  14.417  33.981   2.427
46427W        W18010  34.000  38.300   3.583
46428W        W18011  11.725  13.336   5.011
46429W        W18012  20.594  21.483   3.415
46430W        W18013   3.353  23.647  10.747
46431W        W18014  29.135   6.222   4.487
46432W        W18015  27.203   0.691   2.375
46433W        W18016  25.453  13.890  13.058
46434W        W18017  41.972  17.069   0.953
46435W        W18018   4.776   0.855   1.861
46436W        W18019  33.465  17.213  12.419
46437W        W18020  33.864  39.839  11.561
46438W        W18021  34.957  43.310   2.322
46439W        W18022  36.893  39.770  10.822
46440W        W18023  12.209  31.217   4.704
46441W        W18024  33.036  44.536  11.489
46442W        W18025  31.528  24.526   0.729
46443W        W18026   1.019  40.285  12.564
46444W        W18027  26.597  31.411   0.214
46445W        W18028  43.482   6.219  13.932
46446W        W18029  43.447  10.609  11.235
46447W        W18030   7.259  13.106  10.772
46448W        W18031  32.398  29.005  13.851
46449W        W18032  38.755  17.837  10.771
46450W        W18033  19.305  32.552   2.689
46451W        W18034  33.833   7.929  13.428
46452W        W18035  24.678  11.434   3.375
46453W        W18036  19.688  42.792   3.289
46454W        W18037  40.988  15.541   4.328
46455W        W18038   1.776  22.671   1.721
46456W        W18039   3.958  27.084  11.202
46457W        W18040  21.635  14.687   1.978
46458W        W18041  25.197  22.021   0.974
46459W        W18042  11.807  19.612  10.783
46460W        W18043  41.427  12.384  10.781
46461W        W18044   7.811  18.943   2.421
46462W        W18045  32.765  29.879  14.216
46463W        W18046   0.122  42.894  14.564
46464W        W18047  25.002   8.511   1.458
46465W        W18048  12.902  25.164  11.996
46466W        W18049  36.883  18.456   0.984
46467W        W18050  16.166  13.108   3.667
46468W        W18051   3.766  21.241  14.438
46469W        W18052  41.292  19.170   1.985
46470W        W18053   4.532   7.386   0.193
46471W        W18054  10.343  25.667  14.921
46472W        W18055   2.911  38.362  13.857
46473W        W18056  40.578   3.686  13.388
46474W        W18057  36.951   7.633   2.310
46475W        W18058  35.956  17.726   1.731
46476W        W18059  33.361  31.099   1.840
46477W        W18060  25.057  13.367   4.044
46478W        W18061  20.901  38.969  12.586
46479W        W18062  44.801  16.383  13.526
46480W        W18063  33.139   0.448  11.102
46481W        W18064  31.128  37.184  11.141
46482W        W18065   7.949  26.060   3.632
46483W        W18066  40.057  24.906   3.169
46484W        W18067   4.953  16.711   9.826
46485W        W18068  41.966  17.984  12.889
46486W        W18069  31.962  42.899  11.615
46487W        W18070  39.799  10.219   4.759
46488W        W18071  41.459  25.430   2.394
46489W        W18072   9.695   3.907   0.319
46490W        W18073  34.168   9.397   3.677
46491W        W18074   9.379  21.914   1.195
46492W        W18075   3.991  20.019  14.882
46493W        W18076  20.594  16.010   3.720
46494W        W18077  40.727  32.776   4.089
46495W        W18078  37.336  34.191  12.017
46496W        W18079  17.177  19.093  12.037
46497W        W18080  20.932   4.778  11.229
46498W        W18081  30.945  38.065  14.472
46499W        W18082  37.090  40.784  10.810
46500W        W18083  10.760   0.533   1.810
46501W        W18084  33.501  40.944  14.974
46502W        W18085  38.276  30.813  10.185
46503W        W18086  36.373  42.585   3.033
46504W        W18087  14.271  29.204   0.519
46505W        W18088  18.670  42.191  12.086
46506W        W18089  24.778   0.914  12.232
46507W        W18090   6.464  41.532  10.677
46508W        W18091  42.851  41.931   4.025
46509W        W18092  15.221   0.031  13.910
46510W        W18093  44.333  11.452   0.315
46511W        W18094  10.115  43.408   3.744
46512W        W18095  44.227  18.507  10.654
46513W        W18096   3.870  13.313   1.947
46514W        W18097  23.469  21.136   4.253
46515W        W18098  25.474   8.451   0.196
46516W        W18099   2.030  16.352  12.974
46517W        W18100  36.555   5.168   1.850
46518W        W18101  27.061  31.582  14.366
46519W        W18102  15.804   2.545  12.624
46520W        W18103   6.445  44.532   1.611
46521W        W18104  32.010   9.841   0.649
46522W        W18105  37.317  30.663   2.986
46523W        W18106  10.436   1.364  12.935
46524W        W18107  17.401  13.258  14.453
46525W        W18108  18.014  18.847   2.904
46526W        W18109  28.048  25.297  13.943
46527W        W18110   9.410  20.475  12.515
46528W        W18111  25.519  38.415   1.903
46529W        W18112  39.741  42.906   4.390
46530W        W18113  27.810   4.382  10.479
46531W        W18114  31.555  39.913  14.537
46532W        W18115  19.601  22.565   1.682
46533W        W18116   8.654  32.106   3.973
46534W        W18117  36.348  33.134   1.428
46535W        W18118  17.385  12.841  10.320
46536W        W18119  10.829  35.956   2.755
46537W        W18120  35.808  42.766   2.341
46538W        W18121  11.729   7.254   0.838
46539W        W18122   9.251  28.996   0.895
46540W        W18123  17.964  17.996   0.689
46541W        W18124  20.535  10.958  13.938
46542W        W18125  14.101  38.594  13.040
46543W        W18126   0.938   2.063  11.158
46544W        W18127  20.436  39.762   0.484
46545W        W18128  14.401  20.547   0.770
46546W        W18129  12.636  41.321  10.785
46547W        W18130  26.438   8.040  11.516
46548W        W18131  14.238  43.739  13.766
46549W        W18132   4.183   9.416   0.986
46550W        W18133  18.539   0.084  10.432
46551W        W18134  44.219  11.650   4.075
46552W        W18135  23.184  40.154  14.938
46553W        W18136  44.938   8.965   2.742
46554W        W18137  25.136  25.635  11.511
46555W        W18138   6.661   4.687   1.368
46556W        W18139  29.547  37.472  12.181
46557W        W18140  32.385  12.554  11.591
46558W        W18141  11.366  43.787   3.731
46559W        W18142  41.318  40.350   3.351
46560W        W18143  12.273  22.460   0.816
46561W        W18144   6.366  40.500  12.508
46562W        W18145  42.898  44.612   3.390
46563W        W18146  28.847  19.114   1.869
46564W        W18147  10.954   9.792  12.078
46565W        W18148   4.279  11.099   3.855
46566W        W18149   6.468  10.387   3.267
46567W        W18150  28.473  14.085  12.928
46568W        W18151  29.266  44.295  13.547
46569W        W18152  21.533  19.457  13.866
46570W        W18153  36.766  38.351  11.455
46571W        W18154  22.819   7.841   3.374
46572W        W18155  33.905  41.043  13.974
46573W        W18156   7.536  12.011  14.766
46574W        W18157  19.731  35.770  12.585
46575W        W18158  35.912   7.280   3.919
46576W        W18159  23.993  21.052  13.880
46577W        W18160  32.946  32.139  13.020
46578W        W18161  35.032  40.286   0.939
46579W        W18162  37.549  41.215   2.868
46580W        W18163  25.239  30.572  14.211
46581W        W18164  34.995  37.859  12.739
46582W        W18165   9.027  28.829   1.376
46583W        W18166  20.843  32.102  12.952
46584W        W18167   6.132  34.099   4.675
46585W        W18168  41.969  30.721   0.865
46586W        W18169   4.093  15.312  11.484
46587W        W18170  13.766  18.843   0.384
46588W        W18171  26.699  29.026   5.051
46589W        W18172  29.385   6.729   3.976
46590W        W18173  16.320  36.486  13.931
46591W        W18174  35.332  38.275   4.085
46592W        W18175  17.743  29.394  12.021
46593W        W18176  28.043  18.508  11.566
46594W        W18177  40.023  10.079  12.938
46595W        W18178  28.938  36.487  12.338
46596W        W18179  20.104  22.711  14.960
46597W        W18180  37.061  23.732  14.022
46598W        W18181  19.122  18.023   2.193
46599W        W18182  33.589  40.455  14.157
46600W        W18183  12.589  36.447  10.709
46601W        W18184  32.901  39.652  11.694
46602W        W18185   7.643  26.633   0.174
46603W        W18186  39.669  32.099  12.043
46604W        W18187  39.451  23.734  11.315
46605W        W18188  24.765  38.096   3.244
46606W        W18189  39.770  18.824  12.561
46607W        W18190   5.681   0.985  10.981
46608W        W18191  15.101   4.949   0.368
46609W        W18192  30.797  33.454   4.851
46610W        W18193  31.767  28.926  10.726
46611W        W18194   0.779   7.812  12.077
46612W        W18195  40.360  26.392  12.467
46613W        W18196  13.314  33.990  12.544
46614W        W18197  18.811  35.574  13.342
46615W        W18198  16.306   6.788   2.351
46616W        W18199  40.493  23.627   4.143
46617W        W18200  25.016  17.000   4.099
46618W        W18201  19.464  28.878   5.084
46619W        W18202  25.216  14.847   2.352
46620W        W18203   4.991  38.834  13.527
46621W        W18204  26.904  34.234  10.981
46622W        W18205   4.817  28.118   0.301
46623W        W18206  37.055  26.523   2.372
46624W        W18207   3.276  30.963   0.911
46625W        W18208   6.309  32.425   3.206
46626W        W18209  37.788  16.688  11.065
46627W        W18210  39.046  15.158   3.200
46628W        W18211  14.909  40.102  14.740
46629W        W18212  35.975  12.291   0.805
46630W        W18213  17.569  44.071  14.526
46631W        W18214  41.452  27.356  14.764
46632W        W18215  39.468  21.198   2.426
46633W        W18216  41.221  14.611  13.583
46634W        W18217  17.478   1.720   2.334
46635W        W18218   7.771   4.751  14.551
46636W        W18219  38.309  23.024  14.691
46637W        W18220  12.735  31.491   2.600
46638W        W18221  36.265  14.519  11.388
46639W        W18222  43.232   8.170   3.123
46640W        W18223  29.054   1.774  11.427
46641W        W18224  27.474  26.857  14.552
46642W        W18225  20.536  23.177  12.124
46643W        W18226  25.087  35.047  10.463
46644W        W18227   0.536   4.498  14.280
46645W        W18228  35.986   2.277  11.103
46646W        W18229  27.579  41.286   3.645
46647W        W18230  39.494  15.868   1.802
46648W        W18231  42.075   0.083   2.944
46649W        W18232  27.333   2.292   4.122
46650W        W18233  17.982  43.998   4.331
46651W        W18234   6.488  11.048  11.033
46652W        W18235  21.295  42.356  14.807
46653W        W18236  35.681  28.216  13.857
46654W        W18237  36.944  39.063   1.923
46655W        W18238  22.740  26.482   2.354
46656W        W18239  28.133  19.745   4.048
46657W        W18240   6.815  39.808   0.614
46658W        W18241  14.135  19.976   1.363
46659W        W18242   6.763   3.110  14.956
46660W        W18243   1.257  16.840  12.904
46661W        W18244  30.686   0.352   3.293
46662W        W18245  40.273  29.008  12.584
46663W        W18246  42.006  16.706  14.678
46664W        W18247  20.066  22.400   1.369
46665W        W18248  25.063  37.332  12.971
46666W        W18249   3.397  12.093   4.337
46667W        W18250  39.115  44.556  14.304
46668W        W18251  29.241   7.768   3.431
46669W        W18252  13.033  41.312   0.270
46670W        W18253  37.337  34.651  14.831
46671W        W18254  31.231  40.888  14.459
46672W        W18255  22.899  29.021  12.888
46673W        W18256  20.636   2.859   4.650
46674W        W18257  13.222  14.801  11.584
46675W        W18258  35.000  14.556  12.168
46676W        W18259  34.090  37.623  11.093
46677W        W18260   4.790  30.575  11.614
46678W        W18261  18.220   5.544  10.717
46679W        W18262  31.467  15.322   4.969
46680W        W18263   9.359  37.315   1.000
46681W        W18264  38.327   6.583  14.788
46682W        W18265  35.137  42.858   0.022
46683W        W18266   9.920   0.497   0.211
46684W        W18267  20.182  25.619  14.682
46685W        W18268  15.674  11.720  12.548
46686W        W18269  26.540  26.034  12.401
46687W        W18270  14.865   8.436   3.287
46688W        W18271  28.565  19.166   3.250
46689W        W18272  33.560  23.030   1.240
46690W        W18273  32.656  40.271   0.282
46691W        W18274  37.315  40.477   3.816
46692W        W18275  25.652  40.526   4.710
46693W        W18276  41.356  29.523   4.577
46694W        W18277  22.223  21.809  13.308
46695W        W18278  32.036  38.528   3.093
46696W        W18279  31.725  24.023   4.134
46697W        W18280  24.145  13.215  11.126
46698W        W18281  16.562  18.326   4.528
46699W        W18282   2.462  39.071  14.372
46700W        W18283  18.287  34.164   0.933
46701W        W18284  39.507  30.580   1.531
46702W        W18285  10.753  21.569  10.116
46703W        W18286  12.382  35.968   4.898
46704W        W18287  17.987  32.734   3.238
46705W        W18288  31.142  27.468  12.926
46706W        W18289  16.831  42.304   3.849
46707W        W18290   3.258  44.177  12.550
46708W        W18291  44.780   7.743  14.746
46709W        W18292  30.066  14.327   0.343
46710W        W18293   2.865  37.272   4.229
46711W        W18294  34.886  40.474   0.455
46712W        W18295   0.214  27.903   3.590
46713W        W18296   0.801  37.376  11.764
46714W        W18297  30.005  18.249   2.288
46715W        W18298  38.971  27.006   1.467
46716W        W18299   6.949  28.516  11.194
46717W        W18300   8.656  20.791   2.260
46718W        W18301   3.334   1.284   3.627
46719W        W18302  21.482  25.586  10.680
46720W        W18303  34.977   2.245  11.947
46721W        W18304  38.915  14.153  14.852
46722W        W18305  43.265  16.665   1.887
46723W        W18306   6.788  44.917   1.804
46724W        W18307  43.183  16.920   2.576
46725W        W18308   3.318  25.149  10.780
46726W        W18309  36.266   1.502  12.384
46727W        W18310  36.928  21.645  12.345
46728W        W18311   4.422  30.045  11.768
46729W        W18312  10.100  44.672   1.309
46730W        W18313  13.891   2.084   3.702
46731W        W18314  24.090  14.380  11.982
46732W        W18315  37.580  23.333   0.719
46733W        W18316  39.497  22.676   4.092
46734W        W18317  36.457  34.576   3.223
46735W        W18318  28.409   7.187  12.116
46736W        W18319  37.391   0.207  13.487
46737W        W18320  23.002   4.527  13.452
46738W        W18321  29.045  12.370  14.240
46739W        W18322  37.889  34.887  13.221
46740W        W18323  16.084  29.404   3.304
46741W        W18324  44.023  33.069  14.051
46742W        W18325  15.407  34.913  11.999
46743W        W18326  24.665  37.089  12.032
46744W        W18327  39.758   5.732   4.241
46745W        W18328  35.433  33.662  13.451
46746W        W18329  31.129  23.025   3.278
46747W        W18330   1.012  30.887   0.350
46748W        W18331  37.861  42.492   0.509
46749W        W18332  31.733  20.193   1.493
46750W        W18333  27.710  26.535   2.823
46751W        W18334  18.749  13.483   0.469
46752W        W18335  21.503  23.430   1.776
46753W        W18336   3.270  39.052   3.678
46754W        W18337  25.667  32.812   4.696
46755W        W18338  39.862  12.991   3.268
46756W        W18339   5.191  15.277  13.379
46757W        W18340  12.576  42.161  14.037
46758W        W18341   9.692   3.659   4.065
46759W        W18342  27.104   4.770  12.811
46760W        W18343  43.983  30.868  11.977
46761W        W18344  44.026   0.403   1.919
46762W        W18345  19.829   2.780   4.055
46763W        W18346  41.085   4.783   4.946
46764W        W18347  34.948  30.543  13.930
46765W        W18348  15.160   0.978  11.467
46766W        W18349  22.705  23.334   1.312
46767W        W18350  30.428   0.846  11.637
46768W        W18351  10.910  12.082   0.389
46769W        W18352  17.633   9.945   3.232
46770W        W18353  43.795   1.440   3.229
46771W        W18354   3.199  26.394   2.131
46772W        W18355  22.313  12.848  13.897
46773W        W18356  32.192  16.762   0.844
46774W        W18357  14.218  34.800   4.071
46775W        W18358  23.702  28.631  13.060
46776W        W18359  11.118   9.961   0.847
46777W        W18360  26.716   3.364  13.528
46778W        W18361  41.942  36.977  12.277
46779W        W18362   3.823  38.263   1.253
46780W        W18363  32.592  35.994   5.056
46781W        W18364  28.394  40.442   3.620
46782W        W18365  15.380   7.424   2.782
46783W        W18366  44.317   2.391  14.367
46784W        W18367  39.748  19.740  11.910
46785W        W18368  34.422  17.800  14.268
46786W        W18369  33.528  34.294  14.588
46787W        W18370  20.779  20.614  13.956
46788W        W18371  25.565  41.146   2.869
46789W        W18372  33.136  16.263  14.826
46790W        W18373  33.632  21.554  10.707
46791W        W18374  29.198   8.603   3.116
46792W        W18375  43.779  10.656   1.199
46793W        W18376  10.062  16.570   9.911
46794W        W18377   3.479  26.544  11.509
46795W        W18378   2.820   1.128   4.422
46796W        W18379  39.422   7.197   0.514
46797W        W18380  17.724  34.145  13.790
46798W        W18381  18.618  44.850   4.148
46799W        W18382  42.575  13.114  14.879
46800W        W18383  13.089  32.474  11.095
46801W        W18384   5.370  33.951  10.896
46802W        W18385   0.488  32.964   0.088
46803W        W18386  11.475  17.544   3.767
46804W        W18387   2.416  18.806  10.054
46805W        W18388  20.040  10.995  14.322
46806W        W18389  37.020  37.938  11.140
46807W        W18390   3.307   3.495   3.310
46808W        W18391  39.289  22.065   0.800
46809W        W18392  31.925  12.842  11.932
46810W        W18393   0.761  32.491  11.999
46811W        W18394  24.561   0.607  11.170
46812W        W18395  16.866   0.299   1.822
46813W        W18396  25.623  21.027   0.435
46814W        W18397  17.109  37.133   4.108
46815W        W18398  28.273  31.565   5.023
46816W        W18399  39.915  39.123  12.989
46817W        W18400  39.499  35.226  13.008
46818W        W18401  25.967  43.344   1.755
46819W        W18402   4.767  23.413   3.120
46820W        W18403  26.030  33.848  14.545
46821W        W18404   2.404  36.092   1.087
46822W        W18405  18.852   7.607  11.195
46823W        W18406  18.193  37.027  11.803
46824W        W18407  40.156  38.053  11.668
46825W        W18408  13.336  41.928   4.504
46826W        W18409   8.114  28.708  10.742
46827W        W18410  10.659  30.067  13.767
46828W        W18411  23.094  24.289   2.559
46829W        W18412  39.861   7.436  14.548
46830W        W18413  22.455  42.882   3.721
46831W        W18414  19.798   1.481   2.702
46832W        W18415   0.461  28.220   1.337
46833W        W18416   2.453   3.404  14.409
46834W        W18417  30.922   6.918   4.635
46835W        W18418   5.577  39.956   1.825
46836W        W18419  21.065  24.466  14.471
46837W        W18420  14.856  15.343  12.181
46838W        W18421  25.716   0.973  11.521
46839W        W18422  31.458  25.883   1.217
46840W        W18423  28.680  18.975  11.104
46841W        W18424  13.349  19.350   3.204
46842W        W18425  42.306  24.905  14.198
46843W        W18426  17.562  20.728   3.653
46844W        W18427   5.191  25.216   4.596
46845W        W18428  33.246  18.692   3.323
46846W        W18429   5.906  37.613   2.825
46847W        W18430   9.173  42.032  12.492
46848W        W18431  37.433  14.341   2.851
46849W        W18432   5.494  19.064   3.264
46850W        W18433  15.832  44.792  11.135
46851W        W18434  27.157  24.271  14.793
46852W        W18435   8.783   6.467   1.429
46853W        W18436  24.410   3.533  11.182
46854W        W18437  27.595  10.235   0.001
46855W        W18438   3.842  32.961   0.316
46856W        W18439  17.009  17.434   1.429
46857W        W18440  26.569   8.893   2.445
46858W        W18441  19.423  11.676   2.664
46859W        W18442  23.212  11.250   1.155
46860W        W18443  44.456  30.145  14.293
46861W        W18444   5.845   1.145   0.100
46862W        W18445  14.963  30.392   3.778
46863W        W18446  23.076  25.880   1.323
46864W        W18447   7.873   2.073   0.878
46865W        W18448  15.158   9.872   1.713
46866W        W18449  16.700  24.222   1.631
46867W        W18450   7.787  21.071   4.234
46868W        W18451   9.772  34.041   0.237
46869W        W18452   7.372  36.557  12.211
46870W        W18453  24.384   6.915   1.609
46871W        W18454  11.407  13.825   0.397
46872W        W18455  12.294  33.034  13.041
46873W        W18456  15.800  41.282   0.942
46874W        W18457  31.479  19.683   2.372
46875W        W18458  15.560   8.950  14.260
46876W        W18459  33.498   7.067   2.524
46877W        W18460   1.888   7.386  14.334
46878W        W18461  44.568  43.993  10.798
46879W        W18462  35.961  16.273   2.256
46880W        W18463  28.972  32.391  12.647
46881W        W18464  17.331   4.793  13.824
46882W        W18465  29.405  13.273   0.738
46883W        W18466  20.020  24.820  13.585
46884W        W18467  10.155  37.200   1.648
46885W        W18468  24.484   5.314  10.403
46886W        W18469   3.907  31.442  11.978
46887W        W18470  27.034  42.089   0.543
46888W        W18471  24.490  18.248  12.565
46889W        W18472   5.465  21.654  11.552
46890W        W18473  14.592   3.228  11.212
46891W        W18474   8.130  37.569  14.603
46892W        W18475  12.591   9.193   2.136
46893W        W18476   1.426  34.043   3.205
46894W        W18477  17.234  19.047   3.886
46895W        W18478  21.654   0.788  14.050
46896W        W18479  14.231  11.792  14.063
46897W        W18480  22.316  41.133  14.558
46898W        W18481   7.303  33.116  13.549
46899W        W18482  37.130   1.564  14.723
46900W        W18483  16.525  16.668  10.641
46901W        W18484  27.210  18.250   4.395
46902W        W18485  19.540  29.171   0.376
46903W        W18486   2.670   0.208  13.120
46904W        W18487   5.741  37.526   0.945
46905W        W18488   0.870  41.513  12.531
46906W        W18489  31.037  34.066   1.803
46907W        W18490  12.544  14.199  14.914
46908W        W18491  22.697  18.754  12.994
46909W        W18492   6.325  32.747   4.488
46910W        W18493  15.304   0.469   1.910
46911W        W18494  29.409  30.882   1.669
46912W        W18495   0.451   6.743   2.268
46913W        W18496  22.958  10.483  10.311
46914W        W18497  41.834   7.474  13.430
46915W        W18498  15.745  36.074  14.317
46916W        W18499  25.697  10.669  13.792
46917W        W18500   1.517   6.575   4.182
46918W        W18501  28.020  37.768  14.372
46919W        W18502  40.422  34.948   3.813
46920W        W18503  31.078   8.620   2.287
46921W        W18504  36.666  21.766   3.617
46922W        W18505  38.561  12.215  12.474
46923W        W18506  40.816  16.687  11.056
46924W        W18507  34.567  32.928   4.661
46925W        W18508  32.828  31.673  14.457
46926W        W18509   5.462  30.451  11.200
46927W        W18510  10.261   0.000   4.467
46928W        W18511  19.816  18.285  12.438
46929W        W18512  39.588  15.846  11.972
46930W        W18513  41.016  39.398   4.398
46931W        W18514   6.990   4.328  14.860
46932W        W18515   1.722   2.641   1.988
46933W        W18516  26.655  43.301   2.304
46934W        W18517   3.241  37.336  11.114
46935W        W18518  34.525  16.106  11.503
46936W        W18519  42.801  32.062  13.859
46937W        W18520  25.736  25.335  13.104
46938W        W18521  36.432  19.765  12.635
46939W        W18522  34.091   4.738   3.236
46940W        W18523  24.099  28.112   3.372
46941W        W18524  31.488  36.293  11.778
46942W        W18525  13.361  36.836  12.977
46943W        W18526  35.545  18.673  11.061
46944W        W18527  16.616   8.739   0.937
46945W        W18528   5.480  11.255   0.658
46946W        W18529   7.451  22.228  12.489
46947W        W18530  17.900   8.853   4.037
46948W        W18531  19.670  19.687   3.108
46949W        W18532  19.578  27.905   2.494
46950W        W18533   0.112   7.284   0.077
46951W        W18534  41.794  41.336  12.764
46952W        W18535  10.902  42.755  14.531
46953W        W18536  24.746  17.520   0.719
46954W        W18537  16.162  11.731   2.712
46955W        W18538  39.024   5.216   3.367
46956W        W18539   8.903  34.250  12.668
46957W        W18540  36.881   3.811  12.989
46958W        W18541  41.785   2.436   0.366
46959W        W18542  35.735  32.119   4.024
46960W        W18543  26.766   8.760   1.003
46961W        W18544  44.924  24.697  12.476
46962W        W18545  26.735  30.055   1.824
46963W        W18546  29.830  41.432   0.986
46964W        W18547  29.957  32.413  13.840
46965W        W18548  26.230  25.200   1.717
46966W        W18549  11.409   0.898   2.997
46967W        W18550   4.701  31.607  11.587
46968W        W18551  13.929  40.238  12.546
46969W        W18552  29.665   2.342  11.172
46970W        W18553  30.139  21.693  12.859
46971W        W18554   5.937  24.577   0.853
46972W        W18555  42.564  34.045  11.972
46973W        W18556  22.690  19.205  11.650
46974W        W18557   6.935  25.089  10.368
46975W        W18558  12.750   5.452   3.110
46976W        W18559  44.578  24.624  14.316
46977W        W18560  11.637  31.531  14.007
46978W        W18561   8.990  30.777   5.085
46979W        W18562  24.482  35.621  14.573
46980W        W18563   1.248  16.854  12.025
46981W        W18564   2.331  21.390  13.795
46982W        W18565   7.251  40.430  12.952
46983W        W18566  37.925  20.083  13.795
46984W        W18567   7.886  40.153  14.910
46985W        W18568  20.141   7.016  14.922
46986W        W18569   9.646  37.688   0.204
46987W        W18570  17.297  38.383   2.388
46988W        W18571   9.646  31.636  14.979
46989W        W18572  36.841  15.343   1.514
46990W        W18573  33.312  34.670  11.694
46991W        W18574  38.880  11.823  10.516
46992W        W18575   2.321  10.928  14.830
46993W        W18576  11.661  14.708  10.930
46994W        W18577  18.124  31.419  14.754
46995W        W18578  31.425  12.140  13.859
46996W        W18579  12.333   5.319  14.055
46997W        W18580   0.250  29.807   4.173
46998W        W18581  28.267  25.657   2.719
46999W        W18582  12.490  33.577   4.897
47000W        W18583   8.642  23.713   4.532
47001W        W18584  20.963  10.875   5.025
47002W        W18585  33.064   3.961  12.528
47003W        W18586  23.519  24.602  14.448
47004W        W18587  33.860  34.056   3.418
47005W        W18588  28.094   3.073   3.856
47006W        W18589   4.678   0.997  11.179
47007W        W18590  41.318  44.898   4.642
47008W        W18591  24.084  35.910  11.503
47009W        W18592  31.099  15.732   3.280
47010W        W18593  40.780   6.623   0.024
47011W        W18594  28.746  27.118  13.230
47012W        W18595  13.645   4.314  12.028
47013W        W18596   1.314  12.605  11.154
47014W        W18597  13.338  41.767   2.347
47015W        W18598  33.563   4.053  14.324
47016W        W18599   8.622  41.272   3.079
47017W        W18600   2.995  21.277  12.022
47018W        W18601  10.252  37.061   9.900
47019W        W18602  32.939   0.432   0.716
47020W        W18603   8.149  33.062   1.718
47021W        W18604  35.057   6.858   0.336
47022W        W18605  17.838  39.797  13.118
47023W        W18606  32.449  29.649  13.042
47024W        W18607   9.091   1.814   1.207
47025W        W18608   6.109  39.407   3.488
47026W        W18609  38.932  26.167   3.292
47027W        W18610  31.167  28.710   2.535
47028W        W18611  31.038  10.538  12.556
47029W        W18612   2.146  36.712  12.488
47030W        W18613  42.343  28.728  10.761
47031W        W18614   4.399  44.383  14.760
47032W        W18615  14.837   8.352   0.978
47033W        W18616   5.148   6.299   4.084
47034W        W18617  14.572  22.532   1.871
47035W        W18618   3.854  10.552   2.734
47036W        W18619  44.520  38.654  11.202
47037W        W18620  28.972  22.827  12.136
47038W        W18621  36.145  26.033   1.041
47039W        W18622   0.272   6.598  12.999
47040W        W18623  25.565  12.121  11.622
47041W        W18624   3.905  20.252   3.562
47042W        W18625  26.459  33.102  12.533
47043W        W18626  27.423  44.740   4.655
47044W        W18627  41.835  16.213   1.467
47045W        W18628  12.223  35.072  14.816
47046W        W18629  35.444  44.494   2.283
47047W        W18630  19.172  26.967   3.528
47048W        W18631  30.907  35.206  13.633
47049W        W18632  37.960  39.460   2.150
47050W        W18633  18.819  42.574   4.337
47051W        W18634  24.121   7.418  11.663
47052W        W18635   3.302  15.231  11.307
47053W        W18636   0.111  17.313  14.317
47054W        W18637  15.820  33.037   4.285
47055W        W18638  30.350   2.883   0.478
47056W        W18639  43.877  16.294   3.257
47057W        W18640  17.375   4.472  11.994
47058W        W18641  34.534   6.017  12.018
47059W        W18642   0.809   3.937   3.291
47060W        W18643  40.322   7.164   3.132
47061W        W18644  36.457  22.053   4.159
47062W        W18645   8.604  36.827   2.385
47063W        W18646  23.295   5.749   2.803
47064W        W18647  39.498   3.131   1.077
47065W        W18648  25.601  32.542   1.319
47066W        W18649   0.021  33.855  14.277
47067W        W18650  40.049  32.970   2.225
47068W        W18651   7.911  28.210   2.373
47069W        W18652  11.565  43.187   1.424
47070W        W18653  34.935  29.018  10.762
47071W        W18654  43.027  16.638  14.736
47072W        W18655  22.994  44.810   1.855
47073W        W18656  26.285  37.434   1.425
47074W        W18657   6.689   7.916   3.287
47075W        W18658  42.370  24.141  12.442
47076W        W18659   0.452  18.044   3.148
47077W        W18660  44.933  42.422   4.212
47078W        W18661   8.652  41.597   2.233
47079W        W18662  31.176   0.546   3.640
47080W        W18663  12.196  33.143   4.126
47081W        W18664  43.488  44.874   2.512
47082W        W18665  17.768   1.535   0.897
47083W        W18666  43.594  43.587  11.030
47084W        W18667  32.349  27.162  13.286
47085W        W18668  31.338  16.498   0.934
47086W        W18669  41.606  36.858  12.682
47087W        W18670  43.900  31.558  12.617
47088W        W18671  33.414   0.891   1.855
47089W        W18672  43.465  36.330   2.837
47090W        W18673  30.520  18.560   4.746
47091W        W18674  25.459  28.683  14.894
47092W        W18675  44.844  36.665   0.006
47093W        W18676  40.064  39.956   2.488
47094W        W18677   1.182  41.047  10.711
47095W        W18678  33.879  14.709   1.760
47096W        W18679  42.297  18.052  14.548
47097W        W18680   2.608  22.077  14.345
47098W        W18681  32.903  20.673  11.205
47099W        W18682   8.432  12.074   1.800
47100W        W18683  39.887   5.763   0.927
47101W        W18684   4.667  35.305  12.526
47102W        W18685  38.888   2.251   3.862
47103W        W18686  11.217  38.183   0.938
47104W        W18687  10.683  42.515  11.140
47105W        W18688  27.450  22.961   0.910
47106W        W18689  42.975  25.538  12.602
47107W        W18690  26.297  21.089   0.746
47108W        W18691   6.047  18.768   1.844
47109W        W18692  40.660  22.013   4.705
47110W        W18693  31.011  43.503  13.883
47111W        W18694  43.795  32.301   1.250
47112W        W18695  33.677  29.395  12.742
47113W        W18696  27.184   2.247   0.726
47114W        W18697  39.899  29.709   1.340
47115W        W18698  44.774  22.283   1.650
47116W        W18699  25.093  26.324  12.315
47117W        W18700   8.383  38.794  14.729
47118W        W18701  33.713  26.741  11.176
47119W        W18702  29.964  27.650  11.659
47120W        W18703  21.319  19.764   4.485
47121W        W18704  27.861   7.797   1.732
47122W        W18705   4.286   3.804  10.948
47123W        W18706  20.522  20.611   4.658
47124W        W18707   8.608  22.531  11.054
47125W        W18708  16.478  28.039  13.218
47126W        W18709  33.815  29.827  10.903
47127W        W18710  24.371  19.129   3.612
47128W        W18711  22.613  21.278   3.359
47129W        W18712  36.958  39.595   1.977
47130W        W18713  15.038  37.096  13.633
47131W        W18714  23.025   0.793  13.270
47132W        W18715  11.745  19.704   0.019
47133W        W18716  37.345  20.028  12.025
47134W        W18717  16.860   1.312  10.547
47135W        W18718   5.785  44.346  13.480
47136W        W18719  34.419  17.880   3.920
47137W        W18720  31.977   7.827  13.843
47138W        W18721  43.915   9.161  12.606
47139W        W18722  11.834  30.026   4.689
47140W        W18723  22.473  11.439   0.709
47141W        W18724  35.517  19.245  12.219
47142W        W18725  44.276  41.461   2.786
47143W        W18726  14.412  24.947  11.951
47144W        W18727  44.947  23.640   4.503
47145W        W18728  16.857  34.361   1.855
47146W        W18729  11.784  31.924  13.278
47147W        W18730   7.137  19.022  10.617
47148W        W18731  15.493  17.378   4.474
47149W        W18732   0.452  17.033  12.496
47150W        W18733  39.843  10.605   3.359
47151W        W18734  44.379  42.382  11.205
47152W        W18735   6.626  27.460  12.748
47153W        W18736   2.527  22.632  14.906
47154W        W18737  43.381   4.223  11.800
47155W        W18738  30.517  29.589   3.354
47156W        W18739   8.656  19.279  11.608
47157W        W18740  14.729   3.535  10.790
47158W        W18741  18.706  33.306   3.247
47159W        W18742  36.030  33.870   4.358
47160W        W18743  23.457   3.829  14.912
47161W        W18744  37.626  26.939   0.891
47162W        W18745  15.774  41.748   1.163
47163W        W18746  23.576  44.676   4.602
47164W        W18747  22.035  24.605  14.561
47165W        W18748  39.004  30.006   2.376
47166W        W18749  14.184  18.550   4.497
47167W        W18750  25.734  19.085  11.527
47168W        W18751  36.024  23.275   4.487
47169W        W18752  39.813  19.082   3.320
47170W        W18753  20.745  32.001   1.766
47171W        W18754  36.465  31.683   3.265
47172W        W18755   4.409  33.541  13.567
47173W        W18756   8.258  33.731  11.768
47174W        W18757  38.454  12.804   2.332
47175W        W18758  27.759  37.081  12.588
47176W        W18759   0.997  14.911   2.414
47177W        W18760  27.517  17.791  11.478
47178W        W18761   2.434  15.537   4.253
47179W        W18762  34.181  36.408  10.438
47180W        W18763  37.053   5.926  12.928
47181W        W18764  31.641   8.590  10.756
47182W        W18765  38.295  32.495  13.477
47183W        W18766  11.821  18.128   1.907
47184W        W18767   7.474  11.475  11.098
47185W        W18768  25.124  27.674  11.126
47186W        W18769  25.142  18.240  12.966
47187W        W18770  23.660  22.449   3.638
47188W        W18771  38.073   7.868   4.706
47189W        W18772  25.171  39.517  14.481
47190W        W18773   6.659  34.515   3.136
47191W        W18774  40.370  14.916   0.272
47192W        W18775  31.190  24.198   0.925
47193W        W18776  20.758   1.087   4.204
47194W        W18777   8.310  23.296   4.461
47195W        W18778   0.194  23.214   3.264
47196W        W18779  19.315  13.555   4.570
47197W        W18780  33.092  28.546  11.564
47198W        W18781  44.693  26.215   3.869
47199W        W18782  40.388   7.805   1.363
47200W        W18783  21.287  40.033   0.225
47201W        W18784  13.230   2.779   2.379
47202W        W18785  20.344  10.366   1.509
47203W        W18786  27.950  14.087  11.671
47204W        W18787  33.443   9.152  12.653
47205W        W18788   2.677  43.139   1.681
47206W        W18789   6.408  19.093  13.457
47207W        W18790  25.307  20.568  13.382
47208W        W18791   6.259   4.382  10.686
47209W        W18792  12.770  27.298  12.786
47210W        W18793   8.779  44.207  10.737
47211W        W18794  19.506  20.689   0.910
47212W        W18795  34.149  13.174   2.643
47213W        W18796   3.351  39.143   3.184
47214W        W18797   2.639   1.335   1.501
47215W        W18798   7.700  20.211   0.675
47216W        W18799   8.862  14.631  12.852
47217W        W18800  24.339   3.748   0.271
47218W        W18801  33.074  18.156   1.686
47219W        W18802  37.181   4.780   4.966
47220W        W18803  43.031   1.768  11.603
47221W        W18804   5.161   0.494   4.058
47222W        W18805   7.959  42.456  12.986
47223W        W18806  23.063  35.860   2.928
47224W        W18807  34.769  27.127   3.838
47225W        W18808  16.965   0.675  13.514
47226W        W18809  28.418  19.681   3.171
47227W        W18810  22.385  44.006   1.104
47228W        W18811  37.330   6.401   3.334
47229W        W18812  23.128  26.962  14.088
47230W        W18813   0.235  25.957   1.844
47231W        W18814  42.450  24.007   0.377
47232W        W18815  24.744  41.481  11.156
47233W        W18816   6.853  33.092   2.204
47234W        W18817  17.169   6.547  13.197
47235W        W18818  23.142   7.792  11.625
47236W        W18819  17.085   4.800  12.408
47237W        W18820   1.140   1.405   4.070
47238W        W18821   4.610  33.971  13.999
47239W        W18822   0.774   1.780   4.094
47240W        W18823  27.460  35.984  11.968
47241W        W18824  25.258  33.151   1.332
47242W        W18825  21.661   4.863  13.601
47243W        W18826  37.030  31.927  11.967
47244W        W18827  38.407  12.505   1.193
47245W        W18828   8.970  38.826   2.866
47246W        W18829  40.058  35.958   0.172
47247W        W18830  19.129  27.670  13.180
47248W        W18831  38.867  10.269  11.247
47249W        W18832  34.782  17.290  11.349
47250W        W18833  44.184  27.923  13.603
47251W        W18834  37.494  35.195  11.062
47252W        W18835   6.134   1.417   3.278
47253W        W18836  33.040  39.060   1.495
47254W        W18837  14.126   0.217  12.016
47255W        W18838   9.326  39.085  13.575
47256W        W18839   9.976  11.815   3.617
47257W        W18840  22.477  23.453   1.784
47258W        W18841   9.912  33.481   2.702
47259W        W18842  33.414  30.024   4.475
47260W        W18843  29.375   6.073   0.747
47261W        W18844  19.983  37.978  11.046
47262W        W18845  44.267  17.231   2.119
47263W        W18846   8.855  24.606  14.916
47264W        W18847  34.536  33.046  12.815
47265W        W18848  15.570  27.442   9.997
47266W        W18849   2.308  24.963   3.760
47267W        W18850  37.767  32.601   3.285
47268W        W18851  21.773   0.369   2.827
47269W        W18852  44.933  38.545   3.152
47270W        W18853  11.115  42.014   4.244
47271W        W18854   3.861   9.317  13.733
47272W        W18855  29.361  30.529  12.503
47273W        W18856  36.074  26.570  10.690
47274W        W18857  36.073  19.261  11.482
47275W        W18858  34.633  19.313  11.975
47276W        W18859  21.070   7.680   0.192
47277W        W18860  10.889  16.183   4.298
47278W        W18861  10.348  27.265  13.452
47279W        W18862  14.367  16.147   2.136
47280W        W18863   3.642  23.656   3.771
47281W        W18864   5.846  30.463   3.764
47282W        W18865  10.310  25.654   3.238
47283W        W18866  42.893  38.884   1.252
47284W        W18867  31.614   9.303  14.837
47285W        W18868  41.911  44.566  14.748
47286W        W18869  25.827  44.883  12.085
47287W        W18870   5.484  12.737  14.611
47288W        W18871  36.110  37.663   1.296
47289W        W18872  36.122  36.791   2.394
47290W        W18873  19.037  12.339   3.782
47291W        W18874  28.249  11.865   5.444
47292W        W18875   6.893  41.865   3.183
47293W        W18876  28.373  38.099  11.138
47294W        W18877  21.673   9.732  11.157
47295W        W18878   3.725  24.592  14.725
47296W        W18879  32.338  28.567  13.563
47297W        W18880  40.053  37.859  10.715
47298W        W18881   6.909  41.238   3.844
47299W        W18882  31.012  11.262  11.991
47300W        W18883  11.533  12.647  12.482
47301W        W18884  40.702  22.628  13.936
47302W        W18885  37.890  35.112   0.304
47303W        W18886  19.501  18.943   0.407
47304W        W18887   9.899  24.656  11.113
47305W        W18888   6.852  37.929  11.058
47306W        W18889  43.481  29.126  13.481
47307W        W18890   3.987   3.093  12.334
47308W        W18891   7.866  38.243  12.576
47309W        W18892  31.652  35.162   1.853
47310W        W18893  13.245  24.446   3.888
47311W        W18894  31.559  41.175  14.779
47312W        W18895  32.914   4.780  10.741
47313W        W18896   2.812  21.221  13.008
47314W        W18897  39.563  13.134   1.796
47315W        W18898  39.869  10.379  13.841
47316W        W18899   5.658   5.480   4.812
47317W        W18900   8.279  19.788   0.333
47318W        W18901  38.073   2.336   3.406
47319W        W18902  35.844   0.996  10.768
47320W        W18903   5.583   1.270   4.116
47321W        W18904  38.100  15.756  14.590
47322W        W18905  41.428  42.606   1.878
47323W        W18906  40.795   5.327   1.884
47324W        W18907  37.972  19.103  12.575
47325W        W18908  17.604   6.154   3.445
47326W        W18909  34.312  23.564   1.343
47327W        W18910  26.941   8.169  10.717
47328W        W18911  38.093   6.757   0.300
47329W        W18912  41.806  38.330  12.217
47330W        W18913  26.916  27.424  12.953
47331W        W18914  30.134  12.857   0.922
47332W        W18915  30.468   2.752   3.222
47333W        W18916  23.273  42.545   1.657
47334W        W18917  22.730  25.588  12.572
47335W        W18918   9.294   7.430   2.636
47336W        W18919  37.575  21.262   1.829
47337W        W18920  28.203  29.391   1.352
47338W        W18921  26.177  11.567  12.085
47339W        W18922   6.388  38.244   2.957
47340W        W18923  42.337  18.484  14.852
47341W        W18924  25.688   7.815  13.288
47342W        W18925  13.662  24.238   3.627
47343W        W18926  35.449   0.520  11.263
47344W        W18927  21.451   6.203  13.051
47345W        W18928   9.404  28.642   0.338
47346W        W18929  42.510  36.324  12.084
47347W        W18930  16.074  12.118  14.301
47348W        W18931  14.567  33.129   1.326
47349W        W18932  36.364  32.081   0.190
47350W        W18933  30.472  10.720   0.760
47351W        W18934  13.389  21.023   4.220
47352W        W18935   9.823  18.047  13.536
47353W        W18936  21.560  34.667  14.274
47354W        W18937  21.020   5.357  12.673
47355W        W18938   4.663  14.850   1.821
47356W        W18939  14.449  24.011   0.227
47357W        W18940  24.599  34.808   2.731
47358W        W18941  44.932  13.364   1.443
47359W        W18942   8.169  20.483  13.970
47360W        W18943  16.213  11.656  12.532
47361W        W18944  37.661  32.341  14.306
47362W        W18945   6.149   0.339  12.854
47363W        W18946  26.650  22.520  12.020
47364W        W18947  41.852  12.240   3.162
47365W        W18948  39.312  31.589  14.475
47366W        W18949  18.330  29.295  10.887
47367W        W18950  26.408   7.899  13.799
47368W        W18951  37.365   8.922  10.719
47369W        W18952  10.338  10.235   0.411
47370W        W18953  28.823  34.463   5.433
47371W        W18954  19.632  24.114  12.495
47372W        W18955  13.814  31.573   1.205
47373W        W18956  23.601   7.191   1.889
47374W        W18957  41.803  32.172  14.920
47375W        W18958  44.947  36.694   3.500
47376W        W18959  21.190   3.977   1.826
47377W        W18960  25.958   8.650   4.589
47378W        W18961  19.356  34.875  11.155
47379W        W18962  29.558  20.798  11.991
47380W        W18963   3.991  11.684  12.469
47381W        W18964   2.286  31.195   1.042
47382W        W18965  32.597  39.502  14.812
47383W        W18966  26.662  43.716  11.919
47384W        W18967  22.212  33.395  14.319
47385W        W18968   6.256  36.639   1.170
47386W        W18969  34.334  24.728  12.371
47387W        W18970  14.267  41.825  12.946
47388W        W18971  35.243  41.338  13.653
47389W        W18972  26.516  19.072   3.329
47390W        W18973  23.436  38.906   1.311
47391W        W18974  30.606  14.411  13.429
47392W        W18975   4.570  21.741   0.435
47393W        W18976  21.505  21.030   1.387
47394W        W18977  16.605   1.644   4.186
47395W        W18978  38.465  26.893   1.413
47396W        W18979   0.244   4.707   3.558
47397W        W18980  44.423  42.023   3.183
47398W        W18981  19.676  19.772  13.446
47399W        W18982  41.667  20.589   4.620
47400W        W18983  16.277  43.307   0.178
47401W        W18984   6.580  11.227  13.485
47402W        W18985  10.424   9.324   0.405
47403W        W18986  27.250  21.167  14.489
47404W        W18987  27.701   8.034  14.766
47405W        W18988  39.160  25.938   0.641
47406W        W18989   9.411   3.122  10.759
47407W        W18990  13.256  22.998   1.667
47408W        W18991  37.003   7.743   0.247
47409W        W18992  33.983  14.350  11.563
47410W        W18993   7.087   2.848   1.367
47411W        W18994   5.713  24.325  14.427
47412W        W18995  26.598  38.360  11.154
47413W        W18996  32.791  11.809  13.512
47414W        W18997  20.313  25.555  11.966
47415W        W18998   4.098  35.314   5.167
47416W        W18999   6.410  15.191  13.373
47417W        W19000   9.514   6.379  13.463
47418W        W19001   8.909   0.570  14.817
47419W        W19002  22.934  28.001  13.437
47420W        W19003   2.884  15.214   1.696
47421W        W19004  21.637  15.044  14.010
47422W        W19005   4.190   5.770   1.211
47423W        W19006   7.971  21.262  14.298
47424W        W19007  28.067   8.771  10.856
47425W        W19008  42.304  23.547   4.519
47426W        W19009  39.963   2.761  13.422
47427W        W19010   2.716  33.532   2.216
47428W        W19011  11.012  23.930   3.617
47429W        W19012  24.891  10.566   3.155
47430W        W19013  19.103  32.664   0.901
47431W        W19014  10.658  10.850   3.824
47432W        W19015  37.288   0.839  12.332
47433W        W19016  42.130  17.791  11.145
47434W        W19017  18.706  37.161   3.427
47435W        W19018  13.419  33.469   0.725
47436W        W19019  28.232  25.193  14.738
47437W        W19020  18.023  43.840  12.672
47438W        W19021  11.564  22.937  11.571
47439W        W19022  27.036  43.270   3.940
47440W        W19023  25.512   7.667   2.771
47441W        W19024  39.908  30.102  12.529
47442W        W19025  28.036  16.383   1.757
47443W        W19026  11.443  17.283   5.054
47444W        W19027  32.817   8.934  14.345
47445W        W19028  39.775  31.839   4.800
47446W        W19029  24.792  24.692   1.865
47447W        W19030  40.757  13.214   3.299
47448W        W19031  11.058  43.856  12.834
47449W        W19032  31.714  34.894   3.283
47450W        W19033  18.467  23.279   5.397
47451W        W19034  35.266  39.914  13.998
47452W        W19035  10.912  37.636  14.681
47453W        W19036  27.953  34.554  13.766
47454W        W19037  25.105   8.347   4.817
47455W        W19038  19.161  14.500  12.009
47456W        W19039   4.014  30.514   1.081
47457W        W19040  12.904  24.305   1.710
47458W        W19041  44.297  18.765  11.527
47459W        W19042  31.164   6.727  13.410
47460W        W19043  42.960  20.636   0.300
47461W        W19044  12.748  39.890  11.361
47462W        W19045  13.582  23.745   4.876
47463W        W19046  11.705  39.787  14.339
47464W        W19047  16.197  44.863   0.370
47465W        W19048   0.255  21.967   0.791
47466W        W19049  42.910   7.653   0.916
47467W        W19050   5.993  37.380   0.489
47468W        W19051   1.889  28.121  12.041
47469W        W19052  35.176  33.635   0.770
47470W        W19053   3.716  25.080   4.118
47471W        W19054  32.543  10.078  12.105
47472W        W19055   9.098   6.424  13.083
47473W        W19056  25.303  37.579   1.207
47474W        W19057  28.064  10.370  12.867
47475W        W19058  10.328  13.422  12.561
47476W        W19059   8.929   4.912  12.940
47477W        W19060  14.541  21.179   3.100
47478W        W19061  38.370  18.051  14.298
47479W        W19062  20.031  17.660   0.529
47480W        W19063  29.645   4.337   0.003
47481W        W19064  35.349   0.413   3.363
47482W        W19065  18.639  14.980   1.767
47483W        W19066  27.606   3.669   4.335
47484W        W19067  14.583  29.105  13.654
47485W        W19068   8.240   5.403   2.154
47486W        W19069  39.248  19.680  11.991
47487W        W19070  23.134  33.170   0.419
47488W        W19071  21.978  33.580  10.407
47489W        W19072  38.824   2.040  11.041
47490W        W19073   1.823  22.053   0.047
47491W        W19074  27.557  43.869   0.448
47492W        W19075  39.410  17.381   2.088
47493W        W19076  19.261  35.019   2.105
47494W        W19077  15.712   4.293   2.087
47495W        W19078   6.792   4.382  13.852
47496W        W19079  18.664  28.666  13.868
47497W        W19080  35.334  37.626   0.889
47498W        W19081  19.786  19.260  13.287
47499W        W19082   6.389   9.321   0.945
47500W        W19083  25.168   5.872   1.225
47501W        W19084  23.639   6.983  14.373
47502W        W19085   9.331  33.222  14.007
47503W        W19086  30.524  10.817   4.510
47504W        W19087  19.679  40.739  13.855
47505W        W19088  23.787   2.744  12.114
47506W        W19089  35.303  21.059  13.047
47507W        W19090  19.414  39.682  13.337
47508W        W19091  30.410  27.530  10.736
47509W        W19092  36.602  36.398  12.988
47510W        W19093  38.767   3.280  13.883
47511W        W19094  36.016   0.139   2.188
47512W        W19095   6.910  26.449   2.354
47513W        W19096  40.889  40.299   1.419
47514W        W19097  25.863  32.567   5.132
47515W        W19098  20.245  28.211   0.916
47516W        W19099   4.259   8.853  12.920
47517W        W19100  22.682  35.803  13.528
47518W        W19101   2.602  30.926   3.589
47519W        W19102  11.140   4.879   0.941
47520W        W19103  24.556   5.733  13.633
47521W        W19104  32.761  21.131  12.583
47522W        W19105   7.531  37.511   1.366
47523W        W19106   7.400  26.706  11.285
47524W        W19107  19.857  28.397   5.102
47525W        W19108  39.535  24.057   1.810
47526W        W19109  19.238  15.340  14.343
47527W        W19110  36.160  34.149  14.990
47528W        W19111  19.546  12.471  14.201
47529W        W19112   5.954  44.975  12.508
47530W        W19113  39.047   2.963   0.256
47531W        W19114  27.039  24.759  14.765
47532W        W19115  12.632   4.472  12.982
47533W        W19116  11.380   0.856  11.490
47534W        W19117  27.532   7.264  14.331
47535W        W19118   4.297  12.718   0.695
47536W        W19119   1.198  35.961  11.592
47537W        W19120   0.953   3.835   2.780
47538W        W19121  13.104   4.416   2.767
47539W        W19122  26.063   4.134   0.470
47540W        W19123   8.166  14.762  11.631
47541W        W19124  11.331  11.049   1.923
47542W        W19125  38.148  36.001  11.929
47543W        W19126   8.432   1.965  11.987
47544W        W19127  38.924  31.108   2.734
47545W        W19128  29.871   0.081   2.575
47546W        W19129   3.962  44.428  10.177
47547W        W19130  30.908   1.827   3.200
47548W        W19131  18.652  13.428  13.411
47549W        W19132  14.111   6.455  12.501
47550W        W19133  38.114  44.307  13.570
47551W        W19134  26.891   6.698   3.199
47552W        W19135  25.371  37.746  12.543
47553W        W19136   1.328  27.912  11.198
47554W        W19137  12.554  35.720  11.344
47555W        W19138  15.345  17.095  13.003
47556W        W19139  21.831  25.791   1.430
47557W        W19140   6.744  24.852  14.808
47558W        W19141   3.990  32.471  14.407
47559W        W19142  13.333  39.403  10.661
47560W        W19143  44.067  37.515   3.642
47561W        W19144   2.852  41.510   3.359
47562W        W19145  40.593   2.927   2.908
47563W        W19146  23.137  39.783  11.552
47564W        W19147  36.929  26.372   3.810
47565W        W19148   2.538  15.591   3.362
47566W        W19149  13.743  21.566   3.353
47567W        W19150  29.770  29.763   0.405
47568W        W19151   6.488   3.788   0.482
47569W        W19152  17.831  12.406   2.422
47570W        W19153  18.739   9.902  12.497
47571W        W19154  18.735   5.350  10.709
47572W        W19155  38.366  20.290  14.008
47573W        W19156  40.204   4.675  14.776
47574W        W19157   7.702  20.802  12.125
47575W        W19158  11.182  16.150  14.939
47576W        W19159  32.238   7.094   2.156
47577W        W19160  29.221  42.495  14.253
47578W        W19161   8.828  14.326   4.077
47579W        W19162  28.190  12.263   4.603
47580W        W19163   1.846  20.512   1.537
47581W        W19164  32.055  42.670  12.080
47582W        W19165  29.934  21.343   0.924
47583W        W19166  31.951  24.032  11.645
47584W        W19167  20.401  23.653  14.619
47585W        W19168  44.302  38.166  14.393
47586W        W19169  33.593   5.285  10.722
47587W        W19170  20.085  24.804   0.410
47588W        W19171  24.755  33.144  10.584
47589W        W19172   0.027  20.293  12.192
47590W        W19173  16.568  17.574   0.143
47591W        W19174  29.674  14.254   0.682
47592W        W19175  11.303  44.499   0.262
47593W        W19176  36.086   0.453   4.106
47594W        W19177   5.195  35.104  12.081
47595W        W19178  41.999  14.098  11.174
47596W        W19179   4.008  25.929   4.112
47597W        W19180  37.506  34.883  12.420
47598W        W19181   1.325  17.609  13.377
47599W        W19182   9.224   9.295  10.820
47600W        W19183  12.417  22.001  10.974
47601W        W19184  33.683  36.145   1.675
47602W        W19185   4.081   6.326  14.801
47603W        W19186  26.623  13.118   0.694
47604W        W19187  44.644  30.493   4.710
47605W        W19188  14.745   9.615  14.185
47606W        W19189   0.330   1.269  11.575
47607W        W19190   8.024  43.296   0.365
47608W        W19191   1.374  37.277   0.651
47609W        W19192  35.104  38.023  14.966
47610W        W19193  10.850  31.501  13.498
47611W        W19194  32.093  34.376   0.500
47612W        W19195  33.255  35.042   0.027
47613W        W19196   0.286  29.898   1.861
47614W        W19197   8.898  34.583  10.891
47615W        W19198  24.101  34.170  13.011
47616W        W19199  44.302  20.403   2.788
47617W        W19200  33.848   2.755   0.769
47618W        W19201  12.313  22.532   2.233
47619W        W19202  27.687  38.893   4.782
47620W        W19203  43.856  33.411  12.882
47621W        W19204  25.711   9.136  12.613
47622W        W19205  16.755  14.114   2.249
47623W        W19206  11.765  15.163   4.542
47624W        W19207  39.087  31.602   2.727
47625W        W19208  37.434  27.442  12.585
47626W        W19209  44.923  44.519  14.789
47627W        W19210  23.709  34.592   1.915
47628W        W19211  16.225  27.294  14.181
47629W        W19212  39.010  32.444   3.665
47630W        W19213   4.492  43.890   3.391
47631W        W19214  17.327   6.602   1.366
47632W        W19215  22.284  33.783   2.769
47633W        W19216   2.613   1.043   3.105
47634W        W19217  12.834   0.389   0.959
47635W        W19218   8.271  37.068  12.894
47636W        W19219  31.363   7.181  13.552
47637W        W19220   8.880  44.526   1.829
47638W        W19221  13.531  32.039  11.913
47639W        W19222  19.495  36.350   3.426
47640W        W19223  36.413  32.450  14.214
47641W        W19224  16.618  15.456   2.914
47642W        W19225   3.922  42.566   1.841
47643W        W19226  31.558   6.439   3.775
47644W        W19227  31.441  25.749   3.831
47645W        W19228  15.773  19.129  14.515
47646W        W19229  26.998  37.744   4.709
47647W        W19230  25.872  26.954   3.126
47648W        W19231  42.983   8.795  14.432
47649W        W19232   5.300  33.902   0.446
47650W        W19233  12.249  11.534  10.595
47651W        W19234  30.391   6.667  12.972
47652W        W19235  33.593   7.281   4.347
47653W        W19236  29.208  20.058  12.985
47654W        W19237  28.240  26.594  11.099
47655W        W19238   1.038   3.355   4.115
47656W        W19239  41.143  27.605   1.607
47657W        W19240   1.459  42.388   4.441
47658W        W19241  26.253  36.455  12.495
47659W        W19242  21.822   6.766   9.761
47660W        W19243   1.515  33.255  12.019
47661W        W19244  12.643  40.914   0.368
47662W        W19245   1.356  19.552   0.184
47663W        W19246   6.804   7.114  11.939
47664W        W19247  43.505  38.912  11.102
47665W        W19248  13.940  32.868   2.362
47666W        W19249   0.594  37.847  11.106
47667W        W19250  12.254  44.561   0.846
47668W        W19251  18.003  27.209  11.931
47669W        W19252  17.277  41.279  13.076
47670W        W19253  33.369  30.401  13.994
47671W        W19254  17.663  13.857  14.094
47672W        W19255  18.116  24.924   1.929
47673W        W19256  16.898  20.773  14.266
47674W        W19257  25.726  36.428  12.529
47675W        W19258  36.172  28.927   3.783
47676W        W19259  11.681  12.379  12.060
47677W        W19260   7.686  10.658   2.585
47678W        W19261   6.683  16.709   4.736
47679W        W19262   5.938  44.369  13.966
47680W        W19263  44.894  42.493   0.174
47681W        W19264   3.778   4.760  13.092
47682W        W19265  24.559  18.981  14.868
47683W        W19266  17.248  22.658  14.646
47684W        W19267  19.487  25.193   4.911
47685W        W19268  41.925  27.164  13.871
47686W        W19269  13.393  42.368  13.937
47687W        W19270  41.852  41.891  12.050
47688W        W19271  15.142   2.863  11.992
47689W        W19272  30.367   0.987   2.245
47690W        W19273  20.763  17.315   4.283
47691W        W19274  13.456   8.261  13.641
47692W        W19275  29.169  38.523   1.364
47693W        W19276  24.000  22.537  11.668
47694W        W19277  35.662  41.424   0.904
47695W        W19278  30.529   0.434   4.151
47696W        W19279  17.548   4.377   3.280
47697W        W19280   1.180  14.543  12.587
47698W        W19281  38.711  42.138  12.388
47699W        W19282  17.211  19.758   2.706
47700W        W19283   7.707  43.964  11.096
47701W        W19284  16.265  34.484   1.752
47702W        W19285   2.434  28.374   3.383
47703W        W19286  20.742   4.976  12.437
47704W        W19287   9.869   1.897  13.569
47705W        W19288  15.028  40.415   2.278
47706W        W19289  16.794  23.496  14.884
47707W        W19290  42.064   0.903  13.061
47708W        W19291  31.429  38.455   1.140
47709W        W19292  24.424  12.925  13.254
47710W        W19293  29.486  23.779  12.639
47711W        W19294  19.903  25.442  12.505
47712W        W19295  37.139   6.749  14.370
47713W        W19296  30.213  21.888  10.709
47714W        W19297  41.839   5.861   2.491
47715W        W19298  12.353  35.885  13.135
47716W        W19299   3.928  26.711   2.300
47717W        W19300  26.042  29.979  13.127
47718W        W19301   2.335  12.762  12.068
47719W        W19302  11.179   5.434  12.910
47720W        W19303  42.742  23.549   2.717
47721W        W19304  38.479  27.906   4.128
47722W        W19305   1.314  14.790  14.406
47723W        W19306  28.444   8.781   2.271
47724W        W19307  33.934  38.612  11.973
47725W        W19308  29.431  43.525   4.550
47726W        W19309   2.797  44.465  12.085
47727W        W19310   6.484  21.193  13.322
47728W        W19311  37.775   9.669  14.874
47729W        W19312   5.278  41.596   3.313
47730W        W19313   8.384   9.179   5.005
47731W        W19314  28.961   9.346  10.997
47732W        W19315  23.185  29.693   9.774
47733W        W19316  43.445   0.206  12.097
47734W        W19317  24.001  15.223  12.638
47735W        W19318   6.191  23.671  11.278
47736W        W19319  30.609  44.162   3.642
47737W        W19320  22.234  19.760   2.325
47738W        W19321  36.865  12.742  12.327
47739W        W19322  41.979  24.889  11.663
47740W        W19323  16.565   1.810   0.482
47741W        W19324  14.667  30.942   4.654
47742W        W19325  32.838   4.651   1.868
47743W        W19326   0.288  31.129  12.919
47744W        W19327  42.966  10.277   4.119
47745W        W19328  38.823  42.133   0.277
47746W        W19329  18.812   6.397   4.741
47747W        W19330  15.158  38.361   2.371
47748W        W19331  38.259  15.667  13.972
47749W        W19332  21.241  43.634   2.516
47750W        W19333  11.738  32.979  11.926
47751W        W19334  42.808  37.978  13.905
47752W        W19335  25.596  26.502   2.857
47753W        W19336  32.939  42.521   2.725
47754W        W19337  26.942  24.941  10.541
47755W        W19338  22.193  30.924   3.702
47756W        W19339  17.741  13.150  12.994
47757W        W19340  29.586  19.449  12.398
47758W        W19341  44.304   8.411   0.391
47759W        W19342  23.210  26.552   5.033
47760W        W19343   3.153  42.100  11.661
47761W        W19344  28.009  39.001   2.594
47762W        W19345   5.273  37.953  10.455
47763W        W19346  10.189   7.598   1.718
47764W        W19347   4.194  37.288   3.340
47765W        W19348  35.121  36.280  10.755
47766W        W19349   9.721  40.914  10.655
47767W        W19350   8.335  42.518  14.896
47768W        W19351  31.475   6.336  14.447
47769W        W19352  29.402  32.753  11.128
47770W        W19353  11.774  37.677  12.855
47771W        W19354  34.650  15.021  13.005
47772W        W19355   0.266   3.758   4.518
47773W        W19356  32.667  22.707  11.326
47774W        W19357  20.671  41.291   0.529
47775W        W19358  35.993  38.272  11.068
47776W        W19359  35.609  27.475   0.873
47777W        W19360  29.361   9.873  10.358
47778W        W19361  14.551   0.410  11.159
47779W        W19362  23.423  24.132  12.874
47780W        W19363  10.905  11.212   0.504
47781W        W19364   2.974  24.539   3.358
47782W        W19365  23.488   1.330  13.956
47783W        W19366  28.153  18.823   0.486
47784W        W19367   3.601  10.748   3.913
47785W        W19368   6.764  26.373  14.741
47786W        W19369  16.312  31.311   4.551
47787W        W19370  15.359   9.130   1.055
47788W        W19371   8.775  34.709   4.879
47789W        W19372  36.442  23.643   3.080
47790W        W19373  31.510  25.493   4.669
47791W        W19374  41.299  34.638   3.160
47792W        W19375  19.123   7.173   3.097
47793W        W19376  39.811  36.321  11.398
47794W        W19377  21.067  44.728   2.420
47795W        W19378  12.431   0.846   0.415
47796W        W19379  43.539  27.004  12.068
47797W        W19380  31.197  40.795   2.146
47798W        W19381  38.474  11.872  11.150
47799W        W19382  27.393  11.389  10.276
47800W        W19383   5.231  29.881   0.287
47801W        W19384  33.627  24.139  13.479
47802W        W19385   5.413  23.682  14.412
47803W        W19386  12.331  38.355   4.502
47804W        W19387  30.619  22.944  11.992
47805W        W19388  31.822  28.442  14.264
47806W        W19389  41.290  23.707   0.613
47807W        W19390  16.495   6.035   3.667
47808W        W19391  38.807  43.846   3.247
47809W        W19392  40.542  26.502  14.360
47810W        W19393  17.035  30.950   3.810
47811W        W19394  41.246  31.970   4.544
47812W        W19395   9.206  17.390   3.201
47813W        W19396  36.015  22.015  12.008
47814W        W19397  27.012  13.646   0.410
47815W        W19398  36.618  24.711  14.457
47816W        W19399   4.188  44.285   1.494
47817W        W19400  13.770  26.540   5.125
47818W        W19401  23.566   2.842  13.616
47819W        W19402   0.486   6.964   3.702
47820W        W19403   9.359   7.924  10.502
47821W        W19404  17.986  14.655   3.734
47822W        W19405  24.552   7.112  14.489
47823W        W19406  32.520   1.007  13.040
47824W        W19407  10.229  44.238  11.979
47825W        W19408  38.152  19.644  13.334
47826W        W19409  28.664  19.799  12.504
47827W        W19410  20.774  36.750   1.698
47828W        W19411  24.512  22.521  14.801
47829W        W19412  32.708  25.542  11.294
47830W        W19413  10.077   0.840   2.735
47831W        W19414  43.550  12.373  13.940
47832W        W19415   5.246  38.427  10.663
47833W        W19416  19.272   7.353  13.381
47834W        W19417  26.692  20.580  13.942
47835W        W19418  36.787  21.552  11.753
47836W        W19419  20.497  14.909  12.011
47837W        W19420  13.593  44.258   0.434
47838W        W19421   2.205  18.587  12.836
47839W        W19422  26.512  19.639   0.249
47840W        W19423   9.810   6.622   1.222
47841W        W19424  24.017  16.688   4.103
47842W        W19425  37.739  15.584  13.841
47843W        W19426   6.340  29.079  13.454
47844W        W19427  37.466  12.612  11.098
47845W        W19428  21.788  43.592   2.645
47846W        W19429  14.353  17.592   3.215
47847W        W19430  20.961   7.308   1.843
47848W        W19431  18.658  35.412  14.469
47849W        W19432   8.967   5.251  11.552
47850W        W19433   6.100  30.922  11.610
47851W        W19434  29.684  14.278   2.817
47852W        W19435  35.973  44.946   0.113
47853W        W19436  37.914  18.605  13.897
47854W        W19437   3.956  34.479  10.613
47855W        W19438  37.824  18.410   2.854
47856W        W19439  40.991  36.271   2.538
47857W        W19440  29.184  28.736  14.999
47858W        W19441  18.799  16.168   0.379
47859W        W19442  42.900  20.065   1.902
47860W        W19443   9.890   4.849  14.441
47861W        W19444  27.657  19.076   0.331
47862W        W19445  22.373  24.270   0.468
47863W        W19446   7.629   2.350  14.531
47864W        W19447  29.367  36.968   2.752
47865W        W19448  33.341   6.397  12.290
47866W        W19449  39.203  25.819   3.581
47867W        W19450  27.697  43.817  12.965
47868W        W19451   5.440  30.194   2.130
47869W        W19452   4.506  30.327  12.181
47870W        W19453  43.740   4.957   1.286
47871W        W19454  36.541  13.025   2.778
47872W        W19455  37.958   2.758   2.055
47873W        W19456   0.048   1.771   5.171
47874W        W19457   3.373  27.200  12.181
47875W        W19458  37.922  10.880  10.580
47876W        W19459  23.438  25.283  10.907
47877W        W19460  42.549   7.147   0.039
47878W        W19461  15.743  37.556  11.596
47879W        W19462  24.548  32.412  11.501
47880W        W19463  44.028  13.625  11.466
47881W        W19464  10.633  19.932  11.208
47882W        W19465   8.109   8.416  12.872
47883W        W19466  21.966  10.419  10.730
47884W        W19467  28.140  30.903  13.498
47885W        W19468  11.350   2.605  12.007
47886W        W19469  34.065   4.858   4.626
47887W        W19470   3.860  12.892   2.335
47888W        W19471  29.194  30.588  12.019
47889W        W19472  40.379   1.684   2.859
47890W        W19473  16.721  15.438   1.721
47891W        W19474  34.112  19.221  13.068
47892W        W19475  34.549  26.915  11.988
47893W        W19476  43.222  44.440  10.712
47894W        W19477  36.059  35.176  12.080
47895W        W19478  23.594  32.134  14.475
47896W        W19479  35.476  21.205   3.780
47897W        W19480   6.897  31.653   3.071
47898W        W19481  21.208  39.808  10.756
47899W        W19482  32.688  42.043   2.849
47900W        W19483  28.179  20.562  14.766
47901W        W19484  17.854  15.564   4.492
47902W        W19485  43.539  22.566   2.440
47903W        W19486  43.896  41.405  13.798
47904W        W19487  37.095  37.792   2.261
47905W        W19488  39.720   3.312   4.840
47906W        W19489   2.764  20.216   1.198
47907W        W19490  19.024  33.095   2.839
47908W        W19491   4.979  10.328   2.422
47909W        W19492   1.511  21.094   4.560
47910W        W19493  28.551   8.020   0.292
47911W        W19494  32.077  15.547   1.716
47912W        W19495  31.101  44.523   0.655
47913W        W19496  38.755  40.012   0.908
47914W        W19497  37.552  11.259   4.637
47915W        W19498  12.938  25.956   2.352
47916W        W19499  44.869  17.767   1.279
47917W        W19500  30.660  19.477   3.711
47918W        W19501  33.121  40.275   3.567
47919W        W19502  12.085  44.999  11.505
47920W        W19503  18.680   6.546   5.209
47921W        W19504  26.990  25.438  12.543
47922W        W19505  33.128  40.294  13.399
47923W        W19506  33.924  37.275  14.920
47924W        W19507  26.038  40.952   4.423
47925W        W19508   8.784   5.932  14.538
47926W        W19509  17.545  14.875   0.331
47927W        W19510  19.696  37.532   1.042
47928W        W19511  35.326  20.639  10.746
47929W        W19512  23.772  33.368  11.036
47930W        W19513  12.152  14.804   2.192
47931W        W19514  40.923   1.284  11.665
47932W        W19515   6.226  19.483   0.259
47933W        W19516  40.076  26.013  12.220
47934W        W19517  12.583  41.701   0.857
47935W        W19518  38.519  33.037   0.568
47936W        W19519  40.063  35.005  13.662
47937W        W19520  30.195  36.374  14.865
47938W        W19521   4.245  40.263  11.855
47939W        W19522   5.821  30.542  12.836
47940W        W19523   2.353  35.435  11.619
47941W        W19524  27.798   4.799   2.651
47942W        W19525   6.714  22.526  12.558
47943W        W19526  15.253  30.993   3.749
47944W        W19527   7.587  41.964  14.502
47945W        W19528  10.609  21.702  13.385
47946W        W19529  35.922  24.705   0.250
47947W        W19530   2.983  40.029  12.394
47948W        W19531  28.221  42.572   4.820
47949W        W19532  43.969  39.762  10.706
47950W        W19533  24.414   0.800   3.318
47951W        W19534  40.937  37.028  10.461
47952W        W19535  25.038  33.634   1.421
47953W        W19536  10.407  24.614  11.056
47954W        W19537  19.254  12.762  11.540
47955W        W19538   9.727  33.815  12.983
47956W        W19539  30.803   2.628   0.383
47957W        W19540  10.210  27.252   1.575
47958W        W19541   3.355  10.154  12.868
47959W        W19542  12.450  39.418  11.975
47960W        W19543  14.760  19.370  12.405
47961W        W19544   2.945  35.197   2.985
47962W        W19545  17.725   2.067   0.959
47963W        W19546  42.256  41.830   2.698
47964W        W19547  25.696  26.972  13.326
47965W        W19548  41.324   5.180  13.032
47966W        W19549  15.851   4.231  12.980
47967W        W19550  42.401   3.860  12.801
47968W        W19551  28.311  30.427  10.254
47969W        W19552   4.119  32.438   2.683
47970W        W19553  25.586   5.271   3.096
47971W        W19554  39.776   3.605   4.439
47972W        W19555  34.100  27.293  11.671
47973W        W19556  35.316  32.344   2.705
47974W        W19557  41.760  14.490   5.079
47975W        W19558  34.309   2.198  10.584
47976W        W19559  22.523  14.372  13.076
47977W        W19560  13.584  13.697  13.039
47978W        W19561  31.614  40.424  14.044
47979W        W19562  30.526  11.842  11.510
47980W        W19563  21.211  34.694   0.901
47981W        W19564  23.357  15.060   2.225
47982W        W19565  43.859  44.943   4.244
47983W        W19566   8.849   2.258  12.023
47984W        W19567  29.342   7.277   2.196
47985W        W19568  40.403  14.390   2.429
47986W        W19569  37.240  13.186  13.942
47987W        W19570   4.294  28.136  14.578
47988W        W19571  34.056   9.240  11.321
47989W        W19572  39.452  11.443  11.967
47990W        W19573  34.747   4.351  13.476
47991W        W19574  35.951  38.203   4.678
47992W        W19575  38.927  38.499   0.119
47993W        W19576  20.553  16.247   5.112
47994W        W19577  35.565  20.237  14.903
47995W        W19578  34.643  24.677  14.492
47996W        W19579  12.775  20.952  13.555
47997W        W19580   3.309  14.061  10.726
47998W        W19581  32.970  17.866  12.908
47999W        W19582   5.758  36.313  12.571
48000W        W19583   3.906  26.670   1.300
48001W        W19584  26.736  17.629   4.199
48002W        W19585  30.207  31.379   3.332
48003W        W19586  39.802  41.660   2.832
48004W        W19587  17.858   6.675   2.253
48005W        W19588  22.130  13.194   4.116
48006W        W19589   3.839  42.438   3.072
48007W        W19590  20.723   7.748  10.099
48008W        W19591  40.845  32.663   2.005
48009W        W19592  30.817   4.604  11.112
48010W        W19593   0.978  23.579   0.618
48011W        W19594  15.567  26.271   0.015
48012W        W19595  30.681  25.419   2.290
48013W        W19596  37.891  34.803  14.473
48014W        W19597   5.588   0.348   3.342
48015W        W19598  35.416  40.925   3.757
48016W        W19599  15.282  12.848   0.862
48017W        W19600  11.529  27.049  10.478
48018W        W19601  38.392  18.831  13.840
48019W        W19602  19.413  12.312   4.787
48020W        W19603  34.338  15.767  11.833
48021W        W19604  14.180  23.385  10.201
48022W        W19605  23.243  42.998  14.630
48023W        W19606  33.950  18.831   4.657
48024W        W19607   7.125  16.942  14.965
48025W        W19608   4.766  40.258  13.503
48026W        W19609  10.878  33.492  11.400
48027W        W19610  16.812  41.976  11.936
48028W        W19611  35.236  12.760  12.906
48029W        W19612   6.179  10.772  14.104
48030W        W19613  35.918  18.559  12.887
48031W        W19614  33.611   5.917   0.501
48032W        W19615   2.354  23.125  11.534
48033W        W19616  11.653  19.555  14.281
48034W        W19617  15.979  39.608   3.810
48035W        W19618  39.990  21.355  11.352
48036W        W19619  39.029   7.357  12.804
48037W        W19620   5.433  11.704   1.531
48038W        W19621  13.107  12.098  12.070
48039W        W19622  37.115   3.735  11.074
48040W        W19623  38.100   7.122  14.911
48041W        W19624   2.400  21.941  10.937
48042W        W19625  35.431  11.643  10.686
48043W        W19626  42.764   9.238  12.397
48044W        W19627  28.768  35.037   0.894
48045W        W19628  23.055  11.165  13.763
48046W        W19629  15.892   2.201   5.034
48047W        W19630  18.522  25.262  13.145
48048W        W19631  39.984  31.148  13.515
48049W        W19632  30.502  19.252  10.554
48050W        W19633  38.813  12.252   2.497
48051W        W19634   9.171  27.729   2.465
48052W        W19635   7.284  24.190  11.202
48053W        W19636  25.610  28.064  11.586
48054W        W19637  36.493  11.094  14.545
48055W        W19638  20.214  38.796   3.737
48056W        W19639   6.308  34.995   4.182
48057W        W19640   4.056  44.713  14.484
48058W        W19641  28.608  19.011  13.890
48059W        W19642   3.230  36.027   0.942
48060W        W19643  38.011  32.605  13.058
48061W        W19644   7.599  10.858   0.362
48062W        W19645  28.204  24.810   3.172
48063W        W19646   3.985  10.425   2.252
48064W        W19647  42.397   2.927  12.862
48065W        W19648   2.672  16.815  12.050
48066W        W19649  39.310   0.904  12.577
48067W        W19650  22.974  25.248   2.907
48068W        W19651  18.280   5.797  11.160
48069W        W19652  38.147  26.039   0.708
48070W        W19653   9.689   8.350   1.808
48071W        W19654  37.474   0.477  10.687
48072W        W19655  20.717  44.149   1.026
48073W        W19656   1.324  19.077   1.459
48074W        W19657   5.876  24.442   1.403
48075W        W19658  13.756  38.948  11.916
48076W        W19659  32.487  41.894  12.031
48077W        W19660  15.624   4.984  13.235
48078W        W19661  15.480  18.512   1.946
48079W        W19662  24.291  41.420  12.125
48080W        W19663  38.420  23.951  10.678
48081W        W19664   8.156  17.672   3.752
48082W        W19665  22.521  10.331  11.572
48083W        W19666   4.747   5.332   1.297
48084W        W19667  27.301   0.248  14.950
48085W        W19668  33.415  23.183  11.471
48086W        W19669   2.278   6.879   0.798
48087W        W19670  18.798   8.262  14.300
48088W        W19671  30.886  16.820   0.265
48089W        W19672  16.340   1.457   0.859
48090W        W19673  20.947  13.633   0.796
48091W        W19674   1.429   0.299   0.789
48092W        W19675  30.130  10.294   2.884
48093W        W19676   0.340  31.209  13.871
48094W        W19677  23.792  30.433  13.185
48095W        W19678  20.385   7.761   9.708
48096W        W19679  14.848  23.434  14.833
48097W        W19680   8.670  18.585  11.170
48098W        W19681  31.870  38.432   4.463
48099W        W19682  37.881   7.644  11.518
48100W        W19683  20.665  37.439  13.405
48101W        W19684   3.479  32.243   3.229
48102W        W19685  31.481  43.858   2.767
48103W        W19686  20.374   7.799  10.962
48104W        W19687  37.643  31.898  11.852
48105W        W19688  33.010   3.004   1.313
48106W        W19689  43.496  35.617   1.338
48107W        W19690  24.751  29.114  12.909
48108W        W19691  29.459  35.871  12.916
48109W        W19692  42.391   5.632  14.295
48110W        W19693  38.278   3.947   4.790
48111W        W19694  20.201  22.667   4.941
48112W        W19695   7.863  35.578   0.765
48113W        W19696  21.168  19.323  10.645
48114W        W19697  26.594  11.942  10.816
48115W        W19698  31.108  33.874  13.641
48116W        W19699   7.198   4.228  12.931
48117W        W19700  31.381  18.178  13.850
48118W        W19701  25.180  21.796  11.549
48119W        W19702  23.737  32.887  13.370
48120W        W19703  22.996   6.252   0.782
48121W        W19704  28.968   3.403  12.945
48122W        W19705  28.863  13.225   4.188
48123W        W19706  34.999  33.338  13.585
48124W        W19707  10.814  43.392   3.021
48125W        W19708  18.664  17.226  12.031
48126W        W19709  15.735   3.864   3.682
48127W        W19710  44.236   4.313   0.323
48128W        W19711  28.124  25.378   1.866
48129W        W19712   4.963  18.767   4.993
48130W        W19713  18.611  42.960  13.100
48131W        W19714   6.442  10.703  12.683
48132W        W19715  33.384  44.297   3.611
48133W        W19716  19.980  21.618   1.753
48134W        W19717  42.347  21.125   2.357
48135W        W19718  29.548  19.976   1.742
48136W        W19719  39.250   9.997  11.440
48137W        W19720  44.755   7.576  11.884
48138W        W19721  31.533  15.691   0.042
48139W        W19722  37.516   5.274   0.412
48140W        W19723   2.172  29.190  12.888
48141W        W19724   9.327   2.789  14.335
48142W        W19725  26.456   0.874  12.828
48143W        W19726  43.448  33.825   2.716
48144W        W19727   6.671  43.811  12.440
48145W        W19728  35.701   7.942  10.737
48146W        W19729  21.045   7.212   0.446
48147W        W19730  32.566   6.359   4.478
48148W        W19731  37.514  31.890   3.351
48149W        W19732   2.491  32.182  12.122
48150W        W19733  34.426  40.836  14.732
48151W        W19734   4.693  33.346   0.704
48152W        W19735  18.709  18.675   1.371
48153W        W19736   7.836   8.385  13.315
48154W        W19737   3.938   9.815   3.075
48155W        W19738  24.958  24.077  12.810
48156W        W19739  34.178   1.486   0.914
48157W        W19740  32.285  29.993   0.895
48158W        W19741  32.169  19.383  12.403
48159W        W19742  34.157  35.832   1.671
48160W        W19743  14.076  25.206   3.750
48161W        W19744  33.443  41.447  14.819
48162W        W19745  44.495  10.494   3.672
48163W        W19746  18.559  21.103   1.249
48164W        W19747  33.538   4.653   0.639
48165W        W19748  36.561  26.444   0.417
48166W        W19749  31.107   8.623   3.732
48167W        W19750  44.880  36.001  13.527
48168W        W19751   8.300  19.903  12.978
48169W        W19752  43.283   4.921  12.129
48170W        W19753  17.101   1.693   3.333
48171W        W19754  28.860  39.810  10.623
48172W        W19755   3.005  29.634   4.139
48173W        W19756  22.667   8.860  14.889
48174W        W19757  41.459  24.586  11.207
48175W        W19758  19.637   9.701  10.698
48176W        W19759  38.319  24.008  12.450
48177W        W19760   7.501   3.002   2.750
48178W        W19761   9.120  41.914   3.667
48179W        W19762  10.362   0.166   3.561
48180W        W19763  14.589  13.430  12.967
48181W        W19764  39.324   7.123   3.349
48182W        W19765  42.013  22.595  11.994
48183W        W19766   5.272   7.962   2.444
48184W        W19767  22.219  35.410   0.450
48185W        W19768  24.766  44.390   2.483
48186W        W19769   2.834  37.121   2.826
48187W        W19770  13.117  23.562   4.787
48188W        W19771  38.077   9.818   0.274
48189W        W19772  11.183  29.893   0.026
48190W        W19773  13.450  41.521  13.449
48191W        W19774   7.730  30.081   2.807
48192W        W19775  19.809  21.587  10.695
48193W        W19776  10.248  42.583   4.207
48194W        W19777   9.953  44.777  11.088
48195W        W19778  38.434  43.267  12.992
48196W        W19779  43.056  39.402  12.471
48197W        W19780  25.147  17.329   4.512
48198W        W19781  40.474  27.210   3.717
48199W        W19782  31.497  16.710   1.862
48200W        W19783  17.306  40.945  14.395
48201W        W19784   5.399  20.692  12.725
48202W        W19785   1.278  31.975   0.944
48203W        W19786  12.580  37.070   0.493
48204W        W19787  41.554  42.515  11.024
48205W        W19788  31.848  31.024   3.642
48206W        W19789  36.449  16.286   1.268
48207W        W19790  31.363  12.120   4.126
48208W        W19791   3.361  41.323  10.268
48209W        W19792  22.158   8.611  12.438
48210W        W19793  21.197  21.151  11.386
48211W        W19794  42.370  19.729   2.637
48212W        W19795  10.888  17.403   0.912
48213W        W19796  35.417  44.818  12.364
48214W        W19797   3.681  20.966  12.582
48215W        W19798  27.625   6.836   2.239
48216W        W19799  31.509   7.925   4.901
48217W        W19800  30.798  22.703  10.762
48218W        W19801   4.802  41.833   4.974
48219W        W19802   5.189  31.687  14.491
48220W        W19803  42.814  32.998   2.836
48221W        W19804  17.996   8.221  13.800
48222W        W19805   1.534   8.336   3.168
48223W        W19806   3.030  33.929   2.265
48224W        W19807  27.223  38.622   0.018
48225W        W19808  37.986   1.978   0.549
48226W        W19809  21.753   6.172   3.633
48227W        W19810  15.647  21.817   3.276
48228W        W19811   6.725   8.370  14.787
48229W        W19812  40.097  39.457  11.386
48230W        W19813   1.693  30.594  10.948
48231W        W19814  39.337  34.101   0.707
48232W        W19815  30.587  30.202  14.967
48233W        W19816  12.139  41.020  13.498
48234W        W19817  34.062  44.605  12.680
48235W        W19818  43.273  18.281  10.639
48236W        W19819  16.558  21.000   0.671
48237W        W19820  30.677  10.372   4.098
48238W        W19821  29.247  10.267   2.772
48239W        W19822  24.634  10.709   2.662
48240W        W19823   9.368  42.427  10.791
48241W        W19824  28.595  27.628   2.068
48242W        W19825  41.795  12.251  12.648
48243W        W19826  12.593  26.053  14.842
48244W        W19827   3.219   5.648   2.364
48245W        W19828  37.866  39.093   1.695
48246W        W19829  23.032  33.588   3.143
48247W        W19830  17.773  13.545  12.668
48248W        W19831  21.143  13.251  13.436
48249W        W19832  21.509  35.524   1.360
48250W        W19833  34.941  37.616  10.967
48251W        W19834  16.086  38.078   1.995
48252W        W19835   4.797  31.160   4.342
48253W        W19836  25.623   3.222   3.338
48254W        W19837  42.458  25.145   0.181
48255W        W19838  41.351  23.066  14.312
48256W        W19839  12.861  24.220  12.161
48257W        W19840  27.554   1.033   3.615
48258W        W19841  25.291  40.846  10.691
48259W        W19842  29.475  42.777   3.811
48260W        W19843  44.951  23.976   2.569
48261W        W19844  22.986  22.015  13.001
48262W        W19845  23.999   2.544   3.621
48263W        W19846  14.180  15.725  13.439
48264W        W19847  21.694  44.402  12.034
48265W        W19848  21.301  19.680   1.234
48266W        W19849  30.202   2.744   1.905
48267W        W19850   6.279  16.785  11.748
48268W        W19851  37.375  33.922   2.173
48269W        W19852  24.128  26.419   0.478
48270W        W19853   7.637  35.361   4.899
48271W        W19854  33.564   9.326  14.094
48272W        W19855   6.504  33.646   3.308
48273W        W19856  24.550  17.464  11.203
48274W        W19857  33.428   8.818   3.749
48275W        W19858   9.412  41.584  12.377
48276W        W19859  42.484   0.213  10.688
48277W        W19860  13.357  44.138   4.589
48278W        W19861  13.692  39.356   4.035
48279W        W19862  26.775  21.682   1.308
48280W        W19863  26.750  26.055   2.189
48281W        W19864  21.117   4.967   3.731
48282W        W19865  39.840  21.989   2.969
48283W        W19866  11.382  24.406  11.058
48284W        W19867  44.730  33.884   4.041
48285W        W19868   4.424   5.759  10.850
48286W        W19869  11.051  35.524   4.560
48287W        W19870  19.157  23.781  12.177
48288W        W19871  42.687  32.356  13.090
48289W        W19872  39.046  30.614  12.603
48290W        W19873  39.519   4.311  12.964
48291W        W19874  30.400  11.351  12.496
48292W        W19875  36.895  40.795   3.746
48293W        W19876  37.718   9.805  12.502
48294W        W19877   0.510  14.108   0.845
48295W        W19878   1.220   7.540   4.088
48296W        W19879   4.670  37.914  11.071
48297W        W19880  14.659  12.757   1.893
48298W        W19881  11.339   3.577  10.590
48299W        W19882  40.387  43.487   1.455
48300W        W19883  37.784  40.054  11.064
48301W        W19884  33.916   5.176  12.104
48302W        W19885  22.401  23.787  11.384
48303W        W19886  38.626  42.509  14.907
48304W        W19887  20.589  44.433  13.444
48305W        W19888  39.028   3.358   3.215
48306W        W19889  23.102  17.754   1.832
48307W        W19890   2.018  16.705   3.192
48308W        W19891   6.123  43.486  14.436
48309W        W19892  11.641  33.919   4.572
48310W        W19893  19.224  21.524   4.831
48311W        W19894  25.144  33.450  12.025
48312W        W19895   0.529  39.404  12.326
48313W        W19896   5.251  38.850   2.102
48314W        W19897  43.220  31.399   1.438
48315W        W19898  15.798   5.863   4.839
48316W        W19899   2.826  12.383   0.441
48317W        W19900  11.484  42.240  12.894
48318W        W19901   5.037  18.811  14.347
48319W        W19902  35.968   8.545   3.396
48320W        W19903  14.476  27.022   0.294
48321W        W19904  11.886   2.370  13.934
48322W        W19905   7.195  21.678   0.286
48323W        W19906  16.849  15.265   9.927
48324W        W19907  19.991  10.717   2.873
48325W        W19908  20.722  10.116   2.339
48326W        W19909  16.048  29.183  14.235
48327W        W19910  12.967   6.878  10.700
48328W        W19911  44.208  44.567   5.052
48329W        W19912   8.409  27.902   4.499
48330W        W19913  18.784   4.690  13.497
48331W        W19914  19.079  44.373  10.793
48332W        W19915   4.731   8.140   1.227
48333W        W19916  40.880  18.326  14.298
48334W        W19917  24.414  27.169   0.306
48335W        W19918  43.443  16.494  10.920
48336W        W19919   5.208  29.419  12.856
48337W        W19920   5.784  15.710   4.253
48338W        W19921  41.861  28.841   4.880
48339W        W19922  28.270   4.760  13.026
48340W        W19923  35.453   9.732  11.703
48341W        W19924   8.414   0.684  12.682
48342W        W19925  31.019   9.537  12.490
48343W        W19926  36.339  16.587  10.574
48344W        W19927   6.877  19.063   1.503
48345W        W19928  29.788  11.405   4.114
48346W        W19929  38.073  21.113  11.912
48347W        W19930  31.983  39.968   3.410
48348W        W19931   3.940  23.233  12.417
48349W        W19932  26.041  14.097   3.918
48350W        W19933  16.778  12.756   3.879
48351W        W19934  39.787  16.263   4.274
48352W        W19935  41.861  24.525  13.088
48353W        W19936  41.079  41.339   3.467
48354W        W19937  43.993  30.052  11.606
48355W        W19938  31.520  24.645   2.092
48356W        W19939  15.144   0.849   1.085
48357W        W19940  24.577  13.304  14.998
48358W        W19941  19.867  20.041   4.718
48359W        W19942  20.720  20.036   1.590
48360W        W19943  33.250  39.511  14.922
48361W        W19944  39.863  40.036   3.665
48362W        W19945  42.717   8.215   1.623
48363W        W19946  43.378  12.217  12.013
48364W        W19947  43.133  39.798  11.300
48365W        W19948   6.345  34.438   0.244
48366W        W19949  14.545  35.519  11.076
48367W        W19950  15.502  28.895  12.646
48368W        W19951  38.013  35.099   4.394
48369W        W19952  23.036  41.250   3.829
48370W        W19953  15.693  26.916  12.994
48371W        W19954  35.056  29.663  13.854
48372W        W19955  17.070  26.899   0.734
48373W        W19956  35.992  17.229   1.422
48374W        W19957  32.188  19.554   0.521
48375W        W19958  33.543  11.121   2.522
48376W        W19959   8.713   6.824  12.578
48377W        W19960   6.197  43.651   4.927
48378W        W19961  25.650  23.334  12.377
48379W        W19962  20.682  15.293  12.567
48380W        W19963  36.472  21.902  14.532
48381W        W19964   9.895  41.791  11.137
48382W        W19965  33.360  43.943  11.535
48383W        W19966  21.699  30.734   3.681
48384W        W19967  36.425   0.435  12.849
48385W        W19968  44.914  34.742   3.787
48386W        W19969  42.404  21.938   0.274
48387W        W19970  42.839  42.498   3.015
48388W        W19971  16.842  43.382   1.967
48389W        W19972  35.430  29.701  12.846
48390W        W19973  40.432  44.953   4.297
48391W        W19974   5.267  27.550  14.999
48392W        W19975   2.871  37.786  14.745
48393W        W19976  43.905  36.546  13.043
48394W        W19977  13.074  33.917   1.927
48395W        W19978  34.812  36.374   0.833
48396W        W19979  25.111  40.070  13.797
48397W        W19980   6.208   5.375   4.196
48398W        W19981   8.905   3.270   3.383
48399W        W19982  43.464   3.699   4.576
48400W        W19983   6.904  21.447   1.287
48401W        W19984   7.724   7.590   1.947
48402W        W19985  26.086  31.682   4.698
48403W        W19986  37.777   1.733   2.374
48404W        W19987   7.786  36.850  10.999
48405W        W19988  11.306  28.995   3.336
48406W        W19989  10.784  33.384  13.314
48407W        W19990  18.711  13.907  12.474
48408W        W19991  25.676   2.944  11.618
48409W        W19992  13.252  43.044  13.430
48410W        W19993   2.436  44.989   1.500
48411W        W19994  35.399  38.950   1.806
48412W        W19995  36.893  44.989   4.000
48413W        W19996  18.806  33.577   4.687
48414W        W19997  39.692  40.790  12.382
48415W        W19998  38.094   6.849  11.151
48416W        W19999  31.519  29.926   4.657
48417W        W20000  11.274   6.372   1.719
48418W        W20001   7.423   7.574  13.706
48419W        W20002  12.464  42.219   1.241
48420W        W20003  44.997  19.303   3.702
48421W        W20004  43.477  31.605   2.350
48422W        W20005   3.195  22.268  11.925
48423W        W20006  44.403  37.825  14.019
48424W        W20007   3.772  41.201   0.656
48425W        W20008  42.880  10.768   2.477
48426W        W20009  15.097  28.594  12.587
48427W        W20010  40.901  25.881  13.346
48428W        W20011   7.340   5.171  10.586
48429W        W20012   4.460  41.048  10.686
48430W        W20013  44.430   6.243  11.228
48431W        W20014  34.538  36.417   2.183
48432W        W20015   0.827  14.724   4.614
48433W        W20016  44.648   3.216  11.353
48434W        W20017  14.662  16.559  10.969
48435W        W20018  32.420  17.928  14.080
48436W        W20019  15.581  37.504  10.721
48437W        W20020  26.522  29.576   1.722
48438W        W20021  25.702   4.827   3.311
48439W        W20022  22.689  39.816  13.902
48440W        W20023  26.769  40.375  13.483
48441W        W20024   4.181  25.900  11.660
48442W        W20025   6.316  41.339   1.370
48443W        W20026   1.224  23.731   2.264
48444W        W20027  14.788  21.252  11.169
48445W        W20028   7.519  33.333  11.101
48446W        W20029  27.000  15.799   1.459
48447W        W20030  41.176  19.473   3.753
48448W        W20031  32.147  26.460   1.161
48449W        W20032   6.535  32.284   3.674
48450W        W20033  38.917   8.709  12.905
48451W        W20034  22.599  23.516  14.362
48452W        W20035  18.665  12.984  14.494
48453W        W20036  44.951  28.484   4.252
48454W        W20037   2.182  27.385   3.113
48455W        W20038  35.558   9.432   3.263
48456W        W20039  13.844  40.763   2.181
48457W        W20040  25.150   2.284  10.706
48458W        W20041  14.216  39.715  10.665
48459W        W20042  34.036  36.816  14.713
48460W        W20043  38.119  40.070   4.100
48461W        W20044  34.481  37.625   1.186
48462W        W20045  11.597  11.525   5.042
48463W        W20046   6.403   9.242   1.478
48464W        W20047  29.858   7.117  13.661
48465W        W20048  22.956  21.161   2.386
48466W        W20049  41.923  14.972  13.790
48467W        W20050  36.483   2.111   4.663
48468W        W20051   0.607  27.559   4.225
48469W        W20052  10.053   7.334   5.125
48470W        W20053   1.764  15.982   3.674
48471W        W20054  13.426  31.366  13.378
48472W        W20055   1.337  38.922   2.578
48473W        W20056  30.853   0.557  13.511
48474W        W20057  44.724  41.797  14.062
48475W        W20058  24.773  43.719   3.209
48476W        W20059   6.341  34.532   4.482
48477W        W20060  24.495  32.571  13.431
48478W        W20061   8.913  35.485  11.098
48479W        W20062  33.125   7.547  10.882
48480W        W20063  15.134  29.717   1.002
48481W        W20064  44.404  34.275   4.084
48482W        W20065  17.972  38.064   4.358
48483W        W20066  10.176  34.908  12.663
48484W        W20067  25.234   0.874  13.533
48485W        W20068  24.970   9.281   1.963
48486W        W20069  10.765  20.729   3.558
48487W        W20070  30.099  14.587  12.138
48488W        W20071  28.767  43.969   2.687
48489W        W20072  43.963  44.769   2.673
48490W        W20073  28.030   2.006  11.570
48491W        W20074  29.205  26.182  14.751
48492W        W20075  17.708  27.054  10.499
48493W        W20076  32.539  18.324   0.288
48494W        W20077  32.365  11.281  11.494
48495W        W20078  30.339   1.869   1.453
48496W        W20079  36.876  13.239   0.447
48497W        W20080  34.094  11.085  11.195
48498W        W20081  20.494  12.565  11.110
48499W        W20082  12.204  41.754   2.825
48500W        W20083   5.164  17.268   2.674
48501W        W20084  13.586  26.842  13.110
48502W        W20085  35.823  26.101  10.683
48503W        W20086  10.208   5.198  14.129
48504W        W20087  37.532  28.828   4.332
48505W        W20088  10.841  10.300   2.922
48506W        W20089  41.959   9.395  13.796
48507W        W20090  11.503  14.162   1.667
48508W        W20091  21.067   5.100   0.537
48509W        W20092  42.042  30.568  12.561
48510W        W20093   5.286  37.029  12.342
48511W        W20094  27.182  15.864   2.832
48512W        W20095  35.537  19.030  14.130
48513W        W20096  34.465  11.297   2.425
48514W        W20097   7.858  19.654  10.439
48515W        W20098  43.459  36.453  14.810
48516W        W20099  30.320  33.016  12.959
48517W        W20100  26.200  23.818   2.175
48518W        W20101  36.358  37.480  12.416
48519W        W20102  37.983  36.857  12.553
48520W        W20103  37.845  43.846  12.064
48521W        W20104   2.630  12.447  14.129
48522W        W20105  11.104  33.635   3.300
48523W        W20106  36.518  25.231  14.466
48524W        W20107  27.251  16.931  12.057
48525W        W20108   6.406  23.985  14.723
48526W        W20109  30.574   3.126  14.241
48527W        W20110   6.632   0.214  11.943
48528W        W20111  11.579  31.446  14.928
48529W        W20112  24.063  38.210  11.551
48530W        W20113  11.867  41.641   3.196
48531W        W20114  12.730  13.324   0.809
48532W        W20115  34.079  25.098   4.682
48533W        W20116  21.891  32.157   0.792
48534W        W20117  39.901  25.036  12.595
48535W        W20118   2.949   8.086   4.535
48536W        W20119  39.491  26.209  13.008
48537W        W20120  14.219  36.320   4.510
48538W        W20121  35.519  20.737  14.796
48539W        W20122  10.359  21.954  11.565
48540W        W20123  43.683  22.033   3.305
48541W        W20124   7.326  44.392  13.489
48542W        W20125  23.093   6.286  12.337
48543W        W20126  17.738  42.139   4.149
48544W        W20127  13.523  40.770   1.786
48545W        W20128  14.920  29.938  10.979
48546W        W20129  26.114   8.037   0.472
48547W        W20130  32.566  15.633   2.882
48548W        W20131  38.177  22.446   9.873
48549W        W20132   9.801  42.401  14.956
48550W        W20133  22.545  17.520  13.305
48551W        W20134  36.534  42.006  11.036
48552W        W20135  30.398  21.953  11.988
48553W        W20136   3.310  17.524  12.392
48554W        W20137  41.507  10.093  11.859
48555W        W20138   3.800  35.392   5.626
48556W        W20139  16.196  19.190  12.433
48557W        W20140  19.537   4.176   1.723
48558W        W20141  43.921  23.966   4.651
48559W        W20142  43.601  37.093  10.400
48560W        W20143  43.369  16.002  14.271
48561W        W20144  25.748   0.824  12.038
48562W        W20145  14.228  34.664  10.175
48563W        W20146  17.173  31.797   2.246
48564W        W20147  31.526  12.152   2.314
48565W        W20148  34.042  16.244   1.477
48566W        W20149   9.015  22.418   4.341
48567W        W20150  42.262   8.355  11.626
48568W        W20151  32.611  37.801   3.802
48569W        W20152  41.912   6.322   2.773
48570W        W20153  41.284  38.394  10.673
48571W        W20154   9.443   7.238   4.501
48572W        W20155  25.710  30.122   3.279
48573W        W20156  33.943  43.204  11.146
48574W        W20157  10.583  36.433  10.631
48575W        W20158  14.854   8.634  10.722
48576W        W20159  39.638  43.015   3.890
48577W        W20160   6.818  12.816   0.902
48578W        W20161  15.633  26.893   0.472
48579W        W20162  30.479  42.288  11.524
48580W        W20163  36.537   9.760  14.800
48581W        W20164  19.500  19.833  11.119
48582W        W20165  28.416   6.912  10.794
48583W        W20166  39.007  33.088  10.357
48584W        W20167  37.589  15.745  12.105
48585W        W20168  16.388  17.591  11.149
48586W        W20169  26.700   1.248  12.036
48587W        W20170  42.193   4.553   0.848
48588W        W20171  28.158  35.050   4.452
48589W        W20172  11.867  18.980  12.452
48590W        W20173   6.236   3.376  14.303
48591W        W20174  36.788  44.071  11.376
48592W        W20175  19.784  18.771  12.545
48593W        W20176  28.567  21.479   1.736
48594W        W20177  38.636  36.591  13.047
48595W        W20178  41.317  32.583  13.886
48596W        W20179  34.630  36.749   4.338
48597W        W20180  10.334   0.796   0.448
48598W        W20181  29.222  27.016  11.936
48599W        W20182   7.151  24.518   0.538
48600W        W20183   0.875   7.300   0.774
48601W        W20184  25.777   1.860  10.737
48602W        W20185  37.342   4.805  12.995
48603W        W20186   2.639  26.516   2.778
48604W        W20187  30.087  35.694   2.315
48605W        W20188   9.143  17.884   3.130
48606W        W20189  19.566  17.525   0.402
48607W        W20190  24.170  34.128   2.681
48608W        W20191  34.644   8.315  11.135
48609W        W20192  41.397  36.950   2.807
48610W        W20193  13.798  40.971   3.880
48611W        W20194   0.525  18.616  10.973
48612W        W20195   4.968   1.428  11.176
48613W        W20196  27.645  19.221   3.638
48614W        W20197  37.887  29.158   3.474
48615W        W20198  18.330  36.313  13.742
48616W        W20199  15.964  19.082   2.179
48617W        W20200  15.964  23.507   4.954
48618W        W20201  25.387  15.862  14.330
48619W        W20202   6.671   4.787  11.479
48620W        W20203  24.635  31.504  14.370
48621W        W20204  17.114  25.114   3.693
48622W        W20205  18.188  32.312   0.454
48623W        W20206  10.243  39.924  14.400
48624W        W20207  31.008  17.338   4.554
48625W        W20208  10.249  21.628   9.918
48626W        W20209  36.027  22.573  11.279
48627W        W20210  42.372  35.443   4.093
48628W        W20211  35.445  30.032  14.487
48629W        W20212  18.834   3.430   0.409
48630W        W20213  38.487  28.124   0.971
48631W        W20214   8.273  44.502  14.369
48632W        W20215   6.414  37.218  10.864
48633W        W20216   6.221  38.564  14.375
48634W        W20217  36.408  21.321   3.528
48635W        W20218  29.521  15.630   2.445
48636W        W20219  17.275  12.260   0.191
48637W        W20220  39.138  42.511  11.632
48638W        W20221  42.477  38.729   2.137
48639W        W20222  43.503  13.382   1.185
48640W        W20223  40.267  29.536  11.930
48641W        W20224  17.782   4.253   3.745
48642W        W20225  22.792   0.714   1.700
48643W        W20226  39.936  35.337  11.443
48644W        W20227  31.343  43.819  10.847
48645W        W20228   2.503  15.200  12.738
48646W        W20229  17.656  38.220   0.956
48647W        W20230  29.412   5.218  14.790
48648W        W20231  18.032  30.545  13.295
48649W        W20232  31.436   0.806  14.442
48650W        W20233   0.711  17.283  10.308
48651W        W20234  34.563  16.498  14.707
48652W        W20235  42.089  10.995   1.371
48653W        W20236  35.629  31.561  12.391
48654W        W20237  35.833  24.501  11.130
48655W        W20238   7.093  30.184   0.007
48656W        W20239  23.724  12.985   3.318
48657W        W20240  25.302  25.588   0.934
48658W        W20241  17.196  27.494  13.816
48659W        W20242  23.278  20.545   3.095
48660W        W20243  32.971  32.823   3.054
48661W        W20244  17.302  38.447   4.418
48662W        W20245  13.721  27.328  12.918
48663W        W20246  13.302  35.340   2.405
48664W        W20247  40.266  30.068  11.053
48665W        W20248   2.649  16.816   4.188
48666W        W20249  19.138  26.269  12.053
48667W        W20250   5.285   2.447   4.857
48668W        W20251   9.697  22.183   2.935
48669W        W20252  10.344  16.170  10.110
48670W        W20253   2.915  44.988  13.536
48671W        W20254   9.376  23.512   5.149
48672W        W20255  11.763  25.929   3.255
48673W        W20256  27.091  31.613   3.147
48674W        W20257   1.101  14.699   0.212
48675W        W20258  36.783   9.107   4.252
48676W        W20259   1.119  33.606   3.656
48677W        W20260  30.712  43.470   1.348
48678W        W20261  18.984   3.997  11.942
48679W        W20262  34.926   9.275   3.196
48680W        W20263  25.542  25.655   2.333
48681W        W20264  14.811  42.960   3.671
48682W        W20265  43.725  35.570   0.579
48683W        W20266  41.811  13.093   4.112
48684W        W20267  41.550   2.632   0.834
48685W        W20268  41.728  26.686  13.825
48686W        W20269  26.954  13.354   2.782
48687W        W20270   1.492  18.191   1.863
48688W        W20271  11.413  29.907   1.712
48689W        W20272  26.303   3.632   1.281
48690W        W20273  10.824  38.396   0.146
48691W        W20274   0.673  20.106  12.153
48692W        W20275  10.790  41.494  11.887
48693W        W20276  39.225  21.484   1.278
48694W        W20277  30.160  23.733  11.475
48695W        W20278  21.325  12.252   0.311
48696W        W20279   1.508  19.232  14.028
48697W        W20280   4.183  28.944   0.062
48698W        W20281  39.380  39.557  14.776
48699W        W20282  26.599  37.944  14.886
48700W        W20283  40.369  35.007  12.809
48701W        W20284  35.469  19.235   1.007
48702W        W20285  13.349  17.681  14.547
48703W        W20286  32.862  37.001  12.536
48704W        W20287  20.726  44.153  12.818
48705W        W20288  24.210  21.732   0.460
48706W        W20289  11.828   6.431  10.496
48707W        W20290  44.491   0.499  13.817
48708W        W20291   9.968  29.090  11.607
48709W        W20292   2.913  17.544  10.827
48710W        W20293  34.622  30.579   0.002
48711W        W20294   9.668  17.658  12.518
48712W        W20295  38.002   5.810   0.996
48713W        W20296   3.897  30.678   2.974
48714W        W20297  11.538  30.084   2.726
48715W        W20298  25.942  38.526   1.194
48716W        W20299   5.824   0.900  14.139
48717W        W20300   4.858  21.292  12.951
48718W        W20301  32.637   9.309   0.386
48719W        W20302  13.843  25.664   1.366
48720W        W20303  21.032  43.947  10.574
48721W        W20304  31.791   8.514  10.207
48722W        W20305  21.408   0.331  13.924
48723W        W20306  14.567  39.614  10.283
48724W        W20307  43.895  13.200  13.432
48725W        W20308  15.194  43.775   0.726
48726W        W20309  17.540  12.640  14.945
48727W        W20310  36.823  23.688   4.919
48728W        W20311   8.492  27.032  13.591
48729W        W20312  35.551  31.270  11.550
48730W        W20313  36.427  18.806   2.941
48731W        W20314  18.333  22.485  11.057
48732W        W20315  37.575  28.668  10.812
48733W        W20316  35.428  37.109  10.758
48734W        W20317  11.455  14.269  12.741
48735W        W20318   2.936  25.708   1.373
48736W        W20319   2.214  19.651   2.010
48737W        W20320   1.857  27.341   0.567
48738W        W20321  20.063  14.815   4.573
48739W        W20322   7.278  17.055   2.942
48740W        W20323   7.492  25.477   4.554
48741W        W20324  16.081  30.385  12.039
48742W        W20325  30.645  39.109   4.238
48743W        W20326  30.448  34.929  12.066
48744W        W20327   6.334  19.423   2.952
48745W        W20328  10.883  39.426   1.970
48746W        W20329  13.267   4.726  13.654
48747W        W20330  13.318  30.293  11.621
48748W        W20331  27.976  44.414   0.747
48749W        W20332  23.691  44.265   3.870
48750W        W20333  26.483  33.948  10.939
48751W        W20334   5.020  35.546   3.122
48752W        W20335  32.069   6.185   4.554
48753W        W20336  37.841  12.102   0.271
48754W        W20337  34.568  14.106   1.851
48755W        W20338  10.412  38.389  14.453
48756W        W20339   4.800  32.089  13.327
48757W        W20340  19.109  42.209  13.058
48758W        W20341  15.616  44.553   3.299
48759W        W20342  15.027  31.420  11.506
48760W        W20343  42.446   1.611  10.529
48761W        W20344  19.590  19.955   1.610
48762W        W20345  30.941   1.778   4.084
48763W        W20346  36.014  41.461  12.492
48764W        W20347   8.164  19.235  13.403
48765W        W20348  36.330  27.521   3.860
48766W        W20349  17.151  35.340   4.091
48767W        W20350  28.207  43.760  13.002
48768W        W20351  27.973  32.622  11.029
48769W        W20352  42.058  28.449  12.898
48770W        W20353   9.531   1.238  11.480
48771W        W20354  18.555  27.053  10.650
48772W        W20355  12.284  21.598   3.775
48773W        W20356  29.557  34.611  12.148
48774W        W20357   5.668   5.397   0.231
48775W        W20358  37.021  41.854  10.860
48776W        W20359  11.155  24.108  12.833
48777W        W20360  29.552  14.823   3.375
48778W        W20361  32.086  27.701  13.911
48779W        W20362  44.183   8.293  14.067
48780W        W20363  10.898  33.344  14.516
48781W        W20364   3.871  24.747   1.245
48782W        W20365  44.278  20.792  14.892
48783W        W20366  38.767   6.727  13.832
48784W        W20367  44.909  28.146   2.673
48785W        W20368  21.340  42.308   2.629
48786W        W20369   0.356  26.993   4.135
48787W        W20370  27.495  23.017   2.230
48788W        W20371  30.012  33.362  14.744
48789W        W20372   0.703  15.558   1.777
48790W        W20373   6.393  41.368  11.589
48791W        W20374  15.650   2.876  11.817
48792W        W20375  44.154   1.223  12.615
48793W        W20376   5.353   7.286  14.048
48794W        W20377  14.710  43.672   1.720
48795W        W20378  39.309   7.645   0.322
48796W        W20379  11.084  27.359  13.044
48797W        W20380  28.160  16.166  13.842
48798W        W20381  33.108  30.503  13.132
48799W        W20382  43.660  34.403   0.949
48800W        W20383  35.516  13.595  10.769
48801W        W20384   9.804   0.754  10.760
48802W        W20385  33.571  37.343   3.648
48803W        W20386  40.267   5.200  14.782
48804W        W20387   4.320  41.586  13.515
48805W        W20388  24.048  42.993  10.302
48806W        W20389  21.350  15.323  11.923
48807W        W20390  19.778  43.855   3.187
48808W        W20391  25.578   1.357   2.911
48809W        W20392  22.703  42.932  12.925
48810W        W20393  20.982  22.489  14.403
48811W        W20394  28.621  34.551   0.967
48812W        W20395  32.057  38.592  10.690
48813W        W20396  39.028  28.537  12.055
48814W        W20397  39.107   7.359   3.759
48815W        W20398  25.034  28.980  11.064
48816W        W20399  30.477   6.244   2.330
48817W        W20400  22.286  25.180   0.477
48818W        W20401  39.407   2.442   2.168
48819W        W20402  31.440  21.058   4.045
48820W        W20403  32.688   3.633   1.891
48821W        W20404  35.720  13.696   3.322
48822W        W20405  21.041   9.844   9.950
48823W        W20406  23.580   2.471   4.559
48824W        W20407   2.028  32.666  12.374
48825W        W20408  29.736  30.097  14.390
48826W        W20409  43.530  23.494  14.842
48827W        W20410  15.973  38.339   2.566
48828W        W20411   7.741   0.456   1.108
48829W        W20412  32.722  37.016  11.132
48830W        W20413  20.108  21.684   3.372
48831W        W20414  12.261  11.351   0.533
48832W        W20415  29.930   8.651   4.300
48833W        W20416  29.627   8.138   4.887
48834W        W20417  15.909  42.787   4.478
48835W        W20418   5.786  20.991  10.875
48836W        W20419  10.743  36.799   4.224
48837W        W20420  40.940  23.474  14.554
48838W        W20421  19.242  39.117   3.144
48839W        W20422  34.494  20.168   4.588
48840W        W20423  23.578  20.498   2.357
48841W        W20424   6.840  39.030  14.875
48842W        W20425  22.427   5.017   5.129
48843W        W20426  23.044  16.005  12.931
48844W        W20427  40.304  32.002   0.018
48845W        W20428  29.878  16.023   2.360
48846W        W20429  29.909  16.576  14.841
48847W        W20430  44.503  25.562   4.596
48848W        W20431   5.794   2.349   2.068
48849W        W20432   0.669   4.501  11.922
48850W        W20433  40.459  23.978  11.654
48851W        W20434  18.789   6.900   3.402
48852W        W20435  22.620  28.409  10.888
48853W        W20436   7.971  37.151   3.558
48854W        W20437  28.432  16.166   2.072
48855W        W20438  17.696  18.489   3.078
48856W        W20439   1.022  13.568   0.911
48857W        W20440  20.346  14.226   1.365
48858W        W20441  43.382  42.293   4.523
48859W        W20442  16.109   8.714   3.696
48860W        W20443   0.951  35.561  10.656
48861W        W20444  33.731   6.502  11.621
48862W        W20445  31.307  13.131   4.071
48863W        W20446  37.077  42.998   2.104
48864W        W20447  14.625  32.412   4.116
48865W        W20448  20.153  28.952   3.290
48866W        W20449  26.752  24.150   1.764
48867W        W20450  30.356   6.285   1.455
48868W        W20451  30.338   9.444   0.679
48869W        W20452  31.524   3.441  11.744
48870W        W20453  38.680  26.101  11.117
48871W        W20454  22.157   3.271   4.663
48872W        W20455   4.246  33.632   2.363
48873W        W20456  42.743  16.752   2.366
48874W        W20457  35.392  19.633   4.528
48875W        W20458  27.060   0.063   3.231
48876W        W20459  33.091  25.611   3.909
48877W        W20460  37.834  11.142  14.369
48878W        W20461  23.281   2.812  12.436
48879W        W20462  13.141  30.579   3.110
48880W        W20463  38.893   6.145   0.521
48881W        W20464  24.999  18.452  11.576
48882W        W20465  25.564  14.319   5.253
48883W        W20466  30.044   0.409   3.841
48884W        W20467  38.679  42.548   4.122
48885W        W20468  14.798   1.752  13.297
48886W        W20469  15.580   1.787   1.409
48887W        W20470   9.354  44.443  12.482
48888W        W20471  22.536  19.737  11.653
48889W        W20472   3.429   8.276  11.614
48890W        W20473  33.604  10.595  14.405
48891W        W20474  16.216  31.781   4.777
48892W        W20475  24.768  31.734  11.072
48893W        W20476  11.746  14.349   5.112
48894W        W20477  40.037  40.206   2.966
48895W        W20478  38.909  28.954  12.843
48896W        W20479  31.544  42.014   1.693
48897W        W20480  30.579  23.289  10.101
48898W        W20481  40.561   9.261   3.756
48899W        W20482   6.244  10.579   0.635
48900W        W20483   2.860   9.352  11.555
48901W        W20484  41.051  39.458   0.812
48902W        W20485   9.578  31.425  14.114
48903W        W20486  34.074   9.877  11.621
48904W        W20487  26.015   4.799  10.890
48905W        W20488  39.143   8.428  14.328
48906W        W20489  26.867   2.044   4.108
48907W        W20490  20.507  34.633  11.143
48908W        W20491   0.994   2.754   0.495
48909W        W20492  18.343  19.082  14.345
48910W        W20493   4.801  37.067  12.176
48911W        W20494  36.442  23.217   0.495
48912W        W20495   9.408   8.859  12.119
48913W        W20496  25.873  16.557  13.483
48914W        W20497  32.464   2.335  10.506
48915W        W20498   7.713  21.057  10.500
48916W        W20499   7.232  38.733  13.048
48917W        W20500  42.784  42.508  14.434
48918W        W20501  16.188  22.098  13.042
48919W        W20502  44.195  23.070   1.510
48920W        W20503   3.063  40.922  12.002
48921W        W20504  22.103   4.790  12.814
48922W        W20505  28.429  19.583  12.919
48923W        W20506  22.109  33.883  13.607
48924W        W20507  21.045  35.519  14.070
48925W        W20508   1.985  40.441   2.193
48926W        W20509  17.983  25.196  13.244
48927W        W20510  11.581  23.560   4.713
48928W        W20511  25.941  23.497  14.528
48929W        W20512  14.302   5.724  12.958
48930W        W20513  17.073  12.710  12.700
48931W        W20514   0.924  13.220  11.475
48932W        W20515  21.044  19.669   4.082
48933W        W20516  17.205  23.737  10.589
48934W        W20517  42.913  44.256   1.620
48935W        W20518  21.626   0.996   4.160
48936W        W20519   4.348  34.010   1.581
48937W        W20520  17.233  34.384  12.761
48938W        W20521   4.917  33.854   2.793
48939W        W20522  18.751  30.435  10.034
48940W        W20523   1.348  10.790  11.903
48941W        W20524   5.598  34.437   1.791
48942W        W20525  41.520  35.681   0.402
48943W        W20526  13.723  30.023   1.904
48944W        W20527  25.059  10.882   0.590
48945W        W20528  21.609  27.070   0.422
48946W        W20529  10.865  17.273  11.605
48947W        W20530  25.641   1.943  12.543
48948W        W20531  16.148  40.226  11.566
48949W        W20532  13.651  14.732   4.813
48950W        W20533  14.213  43.545   4.584
48951W        W20534   0.318   9.173   3.035
48952W        W20535  35.537  14.597   2.632
48953W        W20536  33.161  22.590  14.003
48954W        W20537  40.491  10.796   0.379
48955W        W20538  24.928  10.556   1.440
48956W        W20539  36.672   8.963   1.013
48957W        W20540  31.393  14.612   3.064
48958W        W20541  34.076   5.984   0.916
48959W        W20542   3.668  15.140  13.564
48960W        W20543  33.625  21.852  12.114
48961W        W20544  24.557  40.486  14.890
48962W        W20545  36.772   9.932   1.649
48963W        W20546  34.993  29.850  11.122
48964W        W20547   4.151  36.997  14.431
48965W        W20548  28.179   2.999  12.722
48966W        W20549  22.917  39.874   1.695
48967W        W20550  19.861  38.384  11.958
48968W        W20551  41.191  38.176  12.959
48969W        W20552  14.841   5.329   0.650
48970W        W20553  36.943  38.144   0.306
48971W        W20554   4.205  24.431   1.852
48972W        W20555  28.269  36.890   4.640
48973W        W20556  22.193  16.132   4.246
48974W        W20557  27.179  44.986  11.095
48975W        W20558  33.699  25.680   1.668
48976W        W20559   8.748  44.746  10.627
48977W        W20560  34.673  30.661  12.200
48978W        W20561   5.692  17.439   3.601
48979W        W20562  29.509  37.851   4.285
48980W        W20563   9.770  30.280   4.599
48981W        W20564  32.788  14.072   3.197
48982W        W20565  39.965  32.327  10.573
48983W        W20566  24.950  34.441   2.424
48984W        W20567  20.184  32.024  11.349
48985W        W20568  26.545  36.109  13.340
48986W        W20569  42.373  26.683  10.255
48987W        W20570   0.535   7.976  10.749
48988W        W20571   1.941  24.330  11.927
48989W        W20572  42.800  35.342   4.917
48990W        W20573  11.367  28.122   2.340
48991W        W20574  21.089   8.228  11.894
48992W        W20575  39.512  41.929  11.160
48993W        W20576  13.180  10.100   1.871
48994W        W20577  10.947  41.171  11.539
48995W        W20578   1.415   6.912   1.829
48996W        W20579  24.532  11.384   4.874
48997W        W20580  12.853  20.734   4.794
48998W        W20581   2.367  12.718  13.147
48999W        W20582  29.091  11.654   3.124
49000W        W20583  33.819   9.255  10.477
49001W        W20584  33.203  14.769   3.729
49002W        W20585  15.738  32.425   1.850
49003W        W20586  15.624   6.459  13.053
49004W        W20587   5.566   5.184  10.725
49005W        W20588   3.046  24.136  13.389
49006W        W20589  15.710  33.610  11.415
49007W        W20590  37.135  20.375   4.091
49008W        W20591  27.807  24.212   1.717
49009W        W20592  10.027   8.386   0.361
49010W        W20593  31.188  32.302  14.939
49011W        W20594  40.948  17.189  11.690
49012W        W20595  40.786   7.076   2.945
49013W        W20596  22.175  25.462   4.640
49014W        W20597  40.485  35.870   1.878
49015W        W20598  10.244  17.172  12.696
49016W        W20599   2.283  37.674  11.032
49017W        W20600  37.634  37.746   0.535
49018W        W20601  26.485   8.310   0.203
49019W        W20602  31.522  11.110  11.918
49020W        W20603  25.990  39.523  10.709
49021W        W20604  14.148  18.034  10.549
49022W        W20605  15.243  11.320   0.885
49023W        W20606   7.182  42.782  10.603
49024W        W20607  34.989  18.817   0.658
49025W        W20608  44.148  33.338   4.532
49026W        W20609  14.191  39.444  14.772
49027W        W20610  36.466  18.852   0.244
49028W        W20611  31.957  37.960   0.347
49029W        W20612  31.612  30.482   2.453
49030W        W20613   5.901  10.092   2.392
49031W        W20614  10.081   1.901   4.284
49032W        W20615  38.326  37.197   1.060
49033W        W20616  43.311  21.215   2.303
49034W        W20617  19.125  15.052  12.944
49035W        W20618  20.618  16.802  10.391
49036W        W20619  29.682  31.688   0.736
49037W        W20620  28.198  38.933  10.401
49038W        W20621  16.864  38.860  13.549
49039W        W20622  27.512  34.996   2.801
49040W        W20623  29.085  35.132  14.027
49041W        W20624  33.320  37.401   4.135
49042W        W20625  42.059  44.421   3.636
49043W        W20626   2.770  16.012   4.743
49044W        W20627  25.472   5.656  11.477
49045W        W20628  30.778  32.621   3.828
49046W        W20629   5.849  41.754  13.662
49047W        W20630   4.827  18.329  14.100
49048W        W20631  20.659  37.443  14.280
49049W        W20632  23.458   8.077   3.273
49050W        W20633  37.903  26.238  13.989
49051W        W20634  27.996   8.303   3.535
49052W        W20635  42.249  37.716  12.462
49053W        W20636  13.598  38.017   4.494
49054W        W20637  30.690  23.226  12.407
49055W        W20638  37.538  11.905  11.460
49056W        W20639  26.608   7.240   1.871
49057W        W20640  30.881  14.304   1.967
49058W        W20641  17.612  16.133  14.774
49059W        W20642  24.737  44.296  11.631
49060W        W20643  23.564   6.334  10.708
49061W        W20644  44.826  24.584  13.854
49062W        W20645  25.459   9.785  13.429
49063W        W20646  20.520  41.304   4.531
49064W        W20647  25.089  29.589  14.959
49065W        W20648  11.690   6.185  13.432
49066W        W20649  12.035  17.179  14.375
49067W        W20650   5.374  43.558   1.397
49068W        W20651  40.750  10.221   9.926
49069W        W20652  14.657  10.430  11.989
49070W        W20653  18.032  11.693  13.471
49071W        W20654   8.743   7.831   0.311
49072W        W20655  22.996  18.337   5.897
49073W        W20656  16.201   6.875   1.850
49074W        W20657  22.505   0.708   0.806
49075W        W20658  29.672  19.188  11.120
49076W        W20659  21.389  39.011   1.201
49077W        W20660  13.710  44.274  13.046
49078W        W20661   2.291   2.464   2.681
49079W        W20662  26.970  18.239   1.394
49080W        W20663  31.519   7.231  12.525
49081W        W20664  42.081   0.512  13.864
49082W        W20665  17.102  17.837  13.872
49083W        W20666  20.818   2.832   1.673
49084W        W20667  25.454  41.859  11.513
49085W        W20668  29.274  19.276  14.695
49086W        W20669  29.075  43.472  13.399
49087W        W20670  39.571  11.422  14.879
49088W        W20671   5.496  37.799   9.626
49089W        W20672  28.521   3.736  10.536
49090W        W20673  29.699  18.738   4.124
49091W        W20674  40.272  15.604  11.427
49092W        W20675  20.470  30.047  14.914
49093W        W20676  16.382  40.421   4.606
49094W        W20677   9.877  24.717   4.639
49095W        W20678  40.898  22.269  11.285
49096W        W20679   6.289  36.962  12.534
49097W        W20680  11.352   5.617   3.591
49098W        W20681  12.389  40.824  14.757
49099W        W20682  24.772   1.824   4.828
49100W        W20683  23.911  38.656  11.716
49101W        W20684   5.265  31.676   3.774
49102W        W20685  39.651  40.241  14.016
49103W        W20686  44.075  24.727  14.355
49104W        W20687  30.521  42.068   4.924
49105W        W20688  35.798  44.052   0.299
49106W        W20689  14.345   0.969  13.462
49107W        W20690   1.896  19.706   4.628
49108W        W20691  11.102  11.024  14.106
49109W        W20692   6.225   7.451  13.518
49110W        W20693   7.601  34.722   0.370
49111W        W20694  34.955  43.965  11.456
49112W        W20695  28.506  41.726  12.163
49113W        W20696  10.479   1.894   3.444
49114W        W20697  14.732  29.686  11.410
49115W        W20698  17.724  42.280   0.366
49116W        W20699   4.214  39.483  10.110
49117W        W20700   4.527  38.838  13.325
49118W        W20701   6.938  40.141   4.220
49119W        W20702   8.069  14.346  12.855
49120W        W20703   6.292   2.773  11.498
49121W        W20704   0.964   0.406   3.816
49122W        W20705  24.316   3.341  12.627
49123W        W20706  25.505  41.526   3.229
49124W        W20707  36.120   5.163   4.066
49125W        W20708  21.697   1.194  13.118
49126W        W20709   0.636  22.529  12.341
49127W        W20710  38.535  33.497  10.683
49128W        W20711   5.146   2.281   0.376
49129W        W20712  23.751  37.446   3.642
49130W        W20713  19.167  42.338  11.976
49131W        W20714  16.968   1.287  12.990
49132W        W20715  19.305   7.195   0.847
49133W        W20716  42.333  24.427   3.162
49134W        W20717  31.607   0.499   3.264
49135W        W20718  25.977  24.481   3.260
49136W        W20719  26.944  31.654  11.470
49137W        W20720  18.024  12.833  11.059
49138W        W20721   8.186  32.371   4.593
49139W        W20722   3.517  29.933   3.751
49140W        W20723  24.985  34.971   4.170
49141W        W20724  22.911  15.338  11.135
49142W        W20725  31.362  10.747   3.931
49143W        W20726  13.322  24.773   4.775
49144W        W20727  16.189   6.734  10.617
49145W        W20728  44.114   9.280   2.644
49146W        W20729  21.552   0.966  11.957
49147W        W20730  23.616  43.505   1.719
49148W        W20731  21.384  13.030  13.032
49149W        W20732  18.712  33.548  14.866
49150W        W20733  23.738  33.469   0.854
49151W        W20734   2.301  29.247   3.739
49152W        W20735  41.901   5.417   2.771
49153W        W20736  32.611  22.724  10.821
49154W        W20737   2.259  33.275  10.233
49155W        W20738   0.215  27.288  10.291
49156W        W20739  12.677  39.888  11.848
49157W        W20740  42.343  34.067  13.804
49158W        W20741  30.671  38.438  10.546
49159W        W20742  21.547   7.066  14.782
49160W        W20743  22.628  31.497   3.404
49161W        W20744  15.082  22.986   3.206
49162W        W20745  22.164  42.562   0.796
49163W        W20746  44.821  26.712   1.521
49164W        W20747  21.650  22.721  12.107
49165W        W20748  30.064   9.676   1.348
49166W        W20749   2.968  33.905  11.620
49167W        W20750  28.546  37.763   4.774
49168W        W20751  16.771  26.530   1.118
49169W        W20752  30.204  44.384  11.575
49170W        W20753  33.866  23.456   1.065
49171W        W20754  25.895  10.845   4.467
49172W        W20755  38.843   6.331   1.450
49173W        W20756  14.945  30.900   1.401
49174W        W20757  12.803  15.859   0.888
49175W        W20758  29.742  31.636   3.206
49176W        W20759  29.659  29.006   3.178
49177W        W20760  22.217  21.022   2.657
49178W        W20761  12.354   8.917  10.761
49179W        W20762  25.264  16.440  12.465
49180W        W20763  38.003  25.128   2.199
49181W        W20764  10.349  40.494   4.774
49182W        W20765  13.132  12.720   3.089
49183W        W20766  17.374  40.257  13.876
49184W        W20767  12.654   9.608  11.610
49185W        W20768  22.589  11.743  11.556
49186W        W20769  41.575  18.733  11.572
49187W        W20770  20.164  26.065  11.991
49188W        W20771   8.797  28.680  14.000
49189W        W20772  39.924   8.322  12.267
49190W        W20773   1.281  44.968   2.851
49191W        W20774  28.711  30.081  14.530
49192W        W20775   4.768   7.123  13.813
49193W        W20776  31.621  34.217   0.293
49194W        W20777  34.257   9.845   4.308
49195W        W20778  20.528  25.159   3.788
49196W        W20779  31.079  13.963  10.264
49197W        W20780  34.075  26.234   4.221
49198W        W20781  17.636  25.744   5.255
49199W        W20782   9.441  35.543   0.012
49200W        W20783  12.489  17.114  13.208
49201W        W20784  14.715  27.852   1.313
49202W        W20785  20.980  25.082  13.878
49203W        W20786  23.027   4.468   0.844
49204W        W20787  30.579  14.192  13.907
49205W        W20788  15.698  21.476   4.580
49206W        W20789  24.747  22.936  13.144
49207W        W20790  22.204  40.018   0.365
49208W        W20791   7.668  27.733   2.245
49209W        W20792  29.937  18.189   0.478
49210W        W20793   2.750  43.843   4.949
49211W        W20794  24.464  26.243   4.261
49212W        W20795  26.681  43.260  14.288
49213W        W20796  42.741  10.943  11.627
49214W        W20797  15.579   1.223   2.388
49215W        W20798  44.318  42.556  12.182
49216W        W20799   9.272  19.166   0.243
49217W        W20800  28.488  36.412  14.078
49218W        W20801   4.162  19.850   3.815
49219W        W20802  41.414   6.325   1.919
49220W        W20803  38.820  19.999   4.865
49221W        W20804  32.495  34.543  13.846
49222W        W20805  14.240  30.762   0.501
49223W        W20806  44.587  22.954  11.678
49224W        W20807  18.877  28.206   0.604
49225W        W20808  32.899  21.284  10.327
49226W        W20809   0.435  44.466  13.523
49227W        W20810  32.846  39.622  13.983
49228W        W20811  24.394   8.942   4.582
49229W        W20812  22.539   7.679   1.283
49230W        W20813  18.736  15.567   0.944
49231W        W20814  35.364  33.002  10.736
49232W        W20815  39.743   1.263  13.157
49233W        W20816  20.266  24.707   4.152
49234W        W20817  39.581  18.727  13.972
49235W        W20818   8.318  37.495  10.686
49236W        W20819  31.457  12.316   1.818
49237W        W20820  10.911  29.589  13.875
49238W        W20821  10.755  29.990   4.286
49239W        W20822  12.688  10.222  11.143
49240W        W20823  40.850   0.022  13.884
49241W        W20824  33.488  13.408   3.158
49242W        W20825  20.279   3.324   0.807
49243W        W20826  35.530  25.672   2.378
49244W        W20827  15.061  19.165   1.674
49245W        W20828  39.895   3.753  10.953
49246W        W20829  13.658   8.874  14.999
49247W        W20830  25.312   7.610  14.883
49248W        W20831  31.407  21.720   2.479
49249W        W20832   1.885  14.155   0.852
49250W        W20833  30.723   7.929  13.354
49251W        W20834  10.719   3.877  14.973
49252W        W20835  29.875   2.360   1.691
49253W        W20836  32.028  30.450  14.319
49254W        W20837  23.910  34.917   0.738
49255W        W20838   9.841  39.456  11.384
49256W        W20839  44.577   8.469   2.736
49257W        W20840  25.144  32.704   4.668
49258W        W20841   7.596  19.470  14.907
49259W        W20842  11.946  26.780   3.462
49260W        W20843  38.818  34.948   4.129
49261W        W20844  13.529  20.175   3.450
49262W        W20845  44.083   2.460   4.215
49263W        W20846   2.469  27.155  12.014
49264W        W20847  35.028  33.058  12.967
49265W        W20848  26.570  17.176  12.317
49266W        W20849  11.347  32.329  13.059
49267W        W20850  15.964  21.991   3.683
49268W        W20851  34.739   1.416  11.981
49269W        W20852  10.404  35.110   0.889
49270W        W20853  31.873  32.101   0.958
49271W        W20854  13.755   0.282  11.633
49272W        W20855   6.220  36.482  12.788
49273W        W20856  43.101  17.761   3.848
49274W        W20857  11.446  14.198   2.181
49275W        W20858  39.997   8.631  10.988
49276W        W20859   2.237  34.978   0.501
49277W        W20860  44.980  37.397  12.453
49278W        W20861  31.855  28.525   3.798
49279W        W20862  17.315  34.867   4.208
49280W        W20863  29.944   0.221  12.546
49281W        W20864  17.683  19.249  12.270
49282W        W20865  16.179  40.081   0.219
49283W        W20866   2.490  38.707  11.123
49284W        W20867  33.403  31.858  12.990
49285W        W20868  37.356  43.745  11.652
49286W        W20869   4.455  22.842   2.449
49287W        W20870  24.657  20.825  12.639
49288W        W20871  20.094  31.497   2.622
49289W        W20872  33.556  22.827  11.139
49290W        W20873  11.404   2.159   2.137
49291W        W20874  10.819  15.012   4.663
49292W        W20875  12.854  23.452   2.679
49293W        W20876  14.235  41.967   4.597
49294W        W20877   2.063  15.671   5.173
49295W        W20878  29.227   1.927   2.177
49296W        W20879  42.299  24.051  14.510
49297W        W20880   0.712  16.345   2.764
49298W        W20881  32.424  40.369  13.021
49299W        W20882   7.244   1.770   2.233
49300W        W20883  18.317   6.259   4.790
49301W        W20884  29.121   6.798  11.156
49302W        W20885  23.286  36.672   3.292
49303W        W20886  35.614  23.968   4.089
49304W        W20887  29.086  34.353  14.287
49305W        W20888  41.002  22.385   2.315
49306W        W20889   2.453  29.275  10.624
49307W        W20890  19.600  40.988   2.222
49308W        W20891  26.349   3.775   0.205
49309W        W20892  13.452  42.824   3.607
49310W        W20893  26.765  40.008  11.466
49311W        W20894   1.574  25.544   1.757
49312W        W20895  36.503  17.740   2.922
49313W        W20896  43.912  41.777  12.526
49314W        W20897  22.607  26.436   4.184
49315W        W20898  21.523  38.613   3.909
49316W        W20899  23.538  35.497   0.469
49317W        W20900  22.560   5.423   1.992
49318W        W20901  37.478  19.800  13.869
49319W        W20902  37.036  34.711   3.812
49320W        W20903  31.806  22.927  10.651
49321W        W20904  14.394   3.637   2.292
49322W        W20905   9.940  22.640   2.955
49323W        W20906   8.709  11.684   2.225
49324W        W20907  28.299  29.133  14.635
49325W        W20908  18.308   2.929  13.550
49326W        W20909   8.687   9.183   1.492
49327W        W20910  27.433  40.891   0.995
49328W        W20911  43.932  39.044   0.538
49329W        W20912  25.994  25.456  14.358
49330W        W20913  16.153  41.743  13.037
49331W        W20914   2.479  11.152  14.394
49332W        W20915  33.464  25.072   2.288
49333W        W20916  37.448  13.212  12.516
49334W        W20917  11.471  20.118   3.281
49335W        W20918   2.437  40.721  13.097
49336W        W20919  32.849  13.161  13.944
49337W        W20920  38.839  39.440  14.816
49338W        W20921  16.559  16.117   4.762
49339W        W20922  40.420  38.426   1.831
49340W        W20923   7.721  27.807   5.069
49341W        W20924  11.856  36.002  14.283
49342W        W20925  32.176  40.552  14.450
49343W        W20926  18.656  42.789  12.592
49344W        W20927  39.418  43.221  14.244
49345W        W20928  16.662  29.972  12.783
49346W        W20929   0.740   7.380   1.274
49347W        W20930  38.459  28.297  14.978
49348W        W20931  36.465  28.261   2.818
49349W        W20932  27.878  29.436  10.564
49350W        W20933  14.269  27.435  11.306
49351W        W20934  16.091  21.521  14.065
49352W        W20935  12.571  21.184   2.936
49353W        W20936  20.683  10.882  14.826
49354W        W20937  17.146  36.970   2.743
49355W        W20938   8.848  17.056   1.449
49356W        W20939  23.964   1.591  14.824
49357W        W20940  26.384  18.422   2.792
49358W        W20941  43.863   7.144  11.916
49359W        W20942  20.683  10.304   4.762
49360W        W20943  24.051  15.539  14.750
49361W        W20944   7.328  17.558   0.316
49362W        W20945  12.339   2.141   1.244
49363W        W20946  29.816   8.857  10.655
49364W        W20947  31.957  44.055   4.918
49365W        W20948  11.687  18.425   3.657
49366W        W20949  34.629  21.734  13.077
49367W        W20950  38.687  43.883   2.230
49368W        W20951  15.298  14.831  14.824
49369W        W20952   7.888  40.567   0.216
49370W        W20953  44.970  18.812  11.990
49371W        W20954  31.951   2.505  12.104
49372W        W20955  44.223  37.824  11.132
49373W        W20956  26.684  13.835  12.364
49374W        W20957  14.192   1.838   1.049
49375W        W20958  21.587  31.668  13.470
49376W        W20959  30.467   7.264   1.363
49377W        W20960  33.472   2.026   3.319
49378W        W20961  20.760  24.297   2.226
49379W        W20962  28.348  35.392  12.589
49380W        W20963  15.917  35.995   2.865
49381W        W20964  44.872  12.976  12.156
49382W        W20965  36.041  29.066   2.435
49383W        W20966  34.630  30.477  12.685
49384W        W20967  15.910  39.589   4.668
49385W        W20968  17.786  40.816   2.238
49386W        W20969   7.837  34.521   2.687
49387W        W20970  41.988  35.351   2.304
49388W        W20971  25.170  12.625   1.811
49389W        W20972  22.218  35.577   2.958
49390W        W20973   5.265  18.145   2.332
49391W        W20974   7.343  41.502  14.582
49392W        W20975  11.283  34.473  12.518
49393W        W20976  34.502  34.470  11.902
49394W        W20977  21.340   6.480   4.754
49395W        W20978   9.805  10.894   1.043
49396W        W20979  18.368   1.803   4.733
49397W        W20980  32.320  31.204  14.589
49398W        W20981  29.151  31.006  12.465
49399W        W20982  44.845  43.775   1.939
49400W        W20983  39.266  10.179  10.653
49401W        W20984   7.841  17.677   0.193
49402W        W20985  42.512  44.023  13.853
49403W        W20986  41.447  38.472   1.637
49404W        W20987  36.910  23.606  11.535
49405W        W20988   4.472  18.994  12.561
49406W        W20989  26.135  18.089  14.967
49407W        W20990  21.734   1.333  12.636
49408W        W20991   9.143  19.595  14.472
49409W        W20992  16.134  37.123  12.825
49410W        W20993  27.174  31.826  12.503
49411W        W20994   5.447  31.582  10.976
49412W        W20995  33.041  32.474   1.247
49413W        W20996   1.941  25.450  13.941
49414W        W20997  17.333  36.157  12.533
49415W        W20998  41.339  34.827   1.257
49416W        W20999  37.085  39.232  12.873
49417W        W21000  24.697  11.896   2.529
49418W        W21001  42.075  14.617   3.433
49419W        W21002  41.332  39.322  12.752
49420W        W21003   0.028   8.897   3.690
49421W        W21004  26.632  30.744  14.013
49422W        W21005  38.832  24.918   0.212
49423W        W21006  44.899  18.024   3.446
49424W        W21007  16.262   3.936   3.756
49425W        W21008   9.792  42.453   2.695
49426W        W21009  22.294  39.879   1.376
49427W        W21010   5.607  16.942  12.290
49428W        W21011  39.491  18.516   4.000
49429W        W21012  29.454  16.804  13.028
49430W        W21013   6.149  32.147  10.586
49431W        W21014  14.950  26.537  11.907
49432W        W21015   8.958  21.521  11.971
49433W        W21016  24.838  19.277  11.636
49434W        W21017  25.585  21.478   2.874
49435W        W21018  43.008  30.091   4.160
49436W        W21019  19.261  25.505  14.617
49437W        W21020  41.602   0.349  13.793
49438W        W21021   2.477   1.321  10.778
49439W        W21022  27.424   5.874   4.481
49440W        W21023  15.608   3.192  10.885
49441W        W21024   4.958  25.510   0.512
49442W        W21025  42.095  42.544  12.046
49443W        W21026  10.832  32.195   4.804
49444W        W21027  42.443  20.297   2.846
49445W        W21028  11.844  37.978   3.231
49446W        W21029  13.138  20.150   2.670
49447W        W21030  28.141  24.236  13.093
49448W        W21031  41.736  34.385   1.327
49449W        W21032  13.234  37.855   4.212
49450W        W21033  32.948  13.774  10.656
49451W        W21034  38.089  24.216   1.697
49452W        W21035  16.129  10.248   2.215
49453W        W21036   9.394  42.084   0.884
49454W        W21037  17.759  14.220   2.317
49455W        W21038  11.705  13.770   2.383
49456W        W21039  20.725  17.764  14.413
49457W        W21040  16.306  12.301   2.681
49458W        W21041   8.984  24.752  11.553
49459W        W21042  28.038  42.508  10.238
49460W        W21043   0.393  31.141  12.051
49461W        W21044  31.861  21.682   1.339
49462W        W21045  42.499  20.738  11.098
49463W        W21046  12.188   5.782  11.625
49464W        W21047  25.608  14.288   1.828
49465W        W21048  25.940   7.404  10.554
49466W        W21049  11.950  24.246  12.272
49467W        W21050  40.548  34.036  12.396
49468W        W21051   1.928  30.382   0.462
49469W        W21052   9.309  23.767   2.735
49470W        W21053  41.446  20.513   1.701
49471W        W21054  34.548  39.442   2.871
49472W        W21055   2.166  33.737  13.937
49473W        W21056   9.046  40.110  12.011
49474W        W21057   3.501   2.631   3.212
49475W        W21058  39.206  44.053   2.176
49476W        W21059  40.248   3.890  13.942
49477W        W21060  24.465  29.047  14.427
49478W        W21061  38.883  27.196  13.415
49479W        W21062  27.932   0.130  13.487
49480W        W21063  37.911  26.598  14.794
49481W        W21064  38.259  39.101  14.009
49482W        W21065  31.174  14.044  11.071
49483W        W21066  32.147  28.827   4.115
49484W        W21067  39.826  19.112  11.595
49485W        W21068  35.878  14.382  14.334
49486W        W21069  36.002  20.533  14.895
49487W        W21070  23.237  20.635  10.831
49488W        W21071  44.389   9.903   2.921
49489W        W21072   6.627  20.421  13.373
49490W        W21073   7.146  18.620  14.872
49491W        W21074   0.378  35.971   2.640
49492W        W21075  33.794   6.638  10.925
49493W        W21076  23.207  35.128  13.012
49494W        W21077  29.347  41.117   1.842
49495W        W21078  24.647   1.843   1.857
49496W        W21079  18.800  15.817   1.398
49497W        W21080   2.782   8.529  13.879
49498W        W21081   9.267   3.136  11.632
49499W        W21082  30.631  40.352   3.126
49500W        W21083  30.879  39.418  13.586
49501W        W21084  41.528  42.225   2.281
49502W        W21085   2.114  27.076  10.633
49503W        W21086  36.085  13.597   2.174
49504W        W21087  39.100  41.782   0.951
49505W        W21088   9.796  10.404  14.199
49506W        W21089   3.593  31.323   1.434
49507W        W21090  32.611  15.650  10.727
49508W        W21091  38.543   7.637  11.159
49509W        W21092  18.751  35.914  14.472
49510W        W21093  38.323  31.597   4.614
49511W        W21094  19.255  41.792  13.342
49512W        W21095  36.391  19.430   4.553
49513W        W21096  29.533   9.606   2.935
49514W        W21097  13.578  12.650   0.333
49515W        W21098  27.457   6.790  10.514
49516W        W21099   7.263   9.905   2.792
49517W        W21100  38.292  22.669  12.878
49518W        W21101   6.858   5.242  10.782
49519W        W21102  23.564  17.645   4.628
49520W        W21103  29.103   2.175  12.112
49521W        W21104  28.151  12.375  10.353
49522W        W21105  30.628  44.669   3.679
49523W        W21106   3.817  30.033   1.036
49524W        W21107  10.759  13.052  14.494
49525W        W21108   6.468   0.416   0.465
49526W        W21109  20.010  36.038  13.409
49527W        W21110   4.750   4.792  12.613
49528W        W21111  27.423   7.920  13.846
49529W        W21112  42.827  15.747   1.015
49530W        W21113  13.113   3.789   3.206
49531W        W21114  20.755  44.757   3.741
49532W        W21115  40.812  13.275   4.214
49533W        W21116  25.143   9.929   0.652
49534W        W21117  10.227  15.881  11.087
49535W        W21118  15.304  38.442  10.629
49536W        W21119   4.209  25.615   1.850
49537W        W21120  23.027  28.467  12.062
49538W        W21121   2.718   4.241  11.995
49539W        W21122  40.735  34.038   2.550
49540W        W21123   7.978  28.800  12.471
49541W        W21124  22.270  31.630   1.360
49542W        W21125  35.501  16.564   0.699
49543W        W21126  41.459   7.665  10.610
49544W        W21127  37.001  11.052  12.877
49545W        W21128   0.502   5.180   3.612
49546W        W21129   3.465  21.410   1.328
49547W        W21130  13.089   8.369  13.273
49548W        W21131   7.733   9.058   2.712
49549W        W21132  12.879  35.507   3.305
49550W        W21133  20.503  35.872  13.378
49551W        W21134  25.999  14.176   4.429
49552W        W21135   4.342  42.566   3.160
49553W        W21136  27.212  35.081   3.235
49554W        W21137  19.966   7.373   5.156
49555W        W21138  12.176  25.060  14.034
49556W        W21139  37.783  29.941   1.394
49557W        W21140   7.682  18.320  13.427
49558W        W21141  22.165   2.345   2.728
49559W        W21142  11.075  42.860  10.822
49560W        W21143  25.971  14.530   3.594
49561W        W21144   4.248   6.874   3.875
49562W        W21145  18.584  39.345  11.622
49563W        W21146  29.730  32.346  10.273
49564W        W21147  20.656  24.751  14.643
49565W        W21148   1.286   9.658   1.329
49566W        W21149  17.115  32.800   2.235
49567W        W21150  31.633  31.022  13.538
49568W        W21151   0.954  30.602   3.207
49569W        W21152  25.095  42.192   4.234
49570W        W21153   8.157   3.352   0.687
49571W        W21154  20.776  44.513  12.037
49572W        W21155   8.551  29.029  10.945
49573W        W21156   5.263   1.836  11.214
49574W        W21157  30.220  43.323  12.690
49575W        W21158  36.285  33.238   3.131
49576W        W21159  34.047  33.820  14.802
49577W        W21160  30.056  20.634  11.892
49578W        W21161  27.176  40.930  14.656
49579W        W21162  32.889  27.848  11.456
49580W        W21163   2.388  31.998  13.877
49581W        W21164  34.993  26.748   2.874
49582W        W21165  22.066  18.159  14.904
49583W        W21166  37.106   5.294  12.907
49584W        W21167  37.424   0.901   3.394
49585W        W21168  36.818  24.235   3.844
49586W        W21169  37.735   8.685   3.204
49587W        W21170  21.578  35.054  13.553
49588W        W21171  25.556   5.669  11.997
49589W        W21172  18.405  20.621  14.243
49590W        W21173  31.449  11.447   0.427
49591W        W21174   1.273   2.562  12.004
49592W        W21175  35.319  20.203   0.910
49593W        W21176   9.008  17.318   0.084
49594W        W21177  41.514  21.126   4.501
49595W        W21178  39.059  24.483  14.400
49596W        W21179  43.812  25.152  12.447
49597W        W21180  15.721  15.868   3.521
49598W        W21181  38.431  25.956  11.558
49599W        W21182  43.381  13.417  12.515
49600W        W21183   2.784  15.121   5.036
49601W        W21184  21.588  15.828   0.299
49602W        W21185  22.981  36.904   1.253
49603W        W21186  42.438  14.821   4.368
49604W        W21187  37.398  31.405   3.623
49605W        W21188   3.359   6.409   3.768
49606W        W21189  42.582  31.463   2.277
49607W        W21190  33.548  38.242   4.605
49608W        W21191   0.122  12.238   3.201
49609W        W21192  19.784   1.830  10.680
49610W        W21193  32.192   5.754  13.697
49611W        W21194  41.470  15.102  12.542
49612W        W21195  38.047   1.687   1.940
49613W        W21196  17.077  30.469   5.006
49614W        W21197  35.433  41.290   1.396
49615W        W21198  44.825   3.842   4.782
49616W        W21199  16.912  17.270   0.370
49617W        W21200  11.739   8.839  14.847
49618W        W21201  38.317  44.529   2.218
49619W        W21202  17.993  32.469   2.358
49620W        W21203   2.798  13.855  14.644
49621W        W21204  30.805  12.283  10.856
49622W        W21205  30.490   7.180   0.057
49623W        W21206  10.749  13.208   4.570
49624W        W21207  10.684  38.975   3.280
49625W        W21208   8.678  43.746  11.521
49626W        W21209   8.080  35.001  12.337
49627W        W21210  26.584  28.600  13.492
49628W        W21211  40.453  11.290   0.701
49629W        W21212   1.620  44.346   2.409
49630W        W21213   3.281  30.363  10.795
49631W        W21214  25.883  37.834   2.209
49632W        W21215  42.883  26.554  10.398
49633W        W21216   3.480   7.758  10.733
49634W        W21217  40.823   6.126  11.641
49635W        W21218  15.656  41.960   0.705
49636W        W21219   0.375  22.481  14.370
49637W        W21220  37.081  43.923   0.488
49638W        W21221  40.584  26.471   0.796
49639W        W21222  35.423  43.222  12.023
49640W        W21223  39.795  14.291  14.965
49641W        W21224  38.125  44.793  13.438
49642W        W21225  28.967  21.466  13.402
49643W        W21226  24.582   8.439   0.634
49644W        W21227  41.533  43.490  10.726
49645W        W21228  29.449  30.619  13.412
49646W        W21229  16.201   9.597   1.454
49647W        W21230  13.289  38.009  14.819
49648W        W21231  10.715  19.838   3.747
49649W        W21232  32.867   3.746  11.165
49650W        W21233  44.647   4.497   0.803
49651W        W21234   8.803  27.184   2.745
49652W        W21235  37.131  43.990  14.529
49653W        W21236  34.577  44.226  12.023
49654W        W21237  27.810  28.999   0.745
49655W        W21238  17.116   0.070   4.994
49656W        W21239  38.063  36.648  11.105
49657W        W21240  17.369  12.464   5.035
49658W        W21241  40.025  24.554   4.910
49659W        W21242  23.600  28.988   1.274
49660W        W21243  12.689  41.851  14.479
49661W        W21244  27.025  10.695   3.193
49662W        W21245  20.840  18.668  14.769
49663W        W21246  30.047  34.597  12.270
49664W        W21247   8.277  31.039   1.939
49665W        W21248  23.528  10.424   1.838
49666W        W21249  13.315   1.869  13.509
49667W        W21250  30.539  17.617   0.826
49668W        W21251  24.404  38.997   5.215
49669W        W21252  31.140  33.677   0.462
49670W        W21253  20.158   8.433  10.255
49671W        W21254  30.209  30.894   4.114
49672W        W21255  41.876  37.515   3.349
49673W        W21256  19.710  27.080  14.733
49674W        W21257  29.673  43.926  12.982
49675W        W21258   3.391   7.108   4.393
49676W        W21259  37.719  34.429  13.391
49677W        W21260  39.223  33.721  12.848
49678W        W21261  37.988  38.054   0.374
49679W        W21262   9.325   9.901   3.246
49680W        W21263  24.019  30.424   2.830
49681W        W21264  20.223  29.938   3.042
49682W        W21265   4.784  16.511  10.837
49683W        W21266  38.973  10.186  10.127
49684W        W21267   7.178  21.304   2.400
49685W        W21268  17.335  18.622  11.909
49686W        W21269   3.214  34.536   4.613
49687W        W21270  25.630   8.286   4.741
49688W        W21271  26.678   5.741   3.410
49689W        W21272  19.504  39.383   0.482
49690W        W21273  20.861  33.217   0.929
49691W        W21274  27.778   4.210   1.367
49692W        W21275   4.716   9.256   0.918
49693W        W21276  32.060  20.794  11.158
49694W        W21277  13.172   9.096   3.739
49695W        W21278  16.630  17.364  12.482
49696W        W21279   1.532  22.928  12.677
49697W        W21280  26.497  12.326  11.731
49698W        W21281   3.708  38.476   1.728
49699W        W21282  18.106  39.030  12.169
49700W        W21283  25.551  28.157  10.771
49701W        W21284  31.647  22.756  11.148
49702W        W21285  15.862  44.847   2.931
49703W        W21286  17.842  36.652   3.791
49704W        W21287  24.956  39.894  14.743
49705W        W21288   9.147  19.056   1.635
49706W        W21289  26.122  41.318   2.118
49707W        W21290   8.196  38.472   4.345
49708W        W21291  34.693  21.665  12.547
49709W        W21292  25.155  33.111   2.412
49710W        W21293  21.142  39.554   3.240
49711W        W21294  23.644  39.914  14.898
49712W        W21295  23.812   4.787   2.451
49713W        W21296  42.763   6.831   1.799
49714W        W21297  14.198  30.181   0.819
49715W        W21298   8.185  10.394   2.888
49716W        W21299  30.991  14.484   2.454
49717W        W21300  35.499  32.644  14.221
49718W        W21301  16.084   0.865   2.701
49719W        W21302  17.314   2.297  11.791
49720W        W21303  28.087  41.827  11.876
49721W        W21304  27.065  38.381  11.334
49722W        W21305  30.139  42.264   2.639
49723W        W21306  18.845  14.517   1.864
49724W        W21307   7.775  44.004  14.944
49725W        W21308   8.121  12.936  14.447
49726W        W21309  41.368  11.186   2.170
49727W        W21310   7.243   6.276   2.164
49728W        W21311  12.314  20.771   2.718
49729W        W21312  26.123  43.852   2.829
49730W        W21313  29.542   9.305  12.130
49731W        W21314  17.272  39.754  13.813
49732W        W21315  38.007  30.836   4.600
49733W        W21316  22.093  23.136   1.930
49734W        W21317  14.343  16.196  13.933
49735W        W21318   9.702  23.440   2.837
49736W        W21319  30.222   5.301  14.410
49737W        W21320  19.260   7.309  12.412
49738W        W21321  26.847  25.481   4.984
49739W        W21322  11.760  29.691  13.400
49740W        W21323  16.181  40.173   1.673
49741W        W21324  22.680   9.414  12.710
49742W        W21325  37.668  29.449   1.300
49743W        W21326  20.035  33.446  13.729
49744W        W21327  13.668  29.004   4.121
49745W        W21328  14.689   9.497   2.395
49746W        W21329  33.595  25.120   1.363
49747W        W21330   8.297  16.198  12.318
49748W        W21331  14.097  40.416   3.825
49749W        W21332  20.577  14.164   2.717
49750W        W21333  13.328  17.673   3.259
49751W        W21334   5.295  27.446  12.347
49752W        W21335  43.378  13.366   0.523
49753W        W21336  17.084  15.406   3.774
49754W        W21337  10.757  35.768   4.212
49755W        W21338  11.816  33.411   3.806
49756W        W21339  22.986  34.707   2.325
49757W        W21340  27.669  31.451   1.493
49758W        W21341  23.133  14.621   3.624
49759W        W21342  23.019   6.789  12.064
49760W        W21343  27.551   6.765   4.466
49761W        W21344  22.976  26.025   2.470
49762W        W21345  43.999  18.611  11.114
49763W        W21346   6.119  42.381   4.832
49764W        W21347  13.127  32.273  14.351
49765W        W21348  23.472  38.518   2.589
49766W        W21349  13.251  25.582  13.837
49767W        W21350  23.457   2.339  10.761
49768W        W21351  18.670   0.810  14.992
49769W        W21352  44.512  18.687  13.915
49770W        W21353  10.208  21.495   4.091
49771W        W21354  40.041   4.967   3.713
49772W        W21355   6.904  16.842  11.113
49773W        W21356  27.552   6.598  13.653
49774W        W21357  39.531  43.191  10.689
49775W        W21358  33.674  36.817  10.924
49776W        W21359  16.325  31.482  12.088
49777W        W21360  43.746  15.194   4.056
49778W        W21361  10.415  24.165   1.874
49779W        W21362  40.863   6.192   2.904
49780W        W21363   1.747   2.663  10.789
49781W        W21364  33.591  24.190   2.310
49782W        W21365  25.008   5.747   0.741
49783W        W21366  21.717  20.589  10.668
49784W        W21367   6.196  22.069  12.940
49785W        W21368  35.878  27.248  14.798
49786W        W21369  43.523  26.988   3.174
49787W        W21370  36.094  12.679  14.344
49788W        W21371  20.623  31.912   9.654
49789W        W21372  32.505  20.296  14.193
49790W        W21373  21.079  14.733   3.654
49791W        W21374  14.332  40.398   3.301
49792W        W21375   7.641  39.638   0.611
49793W        W21376   8.977  27.996  13.478
49794W        W21377   3.719  37.475   3.152
49795W        W21378  27.218   9.106  12.437
49796W        W21379  27.615  11.524  10.732
49797W        W21380  42.511   7.059  12.854
49798W        W21381  40.555   5.307   3.290
49799W        W21382  13.200  31.087   1.346
49800W        W21383  35.665  25.071  13.540
49801W        W21384  15.077  37.483  14.373
49802W        W21385  20.430  21.493  12.638
49803W        W21386   7.258  26.976   3.294
49804W        W21387  23.545  44.409   3.284
49805W        W21388   0.570  44.370   1.623
49806W        W21389   5.103  35.884  11.632
49807W        W21390   9.866  16.883  11.943
49808W        W21391  17.060   2.019  14.078
49809W        W21392  41.726   4.945  14.803
49810W        W21393   9.272  23.611   0.244
49811W        W21394  10.868  13.870   3.776
49812W        W21395   7.204  28.566   3.149
49813W        W21396  15.058  33.406   2.666
49814W        W21397  17.581  30.824  11.941
49815W        W21398  17.296  20.830   4.113
49816W        W21399   6.641   5.224  12.072
49817W        W21400  35.289  28.810  10.454
49818W        W21401  14.837  13.103   4.112
49819W        W21402   5.312  22.553   4.040
49820W        W21403   7.763   9.264   4.127
49821W        W21404   4.651  44.338   3.138
49822W        W21405  20.670  19.754   3.739
49823W        W21406  19.726   5.547  12.142
49824W        W21407  10.746  38.820   4.140
49825W        W21408  44.777  41.927   4.118
49826W        W21409  42.280  17.562  13.508
49827W        W21410  12.297   7.820   1.408
49828W        W21411  28.190  21.467   1.387
49829W        W21412  22.159  35.731  11.573
49830W        W21413  35.401   9.632   0.702
49831W        W21414   9.234  27.605   3.414
49832W        W21415  44.532  37.058  11.523
49833W        W21416  28.920  17.823   1.141
49834W        W21417   0.860  13.995   3.224
49835W        W21418  30.119  21.148   1.861
49836W        W21419  38.404  11.183   0.593
49837W        W21420  22.303  33.065   4.151
49838W        W21421  15.501   9.151   5.019
49839W        W21422   7.871  34.028   2.902
49840W        W21423  44.707  16.347  14.817
49841W        W21424   0.703  33.392   0.395
49842W        W21425  18.524  20.299  11.936
49843W        W21426  13.602  21.602  12.815
49844W        W21427  37.393  25.700  12.150
49845W        W21428  25.765  21.553  12.961
49846W        W21429   6.378  13.292   1.414
49847W        W21430  29.469  24.943  13.510
49848W        W21431  24.305  26.096  10.703
49849W        W21432  19.852  16.183   4.222
49850W        W21433  34.982  32.614   3.563
49851W        W21434  33.048  16.293   3.907
49852W        W21435  43.597  12.730  12.877
49853W        W21436  25.250  43.371   4.908
49854W        W21437  38.114  29.127  11.825
49855W        W21438  22.615  43.329   1.687
49856W        W21439  11.740  29.153  13.368
49857W        W21440  14.234  10.150  11.120
49858W        W21441  25.992  12.765  12.529
49859W        W21442  32.391  27.147  12.756
49860W        W21443  40.383  29.556  14.856
49861W        W21444  15.390  27.351   0.495
49862W        W21445  24.717  42.951   4.179
49863W        W21446  12.782  13.233   2.156
49864W        W21447   4.091   7.737  11.737
49865W        W21448  28.322  27.652   1.612
49866W        W21449  27.878  30.549  11.484
49867W        W21450  40.863  22.148   3.708
49868W        W21451  21.049  19.781   5.389
49869W        W21452  26.878  27.165   4.090
49870W        W21453  31.354  11.618   1.367
49871W        W21454  20.582   1.082   3.332
49872W        W21455  32.308  10.791  13.766
49873W        W21456   6.172  27.663  11.867
49874W        W21457  21.760   5.294   3.139
49875W        W21458   4.642  17.670  14.879
49876W        W21459  19.574  29.622   2.307
49877W        W21460   0.555   5.727  11.466
49878W        W21461  18.225  17.061   2.263
49879W        W21462   1.463   1.425   2.861
49880W        W21463  41.226   0.782   0.441
49881W        W21464  38.105  24.641   1.400
49882W        W21465   8.027  15.305   1.076
49883W        W21466  19.765  29.418  14.849
49884W        W21467  14.906   4.140   3.270
49885W        W21468  13.864   9.578   1.452
49886W        W21469   2.252  34.494   3.407
49887W        W21470  39.358  34.536  14.411
49888W        W21471  32.102  14.725  12.599
49889W        W21472  31.284  14.615  14.836
49890W        W21473  44.253  40.977  11.397
49891W        W21474  29.150  33.127  13.744
49892W        W21475  14.456   5.859   2.684
49893W        W21476   5.107   8.926   2.305
49894W        W21477  24.054  38.342  14.924
49895W        W21478  20.630  23.787   3.638
49896W        W21479  24.941  28.217  12.655
49897W        W21480  44.478  38.237   3.179
49898W        W21481  22.414  24.146   3.586
49899W        W21482  21.985  31.633   0.912
49900W        W21483  16.401  22.653  11.208
49901W        W21484   0.146   3.073  13.586
49902W        W21485  16.963   5.838   0.224
49903W        W21486   9.447  33.503  14.414
49904W        W21487  16.173  20.225  13.289
49905W        W21488  35.196  24.269   4.017
49906W        W21489  39.118  38.555   4.351
49907W        W21490  17.271  15.966   2.225
49908W        W21491  31.141  30.127   4.374
49909W        W21492  22.435  30.458   4.728
49910W        W21493  29.141  12.791   4.218
49911W        W21494  35.052   8.259   2.628
49912W        W21495  42.701  19.321  13.445
49913W        W21496  26.164   7.100   1.593
49914W        W21497   0.066   7.958  12.831
49915W        W21498  29.168  24.626   3.185
49916W        W21499  31.705   9.146   0.347
49917W        W21500  16.049  19.240   4.708
49918W        W21501  39.469   3.388   0.178
49919W        W21502  13.099  23.471  13.408
49920W        W21503  24.968  41.433   4.575
49921W        W21504  29.401  22.512   1.547
49922W        W21505  22.177  13.895   3.562
49923W        W21506  18.949  21.091   0.309
49924W        W21507  17.531  12.639  12.262
49925W        W21508  32.395  18.732  14.370
49926W        W21509  33.415  30.086   2.684
49927W        W21510   3.221  20.091  12.565
49928W        W21511  32.058  29.359  14.237
49929W        W21512  21.148  11.206   4.160
49930W        W21513  13.172  31.043   4.761
49931W        W21514  15.176  18.683   4.479
49932W        W21515  25.084  23.811  10.498
49933W        W21516   9.674  35.642  12.488
49934W        W21517   5.781  24.152   2.370
49935W        W21518  33.183   9.164   4.622
49936W        W21519  18.934   6.367  12.849
49937W        W21520  10.834  28.642  13.412
49938W        W21521  27.585  44.297  12.755
49939W        W21522  16.346  32.158   4.432
49940W        W21523  10.301   4.229  11.524
49941W        W21524  25.158  15.644   0.994
49942W        W21525  23.227  37.188   3.231
49943W        W21526   9.564   1.354   0.526
49944W        W21527  11.474  42.617  13.373
49945W        W21528   9.143  26.445  10.220
49946W        W21529  38.507  32.066   4.775
49947W        W21530  33.929  31.928   1.692
49948W        W21531   5.400   6.669  13.370
49949W        W21532  12.237  14.213   3.647
49950W        W21533  34.063  28.713   0.858
49951W        W21534  14.266  10.821   1.255
49952W        W21535  37.399  13.069   4.225
49953W        W21536  41.398  11.406   1.693
49954W        W21537  33.062  17.042   2.597
49955W        W21538   4.018  31.545   1.150
49956W        W21539  16.569  23.966  13.206
49957W        W21540  41.695  28.454   1.338
49958W        W21541  19.918  17.557   2.807
49959W        W21542  34.733  33.505  10.288
49960W        W21543   1.481   5.689   0.971
49961W        W21544  43.251  38.507  11.821
49962W        W21545  20.156  29.449  12.498
49963W        W21546  23.203  41.815   1.291
49964W        W21547  30.087  26.160  12.470
49965W        W21548   8.779  11.220  11.411
49966W        W21549  26.928   2.241   2.717
49967W        W21550  29.891   6.975  14.558
49968W        W21551   4.974  15.514   4.107
49969W        W21552  14.575  42.325  11.668
49970W        W21553  39.488  18.169  10.790
49971W        W21554   5.031  42.818  12.663
49972W        W21555  31.895   3.914   1.406
49973W        W21556  37.938  25.163  12.201
49974W        W21557  35.423   9.204   4.228
49975W        W21558  10.160  20.662  12.081
49976W        W21559   2.243  18.791  11.493
49977W        W21560   6.712  25.622  11.591
49978W        W21561  28.048   1.436  13.687
49979W        W21562  34.644  37.976   1.557
49980W        W21563  30.998  36.960   1.459
49981W        W21564  18.644  40.537  14.888
49982W        W21565   9.110  40.790   1.397
49983W        W21566  41.309  39.287  13.348
49984W        W21567  18.315  17.308   3.160
49985W        W21568  33.797  41.691   1.447
49986W        W21569  29.498  16.190   0.381
49987W        W21570  25.134  33.697   3.674
49988W        W21571  32.961   3.922  11.649
49989W        W21572  38.828   2.475  11.334
49990W        W21573  22.781  41.371   2.945
49991W        W21574  26.124  20.735   2.831
49992W        W21575  38.864   8.765   3.202
49993W        W21576  13.695  20.247   1.405
49994W        W21577   9.038  25.325   2.752
49995W        W21578  11.354  23.107   4.573
49996W        W21579  30.201  35.775  14.534
49997W        W21580  21.448  43.959  12.249
49998W        W21581  16.551  23.696   4.345
49999W        W21582  15.673   1.764  13.323
50000W        W21583  35.010  35.653   3.639
50001W        W21584  18.240   1.219   3.665
50002W        W21585   2.609   9.269  13.202
50003W        W21586  30.497  26.347   2.720
50004W        W21587  10.236   8.906   4.820
50005W        W21588  17.748   5.395   1.110
50006W        W21589  31.770  28.954   1.320
50007W        W21590  30.650  41.847  14.530
50008W        W21591  44.935  26.545  14.959
50009W        W21592  27.577  41.033  13.038
50010W        W21593  37.021  41.985   0.237
50011W        W21594  11.225  41.443   0.780
50012W        W21595  41.273  13.331   0.735
50013W        W21596   6.274  35.333   0.257
50014W        W21597  23.933   0.467  10.714
50015W        W21598  29.373  24.021  11.755
50016W        W21599   2.850  37.100   3.736
50017W        W21600  13.643  44.421  11.109
50018W        W21601   6.358  15.481   1.185
50019W        W21602  33.616  42.986  10.557
50020W        W21603  13.530  34.038  13.018
50021W        W21604  34.370  24.236   0.848
50022W        W21605  22.216  42.168  14.932
50023W        W21606  19.208  11.367  11.132
50024W        W21607  37.805  39.343  12.602
50025W        W21608  31.832   6.814   4.096
50026W        W21609   3.961  10.414  11.469
50027W        W21610  16.231   1.422   1.845
50028W        W21611   3.563  11.276  11.206
50029W        W21612  39.346  27.950  13.463
50030W        W21613  41.260  25.889  13.703
50031W        W21614  12.288  20.723   4.142
50032W        W21615  33.052  30.083  11.850
50033W        W21616  24.999  20.235   4.500
50034W        W21617  29.403  38.201  12.964
50035W        W21618   3.214  29.087  13.482
50036W        W21619  16.088  35.831   3.732
50037W        W21620   1.856  36.134  13.947
50038W        W21621  14.909   9.420  12.901
50039W        W21622   3.743   4.242   3.441
50040W        W21623   4.742  43.978   4.337
50041W        W21624   5.166   8.414   0.333
50042W        W21625  38.689  18.513   3.019
50043W        W21626  44.275  33.475  10.704
50044W        W21627   1.416  18.130  10.742
50045W        W21628  34.540  40.447  13.975
50046W        W21629  31.389  34.300   2.116
50047W        W21630  14.191   9.941  12.472
50048W        W21631  34.886  44.388   0.929
50049W        W21632  10.342   7.194   4.221
50050W        W21633   3.430  26.427   1.394
50051W        W21634  13.218  10.619   1.833
50052W        W21635  17.202  44.292  13.236
50053W        W21636  17.026  14.317   1.284
50054W        W21637   7.848  16.625  12.037
50055W        W21638   3.887  11.842   2.375
50056W        W21639   9.106  35.283   2.920
50057W        W21640  13.727  20.697  11.035
50058W        W21641   3.001  18.850  11.066
50059W        W21642   9.339  16.733  14.326
50060W        W21643  24.661  29.352  10.981
50061W        W21644  24.409   1.302  10.527
50062W        W21645  23.650  38.655  14.917
50063W        W21646   6.725  15.164  14.931
50064W        W21647   2.706  18.591   0.456
50065W        W21648  35.331  41.424  10.594
50066W        W21649  32.103   2.488   5.050
50067W        W21650  38.824  26.589   2.912
50068W        W21651   3.022  29.991   3.729
50069W        W21652  42.763  35.839   0.447
50070W        W21653  24.184  24.575  11.723
50071W        W21654  40.988  35.622  12.017
50072W        W21655  24.512  19.652  11.550
50073W        W21656  24.695  21.679  12.916
50074W        W21657   3.810   3.932  10.726
50075W        W21658  38.659  30.183   4.159
50076W        W21659  12.038  15.381  14.518
50077W        W21660  18.280  13.439   2.663
50078W        W21661  16.742   7.220  11.037
50079W        W21662  14.865  34.861   1.905
50080W        W21663  27.448   7.324  11.897
50081W        W21664  34.183  26.829   2.405
50082W        W21665  26.554   6.707  13.509
50083W        W21666   7.162  19.177  12.495
50084W        W21667   5.027  20.959   2.881
50085W        W21668  18.786  27.448  11.400
50086W        W21669  35.970  38.001  11.694
50087W        W21670  11.236  44.199  13.924
50088W        W21671  27.824  42.442   0.315
50089W        W21672  33.346  27.307   1.139
50090W        W21673   3.717  37.464   2.320
50091W        W21674   9.637  27.132   2.792
50092W        W21675  31.519  44.595   1.954
50093W        W21676  16.646  36.059  12.979
50094W        W21677  15.285  39.620   0.341
50095W        W21678   8.761  44.524   4.679
50096W        W21679  23.777  44.326  12.661
50097W        W21680   9.369  25.513   0.839
50098W        W21681  44.700   7.210  11.460
50099W        W21682  33.391  36.638  12.938
50100W        W21683  39.468  36.290  12.143
50101W        W21684   5.849  28.004   0.169
50102W        W21685  29.956   7.016  12.968
50103W        W21686   8.549  16.567  10.178
50104W        W21687  37.482  34.863   0.880
50105W        W21688  17.610  34.765  11.594
50106W        W21689  23.245  18.238  12.035
50107W        W21690  33.950  43.239   1.389
50108W        W21691  35.098  36.544   4.135
50109W        W21692  22.964   0.822   3.263
50110W        W21693  38.623  32.723  13.860
50111W        W21694   2.725  26.150   3.776
50112W        W21695  38.319  25.641   1.026
50113W        W21696   2.111   9.814   1.475
50114W        W21697  36.056  19.155   0.335
50115W        W21698  29.622  14.037   3.714
50116W        W21699   5.837   6.971  13.192
50117W        W21700  24.704  35.957   1.127
50118W        W21701  20.652  28.878   2.145
50119W        W21702  32.524  34.882   2.783
50120W        W21703   4.415  17.217  14.719
50121W        W21704  28.659  12.826  13.519
50122W        W21705  39.585  39.577   4.118
50123W        W21706   2.649  35.945   2.394
50124W        W21707   0.912  23.104   2.720
50125W        W21708  13.906  37.032   3.343
50126W        W21709   6.669  38.622  14.600
50127W        W21710  44.386  13.711   2.098
50128W        W21711  15.067  34.049   1.370
50129W        W21712  18.606   0.485  10.767
50130W        W21713  20.639  20.776  11.402
50131W        W21714  39.840  19.235   0.307
50132W        W21715   2.475   9.581   1.733
50133W        W21716  14.416  32.423  11.956
50134W        W21717  13.676  44.433  12.029
50135W        W21718  13.618  39.983   4.598
50136W        W21719  31.205  10.780  12.142
50137W        W21720   9.440  11.575  13.500
50138W        W21721  22.071  14.351   2.720
50139W        W21722   4.546  19.225  13.019
50140W        W21723  44.369  17.543  10.635
50141W        W21724   1.956  36.101   1.731
50142W        W21725  21.863  15.578   2.893
50143W        W21726  32.509  33.135  12.058
50144W        W21727  20.546  40.364  10.374
50145W        W21728  13.296  25.012   2.430
50146W        W21729  14.992   0.587   4.051
50147W        W21730  27.399  14.686  13.437
50148W        W21731  41.381   7.757   2.539
50149W        W21732  28.410   4.435   2.598
50150W        W21733   4.906  42.958  11.254
50151W        W21734  28.467   5.661  11.352
50152W        W21735  42.821  33.016  14.983
50153W        W21736  11.645  14.043   0.928
50154W        W21737  30.876  35.008   3.867
50155W        W21738   9.875   3.726  12.886
50156W        W21739  22.891  34.882   4.272
50157W        W21740  33.897  10.390   4.895
50158W        W21741  35.054  39.492   0.528
50159W        W21742  33.524  34.587   0.007
50160W        W21743  18.042  21.964  14.842
50161W        W21744  44.353  24.546  10.717
50162W        W21745  13.631  39.287  11.243
50163W        W21746  26.957  21.041  14.925
50164W        W21747  12.199  20.528   2.255
50165W        W21748   2.258  17.086  11.465
50166W        W21749  34.392  16.181   1.882
50167W        W21750  17.613  11.693  10.640
50168W        W21751   7.598   4.712  13.356
50169W        W21752   8.482  35.008  11.455
50170W        W21753  35.766  41.282  12.901
50171W        W21754   4.341   1.776  13.929
50172W        W21755  41.359  41.907  12.201
50173W        W21756  36.310   6.909  13.370
50174W        W21757  37.816   5.715   2.176
50175W        W21758   0.369  24.405  11.216
50176W        W21759  34.384  30.504  11.326
50177W        W21760  23.893  25.489  11.629
50178W        W21761  14.206  29.260  14.070
50179W        W21762  29.471  20.051   0.307
50180W        W21763  35.561   4.775  12.654
50181W        W21764  36.586  27.193   1.147
50182W        W21765   9.396  38.590  10.660
50183W        W21766  39.417   4.925  11.058
50184W        W21767  16.759   0.974  14.689
50185W        W21768  28.633  22.083  10.685
50186W        W21769  34.477  44.237   2.395
50187W        W21770  31.869   7.214   0.827
50188W        W21771  34.542  32.380   2.293
50189W        W21772  21.072  38.902  13.207
50190W        W21773  27.648  34.557  14.462
50191W        W21774  12.733  26.784  12.639
50192W        W21775   4.390  40.858   2.435
50193W        W21776  23.461  41.811   1.760
50194W        W21777  35.111   4.994  14.554
50195W        W21778   4.264   2.855  10.689
50196W        W21779  35.983  23.488  12.031
50197W        W21780  36.761  39.798   3.558
50198W        W21781  21.920  17.105   9.577
50199W        W21782  42.773  32.515  12.178
50200W        W21783  31.140  42.312   3.251
50201W        W21784   0.427   8.770  11.234
50202W        W21785   3.317  25.734  12.411
50203W        W21786  31.510  15.653   0.540
50204W        W21787  39.586   3.272   1.586
50205W        W21788  41.944  23.103   0.433
50206W        W21789  35.517  44.696   0.246
50207W        W21790  20.069   5.944  12.183
50208W        W21791  43.031  43.230   2.653
50209W        W21792  22.634   8.325  14.857
50210W        W21793  36.064  42.059  14.271
50211W        W21794  39.285   8.625  14.887
50212W        W21795   4.908  12.987  14.852
50213W        W21796  20.914  15.768  11.104
50214W        W21797  28.814  11.643   4.681
50215W        W21798  36.753  30.771  11.125
50216W        W21799   2.267   7.114  10.360
50217W        W21800   5.663  37.954   2.284
50218W        W21801  29.299   1.402  13.075
50219W        W21802  33.278  41.835  10.979
50220W        W21803  37.332  15.674  13.420
50221W        W21804  37.293   6.195   2.436
50222W        W21805  31.024   3.936  12.696
50223W        W21806  15.384  43.211  14.030
50224W        W21807   3.766  16.373   2.635
50225W        W21808  28.258  40.786   1.291
50226W        W21809  23.301  30.003   5.119
50227W        W21810  12.430  21.699   2.875
50228W        W21811  38.897   1.858   0.170
50229W        W21812  29.976  31.126   2.910
50230W        W21813  38.732  17.605  11.216
50231W        W21814  36.993  22.662   1.147
50232W        W21815  36.962  33.757  13.632
50233W        W21816  17.829   7.842   3.591
50234W        W21817  14.694  31.564  11.870
50235W        W21818  40.903  17.379   4.659
50236W        W21819   4.150  32.666  13.928
50237W        W21820  14.074  13.562  13.064
50238W        W21821  21.495  42.610   3.979
50239W        W21822   4.307  44.323  12.383
50240W        W21823  20.144  12.549  14.782
50241W        W21824   5.963  20.629   0.809
50242W        W21825  34.137  32.216  10.478
50243W        W21826  32.995   0.897   4.561
50244W        W21827  33.552  16.061  14.510
50245W        W21828  27.644  24.140  13.926
50246W        W21829  19.571  17.176   2.641
50247W        W21830  10.187  37.340  13.391
50248W        W21831  22.144  29.238  13.547
50249W        W21832  29.813  25.634   4.779
50250W        W21833  21.730  12.692   1.463
50251W        W21834  11.097  18.818   2.918
50252W        W21835  24.179  16.964   3.699
50253W        W21836  32.541  42.129   3.789
50254W        W21837  42.961  39.873  12.831
50255W        W21838  31.084  32.387  12.568
50256W        W21839   9.546  19.037   3.149
50257W        W21840  43.819  24.119   2.173
50258W        W21841   2.628  22.827   0.369
50259W        W21842  14.312  29.759  14.135
50260W        W21843  16.535  18.780   1.794
50261W        W21844  18.375  16.287  11.966
50262W        W21845  33.191   1.291   1.436
50263W        W21846  20.651  37.509   0.748
50264W        W21847  18.009  28.243   1.399
50265W        W21848  14.623   0.134   3.968
50266W        W21849  42.224  19.695   4.568
50267W        W21850  41.790   3.991  13.719
50268W        W21851  32.014  41.606  10.817
50269W        W21852  22.515  27.603  14.152
50270W        W21853  34.488  42.944   0.838
50271W        W21854  36.286   1.987  14.385
50272W        W21855  30.163  27.725  12.116
50273W        W21856  24.854  39.369   4.178
50274W        W21857   5.686  32.839   4.147
50275W        W21858   0.793  21.727  13.565
50276W        W21859  38.929  30.432   4.549
50277W        W21860  21.911  20.003   5.532
50278W        W21861  25.034  21.319  12.998
50279W        W21862  29.850   0.105   2.068
50280W        W21863   8.346  36.969   3.892
50281W        W21864  30.559  32.004   9.970
50282W        W21865  38.195  23.516  12.539
50283W        W21866  35.683  42.814  14.320
50284W        W21867  15.068  23.500   1.355
50285W        W21868   9.447  36.700   0.234
50286W        W21869  38.986   5.948   1.132
50287W        W21870  26.017  20.290   4.537
50288W        W21871  36.665  25.159  10.814
50289W        W21872  31.566   6.935   3.673
50290W        W21873  42.393  36.212   2.959
50291W        W21874  34.142  12.025   0.182
50292W        W21875   2.499  32.107  10.765
50293W        W21876  10.425   6.746   3.311
50294W        W21877   4.857   9.107  14.935
50295W        W21878   0.096   9.939  10.808
50296W        W21879  28.162  12.345   0.050
50297W        W21880   6.387  40.927   4.544
50298W        W21881  32.129   3.660  10.200
50299W        W21882  31.411  25.770  13.018
50300W        W21883   2.292  38.060  12.060
50301W        W21884  26.975  26.035   3.820
50302W        W21885  34.560   4.361   1.432
50303W        W21886  44.899   2.908  14.034
50304W        W21887  25.689   4.477  12.668
50305W        W21888  33.033   6.393  11.244
50306W        W21889   1.379   5.775   4.514
50307W        W21890  34.457  11.599   3.380
50308W        W21891  28.674  20.447   2.751
50309W        W21892  10.811  27.449   0.591
50310W        W21893  37.948  33.886  12.085
50311W        W21894  12.926   5.634  12.094
50312W        W21895  38.270   3.180   2.845
50313W        W21896  31.918  41.432  13.065
50314W        W21897   1.271   7.071  11.188
50315W        W21898   8.175  25.708  12.363
50316W        W21899  43.256  33.627   2.258
50317W        W21900  24.043  34.640   4.041
50318W        W21901  11.789   8.835   0.718
50319W        W21902  33.894  37.538   2.477
50320W        W21903  27.058  23.111   4.034
50321W        W21904  19.296  40.444   2.214
50322W        W21905  22.417  38.628  13.540
50323W        W21906  44.305  15.382   4.709
50324W        W21907  28.589  19.940   2.735
50325W        W21908  23.849  23.770   2.696
50326W        W21909  26.197  23.584   4.894
50327W        W21910  13.118  37.146  11.929
50328W        W21911  17.250  33.469   3.272
50329W        W21912  37.839  40.979   3.472
50330W        W21913  29.046  29.218  13.923
50331W        W21914  34.466   0.439  13.995
50332W        W21915  13.144  33.898   2.898
50333W        W21916  20.317  21.547  11.846
50334W        W21917   0.826  32.589   1.873
50335W        W21918  42.692   4.340   0.895
50336W        W21919  26.503  41.977   1.707
50337W        W21920  20.086  24.863  10.405
50338W        W21921   3.015  17.544  11.879
50339W        W21922  39.371  12.359   2.146
50340W        W21923  41.587  32.941   1.404
50341W        W21924  31.151  42.582  14.005
50342W        W21925  31.419  28.046   0.960
50343W        W21926  22.968  23.810  12.179
50344W        W21927  42.096  13.537   4.122
50345W        W21928  28.075  38.454  14.936
50346W        W21929  23.957  34.989  13.496
50347W        W21930  40.605  36.804   4.638
50348W        W21931  16.863  11.328  14.907
50349W        W21932  12.715  41.898  13.593
50350W        W21933  38.904   8.343   2.888
50351W        W21934  44.030  37.480   2.756
50352W        W21935  31.202  29.569  14.472
50353W        W21936  34.930   5.461   1.803
50354W        W21937  37.406  28.244  14.363
50355W        W21938  13.201  27.896   3.724
50356W        W21939  32.004  28.161  11.554
50357W        W21940   7.085  43.753  14.111
50358W        W21941   0.759  39.884   3.888
50359W        W21942  20.713  26.715   1.765
50360W        W21943  37.789   0.775   2.427
50361W        W21944  27.660  29.481   2.281
50362W        W21945  14.568  27.177  11.904
50363W        W21946  21.444  36.432  13.806
50364W        W21947   0.966  43.130  10.276
50365W        W21948  38.626  42.482  11.521
50366W        W21949  24.439   3.451  11.685
50367W        W21950  40.955  22.882  12.980
50368W        W21951  20.176  19.631  11.894
50369W        W21952  18.780   2.904   1.006
50370W        W21953  43.394  35.871   5.034
50371W        W21954  29.903  33.310   1.400
50372W        W21955  42.211  35.891   4.281
50373W        W21956  34.263   2.707   1.950
50374W        W21957   3.059   1.762  13.876
50375W        W21958  35.092  31.151   1.893
50376W        W21959  35.063   3.513  14.536
50377W        W21960   8.180  14.230  11.882
50378W        W21961  11.138  39.065   1.444
50379W        W21962   0.906  29.624  12.457
50380W        W21963  31.568  16.363  11.725
50381W        W21964   0.076  41.961   1.808
50382W        W21965   0.842  26.353   2.617
50383W        W21966  14.800  26.530   4.448
50384W        W21967  11.840  30.516  14.499
50385W        W21968  37.465  35.986  14.492
50386W        W21969  20.994  41.894   3.649
50387W        W21970  29.646  17.745   3.189
50388W        W21971   7.398  22.756  11.679
50389W        W21972  19.698  25.606   5.401
50390W        W21973  19.755  44.996   4.794
50391W        W21974  12.150   7.293   0.441
50392W        W21975  34.108  17.670   1.289
50393W        W21976  16.682  17.729   1.726
50394W        W21977  38.606  40.128  10.630
50395W        W21978  26.449  17.554   3.773
50396W        W21979   6.700   7.385  11.522
50397W        W21980  23.061  21.480  13.033
50398W        W21981  24.000   7.192   0.920
50399W        W21982   1.411  43.484   2.768
50400W        W21983  32.029  42.160  12.025
50401W        W21984   7.655  13.057   2.357
50402W        W21985  40.282  41.840   4.528
50403W        W21986  34.524   7.228   3.792
50404W        W21987  41.047  21.732  12.958
50405W        W21988  18.358   1.238  11.123
50406W        W21989   9.160  21.044   1.443
50407W        W21990  27.945  23.521  13.510
50408W        W21991  36.637  37.402  13.972
50409W        W21992   9.798   0.419  13.774
50410W        W21993   3.388  25.131   1.790
50411W        W21994  36.847  34.407  12.002
50412W        W21995  20.032  17.101   5.075
50413W        W21996   2.791  33.531   5.153
50414W        W21997  17.026  24.780   4.300
50415W        W21998   2.348  26.936  11.504
50416W        W21999  42.949  31.049  13.977
50417W        W22000  24.825   4.476  11.140
50418W        W22001   8.949  18.804   1.145
50419W        W22002  30.932  44.013   0.679
50420W        W22003  16.283  31.683   2.236
50421W        W22004  27.976  40.752   2.334
50422W        W22005   8.817  18.213  14.694
50423W        W22006  23.133  31.937  10.850
50424W        W22007  30.861  32.503   4.343
50425W        W22008   5.408  32.883  12.879
50426W        W22009   1.671  42.547  12.278
50427W        W22010  13.718   5.190   4.870
50428W        W22011  27.277   4.873   4.093
50429W        W22012  29.438  40.727   3.587
50430W        W22013   8.197  41.905   2.635
50431W        W22014  27.530  15.797  14.679
50432W        W22015  15.182  39.604   1.461
50433W        W22016  41.916  24.610   3.701
50434W        W22017  23.228  41.313  12.004
50435W        W22018  28.774  20.744  11.316
50436W        W22019  28.484  37.576   3.699
50437W        W22020  25.165  30.296  13.383
50438W        W22021  26.480   1.975   3.420
50439W        W22022   5.411  39.281  12.979
50440W        W22023  15.371  33.219   0.894
50441W        W22024  25.018  41.012  11.819
50442W        W22025  32.510  18.427  13.949
50443W        W22026  23.647  13.711  14.117
50444W        W22027   8.489  13.302  11.976
50445W        W22028  16.527  26.462   3.554
50446W        W22029  23.777  29.223   2.367
50447W        W22030  21.062   8.550  14.827
50448W        W22031   8.973   0.042   1.424
50449W        W22032   6.878  29.006   1.963
50450W        W22033  16.156   2.946   0.838
50451W        W22034  40.791  38.620  13.042
50452W        W22035  13.698  10.223   3.718
50453W        W22036  42.911   4.520  12.592
50454W        W22037  32.928  15.168  11.047
50455W        W22038  37.797  28.626  12.393
50456W        W22039   9.122   8.373   4.968
50457W        W22040  16.594  37.015  12.005
50458W        W22041   3.532  10.364  14.562
50459W        W22042  14.809  29.362   3.796
50460W        W22043  26.921  17.331   3.803
50461W        W22044   7.250   6.313  13.093
50462W        W22045  25.756  26.367   0.480
50463W        W22046  13.233  20.630   2.385
50464W        W22047  11.742  16.808   4.199
50465W        W22048   5.188  38.902  10.464
50466W        W22049   4.996  43.151   5.136
50467W        W22050   4.251  40.331   0.804
50468W        W22051  20.961   9.048  12.129
50469W        W22052  23.209  38.966   2.720
50470W        W22053  17.667  25.049   4.541
50471W        W22054  38.233  41.985   1.152
50472W        W22055  29.200   2.247   3.548
50473W        W22056  16.140  19.743   2.896
50474W        W22057   9.584  30.714   3.386
50475W        W22058  19.956  30.209  10.709
50476W        W22059  10.128  35.009  14.438
50477W        W22060  39.548  25.078  14.010
50478W        W22061  20.948  14.223   3.502
50479W        W22062  10.881  13.745   0.524
50480W        W22063  37.870  44.339   0.386
50481W        W22064  25.049  38.139   4.817
50482W        W22065  31.565  16.708  14.078
50483W        W22066  41.719  43.987  11.139
50484W        W22067  25.541  12.343   3.299
50485W        W22068  11.748  33.883  14.881
50486W        W22069  40.784  20.645   4.385
50487W        W22070   3.837  20.299  13.251
50488W        W22071  31.737  10.689  11.115
50489W        W22072   1.640  27.200  10.839
50490W        W22073  35.855  23.972  11.141
50491W        W22074  34.732   4.311   3.616
50492W        W22075  32.983  32.950   0.012
50493W        W22076  26.603   1.861  13.557
50494W        W22077  37.655   0.202  12.212
50495W        W22078  37.491   8.685  14.100
50496W        W22079   9.427   5.454  13.884
50497W        W22080  22.134  19.687   4.905
50498W        W22081  13.129  43.418   4.181
50499W        W22082  35.835   2.789   3.316
50500W        W22083  36.729  42.465   2.385
50501W        W22084  36.961  25.236  11.501
50502W        W22085  12.200  15.737  14.175
50503W        W22086  33.449  13.388  14.791
50504W        W22087  27.993  42.800  12.959
50505W        W22088   7.175   5.243   1.801
50506W        W22089  40.426  29.736  14.321
50507W        W22090  21.073  20.655   3.888
50508W        W22091  41.307  13.508  12.814
50509W        W22092   7.688  23.126   3.273
50510W        W22093   9.730   1.904   3.898
50511W        W22094  37.399  15.721  10.287
50512W        W22095  21.695  21.087  12.490
50513W        W22096  23.549  28.035  11.654
50514W        W22097  30.129  26.221   1.291
50515W        W22098   1.260   7.972   4.938
50516W        W22099   1.898   0.302   3.589
50517W        W22100  22.670  40.775   0.854
50518W        W22101  17.107  10.956  13.924
50519W        W22102  22.187  39.427   3.655
50520W        W22103  27.622  35.607  12.962
50521W        W22104  35.902  33.316   0.218
50522W        W22105  23.630   8.703   4.273
50523W        W22106   6.754  25.306   0.102
50524W        W22107  44.514  41.953   1.785
50525W        W22108  28.040  24.657  10.918
50526W        W22109   7.734  36.058   5.245
50527W        W22110  19.420  43.114   2.258
50528W        W22111  39.843  24.018  13.440
50529W        W22112  29.691  36.120  11.047
50530W        W22113  37.360  14.372   1.100
50531W        W22114  23.159  35.924   1.530
50532W        W22115  18.300  36.847   4.989
50533W        W22116   6.367   4.777   4.606
50534W        W22117   6.353  21.535   4.149
50535W        W22118  15.709  19.677   1.041
50536W        W22119  44.739  16.193  11.088
50537W        W22120  44.864  20.329   2.551
50538W        W22121  20.702   4.659  10.761
50539W        W22122  33.448   1.853   5.063
50540W        W22123   6.750  33.857   0.787
50541W        W22124  15.802  12.607  11.037
50542W        W22125   1.216  37.240   1.404
50543W        W22126  29.740  21.969  14.442
50544W        W22127  19.800  35.943  13.884
50545W        W22128  20.982  13.649  12.631
50546W        W22129  27.937  39.573  10.746
50547W        W22130   8.616   4.467  14.213
50548W        W22131  43.012  39.844   4.070
50549W        W22132  13.831  23.037  10.401
50550W        W22133   4.953   0.446  14.489
50551W        W22134   8.259   5.426  10.961
50552W        W22135  42.513  39.771   3.210
50553W        W22136  28.498  24.197  11.523
50554W        W22137   3.024  28.618  10.780
50555W        W22138   4.358  36.138  13.361
50556W        W22139  25.535   0.155   0.449
50557W        W22140  40.783  17.713  13.375
50558W        W22141  24.036  43.927   2.688
50559W        W22142  15.973  15.113   4.436
50560W        W22143  27.078  15.825  13.947
50561W        W22144  31.972   0.275  14.431
50562W        W22145  34.728  25.079   1.638
50563W        W22146  22.539  36.655   1.206
50564W        W22147   2.822  19.044  13.826
50565W        W22148   0.326  37.951  12.023
50566W        W22149  36.635  42.831  13.054
50567W        W22150  40.699  13.844  13.898
50568W        W22151  31.471  22.016   4.064
50569W        W22152  41.863  42.755  12.457
50570W        W22153  28.115  34.672   1.759
50571W        W22154  39.993  43.012  12.456
50572W        W22155   6.811  28.643   0.159
50573W        W22156   6.914   1.679   2.665
50574W        W22157  30.839   4.865   1.818
50575W        W22158  27.177  17.490  14.478
50576W        W22159  31.024  23.168  13.500
50577W        W22160  27.985  44.408   2.094
50578W        W22161  13.253   7.355   1.923
50579W        W22162  26.526   2.473  11.720
50580W        W22163  34.902   3.731  11.200
50581W        W22164  14.050  35.820   4.444
50582W        W22165  29.870  37.854  12.180
50583W        W22166   1.371  18.696  10.602
50584W        W22167  27.353  33.893   0.665
50585W        W22168  10.190  14.348   4.175
50586W        W22169  10.636   8.182  12.467
50587W        W22170  36.702  13.884   3.214
50588W        W22171   6.246   1.184   2.335
50589W        W22172  18.040  32.061  11.131
50590W        W22173   3.855   0.766   4.127
50591W        W22174  18.051  42.316  11.298
50592W        W22175   7.760  44.059   1.332
50593W        W22176  21.526  28.171  12.376
50594W        W22177  42.908  18.643   3.200
50595W        W22178  15.228  24.188   1.585
50596W        W22179  42.545  29.235   2.345
50597W        W22180   8.959  29.409  13.436
50598W        W22181  31.597   1.982   1.256
50599W        W22182   7.871  19.117  12.589
50600W        W22183  39.885  16.326  11.229
50601W        W22184   6.883  22.990  12.445
50602W        W22185  17.078  35.826   3.225
50603W        W22186  34.060  40.283   1.717
50604W        W22187  14.274  31.911  11.474
50605W        W22188  38.344  26.543  13.761
50606W        W22189  36.276  38.786   0.735
50607W        W22190  24.726   1.558   0.403
50608W        W22191  24.730  27.920  14.978
50609W        W22192  25.221  39.539   0.004
50610W        W22193  31.951  23.213  13.804
50611W        W22194   6.381  30.109   3.299
50612W        W22195  11.067  39.503   0.819
50613W        W22196  10.328  13.349   4.225
50614W        W22197   9.474  44.803   0.366
50615W        W22198  16.626  37.357  11.162
50616W        W22199  32.457  24.278  13.018
50617W        W22200   4.636  23.667  12.064
50618W        W22201  28.364  35.115   2.713
50619W        W22202  21.761   9.435   1.774
50620W        W22203  22.073  33.642  14.828
50621W        W22204  19.857  15.024  10.447
50622W        W22205  17.582  13.015  11.219
50623W        W22206  37.593  44.960   3.754
50624W        W22207   1.534  29.378  13.746
50625W        W22208  18.166  28.943   3.694
50626W        W22209   9.562  12.159  10.758
50627W        W22210   8.875   5.640   3.794
50628W        W22211  13.191  28.607  14.835
50629W        W22212  11.695   1.273  14.524
50630W        W22213  20.838  36.324  10.843
50631W        W22214   3.255  30.274   1.648
50632W        W22215  15.682  37.273  11.190
50633W        W22216  35.307  18.114   3.535
50634W        W22217  30.076  17.525   4.002
50635W        W22218   5.886   1.812  13.518
50636W        W22219   2.163  40.608   4.187
50637W        W22220  11.299  29.423  13.465
50638W        W22221  41.314  42.482   3.950
50639W        W22222  31.084  25.530   1.019
50640W        W22223  31.027  32.878  12.457
50641W        W22224  22.474  34.424  12.988
50642W        W22225  22.027  35.076   3.148
50643W        W22226  30.124  33.698   0.456
50644W        W22227   0.493  41.016  11.468
50645W        W22228  18.618   3.373  14.941
50646W        W22229   8.204  40.985  14.907
50647W        W22230  39.486  28.726  14.542
50648W        W22231  36.331  37.412   2.456
50649W        W22232   4.799  43.981  12.629
50650W        W22233  31.058  36.172  12.021
50651W        W22234  44.210  15.742   5.104
50652W        W22235   2.745  13.883  13.247
50653W        W22236   5.387   3.235   1.398
50654W        W22237  27.951  16.551  14.853
50655W        W22238  27.224  14.311   4.459
50656W        W22239   3.936  12.005   0.281
50657W        W22240  10.246  38.340   2.860
50658W        W22241   4.639  10.652   1.498
50659W        W22242  39.945  14.227  11.962
50660W        W22243  25.064  34.912   3.242
50661W        W22244   6.832  32.202  12.958
50662W        W22245   1.525   9.844  13.867
50663W        W22246  40.643  36.825  14.421
50664W        W22247  31.071  31.600   0.097
50665W        W22248   8.888   4.864   4.165
50666W        W22249  10.061  25.625  11.267
50667W        W22250  32.405  34.464  14.391
50668W        W22251  12.705  27.854   1.413
50669W        W22252   6.633  41.832  11.604
50670W        W22253   3.221  42.878   3.252
50671W        W22254  23.622   3.242   4.596
50672W        W22255   6.260  30.505   2.111
50673W        W22256   2.334  15.175   1.901
50674W        W22257  23.986  13.555   2.371
50675W        W22258  12.582   2.306  12.473
50676W        W22259  41.946  37.114   4.396
50677W        W22260   3.335  12.299  12.594
50678W        W22261  35.539   0.969  13.850
50679W        W22262  23.494  19.535   1.015
50680W        W22263  38.540  23.756   4.839
50681W        W22264  34.632   6.730  12.586
50682W        W22265  44.960  24.671   2.271
50683W        W22266  25.594   4.120  14.112
50684W        W22267  13.104  16.233  14.940
50685W        W22268  41.967  16.251   0.436
50686W        W22269  21.561  33.258  11.154
50687W        W22270  14.530  13.804   4.549
50688W        W22271  19.066  11.862   2.332
50689W        W22272   2.690  39.827  11.508
50690W        W22273   8.389   1.328   1.754
50691W        W22274  21.763  41.513  12.912
50692W        W22275   5.933  30.748   1.560
50693W        W22276  26.655   9.786   0.254
50694W        W22277  41.984  22.541   3.586
50695W        W22278   0.050  38.019   0.735
50696W        W22279  15.529   5.889   0.276
50697W        W22280   3.460   4.356  10.455
50698W        W22281  34.509  32.199  11.190
50699W        W22282  14.225   5.949   2.208
50700W        W22283  17.806  29.527   2.742
50701W        W22284  43.016  14.789   0.406
50702W        W22285  27.916  19.649  14.504
50703W        W22286  42.516  36.944  11.581
50704W        W22287  13.652  33.866  11.990
50705W        W22288  35.962  36.027   0.308
50706W        W22289  23.518  20.476   3.568
50707W        W22290  21.493   9.263   4.720
50708W        W22291  41.826  20.077   4.611
50709W        W22292  19.115  17.545   0.178
50710W        W22293  26.032  41.080   0.300
50711W        W22294  42.566   6.613  11.922
50712W        W22295   2.211  31.087  11.410
50713W        W22296  24.614   6.679  11.563
50714W        W22297  25.738   3.779  10.679
50715W        W22298  16.708  10.325   2.142
50716W        W22299   7.190  15.715   3.355
50717W        W22300  20.569  16.163  12.526
50718W        W22301  38.033   3.912  10.611
50719W        W22302  30.667  37.551   4.563
50720W        W22303  28.697   0.195   1.446
50721W        W22304  41.298   3.684  11.260
50722W        W22305  12.888  20.126  11.964
50723W        W22306  17.187  25.270  14.781
50724W        W22307  30.625  41.529   0.384
50725W        W22308  42.194   9.775  11.161
50726W        W22309  44.233  43.192  13.821
50727W        W22310  30.000   0.952  10.839
50728W        W22311  37.731  36.885   1.827
50729W        W22312  22.458   4.676   1.345
50730W        W22313  27.138  10.227   0.793
50731W        W22314  44.464   2.072   4.317
50732W        W22315  29.424  35.923  14.813
50733W        W22316  27.366  28.894   0.997
50734W        W22317   6.479   6.864   2.376
50735W        W22318  18.444  13.938   2.721
50736W        W22319  14.913  29.682   4.217
50737W        W22320  31.945  33.078   0.899
50738W        W22321  33.638  10.692   0.503
50739W        W22322   6.835   6.211  14.826
50740W        W22323  20.558  32.337  10.408
50741W        W22324  32.134  35.893  14.461
50742W        W22325   4.630   6.344   4.048
50743W        W22326  38.386  23.200  11.167
50744W        W22327   3.308  39.719   2.169
50745W        W22328   2.239  17.207   0.896
50746W        W22329  22.626  27.858  10.733
50747W        W22330  31.495  33.863  14.363
50748W        W22331  19.167  17.557   3.657
50749W        W22332  39.504  23.498  12.757
50750W        W22333  32.308  17.671   3.731
50751W        W22334   9.379  21.672   3.693
50752W        W22335  33.684  29.085   0.958
50753W        W22336  42.524  37.460   0.741
50754W        W22337   3.179  43.300   2.275
50755W        W22338  19.296  17.077   4.628
50756W        W22339   8.614  30.029  11.826
50757W        W22340  21.278   1.146  12.780
50758W        W22341  34.853  31.440   3.036
50759W        W22342  43.378   1.412  12.572
50760W        W22343  39.097  29.050   4.426
50761W        W22344  14.914  35.943   3.007
50762W        W22345  39.495  40.898   4.111
50763W        W22346   9.764  44.469  12.031
50764W        W22347   9.137  16.774  12.455
50765W        W22348  11.876  20.050  11.614
50766W        W22349  20.145   8.668   3.567
50767W        W22350  25.243  26.575   4.686
50768W        W22351   6.271   7.400   3.434
50769W        W22352   8.101  25.041  14.594
50770W        W22353   8.924   5.022  12.418
50771W        W22354  40.829   5.400   3.731
50772W        W22355  22.918  14.712  10.550
50773W        W22356   2.968  15.331   4.147
50774W        W22357  10.805  19.997  12.083
50775W        W22358  16.546  34.962   0.037
50776W        W22359  11.883  34.562  11.769
50777W        W22360  20.646  33.802  10.589
50778W        W22361   9.390  15.693   2.290
50779W        W22362  21.798   2.287   4.727
50780W        W22363  25.134  11.318  13.318
50781W        W22364   9.680  38.995   1.260
50782W        W22365   1.825  14.884   0.272
50783W        W22366  32.181  25.573   4.162
50784W        W22367  19.140  32.198  12.789
50785W        W22368  13.144  36.050   3.836
50786W        W22369  14.272  24.730   2.356
50787W        W22370  42.697  39.053  14.971
50788W        W22371  15.704  27.931  13.967
50789W        W22372   4.340  22.855  12.469
50790W        W22373  42.234  36.975  13.493
50791W        W22374   4.613  16.626   0.913
50792W        W22375  33.600   0.675   3.419
50793W        W22376  44.341  35.006   0.489
50794W        W22377  31.625  23.094   1.339
50795W        W22378  42.936  27.640  12.031
50796W        W22379  32.164  40.425   3.214
50797W        W22380  18.732  43.749   0.476
50798W        W22381   5.356  38.460   2.846
50799W        W22382  38.334   4.344  10.632
50800W        W22383  21.290  25.120   1.294
50801W        W22384   0.450  17.105   1.195
50802W        W22385  37.887   2.741  14.370
50803W        W22386  30.663  38.886   2.797
50804W        W22387   9.252  31.239   1.981
50805W        W22388  38.552   6.939   0.103
50806W        W22389   3.188   4.191   1.481
50807W        W22390  11.282  10.217   1.600
50808W        W22391  39.562  32.399  14.913
50809W        W22392  26.059  36.328  13.508
50810W        W22393  16.216  27.942  11.860
50811W        W22394  40.605  21.073   4.682
50812W        W22395   3.537  15.821   4.344
50813W        W22396  34.514  14.638  14.469
50814W        W22397  25.865  11.333   3.651
50815W        W22398  19.256  39.844  13.800
50816W        W22399  37.622  33.191   4.628
50817W        W22400  22.625  15.336   3.818
50818W        W22401  17.408   2.576   4.107
50819W        W22402  17.776  38.506   4.214
50820W        W22403   8.573  21.129   3.065
50821W        W22404  30.081   0.169   4.301
50822W        W22405  28.416   0.461   4.135
50823W        W22406  24.641  32.133  11.903
50824W        W22407  14.747   3.485   2.656
50825W        W22408  25.464   7.141  14.400
50826W        W22409  12.946  10.137   2.341
50827W        W22410  35.619   0.361   4.346
50828W        W22411   2.303  23.636   4.161
50829W        W22412  40.063  38.647   4.235
50830W        W22413  33.030  35.675  12.513
50831W        W22414  12.209  34.543   0.666
50832W        W22415  30.066  36.984  12.052
50833W        W22416  24.185  10.205   1.314
50834W        W22417   8.907  16.417   4.107
50835W        W22418   6.598  34.669   4.972
50836W        W22419  10.412   2.357  13.925
50837W        W22420  20.505  32.075  14.474
50838W        W22421  43.623  10.854   0.363
50839W        W22422  11.148  23.286  11.704
50840W        W22423  24.088  17.075   2.338
50841W        W22424  10.593  44.747  11.345
50842W        W22425  27.159   2.755  13.790
50843W        W22426  25.377  11.368  11.159
50844W        W22427  43.623  33.385   4.526
50845W        W22428  43.509  42.719   4.138
50846W        W22429  41.520  16.426   0.173
50847W        W22430  10.269  38.042  10.862
50848W        W22431  34.189  22.281  10.701
50849W        W22432  35.989  16.578   0.398
50850W        W22433  13.794   0.202   1.854
50851W        W22434  40.938  19.630  14.381
50852W        W22435  10.816  41.052  12.225
50853W        W22436  21.424  43.539   3.011
50854W        W22437  14.581  12.490   2.742
50855W        W22438   1.226  35.105   3.128
50856W        W22439  35.986  40.086  14.463
50857W        W22440  30.883  32.438  13.995
50858W        W22441  39.920  44.701   3.670
50859W        W22442  38.721  17.362   0.816
50860W        W22443  30.033   9.362   0.255
50861W        W22444  22.604  26.533  10.725
50862W        W22445   5.309  33.056  11.364
50863W        W22446  19.225  22.853   1.425
50864W        W22447  32.369  13.578  12.566
50865W        W22448  40.350   3.267   0.020
50866W        W22449  27.987  31.663  11.144
50867W        W22450  35.505   8.762  13.578
50868W        W22451  34.129  19.216   0.292
50869W        W22452   1.266  26.205  13.025
50870W        W22453  36.767  41.009   1.239
50871W        W22454   9.296   9.734  10.556
50872W        W22455  16.012  18.737  12.634
50873W        W22456  12.056  25.572   4.073
50874W        W22457  34.921  24.036  11.967
50875W        W22458  28.477  22.769  13.549
50876W        W22459  42.610  27.489  10.655
50877W        W22460  40.552  43.101   4.172
50878W        W22461   9.831  42.110   1.214
50879W        W22462  32.377  27.728  11.356
50880W        W22463  29.224   6.865  13.755
50881W        W22464  15.715  32.403  11.626
50882W        W22465  13.977  10.337  10.691
50883W        W22466  12.288   2.931  14.779
50884W        W22467  23.604  32.919   3.856
50885W        W22468  11.089  30.701   3.209
50886W        W22469  34.895  38.594  13.910
50887W        W22470   5.653  31.045  12.507
50888W        W22471  42.691  14.749  12.204
50889W        W22472  40.652  43.162  11.963
50890W        W22473  15.501  26.755  14.338
50891W        W22474   0.851   2.348  13.431
50892W        W22475  32.693  13.638   1.892
50893W        W22476  28.154   0.190  10.745
50894W        W22477   0.867   9.156  10.552
50895W        W22478  32.473  22.272  13.605
50896W        W22479  27.386  32.221   4.088
50897W        W22480  40.598  28.093  12.002
50898W        W22481  18.169   2.235  12.041
50899W        W22482   8.352  14.031   0.441
50900W        W22483   3.988  34.153   2.418
50901W        W22484  35.138  43.596   2.694
50902W        W22485  31.920  13.918   3.319
50903W        W22486  17.155  10.441  14.029
50904W        W22487   8.386  23.339   1.971
50905W        W22488   9.670  13.118   1.440
50906W        W22489  16.718  15.216  12.399
50907W        W22490   1.271  17.469   3.358
50908W        W22491  21.574  35.391  12.421
50909W        W22492  37.876  42.601  14.356
50910W        W22493  30.853  15.901   1.742
50911W        W22494  21.302  22.743  14.045
50912W        W22495  19.190  23.472   3.609
50913W        W22496  39.426  19.554  13.740
50914W        W22497  18.738   9.157   3.859
50915W        W22498  23.779   5.762  14.302
50916W        W22499  28.285  10.602  10.290
50917W        W22500  27.084  35.377  14.352
50918W        W22501  18.736  27.673  12.852
50919W        W22502  14.833  29.302  14.790
50920W        W22503  18.161  17.098  14.009
50921W        W22504  22.188  40.258   2.235
50922W        W22505  24.338   6.198   1.358
50923W        W22506  23.348   5.701  13.928
50924W        W22507  16.008   7.373  12.822
50925W        W22508  35.661  13.367   1.834
50926W        W22509   8.184  16.585   1.499
50927W        W22510  35.039  34.898  12.047
50928W        W22511  18.607  31.177  13.936
50929W        W22512  11.284  23.574  12.916
50930W        W22513  16.747  20.206  12.634
50931W        W22514  26.762  15.771  12.989
50932W        W22515  38.935   7.451   2.864
50933W        W22516  44.354  23.684   4.734
50934W        W22517  33.059  31.896  12.567
50935W        W22518   9.334   2.353  13.940
50936W        W22519   1.554   9.901   4.695
50937W        W22520   5.539  43.354   3.647
50938W        W22521  10.877  14.766   3.188
50939W        W22522  14.211  19.740  13.286
50940W        W22523   0.622  13.095   4.550
50941W        W22524  10.946  25.917   4.597
50942W        W22525  17.305  18.138  14.261
50943W        W22526  16.598  14.386  13.478
50944W        W22527  11.756  40.731   4.153
50945W        W22528  38.771  10.241  10.621
50946W        W22529  42.482  20.128  12.428
50947W        W22530  43.258  28.054  10.837
50948W        W22531   8.765  11.476  10.965
50949W        W22532  10.815  11.380   4.041
50950W        W22533  22.004  18.629  11.368
50951W        W22534  41.834   4.328  13.332
50952W        W22535  40.873  38.983   4.663
50953W        W22536  26.616   9.021  11.614
50954W        W22537  33.594  31.239  13.394
50955W        W22538  22.420   6.027  14.903
50956W        W22539  23.736  27.917   5.076
50957W        W22540  30.493  22.457  12.001
50958W        W22541   6.832   0.818   0.378
50959W        W22542   9.948  16.364  11.877
50960W        W22543  33.861  25.532  14.713
50961W        W22544   0.928   7.644   0.053
50962W        W22545  19.634  40.370   3.044
50963W        W22546  37.860  28.420   4.420
50964W        W22547  28.578   8.768   4.801
50965W        W22548  42.243  25.687  13.863
50966W        W22549  36.409  24.186  13.301
50967W        W22550   0.066  19.351   0.461
50968W        W22551  14.126   4.332  13.485
50969W        W22552  40.881   1.379   2.030
50970W        W22553   7.231  41.441  14.051
50971W        W22554  42.960  35.479  10.705
50972W        W22555  21.334  13.755  13.513
50973W        W22556   3.250  31.200  12.399
50974W        W22557   6.867  42.597   4.646
50975W        W22558  30.367   9.601   4.028
50976W        W22559  26.944   9.164  14.868
50977W        W22560  26.720  16.226   3.690
50978W        W22561  11.315  33.249   4.111
50979W        W22562   9.445   3.460   2.290
50980W        W22563  21.243   7.598  11.156
50981W        W22564  26.465  39.001   4.146
50982W        W22565  37.447  15.151  13.376
50983W        W22566  22.607  40.304  12.411
50984W        W22567  27.193  10.385  12.714
50985W        W22568  41.367  34.693  11.147
50986W        W22569   2.032  13.755  13.142
50987W        W22570  44.897  43.291   3.797
50988W        W22571  25.489   8.411  10.486
50989W        W22572  44.006   1.905  13.235
50990W        W22573  30.172   4.340  13.497
50991W        W22574   2.391  12.139  11.464
50992W        W22575  39.017  44.796   4.705
50993W        W22576  44.163  12.752   1.746
50994W        W22577  44.042  19.152   3.129
50995W        W22578  34.383  35.100   2.671
50996W        W22579  29.231  33.100   4.440
50997W        W22580  32.428   2.261   2.196
50998W        W22581  44.953  21.651   0.022
50999W        W22582  42.054  37.888  11.971
51000W        W22583  18.661  10.934   2.649
51001W        W22584  22.764  23.566  14.851
51002W        W22585  43.871  26.471   0.844
51003W        W22586  28.505  26.984   4.206
51004W        W22587  19.187  20.130  14.513
51005W        W22588  41.359  34.149   0.403
51006W        W22589  29.626  19.582   4.060
51007W        W22590  37.108  25.202   3.999
51008W        W22591  14.518  37.332   0.601
51009W        W22592  18.746  40.002   3.896
51010W        W22593  31.800  44.946   2.276
51011W        W22594  11.590  36.193   4.002
51012W        W22595  15.471  28.943   0.955
51013W        W22596   7.386  10.925   3.335
51014W        W22597  24.794  24.596   4.627
51015W        W22598  26.582  42.410   3.803
51016W        W22599  41.291  37.568   2.243
51017W        W22600  29.878  20.021   3.975
51018W        W22601  21.204  14.580  10.618
51019W        W22602   1.277  21.554   4.653
51020W        W22603   6.290  19.882  14.942
51021W        W22604  35.994   6.456   1.750
51022W        W22605  43.504  33.993  10.971
51023W        W22606  19.800  16.313  14.329
51024W        W22607  41.954  12.700  13.437
51025W        W22608   0.746  23.044  12.505
51026W        W22609  10.196   9.269  12.048
51027W        W22610  37.079  29.606   3.907
51028W        W22611   1.280  38.494   2.855
51029W        W22612  10.227  27.701  13.151
51030W        W22613   0.051  32.316   4.228
51031W        W22614   5.022  12.294  11.123
51032W        W22615  37.854   2.433   0.919
51033W        W22616  32.429  11.714   4.098
51034W        W22617   8.017  38.159   0.913
51035W        W22618   0.854  14.484  14.377
51036W        W22619  19.212   3.431  13.351
51037W        W22620   7.610  38.491   2.203
51038W        W22621  17.221   6.975  14.811
51039W        W22622  38.095  32.623  10.670
51040W        W22623  16.676  25.209   1.973
51041W        W22624  35.918  31.114   2.289
51042W        W22625  41.452  13.270   2.837
51043W        W22626   0.420   3.638  11.580
51044W        W22627  38.444  34.199   4.764
51045W        W22628  42.575  32.477   4.359
51046W        W22629  12.225  25.536   2.626
51047W        W22630  11.240  43.481  13.484
51048W        W22631  42.742   8.791   0.413
51049W        W22632  22.300   7.214   4.059
51050W        W22633  38.328  15.703   3.273
51051W        W22634  14.222  36.354  12.149
51052W        W22635  17.437   3.244   2.185
51053W        W22636  40.409  28.646  14.423
51054W        W22637  37.037  41.022  14.353
51055W        W22638  28.677   7.206   4.515
51056W        W22639  39.504   2.123   0.898
51057W        W22640  36.318  10.676  11.508
51058W        W22641  20.811   6.277   4.103
51059W        W22642  41.072   1.687   0.242
51060W        W22643  27.672  15.809   2.370
51061W        W22644  28.114  43.042   4.196
51062W        W22645   7.063  28.396  12.513
51063W        W22646  39.778   3.224  13.674
51064W        W22647  35.600  11.490   0.472
51065W        W22648  22.377  10.150   9.739
51066W        W22649  32.051  18.683   0.870
51067W        W22650  35.616  25.069   3.809
51068W        W22651  30.110  33.208   3.807
51069W        W22652  16.972  11.186   4.155
51070W        W22653  19.732  14.007  14.936
51071W        W22654   4.308   9.865   0.766
51072W        W22655  11.348   1.587  12.020
51073W        W22656  40.346  15.789   1.338
51074W        W22657  12.253   0.361  10.627
51075W        W22658  42.993   1.888   1.459
51076W        W22659  16.532  19.266  13.366
51077W        W22660  37.397  18.643   3.120
51078W        W22661  30.036  19.136  11.521
51079W        W22662  35.636  17.064  13.071
51080W        W22663  25.648  29.821  11.832
51081W        W22664  22.734  10.907  14.509
51082W        W22665  32.435   5.896  13.102
51083W        W22666  42.521   7.195   2.818
51084W        W22667  28.491  41.882  13.619
51085W        W22668  34.519  43.032  10.005
51086W        W22669  16.761   9.420   1.623
51087W        W22670   4.725  43.918   0.417
51088W        W22671  34.563  23.601  12.836
51089W        W22672  26.021   0.524  10.657
51090W        W22673  12.434  40.257   2.815
51091W        W22674  31.241  16.131   3.580
51092W        W22675  25.790   9.730  10.261
51093W        W22676  11.145  36.600  12.556
51094W        W22677  43.487  17.279   2.793
51095W        W22678  34.947  19.019  12.934
51096W        W22679  39.748  11.693   3.571
51097W        W22680  32.355   5.873   0.511
51098W        W22681  12.668  12.245   3.153
51099W        W22682   6.394  13.860  11.577
51100W        W22683   5.063   3.187  11.475
51101W        W22684   9.204  11.736   0.243
51102W        W22685  11.190  26.062  13.752
51103W        W22686  35.586   0.915   1.636
51104W        W22687  29.081  38.003   4.562
51105W        W22688   2.721  13.084  11.148
51106W        W22689  31.932   5.799   2.136
51107W        W22690  16.805  34.492  13.083
51108W        W22691  27.489  12.706   1.968
51109W        W22692  18.394  44.386   0.025
51110W        W22693   5.381   8.173  12.825
51111W        W22694  37.813  40.385   1.746
51112W        W22695  11.314  28.533  12.476
51113W        W22696  34.653  25.616   2.530
51114W        W22697   8.413  11.405  14.312
51115W        W22698   9.109  32.623  14.425
51116W        W22699  21.702  14.763  13.219
51117W        W22700  13.152   6.981   3.182
51118W        W22701  12.163   0.811  10.912
51119W        W22702  22.237   7.414   0.925
51120W        W22703  26.122  31.469  14.959
51121W        W22704  33.374  10.166  12.621
51122W        W22705  29.661  12.344  13.099
51123W        W22706  10.132  44.159  14.940
51124W        W22707  20.579   6.417  14.148
51125W        W22708  44.474  18.033   1.483
51126W        W22709  18.799   5.040  11.148
51127W        W22710  17.038   0.908  11.518
51128W        W22711  44.124  27.066  10.542
51129W        W22712   9.819  29.109   1.710
51130W        W22713   7.335  12.282   3.148
51131W        W22714  33.365   3.018   3.280
51132W        W22715  22.484  15.837   3.635
51133W        W22716  38.821  40.670   2.950
51134W        W22717   8.155   4.426  14.428
51135W        W22718  25.655  14.004   0.284
51136W        W22719  24.116   8.865   2.384
51137W        W22720  39.382  12.083   3.773
51138W        W22721  36.434  30.441   2.097
51139W        W22722  15.717  38.861   0.700
51140W        W22723   9.628   0.534  14.775
51141W        W22724  41.534   8.868   0.846
51142W        W22725  14.474  43.904  12.416
51143W        W22726  36.490  10.589  14.012
51144W        W22727  28.928  44.434  11.088
51145W        W22728   5.278  15.599   1.819
51146W        W22729  35.562   5.685   0.796
51147W        W22730   0.721  25.707  13.580
51148W        W22731  44.384  34.099   4.875
51149W        W22732  15.766  41.514   3.866
51150W        W22733  41.038   8.725  12.568
51151W        W22734  33.035  14.113   1.742
51152W        W22735  20.084  20.095   1.727
51153W        W22736  16.285  36.320   1.272
51154W        W22737   4.488  24.714   2.687
51155W        W22738  39.851   7.194   1.863
51156W        W22739   6.220   4.237  13.909
51157W        W22740   1.299  21.295   3.273
51158W        W22741  35.380  20.568   5.007
51159W        W22742  12.872  14.162   1.162
51160W        W22743  13.310  17.168  12.785
51161W        W22744  17.289   3.317   0.477
51162W        W22745  28.638  44.244   1.287
51163W        W22746  24.102  12.626   3.223
51164W        W22747  16.235  18.229  14.746
51165W        W22748  39.393   5.451   2.788
51166W        W22749  19.977  27.005   1.310
51167W        W22750   4.173  42.413  14.882
51168W        W22751  39.628  44.971   0.374
51169W        W22752  39.022  18.269   0.702
51170W        W22753  22.480  32.407   1.934
51171W        W22754  44.001  42.219  11.756
51172W        W22755  18.061  38.783   1.538
51173W        W22756  19.173  17.696  11.419
51174W        W22757  33.484  15.413   0.935
51175W        W22758   3.872  27.051   2.750
51176W        W22759   3.013   2.198  10.556
51177W        W22760  24.014   9.597   4.060
51178W        W22761  24.257  37.136  13.764
51179W        W22762  33.426   8.162   1.002
51180W        W22763  17.986  23.085   5.401
51181W        W22764   1.972   9.683   0.337
51182W        W22765  30.952  23.646  12.391
51183W        W22766  32.072  30.785   3.178
51184W        W22767  27.870  43.986   2.403
51185W        W22768  24.085  23.793   4.151
51186W        W22769  32.841  26.031   3.647
51187W        W22770  33.587   3.667   0.779
51188W        W22771  18.201   4.587   2.952
51189W        W22772  23.963   3.220  11.954
51190W        W22773  43.442   1.540   4.141
51191W        W22774  40.580   3.417   3.144
51192W        W22775  29.918  19.168  10.440
51193W        W22776  41.764  39.864   1.929
51194W        W22777   0.962  37.371   0.975
51195W        W22778  15.325  11.178  12.909
51196W        W22779  22.172  33.451   0.803
51197W        W22780   1.249  23.075  11.950
51198W        W22781  30.138  39.285   0.361
51199W        W22782  41.069  41.121  14.079
51200W        W22783  19.043  36.970   1.761
51201W        W22784  14.238  41.929   0.012
51202W        W22785  28.920  23.671  12.025
51203W        W22786  30.656   4.785  11.810
51204W        W22787  26.539  40.243   1.464
51205W        W22788  31.907  36.907   1.782
51206W        W22789  22.304  13.306  14.451
51207W        W22790  13.603  10.407   4.617
51208W        W22791  28.564  13.281  11.531
51209W        W22792   5.568  33.574   3.683
51210W        W22793  26.831   2.331  14.220
51211W        W22794   3.908  42.793   4.355
51212W        W22795  20.259  41.277  11.102
51213W        W22796   1.735  24.562   2.126
51214W        W22797  38.445   7.413  12.597
51215W        W22798  31.943   8.599  11.190
51216W        W22799  26.119  31.654   3.507
51217W        W22800  15.185  35.399  12.849
51218W        W22801  17.071   3.967  13.379
51219W        W22802  17.346  13.596   4.194
51220W        W22803  30.263   0.392  12.953
51221W        W22804  18.023   9.886   0.463
51222W        W22805  36.200  32.671   0.800
51223W        W22806  30.751  40.902   1.853
51224W        W22807  21.031  17.701  13.339
51225W        W22808  32.517  42.766   2.302
51226W        W22809  32.544  40.648  14.042
51227W        W22810  30.015  41.775  12.010
51228W        W22811  18.236  21.627   0.807
51229W        W22812  31.869   0.413   4.957
51230W        W22813   7.102   4.803  12.445
51231W        W22814  32.464   2.751   2.407
51232W        W22815  37.695   7.270   5.372
51233W        W22816  39.966  35.114  14.818
51234W        W22817  41.321  40.756  14.362
51235W        W22818  41.873  44.298   1.184
51236W        W22819  22.686   9.745   3.229
51237W        W22820  39.049  19.569   1.676
51238W        W22821  44.435  27.217   2.618
51239W        W22822  13.393   2.265   3.592
51240W        W22823  11.549  17.643   0.242
51241W        W22824   7.718  28.144  13.805
51242W        W22825  25.474   3.507   1.091
51243W        W22826  36.644  25.402   4.048
51244W        W22827   8.818   7.657   2.789
51245W        W22828  31.394   2.964  13.054
51246W        W22829  22.905  12.432  11.095
51247W        W22830   1.839  41.435  13.415
51248W        W22831  10.316  12.585  12.032
51249W        W22832  18.766  12.429  14.472
51250W        W22833  20.832  35.939  14.308
51251W        W22834  30.481  37.416  12.415
51252W        W22835  31.433  24.017   1.354
51253W        W22836  33.380  16.327  12.278
51254W        W22837  25.022  43.873   4.709
51255W        W22838  28.035  31.208   4.725
51256W        W22839  41.861  35.161  12.465
51257W        W22840  44.470  20.526  10.953
51258W        W22841  12.258  40.570   1.693
51259W        W22842  28.492  14.081  11.970
51260W        W22843   0.246  23.984  12.936
51261W        W22844  19.110  24.284   4.193
51262W        W22845  18.749  39.797  12.556
51263W        W22846  14.760  35.191   5.488
51264W        W22847  15.070   4.604  12.079
51265W        W22848  34.487  25.152   2.903
51266W        W22849  42.272   0.277   0.246
51267W        W22850   0.067  37.572   1.863
51268W        W22851  25.365  42.243  12.091
51269W        W22852   1.897   9.248   0.650
51270W        W22853  36.381   6.483   0.365
51271W        W22854  22.064  28.658  13.034
51272W        W22855  28.102  27.437   3.633
51273W        W22856  24.418  20.327   1.379
51274W        W22857  23.667  42.043  14.194
51275W        W22858  32.610  27.584  10.491
51276W        W22859  25.688  29.159  14.733
51277W        W22860   0.751  23.343   0.223
51278W        W22861  18.760   7.453  12.438
51279W        W22862  12.597  37.500   2.876
51280W        W22863  36.152  34.512   4.944
51281W        W22864  29.632  15.406  12.046
51282W        W22865  19.576  17.249  11.206
51283W        W22866   3.326  31.672  13.876
51284W        W22867   1.420   2.270   4.592
51285W        W22868  41.419  43.476  14.879
51286W        W22869  39.516  41.247  14.253
51287W        W22870  36.577  42.888   2.025
51288W        W22871  33.913   7.167  10.859
51289W        W22872  28.311  34.070  11.610
51290W        W22873   0.415  31.823   1.431
51291W        W22874  40.665  12.608   1.336
51292W        W22875  41.236  19.460  11.618
51293W        W22876  20.174  20.302   5.477
51294W        W22877  17.549  40.663   4.154
51295W        W22878   1.380  34.660   0.393
51296W        W22879   7.492  16.607   0.190
51297W        W22880  10.654  20.227  13.741
51298W        W22881  36.673  12.752   1.267
51299W        W22882  17.098   3.109   1.334
51300W        W22883  21.085  22.522  13.405
51301W        W22884  16.166  42.711   3.431
51302W        W22885  11.224  38.493  10.331
51303W        W22886  21.470  29.130  13.526
51304W        W22887  31.078   1.329   1.880
51305W        W22888  42.441  20.704  10.592
51306W        W22889  36.954  26.088   0.486
51307W        W22890  42.572  42.884  12.757
51308W        W22891  22.245  23.524   4.522
51309W        W22892  13.333  29.289   0.984
51310W        W22893  30.282   2.387   2.260
51311W        W22894  14.822  19.109  12.823
51312W        W22895  34.103   1.248   3.306
51313W        W22896  18.433  19.034  12.434
51314W        W22897   4.619  42.918  11.673
51315W        W22898  16.287  35.336   5.041
51316W        W22899  25.951  11.801   0.539
51317W        W22900   9.256  40.596  10.710
51318W        W22901  38.377  18.103  11.880
51319W        W22902   6.670  42.347  11.565
51320W        W22903  41.128  17.229   2.566
51321W        W22904   1.339  30.764  10.627
51322W        W22905  34.901  18.158   2.291
51323W        W22906  18.149  34.990  10.893
51324W        W22907  27.697  29.935  13.590
51325W        W22908  21.231   2.183  14.926
51326W        W22909   8.154  30.978  10.769
51327W        W22910   4.978   4.144  14.333
51328W        W22911   0.830  35.913  12.064
51329W        W22912   5.885  38.055   1.814
51330W        W22913   7.918  12.917  11.219
51331W        W22914  34.655  17.836   1.391
51332W        W22915  20.023  43.536   3.509
51333W        W22916  25.454   5.474   4.132
51334W        W22917  20.708  42.913  11.659
51335W        W22918  37.875   8.658  14.993
51336W        W22919  12.559  25.230   2.870
51337W        W22920  28.728  12.612   0.280
51338W        W22921  39.885  24.529   3.938
51339W        W22922  34.992   5.264  11.225
51340W        W22923  30.055   1.751   4.278
51341W        W22924  31.054  21.195   1.657
51342W        W22925   1.317  20.487   0.228
51343W        W22926   2.660  13.581   2.763
51344W        W22927   3.002  32.369  12.899
51345W        W22928  44.302   9.810   1.956
51346W        W22929  24.267  20.965   4.542
51347W        W22930  36.115  10.847   4.100
51348W        W22931  44.959   7.259  10.604
51349W        W22932  23.568  40.529  13.944
51350W        W22933  18.904  18.548   9.837
51351W        W22934  11.310  26.012   2.344
51352W        W22935  23.280  28.059  14.688
51353W        W22936  40.860   6.620   5.022
51354W        W22937  25.314  42.715   1.346
51355W        W22938  41.145  15.758  11.588
51356W        W22939   1.381   4.658  12.484
51357W        W22940  34.502  11.249   0.975
51358W        W22941  22.683  38.310  11.536
51359W        W22942  10.356  27.093  11.897
51360W        W22943   1.449   4.412   3.859
51361W        W22944  25.241  27.848  12.882
51362W        W22945  11.630   3.436   3.243
51363W        W22946  32.102   9.894   3.243
51364W        W22947  32.518  34.363   3.608
51365W        W22948  23.819  36.846   1.791
51366W        W22949   5.761  27.402  11.128
51367W        W22950  38.331  16.546   1.330
51368W        W22951  11.880  16.452  14.365
51369W        W22952  28.853  43.881   0.984
51370W        W22953  28.987  37.083  12.649
51371W        W22954  22.224  28.104  10.970
51372W        W22955  12.707  33.895  14.811
51373W        W22956  39.024  23.557  12.502
51374W        W22957  10.184  34.013   1.352
51375W        W22958  44.828  22.942  11.037
51376W        W22959  12.097  26.478  12.012
51377W        W22960  10.587   8.664  12.617
51378W        W22961   4.905  31.165   1.210
51379W        W22962   2.895  19.353   3.760
51380W        W22963  30.021  18.626   1.735
51381W        W22964   3.754   1.388  11.223
51382W        W22965  28.601  30.438   3.747
51383W        W22966  12.558  18.134   3.254
51384W        W22967  22.827  23.527  12.904
51385W        W22968   4.948  34.874  12.486
51386W        W22969  34.728  13.782  13.502
51387W        W22970  18.270   9.172   0.837
51388W        W22971  42.011   4.391  13.992
51389W        W22972  38.340   8.417  14.917
51390W        W22973  32.596  31.563   4.628
51391W        W22974   5.352  14.352   3.712
51392W        W22975  16.284  35.610   4.197
51393W        W22976  14.554  17.527  13.501
51394W        W22977  26.584  24.944  11.177
51395W        W22978  17.674  34.606  12.906
51396W        W22979   6.359  20.252  11.468
51397W        W22980  18.817  29.029   4.309
51398W        W22981  33.672  25.616   2.195
51399W        W22982  42.251  42.814   3.586
51400W        W22983   1.855  28.381   0.392
51401W        W22984   7.862  21.495   2.538
51402W        W22985  36.905  42.783   1.625
51403W        W22986  43.156  16.050   4.181
51404W        W22987  32.100  16.686   1.498
51405W        W22988  42.378   4.707   3.995
51406W        W22989   3.569   3.190  12.023
51407W        W22990   8.131  25.538   1.359
51408W        W22991  13.072   2.969  10.999
51409W        W22992  43.293   8.549   2.714
51410W        W22993  17.260  39.036   1.752
51411W        W22994  28.195  17.208  10.498
51412W        W22995  31.130  34.585   3.668
51413W        W22996  21.846  31.175  13.956
51414W        W22997  43.286   7.913   0.003
51415W        W22998  43.275  36.439   4.069
51416W        W22999  28.668  15.056   0.436
51417W        W23000  19.631  10.605   2.508
51418W        W23001  27.184  32.993  11.529
51419W        W23002   5.367   8.765   1.866
51420W        W23003   6.366  25.631   0.016
51421W        W23004  30.116  31.266   5.702
51422W        W23005  13.436   4.246  11.569
51423W        W23006  13.339  23.815  13.093
51424W        W23007  37.417  23.443  13.768
51425W        W23008   6.154  38.762   4.900
51426W        W23009  29.835   6.427  12.384
51427W        W23010   8.147  24.011  14.790
51428W        W23011  26.733  39.045  14.516
51429W        W23012  23.210   0.498  11.058
51430W        W23013   4.459   6.896  13.441
51431W        W23014  37.047   2.378  12.963
51432W        W23015  31.576  25.780   1.724
51433W        W23016  43.422  38.893   1.193
51434W        W23017  16.223  22.926  12.614
51435W        W23018   7.886  30.364   0.369
51436W        W23019  16.090   8.137   3.121
51437W        W23020  35.202  33.333   4.163
51438W        W23021   3.148  41.852   4.966
51439W        W23022  14.964  29.903  14.117
51440W        W23023  28.485  34.301  14.924
51441W        W23024   9.692  29.862  14.459
51442W        W23025   1.217  16.479   1.837
51443W        W23026  19.160  21.739   0.756
51444W        W23027  19.362  11.855  14.259
51445W        W23028   8.235  23.371   0.439
51446W        W23029  19.485  17.219   2.141
51447W        W23030  27.999  12.408  12.877
51448W        W23031  33.461  16.185   1.649
51449W        W23032  22.625  15.777   2.303
51450W        W23033  40.795   5.715   4.140
51451W        W23034  21.152  24.348   5.106
51452W        W23035  44.410   0.108  12.880
51453W        W23036  13.958  13.269  10.700
51454W        W23037  31.435  13.696   2.115
51455W        W23038  36.055  29.897   1.455
51456W        W23039  14.286  27.854  13.120
51457W        W23040  13.404  44.959  13.529
51458W        W23041  10.069  18.245  14.078
51459W        W23042   4.931  22.027   1.359
51460W        W23043   2.443   8.747   4.123
51461W        W23044  43.347   8.663   3.240
51462W        W23045   7.791  21.952   4.527
51463W        W23046   3.693  23.480  13.497
51464W        W23047  42.710  21.772  14.839
51465W        W23048   5.246   0.507  10.649
51466W        W23049  23.133   9.861   4.054
51467W        W23050  12.746  41.652   5.005
51468W        W23051  39.490  31.445  13.545
51469W        W23052  12.696  29.176   4.664
51470W        W23053  44.821   2.697   2.196
51471W        W23054  43.576  21.667  14.308
51472W        W23055   5.884  25.883   2.657
51473W        W23056  39.714   7.911  13.066
51474W        W23057  31.000  13.450   2.307
51475W        W23058  27.555  17.770   1.430
51476W        W23059   6.871  31.179   2.272
51477W        W23060  23.691   3.392  10.564
51478W        W23061  42.309  33.109   2.771
51479W        W23062  38.313   7.423   4.597
51480W        W23063  23.690   6.268  14.511
51481W        W23064   1.645  41.935  11.613
51482W        W23065   0.423  19.627  12.974
51483W        W23066  43.534   0.711  13.955
51484W        W23067  33.198  18.504  12.384
51485W        W23068  36.948  30.635  12.611
51486W        W23069   9.273   5.253  14.359
51487W        W23070  17.879   9.092  13.900
51488W        W23071  23.154  33.177   3.988
51489W        W23072  29.485  36.756   3.218
51490W        W23073  10.772   5.496  11.510
51491W        W23074  22.740  37.329   1.049
51492W        W23075  18.667  25.190   1.286
51493W        W23076  24.543  31.404   2.851
51494W        W23077  41.795  14.115   1.701
51495W        W23078   6.170  28.606   3.103
51496W        W23079  28.143  33.665   1.919
51497W        W23080  25.191  42.347   1.726
51498W        W23081   7.310  37.431   0.060
51499W        W23082  42.174  18.722   2.841
51500W        W23083  17.228  43.460  12.956
51501W        W23084  35.115  14.596  10.354
51502W        W23085  18.003  23.651   4.597
51503W        W23086  25.181   3.289  11.652
51504W        W23087   9.898  35.417   1.893
51505W        W23088  13.120  22.891   3.089
51506W        W23089   5.694  23.244  12.060
51507W        W23090   5.929  12.400  11.407
51508W        W23091   8.291  37.910   1.469
51509W        W23092  40.317  19.596  13.918
51510W        W23093   6.821  18.273   4.729
51511W        W23094   2.297   4.701   3.977
51512W        W23095  43.570   5.929   3.045
51513W        W23096  14.893  37.466   1.401
51514W        W23097  10.184  11.843  14.069
51515W        W23098   3.720  11.765   1.712
51516W        W23099  13.604  28.960  12.444
51517W        W23100  39.270  18.799   0.773
51518W        W23101  16.738  26.074   1.387
51519W        W23102  37.480  14.016  10.813
51520W        W23103  26.543  36.590  12.053
51521W        W23104  39.568  32.944  11.159
51522W        W23105  15.348  44.670  12.005
51523W        W23106  38.734   2.069   3.093
51524W        W23107   4.851  40.023   0.685
51525W        W23108  18.719  38.596   1.408
51526W        W23109   7.274  43.029   1.833
51527W        W23110  37.493  38.463  10.926
51528W        W23111   4.418   7.892  12.626
51529W        W23112  28.931  32.406   0.672
51530W        W23113   2.465  29.969  13.887
51531W        W23114  28.397  26.579  14.552
51532W        W23115  22.397  31.998   3.183
51533W        W23116  28.100   5.355   4.524
51534W        W23117  15.229  33.927   4.097
51535W        W23118  29.572  21.026   4.513
51536W        W23119  21.225   7.442  13.415
51537W        W23120  38.306  33.252  13.049
51538W        W23121  44.307  33.040  12.004
51539W        W23122  27.090  18.093   4.879
51540W        W23123  35.452  26.429  14.675
51541W        W23124  22.329  16.128  12.433
51542W        W23125  12.127  21.234  10.711
51543W        W23126   7.388  24.489   0.985
51544W        W23127  11.415  24.018   1.772
51545W        W23128  41.914  16.281  11.498
51546W        W23129  24.297  38.991  12.624
51547W        W23130   8.205  25.463  13.868
51548W        W23131  12.555  15.344   1.421
51549W        W23132  29.487   5.699  12.816
51550W        W23133  39.106  38.739  11.568
51551W        W23134   8.502   7.396  13.332
51552W        W23135  37.511  13.726   3.644
51553W        W23136  13.027  34.371   3.189
51554W        W23137  31.633  42.418  10.754
51555W        W23138  32.877   6.369  12.073
51556W        W23139   1.745  42.635  11.043
51557W        W23140  28.595  41.091  14.342
51558W        W23141   9.434   2.260   4.144
51559W        W23142  43.965  15.191   0.249
51560W        W23143   0.496  13.050   0.763
51561W        W23144  23.251   1.772  10.602
51562W        W23145  29.344  20.984   9.857
51563W        W23146  34.904  16.309   1.767
51564W        W23147  12.829  44.430  13.059
51565W        W23148   4.748  39.266  12.597
51566W        W23149  36.857  24.691  10.982
51567W        W23150  41.401  26.375  12.938
51568W        W23151  36.880  39.010   2.832
51569W        W23152  28.310  22.460  10.540
51570W        W23153  17.695  20.053   2.423
51571W        W23154   1.523  28.190  13.820
51572W        W23155  25.071  42.696  12.101
51573W        W23156  32.891  26.880   0.366
51574W        W23157  15.839  12.669   1.484
51575W        W23158  19.422  15.055  10.715
51576W        W23159  42.551   1.027  11.697
51577W        W23160  15.280  25.218  11.485
51578W        W23161   7.767  30.864  11.494
51579W        W23162  28.768  20.723   0.321
51580W        W23163  39.354  13.144   0.310
51581W        W23164  11.735  39.296   5.010
51582W        W23165   6.928  37.562  12.469
51583W        W23166   3.227  38.770  13.317
51584W        W23167   0.718  10.047  11.504
51585W        W23168  40.456   0.809   2.366
51586W        W23169   2.714  31.015   1.766
51587W        W23170  13.226  35.774   1.417
51588W        W23171  41.395   0.305   1.029
51589W        W23172  42.777  34.549   3.241
51590W        W23173   1.748  20.201  12.381
51591W        W23174   1.941  10.414   4.233
51592W        W23175  13.945   0.502  14.331
51593W        W23176   3.634  23.093  12.861
51594W        W23177  33.844  12.712  12.036
51595W        W23178   1.292   0.281   0.274
51596W        W23179  16.997   9.325   2.646
51597W        W23180  17.545  36.014  12.083
51598W        W23181  19.316  21.122  13.612
51599W        W23182  33.924  34.048  14.348
51600W        W23183  37.234  23.977   3.661
51601W        W23184   9.773  26.087   1.681
51602W        W23185  39.429   8.011  10.179
51603W        W23186  23.265  35.868  11.123
51604W        W23187  38.982  10.111  12.963
51605W        W23188  21.062  35.925   4.341
51606W        W23189  18.605  22.644   0.732
51607W        W23190   7.246  19.098   0.676
51608W        W23191  42.939  31.922  13.360
51609W        W23192  14.838  25.720  12.926
51610W        W23193  12.876  37.629  11.932
51611W        W23194   0.805  29.425   4.979
51612W        W23195  15.938  23.505  11.330
51613W        W23196  26.733  36.041  14.216
51614W        W23197  23.974  25.079  11.995
51615W        W23198  29.497  35.110   2.754
51616W        W23199   5.796   3.902  14.883
51617W        W23200  30.954   2.344  13.847
51618W        W23201   4.030  14.750   2.208
51619W        W23202  27.970   2.800   1.222
51620W        W23203  22.105  36.791   1.455
51621W        W23204  27.956  13.244   2.501
51622W        W23205  35.823  38.043   2.881
51623W        W23206  14.854  18.484   0.831
51624W        W23207  34.015  18.642  10.464
51625W        W23208   2.200  13.094   1.303
51626W        W23209   2.923  14.250  14.963
51627W        W23210  33.514  41.333  10.711
51628W        W23211  14.699   9.860   1.440
51629W        W23212  41.425  19.564   3.029
51630W        W23213   1.421  35.849  10.613
51631W        W23214   8.801  11.767  14.308
51632W        W23215  44.385  17.056  10.377
51633W        W23216  29.944  32.368   4.980
51634W        W23217  17.874  38.844  14.379
51635W        W23218   4.766  33.585  14.833
51636W        W23219  22.535  33.618   3.207
51637W        W23220  41.547  43.038  11.642
51638W        W23221   5.050  21.058   5.153
51639W        W23222  39.837  28.682   2.263
51640W        W23223  17.420  22.569  14.011
51641W        W23224  44.540  15.624   0.760
51642W        W23225  42.757  38.496   2.813
51643W        W23226  13.821  43.218  14.037
51644W        W23227  23.778  28.647   3.413
51645W        W23228  11.807  18.231   0.014
51646W        W23229  28.112  35.131  10.241
51647W        W23230   0.421  11.397   0.509
51648W        W23231  31.422  10.901   2.757
51649W        W23232  34.440   8.993  11.632
51650W        W23233  40.486  23.203   3.427
51651W        W23234  32.566  44.407  14.404
51652W        W23235  27.858  41.779   0.995
51653W        W23236  34.351   6.369  14.223
51654W        W23237  29.474  28.453  13.881
51655W        W23238  31.399   4.604  10.513
51656W        W23239   6.446  39.996   4.210
51657W        W23240  44.122  20.641  12.992
51658W        W23241  39.341  31.526   4.781
51659W        W23242  15.367   7.867  12.567
51660W        W23243  28.137  18.276  14.177
51661W        W23244  22.250  40.470   0.812
51662W        W23245   5.421  29.725   3.618
51663W        W23246  20.123  21.235  10.197
51664W        W23247  13.775  37.503  10.940
51665W        W23248  26.411  31.215  13.934
51666W        W23249  10.793  37.054  11.741
51667W        W23250  18.180  31.123  11.141
51668W        W23251  41.930  30.871   3.492
51669W        W23252  10.804  28.409   0.349
51670W        W23253  22.607  42.668   3.269
51671W        W23254  41.976  43.096   5.112
51672W        W23255  11.310  21.350  12.237
51673W        W23256  38.650  39.025   0.755
51674W        W23257  22.969  22.894   1.464
51675W        W23258  34.616   8.515  11.603
51676W        W23259  41.619  40.422   0.214
51677W        W23260   2.839  20.780  12.102
51678W        W23261  22.147  26.230   4.175
51679W        W23262   0.305  26.030  13.917
51680W        W23263   8.702  41.814   0.350
51681W        W23264  24.130  12.540   2.279
51682W        W23265  18.828  41.288   1.741
51683W        W23266  40.512  28.264   4.638
51684W        W23267  10.820   4.308  11.093
51685W        W23268  21.285  43.949  11.015
51686W        W23269   5.548  41.305  11.948
51687W        W23270  15.609   3.537   4.650
51688W        W23271  43.779  30.207  14.076
51689W        W23272  11.678  21.155   3.164
51690W        W23273  33.416  23.523  14.372
51691W        W23274   5.335  22.289  10.960
51692W        W23275  40.531  24.063   3.841
51693W        W23276  18.757  11.500  13.449
51694W        W23277  31.490  36.047  12.803
51695W        W23278  15.071  37.499  10.653
51696W        W23279  43.382  15.251   4.684
51697W        W23280  31.186  41.731   1.376
51698W        W23281  29.999   5.744  12.648
51699W        W23282  29.649  41.761  13.654
51700W        W23283  18.832  43.227   0.314
51701W        W23284  28.150   2.771  13.186
51702W        W23285  31.154  27.489   0.431
51703W        W23286  39.516  20.330   2.149
51704W        W23287  26.592  44.923   0.853
51705W        W23288  10.463  35.377  12.857
51706W        W23289  20.409  28.412   3.908
51707W        W23290  33.461  20.093  10.707
51708W        W23291   4.721  29.944  12.994
51709W        W23292   7.251  22.723   4.783
51710W        W23293  19.469  25.490   2.648
51711W        W23294  34.537  18.837  11.196
51712W        W23295   9.580  38.149  12.568
51713W        W23296  32.298  15.210   4.624
51714W        W23297  10.202  38.432   2.324
51715W        W23298  38.307  44.461  13.060
51716W        W23299  37.315  20.799   1.878
51717W        W23300  13.544  13.640  14.404
51718W        W23301   4.253  21.923  11.141
51719W        W23302  17.658  33.427  11.530
51720W        W23303  35.948  27.665  12.084
51721W        W23304   1.884  39.562   2.105
51722W        W23305  33.727  39.162   3.586
51723W        W23306   2.861   0.975  14.714
51724W        W23307  15.237  17.910   0.874
51725W        W23308  21.984  44.969  13.127
51726W        W23309  38.424  39.603   1.773
51727W        W23310  41.514  35.161  13.571
51728W        W23311  44.871  29.755   2.272
51729W        W23312  34.133  33.203  13.095
51730W        W23313   9.576  11.618  10.758
51731W        W23314   4.842   6.273  14.487
51732W        W23315  21.194  13.579   1.795
51733W        W23316  41.853  44.992   0.475
51734W        W23317   9.651   6.600  14.628
51735W        W23318  35.813  43.148  10.770
51736W        W23319   8.422  44.372   0.456
51737W        W23320  13.183  33.112   4.394
51738W        W23321  23.151  32.139   3.866
51739W        W23322  35.853  38.524   1.004
51740W        W23323  28.159  32.364   2.347
51741W        W23324   8.367   8.370  11.569
51742W        W23325   6.990  28.166   1.885
51743W        W23326  18.098  11.394  13.011
51744W        W23327  18.213  30.467   1.222
51745W        W23328  41.471  20.603   3.757
51746W        W23329  34.448  11.151  12.973
51747W        W23330  42.189  31.766   3.647
51748W        W23331   1.838  24.065  13.823
51749W        W23332  14.747  12.952  13.071
51750W        W23333  32.523  28.625   3.737
51751W        W23334  38.150  26.133  11.086
51752W        W23335  40.250  42.829   4.495
51753W        W23336   0.324  23.482   0.966
51754W        W23337   6.851  18.795   3.371
51755W        W23338  35.891  14.140  14.788
51756W        W23339  29.456  32.600   0.203
51757W        W23340  37.092   7.190  13.062
51758W        W23341  15.022  34.991   2.799
51759W        W23342  31.728   9.339   1.316
51760W        W23343  26.502  29.061   4.475
51761W        W23344   6.259  43.815  14.813
51762W        W23345  41.488  27.408  13.892
51763W        W23346  30.734  24.865   3.268
51764W        W23347   9.415  35.444  13.532
51765W        W23348   8.397  34.150  11.516
51766W        W23349  38.242  19.626  14.533
51767W        W23350  21.709   7.964  14.079
51768W        W23351  14.580  34.513   2.149
51769W        W23352   8.508  23.744   0.710
51770W        W23353   1.986  10.959  12.956
51771W        W23354   5.844  21.641   4.249
51772W        W23355  31.304  12.903   9.895
51773W        W23356  40.752  16.288   2.331
51774W        W23357  41.839  11.177  11.670
51775W        W23358  26.045  29.341  11.122
51776W        W23359   3.162  39.155  12.014
51777W        W23360  27.317  32.131  12.064
51778W        W23361  22.475   1.038   4.967
51779W        W23362  17.635  43.767  14.081
51780W        W23363  25.189  14.608   4.153
51781W        W23364  16.527   6.334   2.211
51782W        W23365  19.524   8.181   4.133
51783W        W23366  33.949  12.756   2.857
51784W        W23367  42.613  25.590   0.875
51785W        W23368  40.834   6.628  11.579
51786W        W23369  30.138  26.653  13.569
51787W        W23370  16.331  27.610  13.439
51788W        W23371  35.888   8.657   0.407
51789W        W23372  21.770  20.093   4.047
51790W        W23373  22.433  19.704   3.660
51791W        W23374   1.881  25.163  11.160
51792W        W23375  36.367  40.916   4.787
51793W        W23376  23.323  28.965   3.779
51794W        W23377   3.921  36.406   5.461
51795W        W23378  44.495  42.267  13.979
51796W        W23379  31.613  22.154  14.319
51797W        W23380  27.479   7.134   3.662
51798W        W23381  14.885  44.429  10.785
51799W        W23382  36.868  22.733   4.962
51800W        W23383  11.881  35.053  13.061
51801W        W23384  10.714   5.976   2.268
51802W        W23385  10.314  42.399   1.214
51803W        W23386  24.533  42.933  13.307
51804W        W23387  34.190  37.491   3.320
51805W        W23388  36.949  42.314  11.062
51806W        W23389   5.979  31.073  12.957
51807W        W23390  25.469  18.200  13.369
51808W        W23391  30.378  17.097   3.012
51809W        W23392  40.799  37.994  13.380
51810W        W23393  19.070   2.869   3.183
51811W        W23394  41.961  23.191  13.998
51812W        W23395  16.231  20.855   1.797
51813W        W23396   8.324  17.020  13.513
51814W        W23397  27.698  35.460  14.361
51815W        W23398  10.833  18.686  11.602
51816W        W23399  20.674   2.229  14.388
51817W        W23400   0.829  13.329  11.970
51818W        W23401   8.915  44.151   3.132
51819W        W23402   3.247  35.755  14.405
51820W        W23403  19.257   1.787   4.462
51821W        W23404   6.122  30.927  14.966
51822W        W23405  43.796  30.634   2.470
51823W        W23406  22.190  10.689   1.827
51824W        W23407  44.268  17.196  13.357
51825W        W23408   6.859  15.179   2.918
51826W        W23409  37.295  42.895  13.785
51827W        W23410  16.714  14.440   3.963
51828W        W23411   7.952  37.839   0.477
51829W        W23412  30.597   4.313   2.742
51830W        W23413  37.685  32.060   1.973
51831W        W23414  12.857   2.938   4.007
51832W        W23415   3.343  34.164   0.752
51833W        W23416  43.066  25.608   3.531
51834W        W23417   9.749  24.004  13.756
51835W        W23418  18.157   9.826   1.355
51836W        W23419   1.321  20.609   4.562
51837W        W23420  16.702  40.782   0.253
51838W        W23421  38.859  26.183  13.710
51839W        W23422   2.478   2.824   0.375
51840W        W23423  31.128  17.272  10.638
51841W        W23424  41.320  26.271  10.658
51842W        W23425  13.952  29.455   4.247
51843W        W23426  43.822  38.450  14.213
51844W        W23427  36.875  21.185  12.094
51845W        W23428  39.792   6.667  13.036
51846W        W23429  32.055  31.835   1.369
51847W        W23430   5.415  21.595   2.288
51848W        W23431   0.308  33.917  14.998
51849W        W23432  16.080  31.847  14.432
51850W        W23433  22.210  16.856  11.970
51851W        W23434  35.295   7.919  11.525
51852W        W23435  25.927   5.964   0.801
51853W        W23436  28.905  13.349   1.438
51854W        W23437  37.655  30.528  10.708
51855W        W23438  15.411  11.589  10.146
51856W        W23439  12.539  18.588  12.454
51857W        W23440   6.723  25.435  12.381
51858W        W23441  28.065  43.206  14.884
51859W        W23442  27.973  16.841  14.429
51860W        W23443  13.433  35.109   4.634
51861W        W23444  20.231   6.734  10.905
51862W        W23445  11.747  13.814  13.386
51863W        W23446  33.978   4.943   2.653
51864W        W23447  31.907  15.730  11.117
51865W        W23448  30.446   9.915   3.163
51866W        W23449  21.080  13.090   1.409
51867W        W23450   6.235  32.414  11.014
51868W        W23451   8.661  33.683   3.101
51869W        W23452  43.336  31.520  11.248
51870W        W23453   6.241  41.559  13.963
51871W        W23454  22.291  19.318   0.482
51872W        W23455  32.127  23.693  14.478
51873W        W23456   5.941   1.656   0.202
51874W        W23457  21.185  12.247   4.587
51875W        W23458  26.863   0.164  13.884
51876W        W23459  12.944  37.138  12.877
51877W        W23460   3.914   7.303   0.813
51878W        W23461  18.339  12.900  11.867
51879W        W23462   1.879  19.065   1.366
51880W        W23463  34.044   6.348   2.124
51881W        W23464  35.313  41.999  12.566
51882W        W23465  17.105  22.450   3.927
51883W        W23466   0.547  21.485  11.846
51884W        W23467  40.788  44.899   1.947
51885W        W23468   9.887  37.512  13.829
51886W        W23469   0.691  26.446  11.531
51887W        W23470   1.834   1.040  14.850
51888W        W23471  33.729  21.952  13.447
51889W        W23472  10.711  31.953  11.677
51890W        W23473  11.426  39.552  13.524
51891W        W23474   6.212  42.932   3.320
51892W        W23475   9.944  24.348   1.963
51893W        W23476   6.741  32.556   2.341
51894W        W23477  19.589  44.098  11.995
51895W        W23478  11.255  24.542   3.638
51896W        W23479  13.211  32.997   0.770
51897W        W23480  38.526   6.123   2.807
51898W        W23481  11.809   5.138  14.238
51899W        W23482  38.486   9.436   1.351
51900W        W23483   0.193  19.447  12.536
51901W        W23484  12.063  14.864  13.834
51902W        W23485  43.744  16.834   2.814
51903W        W23486  24.211  11.168   0.389
51904W        W23487  31.709  30.003  14.305
51905W        W23488   3.889   2.309   4.118
51906W        W23489   6.251  15.686  10.276
51907W        W23490   1.948  43.975   3.291
51908W        W23491   5.193  39.549  12.583
51909W        W23492   9.097  19.290  11.899
51910W        W23493  27.482  27.997   0.391
51911W        W23494  36.903  35.565   2.337
51912W        W23495  31.149  23.565   1.240
51913W        W23496  11.309  40.406  14.906
51914W        W23497  36.442  22.117   2.768
51915W        W23498  44.001  38.464  11.024
51916W        W23499  44.266  40.659   2.567
51917W        W23500  25.138  22.015   4.892
51918W        W23501  28.345  19.165   1.877
51919W        W23502   8.938  41.268   1.245
51920W        W23503  36.097  26.003   0.529
51921W        W23504  31.417   4.336  14.369
51922W        W23505  22.126  30.571   5.130
51923W        W23506   1.131  41.354  12.069
51924W        W23507  42.819  23.509  10.967
51925W        W23508  32.866  12.615  12.883
51926W        W23509  43.235  27.963   3.758
51927W        W23510  40.092  29.679  13.812
51928W        W23511  26.336  14.573  11.904
51929W        W23512  44.447  28.162   2.244
51930W        W23513  37.327  37.939   3.597
51931W        W23514  22.020  10.881  11.087
51932W        W23515  31.180   3.326   1.311
51933W        W23516  39.406  10.121  13.823
51934W        W23517   1.994  16.658  11.490
51935W        W23518  29.989  26.988   0.754
51936W        W23519  31.103  31.618   3.120
51937W        W23520  22.271  12.365   3.651
51938W        W23521   0.736  27.625   2.249
51939W        W23522  33.198  35.837   4.284
51940W        W23523  40.342   4.502   2.356
51941W        W23524  30.715   2.176  14.419
51942W        W23525  27.414  30.032  12.174
51943W        W23526  44.446  15.361  11.631
51944W        W23527  22.782  18.168  10.258
51945W        W23528  14.115   2.345   2.319
51946W        W23529  38.104  18.800  14.362
51947W        W23530  34.612   8.208   4.935
51948W        W23531   6.913  21.510  10.702
51949W        W23532  11.360  31.165   2.131
51950W        W23533   4.444  39.416   9.644
51951W        W23534   6.759  20.159  11.160
51952W        W23535  33.669   4.550  14.418
51953W        W23536  36.870  27.995  14.799
51954W        W23537  13.610  38.309   0.969
51955W        W23538  31.093  24.492   3.185
51956W        W23539  21.482  36.368  12.473
51957W        W23540  32.959   7.914  13.042
51958W        W23541  26.911   1.097  10.251
51959W        W23542   4.630  22.668  11.163
51960W        W23543  15.709  12.309   4.017
51961W        W23544  18.116  32.711  12.091
51962W        W23545   1.457  17.052   1.958
51963W        W23546  39.834  38.376  11.452
51964W        W23547  37.384  31.503  11.617
51965W        W23548  23.279   4.798   2.363
51966W        W23549   0.409  13.404   3.581
51967W        W23550  24.498   6.528   3.596
51968W        W23551  21.748  23.681   0.743
51969W        W23552  14.148   5.281   4.641
51970W        W23553  43.034  41.429  12.466
51971W        W23554  41.041   5.703  13.455
51972W        W23555  20.511   2.338   4.777
51973W        W23556  36.462  42.385   5.031
51974W        W23557  29.648  44.545   2.697
51975W        W23558  30.413   8.880  12.481
51976W        W23559  11.645  27.819  11.137
51977W        W23560  27.490  21.611   4.198
51978W        W23561  35.354   6.640   0.728
51979W        W23562  33.417  21.213   1.739
51980W        W23563  41.136  18.117  13.327
51981W        W23564  32.128  37.067   2.267
51982W        W23565  11.949  44.417  10.379
51983W        W23566  31.945  41.607  10.314
51984W        W23567  42.725  24.089   3.352
51985W        W23568  17.295  43.979  10.945
51986W        W23569  30.888  29.200   4.508
51987W        W23570  14.566  19.111  13.407
51988W        W23571  15.061  27.637   3.105
51989W        W23572  24.384   1.420   4.668
51990W        W23573  36.651  40.976  12.026
51991W        W23574  23.277  41.573   2.927
51992W        W23575  23.736   9.830  13.100
51993W        W23576   3.284  41.586  14.701
51994W        W23577  27.967   9.686   5.207
51995W        W23578  25.130  42.944   0.865
51996W        W23579  25.710  14.711   4.275
51997W        W23580  22.768   6.793  12.951
51998W        W23581   4.513   3.941  12.420
51999W        W23582  27.606  18.552  13.858
52000W        W23583  44.338  31.911   0.217
52001W        W23584  38.461   9.857  11.239
52002W        W23585  15.322  32.430  10.722
52003W        W23586  40.797  15.089   4.626
52004W        W23587  44.789  41.995   2.250
52005W        W23588  18.618  11.138   0.319
52006W        W23589  16.664  27.208  13.472
52007W        W23590  31.696   2.753   1.744
52008W        W23591  35.613  34.973  13.871
52009W        W23592  25.074  29.080   4.941
52010W        W23593  14.666  33.601   0.450
52011W        W23594  20.904   0.727   1.023
52012W        W23595  20.500  39.009  13.970
52013W        W23596  19.234   2.802  12.088
52014W        W23597   5.401  11.122  10.788
52015W        W23598  27.676  28.169  11.573
52016W        W23599  11.737  33.103   4.648
52017W        W23600   8.930   6.370   2.286
52018W        W23601  10.172  21.824   3.218
52019W        W23602   3.054  15.897  12.774
52020W        W23603   0.292  44.389   2.056
52021W        W23604  40.287  38.813  13.917
52022W        W23605  38.691   0.469  13.782
52023W        W23606  17.092   7.782   3.374
52024W        W23607  10.130  28.442  10.663
52025W        W23608  14.269  28.000   3.065
52026W        W23609  38.588  26.419  13.304
52027W        W23610  37.782   9.196  11.973
52028W        W23611  43.101  33.259  12.470
52029W        W23612  43.279   0.524  13.554
52030W        W23613  32.925  20.622   3.710
52031W        W23614  23.997  22.665  12.172
52032W        W23615  25.358  37.389   0.272
52033W        W23616  18.839  18.576   4.584
52034W        W23617  44.219   8.848  12.838
52035W        W23618   6.910  28.950  13.017
52036W        W23619  11.181  42.973   4.075
52037W        W23620  34.483   5.256   1.958
52038W        W23621  27.139  29.556  13.875
52039W        W23622   9.655   2.361   1.888
52040W        W23623  35.875  16.302  14.762
52041W        W23624  21.731  18.258   1.479
52042W        W23625  20.194  19.350   0.863
52043W        W23626  44.265   7.320   3.232
52044W        W23627   7.128  15.583   0.654
52045W        W23628   1.759   4.441   4.340
52046W        W23629  10.591  37.949   3.279
52047W        W23630  21.005  24.665   2.845
52048W        W23631  12.185  38.333  10.603
52049W        W23632  35.379  40.287   2.222
52050W        W23633   1.289   0.429  12.496
52051W        W23634  22.317   9.591   3.556
52052W        W23635  42.813  43.758   2.752
52053W        W23636  39.586  29.260  14.496
52054W        W23637  24.061  37.782  13.501
52055W        W23638  29.179  40.429   0.346
52056W        W23639   6.400  34.587  12.092
52057W        W23640  16.224  17.258   2.813
52058W        W23641  18.693  41.819  10.642
52059W        W23642   1.423   2.238  12.380
52060W        W23643  30.554   7.508   0.464
52061W        W23644   2.281  26.773   1.031
52062W        W23645   5.562  19.122  13.183
52063W        W23646  39.491  12.221  14.006
52064W        W23647  23.249   9.777   2.561
52065W        W23648   7.750  10.309   4.978
52066W        W23649   8.067  26.160   2.730
52067W        W23650  40.550  32.555   0.334
52068W        W23651   6.071  43.142  12.571
52069W        W23652  28.410  21.080  11.360
52070W        W23653  39.543   9.906  12.815
52071W        W23654   2.277   4.239  12.888
52072W        W23655   3.669  16.956  14.979
52073W        W23656  15.379   6.147  12.132
52074W        W23657  36.247  15.325   1.725
52075W        W23658   4.942  12.879  13.978
52076W        W23659  17.164  23.744  14.622
52077W        W23660   3.484  38.330   3.732
52078W        W23661  10.567  29.049  12.484
52079W        W23662   5.786  15.739   1.942
52080W        W23663   7.143  21.458  11.161
52081W        W23664  21.069  43.504  11.116
52082W        W23665  12.190  20.954   3.243
52083W        W23666  14.147  42.204   4.130
52084W        W23667   1.059  38.098  12.465
52085W        W23668  33.428  25.113  12.206
52086W        W23669  35.420  14.829   1.651
52087W        W23670  26.000   5.557   1.115
52088W        W23671   9.625  11.183   4.743
52089W        W23672  27.902  17.138   0.782
52090W        W23673  28.801  40.394  10.845
52091W        W23674  43.396  32.074  13.094
52092W        W23675  19.995  33.123   3.779
52093W        W23676   5.405  26.202   4.943
52094W        W23677  23.858   3.226  12.457
52095W        W23678  22.720  28.958  13.981
52096W        W23679  43.013  17.590  10.952
52097W        W23680  20.557   0.825  13.945
52098W        W23681   5.725  39.964   2.859
52099W        W23682  22.978  42.402  11.559
52100W        W23683  36.075   1.681  11.932
52101W        W23684  33.858  15.877  12.022
52102W        W23685  36.458  40.677  12.415
52103W        W23686  31.938  19.087  11.134
52104W        W23687  33.359  12.716   2.719
52105W        W23688  10.178  13.758  14.424
52106W        W23689  24.094  31.367   1.899
52107W        W23690  44.739  33.062  11.701
52108W        W23691   2.655  24.974  12.741
52109W        W23692   0.386   7.116  12.932
52110W        W23693  13.330   5.193   1.393
52111W        W23694  10.736  13.726  11.425
52112W        W23695  17.646  33.612   0.179
52113W        W23696   5.233  21.061  11.584
52114W        W23697  24.081  42.990   2.847
52115W        W23698  10.887  25.955   1.178
52116W        W23699  29.403   6.912   0.424
52117W        W23700  39.060  22.523   0.910
52118W        W23701  23.409  27.205  13.114
52119W        W23702  18.369   3.306   4.664
52120W        W23703  24.191  22.761  12.645
52121W        W23704  42.465   5.924   1.307
52122W        W23705  42.093  12.350   3.662
52123W        W23706  39.985   9.577  13.709
52124W        W23707  10.626   5.757  14.263
52125W        W23708   6.128  22.232  12.471
52126W        W23709  31.839  32.963   2.908
52127W        W23710  25.578  40.359  11.632
52128W        W23711  19.780  10.245   2.865
52129W        W23712  40.015  10.938   1.309
52130W        W23713  35.026   2.828   4.318
52131W        W23714   1.393  31.931  14.659
52132W        W23715  40.216   7.322   1.498
52133W        W23716  25.621  14.567   0.341
52134W        W23717  31.592  17.008  10.646
52135W        W23718   0.897  18.997  10.827
52136W        W23719   8.973   2.722  14.698
52137W        W23720   6.300  31.585  11.557
52138W        W23721   5.343  16.976   1.364
52139W        W23722   2.466   7.157  14.322
52140W        W23723  36.774  44.451   2.330
52141W        W23724  17.954  25.567   1.173
52142W        W23725   6.689  38.151  12.343
52143W        W23726   0.780  38.392  11.250
52144W        W23727  11.902  18.143   0.934
52145W        W23728  33.403  10.611  11.306
52146W        W23729  12.650  22.099   2.611
52147W        W23730  24.197  25.921  11.569
52148W        W23731   5.352  34.831  10.808
52149W        W23732  33.171  30.938  11.550
52150W        W23733  11.837   0.489   0.919
52151W        W23734  16.226  32.638   2.337
52152W        W23735  41.515  32.596   3.206
52153W        W23736  11.829  34.149  11.151
52154W        W23737  15.364  16.997   1.307
52155W        W23738  23.624   9.662   2.239
52156W        W23739  40.461  44.209   0.453
52157W        W23740  10.183  13.384  13.916
52158W        W23741   5.638  17.976   1.425
52159W        W23742   8.967  24.007  14.476
52160W        W23743  29.100  13.368   2.830
52161W        W23744   7.391  22.538   0.786
52162W        W23745   8.199   2.719   3.342
52163W        W23746  13.026  19.243  11.974
52164W        W23747  35.410  12.568  11.551
52165W        W23748  11.921  11.577  12.543
52166W        W23749  15.664  31.917  10.684
52167W        W23750  38.339  22.847  11.567
52168W        W23751   2.701  22.132   3.745
52169W        W23752  38.561   8.180  10.215
52170W        W23753  25.574   5.560   2.091
52171W        W23754  34.703  29.535  12.515
52172W        W23755  43.029  28.145  12.187
52173W        W23756  20.657  19.632  12.768
52174W        W23757  34.844   2.296  13.843
52175W        W23758  29.987  16.951  13.877
52176W        W23759  14.660  28.926   0.726
52177W        W23760   3.896  21.677  13.787
52178W        W23761  39.969  34.381  14.395
52179W        W23762  26.777  17.869  14.808
52180W        W23763  28.261  42.930   3.544
52181W        W23764  29.428  11.694  13.542
52182W        W23765  41.871  39.923  11.149
52183W        W23766   2.956  12.014  14.293
52184W        W23767   1.635  13.310   4.862
52185W        W23768  40.486  43.953   1.223
52186W        W23769  23.158   8.254  10.367
52187W        W23770  13.086   1.043  13.848
52188W        W23771  24.613  17.576   1.220
52189W        W23772  35.117  22.946  11.992
52190W        W23773  42.991  18.353  12.525
52191W        W23774  35.049  16.814   1.783
52192W        W23775  44.941  41.029  12.935
52193W        W23776  22.547  12.726  11.643
52194W        W23777  30.880  26.549  14.058
52195W        W23778  12.892  36.460  12.477
52196W        W23779  38.301  39.522  12.503
52197W        W23780  31.988  40.432  14.915
52198W        W23781   6.857  30.423   4.879
52199W        W23782  17.591  44.275  14.038
52200W        W23783   8.217  11.815  14.007
52201W        W23784  37.322   1.122   0.944
52202W        W23785  27.921  32.287   0.748
52203W        W23786   7.489  43.801  10.644
52204W        W23787   1.009  17.291   1.882
52205W        W23788   9.911   7.197   1.390
52206W        W23789  16.324  34.404   1.204
52207W        W23790  27.542  15.586   3.735
52208W        W23791   4.527  19.044  11.297
52209W        W23792  28.287  12.761   4.743
52210W        W23793  33.429   7.923   2.410
52211W        W23794  43.327  21.719   4.650
52212W        W23795  41.671   1.954  14.862
52213W        W23796  40.748   5.482  10.708
52214W        W23797  44.023  29.444  14.562
52215W        W23798  11.850   4.887  11.939
52216W        W23799  15.582   0.555   4.591
52217W        W23800   8.801  13.214  11.563
52218W        W23801  35.857  18.211   1.922
52219W        W23802   7.490  36.996   3.337
52220W        W23803  11.175  23.692  10.705
52221W        W23804   5.491  35.681  12.084
52222W        W23805  29.103  37.321   0.354
52223W        W23806  37.592  24.381  12.482
52224W        W23807  22.635  12.421   0.458
52225W        W23808  31.171  27.059  10.645
52226W        W23809   3.462  28.914   1.018
52227W        W23810  42.518   1.257   0.214
52228W        W23811  29.957   5.904  13.141
52229W        W23812   6.779  42.452  12.382
52230W        W23813  44.506  35.873   2.298
52231W        W23814  34.517  17.508   1.762
52232W        W23815  14.122   7.251   2.237
52233W        W23816  17.822  32.857   4.794
52234W        W23817  19.672  20.695   2.349
52235W        W23818  22.192  38.447  12.341
52236W        W23819  24.200  15.783  11.968
52237W        W23820  26.236   8.736   1.008
52238W        W23821  26.065  44.570  11.254
52239W        W23822   7.260  27.965   0.764
52240W        W23823  37.260  10.870  12.441
52241W        W23824  24.502  19.264  11.193
52242W        W23825  24.931  40.944   3.634
52243W        W23826  23.736  33.921  12.547
52244W        W23827  42.984  43.472  12.568
52245W        W23828  39.778   4.464   1.795
52246W        W23829  40.809  34.462   4.900
52247W        W23830  26.806  19.349   2.663
52248W        W23831   1.821  32.494   4.706
52249W        W23832   5.258  35.915   2.505
52250W        W23833   8.267  29.126   4.578
52251W        W23834  25.252   8.049  10.812
52252W        W23835  22.194  43.047   1.902
52253W        W23836   8.943  27.226  11.040
52254W        W23837  13.340   6.615  13.792
52255W        W23838  30.002  22.281  12.059
52256W        W23839  39.086  22.320   1.755
52257W        W23840   6.337   7.478  10.251
52258W        W23841  10.761  41.950   4.624
52259W        W23842  16.935  13.215   3.087
52260W        W23843   7.161   1.213  10.981
52261W        W23844  39.645  26.471  11.123
52262W        W23845  26.436   9.300  14.947
52263W        W23846  38.543   9.637  12.725
52264W        W23847  13.565   9.763   1.009
52265W        W23848  19.516  42.515  12.830
52266W        W23849  18.216  39.503   2.410
52267W        W23850  39.620   7.936   4.572
52268W        W23851  42.305   0.041   0.725
52269W        W23852  12.918  30.852   0.877
52270W        W23853   0.788  18.513   4.222
52271W        W23854  19.730  18.836  12.025
52272W        W23855  41.477  18.763  12.940
52273W        W23856  29.881  42.884  10.695
52274W        W23857   8.735  23.200  11.630
52275W        W23858   2.056   5.621  12.050
52276W        W23859  44.029  13.032  14.429
52277W        W23860  11.772  26.965   4.412
52278W        W23861   9.713  42.591   1.387
52279W        W23862   5.413  23.598   0.360
52280W        W23863   9.236  36.995   1.972
52281W        W23864  44.453   4.398   4.096
52282W        W23865  22.476  42.958   5.000
52283W        W23866  27.617  10.330   4.371
52284W        W23867  26.903  15.135   3.934
52285W        W23868  13.020   1.757  12.388
52286W        W23869  32.969   0.386  12.085
52287W        W23870  27.687   3.931   0.698
52288W        W23871   6.597   0.479   3.300
52289W        W23872  29.871  38.521  11.530
52290W        W23873  29.432   9.172   4.595
52291W        W23874  26.947  35.450  11.590
52292W        W23875   7.769  10.641   3.084
52293W        W23876   0.884  25.655   0.904
52294W        W23877  15.641  38.898   0.198
52295W        W23878  35.287  35.770  13.918
52296W        W23879  37.027  25.879  12.923
52297W        W23880  39.909  24.697  11.074
52298W        W23881  40.827   3.960  11.958
52299W        W23882   6.154  39.265   2.220
52300W        W23883  36.582  38.084  13.548
52301W        W23884   1.476  26.957  14.364
52302W        W23885  28.096  25.471   4.074
52303W        W23886  12.834  33.531   3.662
52304W        W23887  12.282  44.707   3.607
52305W        W23888  17.023  35.796   0.121
52306W        W23889  10.578  16.207   3.890
52307W        W23890  30.300  20.270   4.114
52308W        W23891  40.095  43.993  12.780
52309W        W23892  31.133  17.234   0.443
52310W        W23893  43.130  20.183  13.649
52311W        W23894  30.938  34.860  10.614
52312W        W23895  38.870  18.081  13.124
52313W        W23896  13.663  37.598  12.406
52314W        W23897  37.312  20.636   0.502
52315W        W23898  19.601  41.531  14.451
52316W        W23899  32.131  19.993   2.279
52317W        W23900  13.306  15.873   1.766
52318W        W23901   5.884  41.372  11.514
52319W        W23902  38.943  38.448  14.019
52320W        W23903   3.217  31.649  14.392
52321W        W23904  38.530   7.289  13.107
52322W        W23905  11.119   6.315   9.867
52323W        W23906  43.284  27.170   4.170
52324W        W23907   6.695  36.044   0.849
52325W        W23908  22.830   8.181   2.181
52326W        W23909  17.419   9.209  10.112
52327W        W23910  39.337  37.295   0.214
52328W        W23911  31.082   5.302   1.877
52329W        W23912  18.956  14.886  10.900
52330W        W23913  14.877  42.890  14.544
52331W        W23914   8.800  38.495  11.150
52332W        W23915  15.356  32.677   3.320
52333W        W23916  20.677  35.985  11.218
52334W        W23917  29.882  27.179   2.867
52335W        W23918  44.291  40.222   3.758
52336W        W23919   4.997  42.608  13.939
52337W        W23920  42.024  23.513  12.381
52338W        W23921  19.385  29.112   2.352
52339W        W23922  11.364  20.755  11.579
52340W        W23923  23.660  28.208  13.905
52341W        W23924  33.148  38.922  14.334
52342W        W23925  19.833  29.410  11.095
52343W        W23926  41.027   5.127   2.377
52344W        W23927  35.923  35.840   4.149
52345W        W23928  29.509  11.350   1.494
52346W        W23929  35.091   1.810  14.867
52347W        W23930  20.709  16.750  14.827
52348W        W23931  39.572  41.507   4.487
52349W        W23932  18.030  35.279  12.969
52350W        W23933  43.947  16.343   2.328
52351W        W23934   4.304  22.577   4.235
52352W        W23935  36.791  28.649   2.820
52353W        W23936  19.052  40.519   0.727
52354W        W23937   1.359  13.137  11.167
52355W        W23938  26.607  34.609  12.891
52356W        W23939  36.384   7.419   4.077
52357W        W23940  24.627  13.037  14.533
52358W        W23941  13.218  19.268   2.370
52359W        W23942  12.590   5.015   0.305
52360W        W23943   5.191  24.703   1.557
52361W        W23944  32.542  43.089   4.599
52362W        W23945  26.376  27.733   0.669
52363W        W23946  12.675  39.564   4.437
52364W        W23947  24.708  10.190  11.426
52365W        W23948  24.539  12.255   2.138
52366W        W23949  43.409  35.450   3.328
52367W        W23950  19.565  42.702   3.797
52368W        W23951  23.902  23.127  11.946
52369W        W23952  17.758  40.582   1.333
52370W        W23953  16.263   2.185  11.509
52371W        W23954   1.158  36.479   4.400
52372W        W23955  13.602  43.335   0.435
52373W        W23956  41.793   8.227   1.273
52374W        W23957  21.087  36.649  11.172
52375W        W23958   3.155  36.511   4.605
52376W        W23959  17.286   9.225   3.664
52377W        W23960  30.724  40.905  14.555
52378W        W23961  44.936  32.598  14.778
52379W        W23962   2.580   7.727  12.276
52380W        W23963   7.077   8.405   2.321
52381W        W23964   5.772  14.118   1.895
52382W        W23965   6.145   7.936   3.282
52383W        W23966   4.725   7.866   1.665
52384W        W23967  44.867   9.836  11.697
52385W        W23968  10.917  22.805   4.555
52386W        W23969  20.273  19.294   5.216
52387W        W23970  44.329  25.427   1.217
52388W        W23971  32.137   5.276  13.488
52389W        W23972  16.349  38.891  12.607
52390W        W23973  22.127   1.241  12.333
52391W        W23974  28.942  31.620  10.228
52392W        W23975   2.824  32.663   1.625
52393W        W23976  25.065  22.155   0.050
52394W        W23977  34.372  31.619   2.841
52395W        W23978  23.537  44.192  11.220
52396W        W23979  18.309  15.234  13.371
52397W        W23980  40.677  40.799   1.337
52398W        W23981   3.993  13.640  14.330
52399W        W23982  13.736  42.579   1.011
52400W        W23983  20.939   5.480   4.937
52401W        W23984  25.759  30.041  13.581
52402W        W23985   0.751  19.746  11.524
52403W        W23986  32.974  19.078  12.294
52404W        W23987  37.326   5.150   3.816
52405W        W23988  27.830  37.538   4.328
52406W        W23989   0.522  23.045  13.517
52407W        W23990  21.102  11.042  12.735
52408W        W23991  35.072  13.318   3.669
52409W        W23992  39.245  35.488  12.639
52410W        W23993   3.892  16.911  11.164
52411W        W23994   6.270  10.265   3.754
52412W        W23995  25.731  29.992   2.762
52413W        W23996   8.711  17.602  11.998
52414W        W23997  37.343  40.600  14.259
52415W        W23998  13.080  14.876  13.861
52416W        W23999  39.373  19.106  10.659
52417W        W24000  14.718   0.242   3.220
52418W        W24001  15.671  34.996  12.472
52419W        W24002  44.000  25.464   1.893
52420W        W24003  39.329  22.499  12.908
52421W        W24004   9.270   6.591  14.986
52422W        W24005   2.190  36.465   9.900
52423W        W24006  21.236  39.271   4.762
52424W        W24007  40.104  15.779   4.302
52425W        W24008  16.096  17.592   4.053
52426W        W24009   9.359  23.127  13.925
52427W        W24010  24.178  26.971   1.216
52428W        W24011  22.150  40.338  13.318
52429W        W24012  20.058  16.556   2.531
52430W        W24013   2.512  29.643   4.275
52431W        W24014  25.364   6.577  13.824
52432W        W24015  32.605  20.208  10.965
52433W        W24016  15.307  20.837   0.773
52434W        W24017   8.446  12.592   1.859
52435W        W24018  36.448  16.853  13.494
52436W        W24019  31.443  38.562   1.790
52437W        W24020  14.779  32.343   1.819
52438W        W24021  35.908  34.693  12.100
52439W        W24022  22.573  42.679  11.172
52440W        W24023   2.428   7.047  10.838
52441W        W24024  20.804  14.604  13.306
52442W        W24025  11.828  42.731  11.215
52443W        W24026  43.105  17.516   2.507
52444W        W24027  40.012  13.671  14.328
52445W        W24028   7.287  26.465   3.239
52446W        W24029   9.789  25.921  12.112
52447W        W24030   3.282  29.828   2.243
52448W        W24031  41.249  18.534   3.711
52449W        W24032  25.576  24.407   0.280
52450W        W24033  41.035   2.491   2.977
52451W        W24034   2.847  34.662   1.627
52452W        W24035  26.745  12.263   4.718
52453W        W24036  37.996  18.493   4.107
52454W        W24037  15.271  23.534   2.235
52455W        W24038   6.368  16.796   2.223
52456W        W24039   4.100   9.162  14.531
52457W        W24040  11.346  25.719   0.987
52458W        W24041  23.583  42.871  11.982
52459W        W24042   4.276  11.606   0.214
52460W        W24043  43.021   4.409   3.533
52461W        W24044   1.743  20.639   2.025
52462W        W24045  33.190  22.916   5.112
52463W        W24046  20.599   0.287  13.187
52464W        W24047  29.843  37.417   4.122
52465W        W24048  25.842  12.833  12.054
52466W        W24049  32.961   2.149   3.282
52467W        W24050  37.373  25.515  11.647
52468W        W24051  15.861  23.316  14.769
52469W        W24052   5.269  39.872  14.306
52470W        W24053  12.185   3.336  12.404
52471W        W24054  27.575  27.615   4.675
52472W        W24055  35.940  30.922   0.316
52473W        W24056  42.355  22.549  11.608
52474W        W24057   5.130  38.296   1.993
52475W        W24058  33.993   4.985  10.494
52476W        W24059  15.824  40.055  14.348
52477W        W24060  28.011  40.862   0.392
52478W        W24061  21.541  32.598   0.968
52479W        W24062  10.299   6.348  11.563
52480W        W24063  20.632   8.355   4.665
52481W        W24064   2.486   1.926   4.105
52482W        W24065  18.710  33.457   0.858
52483W        W24066  17.143   2.789  11.645
52484W        W24067   1.657  41.770   5.005
52485W        W24068   5.985  30.134  10.619
52486W        W24069  38.767  30.976   0.918
52487W        W24070  44.808  16.106   3.753
52488W        W24071  16.319  14.375  12.923
52489W        W24072  22.279  14.107  14.721
52490W        W24073   4.169   3.521   1.852
52491W        W24074  10.295   4.249  10.975
52492W        W24075   4.826  36.550   2.828
52493W        W24076  10.657  30.858  11.525
52494W        W24077   1.718  20.036  13.927
52495W        W24078  32.901  27.176  12.044
52496W        W24079  12.485   7.829  11.683
52497W        W24080  34.074  22.825  13.816
52498W        W24081  44.747   3.020  11.863
52499W        W24082  16.711   2.876   3.641
52500W        W24083   6.821  43.489   3.171
52501W        W24084  36.393   4.296  10.969
52502W        W24085  37.547  35.462  10.617
52503W        W24086   4.665   2.232   0.554
52504W        W24087  13.118  13.868   1.483
52505W        W24088  37.851   9.251   1.897
52506W        W24089  29.969   8.259   0.420
52507W        W24090  28.637  15.161  12.117
52508W        W24091  32.552  26.526  14.396
52509W        W24092  44.742  43.410   3.319
52510W        W24093  13.721  26.401  12.450
52511W        W24094  40.265   5.537  12.433
52512W        W24095  26.105  29.753   0.254
52513W        W24096   5.839  23.110   0.778
52514W        W24097  11.303   3.950   2.727
52515W        W24098  11.916  40.383   2.696
52516W        W24099   4.807  25.467  11.912
52517W        W24100  43.308  30.742   2.216
52518W        W24101  12.439  27.564  13.101
52519W        W24102  35.303  11.111   4.224
52520W        W24103  20.720  28.471   0.356
52521W        W24104   5.619  28.843   5.042
52522W        W24105   9.686  11.836  12.591
52523W        W24106  38.912   0.675   4.510
52524W        W24107   8.839  36.423  13.428
52525W        W24108   2.685  37.385   2.392
52526W        W24109  22.531  33.723   0.154
52527W        W24110  11.703  28.611  13.333
52528W        W24111  42.566  12.377   1.925
52529W        W24112  19.524  39.769   0.911
52530W        W24113  25.084  15.326  10.487
52531W        W24114  23.713  18.989   0.309
52532W        W24115  36.066   7.758   2.249
52533W        W24116  16.993   9.643  11.103
52534W        W24117  30.885  36.467  10.701
52535W        W24118   7.969  24.079   4.793
52536W        W24119  39.520  30.635   0.516
52537W        W24120  17.545   0.529   2.215
52538W        W24121  35.951  13.864   3.734
52539W        W24122  24.644  44.770   0.877
52540W        W24123  40.948  27.628   2.603
52541W        W24124  42.563  28.327  12.872
52542W        W24125   5.699  31.511  13.233
52543W        W24126  36.495  33.098  13.325
52544W        W24127  26.412  15.886  11.057
52545W        W24128  42.108  28.489   1.835
52546W        W24129  22.235  19.692  13.423
52547W        W24130  34.499  44.941  14.996
52548W        W24131  29.435  43.422  11.430
52549W        W24132  27.949  29.873   1.294
52550W        W24133  30.351  28.101   4.498
52551W        W24134  20.290  27.507   1.944
52552W        W24135  23.182  15.918  14.771
52553W        W24136   1.370  44.762   4.223
52554W        W24137  13.138   5.779   3.083
52555W        W24138   7.865  20.684   2.926
52556W        W24139  16.762  22.142  13.862
52557W        W24140  22.862  29.558  12.111
52558W        W24141  30.582  43.519  14.899
52559W        W24142  38.118  37.958   2.209
52560W        W24143   8.171  26.790   3.506
52561W        W24144  12.675  30.361  10.718
52562W        W24145  43.023  14.612   3.147
52563W        W24146  30.558  22.543  12.906
52564W        W24147  30.832  11.991   0.195
52565W        W24148   5.268  18.291   1.754
52566W        W24149  38.349  17.690  12.566
52567W        W24150  13.901  37.885  11.717
52568W        W24151  20.204  11.653  11.588
52569W        W24152  21.338  23.508  14.929
52570W        W24153   7.440  15.746  11.887
52571W        W24154   4.422  24.417  10.719
52572W        W24155  18.147  27.572   3.321
52573W        W24156   3.503  29.508   4.039
52574W        W24157  23.180  13.805  10.766
52575W        W24158  26.585  29.899  12.389
52576W        W24159  24.675  19.159   4.396
52577W        W24160  23.118  44.393  12.060
52578W        W24161  23.233   0.837   1.442
52579W        W24162  17.182  36.637  12.438
52580W        W24163   5.833  11.830   0.446
52581W        W24164  22.942  24.980  12.056
52582W        W24165  22.286  18.294  12.195
52583W        W24166   7.504  37.400   2.259
52584W        W24167  37.454  43.429   2.434
52585W        W24168   4.362  18.628  11.598
52586W        W24169   0.481  28.702  12.996
52587W        W24170  16.189  37.225   3.381
52588W        W24171  37.797   6.300  10.030
52589W        W24172  29.260  42.559   1.762
52590W        W24173  40.860  26.264   2.669
52591W        W24174  40.295  10.628  11.073
52592W        W24175  39.796  37.870   2.625
52593W        W24176  40.286  27.232  12.097
52594W        W24177  12.813  29.582   1.613
52595W        W24178   4.466   8.722   3.565
52596W        W24179  42.458  16.026  13.421
52597W        W24180  43.227  35.310   2.702
52598W        W24181  19.211  42.938   3.447
52599W        W24182   1.427  15.299   1.446
52600W        W24183   1.365  22.243  14.866
52601W        W24184  42.912  10.578  14.692
52602W        W24185   3.892  13.885   2.359
52603W        W24186  34.807  28.024  14.772
52604W        W24187   0.932   2.450   2.313
52605W        W24188   7.724  19.180  13.089
52606W        W24189   9.608  26.763   2.382
52607W        W24190  34.265  18.815   4.240
52608W        W24191   2.311  17.293  13.030
52609W        W24192   2.236   4.574   1.297
52610W        W24193  15.542  16.769  10.418
52611W        W24194  21.350  15.138   4.896
52612W        W24195  20.801  31.088  12.812
52613W        W24196  17.262   4.852   3.899
52614W        W24197  13.072  16.765  14.906
52615W        W24198  30.944  36.976   2.817
52616W        W24199  32.342  23.223   0.783
52617W        W24200   3.545  39.556  11.485
52618W        W24201  33.668  36.589   1.984
52619W        W24202  19.557  44.874   3.312
52620W        W24203  29.040   4.003  14.508
52621W        W24204  27.923  39.983   1.787
52622W        W24205  31.528  25.361   1.351
52623W        W24206  31.940  34.160  11.530
52624W        W24207   1.587  21.456   2.866
52625W        W24208  40.208   4.473   0.301
52626W        W24209  39.561  26.957   2.469
52627W        W24210   1.280   2.429   2.714
52628W        W24211  10.350  19.251  14.419
52629W        W24212  33.473   6.431   4.129
52630W        W24213  34.142  30.146  12.959
52631W        W24214  22.806  17.069   0.412
52632W        W24215  38.558  19.457   1.839
52633W        W24216   3.749  38.687   0.820
52634W        W24217   9.137   7.694  13.944
52635W        W24218  29.598  24.677  13.934
52636W        W24219  35.540  30.145  13.062
52637W        W24220  30.127  12.097   4.549
52638W        W24221   6.741  13.299  13.357
52639W        W24222  30.416  12.701  13.192
52640W        W24223  12.500  34.348   4.097
52641W        W24224  37.025  42.269  13.856
52642W        W24225  35.151   5.066  10.783
52643W        W24226   9.276   5.379   3.596
52644W        W24227  11.503   5.826  13.018
52645W        W24228  28.089  43.748  10.543
52646W        W24229  31.802  28.624  11.144
52647W        W24230  32.559   0.695  10.645
52648W        W24231  19.867  22.130   0.514
52649W        W24232   7.607  29.690  13.035
52650W        W24233  10.101  36.099   0.065
52651W        W24234   6.862  16.986   4.334
52652W        W24235  38.539   0.305   4.405
52653W        W24236  22.109  21.358  14.539
52654W        W24237   5.313  36.315   3.807
52655W        W24238  11.255  43.747  14.819
52656W        W24239  41.359  19.058  11.906
52657W        W24240   4.236  43.868   1.786
52658W        W24241  29.543  35.373  13.951
52659W        W24242   0.383  12.439   1.910
52660W        W24243  10.156  34.545   1.461
52661W        W24244  36.396  43.697   4.199
52662W        W24245   1.335  34.929   2.663
52663W        W24246  30.906  11.859  11.139
52664W        W24247  25.087  33.542  10.608
52665W        W24248  39.341   1.775  12.122
52666W        W24249  35.107  24.231  11.529
52667W        W24250  14.309   1.865  12.938
52668W        W24251  24.209  41.135   5.107
52669W        W24252  11.788  30.258  10.476
52670W        W24253  10.713  29.083  13.930
52671W        W24254  43.932  29.171  12.461
52672W        W24255  41.760   7.459   2.265
52673W        W24256  10.384  41.988  14.322
52674W        W24257  23.685  15.856   2.736
52675W        W24258  29.637  16.889   3.327
52676W        W24259   6.409  37.049   0.365
52677W        W24260  36.435   4.015   1.479
52678W        W24261  20.255  28.662  13.112
52679W        W24262  24.917   6.769   1.707
52680W        W24263  14.619  32.665  13.005
52681W        W24264   7.373  20.077  14.459
52682W        W24265  33.141  29.849   3.085
52683W        W24266  16.979  30.911  14.789
52684W        W24267  36.166  10.895  13.760
52685W        W24268  40.542  37.759  13.912
52686W        W24269  26.251  30.683  12.708
52687W        W24270  44.943  40.562   2.300
52688W        W24271  40.152  13.564  11.656
52689W        W24272  21.198  33.608   0.753
52690W        W24273   4.469  41.818   0.962
52691W        W24274  24.237  16.979   4.574
52692W        W24275  30.420  16.180   3.162
52693W        W24276   5.907  15.609   1.472
52694W        W24277  19.643  44.408  12.656
52695W        W24278  12.311  38.405  11.922
52696W        W24279   9.894  29.848   3.240
52697W        W24280  43.380  23.318  12.176
52698W        W24281   5.255  11.247   1.717
52699W        W24282  25.133  23.012  14.504
52700W        W24283  14.459  35.742   0.964
52701W        W24284  28.105  19.154  12.733
52702W        W24285  15.500  39.542   3.166
52703W        W24286   6.784   4.484   4.576
52704W        W24287  38.283  33.106  10.920
52705W        W24288  42.775  37.436   1.234
52706W        W24289  37.824   6.396   1.604
52707W        W24290  32.104  25.199  10.861
52708W        W24291  19.198  36.290  14.385
52709W        W24292  30.534  27.941   1.843
52710W        W24293  10.943  34.115  12.262
52711W        W24294   0.381   9.979   4.738
52712W        W24295  40.546   0.377  10.774
52713W        W24296  27.524  33.540  10.195
52714W        W24297   7.644  24.139  13.889
52715W        W24298   2.252  29.180   0.300
52716W        W24299  18.048  11.886   4.762
52717W        W24300  12.056   2.720   4.630
52718W        W24301  12.943  36.266   0.775
52719W        W24302  31.035  11.146   0.182
52720W        W24303  36.461  43.917  10.730
52721W        W24304  31.841  10.287   0.423
52722W        W24305  43.239   6.228  14.437
52723W        W24306  13.346  29.551  12.128
52724W        W24307  14.104  25.610   2.235
52725W        W24308  37.399  15.937   0.196
52726W        W24309  18.987  37.924   4.375
52727W        W24310  28.616  23.331  14.383
52728W        W24311  13.258   5.428   0.920
52729W        W24312  13.310  28.519   1.732
52730W        W24313   4.905  37.481  10.919
52731W        W24314   9.064   4.384   4.136
52732W        W24315  24.030  41.297  13.820
52733W        W24316  40.922  43.142  11.515
52734W        W24317  26.480  27.067  14.013
52735W        W24318  28.341   8.281   2.098
52736W        W24319  33.474  36.389  11.150
52737W        W24320  18.991  17.805   1.703
52738W        W24321   4.840  33.933  14.450
52739W        W24322  12.947   6.049   2.280
52740W        W24323   8.974  21.691  10.638
52741W        W24324  39.033   5.897   9.784
52742W        W24325  13.141   6.077  11.974
52743W        W24326  22.055   8.198   1.688
52744W        W24327  23.657   8.715  14.549
52745W        W24328  18.524   2.039  10.809
52746W        W24329  12.140  24.701  10.607
52747W        W24330   3.204  31.668   1.494
52748W        W24331  43.346  41.947  10.634
52749W        W24332  24.680  44.905   2.580
52750W        W24333   6.370   7.956   1.468
52751W        W24334  33.705  42.469  11.435
52752W        W24335  34.797  37.355   2.696
52753W        W24336  37.010  19.017   3.147
52754W        W24337  24.641  38.428   1.994
52755W        W24338  19.114  20.576   2.835
52756W        W24339  42.784   2.013   2.749
52757W        W24340  37.363   1.698   0.804
52758W        W24341  32.004   3.563   2.716
52759W        W24342   2.201  13.159  11.605
52760W        W24343  34.304   9.770  11.189
52761W        W24344   3.247  32.717  12.496
52762W        W24345   9.132  35.810   5.002
52763W        W24346  39.335  30.975  14.939
52764W        W24347  40.515  33.678  10.866
52765W        W24348  35.958  20.654   3.256
52766W        W24349  42.276  34.410   3.271
52767W        W24350   9.583   4.384   1.366
52768W        W24351  20.103  42.850   4.596
52769W        W24352  12.739  27.476  11.438
52770W        W24353  44.220  21.364   3.747
52771W        W24354  13.647  15.746  10.715
52772W        W24355  19.160  44.503   3.296
52773W        W24356  36.628   2.375  11.949
52774W        W24357  35.402   5.419   4.460
52775W        W24358  44.938  32.549  13.288
52776W        W24359  22.581  40.576  11.468
52777W        W24360  17.545  41.076   1.857
52778W        W24361  24.956  15.660  13.049
52779W        W24362   4.845  11.812  11.431
52780W        W24363  42.153   1.020  13.946
52781W        W24364  17.105  41.667  10.583
52782W        W24365  35.557   6.395  11.713
52783W        W24366  15.278   6.500  11.181
52784W        W24367  28.482  36.691  14.507
52785W        W24368   9.187   6.028   1.350
52786W        W24369  24.043  43.985   3.559
52787W        W24370   9.896  43.268   2.187
52788W        W24371  25.684   2.716   3.639
52789W        W24372  22.922  24.698  10.305
52790W        W24373   0.442   9.842   3.365
52791W        W24374   1.162  14.609   1.977
52792W        W24375  41.858  30.645  12.093
52793W        W24376   1.343  21.505  11.457
52794W        W24377  31.113  22.022  13.010
52795W        W24378  42.426  34.959  13.435
52796W        W24379  22.551  24.596  13.765
52797W        W24380  39.607  19.622  11.433
52798W        W24381  43.534  11.581  10.990
52799W        W24382   8.478   8.723  14.785
52800W        W24383  28.409  10.334   3.295
52801W        W24384  19.725  11.115  14.709
52802W        W24385  29.484   0.094  14.312
52803W        W24386   0.400  20.856   3.257
52804W        W24387  41.798  16.163  13.863
52805W        W24388   2.716  39.508  14.302
52806W        W24389   7.846   4.475   0.400
52807W        W24390  27.130  36.820   3.152
52808W        W24391  34.394   9.677  12.878
52809W        W24392  23.622  30.464  12.700
52810W        W24393   2.262  37.675   2.438
52811W        W24394  12.679  31.683  11.286
52812W        W24395  37.830  29.229   4.506
52813W        W24396  17.341  10.193  12.638
52814W        W24397  26.682  44.641  13.895
52815W        W24398   0.925  38.084   0.698
52816W        W24399  41.005  31.498   4.588
52817W        W24400  20.016  32.169   0.800
52818W        W24401  40.452  12.345  11.935
52819W        W24402  43.750  20.553  12.611
52820W        W24403  42.884   5.486   0.420
52821W        W24404  22.165   4.021  13.268
52822W        W24405  12.144  32.933   1.206
52823W        W24406  30.836   6.154  13.376
52824W        W24407  36.918  32.605   2.897
52825W        W24408   8.388  31.333   0.387
52826W        W24409  37.796  34.273   2.028
52827W        W24410   9.239  29.540   2.058
52828W        W24411   9.828  21.544  11.973
52829W        W24412  31.504  15.739  14.013
52830W        W24413  13.390   2.404  13.936
52831W        W24414  17.651  20.108  12.608
52832W        W24415  36.876  21.102   3.638
52833W        W24416   6.356  42.943   3.813
52834W        W24417  19.810  22.235   2.662
52835W        W24418  31.531  15.163  12.059
52836W        W24419  22.968  33.802  14.786
52837W        W24420  43.971  17.531  12.591
52838W        W24421  11.398   2.716   0.303
52839W        W24422  26.173   7.440  13.940
52840W        W24423  21.970  38.437   4.103
52841W        W24424  29.924   5.811  14.044
52842W        W24425  25.138  11.678   2.160
52843W        W24426   8.935  43.934  13.505
52844W        W24427  37.509  18.901   0.504
52845W        W24428  22.533  39.712  14.414
52846W        W24429  13.272  34.410   1.173
52847W        W24430   7.682  30.414   2.297
52848W        W24431  19.146  18.874   3.221
52849W        W24432  25.990  37.452  14.924
52850W        W24433   2.743  15.225   2.209
52851W        W24434  18.596  24.050  12.576
52852W        W24435  20.082  40.761  14.301
52853W        W24436  41.343   6.455  12.841
52854W        W24437  16.930  10.280   2.598
52855W        W24438  16.228  32.677  10.576
52856W        W24439   4.665  38.762  12.716
52857W        W24440  43.767  37.965  10.726
52858W        W24441  29.174  41.084   2.696
52859W        W24442  34.323   3.442   3.725
52860W        W24443   4.730  27.891   3.771
52861W        W24444  29.369  25.222  13.093
52862W        W24445   3.090  42.935  11.949
52863W        W24446  24.260  23.624   0.475
52864W        W24447  13.695   9.829   1.924
52865W        W24448  17.518  42.770   1.289
52866W        W24449   9.257   2.344   0.010
52867W        W24450  36.602  16.016  13.075
52868W        W24451  25.560  32.383  13.886
52869W        W24452  19.635  38.389  12.498
52870W        W24453  20.257   5.414   3.874
52871W        W24454   7.696  39.412  14.053
52872W        W24455   4.919   2.011  12.134
52873W        W24456  11.475  22.536   2.482
52874W        W24457   6.727  18.793   4.767
52875W        W24458  23.269  40.624   1.409
52876W        W24459  36.715  10.833  13.592
52877W        W24460  27.222   4.381   4.639
52878W        W24461  40.874  17.563  12.460
52879W        W24462  30.874  43.965   1.367
52880W        W24463  13.359  35.513  11.661
52881W        W24464  31.586  35.438   0.809
52882W        W24465  27.515  30.999   5.431
52883W        W24466  14.356  29.441   0.058
52884W        W24467  42.551  14.378   3.613
52885W        W24468  31.702  19.662  11.166
52886W        W24469  22.156   1.747  14.912
52887W        W24470   0.378   8.130  14.503
52888W        W24471  39.531  28.536  12.112
52889W        W24472  12.927  17.173  14.159
52890W        W24473  16.548  29.940  12.231
52891W        W24474   5.485  35.915   0.256
52892W        W24475  27.410  22.097  10.690
52893W        W24476   6.723  15.065   3.806
52894W        W24477  43.862  20.285  14.230
52895W        W24478  10.215  19.197   5.035
52896W        W24479   0.446  34.674   0.949
52897W        W24480  15.653  11.673  11.559
52898W        W24481   6.696  37.521  13.362
52899W        W24482  30.072  10.356  13.556
52900W        W24483  13.714  35.512   3.164
52901W        W24484  40.558  19.001  13.830
52902W        W24485   3.288   0.300   3.121
52903W        W24486  41.985  39.652   1.512
52904W        W24487  34.574  18.604  14.219
52905W        W24488   3.256  34.316  11.618
52906W        W24489  30.078  43.372  10.740
52907W        W24490  11.004  40.623  11.583
52908W        W24491  10.909  41.575   1.838
52909W        W24492  36.093   7.078   4.349
52910W        W24493   7.750  13.815  11.998
52911W        W24494  38.529   0.657  12.114
52912W        W24495  33.847   8.278  11.592
52913W        W24496  26.641   3.786  12.806
52914W        W24497  28.579  33.108  14.396
52915W        W24498  15.418  36.280  11.081
52916W        W24499  20.171  31.552  11.579
52917W        W24500   0.761  39.823   1.436
52918W        W24501  10.708   8.886   4.627
52919W        W24502  20.237   5.006   0.912
52920W        W24503  17.245  14.644  14.844
52921W        W24504   8.107  10.912   0.289
52922W        W24505  18.687  13.476   0.994
52923W        W24506  14.380  15.510  12.084
52924W        W24507  34.444   4.194   2.805
52925W        W24508  13.833   4.262   4.850
52926W        W24509   1.327  10.824  14.759
52927W        W24510   0.530  35.963   2.115
52928W        W24511   0.983  20.384  11.193
52929W        W24512  33.651  35.858  14.469
52930W        W24513   0.251  38.072  13.923
52931W        W24514  22.598  28.430   4.124
52932W        W24515  30.626  15.330  14.797
52933W        W24516   1.433  11.266  11.096
52934W        W24517  18.034  17.832   2.705
52935W        W24518  31.354   7.506  11.049
52936W        W24519   1.356  26.523  12.573
52937W        W24520  31.187  10.159   4.796
52938W        W24521   3.318   1.458  13.037
52939W        W24522  26.222  22.556  14.280
52940W        W24523  35.302  35.770   0.309
52941W        W24524  18.523  19.579  14.339
52942W        W24525  44.721  11.195  12.435
52943W        W24526  29.176  29.614  12.537
52944W        W24527  21.316   1.925  11.530
52945W        W24528  36.489   3.448   2.340
52946W        W24529  12.922  26.003   0.524
52947W        W24530  13.856  10.395  12.433
52948W        W24531   6.216  19.637  12.602
52949W        W24532   4.968   8.411  13.072
52950W        W24533   1.248  28.960  13.438
52951W        W24534  30.502  19.450   5.058
52952W        W24535   7.402  44.509   0.995
52953W        W24536  12.934  24.752  11.055
52954W        W24537  21.806   3.330  12.123
52955W        W24538  24.274  12.928   0.865
52956W        W24539  39.149  30.190   0.445
52957W        W24540  40.687   2.815  12.378
52958W        W24541   9.613  31.532   1.754
52959W        W24542  20.047   2.424   2.864
52960W        W24543  10.348  40.484   2.255
52961W        W24544  37.050   3.810  10.540
52962W        W24545  32.186  43.702  12.899
52963W        W24546  22.040   1.151  11.822
52964W        W24547  42.996  34.440   3.708
52965W        W24548  37.972  27.552  14.824
52966W        W24549  25.383   5.803   4.867
52967W        W24550  23.665   5.179  11.101
52968W        W24551  16.306  29.192  12.836
52969W        W24552  38.325   3.443  10.648
52970W        W24553  23.249  10.906  11.565
52971W        W24554  36.119  12.151  14.487
52972W        W24555  36.092  11.270  14.125
52973W        W24556  41.017  24.961   3.640
52974W        W24557  29.222  31.042   0.441
52975W        W24558  29.170  31.701   4.745
52976W        W24559  17.478   7.734   0.456
52977W        W24560  16.521  36.089   0.256
52978W        W24561  15.922  39.539  14.009
52979W        W24562  21.701  34.381   0.208
52980W        W24563  23.948  38.876  13.012
52981W        W24564  38.313  25.588   0.507
52982W        W24565  33.170   6.319  14.390
52983W        W24566  44.521  29.813  12.454
52984W        W24567  39.271  40.997   4.569
52985W        W24568  12.300  28.973  12.088
52986W        W24569  30.734  37.604  11.999
52987W        W24570  25.602  20.817  13.742
52988W        W24571   8.376  24.239  13.003
52989W        W24572   6.246  14.346  12.451
52990W        W24573  33.316  32.829  11.630
52991W        W24574  37.370  24.957   3.023
52992W        W24575  12.873  12.307   3.967
52993W        W24576  37.958  11.873  10.468
52994W        W24577   6.008  38.296  14.942
52995W        W24578  11.385  27.048  12.766
52996W        W24579  40.764  13.399  14.986
52997W        W24580  25.169  33.434   0.891
52998W        W24581  43.730  38.944   3.664
52999W        W24582  13.793  26.939   3.254
53000W        W24583  39.538   9.782   1.758
53001W        W24584  24.543  30.892   1.253
53002W        W24585  19.563   4.775  11.631
53003W        W24586  44.926  43.247   0.499
53004W        W24587  42.983   9.482  11.556
53005W        W24588   3.340   1.516   4.094
53006W        W24589  43.798  41.770  13.033
53007W        W24590   0.305  29.185  13.053
53008W        W24591  28.655  11.177   0.332
53009W        W24592  35.172  25.797  14.968
53010W        W24593  27.068  15.992  14.836
53011W        W24594  33.898  10.841  14.787
53012W        W24595   0.790  19.957   4.099
53013W        W24596  22.551  11.543  12.941
53014W        W24597  31.654  12.067   1.290
53015W        W24598   7.944   4.938   1.038
53016W        W24599  33.104  33.841   2.733
53017W        W24600  22.768  38.912  14.995
53018W        W24601   0.450  20.175   4.414
53019W        W24602  22.716  31.166   1.787
53020W        W24603  28.020  31.107  14.803
53021W        W24604  17.120  28.373  11.627
53022W        W24605  44.875  40.823  14.321
53023W        W24606  33.004  35.445   1.728
53024W        W24607  39.333  42.979   2.911
53025W        W24608   8.704  11.945  13.823
53026W        W24609  29.150  18.727   3.821
53027W        W24610  34.082  23.159  14.870
53028W        W24611  14.177  33.586   0.257
53029W        W24612  27.043  42.651   1.182
53030W        W24613  34.974   4.387   4.457
53031W        W24614   6.778  21.188  12.885
53032W        W24615  40.298  31.693   3.426
53033W        W24616  28.277  19.623   4.524
53034W        W24617  18.493  21.039  13.854
53035W        W24618  24.951  36.404  13.109
53036W        W24619  17.533   4.456  11.257
53037W        W24620  27.450   6.980   1.774
53038W        W24621  27.229   4.870   1.757
53039W        W24622  27.153  41.580   4.460
53040W        W24623  38.723  24.524   4.150
53041W        W24624   1.749  41.943   4.390
53042W        W24625   7.303   7.895   0.219
53043W        W24626  10.195  24.036   2.341
53044W        W24627  29.503  13.553   3.588
53045W        W24628   7.166  32.421  11.088
53046W        W24629  43.372  44.751   4.245
53047W        W24630  17.774  38.887   2.835
53048W        W24631   4.290   7.889   1.367
53049W        W24632  44.906  19.962  10.545
53050W        W24633   9.365  23.290  14.849
53051W        W24634  42.330  19.651  13.277
53052W        W24635  21.294  37.032   0.879
53053W        W24636  25.223  25.649   0.390
53054W        W24637  20.334  27.982  12.033
53055W        W24638   0.320  29.352  13.534
53056W        W24639  17.398  15.613  13.386
53057W        W24640  14.282  20.659   2.097
53058W        W24641   2.359   4.717   3.284
53059W        W24642  44.318   3.696   2.206
53060W        W24643  22.293   9.941   5.076
53061W        W24644   9.643  12.359  12.523
53062W        W24645  33.471  38.430   2.803
53063W        W24646  20.933  44.283  14.749
53064W        W24647  11.163   8.743  11.383
53065W        W24648  28.121  10.467   2.881
53066W        W24649  14.906  28.055  11.145
53067W        W24650  40.450  15.810   2.282
53068W        W24651  23.508  15.422  14.703
53069W        W24652  34.748  38.610  11.576
53070W        W24653  16.254  40.401  14.800
53071W        W24654  37.509   0.847   1.938
53072W        W24655   4.865   2.387   2.043
53073W        W24656  23.246   4.993  11.965
53074W        W24657  38.054  30.282  14.775
53075W        W24658  44.036  24.942  12.030
53076W        W24659   5.434  17.784   2.687
53077W        W24660  43.823  38.873   1.551
53078W        W24661  32.637  32.072   2.392
53079W        W24662  22.699  34.427   1.944
53080W        W24663   8.158  22.201   2.296
53081W        W24664  29.338   0.257  11.176
53082W        W24665  37.257  39.880   3.647
53083W        W24666  31.178   9.401  10.766
53084W        W24667  39.110  27.264   4.163
53085W        W24668  23.072  11.692  13.020
53086W        W24669  32.072  10.305  12.100
53087W        W24670  21.055  43.819   1.487
53088W        W24671  12.692  18.337  12.915
53089W        W24672  40.828  32.439  10.464
53090W        W24673   1.981  22.448  12.034
53091W        W24674  18.260  25.989  11.602
53092W        W24675  15.297  16.711   2.737
53093W        W24676  13.177  26.056   4.302
53094W        W24677   9.519  25.414  10.444
53095W        W24678  13.873  27.722  11.183
53096W        W24679  41.891  31.404  10.617
53097W        W24680  23.355  18.581   4.985
53098W        W24681  40.039  17.580   4.395
53099W        W24682  39.091   8.903  11.951
53100W        W24683  25.021  15.353  13.487
53101W        W24684  41.842  36.270   4.264
53102W        W24685  26.469  15.155  12.100
53103W        W24686  38.896   1.756   1.679
53104W        W24687   7.409  23.499  14.896
53105W        W24688  10.537   1.799   4.534
53106W        W24689  27.653   6.975  14.870
53107W        W24690  32.844  16.171  12.869
53108W        W24691  42.377   9.108  13.628
53109W        W24692  37.507  22.475  11.239
53110W        W24693  31.697  11.691   3.130
53111W        W24694  26.140   2.019   4.215
53112W        W24695  10.193   7.426   3.669
53113W        W24696  20.526  12.406  12.037
53114W        W24697  10.064  32.115   2.757
53115W        W24698  32.866  39.814  11.200
53116W        W24699  35.618   1.460  12.006
53117W        W24700  31.429   4.296   0.645
53118W        W24701  14.152   4.973  11.739
53119W        W24702   2.236   7.370   0.949
53120W        W24703  19.059  28.493  12.860
53121W        W24704   9.072  18.679   1.964
53122W        W24705   1.820  34.154  13.929
53123W        W24706  22.703   4.316  13.938
53124W        W24707  26.772  36.342  12.443
53125W        W24708  25.791  16.259  13.995
53126W        W24709   1.170  44.433  14.297
53127W        W24710  27.462  37.914  13.029
53128W        W24711  30.404  39.577   3.768
53129W        W24712  12.116  40.994   1.385
53130W        W24713   0.725  35.752  11.583
53131W        W24714  11.972  38.336   4.141
53132W        W24715  29.704  12.041  14.041
53133W        W24716  26.966  41.195  11.489
53134W        W24717  10.920  20.590  14.005
53135W        W24718   9.149  29.098  11.886
53136W        W24719  28.179   7.401   3.995
53137W        W24720  24.529  14.395   0.834
53138W        W24721  36.803  11.700   1.833
53139W        W24722  39.332  37.565   3.142
53140W        W24723  29.031  16.611  13.985
53141W        W24724  33.747  11.261   1.748
53142W        W24725   9.068  41.530   4.052
53143W        W24726  26.452  31.537  12.388
53144W        W24727   7.674  32.183   3.149
53145W        W24728   6.262   3.211   4.602
53146W        W24729   0.018  37.919   1.247
53147W        W24730  33.705  32.039   0.267
53148W        W24731  41.520  21.031  13.545
53149W        W24732  42.987  24.996  10.732
53150W        W24733  35.577  42.173   1.684
53151W        W24734  41.099   4.777   2.799
53152W        W24735  28.209  35.768   1.000
53153W        W24736  30.438  43.304  11.512
53154W        W24737   4.928  26.237  11.514
53155W        W24738  28.888  15.566  13.260
53156W        W24739  21.098  37.857   4.935
53157W        W24740   9.698  26.526  11.087
53158W        W24741   6.318  14.800   4.127
53159W        W24742  32.106   9.663  11.963
53160W        W24743  15.214  24.438  13.848
53161W        W24744  10.124  21.831   2.318
53162W        W24745  27.422  10.694   0.858
53163W        W24746  20.737  17.150   0.369
53164W        W24747  22.240  27.480  10.783
53165W        W24748   9.726  43.336   4.928
53166W        W24749  27.575   9.735   3.729
53167W        W24750  44.091  44.146   0.103
53168W        W24751  31.910  40.748  13.730
53169W        W24752  24.592  43.553  11.082
53170W        W24753  23.047  36.555  14.078
53171W        W24754  36.256  25.868  13.243
53172W        W24755   2.720  30.534   4.410
53173W        W24756  13.645  23.391  13.405
53174W        W24757  33.642  20.004   5.001
53175W        W24758  44.926  20.867  11.027
53176W        W24759   6.289  14.359   4.810
53177W        W24760  39.261  33.507   4.149
53178W        W24761  37.745  31.036  12.375
53179W        W24762  35.636  25.123  12.627
53180W        W24763  31.566  33.043   4.171
53181W        W24764  39.386  32.572  11.434
53182W        W24765   6.477  21.214   3.686
53183W        W24766  12.674   4.943  14.783
53184W        W24767   1.878  27.550   2.200
53185W        W24768   9.225  10.124   4.204
53186W        W24769  29.528   3.621  10.597
53187W        W24770  31.503  27.060   2.235
53188W        W24771  10.962  38.346   4.261
53189W        W24772  36.951   7.257  14.422
53190W        W24773  18.624  25.138  13.952
53191W        W24774  27.003  30.123   1.160
53192W        W24775  42.358  39.867   0.272
53193W        W24776  31.979  14.167  11.466
53194W        W24777  22.773   4.916   0.924
53195W        W24778  28.150  13.484   0.957
53196W        W24779  40.989  32.845   0.485
53197W        W24780  17.827  44.287   0.389
53198W        W24781  19.852   9.481  13.532
53199W        W24782   7.102  42.012  12.389
53200W        W24783  40.364   6.875  11.055
53201W        W24784  31.389  23.699  12.650
53202W        W24785  27.201  34.307  14.363
53203W        W24786  18.081  20.625   3.096
53204W        W24787   8.889  10.148  12.456
53205W        W24788  35.993  39.383  12.287
53206W        W24789   9.331   7.386   0.723
53207W        W24790  31.034  25.687  12.404
53208W        W24791  42.379  39.585  11.966
53209W        W24792   8.885  41.769   1.023
53210W        W24793   2.776  15.343  12.023
53211W        W24794  27.635   3.759  14.274
53212W        W24795  11.561  11.173  12.517
53213W        W24796   3.656  22.687   1.825
53214W        W24797   7.804  19.691   2.233
53215W        W24798  14.630  13.663  14.310
53216W        W24799  21.868  27.356  11.198
53217W        W24800  25.051  18.699   5.181
53218W        W24801  20.058  34.413  11.042
53219W        W24802  11.837  44.279  11.389
53220W        W24803  23.626  29.940  10.485
53221W        W24804  39.782  44.455  13.100
53222W        W24805  34.518  35.853   4.093
53223W        W24806   7.395  41.504  10.760
53224W        W24807  18.599   3.829  14.378
53225W        W24808  23.192  23.641   4.516
53226W        W24809  21.953  41.406  14.283
53227W        W24810  37.310  17.189   3.707
53228W        W24811  19.708   7.939  11.279
53229W        W24812  13.609  11.320  14.330
53230W        W24813  32.659   0.282  10.372
53231W        W24814  31.933   9.452  10.843
53232W        W24815  37.969  36.595  13.867
53233W        W24816  23.294  39.817   0.329
53234W        W24817  34.083   0.670  11.170
53235W        W24818   6.184  21.621   1.775
53236W        W24819  28.989  15.342   2.720
53237W        W24820  16.084  37.103  14.576
53238W        W24821   2.480  13.676   0.972
53239W        W24822  34.551  28.809   3.203
53240W        W24823  17.533  18.059   0.359
53241W        W24824  40.830  32.313  12.411
53242W        W24825  28.417  24.475  11.938
53243W        W24826  38.695   4.404   2.709
53244W        W24827   9.661  33.881   1.411
53245W        W24828  22.719   5.333   4.327
53246W        W24829  27.597   7.836   1.262
53247W        W24830  30.558  11.623   5.111
53248W        W24831  23.354  14.608   0.016
53249W        W24832   7.987  30.181   3.269
53250W        W24833  10.440  41.035   3.611
53251W        W24834  14.022  13.777   4.666
53252W        W24835  16.635  44.389   0.595
53253W        W24836   0.352  30.733   0.684
53254W        W24837  35.808   2.990   3.790
53255W        W24838  38.391  40.545  12.382
53256W        W24839  25.148  14.648  14.747
53257W        W24840  17.154  42.933  12.940
53258W        W24841  11.373   6.783  11.520
53259W        W24842  22.214  42.788   4.580
53260W        W24843  37.547   1.985   1.983
53261W        W24844  18.071  12.332   4.060
53262W        W24845  26.779  37.786   4.211
53263W        W24846  19.531  14.868  14.402
53264W        W24847  15.618  16.379  13.480
53265W        W24848  10.407  26.487   3.720
53266W        W24849  34.398   4.409   4.044
53267W        W24850  14.315  37.889  13.935
53268W        W24851  31.716   4.415  13.562
53269W        W24852   6.972  31.955  10.830
53270W        W24853  18.101  27.454   1.893
53271W        W24854  19.573   5.495   1.408
53272W        W24855  32.594  38.758  13.000
53273W        W24856  30.459  13.221  10.632
53274W        W24857   1.365  34.549   3.382
53275W        W24858  39.347   7.769   2.820
53276W        W24859  16.236   2.720   3.454
53277W        W24860  24.722  32.947   3.223
53278W        W24861  10.619  21.228   2.752
53279W        W24862   0.400  40.440  13.810
53280W        W24863  37.333  28.233  10.999
53281W        W24864   9.833  44.807   4.725
53282W        W24865  20.615   9.423   4.873
53283W        W24866   1.815  31.012   3.100
53284W        W24867  33.560  10.637   2.321
53285W        W24868  12.533   0.446  13.358
53286W        W24869  19.096   2.456   4.391
53287W        W24870  35.368  42.868  12.504
53288W        W24871   5.689   8.295   0.258
53289W        W24872  24.088  12.352   0.358
53290W        W24873  29.162  43.772   2.979
53291W        W24874  17.043   1.284  13.504
53292W        W24875  40.415  12.251   3.105
53293W        W24876  43.310  26.024   3.298
53294W        W24877  19.744  13.840   1.854
53295W        W24878  38.880  40.033  13.111
53296W        W24879  32.335   0.406   2.911
53297W        W24880  39.324  15.550   3.699
53298W        W24881   5.745   6.007   0.856
53299W        W24882  21.270   5.495   1.776
53300W        W24883  14.209  36.433   2.677
53301W        W24884  24.411  30.870   2.783
53302W        W24885  15.585  33.390   2.679
53303W        W24886  26.764   9.837  14.740
53304W        W24887  33.122  23.040   0.303
53305W        W24888  17.904  33.789  11.184
53306W        W24889   8.168   5.160   4.090
53307W        W24890  19.382  31.118  13.482
53308W        W24891  24.952  41.833  11.446
53309W        W24892   1.233  24.135  14.964
53310W        W24893  23.910  36.878  14.491
53311W        W24894  30.179  37.482  11.989
53312W        W24895  33.849  24.633   0.000
53313W        W24896   0.564  10.334  12.820
53314W        W24897  39.474  25.719  14.757
53315W        W24898  16.071   5.668   0.388
53316W        W24899  22.103  22.458  11.500
53317W        W24900  30.119  40.448  13.344
53318W        W24901  41.329  43.234  12.421
53319W        W24902   4.793  21.236   3.880
53320W        W24903  20.607  15.977  10.197
53321W        W24904  13.324  38.030  12.530
53322W        W24905  17.063  36.209  12.087
53323W        W24906   1.390  13.936  14.963
53324W        W24907  39.881  33.885   4.114
53325W        W24908  40.858  40.461  10.467
53326W        W24909  30.052   3.520  12.863
53327W        W24910   0.780  30.886  11.772
53328W        W24911  25.923   0.438  14.399
53329W        W24912   0.720  11.385  10.509
53330W        W24913  37.938  36.879  14.318
53331W        W24914   7.529  36.470  10.749
53332W        W24915  28.479  34.196   2.259
53333W        W24916   7.649  32.418   2.308
53334W        W24917  25.247  31.936  10.103
53335W        W24918  35.153   4.269  10.388
53336W        W24919  12.974  23.058  12.846
53337W        W24920   4.907   0.322  12.086
53338W        W24921   6.797  22.950   3.156
53339W        W24922  11.359  39.891  14.853
53340W        W24923  10.803  27.633   3.653
53341W        W24924  18.969  43.860   0.037
53342W        W24925  11.353  10.368   3.334
53343W        W24926  10.698  25.955  12.083
53344W        W24927   8.403  40.880  12.039
53345W        W24928  22.997  42.605   4.153
53346W        W24929  20.758  18.476   0.624
53347W        W24930  37.567  27.563  10.560
53348W        W24931  18.862  35.608  14.912
53349W        W24932   8.906  40.438  13.921
53350W        W24933  14.826  14.123   3.273
53351W        W24934  16.661  43.855   1.833
53352W        W24935  22.143  27.344  14.432
53353W        W24936   8.730  31.368  11.568
53354W        W24937  42.105   7.824   4.731
53355W        W24938  35.528  11.139  11.591
53356W        W24939   2.035  24.671  11.161
53357W        W24940  31.394  36.775  11.618
53358W        W24941   7.419  26.126   3.729
53359W        W24942  22.290  25.333   1.411
53360W        W24943  19.741  40.136   3.607
53361W        W24944  31.654   6.348   4.279
53362W        W24945   9.104  19.100  14.342
53363W        W24946  12.014  15.708   0.464
53364W        W24947  21.493  25.075   0.816
53365W        W24948  41.277  32.921   1.839
53366W        W24949   4.872  21.762   2.620
53367W        W24950  38.686  28.534  10.730
53368W        W24951  19.379  17.181  14.386
53369W        W24952  36.169  20.777  12.538
53370W        W24953  17.295  43.816  13.362
53371W        W24954  22.989  25.282  11.619
53372W        W24955  26.586  20.808  10.752
53373W        W24956  14.442   2.347  10.611
53374W        W24957  15.591  38.375   0.881
53375W        W24958  16.046  34.559  14.387
53376W        W24959  42.362  24.111   1.835
53377W        W24960  37.010   2.871  14.398
53378W        W24961  26.236  37.384  14.454
53379W        W24962   7.238  15.306  14.859
53380W        W24963  23.149  17.436   3.249
53381W        W24964   5.817   6.336   1.889
53382W        W24965  32.498  34.336  10.619
53383W        W24966   8.705  19.094   0.790
53384W        W24967  32.418   8.878   3.564
53385W        W24968  31.136  36.542   0.037
53386W        W24969  15.794  29.856   2.095
53387W        W24970  41.496  33.630  12.507
53388W        W24971  43.993   7.647   4.236
53389W        W24972   0.718   1.838   0.755
53390W        W24973   9.597   5.392  13.402
53391W        W24974  13.250  26.264   0.868
53392W        W24975   0.165  16.687  12.779
53393W        W24976  19.975  14.160  10.593
53394W        W24977   2.494   6.944   4.326
53395W        W24978  35.148  18.140  13.863
53396W        W24979  31.034  29.621   4.242
53397W        W24980  35.799  15.889  11.593
53398W        W24981  23.074  11.786  11.696
53399W        W24982  30.838  28.068   4.712
53400W        W24983  16.245  33.685  11.512
53401W        W24984  29.392  36.078   0.827
53402W        W24985  36.311  29.609  13.088
53403W        W24986   4.985  44.511   0.921
53404W        W24987  29.541  24.959   1.313
53405W        W24988  19.306  36.553   2.004
53406W        W24989  21.033  31.513  10.225
53407W        W24990  43.440  38.328  14.960
53408W        W24991  14.259  24.227   3.098
53409W        W24992  10.712   3.965   3.213
53410W        W24993  13.035  39.542  12.538
53411W        W24994  14.848  38.964   1.248
53412W        W24995  22.776  38.893  12.532
53413W        W24996  30.465  26.664  11.939
53414W        W24997  20.009  36.159   0.788
53415W        W24998  38.974  10.348  11.754
53416W        W24999  12.270   8.571  14.699
53417W        W25000   6.725  22.424   1.402
53418W        W25001  37.904  23.407  11.232
53419W        W25002  29.564   4.695   2.235
53420W        W25003  41.895   0.373   4.594
53421W        W25004  18.539  24.142  10.378
53422W        W25005  24.049  23.669   1.029
53423W        W25006  13.837  14.654  12.048
53424W        W25007  10.760   1.001  12.063
53425W        W25008  25.706  42.812   2.907
53426W        W25009  41.772  23.090  10.693
53427W        W25010  23.973  37.063   1.318
53428W        W25011  17.218  18.410   1.381
53429W        W25012  23.485  43.417  12.958
53430W        W25013  42.987  23.299  13.974
53431W        W25014  37.675  41.297   1.825
53432W        W25015  24.250  14.669  11.115
53433W        W25016  43.366  16.862   1.014
53434W        W25017   3.513   2.288   5.079
53435W        W25018   8.351  36.100  10.917
53436W        W25019   2.401  10.484  12.695
53437W        W25020  26.151  40.404  14.527
53438W        W25021  12.698  28.529  11.621
53439W        W25022  15.850  11.432   3.423
53440W        W25023  26.980   1.829   4.588
53441W        W25024  26.136   3.275  11.468
53442W        W25025  15.248  35.200   0.775
53443W        W25026   2.011  17.639  12.063
53444W        W25027  38.381  24.082   2.387
53445W        W25028  42.067  33.999  13.378
53446W        W25029   3.961   2.112   2.332
53447W        W25030  11.167  10.002  13.390
53448W        W25031  34.094  28.444   3.593
53449W        W25032  24.481  18.786   2.329
53450W        W25033  38.267   6.867  13.783
53451W        W25034   3.265  10.455  12.473
53452W        W25035   7.149  15.629  13.434
53453W        W25036  13.261  35.831   2.036
53454W        W25037  26.243   5.225  13.019
53455W        W25038   6.238   3.469  12.431
53456W        W25039  19.829   3.148  12.842
53457W        W25040  16.887  44.288   4.620
53458W        W25041  44.053   6.686   4.854
53459W        W25042  40.236  30.916   3.223
53460W        W25043  31.991  22.034   4.076
53461W        W25044  19.745  17.314   4.696
53462W        W25045  44.584  35.625  13.092
53463W        W25046  27.124  23.537   3.725
53464W        W25047  31.483  25.459  13.424
53465W        W25048   6.393  38.161   4.242
53466W        W25049  27.038   0.934  11.113
53467W        W25050  16.279  30.864  12.136
53468W        W25051   7.469  29.030   3.277
53469W        W25052  27.193  15.569  10.307
53470W        W25053   4.995  36.716   1.397
53471W        W25054  43.290   5.617  13.755
53472W        W25055  25.182  31.131   2.285
53473W        W25056   3.304  44.865  12.018
53474W        W25057  22.750  30.475  14.772
53475W        W25058  10.226  23.264  10.800
53476W        W25059   9.882  22.288  11.539
53477W        W25060   6.650  13.288   0.763
53478W        W25061  27.608  17.386  14.806
53479W        W25062  39.870   6.472   0.289
53480W        W25063  29.071  17.415  10.480
53481W        W25064   9.681  33.645  13.925
53482W        W25065  20.792  42.390   3.670
53483W        W25066  34.370  26.914   0.775
53484W        W25067  37.771   1.304  14.230
53485W        W25068  43.948  14.954  11.498
53486W        W25069  37.780  39.945   4.474
53487W        W25070   8.774   5.658   0.543
53488W        W25071  36.313   9.016  13.343
53489W        W25072  36.227   5.864   3.918
53490W        W25073  42.576   6.134  13.152
53491W        W25074  11.301  19.397  11.587
53492W        W25075  37.441  33.105   3.708
53493W        W25076   8.361   1.299  10.900
53494W        W25077   7.860   1.878   3.582
53495W        W25078  22.050  16.596   5.074
53496W        W25079  41.939  11.056   4.196
53497W        W25080  15.694   2.812  10.516
53498W        W25081  11.352  18.117  13.275
53499W        W25082  37.977  31.487  13.979
53500W        W25083  36.963  34.975  10.965
53501W        W25084  39.913  39.057   0.292
53502W        W25085   0.766  11.561  14.966
53503W        W25086   7.468   1.916  14.231
53504W        W25087  32.480  26.173  11.160
53505W        W25088  16.248   0.976  14.831
53506W        W25089  33.536  40.545   3.375
53507W        W25090  41.469  14.568   2.380
53508W        W25091  24.708  24.483  10.425
53509W        W25092  26.176  11.684  11.197
53510W        W25093  26.807  13.235  14.820
53511W        W25094   6.682  10.218  13.010
53512W        W25095  15.400  36.760  13.822
53513W        W25096   9.629  26.692  12.758
53514W        W25097  20.232  19.286  13.039
53515W        W25098  38.352  35.384   0.807
53516W        W25099   4.388  34.952  13.945
53517W        W25100  14.713   4.157   0.678
53518W        W25101  24.274  33.933  11.729
53519W        W25102  16.598  13.544   2.338
53520W        W25103   6.344   1.364   0.033
53521W        W25104  36.452  29.973   4.410
53522W        W25105  34.403   9.297  10.537
53523W        W25106  29.435  22.112  14.027
53524W        W25107  42.984  13.403  14.770
53525W        W25108  43.535  34.624   1.427
53526W        W25109  34.554  12.361   0.350
53527W        W25110  18.279  23.207   3.250
53528W        W25111  40.039  21.593  12.117
53529W        W25112  21.971  38.858  14.357
53530W        W25113  42.095  36.073  10.628
53531W        W25114  32.142  12.207   0.186
53532W        W25115  33.109   4.509   2.719
53533W        W25116  34.605  23.454   1.760
53534W        W25117  25.691  40.402  14.285
53535W        W25118  44.930  11.282  11.959
53536W        W25119   8.965  25.158   2.230
53537W        W25120   6.217  17.114   2.739
53538W        W25121  27.509  36.519   0.820
53539W        W25122  43.485  16.421  14.550
53540W        W25123  29.821   6.399   4.008
53541W        W25124  25.039  25.325  12.518
53542W        W25125  33.422  14.826   3.250
53543W        W25126  38.528  22.287  13.748
53544W        W25127  16.055   5.858   3.917
53545W        W25128   3.462   2.965   4.483
53546W        W25129  12.423  17.313   3.562
53547W        W25130  31.551   7.388  14.384
53548W        W25131  33.618  41.717   0.485
53549W        W25132   5.064   9.759  10.636
53550W        W25133  20.463   2.898  11.182
53551W        W25134  39.783  16.203   2.129
53552W        W25135  19.472   2.320   1.562
53553W        W25136  10.812   3.475  11.123
53554W        W25137  21.221   9.696  12.095
53555W        W25138  31.104   7.356   0.311
53556W        W25139   0.541  25.981  11.938
53557W        W25140  34.967  33.666  14.836
53558W        W25141  28.713  36.987  14.130
53559W        W25142  20.449  19.652   1.825
53560W        W25143   6.384  21.451  14.215
53561W        W25144  43.766   9.368  14.034
53562W        W25145  17.356  29.127  11.653
53563W        W25146  23.180  34.449   4.454
53564W        W25147  23.066   2.732  14.838
53565W        W25148   5.637  20.170   2.055
53566W        W25149  40.332   0.525  12.463
53567W        W25150   5.977  11.144  14.913
53568W        W25151  44.953  15.150   3.641
53569W        W25152  12.763  22.990  10.722
53570W        W25153   9.464  19.679   0.966
53571W        W25154  40.432  31.508   2.430
53572W        W25155  27.277  29.199  12.327
53573W        W25156  42.869  11.739   2.138
53574W        W25157  12.026   9.283   4.741
53575W        W25158   7.302  36.515   3.425
53576W        W25159   3.204  28.995  11.922
53577W        W25160   8.038  43.669  10.818
53578W        W25161  38.849  29.022  13.968
53579W        W25162  43.577  36.552   0.334
53580W        W25163  28.530  40.312   4.117
53581W        W25164   4.436  44.801   0.357
53582W        W25165  15.024  39.418   3.299
53583W        W25166  10.377   4.776   1.401
53584W        W25167  44.833  24.147   4.478
53585W        W25168   8.159  13.211   3.688
53586W        W25169  17.149  18.797  14.750
53587W        W25170  39.986  33.578   3.655
53588W        W25171  44.816  31.591   1.679
53589W        W25172  30.639  33.002  11.539
53590W        W25173  18.796  11.149   1.807
53591W        W25174  33.338  35.225   4.977
53592W        W25175  33.187  21.715   1.444
53593W        W25176   6.171  18.885   0.766
53594W        W25177  29.673  43.065   4.586
53595W        W25178  27.067   2.543  13.315
53596W        W25179  30.083  22.242   1.272
53597W        W25180  30.642   9.625   2.778
53598W        W25181  32.537  17.611  13.673
53599W        W25182   3.275  10.953   1.403
53600W        W25183  34.698   2.476   1.698
53601W        W25184  30.094  37.984  11.735
53602W        W25185  32.700  18.879  10.578
53603W        W25186   0.892  36.421  11.999
53604W        W25187  12.707   1.289   2.196
53605W        W25188   9.787   2.715   4.072
53606W        W25189  22.629  13.880   1.272
53607W        W25190   3.789   1.818  11.490
53608W        W25191  39.299  24.409  10.364
53609W        W25192   0.425  17.154   2.760
53610W        W25193  15.665  21.759  13.865
53611W        W25194   0.279  39.819  12.517
53612W        W25195  24.149   3.510   3.741
53613W        W25196  23.621   2.388  11.755
53614W        W25197  44.491  15.165   0.264
53615W        W25198   8.113   8.662   1.372
53616W        W25199  27.195  31.111   0.304
53617W        W25200  19.037  41.896  12.340
53618W        W25201   2.585  22.744   2.164
53619W        W25202  23.969  27.238  12.059
53620W        W25203  35.427  15.353  13.525
53621W        W25204  25.566  36.611  12.077
53622W        W25205  19.397  40.395  14.772
53623W        W25206  20.094  32.926  13.206
53624W        W25207  26.638   3.372  11.591
53625W        W25208  20.998   9.297   4.562
53626W        W25209  42.932  28.974  12.435
53627W        W25210   3.649  15.946  11.025
53628W        W25211   0.443  30.644   3.213
53629W        W25212  27.737  39.245  11.105
53630W        W25213   4.655  17.168   1.756
53631W        W25214  18.419  11.694   0.938
53632W        W25215  43.809   1.392   2.284
53633W        W25216  36.981  36.352  10.556
53634W        W25217  40.475  18.789   1.266
53635W        W25218  39.407  35.067   2.444
53636W        W25219  34.911  39.851   3.374
53637W        W25220  35.450  34.068   1.179
53638W        W25221  18.014  16.381   3.307
53639W        W25222   8.286   2.637  11.681
53640W        W25223  11.679  14.757  12.922
53641W        W25224  41.955  26.468  13.417
53642W        W25225   1.614   2.604  14.320
53643W        W25226  38.163  33.060  12.334
53644W        W25227  18.065  13.083   3.537
53645W        W25228   2.654  38.679  12.890
53646W        W25229  11.146  10.249  12.010
53647W        W25230   2.269  33.528  10.683
53648W        W25231  35.198   2.377   4.126
53649W        W25232  19.041  12.634   1.878
53650W        W25233  15.884  10.486   0.781
53651W        W25234   0.250   8.318   0.455
53652W        W25235  37.359   1.795   3.363
53653W        W25236  36.626   5.905  14.502
53654W        W25237  22.588  26.935   0.797
53655W        W25238   7.156  35.699  12.403
53656W        W25239  23.463  29.579  13.367
53657W        W25240  43.298  21.132  14.706
53658W        W25241   5.608  14.253   4.184
53659W        W25242  20.797  37.365   1.616
53660W        W25243   2.372   8.255   1.327
53661W        W25244   3.539  30.784  14.423
53662W        W25245  44.232  12.514  10.355
53663W        W25246  23.478  42.399  12.703
53664W        W25247   0.153  11.649  11.299
53665W        W25248   5.165  14.053  10.515
53666W        W25249  12.072  18.741   2.588
53667W        W25250  43.526  11.088   3.707
53668W        W25251  19.157  34.594   3.292
53669W        W25252  40.407   9.746  12.816
53670W        W25253  25.567  12.852  13.070
53671W        W25254  41.511  21.175   5.008
53672W        W25255  30.988  12.845   4.366
53673W        W25256  15.866  23.003   1.863
53674W        W25257  22.498  38.759  13.022
53675W        W25258   7.072  14.308  14.894
53676W        W25259  12.525  41.432   0.335
53677W        W25260  36.808  19.087   4.498
53678W        W25261  33.248   5.610   2.879
53679W        W25262  16.236  25.161   1.724
53680W        W25263   0.545   7.375  11.602
53681W        W25264  21.608  26.286  11.964
53682W        W25265  39.440   7.818   5.034
53683W        W25266  29.697  16.116   1.354
53684W        W25267  39.970  21.178   2.186
53685W        W25268  34.332  17.534  12.956
53686W        W25269  19.064  11.868  12.834
53687W        W25270  31.853  27.066  12.552
53688W        W25271  44.331  37.544   4.622
53689W        W25272  30.008  40.537  14.875
53690W        W25273   6.241   2.708   4.696
53691W        W25274  43.566  26.506  13.308
53692W        W25275  42.434   3.528  14.904
53693W        W25276  22.164  17.635   3.208
53694W        W25277   1.837  19.056  14.894
53695W        W25278   8.815  40.920  11.230
53696W        W25279  31.441  38.770   2.290
53697W        W25280  15.186  30.990   4.633
53698W        W25281  23.670  16.663  11.717
53699W        W25282  17.277  11.141  11.189
53700W        W25283  27.489   8.178  14.300
53701W        W25284  21.263  28.047   3.975
53702W        W25285  34.924  42.918   3.821
53703W        W25286  27.696  40.579  14.329
53704W        W25287  31.473  27.135   3.795
53705W        W25288  25.043  36.305   1.789
53706W        W25289   7.767  44.649   2.790
53707W        W25290   9.501  30.525   5.132
53708W        W25291  24.182  37.965   4.595
53709W        W25292  39.545  36.790   0.324
53710W        W25293  19.584  15.925  12.096
53711W        W25294  38.016  15.074   3.749
53712W        W25295  24.983   1.565   3.157
53713W        W25296  32.235  40.603   0.347
53714W        W25297  15.351   9.099   0.508
53715W        W25298  39.336  44.858  13.886
53716W        W25299  24.459  20.505  10.713
53717W        W25300  27.169  32.636   2.796
53718W        W25301  19.774  29.868   1.796
53719W        W25302   8.756  42.197   1.399
53720W        W25303  20.796  18.300   1.450
53721W        W25304   5.658  42.313   4.619
53722W        W25305  33.358   9.122   1.022
53723W        W25306  22.445   8.321  12.053
53724W        W25307  17.814  25.595  13.551
53725W        W25308   3.115  34.495   3.748
53726W        W25309   5.217  31.706  11.435
53727W        W25310  21.476  14.646   0.002
53728W        W25311  22.609   6.998  11.369
53729W        W25312  13.663  42.393   0.546
53730W        W25313  13.352  14.318   4.620
53731W        W25314  27.170   3.261   1.207
53732W        W25315  13.943   7.592   3.237
53733W        W25316  42.317   0.373   2.115
53734W        W25317  32.984  16.300  11.943
53735W        W25318  13.299  18.530  14.279
53736W        W25319  21.645  10.768  10.522
53737W        W25320   7.658  28.166  12.960
53738W        W25321  20.126  38.765  14.660
53739W        W25322  31.954  27.979  10.628
53740W        W25323  23.767  14.225   1.292
53741W        W25324  10.245   2.620   4.996
53742W        W25325  30.094   7.228  12.338
53743W        W25326  30.426  16.610   2.820
53744W        W25327  22.934  40.923   1.676
53745W        W25328  26.744   0.888  12.411
53746W        W25329   1.296  24.496   1.799
53747W        W25330  30.390  31.303   3.837
53748W        W25331  34.915  20.742   4.196
53749W        W25332  13.191   0.788   2.843
53750W        W25333  41.150  14.796  13.114
53751W        W25334  44.930  33.450  13.131
53752W        W25335  16.690  16.979  12.993
53753W        W25336  30.582  33.983   3.884
53754W        W25337   4.803   2.382  14.019
53755W        W25338  18.935  19.214  12.483
53756W        W25339   0.853  21.054   3.182
53757W        W25340  12.331  31.639   2.903
53758W        W25341   1.570  38.396   3.819
53759W        W25342  27.210  18.009  14.380
53760W        W25343  14.146  13.982  11.111
53761W        W25344  22.050   3.270   1.759
53762W        W25345   9.371  33.886  10.573
53763W        W25346  42.358  22.471  12.434
53764W        W25347  43.683   4.539  12.092
53765W        W25348   1.736   1.420  11.229
53766W        W25349  12.709  10.602   0.515
53767W        W25350  25.702   1.819   2.733
53768W        W25351  36.860  20.194   1.650
53769W        W25352   6.681  31.429  12.498
53770W        W25353   1.338  40.854   2.602
53771W        W25354  39.103   6.871  12.521
53772W        W25355  18.575   3.243  11.601
53773W        W25356  19.108  16.993   2.414
53774W        W25357  28.069   7.333  12.470
53775W        W25358  32.819   2.790  11.233
53776W        W25359  16.784   6.270  13.591
53777W        W25360   5.986  37.962   3.183
53778W        W25361   0.009   9.721  12.180
53779W        W25362   0.236  42.836  11.891
53780W        W25363  28.455  34.972   0.481
53781W        W25364   3.437  27.956   1.415
53782W        W25365  43.388  25.116   3.581
53783W        W25366  25.081  11.830  11.497
53784W        W25367  13.130  41.069  13.433
53785W        W25368  15.650  27.188   0.031
53786W        W25369   8.867   2.151  12.928
53787W        W25370  24.879  21.207   2.241
53788W        W25371  24.031  24.432  14.364
53789W        W25372   1.586  35.156  13.595
53790W        W25373  32.975  20.572   1.948
53791W        W25374  23.449  32.074  12.625
53792W        W25375  16.950  10.150   4.742
53793W        W25376  23.070  39.803  13.563
53794W        W25377   7.544  28.534  14.409
53795W        W25378  30.499  24.971  13.501
53796W        W25379  22.134  44.450   0.996
53797W        W25380  11.156  41.959   1.609
53798W        W25381  23.260  27.994   4.673
53799W        W25382  39.517  41.359   2.148
53800W        W25383  43.015   6.707   4.374
53801W        W25384  16.010  14.614  12.491
53802W        W25385  21.006   1.568  12.611
53803W        W25386  38.093  10.824  14.717
53804W        W25387  20.105  32.183   0.294
53805W        W25388  12.382  31.613   0.891
53806W        W25389  43.024  42.533   3.499
53807W        W25390  33.468  16.658   1.909
53808W        W25391   2.292  25.429   2.469
53809W        W25392  23.180   4.428   4.030
53810W        W25393  31.174  28.494   3.415
53811W        W25394  17.250  29.055   4.844
53812W        W25395  41.327   1.092   4.638
53813W        W25396   1.336  19.032   0.028
53814W        W25397  42.475   7.642   3.568
53815W        W25398  23.107  13.655  14.254
53816W        W25399  22.496   0.744   3.534
53817W        W25400  32.769   8.131   0.423
53818W        W25401  39.858  25.371   0.744
53819W        W25402  10.372   5.776  11.630
53820W        W25403   9.612   2.828   4.545
53821W        W25404  25.856   8.728  10.293
53822W        W25405  11.088  19.466   3.713
53823W        W25406  22.760   5.473  13.262
53824W        W25407  15.296  18.181  11.444
53825W        W25408  33.430  22.288  11.876
53826W        W25409  19.954  22.806  11.228
53827W        W25410  44.800   3.859  12.238
53828W        W25411  14.252  16.540  12.019
53829W        W25412  31.147  25.078   4.616
53830W        W25413  12.181  23.695  14.505
53831W        W25414  16.422  37.427  14.324
53832W        W25415  33.691   1.995  12.930
53833W        W25416  15.055  40.412  11.536
53834W        W25417  35.430  23.368  13.858
53835W        W25418  26.908  24.896  11.573
53836W        W25419  17.003  22.405  14.238
53837W        W25420   1.120  11.236   1.300
53838W        W25421  41.158   9.227  12.395
53839W        W25422   0.879   9.869  13.946
53840W        W25423  13.902   3.604   3.672
53841W        W25424  11.601   2.566  12.449
53842W        W25425  21.025  25.097   3.971
53843W        W25426  22.457  17.146  14.998
53844W        W25427  20.958  19.181   2.286
53845W        W25428  14.561  42.011  10.747
53846W        W25429  34.015   7.781   4.981
53847W        W25430  37.896  14.668   2.187
53848W        W25431  36.665  20.711  12.623
53849W        W25432  35.519   3.828  13.447
53850W        W25433   4.124  18.298  10.260
53851W        W25434   4.661  10.156  13.103
53852W        W25435  13.882  40.558   3.101
53853W        W25436  37.852  29.753  12.986
53854W        W25437  17.262  40.117  10.215
53855W        W25438  19.271   1.687  11.915
53856W        W25439  12.417  12.068   4.117
53857W        W25440  21.936   3.012   3.315
53858W        W25441  14.159  23.285  11.083
53859W        W25442  22.527   0.766   4.032
53860W        W25443   0.229  15.178   4.116
53861W        W25444  29.072   9.257   0.078
53862W        W25445  32.109  43.357   2.591
53863W        W25446  27.358   8.408  14.746
53864W        W25447  24.067   8.301   2.663
53865W        W25448  19.561  10.630   0.533
53866W        W25449  14.663   2.988   4.247
53867W        W25450  22.720   1.885   3.536
53868W        W25451   6.738  44.471   3.356
53869W        W25452  40.999  25.195  11.498
53870W        W25453  22.178  25.140  11.402
53871W        W25454  12.282   8.807   3.407
53872W        W25455  31.348  35.246  12.118
53873W        W25456  14.744  38.234  14.795
53874W        W25457  33.630   5.052  14.244
53875W        W25458  11.940   4.820   1.286
53876W        W25459  30.556  38.504  11.447
53877W        W25460   0.911  21.691   3.714
53878W        W25461   8.334   1.843   1.752
53879W        W25462   2.435  39.810  14.663
53880W        W25463  32.927   9.941  14.834
53881W        W25464  36.844   0.868   4.069
53882W        W25465  42.882  23.604   1.102
53883W        W25466  27.984  41.830   4.630
53884W        W25467  13.242  23.068   4.679
53885W        W25468  15.688  29.941   0.745
53886W        W25469  43.025  25.900  11.946
53887W        W25470  38.234  40.064  13.966
53888W        W25471  13.279  11.722  12.656
53889W        W25472  42.392  12.197   3.273
53890W        W25473  26.193   8.640   1.853
53891W        W25474  14.397   3.892   3.574
53892W        W25475  10.182   0.567  11.151
53893W        W25476  14.189  14.503  12.894
53894W        W25477   2.484   5.549   3.974
53895W        W25478  17.512  24.522   0.663
53896W        W25479  32.328  26.021  14.450
53897W        W25480  18.554  28.199   3.391
53898W        W25481  11.846  43.898   0.858
53899W        W25482  36.140  35.390   2.730
53900W        W25483  13.695   1.773   4.079
53901W        W25484  44.901   3.188   2.364
53902W        W25485  30.243  39.394  12.932
53903W        W25486  18.222   2.773  12.064
53904W        W25487   9.235  28.122  10.417
53905W        W25488  22.190  32.106  11.363
53906W        W25489  42.077  25.220   1.103
53907W        W25490  42.293  17.748  12.549
53908W        W25491  23.765  17.626   3.565
53909W        W25492  18.880  32.379   1.307
53910W        W25493  17.002   2.177  12.182
53911W        W25494  25.713  33.124   1.609
53912W        W25495  28.225   4.923   1.733
53913W        W25496  32.340  12.598  10.660
53914W        W25497  21.116  23.752  11.296
53915W        W25498  16.878  23.021  14.684
53916W        W25499  25.804  29.918   0.893
53917W        W25500  27.385  30.184  13.933
53918W        W25501  41.265  33.089  14.806
53919W        W25502  15.251   6.912   2.738
53920W        W25503  44.293  23.131   3.595
53921W        W25504  20.535  34.985   2.034
53922W        W25505  25.610   8.149   1.822
53923W        W25506  31.911  29.723   2.305
53924W        W25507  11.188  25.644   2.731
53925W        W25508  12.373   1.211  12.797
53926W        W25509  27.725  42.853   3.407
53927W        W25510  40.115  31.727  11.298
53928W        W25511  12.601  38.365  14.207
53929W        W25512  24.215  40.121   2.802
53930W        W25513  16.570   6.908  12.270
53931W        W25514  18.337  44.757   3.728
53932W        W25515  31.463  33.335   2.178
53933W        W25516  28.654  13.260   3.720
53934W        W25517   4.888  36.640   3.738
53935W        W25518  23.163  12.317   3.678
53936W        W25519  23.424  29.544  10.215
53937W        W25520   8.977  10.313  10.161
53938W        W25521  43.256   5.810   2.635
53939W        W25522  33.647  28.049   0.416
53940W        W25523  25.571  13.312   3.426
53941W        W25524  32.036   5.171  10.712
53942W        W25525  12.201  38.917  11.891
53943W        W25526  35.800  22.733  13.542
53944W        W25527  21.977  12.559   3.253
53945W        W25528  12.743  43.926   1.225
53946W        W25529  37.634  19.722  13.374
53947W        W25530  12.425  41.777   4.597
53948W        W25531  39.937  41.471   0.448
53949W        W25532  31.848  15.755  12.036
53950W        W25533  36.775  29.281   4.820
53951W        W25534  31.762  42.854  14.933
53952W        W25535  11.220   0.401   4.752
53953W        W25536  38.865  13.727  12.034
53954W        W25537  18.233  35.771  14.434
53955W        W25538  41.422   8.116   2.913
53956W        W25539  40.355  13.882  12.054
53957W        W25540  32.459  42.815  12.873
53958W        W25541  25.544   8.694  12.020
53959W        W25542  44.174  21.353  13.078
53960W        W25543  31.692  12.999   1.274
53961W        W25544  19.963  43.001  12.165
53962W        W25545  35.643  28.456   4.560
53963W        W25546   1.601  21.358   5.001
53964W        W25547  12.682  13.341  14.318
53965W        W25548   3.393  36.347   9.787
53966W        W25549  38.234  28.326   1.379
53967W        W25550  40.333  15.161   3.717
53968W        W25551  22.490  18.359  10.653
53969W        W25552   3.104  37.150  14.407
53970W        W25553  16.491   6.786  14.447
53971W        W25554  21.795  20.307  10.229
53972W        W25555  27.742  44.322   4.679
53973W        W25556  12.816   7.480  10.808
53974W        W25557  39.085   0.065   0.332
53975W        W25558   4.827   4.768   4.510
53976W        W25559  28.237   9.497  11.619
53977W        W25560  24.898  10.741   3.643
53978W        W25561  43.227  44.042  11.142
53979W        W25562  15.689  34.985   0.623
53980W        W25563   0.221  30.407   0.248
53981W        W25564  16.441  14.711   3.611
53982W        W25565   3.865  20.209  14.426
53983W        W25566  17.780  44.015   2.079
53984W        W25567  24.711   2.322   0.533
53985W        W25568   1.955  11.149   3.254
53986W        W25569  18.379  10.661  10.719
53987W        W25570  34.957  17.584  10.524
53988W        W25571  34.416   0.877   4.158
53989W        W25572  20.477   3.664  13.428
53990W        W25573  31.127  38.358   3.756
53991W        W25574   9.869  40.354   1.430
53992W        W25575  15.123  25.599  11.092
53993W        W25576  19.943   1.552  14.067
53994W        W25577   5.269  11.596  10.705
53995W        W25578  18.306   6.484  13.491
53996W        W25579  26.255   7.267  14.850
53997W        W25580   7.251  36.429  11.711
53998W        W25581  29.358  38.351   1.827
53999W        W25582   0.396  13.402   3.049
54000W        W25583  13.900  25.129  13.325
54001W        W25584   6.092  37.195   4.345
54002W        W25585   1.563  21.624  10.612
54003W        W25586   3.991  29.595  13.442
54004W        W25587  31.801  44.582   3.169
54005W        W25588  33.479  12.784  13.475
54006W        W25589  28.838  43.569   3.734
54007W        W25590  32.273   9.190   1.218
54008W        W25591  21.789  38.189  11.529
54009W        W25592  32.930  44.482   0.615
54010W        W25593  28.636   1.954  13.626
54011W        W25594  42.778  35.054  12.464
54012W        W25595   4.676  29.076  14.892
54013W        W25596  12.879  40.469  13.374
54014W        W25597   6.135  11.432   2.160
54015W        W25598  36.154   1.731   4.941
54016W        W25599  24.077  11.873   0.077
54017W        W25600  20.078  14.066   3.353
54018W        W25601  18.708  32.382   0.295
54019W        W25602  34.069  29.991  12.134
54020W        W25603  10.350  22.784   3.289
54021W        W25604  17.623  30.844  13.055
54022W        W25605   6.430  40.515   2.747
54023W        W25606  37.489  22.181  11.701
54024W        W25607  42.789  37.990   3.077
54025W        W25608  24.295  21.701  11.169
54026W        W25609   2.882   4.721  13.558
54027W        W25610  39.721  32.399   4.053
54028W        W25611  20.557   0.911   4.654
54029W        W25612  35.928  35.578  10.623
54030W        W25613  39.986  11.200   2.621
54031W        W25614  33.336  26.533   3.910
54032W        W25615   5.221  14.004  11.021
54033W        W25616  26.705  16.127   1.959
54034W        W25617  44.841  39.809  13.508
54035W        W25618  38.506  20.036  14.424
54036W        W25619  29.213  16.990  13.438
54037W        W25620  33.145  11.772   2.878
54038W        W25621  26.011   4.593   0.218
54039W        W25622  30.909   8.776   2.752
54040W        W25623  37.123   2.247   3.222
54041W        W25624  30.426   8.614   1.267
54042W        W25625   9.614  39.629   2.843
54043W        W25626  41.584  26.549   0.939
54044W        W25627  36.084  37.548  13.922
54045W        W25628  34.809  39.300   0.955
54046W        W25629  16.422  17.817   3.670
54047W        W25630  24.502  39.432  13.721
54048W        W25631  41.995   7.450  10.753
54049W        W25632  20.842   5.751   3.136
54050W        W25633  26.064  15.801   3.304
54051W        W25634   1.198  40.527   3.425
54052W        W25635  11.121  38.035  14.924
54053W        W25636  23.558   9.313   1.863
54054W        W25637  23.687  31.667   2.766
54055W        W25638  32.017   6.280   2.264
54056W        W25639  38.014   3.332   3.300
54057W        W25640   0.826  38.495  10.715
54058W        W25641  15.126   8.042  12.011
54059W        W25642  18.249   9.132   1.835
54060W        W25643   9.758  16.639  13.565
54061W        W25644  15.023  13.035   1.293
54062W        W25645  29.345  32.204  10.686
54063W        W25646  15.325  43.087   1.296
54064W        W25647   8.663  42.909  14.969
54065W        W25648  12.742  28.666  13.875
54066W        W25649  21.463  35.298   3.327
54067W        W25650  12.272  19.870   3.609
54068W        W25651  41.945  44.342  10.294
54069W        W25652  20.110   4.960  10.775
54070W        W25653   3.901  22.209   1.993
54071W        W25654  42.950   4.109  13.837
54072W        W25655   3.666  31.087   5.063
54073W        W25656  39.903  39.419  14.879
54074W        W25657  39.347  25.634   4.040
54075W        W25658  32.665  11.767  10.736
54076W        W25659  20.055   2.906  13.530
54077W        W25660  37.390  26.410   2.757
54078W        W25661  32.681   2.148   0.312
54079W        W25662  30.117  12.421  12.863
54080W        W25663  21.394  17.116  11.889
54081W        W25664  17.582  26.919   2.223
54082W        W25665   6.902  25.222   3.654
54083W        W25666  23.958   9.083   0.707
54084W        W25667  24.210  31.081  11.172
54085W        W25668  40.608   1.860   1.422
54086W        W25669  29.638  20.834  10.327
54087W        W25670   3.661  37.655   4.587
54088W        W25671  16.220   7.696  10.625
54089W        W25672   3.710   5.601  11.367
54090W        W25673  32.228   5.399  14.371
54091W        W25674  32.656   0.779   2.734
54092W        W25675  37.435   8.914   0.117
54093W        W25676  16.121  42.717  12.126
54094W        W25677  17.856  38.325   1.416
54095W        W25678  30.668  41.617   1.252
54096W        W25679   9.586  32.650   4.005
54097W        W25680  14.414  43.292   3.733
54098W        W25681  43.012  23.105  11.331
54099W        W25682  19.103   8.770   3.175
54100W        W25683  28.536  12.801   3.442
54101W        W25684  36.283  19.659  13.525
54102W        W25685  44.272   4.950  14.363
54103W        W25686   1.747  34.318   2.170
54104W        W25687  28.564  35.719  14.861
54105W        W25688  30.075  11.836  11.730
54106W        W25689  10.781  31.190  11.137
54107W        W25690  28.472  21.230   3.531
54108W        W25691  38.350  25.201   1.306
54109W        W25692  12.427  15.199   1.889
54110W        W25693   1.965  15.498   4.025
54111W        W25694  36.412  31.469  14.548
54112W        W25695  17.192  31.027   1.772
54113W        W25696   4.827  10.775   5.043
54114W        W25697  37.607  38.511  13.079
54115W        W25698  11.760   0.462  11.572
54116W        W25699   7.725  17.206   3.204
54117W        W25700  43.523  33.078  10.580
54118W        W25701  26.097  30.424  11.891
54119W        W25702  44.936  38.364   1.631
54120W        W25703  33.550  32.116   1.997
54121W        W25704  14.164  35.824   1.453
54122W        W25705  22.055  37.377  12.088
54123W        W25706  31.344  32.128  14.045
54124W        W25707  37.730  35.043   1.321
54125W        W25708  36.308  38.323  14.978
54126W        W25709  13.006   8.838   5.027
54127W        W25710  30.141  32.037  10.270
54128W        W25711  26.061  24.865   4.153
54129W        W25712   8.148  36.577  13.069
54130W        W25713  44.042  24.645   3.283
54131W        W25714  31.877   1.436  12.674
54132W        W25715  15.974  40.748  11.627
54133W        W25716  33.092   0.020   2.775
54134W        W25717  34.626  22.990  14.957
54135W        W25718  21.608  31.691   1.965
54136W        W25719  16.324  22.436  13.987
54137W        W25720   8.560  16.731   2.380
54138W        W25721  25.518   0.435  11.598
54139W        W25722  10.626  12.361   5.052
54140W        W25723   3.935  41.827   4.194
54141W        W25724   0.764   0.501   2.364
54142W        W25725  13.059  12.595   0.368
54143W        W25726  11.828  11.605  13.854
54144W        W25727  24.885  13.385   1.351
54145W        W25728  31.620  22.576  14.018
54146W        W25729  18.838  16.511  14.062
54147W        W25730  43.736  19.721   3.735
54148W        W25731  14.676  26.591  14.263
54149W        W25732  26.564   4.200   2.904
54150W        W25733  10.848   7.154   4.678
54151W        W25734   8.746  28.370  11.458
54152W        W25735  31.699  24.835   1.615
54153W        W25736  16.824  35.044   5.461
54154W        W25737  16.632  21.870   1.842
54155W        W25738  28.349  40.029   4.555
54156W        W25739  37.560  24.265   3.402
54157W        W25740   3.851   8.747  12.576
54158W        W25741  40.569  24.088   4.352
54159W        W25742   7.214  21.341  13.119
54160W        W25743   9.899  31.735   0.427
54161W        W25744  10.866  18.785   1.312
54162W        W25745  22.627  43.816   0.041
54163W        W25746  26.975  33.114   2.718
54164W        W25747  14.868   7.325  13.861
54165W        W25748  34.535  33.887  13.247
54166W        W25749  16.052  33.872  12.134
54167W        W25750   2.462  10.619  10.472
54168W        W25751   9.330   3.301  14.450
54169W        W25752  22.080   6.086   2.990
54170W        W25753  31.332  31.565  14.252
54171W        W25754   2.885  26.721   2.374
54172W        W25755   3.190  41.110  14.931
54173W        W25756   7.726  22.787   4.089
54174W        W25757  32.042   3.007  11.973
54175W        W25758  27.517  34.577   3.851
54176W        W25759  30.707  29.313  14.413
54177W        W25760  33.955   7.888   2.354
54178W        W25761  10.572  44.350   4.799
54179W        W25762  28.003  23.103  12.061
54180W        W25763   6.388   6.650  12.494
54181W        W25764   5.715  31.682   0.271
54182W        W25765  14.193   4.127  11.141
54183W        W25766  42.788  21.439   0.764
54184W        W25767  15.186  29.325   2.012
54185W        W25768  34.152  37.281  14.441
54186W        W25769  17.085  16.609  12.827
54187W        W25770  17.991   3.738  12.938
54188W        W25771  16.636   9.371   3.590
54189W        W25772  14.631  28.096  13.467
54190W        W25773  12.828  37.930  14.027
54191W        W25774  20.533  25.970  11.063
54192W        W25775   7.307  21.590  13.776
54193W        W25776  36.312  16.236   2.644
54194W        W25777  38.104   0.968  11.158
54195W        W25778  15.218   2.423   0.857
54196W        W25779  20.611  13.540   3.683
54197W        W25780  33.679  10.285  13.609
54198W        W25781  30.999  38.320   1.386
54199W        W25782  33.414  44.086  14.873
54200W        W25783  37.909  35.118   4.890
54201W        W25784  20.249  38.418  10.925
54202W        W25785  22.540   3.385  12.595
54203W        W25786   6.826   0.988  13.861
54204W        W25787   8.211  20.986  13.877
54205W        W25788  23.939  35.648  14.705
54206W        W25789  19.364  12.884   2.412
54207W        W25790   2.866  23.456   4.156
54208W        W25791  40.068  41.412   4.300
54209W        W25792  19.095   9.364   3.222
54210W        W25793   4.679  34.436   3.638
54211W        W25794   5.643  43.904   4.548
54212W        W25795  11.699   2.732  13.611
54213W        W25796  18.231  24.561  10.595
54214W        W25797  21.125   8.028  14.828
54215W        W25798  36.043  26.220   0.049
54216W        W25799  12.796  44.058  14.748
54217W        W25800   2.426  30.229  14.741
54218W        W25801   6.985  39.959  12.153
54219W        W25802  26.030   4.004  13.481
54220W        W25803  38.702  23.540   3.101
54221W        W25804  20.529  27.983  10.229
54222W        W25805  12.283  28.038   3.774
54223W        W25806  23.229  19.532   2.391
54224W        W25807  15.932  26.912  14.016
54225W        W25808  28.791   2.678   4.174
54226W        W25809  43.442   2.845  13.656
54227W        W25810  30.507   7.642   0.975
54228W        W25811   3.912  34.670   4.388
54229W        W25812  36.867   7.373   4.854
54230W        W25813  24.054  30.956   4.597
54231W        W25814  16.507  25.997   5.038
54232W        W25815   3.400  42.318  11.201
54233W        W25816   5.420   1.418  10.905
54234W        W25817   4.750   1.922   1.782
54235W        W25818  24.754  24.021   0.595
54236W        W25819   8.228  36.999  14.707
54237W        W25820  10.102  30.669  14.395
54238W        W25821  30.675   9.879  12.235
54239W        W25822   5.152  22.619  13.464
54240W        W25823  24.357  11.836  11.873
54241W        W25824  41.404  13.189  11.111
54242W        W25825  40.024   7.988   0.362
54243W        W25826   8.722  28.014   2.379
54244W        W25827  31.325  35.000  11.310
54245W        W25828  26.658  40.533  12.107
54246W        W25829   9.335  34.294   4.124
54247W        W25830   1.789  19.533  10.695
54248W        W25831  28.433  14.293  14.785
54249W        W25832  37.886  10.356   4.543
54250W        W25833  20.397  10.196  13.905
54251W        W25834  12.249  28.171   4.710
54252W        W25835   3.141  10.714  11.066
54253W        W25836   8.209  38.540   1.874
54254W        W25837   9.160  15.185   1.358
54255W        W25838  35.940  29.896   0.391
54256W        W25839  19.295  24.527   1.314
54257W        W25840  40.084   3.616  13.494
54258W        W25841  40.841   5.859  10.281
54259W        W25842  15.230  21.983   4.212
54260W        W25843  35.242  31.498  12.827
54261W        W25844  33.919  18.328  14.945
54262W        W25845   5.964  18.207   0.062
54263W        W25846  33.630  43.574  14.876
54264W        W25847  24.042  37.648  12.415
54265W        W25848  14.183  14.174  12.071
54266W        W25849  44.722  36.825  13.102
54267W        W25850  42.779  33.620  12.662
54268W        W25851   6.760  42.938  10.842
54269W        W25852  37.900   6.887  11.958
54270W        W25853  18.222  26.686  14.216
54271W        W25854  32.343  28.271   5.005
54272W        W25855   5.987  43.238   2.752
54273W        W25856   9.143  27.120  11.507
54274W        W25857  40.364  16.930  11.205
54275W        W25858  36.056  26.841  11.150
54276W        W25859  38.592  38.454  12.101
54277W        W25860  13.730  20.352   4.719
54278W        W25861  25.280  36.643  11.649
54279W        W25862  43.381   8.745   2.228
54280W        W25863  27.559   5.401  10.724
54281W        W25864  31.505  42.052  12.067
54282W        W25865  14.994  37.355   5.344
54283W        W25866  35.600  41.571  11.996
54284W        W25867  28.027  30.565  14.874
54285W        W25868  38.265   7.284  12.101
54286W        W25869  31.121  11.137   1.301
54287W        W25870   3.703  34.276   1.987
54288W        W25871  21.074  30.697   2.350
54289W        W25872  41.182  30.722  13.948
54290W        W25873  25.600  43.674  12.115
54291W        W25874  16.806  40.303  11.926
54292W        W25875  16.979   7.924   0.447
54293W        W25876  42.011  21.770   3.884
54294W        W25877   1.679  10.376   0.461
54295W        W25878  22.057  32.898   0.260
54296W        W25879  33.615  25.473  12.950
54297W        W25880  19.492   0.811   0.345
54298W        W25881  14.119  25.690  14.387
54299W        W25882  16.283   0.261   4.521
54300W        W25883   1.709  15.874  14.970
54301W        W25884  18.549  11.203   3.070
54302W        W25885  26.283  18.194  13.961
54303W        W25886  31.888  35.272  13.081
54304W        W25887  16.319  13.916   2.094
54305W        W25888  42.247  39.583  13.335
54306W        W25889  26.077  35.478  12.958
54307W        W25890  28.528  12.875   5.463
54308W        W25891  20.813  15.251   4.772
54309W        W25892  14.709  29.978   3.240
54310W        W25893  21.526  23.203  12.021
54311W        W25894  32.933  37.340   0.408
54312W        W25895  14.132   2.747   2.662
54313W        W25896  40.101  39.510  12.699
54314W        W25897  30.636  29.519  11.619
54315W        W25898  31.245  17.698  12.577
54316W        W25899  10.237   1.972  10.738
54317W        W25900   3.224  43.072  14.301
54318W        W25901  18.866  24.533  13.374
54319W        W25902  21.659  21.587   3.193
54320W        W25903   5.655  29.208  14.975
54321W        W25904  25.077  36.382  12.044
54322W        W25905  28.177  14.604   3.523
54323W        W25906  20.499  26.936   1.312
54324W        W25907  19.999  21.247  11.050
54325W        W25908  30.779  35.000   1.953
54326W        W25909  11.060  39.303  14.054
54327W        W25910  18.774  35.368   0.914
54328W        W25911  41.952  38.557   0.428
54329W        W25912  13.616  25.413   2.348
54330W        W25913  29.617   8.602   2.707
54331W        W25914   2.773  29.115  12.710
54332W        W25915  39.368  29.546  11.654
54333W        W25916  10.929   5.309   2.708
54334W        W25917  11.607   9.170  11.180
54335W        W25918  33.313  28.694   2.649
54336W        W25919  13.079  31.887   2.849
54337W        W25920  32.732   3.202   2.454
54338W        W25921  28.458  40.848  12.050
54339W        W25922   8.456  43.960   3.232
54340W        W25923   5.082  17.860   1.207
54341W        W25924  41.686   7.257   3.209
54342W        W25925  11.078   5.815   3.170
54343W        W25926  16.883  14.318   4.512
54344W        W25927   7.961  14.528   3.375
54345W        W25928  33.444   6.987   3.157
54346W        W25929  18.257  30.916   0.384
54347W        W25930  28.015   0.363   0.505
54348W        W25931   8.395  31.057   2.926
54349W        W25932  10.880  37.749   2.352
54350W        W25933  23.265  10.678  13.049
54351W        W25934  14.815  35.863  11.968
54352W        W25935  20.222   3.996   3.777
54353W        W25936  35.758  24.983   1.564
54354W        W25937   9.711  24.872  13.495
54355W        W25938  42.301  33.389  11.263
54356W        W25939  24.219  39.504  14.147
54357W        W25940   2.186  39.970  12.907
54358W        W25941  32.224  41.362  12.645
54359W        W25942  28.916   5.955  12.144
54360W        W25943  12.217  23.707   4.217
54361W        W25944  13.667  40.276  11.183
54362W        W25945  28.949  42.374   3.183
54363W        W25946  41.896  15.689  12.010
54364W        W25947  32.615  17.233  13.289
54365W        W25948  44.910  16.670  10.871
54366W        W25949  20.787  11.609   1.251
54367W        W25950  24.862   2.849   3.657
54368W        W25951  25.814   3.490  11.114
54369W        W25952  25.367  44.804  14.243
54370W        W25953  13.438  17.645  11.531
54371W        W25954  16.186  27.941   2.378
54372W        W25955   5.250  11.337   2.356
54373W        W25956  42.379  34.433  14.517
54374W        W25957   6.888  38.312   4.199
54375W        W25958  27.936  33.912   1.431
54376W        W25959   0.735  31.992   5.100
54377W        W25960  24.994  13.890  11.871
54378W        W25961  22.509  39.356  10.962
54379W        W25962  26.542  13.760   1.859
54380W        W25963  36.444  18.352   0.247
54381W        W25964  25.866  29.020   5.050
54382W        W25965   1.310  14.375  10.599
54383W        W25966  25.947   8.166  11.612
54384W        W25967  31.737  25.702  11.229
54385W        W25968  40.915  43.059   4.982
54386W        W25969  21.969  42.186   0.386
54387W        W25970   0.957   3.662   0.240
54388W        W25971  33.605  40.942   3.749
54389W        W25972  17.765  17.059  10.701
54390W        W25973  40.505  13.678  12.493
54391W        W25974  22.133   7.670   1.681
54392W        W25975  31.136  22.237  14.556
54393W        W25976  10.344  18.700   0.007
54394W        W25977  16.286  44.257  14.264
54395W        W25978   1.969  27.615   2.712
54396W        W25979  14.335  38.984  12.601
54397W        W25980  35.844  23.769   0.362
54398W        W25981  11.196  37.582  14.258
54399W        W25982  43.379  35.668   3.786
54400W        W25983   4.286  11.254  12.042
54401W        W25984  17.471  12.680  14.109
54402W        W25985  15.723  19.035   3.769
54403W        W25986  28.382   3.735  13.500
54404W        W25987  33.522  15.749  10.038
54405W        W25988  25.306  41.384  12.035
54406W        W25989  16.435  35.996   4.504
54407W        W25990  32.058  28.764  14.810
54408W        W25991  17.224  22.525   0.688
54409W        W25992  37.682  39.985   2.041
54410W        W25993  43.629  16.252   4.195
54411W        W25994   4.763  28.255   4.152
54412W        W25995  26.923  40.650  11.343
54413W        W25996  15.735  36.458  12.530
54414W        W25997  18.785  39.136   4.481
54415W        W25998   7.417  43.429   2.396
54416W        W25999   1.469   7.398   0.141
54417W        W26000   5.777  12.402  10.654
54418W        W26001  16.896  38.389   2.740
54419W        W26002  24.197  22.492   4.642
54420W        W26003  22.787   7.878  13.921
54421W        W26004  15.153  44.944   3.187
54422W        W26005   5.961  13.267  11.016
54423W        W26006  14.005  23.578   4.647
54424W        W26007  33.116  13.685   4.556
54425W        W26008   1.818  36.308   3.612
54426W        W26009  23.673   9.317  10.709
54427W        W26010  14.267  43.292  12.460
54428W        W26011  34.954   5.353   4.695
54429W        W26012  25.917  13.300  13.770
54430W        W26013  21.273  14.670  14.065
54431W        W26014  26.738  29.549  13.482
54432W        W26015  43.394   2.339  14.386
54433W        W26016  22.952  23.431  13.958
54434W        W26017  13.921  30.630   0.901
54435W        W26018  42.034  19.094   4.563
54436W        W26019   9.748  34.050   3.847
54437W        W26020   8.199  17.553  12.129
54438W        W26021  23.906  20.592  14.241
54439W        W26022  16.572   1.835  11.231
54440W        W26023  32.069   0.443   3.561
54441W        W26024  40.918  13.767  14.420
54442W        W26025  33.705  32.355   3.616
54443W        W26026  31.196  30.938  13.892
54444W        W26027  32.530  40.899  14.523
54445W        W26028  24.312  41.825   4.009
54446W        W26029  10.576  43.733  12.990
54447W        W26030   9.677  21.677   4.641
54448W        W26031  35.390  36.598  14.998
54449W        W26032   5.894  42.717  12.335
54450W        W26033   4.200   0.283  12.431
54451W        W26034  17.168   7.278   1.243
54452W        W26035  30.994  16.754   1.713
54453W        W26036   0.331  21.725  12.919
54454W        W26037  17.703  14.495   4.125
54455W        W26038  14.360  37.827   0.677
54456W        W26039  15.190  21.672  13.577
54457W        W26040  38.046  34.104  10.780
54458W        W26041  11.076  37.940   3.465
54459W        W26042  41.437  38.473  11.900
54460W        W26043  20.654  13.444   2.148
54461W        W26044  23.336  11.366  10.860
54462W        W26045  41.309   9.858  13.456
54463W        W26046  39.579  30.637   1.044
54464W        W26047  14.802  27.185   3.397
54465W        W26048   0.156  27.244  14.482
54466W        W26049   2.968   9.597  13.853
54467W        W26050  38.419  36.977  14.078
54468W        W26051  44.007  21.847   3.753
54469W        W26052  41.739  20.035  11.155
54470W        W26053  12.322  44.773   2.674
54471W        W26054  39.350  14.169   1.796
54472W        W26055  27.053  37.042   2.700
54473W        W26056  12.992  23.307  14.220
54474W        W26057  21.490  28.999   0.417
54475W        W26058  37.104   7.871   1.877
54476W        W26059  24.783   8.840   2.718
54477W        W26060  16.700   6.169   0.865
54478W        W26061  13.174  16.077  13.127
54479W        W26062   2.516  10.317   2.326
54480W        W26063   1.518   0.223  14.793
54481W        W26064   3.925  17.314   3.906
54482W        W26065  40.986  16.600   3.196
54483W        W26066  27.179  24.398  13.825
54484W        W26067  21.514   9.504   2.765
54485W        W26068  22.076  26.060  12.248
54486W        W26069  39.238   1.256  14.007
54487W        W26070   4.012   2.251   1.115
54488W        W26071  39.631   2.880  12.480
54489W        W26072  36.601  22.563  12.506
54490W        W26073  22.693   1.010  14.833
54491W        W26074  44.452  12.545   3.776
54492W        W26075  24.320  39.209  14.533
54493W        W26076  25.299  40.411   2.006
54494W        W26077   7.570   6.765  14.348
54495W        W26078   3.814   3.277   0.558
54496W        W26079  28.100   6.892   1.002
54497W        W26080  21.070  33.464  13.336
54498W        W26081  24.984  39.025  14.523
54499W        W26082   2.205  39.413   5.428
54500W        W26083   9.201  35.963  11.972
54501W        W26084  21.647   5.877  10.685
54502W        W26085   5.246  44.020  10.768
54503W        W26086  42.072  11.437   2.783
54504W        W26087  43.949   9.035  11.564
54505W        W26088  11.359  17.381  13.866
54506W        W26089   2.852  42.795   5.020
54507W        W26090  17.666  25.037   3.610
54508W        W26091   1.021  23.071   3.639
54509W        W26092  25.006  17.709   4.838
54510W        W26093   5.125  13.132   1.781
54511W        W26094  27.193  10.111  14.703
54512W        W26095  15.851  32.395  10.780
54513W        W26096  34.795  31.930   4.692
54514W        W26097  36.816  15.354   0.984
54515W        W26098  33.874  10.211   3.193
54516W        W26099  38.895  24.679  10.537
54517W        W26100   5.868  25.623   0.221
54518W        W26101   9.082  31.122  12.431
54519W        W26102  19.731  19.156  14.272
54520W        W26103  26.426   3.278   0.472
54521W        W26104  42.423  11.552   1.957
54522W        W26105  23.876   3.460   2.703
54523W        W26106   6.847   9.194   1.810
54524W        W26107   3.237  32.414   4.614
54525W        W26108   3.855   5.009  13.570
54526W        W26109  32.395  33.818   0.869
54527W        W26110  27.761  31.606   4.996
54528W        W26111   8.343  35.125  11.925
54529W        W26112   0.416   2.762   0.331
54530W        W26113  37.880  37.778   1.230
54531W        W26114  29.481  39.773   3.275
54532W        W26115  28.390  35.005  11.493
54533W        W26116   1.086  15.768   3.323
54534W        W26117  17.365  10.937   2.349
54535W        W26118  37.783  24.848  13.854
54536W        W26119  22.773  43.421  14.303
54537W        W26120   5.730   1.990  14.884
54538W        W26121  20.249  11.361  14.007
54539W        W26122  28.764  38.994   3.603
54540W        W26123   1.825   3.778   3.273
54541W        W26124   1.973   8.757  13.389
54542W        W26125  26.547  18.919   2.815
54543W        W26126  34.465  21.773  11.654
54544W        W26127  43.322  40.595   0.830
54545W        W26128   0.678  31.320  13.484
54546W        W26129  28.127  25.917   2.295
54547W        W26130   3.890  25.180   0.925
54548W        W26131  22.473  42.570   4.165
54549W        W26132  27.651  33.534   3.543
54550W        W26133  43.124   7.266  13.412
54551W        W26134  38.055  41.338   4.176
54552W        W26135   7.109  24.055   0.829
54553W        W26136   0.580  21.775   2.793
54554W        W26137  36.553  38.481  11.924
54555W        W26138   7.453   0.446   3.735
54556W        W26139   3.403  19.074   3.809
54557W        W26140  12.071  12.101   1.024
54558W        W26141  40.802   4.371  13.428
54559W        W26142  43.681  24.246   5.051
54560W        W26143   9.668  44.059  13.818
54561W        W26144   4.508  19.805   2.811
54562W        W26145  41.768  33.912   0.171
54563W        W26146   2.203   5.446  11.585
54564W        W26147  29.888  17.824  12.058
54565W        W26148  33.569  15.280   0.027
54566W        W26149  44.226   3.945  11.131
54567W        W26150  36.570  37.824   2.258
54568W        W26151  12.769   2.651  12.090
54569W        W26152  10.759  12.630   3.216
54570W        W26153   1.564  14.223  12.631
54571W        W26154   5.901  36.584  11.712
54572W        W26155  28.575  18.459  12.009
54573W        W26156   6.609  26.662  14.339
54574W        W26157  26.980  34.783  14.353
54575W        W26158  17.848  17.560  11.063
54576W        W26159  15.914  18.134  10.615
54577W        W26160  11.390  10.399  12.438
54578W        W26161  28.546  33.370  12.547
54579W        W26162  44.895  16.117  11.580
54580W        W26163  20.537  44.123   2.860
54581W        W26164  44.310  23.194  13.707
54582W        W26165   7.796  12.287  10.612
54583W        W26166  36.670  34.543  13.316
54584W        W26167   3.334  19.287   4.707
54585W        W26168   1.332  17.578   2.854
54586W        W26169   0.201  32.524   0.235
54587W        W26170  34.059   3.866  12.460
54588W        W26171   5.314  12.577   0.967
54589W        W26172  30.432  31.946   2.146
54590W        W26173  36.199  12.307   2.348
54591W        W26174  38.496   8.478   1.697
54592W        W26175  40.485   4.528  12.549
54593W        W26176  33.331   2.794  11.224
54594W        W26177  40.015   5.266   3.284
54595W        W26178  42.215  31.386  12.837
54596W        W26179  20.497   9.351  13.994
54597W        W26180  22.459   3.323   2.582
54598W        W26181  37.406  35.209  12.021
54599W        W26182  15.566  13.608   4.145
54600W        W26183  13.171  34.951   2.735
54601W        W26184   8.922   9.728  11.886
54602W        W26185  14.471  22.309   2.329
54603W        W26186  19.902  38.345  14.887
54604W        W26187  19.849  21.923  13.971
54605W        W26188  43.048  11.247  11.917
54606W        W26189  40.248  24.612   3.588
54607W        W26190  15.409   2.486  13.885
54608W        W26191  21.198   6.248  12.588
54609W        W26192  23.936  16.834   0.825
54610W        W26193  43.822  28.948  11.929
54611W        W26194   8.420  10.227  14.995
54612W        W26195  22.157  40.972   0.940
54613W        W26196  10.803  19.056  14.259
54614W        W26197  17.642  28.480  14.887
54615W        W26198  42.914  23.827  10.565
54616W        W26199  30.436   6.879   2.755
54617W        W26200   9.808  25.577   1.780
54618W        W26201  27.262  44.359  11.842
54619W        W26202   6.899  17.214  10.763
54620W        W26203  15.582  18.016   3.581
54621W        W26204  39.074  34.084   3.638
54622W        W26205  18.011  34.506  12.319
54623W        W26206  20.390  17.023   3.752
54624W        W26207  40.405  38.961  13.056
54625W        W26208  36.491  41.331   2.710
54626W        W26209   8.185  41.272   4.385
54627W        W26210  25.858  16.992   5.133
54628W        W26211  31.536  38.885  11.529
54629W        W26212   5.314  39.273  13.504
54630W        W26213  11.826   1.587   4.490
54631W        W26214  43.165  39.601   0.981
54632W        W26215  19.799  18.616   0.687
54633W        W26216  35.535  41.040   0.511
54634W        W26217  10.928  21.659   2.805
54635W        W26218  20.305  26.956  13.302
54636W        W26219  30.614  15.910  14.044
54637W        W26220  41.508  15.854   0.340
54638W        W26221  38.540   7.030  14.600
54639W        W26222  37.368  34.973  14.428
54640W        W26223  17.759   4.952  10.372
54641W        W26224  36.935   4.877   2.841
54642W        W26225  35.367   2.247  14.798
54643W        W26226  39.344  37.364  14.689
54644W        W26227  22.093  22.203   2.832
54645W        W26228  40.383  17.605   1.805
54646W        W26229  30.413  27.981  14.490
54647W        W26230  27.679  28.943  12.850
54648W        W26231  24.730  16.329  11.054
54649W        W26232   4.573  21.364  13.387
54650W        W26233   6.674  40.061   2.797
54651W        W26234  16.140   0.868  11.516
54652W        W26235  13.793  12.212   1.994
54653W        W26236   5.193  32.065   0.900
54654W        W26237   8.660  19.507  12.076
54655W        W26238   5.508  26.786  11.556
54656W        W26239  22.963  17.522   1.395
54657W        W26240  35.854  41.563   2.912
54658W        W26241  43.489  11.322   1.813
54659W        W26242  40.322   2.043   4.141
54660W        W26243  12.455  32.600  10.468
54661W        W26244   1.199  42.744  12.255
54662W        W26245  17.838  26.193   5.054
54663W        W26246  35.390  18.854   1.443
54664W        W26247  39.017  43.924  11.651
54665W        W26248   1.832  42.476  13.705
54666W        W26249  33.474  35.608  14.050
54667W        W26250  14.200  31.303   0.458
54668W        W26251  35.374  14.172  14.663
54669W        W26252  34.501  41.002  10.683
54670W        W26253  33.916  39.459  10.735
54671W        W26254  44.468  41.807  12.539
54672W        W26255  20.045   7.742  10.596
54673W        W26256   2.006  16.707   1.501
54674W        W26257  16.983  15.798  13.174
54675W        W26258  16.681  13.579   0.383
54676W        W26259  37.536  41.785   1.844
54677W        W26260  16.767  11.239  11.151
54678W        W26261  23.696  30.236   4.907
54679W        W26262  23.238  37.950   4.236
54680W        W26263  25.444  16.767  10.415
54681W        W26264  35.849  19.589  13.774
54682W        W26265  16.034  10.761  12.404
54683W        W26266  43.494   2.848   1.171
54684W        W26267   1.063  40.287  13.497
54685W        W26268   7.392  22.833  13.900
54686W        W26269  40.803  38.631   0.476
54687W        W26270  16.772  17.208  11.143
54688W        W26271  34.056   2.209   0.549
54689W        W26272  35.372  31.619  11.187
54690W        W26273  24.229  41.894  14.725
54691W        W26274   7.701  37.820  12.846
54692W        W26275   8.313   8.953   2.683
54693W        W26276  34.018  28.927  14.927
54694W        W26277   9.294  44.284   0.897
54695W        W26278  17.116  13.376  11.912
54696W        W26279  13.273  35.894  10.772
54697W        W26280  10.379  16.179  12.108
54698W        W26281  36.675  18.101  12.049
54699W        W26282  40.234  33.413  11.204
54700W        W26283   3.968  23.768  12.388
54701W        W26284  36.137  12.031  11.541
54702W        W26285  22.010   0.464   0.698
54703W        W26286  29.434  30.846  12.910
54704W        W26287  43.907  35.402  11.210
54705W        W26288  13.893  44.254  13.993
54706W        W26289  16.385  10.429   1.756
54707W        W26290  21.501   5.857  13.441
54708W        W26291  32.487  23.254   1.665
54709W        W26292  27.699  33.761  12.715
54710W        W26293  23.422  23.048   3.154
54711W        W26294  23.094   4.255  14.807
54712W        W26295   4.292  30.591   3.304
54713W        W26296  14.241   2.746  13.718
54714W        W26297  17.862  41.973  14.928
54715W        W26298  37.609   6.430   3.800
54716W        W26299  41.083  38.654  11.076
54717W        W26300   3.664  43.961  14.189
54718W        W26301  26.915   8.613   2.173
54719W        W26302  36.487   6.666  12.138
54720W        W26303  32.605   0.374   2.043
54721W        W26304  32.929  26.077   3.143
54722W        W26305   2.941  37.989  12.400
54723W        W26306  17.263  27.289  10.585
54724W        W26307  13.729  17.132   1.984
54725W        W26308  34.855  11.958   3.296
54726W        W26309   3.367  34.053   4.384
54727W        W26310  42.222   3.251   0.309
54728W        W26311  18.303   9.115  13.615
54729W        W26312   3.497  15.300  14.011
54730W        W26313   2.879   7.896  13.142
54731W        W26314  21.753  36.004  13.454
54732W        W26315   1.373  38.090   1.416
54733W        W26316  14.951  30.489  12.573
54734W        W26317  16.639  24.939   3.500
54735W        W26318   6.971  17.680   2.351
54736W        W26319  26.889  39.238   4.384
54737W        W26320  24.392  25.931   2.665
54738W        W26321  28.167  26.638   4.425
54739W        W26322  19.644   7.681  10.259
54740W        W26323   0.089  10.179   4.361
54741W        W26324  25.054  20.202   4.997
54742W        W26325  18.207  28.034   1.942
54743W        W26326   3.527  42.865   2.296
54744W        W26327  38.612   6.446  11.652
54745W        W26328  34.727   9.898  13.770
54746W        W26329  44.729   5.757  12.379
54747W        W26330   5.188  39.030  12.562
54748W        W26331  22.055  12.345   1.242
54749W        W26332  23.169   3.564   4.618
54750W        W26333   8.932  42.737  14.338
54751W        W26334  34.557  20.328   4.096
54752W        W26335  38.507  20.712   3.122
54753W        W26336  39.534  36.713  12.965
54754W        W26337  44.083  41.258  12.461
54755W        W26338  38.524  12.047   0.933
54756W        W26339  34.786  33.150   2.091
54757W        W26340   3.107  41.715   4.126
54758W        W26341  27.085  11.526   0.415
54759W        W26342   2.150  33.166   1.861
54760W        W26343  40.048  22.504   2.207
54761W        W26344  19.842  24.022   4.579
54762W        W26345   4.025  32.761  11.544
54763W        W26346  35.113  34.265  12.526
54764W        W26347  42.503  23.638  12.489
54765W        W26348  27.421  32.514   0.254
54766W        W26349  23.220  12.679   1.222
54767W        W26350  31.773  36.622   1.320
54768W        W26351  25.588   2.292   1.003
54769W        W26352  28.463  18.019   1.303
54770W        W26353  15.078   6.267   4.532
54771W        W26354  19.781  33.119  12.779
54772W        W26355  33.807  27.209  14.689
54773W        W26356  38.358  30.913   3.453
54774W        W26357  16.985  44.014   4.187
54775W        W26358  37.065   9.999  11.116
54776W        W26359   6.323  12.005   4.701
54777W        W26360   9.876  22.564   2.419
54778W        W26361  22.498  36.545   2.766
54779W        W26362  35.970  14.698   1.705
54780W        W26363  39.045  30.349   1.569
54781W        W26364   5.427  25.843   2.410
54782W        W26365  11.204  13.224  10.728
54783W        W26366   4.372   1.791   0.361
54784W        W26367  39.012  31.613  10.628
54785W        W26368  22.555   2.006  13.338
54786W        W26369  31.920   9.112   2.120
54787W        W26370   4.914  29.952   3.644
54788W        W26371   4.059  19.238  11.409
54789W        W26372  32.957  41.189   0.712
54790W        W26373  14.325  32.848   3.897
54791W        W26374  11.212  32.881  11.913
54792W        W26375  37.595  25.338   1.901
54793W        W26376  43.396  12.397  13.446
54794W        W26377  13.035  43.452   0.339
54795W        W26378  42.232  21.739  11.148
54796W        W26379  14.307  21.010   3.869
54797W        W26380  37.982  19.503  10.690
54798W        W26381   7.254  44.409   3.277
54799W        W26382  43.461  27.504   3.671
54800W        W26383  38.573  28.193  11.535
54801W        W26384   2.740  28.286   2.546
54802W        W26385  15.572  29.340  12.435
54803W        W26386  19.789  37.939  13.409
54804W        W26387  14.777  17.356  14.367
54805W        W26388   4.728  27.587  13.523
54806W        W26389  29.158  21.274  14.918
54807W        W26390  18.062  24.263  10.172
54808W        W26391  30.418  40.153  12.726
54809W        W26392  42.745  27.666  14.426
54810W        W26393  19.445  29.206   4.415
54811W        W26394  11.127  16.754   2.222
54812W        W26395  24.096  39.805   0.107
54813W        W26396  43.193   2.298  12.486
54814W        W26397   3.167   2.796  14.473
54815W        W26398   1.246  44.807  13.107
54816W        W26399  19.857  43.511   2.522
54817W        W26400  41.406   0.474  13.331
54818W        W26401  33.207  41.319   0.274
54819W        W26402  36.942  32.431  12.121
54820W        W26403  31.941  27.412   4.354
54821W        W26404   2.699  39.204  12.986
54822W        W26405  39.085  22.221  10.746
54823W        W26406  20.458  34.650   4.662
54824W        W26407   5.453  32.669   3.021
54825W        W26408  41.495  30.893   2.237
54826W        W26409  21.542   4.368   3.264
54827W        W26410  16.061  16.782  14.833
54828W        W26411   4.931   2.379   1.533
54829W        W26412   9.337  10.452   9.772
54830W        W26413  37.089  14.162  14.152
54831W        W26414   4.961  23.059   1.146
54832W        W26415   2.780   6.450  14.812
54833W        W26416  44.277  12.739  12.048
54834W        W26417  41.959  19.744  13.611
54835W        W26418  35.254  22.529  12.507
54836W        W26419   5.780  40.220   4.616
54837W        W26420  14.069  39.366   4.678
54838W        W26421  13.247   8.746  13.722
54839W        W26422  20.743  28.160   0.798
54840W        W26423  23.984  37.427   1.959
54841W        W26424  20.950  35.974   4.883
54842W        W26425  20.560  38.786   1.711
54843W        W26426   0.833  19.264   1.402
54844W        W26427  40.289  22.285  13.934
54845W        W26428   2.101  32.639  11.582
54846W        W26429   6.256  44.438  12.026
54847W        W26430  41.907   0.442   0.708
54848W        W26431  28.551   6.168   3.642
54849W        W26432  17.536  19.428   4.054
54850W        W26433  39.086  34.510   0.949
54851W        W26434  10.748  21.713  12.400
54852W        W26435  27.623  12.091  13.843
54853W        W26436  24.983  38.537   3.112
54854W        W26437  31.386  39.523  13.625
54855W        W26438  34.386  20.149   2.821
54856W        W26439  10.663  36.598   1.648
54857W        W26440   9.809  44.627   1.733
54858W        W26441  17.297  23.547   3.154
54859W        W26442  13.127   1.330  10.707
54860W        W26443  42.833  35.676   1.836
54861W        W26444   7.433   2.639   0.404
54862W        W26445  18.040  25.592   1.793
54863W        W26446  12.950  27.555   4.469
54864W        W26447  36.312  35.599  12.835
54865W        W26448  27.823  24.079   4.625
54866W        W26449  15.769  33.918   4.195
54867W        W26450  33.864  38.330   0.667
54868W        W26451  11.695  43.875  10.986
54869W        W26452  32.619   7.510   2.253
54870W        W26453  23.201  27.041  12.671
54871W        W26454  35.878  34.073  13.543
54872W        W26455   3.499  27.404  10.886
54873W        W26456  20.643   6.612  13.382
54874W        W26457   1.412   5.875  12.908
54875W        W26458  20.670  15.749   4.944
54876W        W26459  18.041  29.005   2.746
54877W        W26460  25.057  26.956  14.059
54878W        W26461  24.872  13.041   0.346
54879W        W26462   4.124  35.032   3.194
54880W        W26463  35.571  35.960  11.161
54881W        W26464  31.362  39.437   3.581
54882W        W26465  14.758  29.555   0.646
54883W        W26466  19.111   4.363  13.755
54884W        W26467   3.266  39.929  10.079
54885W        W26468  15.176  13.844   1.709
54886W        W26469  26.069  32.999   2.367
54887W        W26470  42.304  10.784  10.885
54888W        W26471   3.297  37.809  11.865
54889W        W26472  23.668   1.055  14.350
54890W        W26473  28.389  40.448  11.698
54891W        W26474  13.845   5.316   1.391
54892W        W26475  44.812  38.390   1.131
54893W        W26476  22.255  18.753  14.890
54894W        W26477  21.076  44.455   0.226
54895W        W26478   8.553  17.112   1.002
54896W        W26479   6.949  43.319  11.128
54897W        W26480  35.284  15.636   4.612
54898W        W26481   4.954  34.175  11.155
54899W        W26482   1.994  33.434   0.709
54900W        W26483   4.198  24.650  14.940
54901W        W26484   1.971  26.123   1.401
54902W        W26485  28.148  38.391   3.246
54903W        W26486   3.437  36.263  12.403
54904W        W26487  29.836  20.006   2.199
54905W        W26488  26.009  17.032   0.793
54906W        W26489  40.358  28.373  14.890
54907W        W26490  17.548  30.186  12.611
54908W        W26491   3.720  42.379  13.812
54909W        W26492  34.402   4.883  14.010
54910W        W26493  15.470  17.093   0.172
54911W        W26494  44.405  41.314  13.733
54912W        W26495  32.507  17.502   0.083
54913W        W26496  25.094  38.326   0.695
54914W        W26497  24.850  44.369  14.516
54915W        W26498  42.801   7.177   4.220
54916W        W26499  12.578  17.307   3.065
54917W        W26500  19.872  32.148   1.319
54918W        W26501  21.611  30.187   0.284
54919W        W26502  36.240  27.098   4.627
54920W        W26503  35.390  44.180  13.146
54921W        W26504  22.224  27.010   2.121
54922W        W26505  34.155  31.296  14.907
54923W        W26506  25.200  10.378   0.388
54924W        W26507   7.308   8.549  13.344
54925W        W26508  36.337  10.464  13.491
54926W        W26509  21.676  38.141   4.621
54927W        W26510  39.918  16.939  14.740
54928W        W26511  11.824  26.756   2.814
54929W        W26512   7.816  24.682   1.899
54930W        W26513  41.250  11.912   0.831
54931W        W26514  35.586  35.081  11.196
54932W        W26515  44.657  32.070  11.679
54933W        W26516  28.131  35.434  14.797
54934W        W26517  36.176  39.936   2.281
54935W        W26518   8.771   3.625   1.887
54936W        W26519  36.335  28.900  14.779
54937W        W26520   1.891  27.698   3.734
54938W        W26521  36.469  29.066   9.687
54939W        W26522  21.885  34.172  12.045
54940W        W26523   1.716  22.024  14.038
54941W        W26524  37.354   4.257  10.598
54942W        W26525   8.627  34.071   4.528
54943W        W26526   3.328  20.529   1.719
54944W        W26527  34.162  26.858  11.388
54945W        W26528  22.744  42.866  11.609
54946W        W26529  16.800  31.009   0.965
54947W        W26530  38.104  27.822   3.217
54948W        W26531  40.383  12.927  10.023
54949W        W26532  21.769  26.851  11.122
54950W        W26533  20.971  40.481  10.716
54951W        W26534  22.693  35.315  13.083
54952W        W26535  17.062  39.630  14.665
54953W        W26536  40.535  12.528   4.285
54954W        W26537  20.755  11.231   3.832
54955W        W26538  39.329  17.375  13.687
54956W        W26539  33.464  10.250   1.942
54957W        W26540  38.075  16.781   0.898
54958W        W26541  23.500  21.714  10.593
54959W        W26542  31.832  27.588   1.564
54960W        W26543  35.580  36.532   1.012
54961W        W26544  34.382  44.426  14.861
54962W        W26545  41.138   9.089  11.540
54963W        W26546   4.814  28.157  10.607
54964W        W26547   0.085  25.117   1.232
54965W        W26548  15.516  18.193   4.550
54966W        W26549  36.303  26.550  14.435
54967W        W26550   5.585  39.412   3.343
54968W        W26551   8.428  13.111  11.251
54969W        W26552  10.988  15.099   2.823
54970W        W26553  43.617  25.445   4.381
54971W        W26554  32.409   5.713   4.907
54972W        W26555  41.440   2.955  10.476
54973W        W26556  32.840  26.956   4.111
54974W        W26557  35.680  10.580  12.713
54975W        W26558   5.785  33.031  14.284
54976W        W26559  24.600  37.069  13.026
54977W        W26560   3.415  19.511  10.642
54978W        W26561  36.022  24.130  14.571
54979W        W26562  42.991   4.387   4.045
54980W        W26563  31.474   9.726   4.869
54981W        W26564  36.566  16.072  14.948
54982W        W26565  29.755   2.209  13.494
54983W        W26566  17.358  39.202   2.932
54984W        W26567   9.370   8.678   3.194
54985W        W26568  44.189  42.339   4.301
54986W        W26569  34.504  30.959   1.196
54987W        W26570  16.925  35.270   1.889
54988W        W26571  41.312  32.348  14.327
54989W        W26572  29.722  32.298   5.455
54990W        W26573  30.373  32.473   4.152
54991W        W26574  40.980   9.319   1.715
54992W        W26575   9.806  42.698  11.726
54993W        W26576  35.199  43.232   1.365
54994W        W26577  17.612  32.507  11.570
54995W        W26578  17.584  23.479  11.293
54996W        W26579   2.764  23.744   2.402
54997W        W26580  17.775  44.154  13.118
54998W        W26581  39.106  42.973   3.742
54999W        W26582  21.722  15.674  11.566
55000W        W26583  35.019  21.096  13.633
55001W        W26584   2.315  20.680   1.329
55002W        W26585  13.991  23.227   1.937
55003W        W26586  32.042  21.220  12.015
55004W        W26587  30.208   2.359   1.287
55005W        W26588  38.931  36.473   4.132
55006W        W26589  30.887  21.664  13.303
55007W        W26590  28.530  19.095  13.018
55008W        W26591  30.410   1.754  14.383
55009W        W26592  30.460   5.273   1.222
55010W        W26593   7.342  16.738  12.026
55011W        W26594  32.109  40.871   1.692
55012W        W26595  12.741  17.770   2.859
55013W        W26596  14.420   4.259  12.474
55014W        W26597   7.703  18.185   4.550
55015W        W26598   3.318  42.779   0.340
55016W        W26599  22.755  39.281  14.245
55017W        W26600  26.746   6.695  13.975
55018W        W26601   4.325  23.447   1.660
55019W        W26602  17.645  38.520   3.341
55020W        W26603  30.132   8.129  13.938
55021W        W26604  15.717  18.716  14.222
55022W        W26605   1.322  33.492  12.458
55023W        W26606  11.940   1.870   1.636
55024W        W26607  33.442  16.170   2.743
55025W        W26608  30.138   9.321  11.939
55026W        W26609  30.133  18.756   4.430
55027W        W26610  41.460  16.372   2.595
55028W        W26611   5.410  41.777  14.208
55029W        W26612  34.219   9.918  14.492
55030W        W26613  13.732  31.905   2.350
55031W        W26614  40.515  38.118  12.435
55032W        W26615  21.091  16.699   1.753
55033W        W26616   7.467  32.594  13.447
55034W        W26617  10.394  19.935  11.669
55035W        W26618   0.598  42.032   2.597
55036W        W26619  18.371  25.073  14.403
55037W        W26620  41.239  10.937   0.186
55038W        W26621  13.580  39.454   4.538
55039W        W26622  26.649  29.849  14.369
55040W        W26623  42.525  26.978  10.668
55041W        W26624  42.756  24.862  11.174
55042W        W26625  35.558  41.010   2.396
55043W        W26626   8.729  35.414   2.206
55044W        W26627  11.166  24.211  10.636
55045W        W26628  27.205   9.324   4.407
55046W        W26629   6.701  10.652   1.557
55047W        W26630  31.416  32.873  11.903
55048W        W26631   7.412  31.846  12.072
55049W        W26632  27.005   7.805  13.039
55050W        W26633  18.486  18.611  14.538
55051W        W26634  27.935   6.493   2.749
55052W        W26635  27.433  15.786   3.271
55053W        W26636  21.367   0.290  12.612
55054W        W26637  13.845  41.504  13.093
55055W        W26638  37.586  22.396   2.516
55056W        W26639   1.678  19.694  11.563
55057W        W26640  44.692   8.314   4.425
55058W        W26641   8.912  15.335   0.930
55059W        W26642  44.816  37.254   2.223
55060W        W26643   3.837  25.636  12.507
55061W        W26644  32.471   7.018  10.851
55062W        W26645  14.093   8.681  14.797
55063W        W26646  11.602  14.725   4.321
55064W        W26647   6.707   4.730   2.406
55065W        W26648  17.121  39.696   4.640
55066W        W26649  25.264  18.244   2.368
55067W        W26650   2.874  26.087  11.184
55068W        W26651   7.419  23.151  14.287
55069W        W26652  39.556  33.677   0.977
55070W        W26653  43.785  36.773  11.681
55071W        W26654  34.573  32.245   3.563
55072W        W26655   4.294  36.033   4.064
55073W        W26656  14.921  22.995  13.989
55074W        W26657  13.912   2.346  13.857
55075W        W26658  19.691  34.407  14.206
55076W        W26659   3.259  32.776   4.986
55077W        W26660  13.761  16.163  12.018
55078W        W26661  42.394  41.332   3.432
55079W        W26662  13.683  19.396  14.431
55080W        W26663  42.477  11.839  14.751
55081W        W26664  24.662  18.050   1.692
55082W        W26665   8.356  42.969  11.815
55083W        W26666  26.182   3.266   0.005
55084W        W26667  34.696   7.468   2.862
55085W        W26668  13.764  15.432   2.621
55086W        W26669  14.231  41.375  11.481
55087W        W26670  25.145  41.237   0.783
55088W        W26671  25.999   0.439  13.898
55089W        W26672  20.590  20.595  13.478
55090W        W26673  41.481  12.108   4.119
55091W        W26674  38.942  41.818   3.808
55092W        W26675  18.191  25.889   5.333
55093W        W26676  28.989  24.911   2.765
55094W        W26677   1.033   0.978   4.523
55095W        W26678  20.649  17.608   0.863
55096W        W26679   2.814  27.572   3.345
55097W        W26680  41.421  39.465   3.665
55098W        W26681   2.502  17.636  14.369
55099W        W26682  35.682   7.197   2.905
55100W        W26683  29.649  33.218   3.196
55101W        W26684  40.761  13.591  11.172
55102W        W26685  41.955  13.646  13.539
55103W        W26686   2.963  43.253  11.191
55104W        W26687   9.630  31.408  11.241
55105W        W26688   5.286  30.423  11.672
55106W        W26689  18.468  22.069   2.230
55107W        W26690  19.061   7.799  13.153
55108W        W26691  28.063  34.033   0.011
55109W        W26692  34.109  31.955   3.616
55110W        W26693  27.367  12.447  10.340
55111W        W26694   7.940   2.689   2.768
55112W        W26695  37.976   4.447   1.389
55113W        W26696  28.238  21.790   4.652
55114W        W26697  13.708  38.050   1.491
55115W        W26698  35.534  26.424   0.682
55116W        W26699  40.040  37.898   3.991
55117W        W26700   5.783   4.762  11.621
55118W        W26701   9.255  38.978   0.355
55119W        W26702  41.617  21.871   4.326
55120W        W26703   5.949   9.288   1.224
55121W        W26704   4.948  17.128  12.872
55122W        W26705  21.148   7.812  10.362
55123W        W26706  12.531   9.241   4.891
55124W        W26707   6.678  32.517  12.480
55125W        W26708  42.348  33.158  13.497
55126W        W26709  38.603  26.603   2.274
55127W        W26710  42.859  44.703   4.220
55128W        W26711   9.322  32.078   3.353
55129W        W26712  29.552  30.923  13.994
55130W        W26713   4.224   1.241   3.695
55131W        W26714  10.310  36.920  10.669
55132W        W26715  43.845   8.152   0.403
55133W        W26716  27.720  38.101  11.610
55134W        W26717   4.527   3.450   5.097
55135W        W26718  32.038  15.478   3.157
55136W        W26719  41.536  21.495   3.732
55137W        W26720  35.463  24.271   2.180
55138W        W26721  42.207  27.571   1.379
55139W        W26722  30.917   3.255  13.814
55140W        W26723   9.233   6.614   4.492
55141W        W26724  29.516   6.154  14.908
55142W        W26725   0.828  38.304  14.796
55143W        W26726  24.730  17.512   1.719
55144W        W26727  25.033  35.470   3.880
55145W        W26728   5.681   3.528   3.863
55146W        W26729  16.144  35.819  12.847
55147W        W26730   0.333   6.131  11.678
55148W        W26731  29.110  43.840  14.707
55149W        W26732  23.909   7.819   2.549
55150W        W26733  21.595  11.290  12.630
55151W        W26734   7.162  28.875  14.240
55152W        W26735  17.267  15.649  11.990
55153W        W26736  44.664  16.041   4.239
55154W        W26737   2.294  29.222  14.394
55155W        W26738  14.636  30.089   4.095
55156W        W26739  18.389  29.982   3.433
55157W        W26740  32.855  33.385   2.836
55158W        W26741  35.105  26.052  12.556
55159W        W26742  13.026  43.039  10.684
55160W        W26743  20.982  18.779  13.911
55161W        W26744   5.135  11.293   0.255
55162W        W26745  15.711  34.129   5.058
55163W        W26746   3.974  25.457  12.979
55164W        W26747  38.393   9.479  14.208
55165W        W26748  30.185  26.004  14.865
55166W        W26749  22.717  18.544  11.068
55167W        W26750  20.077  14.336   0.929
55168W        W26751  39.359   3.613   1.233
55169W        W26752  10.461  19.014   0.434
55170W        W26753  22.799  23.330  10.745
55171W        W26754  24.144  16.163  12.309
55172W        W26755  37.521  11.738   0.439
55173W        W26756  43.915   2.829  11.176
55174W        W26757  42.447   9.128   1.236
55175W        W26758  39.537  29.129   2.248
55176W        W26759  25.706  23.637   2.153
55177W        W26760  34.003  19.387   4.959
55178W        W26761  10.508  23.280   0.934
55179W        W26762  33.504   0.093  14.879
55180W        W26763   1.826  21.088   1.770
55181W        W26764  20.039   1.970  13.775
55182W        W26765  39.415  23.482  13.258
55183W        W26766  30.877  15.311   3.055
55184W        W26767  29.086  24.972   4.764
55185W        W26768  20.791  32.627  11.112
55186W        W26769  44.471   3.710   0.392
55187W        W26770  27.662   7.407   4.627
55188W        W26771   0.481  29.079   0.411
55189W        W26772  10.128  40.021   2.274
55190W        W26773  25.047  22.131   1.466
55191W        W26774   7.731  35.814   1.909
55192W        W26775   4.308  16.511  12.446
55193W        W26776   7.713   5.866   2.729
55194W        W26777  27.113   1.010   1.406
55195W        W26778  35.702  36.448  12.481
55196W        W26779  22.414  44.211   0.371
55197W        W26780   9.047  32.022   1.363
55198W        W26781  36.106  32.008   4.389
55199W        W26782  26.969  29.897   0.245
55200W        W26783  15.471  34.644  11.183
55201W        W26784  19.547   6.125  12.069
55202W        W26785   4.345   6.813  11.905
55203W        W26786  30.628  40.538  13.626
55204W        W26787   5.239   1.044   1.729
55205W        W26788   6.993  35.282  11.123
55206W        W26789  29.302  28.538   4.062
55207W        W26790   1.760   0.236  12.559
55208W        W26791  10.098  14.564   2.405
55209W        W26792  14.696  44.001   2.682
55210W        W26793  42.586   2.668   4.516
55211W        W26794  41.580   8.773   4.993
55212W        W26795  27.440  34.712   0.512
55213W        W26796  30.708  30.692  14.856
55214W        W26797  36.736  44.365  10.703
55215W        W26798  38.592  13.283  13.496
55216W        W26799  31.784   4.845   3.450
55217W        W26800   6.151  17.455   2.358
55218W        W26801  39.821   0.300   4.516
55219W        W26802  42.396  28.679   3.239
55220W        W26803  17.538   6.306   4.350
55221W        W26804   3.188  37.012  13.924
55222W        W26805  17.942  37.301  13.970
55223W        W26806  26.530   5.880  13.300
55224W        W26807  12.715   1.834  13.816
55225W        W26808  11.747  17.211   0.444
55226W        W26809  22.479   4.467   3.081
55227W        W26810  39.861  30.141  13.905
55228W        W26811   7.429  27.925  13.390
55229W        W26812  26.950  18.412   2.786
55230W        W26813   1.247  18.315   4.372
55231W        W26814  40.535  15.870   3.244
55232W        W26815   5.744  39.632   3.834
55233W        W26816   0.231  27.016  14.027
55234W        W26817  18.124  22.732  12.814
55235W        W26818  17.583  41.747   4.487
55236W        W26819  44.779  32.694   4.541
55237W        W26820  44.488  25.019  10.475
55238W        W26821  25.473  21.092  14.927
55239W        W26822   7.816  14.706   2.918
55240W        W26823   6.334  25.609   4.174
55241W        W26824  12.062  31.260  14.955
55242W        W26825  12.727  37.025   4.086
55243W        W26826  36.383  29.103  10.280
55244W        W26827  12.903  19.736   1.832
55245W        W26828   8.953   1.081   4.117
55246W        W26829  35.534  12.377   4.893
55247W        W26830   7.974  35.947   2.398
55248W        W26831  14.199  37.408   5.498
55249W        W26832   5.345  41.831   3.804
55250W        W26833   4.411  20.970  10.747
55251W        W26834  16.352  42.530  12.566
55252W        W26835  13.889  33.629  14.839
55253W        W26836  43.542   8.094   2.697
55254W        W26837  30.969  17.211   2.214
55255W        W26838  30.148  30.408   1.508
55256W        W26839  29.629  24.449   3.387
55257W        W26840  21.523  16.512   1.974
55258W        W26841  13.247   5.765   0.526
55259W        W26842   6.361   6.439  13.417
55260W        W26843  16.632  25.105   4.492
55261W        W26844  40.994  38.171   3.832
55262W        W26845  44.080  36.492  12.001
55263W        W26846  12.654  28.063   0.441
55264W        W26847  32.806  44.871  13.249
55265W        W26848  19.652  20.554  14.384
55266W        W26849  13.216   8.540  14.748
55267W        W26850  35.474  35.851   3.707
55268W        W26851  30.526  35.015   2.876
55269W        W26852   8.002  16.171  11.877
55270W        W26853  13.595  30.918  14.312
55271W        W26854   5.354   5.889  10.804
55272W        W26855  31.135   1.465  11.575
55273W        W26856  16.879  43.570  10.370
55274W        W26857  25.412  30.142   1.459
55275W        W26858  38.819   4.370  11.554
55276W        W26859  42.720  21.087   0.362
55277W        W26860  11.818  31.528  11.028
55278W        W26861   4.176  35.850   1.060
55279W        W26862  40.860  26.577   3.435
55280W        W26863  13.930   3.426  12.499
55281W        W26864   9.348  44.772   2.687
55282W        W26865   0.404  33.139  13.831
55283W        W26866  26.570   3.546   1.765
55284W        W26867  32.979   6.892  11.573
55285W        W26868  10.664  37.644   3.699
55286W        W26869  12.846  17.038   2.730
55287W        W26870  35.433  33.989   3.663
55288W        W26871  14.833  11.034   4.709
55289W        W26872  23.941  32.595  12.915
55290W        W26873  17.548   2.301   1.401
55291W        W26874   3.215   1.957  12.394
55292W        W26875  41.018  35.102   1.819
55293W        W26876  41.513  38.332  13.744
55294W        W26877  29.109   0.412  10.744
55295W        W26878   8.362  15.797   2.283
55296W        W26879  25.073  23.707  11.018
55297W        W26880  17.395  40.984   0.790
55298W        W26881  11.833   9.201  13.357
55299W        W26882  33.211  13.730   0.192
55300W        W26883  44.985  34.817  12.923
55301W        W26884  12.117  25.072  13.128
55302W        W26885  31.777  17.273  12.841
55303W        W26886  32.318  19.439   4.956
55304W        W26887   5.681  20.702   1.225
55305W        W26888   5.920   2.571  12.510
55306W        W26889  30.632   6.459   1.873
55307W        W26890  18.008  31.988   4.854
55308W        W26891  13.730  13.151   1.574
55309W        W26892  14.228   0.503  14.796
55310W        W26893  15.403  31.684   3.152
55311W        W26894   9.810  33.848   2.317
55312W        W26895  17.634  33.911  10.590
55313W        W26896  11.091  38.031  12.541
55314W        W26897  24.086   2.358   4.498
55315W        W26898   9.013  37.498   3.386
55316W        W26899  20.043  29.739   4.954
55317W        W26900  30.478  25.040  11.304
55318W        W26901  24.537  32.310   2.650
55319W        W26902  23.751  19.579   2.412
55320W        W26903  24.355  14.979   1.366
55321W        W26904  42.087   5.053   0.895
55322W        W26905  12.829   6.361  10.852
55323W        W26906  18.498  18.290   0.467
55324W        W26907  22.499   6.730   4.218
55325W        W26908  31.401   0.397  14.945
55326W        W26909  10.420  22.673   4.673
55327W        W26910  18.990  16.102  13.793
55328W        W26911  33.371  32.124   4.853
55329W        W26912  18.216  21.127   0.870
55330W        W26913  44.194  42.429   2.952
55331W        W26914  25.516  23.359   1.768
55332W        W26915  24.081  14.388   2.753
55333W        W26916  18.134  33.304  13.853
55334W        W26917  29.081  16.321   4.239
55335W        W26918  24.567   3.445  14.818
55336W        W26919  22.724   2.290   0.332
55337W        W26920  12.088   0.669  13.210
55338W        W26921  35.939  15.717   1.917
55339W        W26922  20.242  28.192  12.902
55340W        W26923  20.176   6.050   0.826
55341W        W26924  33.679  22.064  10.559
55342W        W26925   1.413   9.617  12.415
55343W        W26926   4.883  36.346  11.708
55344W        W26927  35.053  34.652   4.118
55345W        W26928  15.679  13.176   0.936
55346W        W26929   9.383  15.669   1.302
55347W        W26930  32.852  14.399  14.455
55348W        W26931  41.472  22.950   1.339
55349W        W26932  41.385  12.931  10.671
55350W        W26933  41.926  12.160  11.663
55351W        W26934  12.687  14.757  12.929
55352W        W26935   5.282  42.961  13.125
55353W        W26936   4.883  27.947   4.519
55354W        W26937   5.283  16.376   0.058
55355W        W26938   4.451  25.577   0.262
55356W        W26939   7.236   2.738   3.724
55357W        W26940  26.901   7.211   4.885
55358W        W26941  36.570  27.633   0.018
55359W        W26942   1.006  21.125   4.551
55360W        W26943  31.480  20.598  12.696
55361W        W26944  23.707   0.706   2.787
55362W        W26945   5.337  20.174   4.773
55363W        W26946   5.737  26.501  13.135
55364W        W26947  44.588   1.428  13.857
55365W        W26948  25.356  33.111   4.973
55366W        W26949  10.832  32.581   1.399
55367W        W26950  36.326  17.325  12.393
55368W        W26951   1.930  35.290  13.225
55369W        W26952   9.709  27.407   0.451
55370W        W26953   2.551   5.325   1.743
55371W        W26954  37.005  34.544   1.535
55372W        W26955  13.715  41.848   3.257
55373W        W26956  10.904   8.941  11.804
55374W        W26957  17.331  24.654   3.713
55375W        W26958   8.828  34.568  14.958
55376W        W26959  10.859  22.728   4.034
55377W        W26960  32.031  42.188   1.978
55378W        W26961   4.260  36.892   4.147
55379W        W26962  37.520  30.109  13.946
55380W        W26963  17.853  30.499   3.611
55381W        W26964   0.384  39.928  13.882
55382W        W26965  17.196  13.127  14.000
55383W        W26966  38.169  14.168   1.444
55384W        W26967   5.491   3.283   2.314
55385W        W26968  14.585  28.423   0.721
55386W        W26969  18.452  36.108  14.831
55387W        W26970  20.719   7.028   5.006
55388W        W26971   6.226  22.568   1.280
55389W        W26972   5.302  29.368   0.378
55390W        W26973  38.008  13.054   4.001
55391W        W26974  14.776  42.127  12.118
55392W        W26975  15.754   3.778  14.302
55393W        W26976   7.562  15.289  14.343
55394W        W26977   6.958  24.534  12.093
55395W        W26978  34.976  18.746   2.631
55396W        W26979  26.195   8.978   2.814
55397W        W26980  18.154   4.510  10.730
55398W        W26981  43.262  13.674   1.893
55399W        W26982  28.688  14.231  14.299
55400W        W26983   5.719  30.526  10.351
55401W        W26984  19.266  27.529   4.895
55402W        W26985  11.565  27.926   4.183
55403W        W26986  18.290  10.375  13.018
55404W        W26987  11.368  33.478   4.569
55405W        W26988  25.728  18.647  13.455
55406W        W26989   2.404  14.167   0.818
55407W        W26990  30.654  21.243  11.330
55408W        W26991  27.223  37.423  11.324
55409W        W26992  11.086  26.915   3.244
55410W        W26993  16.651  28.554  10.398
55411W        W26994  25.666  31.603   0.212
55412W        W26995   8.170   0.617  12.209
55413W        W26996  38.161   9.912   3.065
55414W        W26997  34.950  44.990  10.629
55415W        W26998  10.632  17.421   1.802
55416W        W26999   9.637  20.961  13.840
55417W        W27000   9.640  44.377  14.895
55418W        W27001   9.921  35.612   0.143
55419W        W27002  24.712  18.803  14.396
55420W        W27003  32.322  37.621   4.237
55421W        W27004  36.121  17.119  14.446
55422W        W27005  29.554   6.421  14.366
55423W        W27006   4.262   0.482  14.857
55424W        W27007   2.267  19.560  11.106
55425W        W27008   3.193  39.916   1.391
55426W        W27009  41.600  18.120   0.884
55427W        W27010  35.008   0.270  13.934
55428W        W27011   9.458  13.125   1.922
55429W        W27012  17.561  12.198   3.881
55430W        W27013  24.430  32.844   2.224
55431W        W27014  13.708   7.357  13.658
55432W        W27015  41.930  38.976  10.973
55433W        W27016  16.805  17.751  12.155
55434W        W27017  26.017   0.360   0.407
55435W        W27018  23.426  20.148  13.394
55436W        W27019   3.927  26.881  13.297
55437W        W27020  28.216   4.214  13.398
55438W        W27021  28.243  18.025  11.904
55439W        W27022  14.645  21.830  13.506
55440W        W27023  22.000  29.481   0.950
55441W        W27024  14.725  13.889  12.744
55442W        W27025   3.414  41.311  11.987
55443W        W27026  10.928   0.523   5.178
55444W        W27027   1.432   1.287   2.192
55445W        W27028  29.411  29.384  12.938
55446W        W27029  30.155  38.670   1.419
55447W        W27030   6.721   6.205   2.222
55448W        W27031  44.455   2.325   1.994
55449W        W27032  29.553  35.395   0.762
55450W        W27033   9.669  39.809   2.352
55451W        W27034   9.714  26.732   4.431
55452W        W27035  39.338   9.139  10.715
55453W        W27036  14.261  30.434   4.029
55454W        W27037  35.391  12.726  14.669
55455W        W27038  31.688  20.283  12.360
55456W        W27039  41.446  11.161   4.107
55457W        W27040   1.558  32.737  11.624
55458W        W27041  16.472   1.236  12.834
55459W        W27042  20.420  34.172   3.146
55460W        W27043  18.985   0.039   0.985
55461W        W27044  22.204   2.478   4.473
55462W        W27045  41.300  41.535   1.233
55463W        W27046  22.591  38.514   3.293
55464W        W27047  19.165  14.576   3.229
55465W        W27048  28.974  27.683  12.474
55466W        W27049  40.847  39.489  14.862
55467W        W27050   7.170   9.825   1.742
55468W        W27051  27.429  19.717  11.412
55469W        W27052  37.248  40.779  13.003
55470W        W27053   3.745  22.404  12.021
55471W        W27054  16.446  36.643   0.873
55472W        W27055  20.076   9.263  10.589
55473W        W27056  19.626   9.886  12.550
55474W        W27057  39.070  14.554  11.516
55475W        W27058  10.675  36.281   4.187
55476W        W27059  34.814  34.920  14.333
55477W        W27060  41.898  33.428  14.141
55478W        W27061  17.974  42.571   1.217
55479W        W27062  23.409  13.047   0.844
55480W        W27063   2.934  21.700   3.421
55481W        W27064  39.309  28.619   2.327
55482W        W27065  21.302  12.068   5.035
55483W        W27066  15.807  36.457  13.954
55484W        W27067  23.654  31.811  10.188
55485W        W27068  28.140  30.550   2.654
55486W        W27069  17.193  27.034  11.072
55487W        W27070  24.103  25.397   3.296
55488W        W27071  38.792  29.025   1.654
55489W        W27072  42.832  42.468   1.779
55490W        W27073  40.100   0.313  14.044
55491W        W27074  30.600  28.873  14.728
55492W        W27075  33.767  11.341  14.972
55493W        W27076   4.409  40.441   1.812
55494W        W27077   5.875  21.586  12.887
55495W        W27078   1.409  28.168   2.252
55496W        W27079  30.458  18.602  13.563
55497W        W27080  22.560  41.432   2.402
55498W        W27081  24.031  28.262   2.355
55499W        W27082  34.370  22.162  14.336
55500W        W27083  26.153  22.527   4.622
55501W        W27084  35.890   3.711   1.269
55502W        W27085  31.934  23.174   3.534
55503W        W27086  30.505   4.768   1.287
55504W        W27087  41.402  14.154  12.730
55505W        W27088   8.789   1.572   4.786
55506W        W27089  44.995   3.933  11.587
55507W        W27090  36.840  38.345  12.902
55508W        W27091  33.574  15.447  12.094
55509W        W27092  17.074   8.823   2.761
55510W        W27093  18.148  24.019   2.856
55511W        W27094  33.122  37.071  14.325
55512W        W27095  33.421  29.140   4.557
55513W        W27096   5.162  16.517   1.564
55514W        W27097   8.697  43.433   3.649
55515W        W27098  10.404  20.960  11.744
55516W        W27099   6.376  29.492  12.169
55517W        W27100  40.017   5.960   5.494
55518W        W27101  41.890  44.280  14.337
55519W        W27102  14.281  23.122   2.902
55520W        W27103  13.274  31.596   1.457
55521W        W27104  20.574  14.822   4.595
55522W        W27105  28.851   2.863   0.980
55523W        W27106  12.328  12.364   1.398
55524W        W27107  15.163  28.879   0.504
55525W        W27108  15.806   6.775   2.204
55526W        W27109  26.064  26.701  14.111
55527W        W27110  32.610   1.917   4.615
55528W        W27111  15.570  39.484   2.491
55529W        W27112  39.836  38.483  14.572
55530W        W27113   2.851  10.385   2.877
55531W        W27114  22.476  23.580   2.791
55532W        W27115   2.972  44.181  11.697
55533W        W27116  19.518  44.568  12.166
55534W        W27117  30.417  13.170   0.068
55535W        W27118  37.549   2.033  10.780
55536W        W27119  16.382  24.669  11.880
55537W        W27120  10.171  22.989   0.620
55538W        W27121  11.655  37.204   1.966
55539W        W27122  19.223  10.934  14.720
55540W        W27123  17.199   6.476   3.329
55541W        W27124  27.858  43.186   3.783
55542W        W27125  28.510  30.951   3.827
55543W        W27126   6.171  43.615  12.391
55544W        W27127   5.141   1.933   2.741
55545W        W27128  44.490  40.247   4.238
55546W        W27129  10.447  28.927   0.465
55547W        W27130  32.508  30.743  14.330
55548W        W27131  41.043  42.388  11.146
55549W        W27132  18.750  22.249  12.284
55550W        W27133  44.335  43.809  10.374
55551W        W27134  24.461   0.496  10.691
55552W        W27135  29.063  33.138   2.615
55553W        W27136   7.385   4.203   1.328
55554W        W27137  17.021  25.065  13.415
55555W        W27138   6.886  15.204  13.561
55556W        W27139  30.362  10.168  12.964
55557W        W27140  22.601  35.948  14.934
55558W        W27141  21.301  42.700  14.421
55559W        W27142  33.969  36.936  11.874
55560W        W27143   9.240   5.304  13.044
55561W        W27144  40.070  31.387   1.654
55562W        W27145   4.437  32.621   3.341
55563W        W27146  25.568  39.194   0.232
55564W        W27147   3.812  23.072  11.133
55565W        W27148  30.057  27.909   2.149
55566W        W27149  11.917  14.177   2.618
55567W        W27150  21.299  16.759  14.860
55568W        W27151  20.800  39.486  12.464
55569W        W27152  17.889  43.969   0.788
55570W        W27153  22.024  43.875   4.580
55571W        W27154  39.429  17.846  13.914
55572W        W27155  40.135  12.147  13.379
55573W        W27156  22.717  28.866  11.176
55574W        W27157   7.828  23.954   3.092
55575W        W27158  25.040   5.979  13.266
55576W        W27159  16.892   8.639  11.159
55577W        W27160  30.939  38.892   2.335
55578W        W27161  14.667  42.747   4.559
55579W        W27162  10.801  30.225  13.311
55580W        W27163  21.661  25.520  13.333
55581W        W27164   8.172   0.456   1.421
55582W        W27165  19.620  32.570  11.475
55583W        W27166   2.789  22.328   0.249
55584W        W27167  38.541  11.780   0.410
55585W        W27168  12.949  11.477   3.638
55586W        W27169  30.144   3.373   4.189
55587W        W27170  36.442  25.597  12.521
55588W        W27171   1.288  26.402   4.527
55589W        W27172  15.633   1.006  14.786
55590W        W27173  21.541  27.306  13.063
55591W        W27174  33.175  12.261   0.426
55592W        W27175   6.899  43.442   0.141
55593W        W27176  16.281  10.105  14.161
55594W        W27177   4.160  11.137  13.865
55595W        W27178  31.344  15.647  12.090
55596W        W27179  43.855  11.275   4.066
55597W        W27180  18.774  22.157  12.783
55598W        W27181  11.758  30.097   1.331
55599W        W27182  43.963  12.787   2.699
55600W        W27183  20.337  37.094   0.461
55601W        W27184  34.563   8.809  13.432
55602W        W27185  39.577   4.984  12.330
55603W        W27186  19.118  36.414   3.770
55604W        W27187  21.807   4.810   3.313
55605W        W27188  42.015  44.587   0.761
55606W        W27189  30.193  38.074  14.087
55607W        W27190  31.918  18.642   3.645
55608W        W27191  20.428  30.437  10.651
55609W        W27192  37.324   0.660   0.748
55610W        W27193  11.799  42.437   1.983
55611W        W27194  28.655   3.951  12.659
55612W        W27195   5.372  18.723  12.393
55613W        W27196   3.606  23.889   1.256
55614W        W27197   8.301  15.720   1.269
55615W        W27198   5.688  42.801   2.852
55616W        W27199  11.804   0.854   4.188
55617W        W27200   6.254  40.515  14.574
55618W        W27201  34.819  15.566  14.134
55619W        W27202   6.251  16.359  13.891
55620W        W27203  18.589   1.179   3.252
55621W        W27204  15.263  35.025   5.396
55622W        W27205  18.646  21.154   4.215
55623W        W27206   3.782  23.576   3.274
55624W        W27207  15.597  24.671  10.866
55625W        W27208   4.134  20.197   0.874
55626W        W27209   6.676  28.053  14.168
55627W        W27210  41.787  35.809   3.998
55628W        W27211   8.775  33.490  14.917
55629W        W27212  11.838  15.566   0.924
55630W        W27213  34.901  38.389   3.270
55631W        W27214  18.215  40.548  13.436
55632W        W27215   2.191  25.596   3.333
55633W        W27216  14.335  35.307   4.238
55634W        W27217   9.557  31.677   3.620
55635W        W27218  39.571  33.622   1.871
55636W        W27219  39.836   3.969   1.896
55637W        W27220  42.434  35.424  11.648
55638W        W27221  14.428   9.245  12.846
55639W        W27222   0.296  10.654   1.013
55640W        W27223  16.337  16.075   0.366
55641W        W27224   9.583  32.564   3.129
55642W        W27225  11.583  32.310  13.535
55643W        W27226  20.360  43.426  12.848
55644W        W27227   1.918  36.188   4.935
55645W        W27228  38.878  36.720   2.286
55646W        W27229   0.016   6.347  14.058
55647W        W27230  39.576  10.783   4.734
55648W        W27231  38.856   9.315   2.211
55649W        W27232  12.131   4.782  11.527
55650W        W27233   3.941  21.706   4.702
55651W        W27234   4.778   3.186  14.599
55652W        W27235  22.167  11.306   2.734
55653W        W27236  38.790   3.069   2.843
55654W        W27237   9.276  14.265  13.475
55655W        W27238  16.479   9.677  11.147
55656W        W27239  13.290  23.932  12.099
55657W        W27240  27.685  28.436  12.823
55658W        W27241   7.500  38.898   2.919
55659W        W27242  39.861   2.290   4.862
55660W        W27243   4.866  14.441  10.716
55661W        W27244  38.288   1.004  13.016
55662W        W27245   3.477  18.037  10.694
55663W        W27246   1.019  23.156  13.396
55664W        W27247  44.320   0.889  14.578
55665W        W27248  11.685   6.401   0.378
55666W        W27249  44.931  23.467  10.997
55667W        W27250  32.826  17.989  11.127
55668W        W27251  37.603  11.257  12.572
55669W        W27252  27.462  34.645  13.052
55670W        W27253  24.365  21.412  10.674
55671W        W27254  31.704  19.176   3.802
55672W        W27255   7.902  44.144  10.661
55673W        W27256  42.924  12.098  12.248
55674W        W27257  20.475  13.420  13.827
55675W        W27258  32.151   7.237  11.194
55676W        W27259  12.577  26.689   2.834
55677W        W27260  21.851  19.162   5.435
55678W        W27261  36.810  32.234  13.404
55679W        W27262  43.383  35.867   0.879
55680W        W27263  40.965  39.988   3.125
55681W        W27264  27.682  13.375  14.265
55682W        W27265  10.077  43.288   3.177
55683W        W27266  39.556  31.983  13.515
55684W        W27267  18.090  40.103   0.521
55685W        W27268   6.894   4.838   0.877
55686W        W27269   1.354  41.533  10.731
55687W        W27270  43.741  21.210   3.619
55688W        W27271   7.172  40.430   3.240
55689W        W27272  41.027  25.404   4.274
55690W        W27273  18.556  14.742   1.301
55691W        W27274  25.755  20.056   3.549
55692W        W27275   8.458  25.083  14.970
55693W        W27276   4.483   1.387   2.359
55694W        W27277  16.658   8.032   2.842
55695W        W27278  29.400  25.171  13.995
55696W        W27279   9.693  18.286   2.678
55697W        W27280  19.625  30.006   4.761
55698W        W27281   7.648  12.456   0.007
55699W        W27282   3.426  39.555   1.686
55700W        W27283  15.079   3.274  11.057
55701W        W27284  12.758  42.915  13.514
55702W        W27285  36.135  18.838   4.127
55703W        W27286  25.776   6.252   3.405
55704W        W27287  20.685  16.594  12.785
55705W        W27288  40.323  35.835  13.354
55706W        W27289  25.072  35.883  13.354
55707W        W27290   8.390   2.691   0.367
55708W        W27291  14.557  31.895  12.657
55709W        W27292   0.981  15.738   2.318
55710W        W27293  39.392  29.865  13.798
55711W        W27294  27.161   3.699  14.105
55712W        W27295  43.325  18.667   2.878
55713W        W27296  41.805   6.755  11.544
55714W        W27297  35.635  18.159  11.168
55715W        W27298  36.972  39.007  13.505
55716W        W27299  44.746  35.156  14.786
55717W        W27300  35.048  13.200   4.233
55718W        W27301  39.849  42.517  13.212
55719W        W27302  15.654   7.264  13.346
55720W        W27303  23.937  28.596   1.281
55721W        W27304  39.349  24.980   3.797
55722W        W27305  14.701  33.043   0.412
55723W        W27306  34.444  35.134   4.623
55724W        W27307  12.866   4.494  13.834
55725W        W27308  17.594  33.524   1.327
55726W        W27309  15.626   9.396   9.949
55727W        W27310   1.299  42.355  10.993
55728W        W27311  25.159  43.918  11.918
55729W        W27312  22.141   4.990  12.012
55730W        W27313  32.868  11.010  14.946
55731W        W27314  39.807  22.724   3.682
55732W        W27315  30.305   9.674  13.101
55733W        W27316  16.895   8.143   0.992
55734W        W27317   3.206  15.121  14.379
55735W        W27318  29.382  18.218   2.466
55736W        W27319  11.785  37.070   1.320
55737W        W27320  27.672  31.285   2.876
55738W        W27321  40.280  43.413   0.454
55739W        W27322   9.336  13.671   2.663
55740W        W27323  14.665  22.138   1.506
55741W        W27324  26.170  38.965   1.378
55742W        W27325   3.394   4.566   5.249
55743W        W27326  33.463  17.053  14.417
55744W        W27327   5.923   5.850   3.176
55745W        W27328  30.839   9.351  12.973
55746W        W27329  11.886   1.009   3.194
55747W        W27330  11.225  17.073  14.701
55748W        W27331  28.522  37.524   0.316
55749W        W27332   0.939  25.036  11.575
55750W        W27333   1.422  22.615   4.696
55751W        W27334  33.475  15.075   4.533
55752W        W27335  13.752  39.684   1.300
55753W        W27336   8.804   7.978  11.126
55754W        W27337  11.368  31.502  14.459
55755W        W27338  23.559   8.154   2.760
55756W        W27339  36.802  16.634   1.404
55757W        W27340  15.009  17.847   2.432
55758W        W27341  14.366  10.434  12.448
55759W        W27342  41.322   5.954   1.140
55760W        W27343  41.056  18.493  12.973
55761W        W27344  31.794   0.319  10.640
55762W        W27345  26.187  27.962   1.109
55763W        W27346   5.865   2.513  14.848
55764W        W27347   0.078  19.170  13.966
55765W        W27348   8.736   8.455  13.792
55766W        W27349   2.297  22.649   1.647
55767W        W27350  12.679  33.321   4.105
55768W        W27351  39.265  23.336   1.110
55769W        W27352  35.077  34.164  14.833
55770W        W27353  42.371   1.108   0.712
55771W        W27354  32.524   3.439  13.048
55772W        W27355  19.294   5.780   3.244
55773W        W27356  15.559  36.827   4.131
55774W        W27357  36.261  36.539  13.922
55775W        W27358  18.609   8.162   0.287
55776W        W27359   7.417  22.186  13.494
55777W        W27360  20.044  14.676   1.314
55778W        W27361   6.236  35.794   1.575
55779W        W27362   7.709   7.461  11.920
55780W        W27363   2.752  21.487  11.585
55781W        W27364   3.799  10.919  11.490
55782W        W27365  23.521   9.097   0.378
55783W        W27366  16.199  12.299   3.206
55784W        W27367   8.303  42.196   0.335
55785W        W27368  10.696  42.987   0.873
55786W        W27369  30.928   7.141   4.177
55787W        W27370  40.057  26.980   1.531
55788W        W27371  28.826  36.119  10.722
55789W        W27372  13.326   5.599  12.989
55790W        W27373  17.761  24.280   1.079
55791W        W27374  15.061  33.417  10.266
55792W        W27375  24.003  26.722   1.890
55793W        W27376   1.331  37.837   2.275
55794W        W27377   6.164   2.219   0.215
55795W        W27378  42.535   5.981   3.330
55796W        W27379  21.664  15.543   0.767
55797W        W27380   1.727  19.836   2.192
55798W        W27381  14.662  40.812   3.282
55799W        W27382  28.576  29.531  11.117
55800W        W27383  33.068  37.307   0.915
55801W        W27384   0.402  36.142   3.172
55802W        W27385  41.435  36.842   3.306
55803W        W27386  39.012   5.447   1.224
55804W        W27387   3.322   8.837  10.699
55805W        W27388  22.533   5.739  13.656
55806W        W27389  13.659  38.866   3.850
55807W        W27390  34.441  19.954   1.482
55808W        W27391  33.048  28.497   0.810
55809W        W27392   9.424  30.373   3.759
55810W        W27393   2.400  23.130   1.816
55811W        W27394  26.529  25.816   4.735
55812W        W27395  32.076  33.594  14.278
55813W        W27396  43.448  22.034  13.928
55814W        W27397   9.374  44.772  10.178
55815W        W27398  37.663  26.316  13.031
55816W        W27399  35.661  36.641   3.451
55817W        W27400  31.012   6.310  11.699
55818W        W27401  19.171   0.435   1.836
55819W        W27402  23.344  23.906   0.390
55820W        W27403  42.254  31.148   0.923
55821W        W27404  31.816  38.529  13.028
55822W        W27405  41.255  13.304   0.215
55823W        W27406  12.417   8.251   3.802
55824W        W27407   5.442  14.943  14.670
55825W        W27408  44.088  20.146  10.810
55826W        W27409   9.136   7.660   4.547
55827W        W27410  11.102  31.373  12.093
55828W        W27411  42.984  33.515   4.158
55829W        W27412  34.025  25.219  14.327
55830W        W27413  11.791  14.315   4.606
55831W        W27414  23.672  26.459   5.249
55832W        W27415  36.872  34.036   1.445
55833W        W27416  36.875  36.511  11.928
55834W        W27417  39.479  27.201   0.620
55835W        W27418  39.096  29.140  11.490
55836W        W27419  16.725  16.855  12.483
55837W        W27420  15.282  31.716   2.298
55838W        W27421  40.398  29.543   2.899
55839W        W27422  36.318  29.597  14.857
55840W        W27423  26.544  25.478   2.603
55841W        W27424  10.136  23.607  14.340
55842W        W27425  17.474  44.142   0.046
55843W        W27426  15.935  24.933   0.423
55844W        W27427  30.973   7.149  11.087
55845W        W27428  37.781   0.441   1.699
55846W        W27429  22.220  43.370  10.353
55847W        W27430  27.628  36.767  10.787
55848W        W27431  23.921  17.154  13.851
55849W        W27432  26.390  30.643  10.705
55850W        W27433   4.000   7.858   3.869
55851W        W27434  17.297  19.595   4.928
55852W        W27435   9.241  29.261  12.377
55853W        W27436  30.657  27.447  13.841
55854W        W27437   5.361  12.313   4.476
55855W        W27438  19.997  19.891   4.259
55856W        W27439  41.761  36.364   0.425
55857W        W27440  32.642  14.266   4.662
55858W        W27441   6.318  10.593   2.408
55859W        W27442   5.114  11.428  13.815
55860W        W27443  33.457  34.340  13.604
55861W        W27444  26.142  44.249   4.735
55862W        W27445   1.964  22.242   2.913
55863W        W27446  42.614  15.372  14.643
55864W        W27447  20.929  18.222   3.288
55865W        W27448  32.485   9.464   4.480
55866W        W27449  26.190   6.017   1.360
55867W        W27450   5.906  26.082  14.460
55868W        W27451  18.493   5.946   3.594
55869W        W27452  43.446  19.688  14.880
55870W        W27453  21.937  36.107  11.844
55871W        W27454   2.730   7.241  12.937
55872W        W27455  19.804  41.070   0.435
55873W        W27456  14.830  36.110   3.981
55874W        W27457   8.537  17.129  11.902
55875W        W27458   7.831   1.903   0.415
55876W        W27459   6.673  16.181  13.647
55877W        W27460  16.861  33.449   2.242
55878W        W27461  32.897  42.050  12.641
55879W        W27462  21.714  25.172   3.186
55880W        W27463  12.077  18.593  12.106
55881W        W27464   2.199  25.972  10.716
55882W        W27465  22.292  30.174   4.291
55883W        W27466  36.495   1.608   4.572
55884W        W27467  43.820   2.874   2.089
55885W        W27468  36.516  29.120   1.718
55886W        W27469  31.781   8.154   0.194
55887W        W27470   0.700   7.527   4.143
55888W        W27471   6.811  30.174  13.617
55889W        W27472  12.925   0.893   2.422
55890W        W27473  16.281  32.638  12.382
55891W        W27474  24.066  31.197   4.118
55892W        W27475  34.310  29.212  13.922
55893W        W27476  16.054  17.303   1.683
55894W        W27477  10.666  13.284  11.148
55895W        W27478   9.185  44.052   1.364
55896W        W27479  13.837   6.367  14.714
55897W        W27480   7.082  15.501  14.396
55898W        W27481  34.117  26.707  12.586
55899W        W27482   5.956   3.673  11.473
55900W        W27483  40.585  31.541  10.702
55901W        W27484  25.582  44.041  12.472
55902W        W27485  18.607  20.813  12.486
55903W        W27486  24.358  20.618   4.115
55904W        W27487  12.289   3.903   3.749
55905W        W27488  23.561  40.820   3.975
55906W        W27489  31.525  29.416  11.440
55907W        W27490  39.368  26.049   4.505
55908W        W27491  44.094   7.811  10.600
55909W        W27492  41.017  19.049  13.593
55910W        W27493   5.389  22.261  11.502
55911W        W27494   1.215  41.968  13.192
55912W        W27495  19.259  16.176   4.220
55913W        W27496  17.996  42.179   1.573
55914W        W27497  17.327  13.667  12.429
55915W        W27498  26.460  42.319  11.889
55916W        W27499  11.829  33.355  14.885
55917W        W27500  11.169  36.104  13.421
55918W        W27501   1.719  24.010  14.808
55919W        W27502   0.371  41.909  11.463
55920W        W27503  29.977  29.317  11.609
55921W        W27504  39.829  14.807   1.188
55922W        W27505  18.729  29.516   0.379
55923W        W27506   2.008  34.165   4.657
55924W        W27507  35.380  39.086  11.920
55925W        W27508  36.876   2.751  10.951
55926W        W27509  30.576  17.349   4.294
55927W        W27510   7.295  37.927   1.108
55928W        W27511  15.825  31.408   2.303
55929W        W27512  18.234  12.855  13.389
55930W        W27513   2.680  13.551   3.642
55931W        W27514  30.450  17.028  11.136
55932W        W27515  31.914   9.616   5.155
55933W        W27516   4.746   4.208   2.687
55934W        W27517  20.652  13.286   1.642
55935W        W27518  14.181  32.502  13.819
55936W        W27519   1.292  20.997   0.215
55937W        W27520   6.351  44.925   4.211
55938W        W27521   7.341   7.741  14.193
55939W        W27522   4.615  39.248  14.455
55940W        W27523  13.910  39.860   1.773
55941W        W27524  26.439  27.132  10.862
55942W        W27525   3.231  20.637  12.463
55943W        W27526  10.364  18.177  10.261
55944W        W27527  19.325  17.921  10.088
55945W        W27528  40.529   4.042   4.456
55946W        W27529  39.606  39.603  12.577
55947W        W27530  31.580  15.121  12.966
55948W        W27531  21.207  36.859   3.845
55949W        W27532  17.322  37.110   0.879
55950W        W27533  15.708  18.524   0.362
55951W        W27534  27.774  37.016   1.794
55952W        W27535   0.074  43.761   3.182
55953W        W27536   1.896  12.905   4.602
55954W        W27537  11.592   4.296  12.709
55955W        W27538  37.810   9.702  11.562
55956W        W27539  39.008   6.783   1.236
55957W        W27540  32.290  34.349  11.111
55958W        W27541  30.574  32.314  13.532
55959W        W27542   5.640  12.178   0.836
55960W        W27543  18.652  29.697   5.115
55961W        W27544  28.484  29.429   4.766
55962W        W27545   5.510  24.461   2.857
55963W        W27546   7.280  36.647   4.540
55964W        W27547   7.759   5.842   0.319
55965W        W27548   9.356   0.252  13.991
55966W        W27549  22.215  42.792   2.361
55967W        W27550  19.650   3.049  14.906
55968W        W27551  33.182   0.013   3.930
55969W        W27552  12.068  38.735  14.951
55970W        W27553  19.275  41.391  14.036
55971W        W27554  36.475  15.805  13.540
55972W        W27555  29.619  41.458   2.846
55973W        W27556   8.882   4.867  14.481
55974W        W27557  35.618  14.590  14.843
55975W        W27558   4.003   0.667  14.196
55976W        W27559  26.447  34.387  11.201
55977W        W27560  28.811   9.129  13.090
55978W        W27561  40.494  26.456  12.949
55979W        W27562  15.777  22.148  10.613
55980W        W27563  24.981  13.567  13.101
55981W        W27564  20.055  14.785   2.234
55982W        W27565  24.009  35.723   2.288
55983W        W27566   8.329  28.692  13.038
55984W        W27567  42.570  10.105  11.085
55985W        W27568   5.170  33.988   4.862
55986W        W27569  26.743  35.574   1.858
55987W        W27570  38.239  18.639   1.000
55988W        W27571  40.746  41.152  11.546
55989W        W27572   3.618  42.795  14.105
55990W        W27573  20.635  33.625   4.526
55991W        W27574  16.863  39.288   4.859
55992W        W27575   8.351   4.309   4.656
55993W        W27576  30.953   2.863   1.306
55994W        W27577  20.975  39.431   2.232
55995W        W27578   5.815  21.097   4.931
55996W        W27579  21.622  43.702   2.172
55997W        W27580  30.127  33.369  11.103
55998W        W27581  23.138   4.078  13.062
55999W        W27582  15.487  18.669  12.662
56000W        W27583   6.381  35.275  13.805
56001W        W27584  25.135  16.840   1.234
56002W        W27585  36.455  30.472   4.381
56003W        W27586  32.142  35.635   3.275
56004W        W27587  36.743  10.786   2.948
56005W        W27588  28.880   9.793  10.745
56006W        W27589   3.176  10.417   1.380
56007W        W27590  14.882  41.532   3.604
56008W        W27591  14.160  28.162   2.276
56009W        W27592  22.552  16.618  13.158
56010W        W27593  21.495  29.601  13.252
56011W        W27594  31.184  39.002  11.113
56012W        W27595  22.405  11.119   9.914
56013W        W27596  31.960  12.878  12.855
56014W        W27597  38.438   0.931  10.637
56015W        W27598   8.842  12.211   3.173
56016W        W27599  11.910  36.789   2.911
56017W        W27600  14.793   1.306   4.738
56018W        W27601  41.049  12.601  13.498
56019W        W27602  38.133   3.648   3.916
56020W        W27603  28.879  33.336   0.780
56021W        W27604   1.989  22.626  11.039
56022W        W27605  34.858   0.526  12.950
56023W        W27606   0.366   1.530   4.819
56024W        W27607  39.438   4.530   4.800
56025W        W27608  29.479  10.779  10.631
56026W        W27609  40.975  44.828   2.414
56027W        W27610  25.702   7.166   1.822
56028W        W27611   2.821  36.307  12.801
56029W        W27612   6.987  41.228   0.820
56030W        W27613  39.994  12.276   2.721
56031W        W27614  17.128  19.125   3.377
56032W        W27615  21.127   6.403   1.983
56033W        W27616  30.473  27.990   1.323
56034W        W27617  43.971   1.199   0.437
56035W        W27618  22.368  30.606  10.242
56036W        W27619  35.372  14.516  12.557
56037W        W27620  27.986  40.935  11.165
56038W        W27621  35.343   8.722  14.086
56039W        W27622  39.477   9.910   0.420
56040W        W27623  22.571  32.351  12.985
56041W        W27624  35.251  33.137  14.024
56042W        W27625  42.468  10.635   1.440
56043W        W27626  39.427  20.749  13.296
56044W        W27627  24.129  39.480   1.010
56045W        W27628  26.138  26.907   4.017
56046W        W27629  43.568  25.624   0.862
56047W        W27630   1.053  39.497  13.659
56048W        W27631  19.238  38.604  14.361
56049W        W27632  15.906  21.669  13.069
56050W        W27633   4.707  23.074   3.835
56051W        W27634  17.154   3.036   4.201
56052W        W27635   2.897   3.779   1.355
56053W        W27636  40.500  10.239  13.057
56054W        W27637  36.460  44.785   4.568
56055W        W27638  22.648  16.580   1.459
56056W        W27639  30.530   7.536  12.259
56057W        W27640   1.839  25.004  13.581
56058W        W27641   6.211  36.264   0.817
56059W        W27642  17.917   8.758   1.905
56060W        W27643  33.130  17.302   4.107
56061W        W27644  33.785   8.478   3.457
56062W        W27645   3.839  16.764   3.681
56063W        W27646  16.001   1.833   2.807
56064W        W27647   0.757  18.345  11.334
56065W        W27648  38.801  36.490   1.002
56066W        W27649  43.465  14.713  12.178
56067W        W27650  22.554  37.170  10.901
56068W        W27651   4.969  37.288   1.405
56069W        W27652  42.987   1.930   3.219
56070W        W27653  27.048   2.347   4.693
56071W        W27654  32.105  21.247  14.890
56072W        W27655  34.888  19.804   4.519
56073W        W27656   2.345  11.311  13.096
56074W        W27657  42.307   2.428   1.261
56075W        W27658   8.372  23.835   2.921
56076W        W27659  11.351   2.354   1.308
56077W        W27660  35.122  30.648   5.073
56078W        W27661  35.235  42.681  13.438
56079W        W27662   7.345   9.036   3.888
56080W        W27663   6.604  16.041   2.627
56081W        W27664  29.451  18.533  12.408
56082W        W27665  15.247   3.302  12.259
56083W        W27666  33.062   2.413  14.478
56084W        W27667   0.513  38.983  14.795
56085W        W27668  15.623  41.866  11.819
56086W        W27669  21.936  20.109   1.427
56087W        W27670  38.929  30.721  12.097
56088W        W27671  43.507  31.418   4.041
56089W        W27672  38.838  34.956   2.711
56090W        W27673  17.249   1.165  12.041
56091W        W27674   7.376   9.742   3.313
56092W        W27675  17.204  24.311   4.084
56093W        W27676  37.468   2.285  13.877
56094W        W27677  35.509  32.089   3.138
56095W        W27678  15.305  11.337  14.842
56096W        W27679  16.195  17.782   1.882
56097W        W27680  31.218  30.177  12.053
56098W        W27681  15.252  22.481   4.126
56099W        W27682   1.185  33.395  13.939
56100W        W27683   6.904  10.886  12.859
56101W        W27684  43.314  35.465  13.639
56102W        W27685   9.591  16.301  13.918
56103W        W27686  36.029  27.701  14.998
56104W        W27687  19.898  25.046   4.651
56105W        W27688  44.052  33.820   3.324
56106W        W27689  24.344  17.164   2.787
56107W        W27690  33.084  20.958   3.284
56108W        W27691  35.949  14.590  11.987
56109W        W27692   4.206   5.939   1.741
56110W        W27693   0.724  26.199  12.971
56111W        W27694  27.515   7.901  11.986
56112W        W27695  43.715  36.599  10.600
56113W        W27696  11.150   6.079   0.282
56114W        W27697  12.740  24.941  12.465
56115W        W27698  19.563  12.016   1.291
56116W        W27699  41.180   1.036   1.783
56117W        W27700   9.610   3.344   1.775
56118W        W27701  36.411  17.848   0.267
56119W        W27702  29.660  26.076  13.987
56120W        W27703  36.510  11.911   0.281
56121W        W27704  37.496  29.667  10.634
56122W        W27705  20.290  32.618   2.541
56123W        W27706   5.141  34.522  13.409
56124W        W27707   7.663  15.835   4.582
56125W        W27708  30.033  21.601   0.456
56126W        W27709  18.263  41.516  13.117
56127W        W27710  39.483  40.307  12.488
56128W        W27711  31.972  11.837  12.873
56129W        W27712   3.023  44.320  12.988
56130W        W27713  27.131   7.789   0.307
56131W        W27714  20.745  44.793  10.706
56132W        W27715   6.894   9.955  14.818
56133W        W27716  31.006   3.508  12.974
56134W        W27717   2.347  18.101   3.889
56135W        W27718  35.097   2.940   0.186
56136W        W27719  23.055   9.107  11.889
56137W        W27720   1.114  43.146  11.921
56138W        W27721  26.927   5.419  10.660
56139W        W27722  12.568  23.492   2.230
56140W        W27723  20.434  20.699   2.811
56141W        W27724  12.103  29.468  12.213
56142W        W27725  26.623  34.088  12.833
56143W        W27726  15.464  27.084   1.354
56144W        W27727  35.422  10.610  13.583
56145W        W27728  12.077  43.057  10.908
56146W        W27729  40.612  36.518   2.860
56147W        W27730  18.107  36.045  10.678
56148W        W27731   6.770  25.269   1.825
56149W        W27732  17.769  26.121   5.574
56150W        W27733   9.970  38.792  14.410
56151W        W27734  33.560  28.293   4.635
56152W        W27735  21.039  32.723   0.974
56153W        W27736  24.296  10.529  11.562
56154W        W27737  14.757  22.570  14.797
56155W        W27738  12.320  32.471   1.390
56156W        W27739  30.713  44.754  12.449
56157W        W27740  41.645   8.541  10.998
56158W        W27741  35.597  25.457  14.924
56159W        W27742  11.064   3.365  13.812
56160W        W27743  31.225  41.046   1.693
56161W        W27744   7.366  43.034  12.572
56162W        W27745  31.870  13.171   4.034
56163W        W27746  19.707  27.102  11.888
56164W        W27747  44.354  23.881  10.034
56165W        W27748  14.358  43.333  10.719
56166W        W27749  29.990  42.515   3.087
56167W        W27750   1.394   9.679   3.786
56168W        W27751   4.748  32.423  11.213
56169W        W27752  20.612  28.872   3.070
56170W        W27753  21.606   3.485   2.699
56171W        W27754   7.714  21.891  13.891
56172W        W27755   4.999  39.886   4.394
56173W        W27756   6.914  22.275  13.454
56174W        W27757  22.038  15.261  12.777
56175W        W27758  16.332   4.184  10.690
56176W        W27759  16.297  17.964   0.889
56177W        W27760   5.730  39.126   3.731
56178W        W27761  22.981  24.277  11.872
56179W        W27762  41.935  38.785  13.378
56180W        W27763   0.797  44.503   2.107
56181W        W27764  30.135  11.705  14.068
56182W        W27765  35.003  16.292  14.823
56183W        W27766  33.168  42.563  13.964
56184W        W27767   3.359   0.468   4.678
56185W        W27768  31.382  40.477  12.059
56186W        W27769  37.069  18.591  12.630
56187W        W27770  28.771  10.286   4.263
56188W        W27771  44.670  35.633  10.741
56189W        W27772  39.841  42.846  11.999
56190W        W27773   7.306  18.208  12.027
56191W        W27774   6.995  26.165  12.730
56192W        W27775  31.877   2.421  14.981
56193W        W27776  10.651   0.242  12.537
56194W        W27777  23.028   1.833  13.227
56195W        W27778   6.448  44.155  10.197
56196W        W27779  18.841   0.533   2.276
56197W        W27780  44.954  21.572   3.275
56198W        W27781  39.231   2.250  11.573
56199W        W27782   5.031  19.225  14.021
56200W        W27783  32.255  16.285   1.024
56201W        W27784  37.920  24.102   2.657
56202W        W27785   0.693  19.993   3.194
56203W        W27786  16.441  38.251   0.538
56204W        W27787  44.723  40.646   0.010
56205W        W27788   8.419  29.557  11.780
56206W        W27789  21.281  20.341  10.652
56207W        W27790   1.795  24.488  13.434
56208W        W27791   1.351  27.486   3.063
56209W        W27792  42.007   7.155   1.918
56210W        W27793  11.270  17.247  10.383
56211W        W27794  14.165  35.472   1.834
56212W        W27795  16.152  37.941   4.733
56213W        W27796  24.154   6.203   0.817
56214W        W27797  43.022  12.133   2.870
56215W        W27798  35.144  21.761  14.442
56216W        W27799   1.648   4.606  13.352
56217W        W27800   7.668  36.374   2.345
56218W        W27801  30.055  21.103  12.619
56219W        W27802  16.271  39.877   2.108
56220W        W27803  14.881   2.326   1.220
56221W        W27804  37.906   4.276   3.323
56222W        W27805  31.058  39.053  14.499
56223W        W27806   5.327   6.220   0.581
56224W        W27807   1.329  30.229  13.979
56225W        W27808  29.915   4.174  11.123
56226W        W27809  41.825  43.025  12.917
56227W        W27810  15.724  37.377   1.756
56228W        W27811  10.470  33.523   4.746
56229W        W27812   4.253   4.378   3.419
56230W        W27813  35.978   9.083  14.352
56231W        W27814  32.094  15.817  12.873
56232W        W27815  20.024  17.445  11.061
56233W        W27816  21.725  12.342   4.908
56234W        W27817  28.857  14.351  11.722
56235W        W27818   2.625  42.228  11.107
56236W        W27819   3.689   0.516   1.431
56237W        W27820  23.796  15.031   4.433
56238W        W27821  17.206  44.784   0.054
56239W        W27822  10.473  39.272  14.968
56240W        W27823  37.456   9.287  14.757
56241W        W27824  37.523  24.749   4.846
56242W        W27825  31.462  32.336   1.848
56243W        W27826  31.247  19.636  10.947
56244W        W27827  21.649   2.246   1.891
56245W        W27828  30.891  18.521   1.789
56246W        W27829  40.907   4.430   4.490
56247W        W27830  40.887  42.871   3.164
56248W        W27831  15.878  39.056  14.222
56249W        W27832  11.645  24.499   1.892
56250W        W27833  17.266  11.491  12.013
56251W        W27834  44.874  34.320  12.908
56252W        W27835  44.214  10.678   2.186
56253W        W27836  29.993  28.033   4.129
56254W        W27837  28.063  25.799   3.211
56255W        W27838  35.391   1.138   0.350
56256W        W27839  44.863  32.488   1.727
56257W        W27840  21.143  20.076  11.923
56258W        W27841  28.015   2.221   2.718
56259W        W27842  21.195  29.446   1.192
56260W        W27843  19.398   9.759  11.611
56261W        W27844  39.098   3.449  12.845
56262W        W27845   5.245  36.741   2.446
56263W        W27846  38.589  25.123   3.569
56264W        W27847   5.795  21.769   0.062
56265W        W27848  41.477  37.335  14.009
56266W        W27849   5.282  22.233   3.632
56267W        W27850  28.030  39.203  13.077
56268W        W27851  27.040  20.125  13.304
56269W        W27852  43.928  13.195  11.173
56270W        W27853  27.191  19.144  12.432
56271W        W27854   1.990  43.003   0.539
56272W        W27855  22.919  26.188   1.825
56273W        W27856  31.422  38.646  13.343
56274W        W27857  22.102  24.944   4.784
56275W        W27858   9.377  31.867   4.755
56276W        W27859  31.714  30.163  11.829
56277W        W27860   3.954  41.944  10.679
56278W        W27861  13.516  19.637  11.220
56279W        W27862  31.200  37.416   1.257
56280W        W27863  28.157  34.204   3.615
56281W        W27864   3.321  22.474   3.268
56282W        W27865  16.090  24.520   4.776
56283W        W27866  34.152  12.119  13.506
56284W        W27867  28.971   2.470  12.980
56285W        W27868  21.988  34.558  12.871
56286W        W27869  41.800  23.603   0.629
56287W        W27870  33.684  12.150   0.369
56288W        W27871  11.923  19.689   3.265
56289W        W27872  20.169   5.607   4.351
56290W        W27873  28.124   8.671   4.388
56291W        W27874  37.284  14.633  13.999
56292W        W27875  37.339   1.926   1.327
56293W        W27876  15.524  19.355   1.471
56294W        W27877  22.216  40.783   2.326
56295W        W27878  44.748  37.876   0.315
56296W        W27879   7.173  17.189   3.429
56297W        W27880  25.024  26.534  13.729
56298W        W27881  43.985  39.025  12.376
56299W        W27882  11.454  17.109  13.198
56300W        W27883  36.536  12.703  10.681
56301W        W27884  36.195  21.082  14.194
56302W        W27885  15.312  29.890  14.503
56303W        W27886   5.600  30.834  11.661
56304W        W27887  42.454  29.915   3.096
56305W        W27888  25.079   8.460  12.067
56306W        W27889   7.963   5.354   0.242
56307W        W27890   6.528   3.334  10.664
56308W        W27891  13.270   6.941  14.175
56309W        W27892  30.125   6.197   1.929
56310W        W27893  34.086  44.346  14.381
56311W        W27894   3.052  31.514   1.021
56312W        W27895  23.214  23.478   2.221
56313W        W27896  25.538  14.207   4.205
56314W        W27897  28.074   9.523   4.387
56315W        W27898  19.883   3.739  14.044
56316W        W27899  10.926  32.431  14.405
56317W        W27900   2.808  32.926   3.401
56318W        W27901  42.062   9.452  13.292
56319W        W27902  17.803  10.231   1.289
56320W        W27903   7.220  25.417   4.121
56321W        W27904  28.842  38.534   1.807
56322W        W27905  30.921   8.369   0.419
56323W        W27906  41.379   0.494   2.502
56324W        W27907  41.358  12.595   4.282
56325W        W27908  42.268   1.730  14.661
56326W        W27909  33.420   1.076  13.013
56327W        W27910  25.178  17.912  11.600
56328W        W27911  30.140  33.766   3.729
56329W        W27912   6.300   1.298   1.421
56330W        W27913  37.002  36.631  13.569
56331W        W27914  30.312  25.221   4.251
56332W        W27915  35.394   6.257  14.424
56333W        W27916  22.684  35.623   0.452
56334W        W27917  25.217  15.029  12.570
56335W        W27918  36.289   0.578   0.740
56336W        W27919  32.395   9.211  11.902
56337W        W27920   5.844   0.326  13.394
56338W        W27921   6.624  31.155  13.769
56339W        W27922  28.928  33.426  13.385
56340W        W27923  40.804  43.587   4.906
56341W        W27924  10.828  28.429  11.155
56342W        W27925  38.920  18.847  10.676
56343W        W27926  14.196  43.833   2.145
56344W        W27927  40.562  20.986  10.322
56345W        W27928  29.075  39.940  12.101
56346W        W27929   0.623  26.570   2.191
56347W        W27930  17.116  16.340  14.045
56348W        W27931  16.124  42.465  11.677
56349W        W27932  13.452  35.394  12.860
56350W        W27933  19.885   4.237  11.719
56351W        W27934   4.883  32.988   4.651
56352W        W27935  37.371  19.799  11.526
56353W        W27936  43.232  34.018   3.592
56354W        W27937   9.112  35.778   0.325
56355W        W27938  13.148  32.620  11.584
56356W        W27939  29.202   8.127   0.701
56357W        W27940  32.453  17.385   1.934
56358W        W27941  42.457  33.526   4.129
56359W        W27942  21.821  19.092   0.501
56360W        W27943  15.992  15.624   2.211
56361W        W27944  35.990  12.223  13.049
56362W        W27945  11.255  41.345  13.934
56363W        W27946  39.989   6.437  14.070
56364W        W27947  22.056  18.642  10.851
56365W        W27948  19.099   1.820  14.435
56366W        W27949  34.965   6.732   2.826
56367W        W27950  38.296  35.060  10.615
56368W        W27951  24.873  30.072  14.900
56369W        W27952  35.797  26.956   0.224
56370W        W27953  33.913  39.830   4.356
56371W        W27954  10.277  41.715  12.484
56372W        W27955  40.434  42.274   2.781
56373W        W27956  18.009   2.831   0.409
56374W        W27957   6.973  40.933  14.310
56375W        W27958   6.730  24.356   2.070
56376W        W27959   3.224  20.962   1.464
56377W        W27960  21.937  13.600   3.214
56378W        W27961  19.132  41.751  12.834
56379W        W27962  35.532  22.032  14.723
56380W        W27963   9.879  44.355  12.526
56381W        W27964  22.783  32.351  11.996
56382W        W27965  41.811   3.487   4.130
56383W        W27966   5.876  16.006  13.976
56384W        W27967  23.428  12.065   4.223
56385W        W27968  40.180  42.780   9.993
56386W        W27969  28.562  22.932   2.766
56387W        W27970  10.091  37.926   3.160
56388W        W27971  30.540  16.337  13.281
56389W        W27972  39.775  12.745  12.123
56390W        W27973  20.169   6.241   1.777
56391W        W27974   9.996  25.128  12.950
56392W        W27975   3.913  28.657  10.517
56393W        W27976   9.903   0.910   4.409
56394W        W27977   8.597  36.362  11.439
56395W        W27978  13.380   7.625  14.622
56396W        W27979   5.689   0.234  10.714
56397W        W27980  11.389  16.164  12.740
56398W        W27981  10.125  39.549  13.168
56399W        W27982  41.489   8.331   0.868
56400W        W27983  23.732  34.998  11.653
56401W        W27984   8.940  20.032  13.556
56402W        W27985   5.212  29.249   3.619
56403W        W27986  40.406  37.515   4.139
56404W        W27987   7.004  33.645   3.445
56405W        W27988  12.316  26.780   0.779
56406W        W27989   3.696   2.311   0.708
56407W        W27990  38.299  17.703  13.930
56408W        W27991  20.320  15.842   5.347
56409W        W27992  10.234   2.746  14.192
56410W        W27993  29.569  39.375  13.592
56411W        W27994  32.684  44.950   0.842
56412W        W27995   4.901  21.690  14.508
56413W        W27996  40.853  18.975   1.601
56414W        W27997   4.430  34.184  10.614
56415W        W27998   6.924  13.618   2.775
56416W        W27999   7.712  10.378   1.591
56417W        W28000  42.614  28.354   1.968
56418W        W28001   3.083  12.840   0.529
56419W        W28002  34.426  35.374  13.464
56420W        W28003   0.277  29.939   0.991
56421W        W28004  41.933  42.438   2.056
56422W        W28005   8.484  26.040   3.634
56423W        W28006  37.265   5.415  14.006
56424W        W28007   3.438  35.495  10.189
56425W        W28008  43.945  16.097   1.209
56426W        W28009   2.900   0.607   4.443
56427W        W28010   8.139  42.929  14.261
56428W        W28011  10.205  21.758  14.587
56429W        W28012  44.870  28.494  13.516
56430W        W28013   6.114  25.431   2.769
56431W        W28014  12.555  14.658   3.626
56432W        W28015  40.105  43.826  11.969
56433W        W28016  42.556  14.605  12.985
56434W        W28017  22.966  27.496  13.347
56435W        W28018  16.672  22.256   4.138
56436W        W28019   1.718  31.709   2.789
56437W        W28020  33.383  40.587  11.083
56438W        W28021   3.416  18.218   1.347
56439W        W28022   8.428  26.574  11.440
56440W        W28023  39.331  23.044  11.622
56441W        W28024  34.914  21.980   1.344
56442W        W28025   9.138  37.417  14.362
56443W        W28026  29.698  39.885   3.835
56444W        W28027  29.170  33.611  11.125
56445W        W28028  32.608  19.187   0.377
56446W        W28029   8.971  22.724  11.719
56447W        W28030  16.000  19.161   1.505
56448W        W28031  19.162  23.147   3.187
56449W        W28032  24.991  16.703   4.995
56450W        W28033  28.057  20.529   4.717
56451W        W28034   6.900  33.666   3.939
56452W        W28035  35.955   7.883   1.202
56453W        W28036  34.528  36.080  14.875
56454W        W28037  29.095  27.527  12.997
56455W        W28038  15.845  10.922  11.954
56456W        W28039   1.016  30.425   1.755
56457W        W28040  22.916  30.177  11.623
56458W        W28041  10.485  20.442   0.347
56459W        W28042  30.815  40.461   2.225
56460W        W28043  38.578  43.891   1.331
56461W        W28044  29.069  27.532   1.100
56462W        W28045  34.918  26.702   1.754
56463W        W28046  14.249   5.425   2.221
56464W        W28047  13.402  11.638  12.181
56465W        W28048  39.189  39.887  12.342
56466W        W28049  25.427   6.625  14.338
56467W        W28050  26.070  28.449   4.169
56468W        W28051  42.966  33.959   2.551
56469W        W28052  12.593  43.853  10.849
56470W        W28053  37.423   5.904   3.105
56471W        W28054  32.674  32.741  12.387
56472W        W28055  36.947  11.635  10.521
56473W        W28056  17.669  29.125   1.711
56474W        W28057  43.570  14.780   0.455
56475W        W28058  23.074  38.990   4.571
56476W        W28059  28.025   3.136   0.329
56477W        W28060   8.644  10.590   3.028
56478W        W28061   5.130  38.283   4.688
56479W        W28062  25.217   7.200   1.654
56480W        W28063  17.094  34.289  10.081
56481W        W28064   9.874  34.851   2.658
56482W        W28065   8.222  23.867   3.436
56483W        W28066  39.082  28.131   1.429
56484W        W28067  32.231  13.784  14.064
56485W        W28068   4.940   8.940  11.261
56486W        W28069  42.910   0.405   1.351
56487W        W28070   5.163  34.636   2.759
56488W        W28071  37.281  37.950  12.077
56489W        W28072  30.108  40.738   2.788
56490W        W28073   3.667  12.183  14.863
56491W        W28074   7.753  27.450   2.677
56492W        W28075  31.850  41.803   3.221
56493W        W28076  27.701  24.653  11.441
56494W        W28077   3.723  34.342  14.487
56495W        W28078  15.193   0.210   0.427
56496W        W28079   7.593  15.526   0.889
56497W        W28080  26.206  31.086  11.697
56498W        W28081  41.473  19.305  12.866
56499W        W28082  39.847  14.560  12.521
56500W        W28083   9.581  40.818   2.393
56501W        W28084  12.346   6.805  14.534
56502W        W28085  39.779  20.635   4.332
56503W        W28086  32.200   4.271  14.936
56504W        W28087  33.287  32.414   2.335
56505W        W28088  11.667  25.387   0.770
56506W        W28089  29.475   4.424   3.697
56507W        W28090   2.272  11.768   1.894
56508W        W28091  38.173   9.215   4.969
56509W        W28092  34.286  19.447  14.708
56510W        W28093  25.568  40.855  13.987
56511W        W28094  27.040  34.370  12.982
56512W        W28095   0.734   0.544   4.841
56513W        W28096  20.234   1.860   1.201
56514W        W28097  22.108  17.925  13.887
56515W        W28098  34.540   1.926   0.419
56516W        W28099  14.023  43.740   1.256
56517W        W28100   9.374  18.607  11.588
56518W        W28101   8.973   6.848   4.113
56519W        W28102  18.820  33.764   3.798
56520W        W28103  20.775  43.272  12.562
56521W        W28104  19.564  16.245  12.513
56522W        W28105  10.370  10.629   4.224
56523W        W28106   7.976  35.725  10.212
56524W        W28107  19.044   8.191  13.862
56525W        W28108   8.120  25.633  14.819
56526W        W28109  42.778  11.678   0.754
56527W        W28110  13.881  29.409   3.350
56528W        W28111  14.233  29.471  12.662
56529W        W28112  14.197  13.358   4.412
56530W        W28113   6.224  12.438   4.464
56531W        W28114   5.767   9.278  12.493
56532W        W28115  35.969   7.422  11.163
56533W        W28116  27.077  30.890   2.384
56534W        W28117  32.546  34.866  10.599
56535W        W28118  26.010   5.814   2.741
56536W        W28119  32.956  10.836  12.610
56537W        W28120  16.637  44.971  14.202
56538W        W28121  36.107  40.637   2.688
56539W        W28122  33.938   5.318   2.206
56540W        W28123  10.339  25.875  13.930
56541W        W28124  44.660  41.336  10.437
56542W        W28125  11.647  26.902   4.911
56543W        W28126  41.894  16.301   0.953
56544W        W28127  42.774  37.101   1.732
56545W        W28128  20.145  27.885  12.495
56546W        W28129  20.508  37.511  10.678
56547W        W28130  42.446  43.366   3.730
56548W        W28131  20.659   1.645  13.564
56549W        W28132  27.157  15.297  12.049
56550W        W28133  24.830  30.766   0.478
56551W        W28134   7.072  30.671   0.643
56552W        W28135  11.869  10.803  14.528
56553W        W28136  33.050   1.503  14.053
56554W        W28137  19.991  10.308   0.115
56555W        W28138  31.531  34.545  14.878
56556W        W28139  43.194   3.374  13.552
56557W        W28140   3.908   7.333   4.631
56558W        W28141  26.358  11.724   0.866
56559W        W28142  25.282  21.103   0.817
56560W        W28143  23.703   8.550  13.356
56561W        W28144  18.046  14.137  10.585
56562W        W28145  28.132  15.035  11.825
56563W        W28146  32.034  34.495  14.767
56564W        W28147  20.300  11.201   3.551
56565W        W28148  19.538  35.460   0.454
56566W        W28149   5.741  42.686   1.359
56567W        W28150  42.136  39.150   0.872
56568W        W28151  35.499   3.418   3.651
56569W        W28152  36.274  43.758   0.251
56570W        W28153  33.482   3.032   2.248
56571W        W28154  18.502  35.515  12.938
56572W        W28155   4.864  18.767  13.852
56573W        W28156  24.968  29.930   4.442
56574W        W28157   1.863   0.754  12.616
56575W        W28158  39.872  15.856  12.832
56576W        W28159  38.906  15.214   3.693
56577W        W28160  18.085  19.028   0.800
56578W        W28161  37.926   5.011  11.458
56579W        W28162  26.534  43.342  12.910
56580W        W28163  30.417  11.657   0.250
56581W        W28164   7.744   6.383   4.756
56582W        W28165  30.388  29.215   2.455
56583W        W28166  30.460  43.930   2.281
56584W        W28167   5.339  31.823  10.190
56585W        W28168  40.152  43.080   1.782
56586W        W28169  36.218  12.856   3.638
56587W        W28170  17.575  15.039   1.842
56588W        W28171  39.044  40.403   0.218
56589W        W28172  17.540  35.096  12.929
56590W        W28173  24.185  33.078  10.718
56591W        W28174   1.170  38.702   0.771
56592W        W28175  25.826   3.479  10.259
56593W        W28176  12.047  39.437  10.764
56594W        W28177  30.365  28.726  12.877
56595W        W28178  21.224  29.552   0.252
56596W        W28179  38.439  38.408  10.904
56597W        W28180  33.682  24.469   3.861
56598W        W28181  25.717  19.746  13.373
56599W        W28182  44.933   2.878  10.280
56600W        W28183  22.280  39.276  11.722
56601W        W28184  41.003   3.364  11.008
56602W        W28185  17.044  28.904  10.282
56603W        W28186  35.827  14.337   0.427
56604W        W28187  27.545   5.456  12.737
56605W        W28188  25.778  16.121   1.249
56606W        W28189  36.426  39.416   4.346
56607W        W28190  20.055  30.698   5.182
56608W        W28191   8.153  38.010  10.661
56609W        W28192  27.123  18.089   0.853
56610W        W28193  34.433  38.318  13.793
56611W        W28194  42.027  37.618   4.319
56612W        W28195  13.857   1.245  13.822
56613W        W28196  10.753  42.058   2.750
56614W        W28197  23.924  43.437   2.697
56615W        W28198   8.368  17.554   1.196
56616W        W28199   9.221   2.759   0.903
56617W        W28200  30.541  13.675   2.421
56618W        W28201  19.658  21.566   4.515
56619W        W28202   5.988  18.123   4.326
56620W        W28203   9.169  14.263   0.516
56621W        W28204  20.676  37.471  10.052
56622W        W28205  27.174  33.006   0.434
56623W        W28206  42.309  17.226  12.423
56624W        W28207  10.376  44.520   4.308
56625W        W28208  11.289  15.137   4.813
56626W        W28209   1.750  25.364   1.304
56627W        W28210  39.815  38.393   3.535
56628W        W28211  25.668   5.633  14.330
56629W        W28212  30.174   2.330  11.248
56630W        W28213  14.683  32.647   4.586
56631W        W28214  22.666   2.130   1.801
56632W        W28215  19.183  14.547  12.984
56633W        W28216  14.472  43.908  11.555
56634W        W28217  19.728  12.982  11.654
56635W        W28218  16.205  39.715  11.914
56636W        W28219  21.105  15.852   0.502
56637W        W28220  21.519  44.996   4.146
56638W        W28221   6.488   7.903  14.050
56639W        W28222  31.707   9.971  12.050
56640W        W28223  44.866  11.267   0.895
56641W        W28224   3.165  38.591  14.338
56642W        W28225   0.308  14.420  11.629
56643W        W28226  36.780  31.236   2.286
56644W        W28227  28.395   1.390  10.562
56645W        W28228   0.329  23.458  12.342
56646W        W28229  35.874  24.241  12.567
56647W        W28230  37.178  10.290  14.455
56648W        W28231  16.840  14.037   3.064
56649W        W28232   1.525   5.439  14.497
56650W        W28233  31.330  17.696  12.055
56651W        W28234   6.225  40.494   4.009
56652W        W28235   6.004  28.780   1.800
56653W        W28236   9.060  34.926   3.900
56654W        W28237  24.669  15.652   4.353
56655W        W28238  14.056  12.751  14.384
56656W        W28239  26.004  13.840  13.813
56657W        W28240  12.550  34.493  10.698
56658W        W28241  10.653  24.686  10.613
56659W        W28242  39.949  26.904  13.535
56660W        W28243  24.034  20.517   3.671
56661W        W28244   3.658  16.998   1.745
56662W        W28245   5.779  12.582   3.579
56663W        W28246   0.598   3.926  11.205
56664W        W28247   2.725  42.417   2.393
56665W        W28248  40.750   0.442  12.759
56666W        W28249   5.402  21.908   2.697
56667W        W28250  33.940  13.424   0.645
56668W        W28251  33.493  10.493   1.490
56669W        W28252  17.735  38.292  11.514
56670W        W28253  15.317  40.576   4.630
56671W        W28254   7.654   2.956  14.033
56672W        W28255   9.821  20.260   2.769
56673W        W28256  36.489  32.044  11.047
56674W        W28257  29.947   6.880   1.829
56675W        W28258   1.409  15.587   3.693
56676W        W28259  28.692  39.561   2.775
56677W        W28260   4.791  22.566   4.103
56678W        W28261  36.455  18.549  12.924
56679W        W28262  23.260  19.304   2.882
56680W        W28263  14.723  19.517   3.395
56681W        W28264  37.952  40.498   1.265
56682W        W28265  41.762  23.537  10.422
56683W        W28266  10.881  38.808  11.100
56684W        W28267  40.303  34.824  10.441
56685W        W28268  24.172  23.656  10.767
56686W        W28269  23.547  28.602   1.623
56687W        W28270  23.613  14.169  11.934
56688W        W28271  11.489  35.950   0.354
56689W        W28272  14.351  36.918   2.581
56690W        W28273  14.392  18.654   2.643
56691W        W28274   2.250  30.994   1.499
56692W        W28275  21.591  29.435  12.758
56693W        W28276  16.970   7.758   1.368
56694W        W28277  24.458  23.135   0.329
56695W        W28278  11.339  41.012  10.733
56696W        W28279  40.089  41.804   0.833
56697W        W28280  13.812  43.399  11.947
56698W        W28281  37.944  40.306  10.645
56699W        W28282  22.696  39.052  13.419
56700W        W28283   6.382   4.695   0.925
56701W        W28284  24.418   6.766   4.376
56702W        W28285  43.555  21.517  13.806
56703W        W28286  39.369  18.993   0.305
56704W        W28287  23.963  13.345   3.681
56705W        W28288  16.283  11.434   0.913
56706W        W28289   5.740  14.872  13.010
56707W        W28290  31.676  40.946   3.824
56708W        W28291  10.701  40.229  12.537
56709W        W28292  31.181  35.193  12.623
56710W        W28293   8.254   5.214   1.675
56711W        W28294  14.782  21.300   5.155
56712W        W28295  21.700   7.268   9.917
56713W        W28296  36.320  33.633   0.265
56714W        W28297  16.763  10.695   4.267
56715W        W28298  34.053   1.378   1.411
56716W        W28299  30.329  38.368  14.532
56717W        W28300  39.449  39.976   1.705
56718W        W28301  12.792  27.708   3.428
56719W        W28302  21.066  13.339  11.617
56720W        W28303  22.225   0.036  12.663
56721W        W28304  38.050  10.986  13.506
56722W        W28305  37.686   2.892   0.436
56723W        W28306  19.014  19.827   4.235
56724W        W28307  16.337  32.825   1.237
56725W        W28308  16.937  10.444  12.352
56726W        W28309   0.753  29.990   2.326
56727W        W28310  27.212  19.029   0.819
56728W        W28311  15.009   2.012   3.776
56729W        W28312  40.022  18.115   3.253
56730W        W28313  38.195  14.011   5.054
56731W        W28314  20.490  22.692   0.693
56732W        W28315  21.242  22.648   4.569
56733W        W28316  32.525  17.524   2.433
56734W        W28317  31.594  36.119   4.647
56735W        W28318  23.766   5.205  13.339
56736W        W28319  27.479  22.174  13.804
56737W        W28320  28.659   4.194  10.747
56738W        W28321  32.640  34.534  12.042
56739W        W28322  23.771   7.614   3.277
56740W        W28323  22.746   2.774   2.724
56741W        W28324  36.881  44.917  14.483
56742W        W28325  37.975  34.310  14.351
56743W        W28326   1.839  41.723  10.773
56744W        W28327  25.592  18.156   0.271
56745W        W28328  40.431  14.376  12.103
56746W        W28329  14.137  14.676  10.442
56747W        W28330  36.371  44.420   3.260
56748W        W28331  16.098  43.639  14.830
56749W        W28332  19.299   4.286   0.875
56750W        W28333  30.855  39.389   2.195
56751W        W28334   1.389  30.037   4.647
56752W        W28335  31.370  26.146   0.736
56753W        W28336  25.994   1.463   0.490
56754W        W28337  25.990  40.599  13.892
56755W        W28338  20.737  17.254  14.428
56756W        W28339  39.032  20.982   4.565
56757W        W28340  38.555  39.331   0.281
56758W        W28341  35.436  16.053  14.912
56759W        W28342  12.366  29.196  13.078
56760W        W28343  36.486  36.461   4.372
56761W        W28344  29.353   2.327   2.956
56762W        W28345  10.299   1.649  13.443
56763W        W28346  27.228   0.510   1.380
56764W        W28347  26.197   7.270  13.066
56765W        W28348  15.273  12.644  12.875
56766W        W28349  19.778  14.217   0.421
56767W        W28350   6.699  18.077  10.592
56768W        W28351   9.124  36.298   0.294
56769W        W28352   7.190  23.313  13.832
56770W        W28353  38.262  17.392   3.751
56771W        W28354  42.510  41.921   3.138
56772W        W28355  23.749  37.501  13.116
56773W        W28356   0.845   1.045  11.192
56774W        W28357  31.974  44.882   3.690
56775W        W28358   6.673  43.424  10.662
56776W        W28359  44.888  41.562   4.483
56777W        W28360  15.228   3.543  10.647
56778W        W28361  14.413   6.894  12.661
56779W        W28362  22.128   6.689   1.839
56780W        W28363  23.175  29.253  12.468
56781W        W28364  43.519  15.836   3.425
56782W        W28365   6.907  30.117  14.130
56783W        W28366  25.911  43.932   1.368
56784W        W28367  29.103  22.024  10.434
56785W        W28368  26.018  17.161  14.795
56786W        W28369  19.704   9.793  13.951
56787W        W28370  21.927  11.805   2.817
56788W        W28371   8.674  15.594  11.048
56789W        W28372  34.111  18.731  11.935
56790W        W28373   0.515  29.132   2.208
56791W        W28374  36.216   4.684   4.953
56792W        W28375  41.429  23.936   1.685
56793W        W28376  35.743  35.373   2.377
56794W        W28377   9.234  44.921  12.693
56795W        W28378  31.628  42.903  10.906
56796W        W28379  20.498  23.146  12.931
56797W        W28380  12.155  42.861   1.444
56798W        W28381  27.511  18.847  14.793
56799W        W28382  33.742   8.646   1.887
56800W        W28383  27.566  40.937  13.563
56801W        W28384  18.233  41.938   3.727
56802W        W28385  22.117   1.235  13.439
56803W        W28386  25.247  38.008   4.333
56804W        W28387  40.432  43.755  11.138
56805W        W28388  13.095  44.464   0.371
56806W        W28389  22.544  21.270  14.928
56807W        W28390  23.560  23.850   1.065
56808W        W28391  10.595  17.653  12.986
56809W        W28392  15.837  22.240   4.949
56810W        W28393  38.580  27.714   2.790
56811W        W28394  27.341  44.873   2.237
56812W        W28395  40.909  44.409   0.689
56813W        W28396  16.923   1.896  11.668
56814W        W28397   4.888  43.493  13.168
56815W        W28398  29.091  29.365   4.078
56816W        W28399  41.509  20.300   3.341
56817W        W28400   1.354  16.010  14.014
56818W        W28401  27.388  29.548  11.979
56819W        W28402  34.650  28.683   2.261
56820W        W28403  25.580   6.674  11.509
56821W        W28404   1.844  41.298   1.472
56822W        W28405  38.753   6.485   0.876
56823W        W28406  31.552   7.592   1.905
56824W        W28407  30.203  34.273   3.617
56825W        W28408  26.552  34.368   2.343
56826W        W28409  23.559   4.630  13.821
56827W        W28410   1.354  32.645   0.396
56828W        W28411  44.807  25.452   0.216
56829W        W28412  14.549  34.377  12.412
56830W        W28413  25.185  14.854   1.391
56831W        W28414   1.992  19.582  12.005
56832W        W28415   3.311  40.951   2.424
56833W        W28416  32.858  43.954  11.493
56834W        W28417  39.915  37.920   2.114
56835W        W28418  25.709  21.687  13.863
56836W        W28419  29.931   8.726  12.595
56837W        W28420  34.950   1.788   3.297
56838W        W28421  20.609  30.964   3.152
56839W        W28422  15.705  13.829   0.267
56840W        W28423  33.923  29.113   4.833
56841W        W28424  38.088   0.444   2.182
56842W        W28425  43.831  24.330   3.699
56843W        W28426  40.658   0.728  12.101
56844W        W28427  20.013  17.678  13.236
56845W        W28428  15.233  22.505  12.598
56846W        W28429  21.242   0.436   2.920
56847W        W28430  24.117  27.698   1.645
56848W        W28431  20.954  22.230  13.002
56849W        W28432   7.847   3.319  12.007
56850W        W28433  12.537  42.405   3.154
56851W        W28434  33.507   3.728   1.306
56852W        W28435  23.092  40.768  13.669
56853W        W28436  27.224  39.212  11.169
56854W        W28437  33.298  22.632   1.524
56855W        W28438  29.614  32.210   4.174
56856W        W28439   4.856   6.394   5.010
56857W        W28440  32.519  32.716  13.317
56858W        W28441   4.114   2.593   1.484
56859W        W28442   6.320  44.269   3.657
56860W        W28443   2.753  40.000  10.608
56861W        W28444   1.388   4.983  12.047
56862W        W28445   0.392  22.186   3.765
56863W        W28446  36.281  33.159   2.305
56864W        W28447  13.939  38.716   3.169
56865W        W28448  26.544   5.903  14.974
56866W        W28449  13.792  12.669   4.620
56867W        W28450   2.217  17.170   3.361
56868W        W28451  23.017  28.509  14.750
56869W        W28452  32.211  16.542  14.844
56870W        W28453  17.082   6.844  12.245
56871W        W28454  34.588  37.791   2.896
56872W        W28455  40.857  10.698  13.539
56873W        W28456   5.461  41.983  11.357
56874W        W28457   8.994  43.472   1.784
56875W        W28458   2.466   9.356   2.626
56876W        W28459  17.220   8.096  14.290
56877W        W28460  38.863   6.157   4.171
56878W        W28461  13.781  33.138   3.753
56879W        W28462  19.286  41.332  14.849
56880W        W28463  28.017  23.014  13.520
56881W        W28464  24.925  11.588  11.044
56882W        W28465  10.787  25.017  13.598
56883W        W28466  29.588  22.050   1.332
56884W        W28467  39.666  26.680   3.257
56885W        W28468  37.535  13.134   3.232
56886W        W28469  14.224  31.856  13.079
56887W        W28470   1.671  21.516   4.263
56888W        W28471   5.351  11.348  13.384
56889W        W28472   6.986   4.535   0.367
56890W        W28473  30.013   7.390   0.904
56891W        W28474  20.992  30.503  10.646
56892W        W28475  41.317  12.077   3.236
56893W        W28476   4.897  28.080   0.824
56894W        W28477  35.618  42.406  12.444
56895W        W28478   0.366  28.815   3.985
56896W        W28479  42.360  29.630   3.532
56897W        W28480  10.573   9.738   2.649
56898W        W28481  16.123  37.733   3.367
56899W        W28482  21.033  23.204   1.711
56900W        W28483   1.244  38.785  10.536
56901W        W28484  27.641  14.898  14.334
56902W        W28485   2.799  18.319  11.140
56903W        W28486  30.032   2.743   4.631
56904W        W28487  36.450   9.945  13.423
56905W        W28488  39.312  42.889  11.940
56906W        W28489  24.028   4.817  11.126
56907W        W28490  33.883  32.080  12.896
56908W        W28491  40.751  35.538   0.943
56909W        W28492  16.620   0.594   0.004
56910W        W28493  36.962  43.361  14.722
56911W        W28494   4.356  36.220  11.904
56912W        W28495  36.572  26.543   2.614
56913W        W28496  41.365   9.147   1.280
56914W        W28497  36.472  41.091   2.219
56915W        W28498  38.793  16.844   1.419
56916W        W28499  41.486  20.306  13.963
56917W        W28500  13.848  13.812  10.733
56918W        W28501  24.019   7.465   1.716
56919W        W28502  26.161  25.416  13.868
56920W        W28503   5.101  15.681  14.594
56921W        W28504  42.809   5.926  14.424
56922W        W28505  17.389  32.472  14.460
56923W        W28506  23.696  12.163   0.768
56924W        W28507  39.278   6.709   4.977
56925W        W28508  34.927   9.070   2.277
56926W        W28509  30.712  26.152  11.097
56927W        W28510  10.792  17.281   4.379
56928W        W28511   4.672  10.782   3.298
56929W        W28512  31.940  30.193  14.759
56930W        W28513  34.891  28.151   0.818
56931W        W28514  31.164  27.987   3.283
56932W        W28515  22.956  11.705  10.694
56933W        W28516  22.225   2.968  13.849
56934W        W28517  39.256  11.409  13.582
56935W        W28518   2.421  12.421   3.551
56936W        W28519  30.208  42.787   2.683
56937W        W28520   1.768  29.577  11.176
56938W        W28521  17.645  21.301   1.189
56939W        W28522  42.249   7.227  13.601
56940W        W28523  31.501  39.628   1.828
56941W        W28524  33.494   9.690  12.451
56942W        W28525  17.168  44.197  11.910
56943W        W28526  11.782  13.531   0.869
56944W        W28527   5.753   7.216   2.123
56945W        W28528   2.006  12.092   0.664
56946W        W28529  25.604  11.037   1.358
56947W        W28530  23.288  34.046   4.137
56948W        W28531  40.298  14.278   3.266
56949W        W28532   4.893  13.406   2.736
56950W        W28533  40.420  14.826  11.215
56951W        W28534   8.610  33.235   0.360
56952W        W28535  39.914  15.837   0.531
56953W        W28536  17.336  33.906  14.884
56954W        W28537  16.668  19.629   1.407
56955W        W28538  40.360  31.581   1.278
56956W        W28539  21.820  12.052   0.886
56957W        W28540  29.310  42.519  11.538
56958W        W28541  43.413   2.410  10.505
56959W        W28542   0.255  43.694  11.380
56960W        W28543   0.860   4.486   1.391
56961W        W28544  11.555  23.509  12.492
56962W        W28545  27.350  12.423  12.039
56963W        W28546   4.693  11.193   3.592
56964W        W28547  23.650  16.897  13.058
56965W        W28548  36.908  44.098  14.987
56966W        W28549  21.197   6.670  14.715
56967W        W28550  13.642  18.683   2.315
56968W        W28551  32.594  13.038   1.111
56969W        W28552   1.141  37.733  10.293
56970W        W28553  10.295  24.295  10.553
56971W        W28554  14.282  21.798   4.609
56972W        W28555   2.913   7.611   1.460
56973W        W28556   3.781  31.861  11.666
56974W        W28557  19.594  20.217   4.271
56975W        W28558  39.171   9.381   5.216
56976W        W28559  32.452  43.371  12.085
56977W        W28560  26.976  27.386  11.519
56978W        W28561  24.396   4.728   4.071
56979W        W28562  25.094   6.782   2.292
56980W        W28563   1.883   8.964   1.398
56981W        W28564  14.718  23.999  14.104
56982W        W28565   1.162   9.026   0.318
56983W        W28566  23.241  32.750   1.344
56984W        W28567  21.007  28.511  11.593
56985W        W28568  37.967  31.146  12.812
56986W        W28569   8.804   8.641   4.596
56987W        W28570  23.384  35.986   4.259
56988W        W28571  41.817  44.381   1.697
56989W        W28572  12.822  43.962  13.272
56990W        W28573  20.143   7.701   4.663
56991W        W28574  34.612  35.838  12.145
56992W        W28575  29.453   7.334  12.244
56993W        W28576  34.504  13.120  12.624
56994W        W28577  15.998  19.284  13.330
56995W        W28578  15.176   2.267  14.851
56996W        W28579  10.619  20.068   4.718
56997W        W28580  24.861  13.037   1.731
56998W        W28581  14.284  39.341  13.754
56999W        W28582  11.457  16.677   1.837
57000W        W28583  34.478  21.001   2.498
57001W        W28584  41.857  14.568   3.906
57002W        W28585  18.776  38.837  14.478
57003W        W28586  21.231  41.970  11.773
57004W        W28587   7.142  14.948  14.491
57005W        W28588  11.310   2.202   3.105
57006W        W28589  27.911  16.823  11.653
57007W        W28590   3.966   4.999   1.733
57008W        W28591   3.491  44.710  12.471
57009W        W28592   1.620  42.587   1.234
57010W        W28593  43.029  27.531  13.991
57011W        W28594  18.460  27.100   3.317
57012W        W28595   4.023  35.360  11.086
57013W        W28596  42.255   3.374  11.565
57014W        W28597  42.950  37.020   3.109
57015W        W28598   2.968  19.498  14.045
57016W        W28599  34.617  41.046   4.823
57017W        W28600   8.624  10.872   0.346
57018W        W28601  37.640  19.430   2.751
57019W        W28602  40.460  24.566   1.224
57020W        W28603   3.694  42.403   1.407
57021W        W28604  41.980  39.338   4.045
57022W        W28605  27.943  20.495  12.393
57023W        W28606  18.375  17.676  12.058
57024W        W28607  24.566  39.425   3.362
57025W        W28608  44.723  12.213  13.297
57026W        W28609  41.028  16.239   0.224
57027W        W28610  32.821  32.321  13.504
57028W        W28611  25.049  21.465   3.084
57029W        W28612  14.649  16.859  11.994
57030W        W28613  27.565  23.007  11.787
57031W        W28614  21.148   1.425  14.417
57032W        W28615  40.078  43.261   4.087
57033W        W28616  24.168  35.958   4.649
57034W        W28617  34.077   2.991  11.123
57035W        W28618  23.094  36.359  10.920
57036W        W28619  31.565  32.106   0.213
57037W        W28620  40.558  14.138   4.540
57038W        W28621  25.149  29.875  12.082
57039W        W28622   5.283  33.361   0.502
57040W        W28623  37.955  26.721   4.917
57041W        W28624  14.619  35.041   3.289
57042W        W28625   1.464  35.459   3.857
57043W        W28626  34.416  38.784  14.021
57044W        W28627  32.020  17.300  10.659
57045W        W28628  18.774  16.195  14.515
57046W        W28629   2.407  34.996  13.556
57047W        W28630  11.746  44.756  11.165
57048W        W28631  33.059  29.626  13.475
57049W        W28632   2.506   2.282   3.130
57050W        W28633   9.697   7.233  14.009
57051W        W28634  20.422  28.997   4.773
57052W        W28635  36.058  44.036   4.874
57053W        W28636  24.477  37.389  12.405
57054W        W28637  25.267  21.259  11.651
57055W        W28638   7.286   1.269  14.009
57056W        W28639  20.202  20.277  12.967
57057W        W28640  20.751  36.847   0.255
57058W        W28641   0.235  15.816   3.831
57059W        W28642  29.874  41.267   1.855
57060W        W28643  12.642  21.235   3.439
57061W        W28644  22.824  25.590  13.395
57062W        W28645  31.391  41.886  13.884
57063W        W28646   4.121  44.991   2.619
57064W        W28647  16.869  13.208  14.403
57065W        W28648  34.983  26.961   2.190
57066W        W28649  15.145  35.178  11.580
57067W        W28650  18.488  36.664   4.527
57068W        W28651  34.450  29.143  10.670
57069W        W28652  27.846  25.577  11.247
57070W        W28653  22.161  22.727  12.341
57071W        W28654  29.231  38.022   3.528
57072W        W28655   3.326  37.926  14.423
57073W        W28656   8.107  27.196   0.852
57074W        W28657  17.683   7.601   4.091
57075W        W28658  28.078  42.008   0.554
57076W        W28659  43.048  31.620  13.825
57077W        W28660  33.163  38.037   2.968
57078W        W28661  27.421  44.749   4.133
57079W        W28662  43.990  25.493   4.721
57080W        W28663   2.741  34.376  11.690
57081W        W28664   2.344  15.227  11.285
57082W        W28665  19.671  24.454  13.926
57083W        W28666  27.364  24.028   4.891
57084W        W28667   6.576  17.222   0.758
57085W        W28668   5.714  40.459   4.150
57086W        W28669   7.368   5.324  11.550
57087W        W28670  42.818   0.189  10.286
57088W        W28671  22.697  30.086  13.403
57089W        W28672  11.824  44.853  14.442
57090W        W28673   0.323  17.535  12.536
57091W        W28674  21.252   7.707   9.874
57092W        W28675   7.374  19.698  12.209
57093W        W28676  36.975  18.608   2.326
57094W        W28677  23.621   1.575  14.405
57095W        W28678   6.161  10.554  12.231
57096W        W28679  34.768  29.645  14.750
57097W        W28680  37.287   3.724  13.299
57098W        W28681  26.678  14.674  11.541
57099W        W28682   8.952  38.890  13.258
57100W        W28683   1.091  42.760   1.050
57101W        W28684   3.294   1.419   0.304
57102W        W28685   7.350  31.099   1.409
57103W        W28686  18.403  41.673  13.600
57104W        W28687  38.949  32.975  13.118
57105W        W28688  15.300  27.166   3.177
57106W        W28689  32.808   3.261   5.072
57107W        W28690  16.269  42.823  10.777
57108W        W28691  32.699  11.262   3.779
57109W        W28692  29.677  35.810   3.146
57110W        W28693  39.499   8.863   4.584
57111W        W28694  10.181  44.999  12.748
57112W        W28695  40.774  29.188  14.851
57113W        W28696  39.170   0.352  10.661
57114W        W28697  20.587  13.125  11.647
57115W        W28698   6.093  18.260   3.157
57116W        W28699   3.659  36.431  12.831
57117W        W28700   3.520  44.859  11.538
57118W        W28701   3.419  18.036  14.538
57119W        W28702   0.060  39.916   2.715
57120W        W28703  19.985  42.558   2.342
57121W        W28704  13.765  29.672   2.922
57122W        W28705  25.561  25.157   2.390
57123W        W28706   2.507  33.986  10.711
57124W        W28707  14.490  18.095   0.900
57125W        W28708  32.562   6.996   0.783
57126W        W28709   4.892   6.819   4.051
57127W        W28710  32.650  38.943   2.767
57128W        W28711  14.256  25.516   5.010
57129W        W28712   9.467  41.983  12.065
57130W        W28713  17.243  24.737  10.617
57131W        W28714   2.760  28.107   2.024
57132W        W28715  38.810  16.379   2.851
57133W        W28716   9.341  13.915   4.514
57134W        W28717   2.256   4.449  14.064
57135W        W28718  30.845  28.674   3.794
57136W        W28719   5.353   9.317  13.855
57137W        W28720   4.363  26.451   1.321
57138W        W28721  14.205  11.281  12.128
57139W        W28722  17.602  21.722  11.156
57140W        W28723  23.296  32.400  12.098
57141W        W28724  31.072  31.977   1.406
57142W        W28725  29.715   4.899   0.647
57143W        W28726  15.890  17.156   2.338
57144W        W28727  24.184   4.431  11.985
57145W        W28728  27.113  18.705   1.250
57146W        W28729  24.026   2.208   2.292
57147W        W28730  38.511  10.757  11.713
57148W        W28731  12.406   7.485  12.094
57149W        W28732  35.557  28.598  14.864
57150W        W28733   0.705   9.410  12.676
57151W        W28734  18.528  27.025  13.679
57152W        W28735  35.625  33.175  11.150
57153W        W28736   3.509  31.569   4.955
57154W        W28737   3.168  43.346  14.884
57155W        W28738  13.982  43.727  12.459
57156W        W28739  41.115  27.485  10.790
57157W        W28740  31.812  35.013  14.835
57158W        W28741  30.643  24.858   2.396
57159W        W28742   5.443  14.412  10.785
57160W        W28743   1.394   9.538  11.921
57161W        W28744  40.617  12.961   2.231
57162W        W28745  15.702  34.584  10.729
57163W        W28746  12.583  31.868   1.316
57164W        W28747  36.187  32.418  12.041
57165W        W28748  24.112  11.117   4.121
57166W        W28749  10.790  33.013   4.137
57167W        W28750  39.276   8.407   4.588
57168W        W28751  37.901  30.248  12.783
57169W        W28752  37.105  17.289   2.975
57170W        W28753  37.932  22.510  11.527
57171W        W28754  18.855   0.153  12.208
57172W        W28755  31.561   3.458  12.992
57173W        W28756  29.473   8.375  13.386
57174W        W28757  36.607  12.020  14.379
57175W        W28758  32.491   2.031  12.969
57176W        W28759  20.726  21.156  14.679
57177W        W28760  19.653  44.004  14.775
57178W        W28761  41.811   3.861  14.751
57179W        W28762  39.528  35.020   3.253
57180W        W28763  28.539  28.603   2.359
57181W        W28764  15.574   4.411  10.230
57182W        W28765  35.064   4.728   3.260
57183W        W28766  18.701  44.259   3.389
57184W        W28767  28.817   5.459  10.615
57185W        W28768  10.114   9.633   4.149
57186W        W28769  31.609  16.080   4.286
57187W        W28770  33.883  13.623   2.875
57188W        W28771  31.668   2.721   3.748
57189W        W28772  26.621   3.997   1.058
57190W        W28773  39.175  32.184  11.141
57191W        W28774  15.755  21.504   3.687
57192W        W28775   4.062  41.467   3.719
57193W        W28776  22.139  41.251   3.723
57194W        W28777  15.842  39.067  13.451
57195W        W28778  12.749  40.542   0.001
57196W        W28779  31.269  20.590   3.166
57197W        W28780  24.930  25.026  11.111
57198W        W28781  14.313   5.773   4.587
57199W        W28782  11.301  18.027   3.672
57200W        W28783  39.326  38.990  11.973
57201W        W28784   7.689  40.703  14.058
57202W        W28785   8.116  16.852  10.268
57203W        W28786  31.240  12.802   1.756
57204W        W28787  40.607  14.613   4.773
57205W        W28788  17.434  35.087   1.009
57206W        W28789  23.686  25.488  12.119
57207W        W28790   7.277  27.684   2.692
57208W        W28791   2.617   4.692  12.922
57209W        W28792   6.057  14.803   3.204
57210W        W28793  31.352  30.104  10.934
57211W        W28794   3.403   5.466   2.840
57212W        W28795  23.737  12.349   4.513
57213W        W28796  17.345  38.639  12.827
57214W        W28797   6.917  27.019   3.902
57215W        W28798  30.841  33.181  11.095
57216W        W28799  43.258  37.432   3.196
57217W        W28800   4.919  10.342   3.318
57218W        W28801  29.148  23.221  10.816
57219W        W28802  14.943   3.797  14.456
57220W        W28803  29.113  27.879   4.144
57221W        W28804  33.272  33.911   4.073
57222W        W28805  38.598  26.483  14.515
57223W        W28806  26.401  18.764   0.716
57224W        W28807   6.677   4.748  14.937
57225W        W28808  34.857  21.531   0.848
57226W        W28809  15.671   6.642   4.116
57227W        W28810   2.790   8.892   1.932
57228W        W28811  23.195  16.754  11.442
57229W        W28812  25.259   7.742   3.572
57230W        W28813  18.547  34.797  13.379
57231W        W28814  23.080  23.810   4.059
57232W        W28815  18.808   9.287   2.427
57233W        W28816  23.949   8.621  10.381
57234W        W28817  20.529  42.021  14.428
57235W        W28818  25.140  32.611  14.878
57236W        W28819  17.081  22.123   2.643
57237W        W28820   7.637  14.551  13.014
57238W        W28821  12.566   3.441   3.316
57239W        W28822  13.620  15.009   0.253
57240W        W28823  12.102  11.926   2.372
57241W        W28824   5.488  43.821  11.607
57242W        W28825   9.798  24.877  13.998
57243W        W28826  20.668   6.568  10.721
57244W        W28827  35.584  12.991   3.787
57245W        W28828  26.741  35.799   3.815
57246W        W28829  40.462   1.842  14.004
57247W        W28830  35.071  13.309  10.743
57248W        W28831  43.360  17.299   3.302
57249W        W28832  16.630  20.737   1.217
57250W        W28833   6.836  13.800  12.508
57251W        W28834   3.663  35.116   0.721
57252W        W28835  14.656  35.028   2.374
57253W        W28836  12.736   2.818  13.877
57254W        W28837  31.357  32.780   2.790
57255W        W28838  19.154  36.500  13.876
57256W        W28839  13.268  21.061  12.048
57257W        W28840  31.688  23.596   1.178
57258W        W28841  32.229   4.764   0.795
57259W        W28842  43.941  18.185  13.393
57260W        W28843   0.330  36.024  13.884
57261W        W28844  19.797  22.494   3.552
57262W        W28845   7.875  19.336   1.853
57263W        W28846  13.643  18.427  12.154
57264W        W28847  32.140  22.077  10.789
57265W        W28848  14.166  18.215  11.051
57266W        W28849  29.094  33.177  10.811
57267W        W28850   5.524  21.288   3.666
57268W        W28851  18.244  11.186   0.741
57269W        W28852  13.112  40.492   3.599
57270W        W28853  25.726  12.880  10.316
57271W        W28854  29.881  39.089   1.285
57272W        W28855  41.498  11.143  14.772
57273W        W28856  33.093  12.637   3.171
57274W        W28857  26.052  29.460  12.947
57275W        W28858   9.876  24.513  12.145
57276W        W28859  34.506  28.019   4.720
57277W        W28860  42.835  42.998  12.152
57278W        W28861  36.906   9.668  11.482
57279W        W28862  10.414  42.579   0.738
57280W        W28863  15.240  10.390  11.094
57281W        W28864  30.984  19.507   5.600
57282W        W28865  39.167   9.645  13.045
57283W        W28866  26.663  31.678  13.747
57284W        W28867  30.688  21.695  14.213
57285W        W28868  16.685  25.708   0.674
57286W        W28869  36.132  27.692   4.728
57287W        W28870   0.353  17.585  11.530
57288W        W28871  41.460  16.464  13.349
57289W        W28872   3.403  26.858   2.225
57290W        W28873   0.795  19.990   0.664
57291W        W28874  39.957  26.418   3.621
57292W        W28875  18.255  17.138  13.102
57293W        W28876  31.614  29.675   4.212
57294W        W28877  39.480  23.959  14.921
57295W        W28878   4.810  41.628   2.361
57296W        W28879  23.446  11.720   3.079
57297W        W28880  13.659  33.127   4.619
57298W        W28881  19.399  42.614  12.339
57299W        W28882  43.937  34.161   0.212
57300W        W28883  29.927  24.220   1.509
57301W        W28884  11.264  42.243   1.173
57302W        W28885  39.920  34.090   3.636
57303W        W28886   8.846   9.881   3.582
57304W        W28887   4.711  43.824  10.280
57305W        W28888   1.438  14.008  14.035
57306W        W28889  17.738   5.104   4.615
57307W        W28890  13.327   5.302   0.327
57308W        W28891   5.249   7.693   3.276
57309W        W28892  20.343  34.909   2.653
57310W        W28893   5.302  34.774  12.962
57311W        W28894  40.574  25.417  13.307
57312W        W28895  16.250  22.350   0.022
57313W        W28896  24.762   9.792   0.230
57314W        W28897  21.536  21.163   0.405
57315W        W28898  32.041   9.652   3.698
57316W        W28899  27.772   6.406  11.324
57317W        W28900  39.259  23.868   2.791
57318W        W28901  11.790  19.282  14.698
57319W        W28902  22.122  43.637  14.009
57320W        W28903  34.448  36.711  12.023
57321W        W28904  31.433  16.006   0.910
57322W        W28905  38.095  24.065   3.639
57323W        W28906  16.740   1.299  11.959
57324W        W28907  10.540  25.002  12.329
57325W        W28908  42.909  34.920   2.385
57326W        W28909   3.000   2.850   3.234
57327W        W28910  29.149  27.452   4.456
57328W        W28911  20.172   1.836  13.288
57329W        W28912  24.146  29.628  12.574
57330W        W28913   3.937  43.124  11.254
57331W        W28914  41.276  13.734   3.767
57332W        W28915  18.220   0.382  11.098
57333W        W28916  33.021  43.301  13.388
57334W        W28917  32.987   8.121   3.160
57335W        W28918  16.068  44.370  10.957
57336W        W28919  26.884   9.383   1.835
57337W        W28920  34.319  29.838   4.106
57338W        W28921   5.349  43.278   1.956
57339W        W28922  36.360   6.837   0.835
57340W        W28923   5.326   1.609   0.822
57341W        W28924  23.484  12.069  12.663
57342W        W28925  13.204  12.966  11.885
57343W        W28926  40.417  17.388  11.557
57344W        W28927  19.508  17.563  14.018
57345W        W28928   8.077  37.436   5.054
57346W        W28929   1.700  33.036  12.483
57347W        W28930  31.783  14.754  14.899
57348W        W28931  39.332  30.313  11.144
57349W        W28932  26.241  37.073  10.736
57350W        W28933  18.688  20.065  14.354
57351W        W28934  36.112  38.999   1.174
57352W        W28935   5.923  31.755  11.072
57353W        W28936  15.700  32.151   1.418
57354W        W28937  10.772  17.371  14.875
57355W        W28938   8.123  37.410  11.554
57356W        W28939  13.274  42.813  12.966
57357W        W28940  37.904  29.716  11.473
57358W        W28941  33.298  25.540   1.375
57359W        W28942  15.218  36.457   3.839
57360W        W28943  23.989   9.966  12.654
57361W        W28944  33.792  21.253   0.399
57362W        W28945  11.060  36.105   3.425
57363W        W28946  15.362  23.496  14.814
57364W        W28947  28.504  18.401   1.686
57365W        W28948  17.700  22.885  14.912
57366W        W28949  43.746  12.273  10.902
57367W        W28950  18.618  24.365  12.973
57368W        W28951  22.999  33.305  14.927
57369W        W28952  32.423  38.464   2.743
57370W        W28953  41.883  23.610  11.408
57371W        W28954  24.199  42.528  13.483
57372W        W28955  35.108  39.457  12.644
57373W        W28956  14.773  24.283  13.584
57374W        W28957   1.161  38.532  14.476
57375W        W28958  32.999  42.712   4.542
57376W        W28959   5.878  25.143   0.016
57377W        W28960  34.902  12.104  11.088
57378W        W28961  18.379  20.347   4.700
57379W        W28962   7.993  36.969   1.284
57380W        W28963  32.994   0.385   1.252
57381W        W28964  25.424  35.799   4.084
57382W        W28965  36.626  20.212   4.209
57383W        W28966  34.169   9.803   3.353
57384W        W28967   7.296  27.636   1.280
57385W        W28968  44.325  43.028  11.962
57386W        W28969   5.384  16.881   0.163
57387W        W28970  21.185  19.786   0.733
57388W        W28971  40.213  40.874  12.489
57389W        W28972  26.278  21.652   1.350
57390W        W28973  32.300   3.632   3.719
57391W        W28974   0.737  41.501  11.580
57392W        W28975  31.932  22.261   5.001
57393W        W28976  20.540  44.522   3.215
57394W        W28977  23.212  19.730  10.547
57395W        W28978  32.484  13.765   3.921
57396W        W28979  25.604  12.033   5.280
57397W        W28980  41.773  26.098   4.206
57398W        W28981  24.369  17.231  13.555
57399W        W28982  26.239  37.388  13.554
57400W        W28983  10.325  30.470  14.825
57401W        W28984  12.616  30.149  14.274
57402W        W28985  16.739  24.957  11.559
57403W        W28986   2.947  29.416   0.515
57404W        W28987  33.966  44.271   1.672
57405W        W28988   9.164   5.624  14.761
57406W        W28989  35.876  18.257  13.324
57407W        W28990  15.311  10.464  11.610
57408W        W28991  34.309  32.547  13.492
57409W        W28992   3.807  37.615   0.001
57410W        W28993   5.887  12.222  12.871
57411W        W28994   2.890  11.384  11.781
57412W        W28995  23.475   6.232   2.712
57413W        W28996  14.805  20.989  13.184
57414W        W28997  12.155  33.944   4.082
57415W        W28998  40.695  25.131   3.221
57416W        W28999  44.670  33.459  10.361
57417W        W29000  43.279  44.136   2.720
57418W        W29001  39.071  37.898   0.942
57419W        W29002   2.148  16.630   4.252
57420W        W29003  20.499  17.318  14.891
57421W        W29004  17.182   8.265   2.575
57422W        W29005  34.350  44.363  13.921
57423W        W29006  36.275  37.084   3.626
57424W        W29007  11.525  39.799   4.950
57425W        W29008  42.798  33.723  13.880
57426W        W29009  14.227  19.062  10.680
57427W        W29010  15.952  36.289  13.023
57428W        W29011  39.104  31.947   2.329
57429W        W29012  14.060  44.640  13.129
57430W        W29013  32.545   6.117  12.488
57431W        W29014  29.739  25.239   2.234
57432W        W29015   5.948   3.485  13.088
57433W        W29016  32.227  12.052   4.403
57434W        W29017  34.986  10.479  14.270
57435W        W29018  35.915  24.103  13.069
57436W        W29019  22.272  27.188   4.369
57437W        W29020  26.045  37.828   4.684
57438W        W29021  23.614  33.437   1.365
57439W        W29022  30.176  30.048  13.258
57440W        W29023  44.148   3.800   1.732
57441W        W29024  11.790   0.048   4.459
57442W        W29025  18.661  18.074  12.983
57443W        W29026   2.266  36.993  12.919
57444W        W29027  27.405  33.160   3.796
57445W        W29028   1.929   3.378  14.810
57446W        W29029  24.557  14.013  14.738
57447W        W29030  29.677  18.761  10.809
57448W        W29031  34.935  43.551   0.511
57449W        W29032  18.384  21.506   4.946
57450W        W29033  22.213  12.149  11.562
57451W        W29034  30.072   9.827  13.534
57452W        W29035  25.674   6.356   2.120
57453W        W29036  18.728   2.208  13.242
57454W        W29037  33.699   6.507   9.675
57455W        W29038  40.460  28.587  11.076
57456W        W29039   2.505  39.386  11.657
57457W        W29040  34.620  34.435   1.790
57458W        W29041  37.280  33.030   2.249
57459W        W29042  30.482   0.532   0.077
57460W        W29043  20.183   7.449  13.904
57461W        W29044  38.423  24.488   2.063
57462W        W29045  11.777  28.044  11.578
57463W        W29046  42.942   1.022   3.154
57464W        W29047  38.905   5.299   2.842
57465W        W29048   0.695   8.686  11.673
57466W        W29049   9.814  44.677  12.938
57467W        W29050  24.892  24.118   1.950
57468W        W29051  16.959  22.117   4.661
57469W        W29052  24.717  25.589  14.056
57470W        W29053  16.623   7.700   0.947
57471W        W29054  19.655  18.179   2.243
57472W        W29055  19.167  22.669   0.389
57473W        W29056  26.568  16.716  14.543
57474W        W29057  15.176  44.185   1.022
57475W        W29058   1.455   8.118   1.323
57476W        W29059  19.689  13.128   4.119
57477W        W29060  16.281   7.169   3.712
57478W        W29061  36.018  11.852   0.445
57479W        W29062  44.906  44.252   0.533
57480W        W29063  24.102  27.567   1.130
57481W        W29064  18.203  43.568   0.454
57482W        W29065  17.841  39.426  11.971
57483W        W29066   3.080  11.895  13.370
57484W        W29067  42.239  21.107   3.870
57485W        W29068  44.949  10.836   0.645
57486W        W29069  39.909  38.108   4.442
57487W        W29070  44.492   0.733   4.105
57488W        W29071  14.715  42.733   1.880
57489W        W29072   3.641   4.140   0.565
57490W        W29073  12.688  40.576   4.232
57491W        W29074   2.935  23.656   0.406
57492W        W29075  23.119  13.701   1.231
57493W        W29076  21.726  16.263  13.570
57494W        W29077  43.009  41.081   0.288
57495W        W29078   4.166  44.148  11.057
57496W        W29079  40.318  38.948   1.856
57497W        W29080  10.821   8.635  13.412
57498W        W29081  37.916  14.626   2.712
57499W        W29082  14.213  30.459   2.561
57500W        W29083  21.076  19.147  13.532
57501W        W29084  17.758  24.242   2.328
57502W        W29085  33.257   7.403   2.891
57503W        W29086  36.874  19.051   3.644
57504W        W29087  10.356  17.154   0.141
57505W        W29088  18.041  22.371   0.169
57506W        W29089  21.636  38.888  11.965
57507W        W29090   9.898  39.056   3.677
57508W        W29091   7.454  18.622  11.474
57509W        W29092  17.700   9.120  11.559
57510W        W29093   4.289   5.361   3.676
57511W        W29094  35.572  43.214   1.733
57512W        W29095  36.900  33.879  12.014
57513W        W29096  37.559   4.415  13.772
57514W        W29097  34.061  29.538  13.098
57515W        W29098  19.244  25.304  13.636
57516W        W29099  36.791   6.099   2.314
57517W        W29100  27.068   9.709   1.060
57518W        W29101  38.126  16.002  13.351
57519W        W29102   7.399  40.779  12.149
57520W        W29103  13.302  11.839   2.326
57521W        W29104  15.139   9.842   2.835
57522W        W29105  37.406  20.182  13.505
57523W        W29106  39.920  31.033  12.747
57524W        W29107   5.170   1.767   3.247
57525W        W29108  16.047  24.658   2.816
57526W        W29109   3.745  16.961   0.937
57527W        W29110   5.415  30.545  14.740
57528W        W29111  18.096  10.247   3.159
57529W        W29112  38.648  11.279  14.700
57530W        W29113  11.738  37.261  12.534
57531W        W29114  26.456   5.640  10.579
57532W        W29115  20.766  13.665  13.438
57533W        W29116  14.659  24.257   4.175
57534W        W29117   9.103  14.115  11.043
57535W        W29118   7.739  20.671  12.943
57536W        W29119   1.004  10.641   1.903
57537W        W29120  21.735  37.986   2.189
57538W        W29121  41.922  35.809   2.536
57539W        W29122  36.951  44.843  10.682
57540W        W29123  32.087   4.912   2.338
57541W        W29124  31.067  18.651  11.931
57542W        W29125  33.925  30.939   4.649
57543W        W29126  30.629  33.736   0.416
57544W        W29127  31.425  39.119  11.984
57545W        W29128  42.831   4.382   2.606
57546W        W29129  22.240  36.256   1.295
57547W        W29130  20.050   9.037   0.484
57548W        W29131   2.453  13.676   1.955
57549W        W29132   0.013  18.552   0.806
57550W        W29133  13.298  27.018   1.371
57551W        W29134  32.480  28.459  14.986
57552W        W29135  20.189  16.073   2.872
57553W        W29136  16.567  43.821  14.976
57554W        W29137  39.458  37.132   0.693
57555W        W29138  19.183   8.584  11.991
57556W        W29139  44.029  23.460  14.974
57557W        W29140  39.256  28.851  12.439
57558W        W29141  33.602  10.914   3.296
57559W        W29142  25.733  19.763  12.846
57560W        W29143  34.461  16.709  12.102
57561W        W29144  21.638  37.416   0.984
57562W        W29145  33.328  24.217  12.013
57563W        W29146  11.829  33.735  12.615
57564W        W29147   5.120  16.591   0.524
57565W        W29148   2.945  39.028   2.806
57566W        W29149  33.385  36.911  11.636
57567W        W29150  40.524  22.514  10.738
57568W        W29151  27.616  38.537   1.292
57569W        W29152  28.952   0.764  12.618
57570W        W29153  36.383  21.965   0.946
57571W        W29154  25.258  28.510   0.429
57572W        W29155  27.999   5.386  12.473
57573W        W29156   4.632  23.194  12.893
57574W        W29157   9.130  33.858   1.444
57575W        W29158  37.319  34.098   1.169
57576W        W29159  17.298   3.580   1.326
57577W        W29160  30.571  12.984  14.589
57578W        W29161   7.308  28.336   4.028
57579W        W29162   7.345  32.475   0.011
57580W        W29163   5.251  26.616  14.884
57581W        W29164  26.574  42.571  10.889
57582W        W29165  25.931  36.032  14.782
57583W        W29166   2.827  33.044   2.912
57584W        W29167  26.121  11.141   1.388
57585W        W29168  33.012  43.740   3.397
57586W        W29169  39.462  18.330  11.793
57587W        W29170  36.116  35.110  13.859
57588W        W29171  22.963  27.644   2.780
57589W        W29172  39.772  17.152   0.175
57590W        W29173  13.380  28.415   1.191
57591W        W29174  22.137  31.941  10.353
57592W        W29175  28.676  38.555  13.301
57593W        W29176  12.117  33.006  10.622
57594W        W29177  11.189   6.170   2.260
57595W        W29178  22.831  12.435   0.942
57596W        W29179  35.044  22.102   2.887
57597W        W29180  11.304  24.177   3.265
57598W        W29181  41.514   6.318  10.439
57599W        W29182  17.103  44.717  14.304
57600W        W29183  33.715  16.347   3.329
57601W        W29184  41.485  39.409   4.182
57602W        W29185  27.147  44.235  10.534
57603W        W29186  38.802  15.235  11.631
57604W        W29187   4.809  15.679   2.032
57605W        W29188   6.577   4.265   2.646
57606W        W29189  13.700  27.535   1.863
57607W        W29190  35.964  16.646  10.914
57608W        W29191   4.139  26.724   3.695
57609W        W29192  36.839  17.612  11.098
57610W        W29193  35.458  30.582  13.801
57611W        W29194  17.827  27.910   3.805
57612W        W29195  22.525  43.481  10.764
57613W        W29196  42.817  30.600  14.872
57614W        W29197  28.784  11.825   2.732
57615W        W29198  22.824  27.688   4.897
57616W        W29199  39.940  39.339   4.644
57617W        W29200  30.096  25.663   0.548
57618W        W29201   9.623  39.871   1.486
57619W        W29202   3.234  33.122   1.682
57620W        W29203   8.273   8.281  13.590
57621W        W29204  13.027  19.616   0.850
57622W        W29205  32.431  16.625   4.642
57623W        W29206  23.827   8.693  11.934
57624W        W29207  23.685  39.592  11.563
57625W        W29208   1.195  18.574   2.641
57626W        W29209  32.972  39.786  12.537
57627W        W29210   1.827  21.706   0.944
57628W        W29211   6.879   0.238   2.930
57629W        W29212  32.263  40.627   1.235
57630W        W29213  10.246  34.610   0.942
57631W        W29214  17.145  24.536   0.286
57632W        W29215  13.832  20.693   2.355
57633W        W29216  35.297  35.534  11.253
57634W        W29217  40.794   8.507   0.025
57635W        W29218  13.268   0.186  10.751
57636W        W29219  15.241   8.881  10.454
57637W        W29220   5.952  15.784  12.991
57638W        W29221   9.809   3.135  11.126
57639W        W29222  18.014  34.354  10.967
57640W        W29223  20.666  26.266  14.890
57641W        W29224  43.974   2.794   4.624
57642W        W29225  35.815  10.730   1.442
57643W        W29226  19.598  19.884   2.625
57644W        W29227  33.142  36.412  14.967
57645W        W29228  27.479   6.473  10.929
57646W        W29229  31.730  25.127   3.200
57647W        W29230  35.694  14.626   1.258
57648W        W29231  37.312   9.451  12.814
57649W        W29232  41.791  36.424  13.892
57650W        W29233   2.030  26.680  12.870
57651W        W29234  16.260  16.043   2.304
57652W        W29235   4.933  42.089  14.036
57653W        W29236  35.036   7.419  13.289
57654W        W29237   2.363  16.023   1.521
57655W        W29238  33.200   2.835  12.082
57656W        W29239  39.228  34.415  12.087
57657W        W29240  41.710  44.269   4.112
57658W        W29241  35.552  40.297   1.639
57659W        W29242   7.980  13.849  11.513
57660W        W29243   0.978   6.804  13.457
57661W        W29244  30.826  42.111   1.336
57662W        W29245  41.786   7.744   2.881
57663W        W29246   5.438  28.402  14.555
57664W        W29247   3.269  17.552   3.841
57665W        W29248   3.405   4.938  12.153
57666W        W29249   8.136  24.556   1.287
57667W        W29250  18.917  32.299  11.036
57668W        W29251  18.299  31.047  14.440
57669W        W29252  23.733  28.149  14.428
57670W        W29253  28.012  39.779   4.268
57671W        W29254  13.135  43.932  10.356
57672W        W29255  17.192  28.672  14.148
57673W        W29256  18.253  10.122  14.475
57674W        W29257  19.771  43.079  10.979
57675W        W29258  40.777  21.643   1.301
57676W        W29259  40.138  17.784   3.771
57677W        W29260   4.981  28.514  13.834
57678W        W29261  25.173   9.346  10.957
57679W        W29262   9.153  29.153   4.441
57680W        W29263  18.184  35.308   4.462
57681W        W29264   5.683  24.164   3.256
57682W        W29265  39.765  16.850   3.611
57683W        W29266  24.309  15.027   2.282
57684W        W29267   1.056  32.977  11.047
57685W        W29268  29.656  35.303  10.682
57686W        W29269  17.192  15.003  14.007
57687W        W29270  16.478  34.064   0.182
57688W        W29271  24.079  15.818  11.448
57689W        W29272  37.912  25.239  14.594
57690W        W29273   4.737  43.029  13.036
57691W        W29274  20.779   8.252  14.508
57692W        W29275  14.849  35.529   3.310
57693W        W29276   5.681   5.568  11.068
57694W        W29277   7.355  39.576   1.954
57695W        W29278  12.811  11.054  12.610
57696W        W29279   2.887  19.035   4.577
57697W        W29280  35.535  26.530  10.764
57698W        W29281  16.165  23.706   1.639
57699W        W29282   0.263  16.837   4.249
57700W        W29283   8.752  25.897  12.035
57701W        W29284   6.953  39.377  10.654
57702W        W29285  16.046   5.729  12.989
57703W        W29286   3.380  15.995   0.029
57704W        W29287  42.728  20.336   4.234
57705W        W29288   3.254  29.747  14.407
57706W        W29289  10.050   9.238  14.762
57707W        W29290  11.649   6.358   2.283
57708W        W29291   7.770  18.336   1.662
57709W        W29292  15.788  39.868  11.627
57710W        W29293  31.024  29.738   0.784
57711W        W29294  11.209  30.550  13.174
57712W        W29295  40.628   6.090  12.419
57713W        W29296   9.207  11.216  11.708
57714W        W29297  36.870  39.913   4.954
57715W        W29298  18.123  36.292  12.885
57716W        W29299   2.858   1.415   2.868
57717W        W29300   9.618  28.276  10.728
57718W        W29301  43.383  42.299  12.457
57719W        W29302  42.787  35.986  12.441
57720W        W29303  32.357  41.784   2.457
57721W        W29304  40.384  39.774  11.066
57722W        W29305  15.360  21.520   4.041
57723W        W29306   2.993   1.444  12.622
57724W        W29307   0.320  35.112   3.270
57725W        W29308  37.791  17.128   0.567
57726W        W29309  31.080  21.100  12.551
57727W        W29310  27.080  16.245   0.278
57728W        W29311  25.081  23.425   4.094
57729W        W29312  16.143  24.689   1.900
57730W        W29313  44.860  36.223   3.755
57731W        W29314  11.665  43.413  14.810
57732W        W29315  17.163  28.491   1.181
57733W        W29316   2.719   5.463  11.495
57734W        W29317  42.367  30.284   1.252
57735W        W29318  29.682  28.909  11.958
57736W        W29319  19.769  37.513  11.176
57737W        W29320   6.855  18.504  12.047
57738W        W29321  36.596  41.707   3.659
57739W        W29322   5.960  11.080   1.066
57740W        W29323   3.605  13.662   2.779
57741W        W29324  14.410   3.998  10.695
57742W        W29325  29.037  21.543   1.454
57743W        W29326  22.951  38.421   4.414
57744W        W29327   1.293  26.473  10.485
57745W        W29328  39.443  13.383  11.218
57746W        W29329  17.418  35.820  13.394
57747W        W29330  39.942  41.626  11.211
57748W        W29331   7.769  34.176   3.935
57749W        W29332  41.667  31.915   3.664
57750W        W29333  38.968   0.718   5.025
57751W        W29334  22.606  14.141   4.579
57752W        W29335  17.551  28.952   1.229
57753W        W29336   4.959  32.626  14.520
57754W        W29337  17.076  10.802  14.957
57755W        W29338  37.580   1.814   3.831
57756W        W29339  40.819   7.683   5.132
57757W        W29340  43.451  11.837   2.725
57758W        W29341   9.819  16.707  14.139
57759W        W29342  13.011  29.890  11.660
57760W        W29343  16.912  20.329   3.729
57761W        W29344   7.664  31.510  10.727
57762W        W29345  40.716  24.610   2.093
57763W        W29346  17.818  17.628   0.316
57764W        W29347  11.885  25.068  13.603
57765W        W29348  13.648  25.210   2.832
57766W        W29349  22.287   6.563  13.542
57767W        W29350  27.500  28.688  14.805
57768W        W29351  24.520   3.008  12.989
57769W        W29352  31.030  20.943   2.213
57770W        W29353  31.857  38.113   2.799
57771W        W29354  27.253   6.320  12.191
57772W        W29355  23.873  20.104  11.187
57773W        W29356   4.396  15.340  12.203
57774W        W29357  22.299  24.173  14.516
57775W        W29358  44.508  30.465   1.840
57776W        W29359  39.901  38.051  14.861
57777W        W29360  26.292  11.347   2.734
57778W        W29361  22.098  17.276   0.971
57779W        W29362   9.780   2.376   4.948
57780W        W29363  16.173   0.571   2.274
57781W        W29364   7.281  40.331   4.726
57782W        W29365  40.300  13.211   3.031
57783W        W29366  13.590  11.569  13.029
57784W        W29367  20.309  33.556  10.879
57785W        W29368  43.608  12.718   5.008
57786W        W29369  12.764  14.672  14.207
57787W        W29370   0.900  12.215   3.422
57788W        W29371  32.989  26.253   1.894
57789W        W29372  31.256   3.210   4.998
57790W        W29373  17.941  44.521   0.862
57791W        W29374  10.624  32.801   3.716
57792W        W29375   9.919  35.075  13.957
57793W        W29376  19.682  15.802   0.660
57794W        W29377  14.656  36.209  12.896
57795W        W29378  16.823  43.216   4.682
57796W        W29379  31.532  37.243   0.407
57797W        W29380  44.354   9.858  12.463
57798W        W29381   6.104   4.739  13.885
57799W        W29382  37.092  41.818   3.772
57800W        W29383   8.682   9.757   2.158
57801W        W29384   2.210  18.118  11.985
57802W        W29385   3.915  16.021  11.936
57803W        W29386   6.329  19.076  12.487
57804W        W29387  42.475  19.263   4.373
57805W        W29388   9.888  22.811  11.501
57806W        W29389   5.319  31.950  14.943
57807W        W29390  20.967   2.355  11.981
57808W        W29391  21.510  32.671  12.977
57809W        W29392  18.890  44.801   4.588
57810W        W29393  18.802   0.876  13.126
57811W        W29394  13.251  19.281   3.729
57812W        W29395  29.018  15.193   3.676
57813W        W29396  27.603  36.485   3.054
57814W        W29397  26.545  44.353   3.864
57815W        W29398  13.343   4.020   1.380
57816W        W29399  25.338  12.805   0.911
57817W        W29400  35.411  39.822   0.279
57818W        W29401  17.814  38.806   0.313
57819W        W29402   2.970  10.118   1.001
57820W        W29403   0.916  15.859   2.844
57821W        W29404   7.159   3.619   3.842
57822W        W29405  25.556  19.356   4.427
57823W        W29406  12.072  43.278   2.774
57824W        W29407  42.916  20.760  14.791
57825W        W29408  28.363   3.010   0.958
57826W        W29409  41.372  21.057  12.130
57827W        W29410  43.165   2.846   1.574
57828W        W29411   8.113  18.068   2.769
57829W        W29412  16.871  14.473   0.321
57830W        W29413  15.571  38.819  13.867
57831W        W29414  16.287  38.009  13.160
57832W        W29415  14.577  12.262  12.125
57833W        W29416  18.821  29.161   3.807
57834W        W29417  32.125  38.662  11.630
57835W        W29418  34.652  23.888   3.900
57836W        W29419  24.095   7.793   4.055
57837W        W29420  21.113  21.237   2.802
57838W        W29421  22.806  12.003  12.074
57839W        W29422   2.402  32.622  13.044
57840W        W29423   2.191  22.119  11.683
57841W        W29424  12.340  22.698   1.726
57842W        W29425  23.783  19.113   0.832
57843W        W29426  41.696  43.945  12.042
57844W        W29427   9.230  27.629   4.892
57845W        W29428  31.630  40.031   4.228
57846W        W29429  42.362  38.351  11.984
57847W        W29430  33.524  35.354  13.613
57848W        W29431   2.664   1.417  14.448
57849W        W29432  39.893  41.121  13.336
57850W        W29433  43.176  31.532  12.166
57851W        W29434  21.133  17.562   1.158
57852W        W29435   6.466  34.443   1.299
57853W        W29436  14.220  43.397   0.914
57854W        W29437  38.536  38.870  13.068
57855W        W29438  32.363  22.277   1.949
57856W        W29439  37.047  10.544  12.781
57857W        W29440  26.426  16.145  12.817
57858W        W29441  31.322   8.710   0.440
57859W        W29442  37.625  24.501   2.789
57860W        W29443  22.471  43.761   0.607
57861W        W29444  31.498  43.353  10.679
57862W        W29445  24.919  39.999  11.890
57863W        W29446  35.987  35.981  14.795
57864W        W29447   1.978  12.770   3.745
57865W        W29448  20.263  26.411  14.465
57866W        W29449  19.698  16.142  11.614
57867W        W29450  29.049  42.544  12.444
57868W        W29451  36.515  24.906   4.106
57869W        W29452   9.236  39.692  14.202
57870W        W29453   4.405  17.673  11.531
57871W        W29454  31.711  33.356  11.968
57872W        W29455  15.144  22.075  12.888
57873W        W29456   8.844  17.166   0.542
57874W        W29457   4.584  26.047   4.983
57875W        W29458  22.041   0.784   4.872
57876W        W29459  33.493  18.959   4.296
57877W        W29460  18.244   1.285   4.660
57878W        W29461  34.100  13.417  14.239
57879W        W29462  28.628   6.665   2.339
57880W        W29463   9.635  24.464   0.350
57881W        W29464  36.192  43.149   1.151
57882W        W29465   1.812  13.404  11.871
57883W        W29466   3.250  12.100   1.732
57884W        W29467  17.298   9.708  10.674
57885W        W29468  15.265  15.767   1.798
57886W        W29469  24.617  24.263  14.115
57887W        W29470  35.164  44.029   5.061
57888W        W29471  33.873  35.457   2.489
57889W        W29472   6.148  13.344  14.582
57890W        W29473  39.768  19.239  13.972
57891W        W29474  42.732  15.168   3.122
57892W        W29475  26.222  43.017  14.495
57893W        W29476   4.203  27.066  10.723
57894W        W29477   3.006  10.191   2.359
57895W        W29478  34.640  21.187   4.159
57896W        W29479  41.640   6.808   0.635
57897W        W29480  41.128  43.758  13.125
57898W        W29481  30.594   2.097   5.043
57899W        W29482  21.742   6.942   2.088
57900W        W29483  33.440  25.921  13.145
57901W        W29484  43.108  37.835  13.370
57902W        W29485  28.881  30.673  11.517
57903W        W29486  24.303  37.057   1.766
57904W        W29487  26.964  41.709  11.547
57905W        W29488  34.540   8.746   2.265
57906W        W29489  13.685  27.919   2.300
57907W        W29490  41.417   1.699  14.082
57908W        W29491  16.766  25.943   0.218
57909W        W29492  40.026  44.491   3.223
57910W        W29493  22.183  41.879  13.857
57911W        W29494  44.127  10.967   0.260
57912W        W29495   4.424   8.877   0.708
57913W        W29496   5.179  20.410  11.819
57914W        W29497   0.885  13.183  10.964
57915W        W29498  29.456  31.804   1.748
57916W        W29499  29.273   4.676  12.370
57917W        W29500  32.754  22.101   4.639
57918W        W29501  37.884  12.587   0.381
57919W        W29502  37.065  17.570  13.468
57920W        W29503  43.477  17.262   2.260
57921W        W29504  30.381  32.539  11.480
57922W        W29505  15.686  37.266  13.030
57923W        W29506   8.918  25.716   1.000
57924W        W29507  23.543   3.408  11.688
57925W        W29508  25.173  16.903   2.394
57926W        W29509  23.347  30.112  13.968
57927W        W29510  32.186  43.811  13.892
57928W        W29511  16.041  43.871   1.261
57929W        W29512   7.656  20.034   1.159
57930W        W29513  35.941   6.271  14.459
57931W        W29514   1.333  37.787   0.565
57932W        W29515  36.887   4.235   0.414
57933W        W29516  17.157  26.560  12.096
57934W        W29517  12.688   4.167  12.570
57935W        W29518  28.403  39.448  12.034
57936W        W29519  41.989   8.523   0.896
57937W        W29520   1.357   7.604  11.214
57938W        W29521  15.155  35.917   0.070
57939W        W29522  28.524  42.373  13.866
57940W        W29523  39.690  35.126   4.450
57941W        W29524  11.747  13.862   4.335
57942W        W29525   3.256   5.483   0.408
57943W        W29526  23.679  42.569  11.558
57944W        W29527  12.815  33.877  11.942
57945W        W29528  22.666  35.642  10.610
57946W        W29529   7.751  19.029   2.935
57947W        W29530  19.736   9.815  11.205
57948W        W29531   5.295  44.954   1.389
57949W        W29532  40.674   6.432  12.034
57950W        W29533  30.140   9.006   3.344
57951W        W29534   8.500   6.796  14.571
57952W        W29535  36.562  15.357   4.504
57953W        W29536  38.564  24.750   1.201
57954W        W29537   6.768  38.371   3.280
57955W        W29538  17.372  42.420  13.546
57956W        W29539  10.808  41.466  13.257
57957W        W29540  35.467   3.697   4.093
57958W        W29541  10.415  13.680  10.500
57959W        W29542  13.172  32.074   3.745
57960W        W29543  26.744  19.017   1.005
57961W        W29544  42.884  14.372  10.679
57962W        W29545   1.811  23.577   1.204
57963W        W29546  15.225  39.922   2.348
57964W        W29547  33.074  34.942   1.538
57965W        W29548   1.461   3.533   0.770
57966W        W29549   1.798   5.357   2.355
57967W        W29550  41.180  38.368   4.974
57968W        W29551  35.248  24.681   2.748
57969W        W29552  33.404  25.337  14.396
57970W        W29553  16.054  36.327   0.368
57971W        W29554  25.719  13.012   9.795
57972W        W29555  26.121  12.784   4.101
57973W        W29556  38.752  19.553  12.032
57974W        W29557  33.039   0.998  10.349
57975W        W29558  18.992  38.519   0.181
57976W        W29559  38.574   5.239   4.684
57977W        W29560  13.311  44.836  11.129
57978W        W29561   9.210  41.421   3.565
57979W        W29562   0.743   3.189   0.319
57980W        W29563  24.224  30.548   3.287
57981W        W29564  31.506   6.025  10.618
57982W        W29565  22.019  26.330   2.814
57983W        W29566  31.082   9.728   0.329
57984W        W29567  14.885   4.933   3.621
57985W        W29568  27.307  35.798  14.097
57986W        W29569  16.579  16.723  14.895
57987W        W29570  40.053  26.886  12.515
57988W        W29571  14.716  34.888   4.199
57989W        W29572  35.925  13.387  14.330
57990W        W29573  38.075   1.971  11.898
57991W        W29574  23.256   3.979   4.297
57992W        W29575   1.708  39.632   4.558
57993W        W29576  31.628  39.868   2.292
57994W        W29577  39.376  44.934   2.287
57995W        W29578  20.497  38.417   0.325
57996W        W29579   2.919  40.285   4.338
57997W        W29580  32.191  27.023  10.711
57998W        W29581   3.463  39.051  14.231
57999W        W29582   5.246  18.733   4.579
58000W        W29583  44.400  12.285   1.513
58001W        W29584  38.401  37.999   1.759
58002W        W29585  40.234   9.704   0.896
58003W        W29586  22.299  28.124   0.784
58004W        W29587  31.438   2.385  14.012
58005W        W29588  20.036  36.535  12.470
58006W        W29589   8.881  42.129   3.201
58007W        W29590   2.544   5.283   3.182
58008W        W29591  36.261  22.092  11.259
58009W        W29592  36.538  34.793   0.786
58010W        W29593  15.553  15.459  14.481
58011W        W29594  20.290  32.648   3.893
58012W        W29595  32.296  30.059  14.025
58013W        W29596  36.071   6.927   0.417
58014W        W29597  28.430  30.070   4.098
58015W        W29598  20.233   2.948   3.707
58016W        W29599  24.137  28.433   3.770
58017W        W29600   6.631  27.291   4.233
58018W        W29601   5.337   9.116   3.179
58019W        W29602  26.575   9.171  10.657
58020W        W29603  36.284  31.540  13.103
58021W        W29604  10.131  17.562   4.940
58022W        W29605   5.434  36.499  14.733
58023W        W29606  22.632  11.057  12.823
58024W        W29607  31.916  37.329   4.126
58025W        W29608   9.770  21.559  14.844
58026W        W29609  21.735  40.628  13.478
58027W        W29610  31.770  10.226   2.333
58028W        W29611  13.172  26.579  14.888
58029W        W29612  13.583  17.046  11.130
58030W        W29613  11.985  30.716   0.206
58031W        W29614  21.557  10.378  11.607
58032W        W29615  24.250  12.839  10.520
58033W        W29616  13.118   5.247   3.935
58034W        W29617  23.421   1.547   1.757
58035W        W29618   9.256  36.364  12.805
58036W        W29619  31.126  44.233  14.417
58037W        W29620  31.590  14.337   3.756
58038W        W29621  36.007   0.449   0.296
58039W        W29622   1.407   5.001   1.736
58040W        W29623   9.955  13.647   3.778
58041W        W29624  44.987  36.878  11.716
58042W        W29625  30.501  27.387  11.543
58043W        W29626   7.836  30.979   1.628
58044W        W29627  39.273  28.083  12.062
58045W        W29628  27.451  31.868   4.685
58046W        W29629   1.865  35.048  14.008
58047W        W29630  36.787  22.796   2.755
58048W        W29631  23.790  21.810   2.651
58049W        W29632  30.260   5.843  13.615
58050W        W29633  16.638  42.294   1.455
58051W        W29634  17.959  20.888  11.558
58052W        W29635  30.538   7.103  12.670
58053W        W29636  37.357  37.570   2.681
58054W        W29637  43.608  17.764  13.346
58055W        W29638  32.001  39.590   0.311
58056W        W29639   7.395  38.492  13.941
58057W        W29640  11.600  42.716   4.103
58058W        W29641  41.401  19.827   3.459
58059W        W29642  42.437  25.854  10.898
58060W        W29643  20.096  35.155   2.278
58061W        W29644  35.866  36.880  13.441
58062W        W29645   6.963  13.667   1.829
58063W        W29646  39.557  14.233   0.509
58064W        W29647  17.346  17.243  10.439
58065W        W29648  27.425   9.395  14.567
58066W        W29649  37.033   3.192   1.710
58067W        W29650  20.728  32.781   0.581
58068W        W29651  22.611  38.016   3.162
58069W        W29652  44.410   1.993   2.807
58070W        W29653  11.185   6.584   0.240
58071W        W29654  15.798  11.239   0.051
58072W        W29655   7.787  15.285  13.487
58073W        W29656  34.891   1.511   4.623
58074W        W29657  30.007  26.438  13.112
58075W        W29658  38.526  26.440   1.745
58076W        W29659  16.488  26.395   0.202
58077W        W29660  31.634  30.283  10.509
58078W        W29661  30.220   7.462  12.798
58079W        W29662  17.233  16.050  11.159
58080W        W29663   7.816  11.566  14.762
58081W        W29664  25.348   9.769   4.495
58082W        W29665   5.479  30.093   4.485
58083W        W29666  32.417  10.832  13.258
58084W        W29667  30.949  15.552  11.236
58085W        W29668  24.993  30.927   0.009
58086W        W29669  21.225   4.979   1.903
58087W        W29670  10.894   4.305   2.789
58088W        W29671  22.044  29.384   1.818
58089W        W29672   3.221  11.822  14.720
58090W        W29673  14.854   8.962   3.262
58091W        W29674   3.833  37.329   1.087
58092W        W29675  21.468  22.086  14.790
58093W        W29676  16.035  30.645  13.351
58094W        W29677  35.694  31.010   3.332
58095W        W29678  24.971  22.236   0.565
58096W        W29679  11.297  34.581  13.564
58097W        W29680  11.334  36.009  10.539
58098W        W29681  26.987  21.970  12.531
58099W        W29682  12.104  13.596  14.308
58100W        W29683  29.062  34.193   1.785
58101W        W29684  44.534  40.149  11.442
58102W        W29685  41.903   0.564   3.105
58103W        W29686  39.007   1.084  14.510
58104W        W29687  25.074   2.004   0.322
58105W        W29688  31.119  21.522  14.008
58106W        W29689  19.780  27.978  12.865
58107W        W29690  17.338   5.808  13.896
58108W        W29691   5.605  40.740   4.563
58109W        W29692  36.505  30.941  14.738
58110W        W29693  13.061  33.956  13.908
58111W        W29694  22.807  33.470   3.628
58112W        W29695  24.155  44.397   5.194
58113W        W29696  43.079  30.390   2.544
58114W        W29697  26.771  11.266   2.329
58115W        W29698   9.089   0.533   1.531
58116W        W29699  22.844   9.221   5.147
58117W        W29700  38.985   9.227   9.775
58118W        W29701  26.040  15.675  12.603
58119W        W29702  26.820   3.826   5.080
58120W        W29703  41.575  10.492   1.911
58121W        W29704   8.358  22.686   2.949
58122W        W29705  33.162  19.207  13.972
58123W        W29706  29.603  25.754  11.883
58124W        W29707  31.990  43.209   3.362
58125W        W29708  32.091   6.697  13.058
58126W        W29709  13.487  14.153  13.264
58127W        W29710  15.771  12.342  12.932
58128W        W29711  32.445  43.883   3.714
58129W        W29712  38.378   6.390  12.561
58130W        W29713  40.320  14.659   1.106
58131W        W29714  24.713  15.707   3.221
58132W        W29715  24.256  43.833   1.304
58133W        W29716  44.049  35.003  13.692
58134W        W29717  29.436  31.064   2.653
58135W        W29718  21.866  16.723   4.573
58136W        W29719  10.712  13.781   2.440
58137W        W29720  29.922  26.141  10.610
58138W        W29721   3.319   1.800  11.315
58139W        W29722   3.122  24.762  12.907
58140W        W29723   1.020  27.899   0.432
58141W        W29724  39.626  29.403  13.928
58142W        W29725   8.693   0.307   3.172
58143W        W29726   9.761  37.569   4.079
58144W        W29727  10.569   7.585   9.913
58145W        W29728   1.957   4.138   2.894
58146W        W29729  34.026  44.447   2.651
58147W        W29730  22.666  20.290  13.928
58148W        W29731  30.070  23.035   1.785
58149W        W29732  17.288  37.902  14.069
58150W        W29733  16.363  25.667   0.097
58151W        W29734   8.911  31.972  11.973
58152W        W29735  24.346  43.526   3.579
58153W        W29736  20.740  24.557   4.365
58154W        W29737   2.942  41.246  14.477
58155W        W29738  22.002  22.029   4.556
58156W        W29739  13.751  31.568  13.019
58157W        W29740  16.581   6.679   0.910
58158W        W29741  25.135  28.375   4.137
58159W        W29742   3.913  11.440  11.571
58160W        W29743  38.900  22.034  11.673
58161W        W29744   0.705  10.774   4.432
58162W        W29745   4.000  39.920   3.131
58163W        W29746   6.722   9.717  13.299
58164W        W29747  23.968  19.199  11.185
58165W        W29748  35.919  31.537   3.686
58166W        W29749   0.679  11.690   4.999
58167W        W29750  41.237  20.505   2.806
58168W        W29751  28.202  41.509  10.433
58169W        W29752  34.077  11.468   3.757
58170W        W29753  39.524  33.542   3.363
58171W        W29754  42.555  23.197   4.836
58172W        W29755  40.479  44.590  14.506
58173W        W29756   3.223  19.556  13.478
58174W        W29757  35.633   2.236  14.352
58175W        W29758  22.974  12.059  13.766
58176W        W29759  40.793   9.326   0.342
58177W        W29760  41.517  24.111  12.905
58178W        W29761  43.961  17.282   3.006
58179W        W29762  28.641  28.044   0.552
58180W        W29763  31.680  26.581  10.986
58181W        W29764   7.638   1.885  11.230
58182W        W29765   1.788  15.399   0.159
58183W        W29766  19.052  23.572   0.908
58184W        W29767   8.327   1.279  12.892
58185W        W29768  12.878  13.638  11.391
58186W        W29769  16.658  27.126   2.905
58187W        W29770  12.236   9.576   2.836
58188W        W29771  44.775   4.382   4.500
58189W        W29772  24.217  27.860   0.104
58190W        W29773  38.933  19.550   4.618
58191W        W29774  26.368  27.143   2.909
58192W        W29775  34.115  17.598   3.604
58193W        W29776  22.491  22.168  14.993
58194W        W29777  12.610  37.798  13.575
58195W        W29778  22.711   8.125  14.391
58196W        W29779   5.741  44.329   1.316
58197W        W29780  12.753  17.142  13.651
58198W        W29781  11.837   0.915  14.183
58199W        W29782  31.901   0.428   0.938
58200W        W29783  27.013  13.118  12.374
58201W        W29784   8.972  30.519   2.567
58202W        W29785   3.489  43.233   3.559
58203W        W29786  17.361  17.082   4.159
58204W        W29787  10.681  38.857   1.322
58205W        W29788  28.462  42.908   1.758
58206W        W29789  41.306   8.848  14.948
58207W        W29790  14.252   2.034   3.333
58208W        W29791  40.934   7.309  10.094
58209W        W29792   2.399  30.602  13.352
58210W        W29793   7.843   9.342  10.427
58211W        W29794  41.365   2.162   4.225
58212W        W29795  28.215  24.737  11.405
58213W        W29796  23.477  23.210   4.461
58214W        W29797  12.701  20.442  14.487
58215W        W29798  24.523  35.353  10.787
58216W        W29799  17.700  44.938   1.795
58217W        W29800  39.395  12.534   0.875
58218W        W29801  17.220  25.241  10.646
58219W        W29802  42.356  44.524  14.478
58220W        W29803  27.700  10.104  10.882
58221W        W29804  37.134   5.684   0.427
58222W        W29805  36.928  11.293   2.912
58223W        W29806  21.721  16.173  14.476
58224W        W29807  16.316  21.362  11.378
58225W        W29808  10.302  42.206  12.375
58226W        W29809  42.483  29.949   0.241
58227W        W29810  43.778  30.884  13.754
58228W        W29811  41.234  24.280   1.323
58229W        W29812  37.206  24.185  14.221
58230W        W29813  28.410   8.318  12.541
58231W        W29814  36.627  31.899  13.776
58232W        W29815   3.038  14.759   3.224
58233W        W29816  35.884   4.321  12.436
58234W        W29817  25.453  39.969   3.844
58235W        W29818   6.696  19.052   2.953
58236W        W29819  28.983  24.585  10.949
58237W        W29820   9.462   1.883   1.756
58238W        W29821  27.014  26.397  10.755
58239W        W29822  29.565  38.058   2.728
58240W        W29823  27.101  12.492   5.045
58241W        W29824  21.542   1.130   2.210
58242W        W29825  11.026  23.367  14.059
58243W        W29826  15.982   9.490   2.721
58244W        W29827  40.409  19.092  10.991
58245W        W29828  18.096  13.620  14.915
58246W        W29829  29.432  18.321   3.970
58247W        W29830  35.932  32.533   4.298
58248W        W29831  14.713  27.127   1.873
58249W        W29832  15.046   7.669  11.621
58250W        W29833   8.515  25.416  14.570
58251W        W29834   4.663   1.894   3.269
58252W        W29835  35.409  13.519  12.348
58253W        W29836  17.726  15.385  14.097
58254W        W29837  41.469  39.603  14.802
58255W        W29838  39.522  11.238   2.860
58256W        W29839  25.163  32.007  13.092
58257W        W29840   7.616  18.391  10.295
58258W        W29841  39.129  26.956   3.745
58259W        W29842  22.016   0.774  12.184
58260W        W29843  23.035  27.597  11.947
58261W        W29844  30.550  28.859   4.202
58262W        W29845  37.844  12.691   3.234
58263W        W29846  21.005  17.263   2.448
58264W        W29847  23.681  17.731  14.418
58265W        W29848  18.262  20.083  11.541
58266W        W29849  23.016  41.495  11.577
58267W        W29850  43.814  18.572   3.097
58268W        W29851  17.687  43.309   3.633
58269W        W29852   6.440  31.410   2.128
58270W        W29853  25.968   1.554   4.077
58271W        W29854  30.906  28.868  11.189
58272W        W29855   0.869  41.730  13.493
58273W        W29856  39.405  25.179   0.951
58274W        W29857  44.831  44.001   0.973
58275W        W29858  34.805  31.356  11.122
58276W        W29859  14.996   6.531   3.581
58277W        W29860  15.530  28.102   3.755
58278W        W29861   0.447  30.435  14.259
58279W        W29862  21.376   5.759   2.235
58280W        W29863   0.576  21.325  11.046
58281W        W29864  36.847  44.535   4.275
58282W        W29865  41.085   6.671   4.226
58283W        W29866  12.109   7.239   3.967
58284W        W29867  15.602   2.273  13.425
58285W        W29868  17.672  18.549  10.629
58286W        W29869  34.499  23.292   3.077
58287W        W29870  38.382  14.623   1.975
58288W        W29871  38.241  15.142   4.525
58289W        W29872   6.854   9.928  11.506
58290W        W29873  20.593  23.648   0.639
58291W        W29874  22.977   7.300  14.805
58292W        W29875  40.024  34.470  10.753
58293W        W29876  18.263  22.526   1.337
58294W        W29877   8.056   6.254  14.052
58295W        W29878  11.232  17.612  14.761
58296W        W29879   2.750  14.887  14.378
58297W        W29880  18.150  37.574  10.473
58298W        W29881  36.535  37.052   3.144
58299W        W29882   7.017  37.950  11.542
58300W        W29883  38.918  37.989   1.923
58301W        W29884  19.455  15.882  11.217
58302W        W29885  26.100   0.550   4.270
58303W        W29886  41.570  22.810   0.194
58304W        W29887  17.622  11.238  12.847
58305W        W29888  19.307  11.932   3.858
58306W        W29889   0.768  41.288   1.075
58307W        W29890  33.892  30.193   2.852
58308W        W29891  40.564  18.334   0.009
58309W        W29892  26.626  33.438  11.409
58310W        W29893  20.584  30.180   1.739
58311W        W29894  32.126  36.821  14.386
58312W        W29895  14.074  24.025  12.942
58313W        W29896  35.853  34.502  13.919
58314W        W29897  26.810  15.542  11.063
58315W        W29898  12.135   9.660  12.396
58316W        W29899  26.404  18.079  14.513
58317W        W29900  37.830  19.153   3.584
58318W        W29901   4.797  26.455  12.117
58319W        W29902  33.621  25.750   4.077
58320W        W29903  28.594  39.082  14.210
58321W        W29904  36.794  22.228   3.803
58322W        W29905  37.534  37.488  10.931
58323W        W29906  14.330  30.250   1.340
58324W        W29907   5.922   6.146  13.398
58325W        W29908  36.532  41.181  12.484
58326W        W29909  35.016  21.704  10.942
58327W        W29910  26.669  14.273  13.140
58328W        W29911  39.626  31.341  11.230
58329W        W29912  23.455   4.859   4.233
58330W        W29913  37.993  25.196  10.556
58331W        W29914  18.167  44.209  13.493
58332W        W29915  34.500   7.760   4.663
58333W        W29916  22.439   0.325  13.927
58334W        W29917  20.129   9.486   4.461
58335W        W29918  31.424  35.659  12.428
58336W        W29919   8.857  38.100   4.040
58337W        W29920  23.670  10.141   1.438
58338W        W29921  11.796  31.040   2.384
58339W        W29922  24.918  22.010   2.953
58340W        W29923  20.075  21.031   2.584
58341W        W29924  17.009  11.931  13.981
58342W        W29925  16.382  12.280   0.306
58343W        W29926  42.991  36.848  11.047
58344W        W29927   9.234   0.553  14.395
58345W        W29928   5.332  42.771  10.994
58346W        W29929  15.109  29.337  12.099
58347W        W29930  32.142  31.784   4.571
58348W        W29931  35.030  26.488  13.492
58349W        W29932  41.899  25.718  10.608
58350W        W29933  42.067  26.534   1.832
58351W        W29934  25.502   3.948  14.744
58352W        W29935  37.564  17.197  11.549
58353W        W29936  44.996  21.164  12.834
58354W        W29937  24.424  11.840   4.540
58355W        W29938  26.577   1.851   2.923
58356W        W29939  16.161  28.540   0.868
58357W        W29940  15.351  31.198   2.230
58358W        W29941  32.907  15.740   2.492
58359W        W29942  12.194  16.279  10.813
58360W        W29943  42.736  42.782   2.624
58361W        W29944  30.153  37.422  13.351
58362W        W29945  18.908  34.508  12.476
58363W        W29946  31.874  21.310  11.523
58364W        W29947   2.056   4.050  11.126
58365W        W29948  15.071  42.992  13.652
58366W        W29949  23.673  41.284   4.185
58367W        W29950  39.419  14.801   3.225
58368W        W29951   4.607   0.882   0.356
58369W        W29952   1.530  24.056   1.311
58370W        W29953  26.262   3.918  11.997
58371W        W29954  29.067   4.415  11.976
58372W        W29955   9.763  36.731  10.819
58373W        W29956  36.301  20.143   4.868
58374W        W29957  27.144  23.927  14.018
58375W        W29958  24.424  28.235  11.567
58376W        W29959   7.793  39.881  10.688
58377W        W29960  37.002  16.836   3.200
58378W        W29961  38.598  18.509   1.857
58379W        W29962   9.039   1.403   0.502
58380W        W29963  14.316  33.962  12.550
58381W        W29964  26.235  36.872   4.055
58382W        W29965   9.153  11.122  12.217
58383W        W29966  38.160  21.845  11.107
58384W        W29967  30.185  16.015   1.536
58385W        W29968  11.857   5.384   9.873
58386W        W29969  36.990  13.742   3.633
58387W        W29970  15.227  17.146  14.644
58388W        W29971   5.021  12.067   1.649
58389W        W29972  31.483  29.725   0.543
58390W        W29973  39.656   0.567  11.939
58391W        W29974  32.551  22.100  14.088
58392W        W29975  10.630  37.080  12.555
58393W        W29976   6.506  43.459  14.088
58394W        W29977   5.843  15.731  11.378
58395W        W29978  30.134  13.120  12.526
58396W        W29979  34.628  18.351   1.354
58397W        W29980  26.644   8.401   1.769
58398W        W29981  17.565  40.196   0.397
58399W        W29982  19.195  22.574   4.676
58400W        W29983  30.214  33.047   1.050
58401W        W29984   1.239  26.042   0.343
58402W        W29985   8.958  27.913  11.417
58403W        W29986   9.381  42.441  14.093
58404W        W29987  26.526  15.727   2.290
58405W        W29988  35.436  37.968   2.207
58406W        W29989  17.055  32.578   1.771
58407W        W29990   3.048  28.826   1.362
58408W        W29991  36.194  36.888   1.590
58409W        W29992  12.313  24.522  11.867
58410W        W29993  11.060  17.311  14.297
58411W        W29994  38.800   1.366   0.335
58412W        W29995   9.622  42.511   3.705
58413W        W29996  21.710  12.642   1.991
58414W        W29997  14.233  10.556   3.016
58415W        W29998   2.803  21.198   3.545
58416W        W29999  37.592  31.070  14.292
58417W        W30000  23.046  24.481  12.987
58418W        W30001  42.799  30.789   2.306
58419W        W30002  22.887  30.699   0.372
58420W        W30003  17.924  14.119  14.921
58421W        W30004  23.654   8.197   4.888
58422W        W30005  30.635  32.859  13.393
58423W        W30006  33.560  37.175  12.942
58424W        W30007  37.410   1.118   2.365
58425W        W30008  11.625   4.706   4.606
58426W        W30009  35.076  20.210   0.161
58427W        W30010  31.348  17.066  14.798
58428W        W30011  22.230  21.260  12.110
58429W        W30012  37.844  33.321  11.948
58430W        W30013  44.178  14.787   3.850
58431W        W30014  31.835  19.614   5.380
58432W        W30015   0.572  22.389   2.118
58433W        W30016  44.358  13.991  10.644
58434W        W30017  16.590  41.202   1.140
58435W        W30018  14.814  17.603   0.799
58436W        W30019  14.632  29.119  12.214
58437W        W30020   8.509  20.225  13.322
58438W        W30021  21.304  26.226  10.717
58439W        W30022  41.525  12.412   1.102
58440W        W30023   0.279  37.775   0.326
58441W        W30024  25.750  44.249  10.477
58442W        W30025  43.959  26.622  11.260
58443W        W30026   0.009  32.452   0.733
58444W        W30027  12.691   9.718   0.207
58445W        W30028   6.639  43.396  11.564
58446W        W30029  13.202   5.734  13.520
58447W        W30030  17.511   8.589   2.859
58448W        W30031  31.444  32.293   2.749
58449W        W30032   2.841  21.858  10.623
58450W        W30033  21.591  42.223   4.323
58451W        W30034  20.308  27.636   0.013
58452W        W30035  11.430  18.662  14.393
58453W        W30036  42.116  13.225   5.082
58454W        W30037   0.383   1.542  14.830
58455W        W30038  11.879  35.590  13.031
58456W        W30039  18.358  19.640   3.441
58457W        W30040  11.115  22.585   0.101
58458W        W30041  43.504  28.783  13.095
58459W        W30042  15.638  11.774  13.065
58460W        W30043  33.893   6.757   4.094
58461W        W30044  35.424   6.771   3.590
58462W        W30045  17.340   0.015  12.995
58463W        W30046   8.041  16.257   4.542
58464W        W30047  30.134   6.030  14.457
58465W        W30048  30.236  21.146  11.620
58466W        W30049   7.371  17.793  12.993
58467W        W30050  10.327   3.210   3.362
58468W        W30051  32.022   4.975  14.624
58469W        W30052  43.755  30.118   1.741
58470W        W30053  21.568  18.098  12.921
58471W        W30054  16.351  36.843   3.704
58472W        W30055  29.614   0.538  14.604
58473W        W30056  17.304   2.269  13.107
58474W        W30057  36.393   5.237  13.761
58475W        W30058  20.088   8.746   4.510
58476W        W30059  24.314  16.239   1.931
58477W        W30060   8.721  20.933   4.063
58478W        W30061  32.484  18.199   4.597
58479W        W30062  17.348  17.180   0.007
58480W        W30063  40.843  13.112   1.366
58481W        W30064  31.345  24.267   3.884
58482W        W30065  30.247  22.638  13.354
58483W        W30066  32.396  36.593   4.224
58484W        W30067  17.561  28.654  11.609
58485W        W30068  27.915  24.503  14.286
58486W        W30069  13.575  42.223   2.355
58487W        W30070  12.425  35.464   0.697
58488W        W30071  25.961  32.688  13.763
58489W        W30072  44.478  10.577   0.762
58490W        W30073  36.640  18.837  13.406
58491W        W30074  25.024   7.815  13.584
58492W        W30075  19.051  21.589  11.210
58493W        W30076  19.155  15.777  10.801
58494W        W30077  40.657  12.942  13.092
58495W        W30078   3.496  18.876  11.201
58496W        W30079  14.629   0.400  12.002
58497W        W30080  27.000  19.557  11.079
58498W        W30081  22.176  31.905   2.717
58499W        W30082  25.570  36.689  11.227
58500W        W30083  32.989  21.642   4.684
58501W        W30084  34.177  15.388   2.699
58502W        W30085   6.109   5.208   4.670
58503W        W30086  16.609  19.654   0.406
58504W        W30087  18.470  23.992   1.978
58505W        W30088  38.999  22.979   2.438
58506W        W30089  25.191  34.081   4.054
58507W        W30090   2.850  44.723   4.604
58508W        W30091  26.249  20.608   4.867
58509W        W30092  26.602  14.217   1.666
58510W        W30093  22.221  34.560   4.308
58511W        W30094  25.482  32.199  11.955
58512W        W30095  40.188  30.475   3.851
58513W        W30096  10.045  15.673   0.319
58514W        W30097  14.354   2.022  12.258
58515W        W30098  23.469  37.186  11.166
58516W        W30099  36.631  19.647   1.891
58517W        W30100  29.973   5.309   2.680
58518W        W30101  22.471  23.649  13.861
58519W        W30102  35.934   6.433  10.986
58520W        W30103  26.072  11.863   3.734
58521W        W30104  42.964  43.213  10.590
58522W        W30105   3.909  11.304   4.591
58523W        W30106  41.203  40.752   2.235
58524W        W30107  18.817  13.115   1.933
58525W        W30108  11.929  37.475   1.605
58526W        W30109  25.519  43.851   4.916
58527W        W30110  29.619  11.513  13.104
58528W        W30111   5.981  18.113   4.857
58529W        W30112  15.275  15.200   1.415
58530W        W30113   8.959  44.088   0.498
58531W        W30114  12.821  31.941   2.351
58532W        W30115  35.651   4.652  11.323
58533W        W30116  27.741  41.051   4.214
58534W        W30117  10.843  43.991  13.587
58535W        W30118   3.307  35.966  11.081
58536W        W30119  11.203  44.372  13.076
58537W        W30120   7.723  27.240  11.543
58538W        W30121  36.060  27.141   3.107
58539W        W30122  30.694   2.545   3.631
58540W        W30123  40.462  41.978   3.199
58541W        W30124  37.509  26.582   0.493
58542W        W30125   5.330  21.554   0.244
58543W        W30126  38.395   3.464   4.962
58544W        W30127  16.350  44.783  11.134
58545W        W30128  43.773  20.487   2.681
58546W        W30129  37.829  15.859   4.206
58547W        W30130   9.186  42.011   2.246
58548W        W30131  44.621  30.538  13.996
58549W        W30132  31.371  39.512  11.072
58550W        W30133  26.015   7.789  12.353
58551W        W30134  33.423  37.348   2.676
58552W        W30135  39.735  16.569  10.778
58553W        W30136   9.831  40.782  14.304
58554W        W30137  28.413  22.785   3.793
58555W        W30138  39.355  42.098   3.685
58556W        W30139   0.352   5.184   2.375
58557W        W30140  32.027  16.895   0.342
58558W        W30141  39.769  11.700   2.732
58559W        W30142  35.018  42.844  12.085
58560W        W30143  31.963  41.784   4.638
58561W        W30144  28.340  31.060   5.151
58562W        W30145  27.664  22.938   2.724
58563W        W30146  26.999  24.975  14.297
58564W        W30147  43.428   3.031  10.554
58565W        W30148  22.354   1.933  11.629
58566W        W30149  32.503  15.629   4.385
58567W        W30150   8.876   6.212  11.516
58568W        W30151  43.691   0.485   1.456
58569W        W30152  11.934  27.672  13.795
58570W        W30153  37.258  16.275   1.916
58571W        W30154  27.122   1.277   3.709
58572W        W30155  26.641  29.406  12.486
58573W        W30156  35.362   2.722  14.331
58574W        W30157  17.962   8.895   2.805
58575W        W30158  17.490  32.660   3.292
58576W        W30159  32.148  27.639   3.324
58577W        W30160  14.973   2.388   1.721
58578W        W30161  25.534  20.169  13.133
58579W        W30162   6.852  22.581  10.776
58580W        W30163  35.515  32.993   0.031
58581W        W30164  17.184  20.672   2.766
58582W        W30165  17.660   5.797   2.274
58583W        W30166  22.999  20.117   3.157
58584W        W30167   4.414   5.194  14.383
58585W        W30168   0.833  32.497  11.116
58586W        W30169   8.220   6.924  12.448
58587W        W30170  19.553  42.845  13.914
58588W        W30171  11.661  43.314   3.151
58589W        W30172  10.387  44.029  13.363
58590W        W30173  27.994  11.873  11.668
58591W        W30174  14.728  39.994   2.650
58592W        W30175  22.621  35.118  10.660
58593W        W30176  31.396  11.601   3.551
58594W        W30177  18.831  10.996  11.157
58595W        W30178  31.060   8.414   4.236
58596W        W30179   0.347  40.977   3.441
58597W        W30180  13.732   3.175  12.922
58598W        W30181  12.181  12.453   3.215
58599W        W30182  35.872  44.234   3.162
58600W        W30183  15.409  13.445   4.984
58601W        W30184  24.457  10.448   2.232
58602W        W30185  31.506  20.077   0.033
58603W        W30186  25.375  21.873   3.131
58604W        W30187  28.099  28.423   3.785
58605W        W30188  24.086  18.282   0.030
58606W        W30189  28.217  25.841   0.433
58607W        W30190  22.740  10.608  13.041
58608W        W30191  14.398  32.018   9.912
58609W        W30192   6.070  26.622  13.566
58610W        W30193  17.193   2.269   1.002
58611W        W30194  14.819   6.305   1.351
58612W        W30195  37.557   2.724  12.101
58613W        W30196  39.770  44.022  13.816
58614W        W30197  11.760  41.796   2.272
58615W        W30198  39.040  26.302  14.228
58616W        W30199  38.878   7.321  12.316
58617W        W30200  25.594  42.384  11.553
58618W        W30201  21.494  38.848  14.501
58619W        W30202   2.355  23.798  12.977
58620W        W30203  21.543  33.312  10.634
58621W        W30204   3.021  41.968   3.173
58622W        W30205  12.789  17.676   3.385
58623W        W30206   1.557  36.788  13.959
58624W        W30207   3.937   0.523  12.035
58625W        W30208  42.787  37.485  14.110
58626W        W30209  36.793  13.156  10.686
58627W        W30210  16.141  27.044   2.825
58628W        W30211  37.035  37.045  13.956
58629W        W30212   3.827  31.192   0.070
58630W        W30213  25.700  15.270   1.715
58631W        W30214  20.936  31.503   9.726
58632W        W30215   8.039  38.403   1.399
58633W        W30216  17.338  20.847  12.884
58634W        W30217  31.055  35.050   4.716
58635W        W30218  11.856  31.590   3.759
58636W        W30219   5.417   1.477  10.384
58637W        W30220  28.615  12.732   1.485
58638W        W30221   3.418  34.397  12.933
58639W        W30222  18.252  41.378   2.735
58640W        W30223  14.603   8.723  14.524
58641W        W30224  12.070   5.188  13.103
58642W        W30225   4.141  17.016  12.456
58643W        W30226  37.271  11.759   0.904
58644W        W30227  41.832  27.898   4.100
58645W        W30228   2.698  11.773  12.107
58646W        W30229   0.329   5.680   2.238
58647W        W30230  22.773  28.154   2.753
58648W        W30231   9.628  30.914  11.537
58649W        W30232  40.116   6.934  13.355
58650W        W30233  11.290  38.078   1.434
58651W        W30234   6.200   5.427   3.324
58652W        W30235   8.207  17.806  13.122
58653W        W30236  35.969   4.972  13.931
58654W        W30237  42.324  25.213   0.658
58655W        W30238   6.841   2.647   2.356
58656W        W30239  34.581  34.385  13.338
58657W        W30240  30.371  15.778   1.983
58658W        W30241   7.702  11.441   1.658
58659W        W30242  16.659  39.815   1.763
58660W        W30243  33.904  41.571  13.067
58661W        W30244   5.421  38.759  12.924
58662W        W30245  14.499  15.108   0.298
58663W        W30246  17.476  29.934   1.414
58664W        W30247   4.766  14.234   0.686
58665W        W30248  19.357  18.474   0.232
58666W        W30249   0.800   9.516  14.534
58667W        W30250   3.453   4.812   1.785
58668W        W30251  31.130   7.218   3.713
58669W        W30252  42.909   8.095   4.549
58670W        W30253  11.737   1.878  13.856
58671W        W30254  13.063  26.089   2.848
58672W        W30255   2.920  14.168   0.483
58673W        W30256  35.317  36.341   3.690
58674W        W30257  33.390  19.626  10.490
58675W        W30258  34.796  25.833   4.123
58676W        W30259  24.006  11.154   1.603
58677W        W30260  28.071  37.600   1.208
58678W        W30261  29.612  28.187   1.870
58679W        W30262  18.087   6.616  14.902
58680W        W30263  25.625  33.570   1.833
58681W        W30264   8.503  43.446  10.656
58682W        W30265  26.233  16.832   1.915
58683W        W30266  28.961   1.324   0.945
58684W        W30267  18.652  19.009  10.575
58685W        W30268  26.376  18.491  11.676
58686W        W30269  12.634  43.847   1.826
58687W        W30270  26.457  14.241   3.127
58688W        W30271  42.380  22.971   1.157
58689W        W30272  25.767  22.074  12.956
58690W        W30273  41.032  28.441   4.648
58691W        W30274  21.731  33.514  13.986
58692W        W30275  15.526  24.586   2.809
58693W        W30276   4.451  26.114   3.441
58694W        W30277  36.433  22.596  10.452
58695W        W30278   4.929  10.894   0.536
58696W        W30279  43.341  39.205   2.970
58697W        W30280  12.837  11.153  14.851
58698W        W30281   8.318  43.587  13.445
58699W        W30282  19.270  24.574  14.275
58700W        W30283  10.193  22.463   0.775
58701W        W30284  24.706  39.333   1.830
58702W        W30285   7.399  24.665   3.681
58703W        W30286  14.204  11.271  13.994
58704W        W30287  44.231  18.076  11.944
58705W        W30288  13.091  44.234   1.446
58706W        W30289  10.677  27.973   2.835
58707W        W30290  16.370  19.262   1.869
58708W        W30291  32.888  23.931   2.494
58709W        W30292   9.279  14.557   4.416
58710W        W30293   8.454  21.340  12.078
58711W        W30294  22.109  19.154  10.719
58712W        W30295  32.074   1.644  11.977
58713W        W30296  14.997  27.087   0.312
58714W        W30297  30.179  37.426   2.770
58715W        W30298  32.090  35.176  11.369
58716W        W30299  31.344   2.642   0.397
58717W        W30300   7.004  30.143  10.745
58718W        W30301  41.423  40.128   2.905
58719W        W30302  25.757  12.570  10.751
58720W        W30303  32.985  41.000  14.775
58721W        W30304  24.506  29.587   2.708
58722W        W30305   5.480  25.259   0.331
58723W        W30306  40.239  27.059  14.903
58724W        W30307   5.958  10.418   3.279
58725W        W30308  30.079  25.759  14.362
58726W        W30309  34.034  21.342  13.994
58727W        W30310  41.058  25.445  13.115
58728W        W30311  38.390   0.020   0.931
58729W        W30312  22.531   3.938  13.635
58730W        W30313  29.682  20.282  12.023
58731W        W30314  31.153  12.046   3.659
58732W        W30315  38.497  35.130  12.558
58733W        W30316  15.857  21.238   4.151
58734W        W30317  16.318  21.495   0.940
58735W        W30318  26.956  37.385  12.988
58736W        W30319  24.243  40.940   4.612
58737W        W30320  33.117   3.885   0.765
58738W        W30321  31.570  39.126   3.923
58739W        W30322  38.937  32.019  13.018
58740W        W30323  24.243  41.782   3.323
58741W        W30324  10.019  17.506   0.348
58742W        W30325  29.072  10.341   0.721
58743W        W30326   2.359  42.732   2.926
58744W        W30327  11.543  36.910  14.459
58745W        W30328   3.390  18.299   3.299
58746W        W30329  40.230  22.059  12.025
58747W        W30330  26.440   7.876  12.973
58748W        W30331  21.631  20.014   0.967
58749W        W30332  39.070  27.608  12.897
58750W        W30333  36.398  44.106  14.796
58751W        W30334   0.049  35.872  13.009
58752W        W30335   1.978   8.127  13.030
58753W        W30336  36.414  36.059  12.610
58754W        W30337  20.541   2.395   1.737
58755W        W30338  43.401   5.432  12.169
58756W        W30339  27.899  44.771   1.481
58757W        W30340  21.518  19.212  14.808
58758W        W30341  30.308  28.938  10.818
58759W        W30342  39.022  30.442   3.290
58760W        W30343  19.299  15.848   2.907
58761W        W30344   9.225  27.971  13.001
58762W        W30345  17.566  39.306   3.757
58763W        W30346  41.981  26.089   3.708
58764W        W30347  25.996  18.574  14.816
58765W        W30348  40.145  39.384  14.421
58766W        W30349  13.381  27.107   1.908
58767W        W30350   7.346  17.198  14.017
58768W        W30351  38.765  39.270   2.618
58769W        W30352  37.590  43.424   4.212
58770W        W30353  31.259  16.606  11.232
58771W        W30354  28.019   9.939   4.657
58772W        W30355  24.728   4.372  11.639
58773W        W30356  13.118   1.285   2.777
58774W        W30357  26.523   8.387  12.860
58775W        W30358  14.156  35.832  14.435
58776W        W30359  24.121   3.700   1.349
58777W        W30360  19.056  39.190   2.190
58778W        W30361  25.617  12.073   4.166
58779W        W30362  16.424  42.028  14.969
58780W        W30363   3.243  23.740  13.063
58781W        W30364  42.410  42.859  14.415
58782W        W30365  34.486  38.068  10.715
58783W        W30366  10.433  13.520   0.798
58784W        W30367  31.641  43.334  11.634
58785W        W30368   7.709   9.191  12.614
58786W        W30369   3.240  18.269  12.858
58787W        W30370  36.288  42.908  10.662
58788W        W30371  11.898  16.214  13.479
58789W        W30372   4.823  11.766  10.935
58790W        W30373  29.389  25.997  13.558
58791W        W30374  15.671  15.771  12.205
58792W        W30375  11.731  24.291  12.757
58793W        W30376   3.173  12.500  14.107
58794W        W30377   5.796  16.051  14.502
58795W        W30378  10.708  25.134  12.806
58796W        W30379  19.274  29.908   3.488
58797W        W30380  29.144   4.769  11.059
58798W        W30381  41.831  15.370  11.603
58799W        W30382  21.055  34.154   2.195
58800W        W30383   2.194   3.522  12.422
58801W        W30384  31.637  34.481  13.457
58802W        W30385  26.581  16.946   2.857
58803W        W30386  23.014  12.753  13.118
58804W        W30387  40.868  38.551   3.438
58805W        W30388   3.896  17.323   0.351
58806W        W30389  36.550   6.007   3.130
58807W        W30390  17.347  40.585   1.963
58808W        W30391  38.642  12.746   3.689
58809W        W30392  25.562  20.689  12.388
58810W        W30393  28.292  34.392  12.589
58811W        W30394  42.998  40.299  13.136
58812W        W30395   5.114  25.017  11.903
58813W        W30396   9.633  41.855  10.700
58814W        W30397   7.118  36.357   0.921
58815W        W30398   9.552   9.158   2.340
58816W        W30399  44.024   4.035   1.281
58817W        W30400  15.879   8.990  13.363
58818W        W30401  18.355  33.354   2.361
58819W        W30402  42.990  19.882   4.109
58820W        W30403  20.995  36.702  13.644
58821W        W30404   6.832  25.821   4.106
58822W        W30405  25.740   2.238   4.448
58823W        W30406  40.240   2.211   2.743
58824W        W30407  25.930  24.044   0.354
58825W        W30408   5.778  21.667  11.994
58826W        W30409  28.159  15.830  12.843
58827W        W30410  25.259  19.864   3.304
58828W        W30411  31.328   2.275   2.161
58829W        W30412   7.955  24.998  13.964
58830W        W30413  30.682  39.868   0.248
58831W        W30414  36.763  10.328   3.661
58832W        W30415  14.542  26.722   1.310
58833W        W30416  17.029  33.420  14.549
58834W        W30417  40.464   5.897  12.869
58835W        W30418  44.090  24.744  13.482
58836W        W30419  42.154  28.500   2.781
58837W        W30420   7.768  26.871  10.988
58838W        W30421  40.261   5.051   4.600
58839W        W30422  10.667  19.481  13.452
58840W        W30423  15.128  29.424  14.346
58841W        W30424  43.995  21.984  11.137
58842W        W30425  16.015  26.196   1.850
58843W        W30426  13.140  33.938   1.426
58844W        W30427  25.427   6.711   1.819
58845W        W30428  26.940  25.251  14.811
58846W        W30429  25.068   6.276  14.126
58847W        W30430  17.857   2.805   4.066
58848W        W30431   8.834  37.921   1.289
58849W        W30432  23.734  27.982  14.939
58850W        W30433  20.682  33.694  13.022
58851W        W30434   6.626  36.624  10.698
58852W        W30435  31.379  14.147   1.864
58853W        W30436  44.030  26.524  14.786
58854W        W30437   6.980   5.133  11.257
58855W        W30438   8.630  32.962  13.858
58856W        W30439  27.241  32.922   2.305
58857W        W30440  22.238  14.821  13.022
58858W        W30441  40.543  21.245  12.560
58859W        W30442  42.535  20.104   4.709
58860W        W30443  37.627  42.929  13.331
58861W        W30444  10.876   2.980   0.883
58862W        W30445  43.323  22.162   3.711
58863W        W30446  21.245  28.200  14.895
58864W        W30447   2.972  16.529   1.448
58865W        W30448  36.571  29.062  12.416
58866W        W30449  41.937  15.068   3.662
58867W        W30450  14.208  43.778   2.670
58868W        W30451  26.512  40.125   2.860
58869W        W30452   7.731   7.288   2.407
58870W        W30453   8.381  12.305  13.974
58871W        W30454   2.180  29.261   4.240
58872W        W30455  30.854  10.778  14.312
58873W        W30456  27.210  27.264  13.363
58874W        W30457   4.070  21.627   0.486
58875W        W30458  11.579   2.339  11.630
58876W        W30459  11.661   9.569   4.198
58877W        W30460  38.426  15.903  11.924
58878W        W30461  24.243  33.503  11.995
58879W        W30462   6.129  18.001  10.836
58880W        W30463  19.791  11.161   1.226
58881W        W30464  14.327   8.295   3.679
58882W        W30465  30.028  15.076  12.002
58883W        W30466  34.622  10.554   4.252
58884W        W30467  43.526  24.256   4.464
58885W        W30468  19.573  10.355  13.456
58886W        W30469  27.036  21.629  14.438
58887W        W30470  35.842  42.272  12.904
58888W        W30471  10.214  24.503   3.712
58889W        W30472  19.736  42.545   4.297
58890W        W30473  16.030  29.056  11.093
58891W        W30474  36.624  13.240  11.156
58892W        W30475  37.078  40.005  11.959
58893W        W30476  44.460  30.529  12.952
58894W        W30477  44.823  10.794  13.132
58895W        W30478  34.810  18.715  14.665
58896W        W30479  26.591   9.389  13.990
58897W        W30480  36.000  11.030  14.757
58898W        W30481  12.811  37.728   3.309
58899W        W30482  29.696  10.788   0.253
58900W        W30483   2.239  18.707   1.853
58901W        W30484  14.278  24.090   4.503
58902W        W30485  31.187  29.647   2.920
58903W        W30486  17.792  21.494   2.642
58904W        W30487  21.664  30.252  11.332
58905W        W30488   4.901  33.921  10.649
58906W        W30489  42.896   8.398  11.879
58907W        W30490  27.025   6.692  12.883
58908W        W30491  43.363  27.382  12.623
58909W        W30492  23.516   6.695   3.209
58910W        W30493  25.940  39.576   4.681
58911W        W30494  44.391   7.652   2.331
58912W        W30495   2.207  12.769   4.219
58913W        W30496  22.021  27.432  12.112
58914W        W30497   3.210   6.606   0.610
58915W        W30498  35.807  43.719   1.813
58916W        W30499   9.780  18.614  13.802
58917W        W30500  33.689  21.108   5.147
58918W        W30501   1.870  21.001   4.201
58919W        W30502  34.015  42.448  12.592
58920W        W30503  41.185   0.445   3.038
58921W        W30504   0.493  32.529  12.444
58922W        W30505  23.251  36.996   2.248
58923W        W30506  39.486  11.350  12.586
58924W        W30507  24.301   2.356   0.913
58925W        W30508  39.954  33.335   3.175
58926W        W30509  18.064  41.371   1.156
58927W        W30510  32.890   1.532  11.610
58928W        W30511  40.375  44.376  14.011
58929W        W30512  43.207  16.053  11.059
58930W        W30513  26.978  25.136   4.111
58931W        W30514  31.524  24.939  12.516
58932W        W30515  41.705  30.698  12.934
58933W        W30516  16.068  40.425  12.488
58934W        W30517  44.752  26.375  10.652
58935W        W30518  22.896  38.810   4.095
58936W        W30519  41.699  33.590   1.787
58937W        W30520  15.682   8.182   4.398
58938W        W30521  25.641  18.243   3.829
58939W        W30522  43.950  27.580  10.530
58940W        W30523  10.941   4.646  10.229
58941W        W30524  12.564  44.288   1.554
58942W        W30525  35.569   6.911   0.345
58943W        W30526  11.612  11.138   2.394
58944W        W30527  31.551  19.309   4.589
58945W        W30528   9.029  25.756   1.507
58946W        W30529   3.013  35.941  14.810
58947W        W30530   7.146  29.449   0.940
58948W        W30531  37.582   7.405  14.958
58949W        W30532  13.697  13.364   2.555
58950W        W30533  44.248  10.860  11.520
58951W        W30534  17.832  42.940  13.524
58952W        W30535   5.390  15.374  13.857
58953W        W30536  26.060  27.417   0.310
58954W        W30537   4.400   2.195  10.958
58955W        W30538  18.661  44.514   2.353
58956W        W30539  13.211  22.955  10.963
58957W        W30540   1.561  27.456   1.782
58958W        W30541  29.411   5.264  12.074
58959W        W30542  11.395  30.985  12.897
58960W        W30543  17.522   8.906  13.541
58961W        W30544   5.845  25.433   4.232
58962W        W30545  16.229   1.201   4.657
58963W        W30546  32.131  44.736  14.381
58964W        W30547  36.470   3.360  10.376
58965W        W30548  43.807   8.469   4.837
58966W        W30549   3.936  28.650  13.807
58967W        W30550  24.935  10.348   2.432
58968W        W30551  29.026  15.627  13.749
58969W        W30552  38.411  25.479   2.362
58970W        W30553  41.163  27.359  12.067
58971W        W30554  13.648  29.030  11.109
58972W        W30555  17.473  39.006   4.170
58973W        W30556  43.772  10.632   3.785
58974W        W30557  18.129  31.886   1.407
58975W        W30558  18.980  14.407  11.050
58976W        W30559   6.194   7.151  13.953
58977W        W30560  25.522  32.758   2.589
58978W        W30561  37.572  38.018  12.503
58979W        W30562  26.441  43.483   1.841
58980W        W30563  26.137  30.422  11.092
58981W        W30564  33.990  36.480   0.471
58982W        W30565  37.747  28.638   3.441
58983W        W30566  13.398  12.343  13.987
58984W        W30567  20.622  18.124   0.990
58985W        W30568   5.660  33.341  13.417
58986W        W30569   3.841  35.120   2.162
58987W        W30570  24.239  34.897  11.525
58988W        W30571  29.733  24.048   4.157
58989W        W30572  18.526   5.621   2.794
58990W        W30573  26.559  29.190   1.357
58991W        W30574   6.255  16.600   3.778
58992W        W30575  28.035  36.344   4.859
58993W        W30576   9.180  17.670  12.268
58994W        W30577  41.037   7.622  12.854
58995W        W30578  32.578  41.505  11.516
58996W        W30579   7.644  29.032  14.271
58997W        W30580  22.503  25.054   0.963
58998W        W30581   7.857  38.131   3.781
58999W        W30582   5.433   3.253  10.712
59000W        W30583  13.786  35.196  11.546
59001W        W30584  12.884  37.400  13.971
59002W        W30585  24.118  43.764  11.212
59003W        W30586   0.577  20.271  14.805
59004W        W30587   2.589   0.944   3.638
59005W        W30588  21.074   5.168  13.495
59006W        W30589  16.352   6.556  11.979
59007W        W30590   1.082   2.452   1.446
59008W        W30591  13.312  35.984  14.046
59009W        W30592  41.059  39.125  13.784
59010W        W30593   7.942   0.786   3.267
59011W        W30594  27.283  38.269   0.414
59012W        W30595  13.200  24.460  11.840
59013W        W30596  34.805  32.370   4.961
59014W        W30597   3.829   5.492  10.872
59015W        W30598   9.097  14.438  12.123
59016W        W30599  14.234   7.750  13.988
59017W        W30600  38.069  27.481  12.022
59018W        W30601  36.346  19.762   3.241
59019W        W30602   1.388  26.747  13.898
59020W        W30603  44.304  41.547  12.072
59021W        W30604  40.915  38.311   0.899
59022W        W30605  12.342   6.838   4.198
59023W        W30606   6.325  13.938   4.534
59024W        W30607  38.055  42.436   1.481
59025W        W30608  19.770   2.920  12.382
59026W        W30609  31.893  42.059  11.492
59027W        W30610  12.270   9.840  13.800
59028W        W30611  16.585   3.297  10.558
59029W        W30612   0.717   5.255  14.966
59030W        W30613   5.671  25.078  11.062
59031W        W30614  15.575  32.620   4.078
59032W        W30615  41.766  44.839   1.963
59033W        W30616  29.959  42.401  12.387
59034W        W30617   4.636  18.307  12.978
59035W        W30618  33.387  23.253  13.465
59036W        W30619  39.880  42.684   1.258
59037W        W30620  33.411  38.905  13.336
59038W        W30621  24.027   7.073   4.624
59039W        W30622  21.549  36.994  10.963
59040W        W30623  43.874   2.943  14.869
59041W        W30624  21.070  26.903   0.380
59042W        W30625  42.855  32.983  13.569
59043W        W30626  43.268  16.399   0.788
59044W        W30627  29.975  28.325  14.510
59045W        W30628  35.925  22.023  12.857
59046W        W30629   9.314  11.110   4.281
59047W        W30630  32.861   9.227   1.215
59048W        W30631  29.965  38.056   3.067
59049W        W30632  23.606  16.839  12.210
59050W        W30633  13.079  26.075   0.030
59051W        W30634  21.405  44.020  14.411
59052W        W30635  38.060  27.212   0.590
59053W        W30636  22.703  36.994  14.904
59054W        W30637  18.583  33.962   2.185
59055W        W30638  31.499  37.082   4.295
59056W        W30639   3.304  12.689  11.432
59057W        W30640  43.263  24.252  14.385
59058W        W30641  32.595  25.381   3.245
59059W        W30642  42.699  40.351   1.358
59060W        W30643  23.971  28.385  11.735
59061W        W30644  24.399  12.883   1.880
59062W        W30645  21.891   5.998  11.981
59063W        W30646  16.285  29.702  13.047
59064W        W30647  24.202  33.179   4.550
59065W        W30648  12.312   5.531   3.404
59066W        W30649   3.906   5.669   2.748
59067W        W30650  40.028  19.937  14.262
59068W        W30651  10.212   4.669   2.778
59069W        W30652  16.806   5.790  14.742
59070W        W30653  26.775  22.215  14.360
59071W        W30654  19.906  24.543   4.499
59072W        W30655  38.576   0.453  14.857
59073W        W30656  43.217  18.790  10.770
59074W        W30657  34.936   8.655   0.483
59075W        W30658  29.473  13.737   4.515
59076W        W30659  36.418  14.386  11.859
59077W        W30660  33.297  36.966   1.875
59078W        W30661  19.853  38.352  10.588
59079W        W30662  32.777  37.418  14.490
59080W        W30663  14.137  31.787   0.280
59081W        W30664  30.929   1.718  14.438
59082W        W30665  17.468  18.228  13.429
59083W        W30666  41.827  28.295   0.483
59084W        W30667  18.890  27.370  13.535
59085W        W30668   3.964  43.380   0.884
59086W        W30669   6.915  35.804   2.219
59087W        W30670  17.313   0.268   4.501
59088W        W30671  14.007  21.515  14.810
59089W        W30672  10.767   8.421   1.939
59090W        W30673  39.479  17.237   3.358
59091W        W30674  37.813   7.701   5.112
59092W        W30675  16.754  33.312   3.222
59093W        W30676  20.659   2.260   0.253
59094W        W30677  16.884  21.618   3.721
59095W        W30678  10.802  16.874  14.978
59096W        W30679  14.488  41.323  13.802
59097W        W30680  17.863  35.367  14.963
59098W        W30681  16.024   5.367   3.767
59099W        W30682   0.791   5.285  11.575
59100W        W30683  40.040  35.631   1.326
59101W        W30684  44.076  34.123   0.869
59102W        W30685  15.482   9.441   2.786
59103W        W30686  33.811  12.942  12.924
59104W        W30687  24.021  30.139   4.181
59105W        W30688   8.936  43.324  12.782
59106W        W30689  13.247  26.579  14.279
59107W        W30690  35.521  38.869  13.227
59108W        W30691   5.687  35.429  12.516
59109W        W30692  42.898  20.239   3.749
59110W        W30693  36.471  33.921   1.790
59111W        W30694  33.443  39.809  13.490
59112W        W30695  23.941  32.132  11.497
59113W        W30696   3.589  34.108  10.813
59114W        W30697  44.221   1.298  10.250
59115W        W30698  12.602  18.766   2.593
59116W        W30699  35.926  17.783  10.674
59117W        W30700  30.942  21.324  14.485
59118W        W30701  25.811  20.685  13.256
59119W        W30702  11.279  16.646  14.961
59120W        W30703  12.842   5.488   0.337
59121W        W30704  42.953  36.135   3.781
59122W        W30705  25.577  42.463   3.675
59123W        W30706  13.582   1.563   2.688
59124W        W30707   6.264   1.203   4.579
59125W        W30708  37.761  37.861  10.630
59126W        W30709  14.940  38.650   9.917
59127W        W30710  21.285  27.062   4.863
59128W        W30711   9.209   0.324  11.346
59129W        W30712  17.608  40.047   1.911
59130W        W30713  35.961   1.883   3.924
59131W        W30714  38.451  34.524  14.253
59132W        W30715  18.727  13.077  10.786
59133W        W30716   2.459  33.051  10.700
59134W        W30717  35.087  29.945  12.014
59135W        W30718  31.725   5.392  14.435
59136W        W30719  32.884   7.403   0.768
59137W        W30720  23.565  20.728  12.932
59138W        W30721  43.677  15.732  11.961
59139W        W30722  30.361  41.851   2.184
59140W        W30723  39.354  27.434  11.261
59141W        W30724  13.012   8.436   1.467
59142W        W30725   7.968  10.102   3.245
59143W        W30726  12.685   0.019  14.878
59144W        W30727  28.346  43.382   3.818
59145W        W30728  37.297  22.530   0.423
59146W        W30729  18.055  26.236  14.019
59147W        W30730  15.553  12.147  14.334
59148W        W30731  44.272  12.835  13.368
59149W        W30732  11.271  17.189   0.188
59150W        W30733  18.971  37.494  10.783
59151W        W30734   6.916  36.879   4.243
59152W        W30735  11.250  14.938  13.159
59153W        W30736  19.015  17.264   1.947
59154W        W30737  32.041  17.637  14.347
59155W        W30738  29.400  21.639  14.245
59156W        W30739  36.917  22.795  10.606
59157W        W30740  30.145  24.510   3.597
59158W        W30741  13.462  33.436  11.445
59159W        W30742  31.973  36.425   0.314
59160W        W30743  36.967   4.505  13.932
59161W        W30744   9.406  33.074   0.283
59162W        W30745  14.360  41.298   4.295
59163W        W30746  15.782  23.827  14.867
59164W        W30747  24.153  34.499  11.205
59165W        W30748  41.046  36.324   0.779
59166W        W30749  14.088  36.876  11.987
59167W        W30750  28.645  32.741  12.128
59168W        W30751  26.098  28.090   1.623
59169W        W30752   9.218   5.187   1.801
59170W        W30753  35.543   8.845  14.546
59171W        W30754  38.118  30.122  14.287
59172W        W30755  41.223   1.026  10.778
59173W        W30756   0.490  23.961  11.006
59174W        W30757  30.491  42.826   0.689
59175W        W30758   9.381  22.073  11.627
59176W        W30759   7.919  19.630   3.578
59177W        W30760   6.890   0.943  14.381
59178W        W30761  26.721  17.258   2.478
59179W        W30762  31.222   2.412   1.273
59180W        W30763   7.949  32.852  14.919
59181W        W30764   0.670  19.592  12.472
59182W        W30765  37.264  27.757  14.307
59183W        W30766   5.271  18.041   0.745
59184W        W30767  35.020   1.546   0.345
59185W        W30768  17.560  19.223  13.445
59186W        W30769  20.285  21.209   1.755
59187W        W30770   6.914   0.830   4.186
59188W        W30771  13.360  44.997   3.191
59189W        W30772  20.233  14.785  12.506
59190W        W30773  31.663  17.371  11.520
59191W        W30774  25.556  43.509  13.142
59192W        W30775  41.854   3.391  13.391
59193W        W30776  30.150  27.409   2.227
59194W        W30777  21.299  12.627  13.905
59195W        W30778  22.148  35.434   4.558
59196W        W30779  18.308  22.273  12.560
59197W        W30780  43.716   2.009  14.720
59198W        W30781   9.878   3.206  12.959
59199W        W30782  41.492  27.570  13.005
59200W        W30783  17.185  17.097  13.008
59201W        W30784  21.250  29.902  11.104
59202W        W30785  27.500  12.464   2.912
59203W        W30786  15.282   8.389  14.027
59204W        W30787  44.346  22.936   2.600
59205W        W30788  43.862  31.867  13.011
59206W        W30789  25.947   2.523   0.307
59207W        W30790  13.273  38.569   3.577
59208W        W30791  42.838  13.091  11.231
59209W        W30792   4.466   8.668   4.093
59210W        W30793  38.543  21.616  14.948
59211W        W30794  17.407  18.701   4.497
59212W        W30795  11.154  35.390   0.419
59213W        W30796   1.732  19.563  14.822
59214W        W30797   7.677   3.491   2.722
59215W        W30798  20.996  31.539   4.161
59216W        W30799  21.750  31.153  13.434
59217W        W30800  33.470  16.982  13.501
59218W        W30801  34.857   4.662   4.005
59219W        W30802  14.729   1.862  13.811
59220W        W30803  41.313  17.702   2.582
59221W        W30804  28.649  41.917   3.059
59222W        W30805  30.727  24.556   1.393
59223W        W30806  18.307  39.062  14.544
59224W        W30807  37.866   8.692  10.675
59225W        W30808   9.124   9.904   1.297
59226W        W30809  29.186  23.524   4.604
59227W        W30810   2.896  43.434   2.720
59228W        W30811   3.425  14.109   4.616
59229W        W30812   1.042  34.023   2.829
59230W        W30813  38.856  30.504  13.072
59231W        W30814   6.252   3.704   4.403
59232W        W30815   1.433   9.406  14.654
59233W        W30816   2.727  19.104  14.309
59234W        W30817  19.827   6.872  14.515
59235W        W30818  39.968  39.506   3.761
59236W        W30819  43.529   1.907  12.530
59237W        W30820  30.244  39.319  11.949
59238W        W30821  24.092  38.058   0.864
59239W        W30822   5.167  17.270   1.771
59240W        W30823  30.411  32.579   0.692
59241W        W30824   3.569  24.690  13.884
59242W        W30825  19.281   3.152   1.424
59243W        W30826  26.940  42.905   0.266
59244W        W30827  41.127  39.818   4.117
59245W        W30828  10.880  43.982   0.880
59246W        W30829  39.436  40.705  14.171
59247W        W30830  35.908  21.742  11.089
59248W        W30831  42.222   2.336   4.702
59249W        W30832  35.022  44.828   0.028
59250W        W30833  15.197  17.315   1.657
59251W        W30834  42.019  15.572   5.010
59252W        W30835  13.578  40.932  11.059
59253W        W30836   8.105  28.070   3.416
59254W        W30837  34.504   0.311  10.484
59255W        W30838  37.378  19.023   3.812
59256W        W30839  37.038  26.463   3.313
59257W        W30840  38.837  39.871   4.533
59258W        W30841   2.955   5.191  11.107
59259W        W30842  32.415  41.946   0.371
59260W        W30843  18.343  21.696  12.033
59261W        W30844  28.703  37.401  12.312
59262W        W30845  26.636  14.182  10.800
59263W        W30846   5.796  26.287  12.323
59264W        W30847  18.110  15.439  11.074
59265W        W30848  40.395   0.633  14.321
59266W        W30849  44.602  35.505   2.676
59267W        W30850   6.407  32.926   0.864
59268W        W30851   0.033  16.890   1.422
59269W        W30852   5.619  21.485   0.968
59270W        W30853  24.260  41.049  12.495
59271W        W30854   5.768  38.898   2.211
59272W        W30855  16.331  34.537  13.945
59273W        W30856  11.442  27.089   0.211
59274W        W30857  38.154   6.439   4.683
59275W        W30858  18.147  21.072   4.190
59276W        W30859  27.157  30.223   4.692
59277W        W30860  10.225  25.079   1.208
59278W        W30861  40.200   7.500  12.588
59279W        W30862   4.946   3.843   1.859
59280W        W30863   4.851   1.025   2.348
59281W        W30864   7.464  35.749   4.008
59282W        W30865  40.961  12.435  12.328
59283W        W30866  29.427  20.495   0.933
59284W        W30867  18.272  21.579   2.389
59285W        W30868  43.064   8.004  11.197
59286W        W30869  42.266  36.659   0.401
59287W        W30870  18.692  20.621   0.293
59288W        W30871   3.816  17.075  12.900
59289W        W30872  39.763  33.648  12.899
59290W        W30873   5.396  22.965   1.435
59291W        W30874  27.215   9.988   2.572
59292W        W30875  19.777   1.308  10.667
59293W        W30876  17.073  40.010   0.451
59294W        W30877  37.520  42.942   3.749
59295W        W30878   4.422  11.134   1.351
59296W        W30879  24.299   6.423   0.301
59297W        W30880  37.923  44.775  12.949
59298W        W30881  27.587  40.793  12.423
59299W        W30882  11.365   7.915  13.853
59300W        W30883  22.783  25.906   3.395
59301W        W30884  26.385  24.563   0.901
59302W        W30885  37.933  17.055   2.345
59303W        W30886  18.726   2.304  11.613
59304W        W30887  11.703  30.308   1.816
59305W        W30888  16.557  13.806  14.933
59306W        W30889  20.540  19.076  14.820
59307W        W30890  29.913  30.717  12.043
59308W        W30891  26.656  27.503   1.491
59309W        W30892  18.601   2.407  14.828
59310W        W30893   1.481  22.274  13.350
59311W        W30894   8.852  34.008   2.148
59312W        W30895  34.790  31.526   2.547
59313W        W30896  43.025   3.267   1.302
59314W        W30897  39.208   8.665   5.356
59315W        W30898   0.903  19.316   2.785
59316W        W30899  27.522  43.896  12.416
59317W        W30900  18.770  15.136   2.239
59318W        W30901  27.335  29.152   3.873
59319W        W30902  22.799  41.037  11.624
59320W        W30903   3.714  30.924  10.747
59321W        W30904  24.141  15.105   1.807
59322W        W30905   9.175  32.505   1.283
59323W        W30906  23.420  29.523   0.635
59324W        W30907  22.730  15.152   3.313
59325W        W30908  19.297  43.022  10.810
59326W        W30909  32.754   0.192  10.917
59327W        W30910   9.639  16.734  12.574
59328W        W30911   4.359  33.695  12.681
59329W        W30912  14.447  15.602  13.020
59330W        W30913  41.407   6.418   0.892
59331W        W30914  26.687   7.432  12.890
59332W        W30915  32.553  29.869   1.804
59333W        W30916  13.810   0.785   3.246
59334W        W30917   8.758  23.230   3.695
59335W        W30918  40.974  40.773   4.163
59336W        W30919  41.099  15.650  10.704
59337W        W30920  14.277  13.604  12.590
59338W        W30921  23.965   3.376  10.998
59339W        W30922  12.635  42.933   1.707
59340W        W30923  43.055  15.537   3.331
59341W        W30924   0.419  13.418  11.655
59342W        W30925  30.639  30.918  12.052
59343W        W30926  43.546  32.510  13.334
59344W        W30927  30.631  36.074  13.502
59345W        W30928  32.243  42.976   0.957
59346W        W30929  18.099  18.129  12.966
59347W        W30930  16.740  20.124  11.266
59348W        W30931   5.664  30.890   2.796
59349W        W30932  40.569  10.663   4.507
59350W        W30933  24.552   2.795   0.311
59351W        W30934  41.045  42.765   0.564
59352W        W30935  26.756   6.344   5.150
59353W        W30936  36.093   7.276  13.052
59354W        W30937   6.764  27.147  11.572
59355W        W30938  12.077   9.953   4.225
59356W        W30939  40.322   5.561  11.561
59357W        W30940  36.013   3.676  13.450
59358W        W30941  12.413  35.323   3.165
59359W        W30942  34.555  18.272  12.055
59360W        W30943  26.395  28.566  12.488
59361W        W30944  33.831  10.923  12.487
59362W        W30945  22.607  32.985   3.668
59363W        W30946  42.207  17.396   1.776
59364W        W30947  28.679   3.260   1.301
59365W        W30948  29.614  14.086   0.168
59366W        W30949   9.154  41.484   2.241
59367W        W30950  20.638  39.646   1.363
59368W        W30951  37.176  12.207  11.237
59369W        W30952  19.696  28.142  11.451
59370W        W30953  30.835  11.358  12.815
59371W        W30954   2.723  17.682  14.929
59372W        W30955  16.034   9.725   2.261
59373W        W30956  23.038   5.854  13.483
59374W        W30957   2.917  35.775  11.892
59375W        W30958   4.151  39.951   0.474
59376W        W30959  27.439  23.575  12.134
59377W        W30960  28.899  21.756   0.012
59378W        W30961  43.790  38.819   4.540
59379W        W30962  14.217  19.162  11.565
59380W        W30963  43.906  24.793  10.724
59381W        W30964  35.154  29.895   0.344
59382W        W30965   3.247  28.213   3.189
59383W        W30966  43.056  18.607   1.623
59384W        W30967  41.826  42.791   1.217
59385W        W30968  14.130  30.127  10.425
59386W        W30969   6.648  11.957   2.419
59387W        W30970  21.735  41.498   4.964
59388W        W30971  40.404  36.347   0.010
59389W        W30972   6.186  41.319   2.293
59390W        W30973  23.323   8.744  13.703
59391W        W30974  21.271  41.078   3.300
59392W        W30975  12.894  33.096   2.315
59393W        W30976  14.618  44.083   4.113
59394W        W30977  31.667  37.333   5.271
59395W        W30978  21.261  22.801  11.071
59396W        W30979  16.920  12.303  11.494
59397W        W30980  40.474  44.618  13.382
59398W        W30981  14.424   2.441  12.887
59399W        W30982  36.583   5.889  12.488
59400W        W30983  27.895  44.705   2.881
59401W        W30984  20.113  42.282  13.096
59402W        W30985   5.256  40.783  10.961
59403W        W30986   0.963  23.500  13.929
59404W        W30987   4.271  23.588   3.098
59405W        W30988  40.738  34.023  13.487
59406W        W30989  29.185  30.054   1.821
59407W        W30990  29.696  29.926   3.726
59408W        W30991   9.024   1.470  13.590
59409W        W30992   6.603   4.334  12.118
59410W        W30993  14.253  23.220   2.393
59411W        W30994  39.475  10.641  10.685
59412W        W30995   6.211  31.325  14.021
59413W        W30996  32.115  15.852   2.779
59414W        W30997  22.942  31.137   4.185
59415W        W30998  20.999  40.851  14.833
59416W        W30999  10.819  44.961   3.640
59417W        W31000  13.422  33.896  11.196
59418W        W31001  43.371   5.704   3.470
59419W        W31002  36.771  36.272  11.443
59420W        W31003  14.271   5.934  10.661
59421W        W31004   6.817  12.323   3.239
59422W        W31005  17.145  40.670  10.305
59423W        W31006  20.203  17.014  12.516
59424W        W31007  12.829  44.940  14.288
59425W        W31008  41.290  28.029  10.713
59426W        W31009  11.125   9.178   1.474
59427W        W31010  23.944  28.199   0.427
59428W        W31011  13.992  24.057   4.936
59429W        W31012  16.578  37.296   3.774
59430W        W31013  31.437   3.410   0.851
59431W        W31014  23.918   9.033   2.827
59432W        W31015  30.998  28.866  13.755
59433W        W31016  11.875  26.679  14.329
59434W        W31017  39.282  26.684  13.908
59435W        W31018  32.533  16.214  10.780
59436W        W31019  18.606  23.849  11.175
59437W        W31020   5.500   1.050   0.891
59438W        W31021  39.276  36.356  14.939
59439W        W31022  17.492  20.221  13.631
59440W        W31023  10.778  43.386  10.650
59441W        W31024  20.308  23.788   4.529
59442W        W31025   5.982   3.053   3.270
59443W        W31026   5.150  36.539  13.192
59444W        W31027  17.569   1.879   0.464
59445W        W31028   7.736  34.992  13.533
59446W        W31029  17.751  14.476   4.820
59447W        W31030  37.813  20.778   1.790
59448W        W31031  28.434  23.604   3.280
59449W        W31032  17.976   2.937   1.502
59450W        W31033   7.403   5.373  11.046
59451W        W31034  15.545  19.613  14.521
59452W        W31035  17.227   7.565  14.216
59453W        W31036  31.131  28.493   4.748
59454W        W31037  12.776  39.042   4.079
59455W        W31038  12.783  34.594  14.290
59456W        W31039  15.880  21.991  12.356
59457W        W31040  31.870  15.036   1.127
59458W        W31041  30.740  23.543  12.842
59459W        W31042  38.482   2.180   0.378
59460W        W31043  13.689   1.496  11.248
59461W        W31044   9.910  37.175   5.173
59462W        W31045   2.069  24.832  12.069
59463W        W31046   0.483  28.086   0.422
59464W        W31047  13.214   8.751   0.227
59465W        W31048   2.858  20.107  12.923
59466W        W31049  18.781  32.082  11.865
59467W        W31050   8.179   5.905   2.175
59468W        W31051  11.826  21.606   1.562
59469W        W31052  23.895  16.371  11.315
59470W        W31053   9.116  12.347   3.790
59471W        W31054  33.155  26.535   0.713
59472W        W31055   9.784  30.712   2.900
59473W        W31056  32.162  16.003   1.445
59474W        W31057  35.152  22.154  11.159
59475W        W31058  39.483  44.755   0.861
59476W        W31059   3.918  25.612   0.262
59477W        W31060  21.206  26.167  11.616
59478W        W31061  41.454  11.176   3.580
59479W        W31062  39.951  14.950  13.869
59480W        W31063  33.255  29.633  12.968
59481W        W31064  41.921  12.079  14.835
59482W        W31065   5.164   7.233   2.574
59483W        W31066  14.086  20.086  12.424
59484W        W31067  39.107  43.365  11.953
59485W        W31068  17.583  20.349  14.118
59486W        W31069  22.030  23.292  12.061
59487W        W31070  20.028  27.081  10.936
59488W        W31071  10.188  34.433  10.241
59489W        W31072   7.791  21.384  13.843
59490W        W31073  15.158   3.689  13.078
59491W        W31074   6.726  40.778  13.872
59492W        W31075  10.140   5.701  14.493
59493W        W31076  24.036  39.022   0.318
59494W        W31077  14.377  27.919   4.547
59495W        W31078   7.266  29.668   0.450
59496W        W31079  11.087  20.493   0.704
59497W        W31080  44.928  24.405   4.034
59498W        W31081   7.292  27.532  13.762
59499W        W31082  19.792  35.920  10.144
59500W        W31083   9.503  21.732  10.615
59501W        W31084  21.710  35.129  10.754
59502W        W31085  18.112  34.350  14.646
59503W        W31086   0.010   0.935  10.649
59504W        W31087   1.261  19.168  12.030
59505W        W31088  16.019  20.709  12.455
59506W        W31089  26.009  24.707  12.083
59507W        W31090  28.585  37.046  10.489
59508W        W31091   1.558  27.474  14.411
59509W        W31092  44.206  27.542   0.378
59510W        W31093  18.878  23.080   2.235
59511W        W31094  32.444  40.864  11.939
59512W        W31095  22.779  17.708   4.217
59513W        W31096  20.122  42.693   1.861
59514W        W31097   3.611  28.779  10.946
59515W        W31098  18.017  33.068  10.571
59516W        W31099  20.668  29.927  11.746
59517W        W31100   7.695  21.497   0.251
59518W        W31101  23.044   8.328  14.005
59519W        W31102   6.306   2.343  12.774
59520W        W31103  24.573   5.465   4.522
59521W        W31104   0.356  38.490  14.862
59522W        W31105  14.315  27.798   0.958
59523W        W31106  38.522  14.042   1.050
59524W        W31107   9.352  19.837  13.313
59525W        W31108  12.750  23.772   0.777
59526W        W31109  13.210  13.357  13.044
59527W        W31110  44.354  16.086   9.967
59528W        W31111   3.749  26.316  14.447
59529W        W31112  39.395  11.355  13.087
59530W        W31113  12.173  43.067   0.942
59531W        W31114  37.390  36.397  13.824
59532W        W31115  39.548   1.749  14.023
59533W        W31116  20.649   8.014  12.110
59534W        W31117  12.182  40.089   1.287
59535W        W31118  26.197  26.083   0.413
59536W        W31119   9.270  20.780  12.987
59537W        W31120  33.553   8.214   3.868
59538W        W31121  24.328   1.916  12.605
59539W        W31122  18.732  12.268   2.462
59540W        W31123  40.002  36.506   1.928
59541W        W31124  35.041   3.147   3.135
59542W        W31125  40.365  26.185   0.026
59543W        W31126  26.971  36.553   0.799
59544W        W31127   1.975  28.748  13.063
59545W        W31128  27.577  10.314   0.506
59546W        W31129   0.032  36.065  10.765
59547W        W31130  39.368   3.485   4.169
59548W        W31131  30.355   7.243  13.703
59549W        W31132  34.080   6.603   0.161
59550W        W31133  36.616  22.605  13.806
59551W        W31134  25.728  23.125  14.855
59552W        W31135   3.031  39.755   4.325
59553W        W31136  20.560  29.655  10.661
59554W        W31137  44.805  43.211  11.840
59555W        W31138  26.928  25.588  13.417
59556W        W31139   1.453  11.301   2.918
59557W        W31140  36.055  33.670  10.763
59558W        W31141  21.084   4.009  11.587
59559W        W31142   5.208  33.854  12.424
59560W        W31143  10.830  38.908   1.857
59561W        W31144  15.529   3.328  13.197
59562W        W31145  26.684  41.720  14.168
59563W        W31146   4.143  26.058  12.466
59564W        W31147   9.766  31.915   0.904
59565W        W31148   1.547   4.869  12.932
59566W        W31149  39.497  37.936  14.028
59567W        W31150   3.345  43.889   0.608
59568W        W31151  28.906  21.642   2.482
59569W        W31152  28.909  38.030  13.067
59570W        W31153   7.665  22.661   1.215
59571W        W31154  20.514   0.478  14.859
59572W        W31155  11.421  11.570  14.784
59573W        W31156  34.314   9.290  12.514
59574W        W31157  42.111  25.665   0.838
59575W        W31158   7.596  35.208   3.995
59576W        W31159  15.185  23.044  11.266
59577W        W31160  27.054  30.954   3.684
59578W        W31161   9.679  44.169  11.579
59579W        W31162  41.047  27.116  11.168
59580W        W31163  28.790  28.620   4.206
59581W        W31164   3.725  20.715   4.142
59582W        W31165  11.194  29.250  11.098
59583W        W31166   6.654  31.541   2.606
59584W        W31167  20.007  28.036   1.389
59585W        W31168  10.926  10.742   1.776
59586W        W31169   0.390   4.834   1.542
59587W        W31170  39.776  33.455   1.417
59588W        W31171  27.211  38.119  12.595
59589W        W31172  40.390  23.714  12.093
59590W        W31173  22.044  31.526  10.680
59591W        W31174  13.903  22.014   0.922
59592W        W31175  33.662  32.027  14.442
59593W        W31176   1.496  18.995   3.657
59594W        W31177  18.594  42.356  14.353
59595W        W31178  27.991  13.687   4.375
59596W        W31179  37.414  21.190   2.805
59597W        W31180   9.300  14.803  12.423
59598W        W31181  38.075   7.798  11.964
59599W        W31182  14.381  25.245  14.367
59600W        W31183  39.858  25.100   4.552
59601W        W31184  37.390  42.594  10.959
59602W        W31185  12.872  33.492   1.618
59603W        W31186  16.466   0.114  14.985
59604W        W31187  31.254  12.924   0.967
59605W        W31188   5.904  32.023  12.401
59606W        W31189  17.094  17.577  12.566
59607W        W31190  40.462  21.154  11.184
59608W        W31191   4.865  42.521   3.276
59609W        W31192  35.534  21.262  12.097
59610W        W31193  10.759  34.470   3.798
59611W        W31194   5.968   9.113   1.733
59612W        W31195   9.284  28.780  12.609
59613W        W31196  30.441  21.891   1.413
59614W        W31197  26.543  19.525   3.057
59615W        W31198  29.603  44.616   3.739
59616W        W31199   9.349  35.942  10.580
59617W        W31200  35.101  25.748  14.018
59618W        W31201  33.831   2.267   1.878
59619W        W31202   3.934  15.184  10.722
59620W        W31203  34.638  16.356  13.349
59621W        W31204  39.732   5.664  12.416
59622W        W31205   0.890   7.873  13.605
59623W        W31206  44.532  37.868  12.348
59624W        W31207  44.900   3.516  12.740
59625W        W31208  32.087  37.955  13.452
59626W        W31209  39.294   6.136   3.297
59627W        W31210  16.119  21.975  14.340
59628W        W31211  24.124  44.976  11.536
59629W        W31212  42.773  38.038   2.556
59630W        W31213   0.721  34.673   5.117
59631W        W31214  30.635  39.942   4.607
59632W        W31215  13.233  36.328  12.957
59633W        W31216  40.338  23.665   4.642
59634W        W31217  32.656  11.763  12.618
59635W        W31218  23.045  34.090   3.664
59636W        W31219  32.827  34.081  11.909
59637W        W31220   1.211  44.389  12.436
59638W        W31221  14.023   4.877   2.708
59639W        W31222   5.614  28.412   0.386
59640W        W31223   6.594  26.594  13.500
59641W        W31224  18.520  43.560   0.053
59642W        W31225  31.761  43.032   1.856
59643W        W31226  39.815  42.942  11.052
59644W        W31227  11.637  41.870   1.273
59645W        W31228  26.265  24.031  11.414
59646W        W31229  31.423  41.861   4.593
59647W        W31230  10.816  37.464   4.178
59648W        W31231  44.015   0.955   4.049
59649W        W31232  20.105  12.879   1.041
59650W        W31233  35.462  18.283  11.966
59651W        W31234  40.268  27.467   1.362
59652W        W31235  35.126   5.980  11.168
59653W        W31236  23.990  28.760   2.510
59654W        W31237   4.739  16.331   1.324
59655W        W31238  23.470  25.038  13.852
59656W        W31239  25.392  25.628   4.196
59657W        W31240  43.185  23.985   1.321
59658W        W31241  17.560   2.905  13.072
59659W        W31242  13.889  26.199   3.551
59660W        W31243  21.232  37.867   4.427
59661W        W31244  11.069  38.247  11.816
59662W        W31245  30.784   4.711   5.195
59663W        W31246  28.579  34.493   1.863
59664W        W31247  22.230   7.245   2.734
59665W        W31248  32.178  19.806   4.141
59666W        W31249  32.772  24.507   2.376
59667W        W31250  32.607  31.522   3.778
59668W        W31251  20.034  35.076   0.787
59669W        W31252  16.245  29.521  11.047
59670W        W31253   9.639  15.255   4.817
59671W        W31254  16.293  10.299   0.504
59672W        W31255  43.491  21.804  12.867
59673W        W31256   0.680  20.963  10.205
59674W        W31257   3.766   4.832  12.554
59675W        W31258   5.177  24.461  13.536
59676W        W31259   7.049  31.152  14.586
59677W        W31260  15.063  44.903   4.074
59678W        W31261  25.672  19.715   0.416
59679W        W31262  34.099  27.603  12.513
59680W        W31263  20.062  13.686  12.696
59681W        W31264  22.274  27.846   1.927
59682W        W31265  37.028  23.764  11.024
59683W        W31266  25.121  26.745  14.667
59684W        W31267  13.177   2.456   1.599
59685W        W31268   5.868  39.361   4.721
59686W        W31269  31.090   2.188   0.364
59687W        W31270   8.208   2.327   4.803
59688W        W31271  10.417   8.259   2.306
59689W        W31272  35.885  37.664   4.659
59690W        W31273  40.218  42.766   0.890
59691W        W31274  22.114  40.778  11.175
59692W        W31275  19.179  30.842  13.880
59693W        W31276   9.143  44.560   1.350
59694W        W31277  23.148   6.649   2.842
59695W        W31278  13.150  43.491  14.356
59696W        W31279  20.892   3.660  10.098
59697W        W31280   1.487   4.736   3.405
59698W        W31281   8.177   6.065   0.028
59699W        W31282  38.076  17.805  13.022
59700W        W31283  22.262  17.286   3.703
59701W        W31284  26.241  36.034   1.398
59702W        W31285  35.505   6.641  11.192
59703W        W31286  29.417   8.779  11.493
59704W        W31287  29.104  14.160   3.614
59705W        W31288  39.001  43.280  13.891
59706W        W31289   9.771   5.206  12.935
59707W        W31290  24.487  43.255   3.173
59708W        W31291   5.003  41.133   3.258
59709W        W31292  18.155  34.513  11.816
59710W        W31293   2.879   2.419  14.254
59711W        W31294  37.556  13.572  12.120
59712W        W31295  27.740  15.271   0.424
59713W        W31296  38.479  38.630   3.262
59714W        W31297   3.219  35.032   1.487
59715W        W31298  37.841  33.898   4.770
59716W        W31299  28.410  44.239   5.041
59717W        W31300   2.799  41.296   4.177
59718W        W31301  44.757  41.334  11.878
59719W        W31302  35.692  10.170  11.546
59720W        W31303  13.088  13.869  13.102
59721W        W31304  17.656  34.399  11.967
59722W        W31305  29.451  19.805  12.033
59723W        W31306  28.637   2.949  12.986
59724W        W31307   5.559  40.129   1.293
59725W        W31308  15.600  15.870  13.391
59726W        W31309   6.847   9.308   1.229
59727W        W31310   1.272  25.650  12.459
59728W        W31311  43.444  10.306   1.430
59729W        W31312  19.181  21.269   3.224
59730W        W31313   1.751  17.909   2.763
59731W        W31314  24.038   5.953   0.310
59732W        W31315  11.747  42.303   0.959
59733W        W31316  11.093  16.444  13.957
59734W        W31317  41.392  24.121   4.147
59735W        W31318   3.735  32.284   0.843
59736W        W31319   3.227  19.368   1.257
59737W        W31320  38.600  14.381   3.741
59738W        W31321  25.062  28.702  12.735
59739W        W31322  27.176  44.793  14.036
59740W        W31323   0.747  20.228   3.654
59741W        W31324  40.307  10.307  13.544
59742W        W31325  19.668  18.601   4.235
59743W        W31326   9.178  27.609  13.901
59744W        W31327  34.279   5.962   2.704
59745W        W31328   8.630  14.532  11.850
59746W        W31329  40.447   4.314  13.020
59747W        W31330   9.670  41.804  11.608
59748W        W31331  26.219  25.818  12.960
59749W        W31332  26.037  30.197   0.505
59750W        W31333  16.564  23.154  11.155
59751W        W31334  10.669   7.447   1.893
59752W        W31335  13.397  40.094   3.716
59753W        W31336  15.647   3.242   2.826
59754W        W31337  43.760   4.146   1.762
59755W        W31338  21.821   6.933   2.588
59756W        W31339  38.176  31.824  11.967
59757W        W31340   3.754  37.435  11.057
59758W        W31341  35.642  42.739  12.063
59759W        W31342   0.965  28.866  12.894
59760W        W31343  21.173  12.639   0.627
59761W        W31344  23.642  15.832  14.980
59762W        W31345  28.050   0.824   0.803
59763W        W31346  41.008  38.955   3.084
59764W        W31347  39.032  32.003  13.540
59765W        W31348   5.969  34.904  12.457
59766W        W31349  43.549   3.813  13.471
59767W        W31350  40.924  30.143  12.925
59768W        W31351  26.997  21.305   0.376
59769W        W31352  15.751  39.432  10.588
59770W        W31353  30.439  16.706   0.485
59771W        W31354   0.498  24.020   2.695
59772W        W31355  15.543  10.869  14.794
59773W        W31356  34.345  35.844  11.452
59774W        W31357   0.991   3.324  14.813
59775W        W31358  32.351  18.276   0.990
59776W        W31359  40.318  29.364   0.811
59777W        W31360  23.211   3.833  10.636
59778W        W31361  38.855   5.704   3.166
59779W        W31362  21.534  28.736   2.301
59780W        W31363   6.880  43.457  13.720
59781W        W31364  34.483   7.794  11.147
59782W        W31365  12.618  21.958   4.033
59783W        W31366  11.441  15.073   2.597
59784W        W31367  13.287  21.197   0.176
59785W        W31368  16.219  38.501   4.627
59786W        W31369   0.635  15.707   1.277
59787W        W31370  33.973  29.945   0.545
59788W        W31371  35.571  28.644   1.797
59789W        W31372  27.220  41.483  12.437
59790W        W31373  23.265  37.528   3.618
59791W        W31374  22.504  21.533   0.896
59792W        W31375  18.627   7.007  12.243
59793W        W31376  28.178  35.693   2.881
59794W        W31377  42.980   4.459  11.176
59795W        W31378  14.848  12.934   2.865
59796W        W31379  19.747  33.026   4.582
59797W        W31380  32.551   6.668  12.376
59798W        W31381  42.932   4.956  14.491
59799W        W31382  18.786  14.085   9.880
59800W        W31383   2.944  31.914  12.039
59801W        W31384  32.420  23.474  14.853
59802W        W31385  41.849  40.159   1.495
59803W        W31386  21.660  16.734  10.290
59804W        W31387  27.143  28.717  13.577
59805W        W31388  14.841  11.012   2.700
59806W        W31389   6.480  16.540  12.524
59807W        W31390  11.221  12.222  10.726
59808W        W31391  40.724   5.814   3.228
59809W        W31392   7.160  11.722  12.865
59810W        W31393  34.331  16.558  14.252
59811W        W31394  23.955  36.137  10.519
59812W        W31395  19.531  43.992   2.764
59813W        W31396  32.186  24.760   3.787
59814W        W31397  24.438  14.849  13.521
59815W        W31398  27.783  35.733   2.380
59816W        W31399  19.056  27.407   3.875
59817W        W31400  40.024  12.846   0.504
59818W        W31401  19.796  15.721   3.088
59819W        W31402  43.332   9.115   3.500
59820W        W31403  17.497   0.358  11.066
59821W        W31404  30.203   0.492   4.686
59822W        W31405  38.967  18.348  11.622
59823W        W31406   8.586   2.404   3.877
59824W        W31407  22.142  30.409   1.938
59825W        W31408   7.873  16.472  12.964
59826W        W31409  14.260  11.414   3.647
59827W        W31410  38.204  21.980  10.598
59828W        W31411  12.164  15.019  14.875
59829W        W31412   9.099   8.593  11.186
59830W        W31413  32.346  10.361   0.364
59831W        W31414  31.311  15.667   2.305
59832W        W31415  39.368  12.564   2.614
59833W        W31416   9.798  15.831  14.881
59834W        W31417  18.652  40.314  12.534
59835W        W31418  44.848  24.375   4.938
59836W        W31419  20.251  38.371  14.349
59837W        W31420  22.981   1.233  13.899
59838W        W31421  44.745  22.814  10.118
59839W        W31422  16.112  25.547  12.035
59840W        W31423  37.862   3.499  13.897
59841W        W31424  43.776  16.524   1.879
59842W        W31425  10.937   2.360   2.302
59843W        W31426  15.332  41.529  13.462
59844W        W31427   7.264  37.356   1.793
59845W        W31428  30.613  24.266   4.097
59846W        W31429   3.694  23.257   0.766
59847W        W31430  20.841  39.919   2.717
59848W        W31431   9.942  43.442  11.868
59849W        W31432  32.498   2.405  13.984
59850W        W31433   9.510  22.683  10.573
59851W        W31434  16.426  26.978  12.378
59852W        W31435  14.135   8.650   2.632
59853W        W31436  12.375   5.817   2.407
59854W        W31437   2.775  41.702   1.384
59855W        W31438  42.473  14.040  14.665
59856W        W31439  15.358   8.279   0.982
59857W        W31440  37.374  18.207  10.581
59858W        W31441  31.874  35.496  11.674
59859W        W31442  35.951   6.140  10.560
59860W        W31443   2.447  21.502  10.693
59861W        W31444  41.769  31.605   1.990
59862W        W31445  41.860  31.925   2.597
59863W        W31446  25.788  40.863  10.775
59864W        W31447   5.371  42.585   3.258
59865W        W31448  12.028  29.127  14.296
59866W        W31449   9.348  13.049  13.430
59867W        W31450  19.750  15.292   4.437
59868W        W31451  15.320  42.456  11.201
59869W        W31452  21.618  10.364  14.851
59870W        W31453  43.776  21.095   0.398
59871W        W31454  28.217  25.485   3.582
59872W        W31455  22.520  26.311  12.081
59873W        W31456  44.240  13.870   9.879
59874W        W31457  39.801  20.251  12.584
59875W        W31458  39.178  11.110  12.266
59876W        W31459  21.510   4.015  10.998
59877W        W31460  25.609  20.354   1.743
59878W        W31461  22.976  43.984  13.486
59879W        W31462   1.922  38.598   2.122
59880W        W31463   7.179   3.252   1.696
59881W        W31464  12.814   7.808  12.091
59882W        W31465  33.844  27.361   1.280
59883W        W31466   5.908  29.031  12.609
59884W        W31467  16.574  34.527  14.409
59885W        W31468  40.407  21.773  12.425
59886W        W31469  30.189  17.959  12.565
59887W        W31470  30.422   1.188   3.626
59888W        W31471  30.611  32.420  11.921
59889W        W31472  32.137  33.054  11.699
59890W        W31473  44.342  27.004   1.375
59891W        W31474  15.135  15.461  11.432
59892W        W31475  35.012  41.517   4.500
59893W        W31476  14.555  25.930  10.776
59894W        W31477  27.999  14.078  11.172
59895W        W31478   9.796   1.674  10.702
59896W        W31479  43.857  34.532  14.235
59897W        W31480  43.422  29.009   0.305
59898W        W31481  35.075  29.638   4.161
59899W        W31482  27.235  16.116  14.349
59900W        W31483  40.521  30.485   4.261
59901W        W31484   6.689  10.408  11.532
59902W        W31485  16.973  26.678  14.324
59903W        W31486  34.395   6.083  11.323
59904W        W31487   4.956  12.191   2.139
59905W        W31488  14.149  44.691  12.013
59906W        W31489  15.599  43.688   2.682
59907W        W31490  28.922  26.924  11.205
59908W        W31491  19.881  38.982  10.334
59909W        W31492  39.343  22.159   4.114
59910W        W31493  21.477  16.360  11.478
59911W        W31494  40.950  19.137  14.584
59912W        W31495   9.378   2.765   2.661
59913W        W31496  28.739  31.339   1.964
59914W        W31497  24.067   8.299  13.050
59915W        W31498  11.953  23.241  11.407
59916W        W31499  31.118  42.883  11.056
59917W        W31500  41.483  41.248  14.380
59918W        W31501  20.172  40.907  12.398
59919W        W31502   7.844  39.605  13.089
59920W        W31503  24.429  32.071   4.691
59921W        W31504  38.569  30.882  13.291
59922W        W31505  39.470  34.553   0.308
59923W        W31506  41.901  39.239   2.720
59924W        W31507  23.120  35.181   0.306
59925W        W31508  33.477   0.388   1.918
59926W        W31509  23.509  29.959   0.916
59927W        W31510  11.792  10.790  13.562
59928W        W31511   1.343  38.324  13.305
59929W        W31512  41.530  31.520   4.666
59930W        W31513   6.132  34.899   2.031
59931W        W31514  27.157  12.842   5.441
59932W        W31515  44.028   8.402   2.749
59933W        W31516  20.285  42.943  13.376
59934W        W31517  15.666  29.144   4.798
59935W        W31518  13.810  38.105   3.155
59936W        W31519  17.755  13.877  11.678
59937W        W31520  16.144  35.131  11.401
59938W        W31521  32.624   3.312  14.025
59939W        W31522   8.392   3.769   1.476
59940W        W31523  37.296  27.153  13.017
59941W        W31524  39.391  23.995   2.310
59942W        W31525  18.695  35.564   2.671
59943W        W31526  13.018  14.320  11.265
59944W        W31527   3.984  30.187   4.605
59945W        W31528  25.009  18.417   2.978
59946W        W31529  42.695  43.654   1.380
59947W        W31530  10.632  20.685   0.915
59948W        W31531  37.271   3.525  14.906
59949W        W31532   8.813  44.994  14.912
59950W        W31533  16.743   1.722  12.253
59951W        W31534   6.254  29.638   2.060
59952W        W31535   6.898  26.303   4.283
59953W        W31536   4.797  35.810  13.935
59954W        W31537  13.810  36.825   0.026
59955W        W31538  17.199  25.544   0.518
59956W        W31539  19.921  16.206   1.835
59957W        W31540  16.694   8.202   1.608
59958W        W31541   3.997  34.413   4.858
59959W        W31542  35.497   6.134  13.486
59960W        W31543  27.232  33.437   9.785
59961W        W31544  30.518  28.646   0.295
59962W        W31545  41.452   5.125   3.268
59963W        W31546   3.734   9.378   0.689
59964W        W31547  28.683  23.802  13.441
59965W        W31548  17.716   8.650  11.781
59966W        W31549  23.416   3.496   4.165
59967W        W31550  32.915   0.076  14.180
59968W        W31551  18.071  11.979  13.910
59969W        W31552   8.359  43.337   2.866
59970W        W31553  21.537  32.761  11.224
59971W        W31554  43.973  33.176  14.941
59972W        W31555  13.741  12.941   0.740
59973W        W31556  38.687   3.955  14.364
59974W        W31557  21.555  30.996   3.229
59975W        W31558   9.155  43.352   3.398
59976W        W31559  37.516  28.373  11.462
59977W        W31560  30.953  20.213  10.613
59978W        W31561  26.594  16.045  11.548
59979W        W31562  35.994  42.225  13.807
59980W        W31563  26.176  18.324   0.889
59981W        W31564  44.735  41.540   0.531
59982W        W31565  37.620  18.476  11.588
59983W        W31566  36.367   5.516   3.137
59984W        W31567  41.288   5.422   1.849
59985W        W31568  36.377  18.126  10.539
59986W        W31569   7.659   3.424   1.799
59987W        W31570  23.283  30.414   2.223
59988W        W31571  13.815  12.231  11.501
59989W        W31572  15.547  32.074   0.526
59990W        W31573  21.657  15.571   1.905
59991W        W31574  26.689  40.563  12.988
59992W        W31575  27.331  39.542  12.898
59993W        W31576  25.211  24.809  12.496
59994W        W31577  15.661  10.355  14.896
59995W        W31578  19.680  37.055  11.420
59996W        W31579  12.751  23.553  10.762
59997W        W31580  36.431  30.565  12.767
59998W        W31581  39.754  11.246  11.511
59999W        W31582  41.230   7.275   1.341
60000W        W31583  16.804  11.309   0.870
60001W        W31584  36.257  27.770   2.456
60002W        W31585  13.777  22.773   0.458
60003W        W31586  39.515   4.787  10.051
60004W        W31587   5.110   7.343  12.890
60005W        W31588  10.409  44.934   0.464
60006W        W31589  32.837  43.281  11.113
60007W        W31590  41.528   1.913   1.969
60008W        W31591   7.147  40.406  11.903
60009W        W31592  20.985  25.139   0.778
60010W        W31593  22.245  42.696   2.877
60011W        W31594  32.648  20.558   1.292
60012W        W31595  12.235  26.737   0.273
60013W        W31596  39.196  44.396   4.975
60014W        W31597  37.444  40.587   1.408
60015W        W31598  20.814  40.120  13.299
60016W        W31599  41.787  44.116   0.691
60017W        W31600  25.263   8.570   0.688
60018W        W31601  44.357  12.188   0.012
60019W        W31602   3.293   4.622   0.012
60020W        W31603  11.098  15.369  11.469
60021W        W31604  33.682  30.030  11.366
60022W        W31605  12.384  17.738   0.555
60023W        W31606  32.480  18.713   4.597
60024W        W31607  28.916  25.901  14.402
60025W        W31608   6.099  21.581  12.417
60026W        W31609  30.857   4.221   4.028
60027W        W31610   6.887  32.163   1.756
60028W        W31611  38.950  27.627  13.688
60029W        W31612  29.376  41.990  11.645
60030W        W31613  34.245  12.230   1.304
60031W        W31614  23.634  21.510  13.296
60032W        W31615   9.685  13.634  13.008
60033W        W31616  19.613  17.528  11.623
60034W        W31617  28.645  24.112   1.954
60035W        W31618  40.743  24.506  10.787
60036W        W31619  42.655  42.151  11.256
60037W        W31620  16.607  24.092  13.700
60038W        W31621  43.961  32.510   0.789
60039W        W31622  40.921  10.350   4.685
60040W        W31623  13.669  22.821   1.932
60041W        W31624  11.784  25.794  12.084
60042W        W31625  19.340  10.449   1.396
60043W        W31626  15.768  26.435   4.628
60044W        W31627  10.335   3.588  14.121
60045W        W31628  43.754  16.428  13.917
60046W        W31629  33.138  16.197   3.399
60047W        W31630  37.749  13.063   0.498
60048W        W31631  22.470  42.046   0.460
60049W        W31632  28.003  11.896   4.248
60050W        W31633  17.844   5.917  12.445
60051W        W31634  29.434  25.636   2.389
60052W        W31635  15.182  40.912   2.279
60053W        W31636  13.041  40.259  11.643
60054W        W31637  12.598  27.150  12.308
60055W        W31638  17.852  32.304   1.235
60056W        W31639  18.820   3.479  13.018
60057W        W31640  14.780   3.219   3.171
60058W        W31641  28.355  14.176   3.248
60059W        W31642  34.773   9.543  12.590
60060W        W31643  13.346  36.739  11.031
60061W        W31644  28.985  35.801  11.589
60062W        W31645  15.633   1.948  13.820
60063W        W31646  40.573   5.219   4.132
60064W        W31647  10.912   2.988  13.488
60065W        W31648  15.707   0.568   3.178
60066W        W31649   4.021  40.029  12.707
60067W        W31650  44.797   8.326  13.075
60068W        W31651   2.465  19.838  11.969
60069W        W31652  30.642  30.217  12.890
60070W        W31653  27.743  12.739   3.833
60071W        W31654   3.059  31.594  13.434
60072W        W31655  18.716  36.431  14.486
60073W        W31656  12.742  12.257  13.430
60074W        W31657  36.483  12.182   0.959
60075W        W31658  26.091  19.310   3.685
60076W        W31659  43.328  14.817  14.991
60077W        W31660  10.344  15.664  12.128
60078W        W31661   2.341  25.519   0.544
60079W        W31662  41.524   9.659  13.925
60080W        W31663  37.407  19.815  12.500
60081W        W31664   6.807  18.789   0.520
60082W        W31665   0.881  17.053   0.391
60083W        W31666  44.320  12.652  11.546
60084W        W31667  28.366  36.125   1.783
60085W        W31668  22.417  38.830   3.977
60086W        W31669   9.563  14.552  14.866
60087W        W31670  16.376  21.702   1.419
60088W        W31671   4.724   2.244   0.044
60089W        W31672  33.423  43.331  11.973
60090W        W31673  10.280  44.469  13.605
60091W        W31674  28.616  31.803   4.204
60092W        W31675  22.607  30.577  12.411
60093W        W31676  36.036  39.041   2.771
60094W        W31677   9.348   7.899   1.348
60095W        W31678  38.595  38.727  11.533
60096W        W31679   8.424  35.662  14.418
60097W        W31680  33.276  27.649   2.096
60098W        W31681  37.376  39.304   1.747
60099W        W31682  42.091  44.253  13.533
60100W        W31683  15.654  17.627   4.891
60101W        W31684  29.915  11.825  14.995
60102W        W31685   0.492  28.592   2.984
60103W        W31686  37.801   3.448   4.248
60104W        W31687  18.945  23.559   2.610
60105W        W31688  42.444  21.198   3.392
60106W        W31689  23.951  21.785   0.893
60107W        W31690  11.021  31.464   3.300
60108W        W31691  20.190  37.483  10.258
60109W        W31692   5.319  11.722   0.500
60110W        W31693  22.919  17.401   0.032
60111W        W31694  22.002  44.949   0.237
60112W        W31695  40.403  14.707  13.878
60113W        W31696  38.194  28.810   3.698
60114W        W31697   4.665  32.891  13.395
60115W        W31698  35.946  39.968   4.644
60116W        W31699  34.107  27.544   1.717
60117W        W31700  42.232  37.704   0.377
60118W        W31701  21.697  14.143  13.485
60119W        W31702  19.092  18.338  12.046
60120W        W31703  36.551  11.426   4.611
60121W        W31704  25.050  12.133   0.216
60122W        W31705  35.369  26.084  11.533
60123W        W31706   1.263  11.783  14.845
60124W        W31707  23.598   3.330  13.774
60125W        W31708  20.098  34.118  14.034
60126W        W31709  31.058   2.310   3.944
60127W        W31710  21.053  28.904   2.469
60128W        W31711  16.614  26.694   0.644
60129W        W31712  43.251  35.344   4.192
60130W        W31713   7.239  39.837  10.710
60131W        W31714  25.062  41.440   3.511
60132W        W31715  42.853  39.053   2.250
60133W        W31716  11.484  11.979   3.649
60134W        W31717   4.709  17.079  12.398
60135W        W31718   0.166   0.111  13.943
60136W        W31719  20.488  39.919   4.403
60137W        W31720  22.981  12.773  12.593
60138W        W31721  30.479   0.316  11.611
60139W        W31722  36.518  28.122   0.251
60140W        W31723   0.553  24.656   3.372
60141W        W31724  13.423  41.892   3.689
60142W        W31725  15.198  10.868   3.926
60143W        W31726   3.042  42.246  13.399
60144W        W31727  17.675   8.703  13.029
60145W        W31728  23.458  38.843  11.614
60146W        W31729  13.868  34.122  11.039
60147W        W31730   5.661  26.060  10.962
60148W        W31731   5.038   6.673  14.846
60149W        W31732  34.001  20.107  14.106
60150W        W31733  43.857  22.856   3.559
60151W        W31734  34.830  33.480   3.226
60152W        W31735  11.039  43.697  13.947
60153W        W31736  20.752  25.818   2.141
60154W        W31737  27.525  10.048  10.415
60155W        W31738  13.222   5.893   4.561
60156W        W31739  44.150  19.192   4.894
60157W        W31740  24.572  11.321   0.044
60158W        W31741  26.512  29.057  11.963
60159W        W31742  35.062  17.089   5.085
60160W        W31743  20.372   8.743  12.365
60161W        W31744  19.156  27.533   4.376
60162W        W31745  41.867   4.468  11.379
60163W        W31746  39.516  32.915   4.202
60164W        W31747  14.762  42.542  10.554
60165W        W31748  23.961   1.690   2.326
60166W        W31749  21.489  19.588  12.463
60167W        W31750  24.957  30.814   4.539
60168W        W31751  14.199  29.759   1.224
60169W        W31752  17.591  23.481   1.829
60170W        W31753  36.223  31.930   9.996
60171W        W31754  11.863   4.351  11.138
60172W        W31755  20.085  40.404   1.778
60173W        W31756  44.731  32.086   2.961
60174W        W31757  10.259  22.125  13.698
60175W        W31758  44.808   3.858  11.096
60176W        W31759   9.896  40.945   0.923
60177W        W31760  42.360   9.239   4.391
60178W        W31761   3.957  38.363   2.292
60179W        W31762   5.280  19.912   4.321
60180W        W31763  12.393  37.326  14.935
60181W        W31764  27.251  38.718  13.250
60182W        W31765  17.847  14.283  12.419
60183W        W31766  40.709  15.617  12.582
60184W        W31767  18.958  26.317   0.865
60185W        W31768  31.659  10.076   1.852
60186W        W31769  17.092   2.187   3.196
60187W        W31770  39.646  41.360   4.002
60188W        W31771  15.659   9.882   1.484
60189W        W31772  17.874  30.640  10.532
60190W        W31773   3.549  17.683   1.319
60191W        W31774  40.818  21.647  11.046
60192W        W31775  28.433  36.238   0.886
60193W        W31776  37.030  37.099   1.313
60194W        W31777  12.805   7.384  11.799
60195W        W31778   7.890  16.649  14.281
60196W        W31779  12.744  33.074   4.930
60197W        W31780  18.946   0.633   1.386
60198W        W31781  11.274  10.600   2.878
60199W        W31782   4.825  12.575   4.573
60200W        W31783   0.584   4.004   1.746
60201W        W31784   2.203  26.316  14.755
60202W        W31785  29.495  11.883   3.367
60203W        W31786  42.323   8.187  13.636
60204W        W31787  12.347  31.453  10.963
60205W        W31788  40.643  21.072   1.372
60206W        W31789  15.561  42.612   4.077
60207W        W31790   4.466  39.424  10.590
60208W        W31791   4.853   4.750   1.974
60209W        W31792   3.478  39.558  10.621
60210W        W31793  41.362  38.075   0.776
60211W        W31794  13.112  30.667   2.222
60212W        W31795  43.849  10.207  14.124
60213W        W31796   3.837  24.190   0.023
60214W        W31797  35.468  23.599   3.367
60215W        W31798  15.399  25.489   4.358
60216W        W31799  26.946  33.536  13.616
60217W        W31800  31.565  22.490  13.372
60218W        W31801  26.999  30.193  12.428
60219W        W31802  44.491  36.016   4.564
60220W        W31803   3.247  13.010   3.145
60221W        W31804  20.392  44.590  13.900
60222W        W31805  42.956  33.742  13.144
60223W        W31806   9.254  20.035   3.191
60224W        W31807  38.911  33.746   2.234
60225W        W31808  25.995  16.525  14.940
60226W        W31809  14.134   3.485  13.028
60227W        W31810   7.338  18.095   0.260
60228W        W31811   3.558  42.006   3.258
60229W        W31812  39.926  40.645  13.735
60230W        W31813  12.236  34.637  13.860
60231W        W31814  18.855  34.992  11.114
60232W        W31815  44.977  35.547  12.588
60233W        W31816  17.257  44.537  12.791
60234W        W31817  34.896  12.358   3.644
60235W        W31818  10.609   5.692   2.672
60236W        W31819  12.284  23.757   0.486
60237W        W31820  12.626  25.738  11.165
60238W        W31821  40.574   3.496   2.293
60239W        W31822  17.169  36.848  14.242
60240W        W31823  22.981  17.672   5.238
60241W        W31824  32.906  33.858   0.798
60242W        W31825  24.671  32.926   4.553
60243W        W31826   8.285  37.888  11.534
60244W        W31827  37.767  23.497  11.725
60245W        W31828  31.140   5.456   2.368
60246W        W31829   6.633  12.165   3.693
60247W        W31830  36.975  37.370   1.891
60248W        W31831   8.814  30.596   0.407
60249W        W31832  25.597  40.570  11.154
60250W        W31833  24.292  40.609   2.680
60251W        W31834  29.418   6.938  11.559
60252W        W31835  18.437  40.981   3.829
60253W        W31836  13.946  31.388  13.459
60254W        W31837  25.250  21.591   4.527
60255W        W31838   5.838  37.655  12.883
60256W        W31839   4.687  35.115  12.040
60257W        W31840  40.570  12.601   1.861
60258W        W31841  29.872  14.360  11.108
60259W        W31842  32.850  14.616   1.860
60260W        W31843   6.555  18.593   0.944
60261W        W31844  30.445  17.519  12.716
60262W        W31845   9.363  29.749   3.199
60263W        W31846  43.127  33.444   5.259
60264W        W31847  16.514   6.694  11.030
60265W        W31848   8.413  35.066  12.736
60266W        W31849  26.739   0.314   3.599
60267W        W31850  13.117  22.799  14.325
60268W        W31851  33.397  32.954  14.053
60269W        W31852  11.616  43.958   1.861
60270W        W31853  24.430   9.776  11.012
60271W        W31854   1.907   8.639  11.193
60272W        W31855   0.701  30.292   4.954
60273W        W31856  26.576  10.324  10.037
60274W        W31857  39.935   2.874   1.200
60275W        W31858  27.028  35.010   0.308
60276W        W31859  35.285  33.998  10.555
60277W        W31860   5.351  15.872   2.252
60278W        W31861  11.967  11.767   3.738
60279W        W31862   2.632  42.217  11.635
60280W        W31863  24.584  42.933   1.805
60281W        W31864  43.854   0.249   3.329
60282W        W31865  32.939  31.124  13.185
60283W        W31866  37.760  37.958   2.728
60284W        W31867  24.506  10.356   1.730
60285W        W31868  41.519  33.789  11.186
60286W        W31869  35.077  21.043   4.590
60287W        W31870  24.559  39.870   1.042
60288W        W31871  38.872  27.969   0.073
60289W        W31872  12.405  27.506   3.133
60290W        W31873  23.173  42.984   3.266
60291W        W31874  22.737  42.842  13.845
60292W        W31875  11.401  10.653  14.368
60293W        W31876  30.570   0.025  12.036
60294W        W31877   3.402  41.510  14.213
60295W        W31878  18.308   5.571   3.276
60296W        W31879  13.008  21.559  10.570
60297W        W31880  37.216   4.296   3.585
60298W        W31881  19.134  16.085  12.819
60299W        W31882  12.437  26.488  11.172
60300W        W31883   9.952  37.791   2.139
60301W        W31884  35.832  15.791   2.425
60302W        W31885  36.003  14.927  13.768
60303W        W31886  43.089   0.457  14.986
60304W        W31887  33.576  30.560   5.123
60305W        W31888   7.183  13.410  14.923
60306W        W31889   4.357  28.525   4.319
60307W        W31890   8.191  23.070   4.911
60308W        W31891  30.880  13.521   0.384
60309W        W31892  28.029  37.617   2.101
60310W        W31893  18.497  36.105   2.731
60311W        W31894  22.587  30.957   3.167
60312W        W31895   8.421  28.057   1.108
60313W        W31896  12.893  44.902  12.343
60314W        W31897  11.817  12.371   2.276
60315W        W31898  42.944  34.838   5.031
60316W        W31899  32.519   7.629   4.075
60317W        W31900  44.291   2.309  12.489
60318W        W31901   4.391   7.737  10.815
60319W        W31902  30.988  12.649   4.862
60320W        W31903  19.241  42.272  13.571
60321W        W31904  15.282  40.537   1.019
60322W        W31905  27.265  24.480  12.886
60323W        W31906   6.826  35.583  14.533
60324W        W31907  33.661  44.200   1.208
60325W        W31908  15.142  43.880   4.394
60326W        W31909  19.524   6.232   3.179
60327W        W31910  12.162  23.119  13.855
60328W        W31911  37.197  31.059  13.946
60329W        W31912  22.990  28.179  10.592
60330W        W31913  34.144  26.320   2.442
60331W        W31914   3.296  29.075   0.004
60332W        W31915   9.800  23.941   2.885
60333W        W31916  35.250  40.875  11.141
60334W        W31917  20.837   7.838   3.698
60335W        W31918  15.548  28.644  14.266
60336W        W31919   1.755  20.028   5.089
60337W        W31920  24.688  44.257  12.536
60338W        W31921  31.945  34.683   5.312
60339W        W31922  21.986  32.581   1.894
60340W        W31923  38.034  19.458   4.624
60341W        W31924   3.250  26.141  13.551
60342W        W31925   5.724  17.283   0.882
60343W        W31926  33.080  26.558   4.348
60344W        W31927  44.383  22.409   0.981
60345W        W31928  29.841  23.737   1.695
60346W        W31929  42.401  12.380  11.568
60347W        W31930  41.457  14.759  14.006
60348W        W31931  11.937  12.317   3.681
60349W        W31932  39.567   2.172  12.994
60350W        W31933  24.202  11.309   3.213
60351W        W31934  19.955  14.557  14.379
60352W        W31935  28.308  13.796  14.920
60353W        W31936   4.872   9.917  11.935
60354W        W31937   2.042  38.915   4.813
60355W        W31938  25.478  26.080   0.820
60356W        W31939   4.444   8.913   0.211
60357W        W31940  31.211   4.041   0.249
60358W        W31941   6.629  13.120   2.675
60359W        W31942  26.192  34.869   3.187
60360W        W31943   7.697  33.029  10.713
60361W        W31944  41.509  20.819  11.619
60362W        W31945  14.172  34.811  10.657
60363W        W31946  15.362  39.629  12.028
60364W        W31947   0.796  10.900  11.098
60365W        W31948  18.655  10.683  12.173
60366W        W31949  21.671  44.402   2.010
60367W        W31950  13.406  20.144  11.098
60368W        W31951  42.903  44.832   4.768
60369W        W31952  20.790   0.743  13.440
60370W        W31953  19.303   4.424  13.266
60371W        W31954  32.962  16.139   1.833
60372W        W31955   4.476  37.662   0.341
60373W        W31956  21.151  21.141   0.034
60374W        W31957  20.578  16.407   2.390
60375W        W31958  19.684  17.553   5.150
60376W        W31959  32.447  37.337   3.114
60377W        W31960  41.355   5.730  14.256
60378W        W31961   0.396  22.691  14.872
60379W        W31962  43.019  11.671   1.223
60380W        W31963  20.274  35.847  10.870
60381W        W31964  12.657  14.785   2.060
60382W        W31965  37.428  24.837   1.790
60383W        W31966   0.716  43.773   2.914
60384W        W31967   2.711  36.467  13.445
60385W        W31968  15.732  14.037   2.184
60386W        W31969  18.995  33.247  13.925
60387W        W31970  41.473  38.931   2.866
60388W        W31971   6.651  33.946   1.298
60389W        W31972   7.754   9.944  10.435
60390W        W31973  42.014   1.830   0.217
60391W        W31974  23.611  22.320   0.842
60392W        W31975  13.009  35.497  12.533
60393W        W31976  31.515   9.717  12.470
60394W        W31977  14.685  26.775   3.694
60395W        W31978  24.948  24.529  13.439
60396W        W31979  37.585  26.579   2.304
60397W        W31980  31.631  28.983  12.430
60398W        W31981   7.313  14.724   0.485
60399W        W31982   0.333  23.801   3.783
60400W        W31983  26.470  18.116  13.160
60401W        W31984   5.678  12.666  12.634
60402W        W31985  35.501  27.707  14.839
60403W        W31986   2.037  20.151   3.388
60404W        W31987   3.051  27.648  11.579
60405W        W31988  42.977   3.528  12.339
60406W        W31989   7.357  37.167   4.263
60407W        W31990   9.534  19.705  14.812
60408W        W31991  16.640   0.296   0.455
60409W        W31992  15.894   5.189   2.957
60410W        W31993  18.542  22.434   3.047
60411W        W31994  25.445  39.543  12.092
60412W        W31995  26.288  12.130   2.349
60413W        W31996  24.545  26.768   4.266
60414W        W31997   5.441   3.563  11.566
60415W        W31998  12.161   9.441   4.232
60416W        W31999  19.175  16.302  11.392
60417W        W32000  35.505  35.557  12.185
60418W        W32001  27.538  36.424   3.573
60419W        W32002  14.223  27.418   1.820
60420W        W32003  19.007  16.688  13.036
60421W        W32004  12.791  38.043  11.622
60422W        W32005  10.729  29.211   4.500
60423W        W32006  22.009   8.291   3.434
60424W        W32007  35.363  12.345  11.096
60425W        W32008   6.303  34.880   1.534
60426W        W32009   1.311  22.703  13.097
60427W        W32010  25.142  13.018   2.164
60428W        W32011   3.893  18.862   4.586
60429W        W32012  24.180  41.258   3.311
60430W        W32013  33.095  10.129  13.062
60431W        W32014  29.500  13.128   2.138
60432W        W32015  31.683  10.150   4.561
60433W        W32016  20.153  37.578  13.367
60434W        W32017   1.676  12.332   1.442
60435W        W32018  27.039  20.165  14.852
60436W        W32019  42.232  30.560  13.933
60437W        W32020   0.856  10.150  10.704
60438W        W32021  16.857   5.700  11.126
60439W        W32022  30.982  36.851   1.965
60440W        W32023  44.526  39.212  13.512
60441W        W32024  38.827  21.445  14.550
60442W        W32025  20.552  22.067   4.645
60443W        W32026  31.507  43.208   3.557
60444W        W32027  27.310  20.197  11.225
60445W        W32028   9.320  27.108   3.338
60446W        W32029  42.948  42.727   1.299
60447W        W32030  28.195   0.829   2.362
60448W        W32031  25.042  20.384   3.307
60449W        W32032  18.643  24.221   1.162
60450W        W32033  17.779  10.270  14.749
60451W        W32034  30.990  32.056   2.870
60452W        W32035  38.291   6.366   3.240
60453W        W32036   1.420  30.964   0.026
60454W        W32037  23.215  41.290  11.111
60455W        W32038  32.227   4.482  14.453
60456W        W32039  35.373  42.828   0.570
60457W        W32040  32.324  13.311   2.375
60458W        W32041  12.200   7.634   0.036
60459W        W32042  26.236  23.263   3.395
60460W        W32043  35.488   1.907   4.610
60461W        W32044  38.528  18.225   0.898
60462W        W32045  22.758  25.037  14.443
60463W        W32046   9.095  43.289   3.918
60464W        W32047  32.108   9.303   1.681
60465W        W32048  34.646  14.717   1.320
60466W        W32049  43.012  41.302  11.180
60467W        W32050  21.225   2.908   0.904
60468W        W32051  14.667  16.056  14.861
60469W        W32052  32.958   9.824   3.840
60470W        W32053  12.245  23.910   2.251
60471W        W32054   0.166  43.555  12.064
60472W        W32055  37.201   8.871   4.800
60473W        W32056  41.094  19.583   1.732
60474W        W32057   1.268   3.634  10.725
60475W        W32058  36.069  28.866   1.586
60476W        W32059   6.588  28.193  13.322
60477W        W32060  20.540  44.440   0.037
60478W        W32061   6.756  35.052   4.424
60479W        W32062   8.718   1.603   2.935
60480W        W32063   3.014   7.276   0.428
60481W        W32064  20.563  11.201  14.400
60482W        W32065  37.591  37.844   0.027
60483W        W32066  29.507   1.325  13.564
60484W        W32067  38.349  44.053  12.745
60485W        W32068  18.115  25.632  11.258
60486W        W32069  30.195  43.051   4.459
60487W        W32070   7.752  39.989   3.818
60488W        W32071  32.614  12.456   3.045
60489W        W32072  20.722  36.998   3.570
60490W        W32073  13.955   9.595  12.840
60491W        W32074  15.003  28.566  11.096
60492W        W32075  17.826  38.491  12.067
60493W        W32076  42.177  10.682   1.887
60494W        W32077   3.416   0.143   1.684
60495W        W32078  32.834   5.292   0.273
60496W        W32079   9.336  16.814   1.802
60497W        W32080  20.887  34.366  11.824
60498W        W32081  22.381   5.707  11.375
60499W        W32082  34.069  26.599   1.951
60500W        W32083  11.653  30.066   3.889
60501W        W32084  15.698  13.712  12.218
60502W        W32085  36.262  18.620  14.826
60503W        W32086  31.506  17.125   2.163
60504W        W32087  32.925  24.576   4.201
60505W        W32088  18.271  15.760  11.870
60506W        W32089   7.390  20.177  12.424
60507W        W32090  17.581  41.495  11.756
60508W        W32091  40.757   0.780   3.795
60509W        W32092  44.220  13.738  14.842
60510W        W32093  30.813  20.251   4.215
60511W        W32094  34.417  19.216   2.930
60512W        W32095  22.688  43.875  11.490
60513W        W32096  22.328  25.828   1.320
60514W        W32097  32.938  43.866  12.766
60515W        W32098  34.175   4.385   2.363
60516W        W32099  12.974   4.553  14.687
60517W        W32100  31.045  26.617   2.861
60518W        W32101   5.749  22.209  12.060
60519W        W32102  15.603  19.248   3.298
60520W        W32103  26.465  23.022  12.028
60521W        W32104  35.260   9.195  14.789
60522W        W32105  24.474   0.017  12.428
60523W        W32106   7.871  43.037   1.231
60524W        W32107  43.024  14.142   0.729
60525W        W32108  44.240  30.164  13.834
60526W        W32109  44.640   1.443   1.848
60527W        W32110  21.150  19.553   1.734
60528W        W32111  13.073   3.590   0.461
60529W        W32112  19.260  26.245   4.738
60530W        W32113  43.522  10.256   2.787
60531W        W32114  21.938  43.236  11.359
60532W        W32115   8.892  37.975  11.191
60533W        W32116  17.615   9.395   4.079
60534W        W32117  37.238  35.972   2.365
60535W        W32118  37.503  39.802   0.403
60536W        W32119  35.695   8.256  11.162
60537W        W32120   9.035  22.816  12.210
60538W        W32121  39.723  18.600  14.475
60539W        W32122  23.143  15.131   2.694
60540W        W32123  44.298  12.403   4.626
60541W        W32124   0.459  30.704  13.823
60542W        W32125  13.096  34.364   2.205
60543W        W32126  26.393  25.311   4.791
60544W        W32127  35.616  36.088   1.328
60545W        W32128  12.161  22.285   4.116
60546W        W32129  38.074  28.632  13.209
60547W        W32130  10.244  41.067  10.574
60548W        W32131   8.072  14.333  14.462
60549W        W32132  14.753  10.130  10.683
60550W        W32133  33.630  29.658   2.918
60551W        W32134  11.249   4.598   0.494
60552W        W32135  37.622  12.870   4.633
60553W        W32136  42.370  15.389   2.735
60554W        W32137  21.908  43.713  13.541
60555W        W32138   6.292  34.364   3.824
60556W        W32139  36.131   5.754  14.574
60557W        W32140   2.854  37.703  12.820
60558W        W32141   6.773  23.568  14.073
60559W        W32142  33.509  11.480  11.659
60560W        W32143  10.294   4.354   0.827
60561W        W32144  21.995  34.955  13.190
60562W        W32145  39.994   0.846   0.877
60563W        W32146   1.466  44.233   4.182
60564W        W32147  35.435   6.753   3.047
60565W        W32148  33.958  44.580  10.669
60566W        W32149  17.831   0.717  11.288
60567W        W32150  40.373   6.894  12.513
60568W        W32151   7.419  35.607  11.100
60569W        W32152  15.647  11.320   4.909
60570W        W32153  34.517  39.773   0.088
60571W        W32154   0.527   2.728   2.797
60572W        W32155  44.427  29.029   3.146
60573W        W32156  16.491   9.814   0.705
60574W        W32157  10.705  17.534  12.093
60575W        W32158  37.064  39.377   3.732
60576W        W32159  14.718   2.302   0.672
60577W        W32160  34.994  15.536  10.660
60578W        W32161  13.186  15.586  10.493
60579W        W32162   6.788  29.654  14.345
60580W        W32163  29.967  20.247   0.238
60581W        W32164  12.202  27.818   2.013
60582W        W32165  20.667  32.456  12.379
60583W        W32166  16.904   2.405  13.397
60584W        W32167  32.802  41.334   2.574
60585W        W32168  29.941  36.908  10.461
60586W        W32169  15.718  28.045  12.619
60587W        W32170  37.917   4.116  12.521
60588W        W32171   3.421  29.767  12.940
60589W        W32172  20.076  22.853   4.472
60590W        W32173  10.891  38.597   0.923
60591W        W32174  43.390  38.559  13.936
60592W        W32175  22.177   0.913  10.826
60593W        W32176  23.263  29.496   4.479
60594W        W32177   7.221  25.530   0.281
60595W        W32178  20.664  19.127   4.914
60596W        W32179  18.584  35.396  10.968
60597W        W32180  43.633  42.798  14.510
60598W        W32181  25.120  22.537   2.126
60599W        W32182  12.028  23.382   2.230
60600W        W32183   3.883   0.876  10.763
60601W        W32184  41.347  20.321   4.931
60602W        W32185  21.733  40.380  12.030
60603W        W32186  25.098  42.285  11.628
60604W        W32187  41.903   0.177  13.381
60605W        W32188  20.235  32.361  12.657
60606W        W32189  13.252  36.899  10.530
60607W        W32190  22.295  42.759  14.099
60608W        W32191  21.118  24.681  10.934
60609W        W32192  28.236   3.769  10.959
60610W        W32193   6.422  26.762  11.684
60611W        W32194  41.023  12.389   0.918
60612W        W32195  21.045  26.672  11.544
60613W        W32196  43.613  34.521  11.552
60614W        W32197  13.427  32.068  10.247
60615W        W32198  32.565  43.845   0.028
60616W        W32199  28.545  28.995   4.483
60617W        W32200  24.228  17.291   5.022
60618W        W32201   7.773  37.522   4.218
60619W        W32202  17.571  43.211   4.124
60620W        W32203  11.301   3.662  11.099
60621W        W32204  32.715   8.845  11.162
60622W        W32205  30.472   0.668   3.682
60623W        W32206  33.085  17.940   0.352
60624W        W32207   9.134  30.445  13.527
60625W        W32208   1.868   1.465   3.661
60626W        W32209  41.513  22.479   2.832
60627W        W32210  34.654  23.851   3.050
60628W        W32211  33.508  12.266  10.637
60629W        W32212  43.922  24.177   0.789
60630W        W32213  30.169   6.764  12.541
60631W        W32214  10.556  27.851   4.074
60632W        W32215  30.418  37.573   2.313
60633W        W32216  32.649  24.062  13.766
60634W        W32217  35.865  12.882   1.775
60635W        W32218   6.200  44.939  12.044
60636W        W32219  22.965   9.443  13.130
60637W        W32220  37.012   1.171  12.636
60638W        W32221   1.693   3.657  12.563
60639W        W32222  13.358  30.102   0.473
60640W        W32223  35.881  31.832  13.243
60641W        W32224  39.938  28.703  13.127
60642W        W32225   0.494  38.146   0.990
60643W        W32226   2.316  21.252   1.323
60644W        W32227  39.415  17.013  14.525
60645W        W32228  18.265  21.682   0.284
60646W        W32229  24.518  10.161  13.318
60647W        W32230   7.711  27.164  14.912
60648W        W32231   5.084  32.357   2.785
60649W        W32232  16.256  38.640  11.048
60650W        W32233  25.997  15.229   4.209
60651W        W32234  34.677  30.981  13.903
60652W        W32235   4.909  24.071  14.855
60653W        W32236  39.843  40.058   2.037
60654W        W32237  11.241  22.513  11.430
60655W        W32238   6.950   5.100  13.307
60656W        W32239  13.290  23.183   2.705
60657W        W32240  13.117  36.406  10.694
60658W        W32241   6.350  35.524   4.881
60659W        W32242  14.643  31.632   0.389
60660W        W32243  26.623  43.027   2.871
60661W        W32244  44.616   4.541  14.403
60662W        W32245  13.162  16.332  11.633
60663W        W32246  28.383  35.848  11.581
60664W        W32247  10.866  43.019   3.693
60665W        W32248  24.792  32.643  10.779
60666W        W32249  31.058  11.248   2.731
60667W        W32250   5.410  10.160  14.921
60668W        W32251  21.556  26.568  11.530
60669W        W32252  16.425  39.373   0.698
60670W        W32253  22.181  36.498  12.077
60671W        W32254  31.755  16.313   3.393
60672W        W32255  11.281  20.222   4.199
60673W        W32256  26.683  32.315   0.881
60674W        W32257  18.307  32.918  13.524
60675W        W32258  32.115  17.989  13.418
60676W        W32259  29.178  13.140   3.798
60677W        W32260  34.424   0.048   4.515
60678W        W32261  10.346   5.794  12.471
60679W        W32262  42.880   7.921  11.677
60680W        W32263  20.038  17.150  13.940
60681W        W32264  28.984   2.673  14.620
60682W        W32265  41.361  42.678  14.363
60683W        W32266   4.859  11.880  13.894
60684W        W32267  29.679  42.419  10.769
60685W        W32268   2.914  27.719  13.949
60686W        W32269  28.016  21.198   2.670
60687W        W32270  34.408  24.695  14.950
60688W        W32271  31.983  44.468  12.428
60689W        W32272   7.953  12.268   1.365
60690W        W32273  11.344  33.597   3.736
60691W        W32274  21.057  30.648  10.170
60692W        W32275  33.155   7.667   3.329
60693W        W32276  36.581  26.093  14.212
60694W        W32277  43.940   4.935   3.102
60695W        W32278  13.765  27.500   4.117
60696W        W32279  12.455  13.889  11.618
60697W        W32280  20.159  44.072   4.626
60698W        W32281  36.281  42.136  12.588
60699W        W32282  28.761   3.464  12.090
60700W        W32283   2.989   0.551  14.966
60701W        W32284  14.706   7.693   1.108
60702W        W32285  29.685   4.431   1.427
60703W        W32286  26.477  18.793  14.805
60704W        W32287  35.190  26.939   4.100
60705W        W32288  16.143  40.713  12.942
60706W        W32289  37.307  17.566   0.643
60707W        W32290  22.634   0.053   2.803
60708W        W32291  23.180  31.440   4.549
60709W        W32292  23.751  38.073   2.404
60710W        W32293  26.569  28.073  12.066
60711W        W32294  17.134  11.426  13.378
60712W        W32295  16.682  16.893   1.939
60713W        W32296  27.437  35.863   4.235
60714W        W32297  12.973  10.695   2.377
60715W        W32298   1.348  43.179  12.555
60716W        W32299  43.916  25.319   3.758
60717W        W32300  36.927  23.099   3.618
60718W        W32301   0.283  11.696  13.967
60719W        W32302  42.377  19.168  13.051
60720W        W32303  15.617   3.755   2.788
60721W        W32304   3.653  28.618   2.030
60722W        W32305  31.813  35.978  11.534
60723W        W32306  44.215  15.821  12.622
60724W        W32307  36.468  23.490   4.072
60725W        W32308   3.765   9.120   2.472
60726W        W32309  38.524  29.636   0.721
60727W        W32310  36.510  14.924  13.765
60728W        W32311  43.320   2.939   2.899
60729W        W32312  26.117  19.992   0.449
60730W        W32313  40.587  43.764   0.217
60731W        W32314  35.909  38.774  11.120
60732W        W32315  32.365  36.011  11.542
60733W        W32316  25.439  17.781  12.022
60734W        W32317  39.914  33.802  14.611
60735W        W32318  24.053   1.179  13.978
60736W        W32319  31.408  13.614  13.770
60737W        W32320  15.124   2.094  13.524
60738W        W32321   7.644  23.149  11.933
60739W        W32322   2.370  33.156  12.158
60740W        W32323   9.756  10.276   2.192
60741W        W32324  12.224  20.025   2.141
60742W        W32325  39.115  14.784   2.637
60743W        W32326  22.975  13.652  12.547
60744W        W32327   3.401  25.935   1.330
60745W        W32328  13.783  36.278  13.707
60746W        W32329   5.789  21.055  12.833
60747W        W32330  41.989  11.185   0.855
60748W        W32331  29.486  35.928  11.483
60749W        W32332  20.073  12.286   3.732
60750W        W32333  35.593  40.777  12.493
60751W        W32334  28.268  27.050  14.202
60752W        W32335  19.972  18.149   1.820
60753W        W32336  40.329  19.154   4.768
60754W        W32337  44.445  27.591  10.313
60755W        W32338  13.188   2.404   3.151
60756W        W32339  30.019  26.663  12.222
60757W        W32340  43.257   1.484   3.130
60758W        W32341  24.219  27.356  11.616
60759W        W32342  38.495  23.311   3.555
60760W        W32343  39.976   8.839   4.797
60761W        W32344   1.177   3.728  12.552
60762W        W32345  36.349  34.948   1.947
60763W        W32346  13.355  31.025   1.863
60764W        W32347  41.241  34.467  14.640
60765W        W32348  11.221   0.245   3.762
60766W        W32349  33.091  34.950   4.616
60767W        W32350  13.768  35.972  13.250
60768W        W32351  35.383  17.947  11.608
60769W        W32352  35.793  15.760   4.697
60770W        W32353  35.350   3.868  12.142
60771W        W32354   1.779  27.728  12.992
60772W        W32355  33.993  22.532   3.043
60773W        W32356  16.582  30.528   1.779
60774W        W32357  17.756  16.254  12.883
60775W        W32358  34.478  43.933  11.631
60776W        W32359  41.345  30.808  11.456
60777W        W32360  27.247  23.308   2.624
60778W        W32361  42.038  11.573  14.870
60779W        W32362   9.942  24.490   4.183
60780W        W32363   6.650  12.281   1.546
60781W        W32364  37.869   1.707  13.298
60782W        W32365  40.337   0.275   4.663
60783W        W32366  35.092  24.137  10.739
60784W        W32367  33.648  16.852  14.855
60785W        W32368   9.446  22.191  12.510
60786W        W32369  12.113  29.945   3.256
60787W        W32370  12.604  30.444   1.031
60788W        W32371   9.431  12.266  12.974
60789W        W32372  43.923  39.541   0.372
60790W        W32373  29.130  17.471   3.889
60791W        W32374  41.371  12.668  13.927
60792W        W32375  19.542   2.275   0.132
60793W        W32376  33.132  32.965  12.499
60794W        W32377  37.024  42.532  14.305
60795W        W32378  40.878   9.764   4.065
60796W        W32379  23.323  28.872   5.018
60797W        W32380  10.828   6.181  12.867
60798W        W32381  44.774  19.045  13.469
60799W        W32382  32.115   6.416  12.488
60800W        W32383  35.783  13.203  11.018
60801W        W32384  37.885  12.369   1.184
60802W        W32385  44.221  15.260  11.194
60803W        W32386  10.592  18.211  14.298
60804W        W32387  33.380   7.957   5.069
60805W        W32388  27.212  36.104   3.816
60806W        W32389  20.727  41.999   3.215
60807W        W32390  23.556  13.160   2.148
60808W        W32391   2.920  22.446  11.479
60809W        W32392  16.161  16.932  13.900
60810W        W32393   4.884  42.227  12.049
60811W        W32394  21.898  28.162  13.123
60812W        W32395  37.439  17.207  13.841
60813W        W32396   9.629  23.077   3.185
60814W        W32397  28.434   0.621  12.546
60815W        W32398  10.395   4.184   2.707
60816W        W32399  38.089  18.849  13.023
60817W        W32400  26.671   3.671  13.949
60818W        W32401  32.340  12.868   2.923
60819W        W32402   8.268  27.433  11.600
60820W        W32403  35.442   8.688   4.170
60821W        W32404   2.905  32.012   0.960
60822W        W32405  14.234   9.597   4.673
60823W        W32406  33.267  10.773   2.844
60824W        W32407   4.332  37.924  12.889
60825W        W32408  33.965  40.622  13.428
60826W        W32409   0.021  22.342   0.032
60827W        W32410  39.767  28.870  12.512
60828W        W32411  40.331  34.022  11.471
60829W        W32412  43.991   6.160  10.916
60830W        W32413  34.969  23.207  11.579
60831W        W32414  16.483  14.066   1.602
60832W        W32415  17.653  38.831   4.613
60833W        W32416   0.805  30.837   3.649
60834W        W32417  23.247  29.572   3.157
60835W        W32418  26.183  19.974  13.545
60836W        W32419   3.685  33.267   4.140
60837W        W32420   0.238  35.633   1.847
60838W        W32421   8.723  38.370   3.618
60839W        W32422  16.211   8.424   2.707
60840W        W32423   8.229  22.262  11.985
60841W        W32424   3.665  22.099  14.036
60842W        W32425   4.720  35.623   2.716
60843W        W32426   0.444  39.607  11.466
60844W        W32427   3.354  29.535   4.533
60845W        W32428  23.146   8.985   1.791
60846W        W32429  20.701  18.778   1.627
60847W        W32430  27.032  32.549   0.588
60848W        W32431  38.773  36.327   3.265
60849W        W32432   7.841   3.068  12.544
60850W        W32433  24.056   5.657  12.685
60851W        W32434  23.531  21.562  14.981
60852W        W32435  36.058  29.969  11.997
60853W        W32436  38.677  35.662   2.137
60854W        W32437  41.490  34.418  11.571
60855W        W32438   4.331   4.675   0.950
60856W        W32439  23.111  24.993  11.204
60857W        W32440  43.272  44.818   3.733
60858W        W32441  31.102  11.596   4.457
60859W        W32442  22.206   2.845   1.993
60860W        W32443  41.486  37.508   0.814
60861W        W32444  36.504  15.361  11.996
60862W        W32445  20.209   0.682  12.406
60863W        W32446  28.191  30.095   3.640
60864W        W32447  26.839  24.474  11.013
60865W        W32448  21.670  11.343   2.982
60866W        W32449  32.097  36.039   1.447
60867W        W32450  37.567  15.024   3.382
60868W        W32451  37.676  40.302  14.536
60869W        W32452  11.561  23.077   1.741
60870W        W32453  15.088   9.493  11.136
60871W        W32454  16.660  39.785   2.826
60872W        W32455   3.713  26.108   0.929
60873W        W32456  16.104  29.455  12.410
60874W        W32457  36.881  42.848  12.156
60875W        W32458  44.329  21.598   2.189
60876W        W32459  14.066  44.199  12.255
60877W        W32460   6.177  39.813  10.738
60878W        W32461  19.656   7.874   0.698
60879W        W32462  29.647  32.434   3.629
60880W        W32463  25.146  10.864   1.098
60881W        W32464  39.362  13.583   2.703
60882W        W32465  36.629   0.255  11.885
60883W        W32466  27.494  24.523  10.999
60884W        W32467  19.137  25.188  11.615
60885W        W32468  41.289  37.594  14.464
60886W        W32469  35.580  19.315  11.723
60887W        W32470  23.057  29.723   1.783
60888W        W32471   4.278  17.675   1.855
60889W        W32472  19.588   5.245   2.255
60890W        W32473   8.376   1.722   3.313
60891W        W32474   8.841  32.303   3.535
60892W        W32475  43.420   5.160  13.544
60893W        W32476   3.180  27.774   4.096
60894W        W32477  28.926  16.765  11.601
60895W        W32478  24.156   1.871   1.093
60896W        W32479  24.232  13.615  14.752
60897W        W32480   8.361  22.255  13.388
60898W        W32481   8.810   8.107   4.623
60899W        W32482  28.380   5.295  12.793
60900W        W32483  20.259  11.384   1.187
60901W        W32484   3.300  32.123  14.176
60902W        W32485  36.598  23.705   2.547
60903W        W32486  28.645  21.603   3.073
60904W        W32487   9.502  36.048  11.538
60905W        W32488  19.191  31.642   3.557
60906W        W32489  26.546  14.992  13.312
60907W        W32490  44.876  24.967   4.090
60908W        W32491  41.570  31.019  12.288
60909W        W32492  20.792  43.277   3.726
60910W        W32493  39.769  26.127   2.659
60911W        W32494  40.102  23.169  11.669
60912W        W32495  18.652   6.905   2.464
60913W        W32496  26.171  40.777  12.132
60914W        W32497  20.324   5.810   3.143
60915W        W32498  19.172  14.252  11.539
60916W        W32499  21.261  16.161  11.014
60917W        W32500  13.856  44.174   1.851
60918W        W32501  32.729  10.399   2.530
60919W        W32502  17.093  10.171   3.553
60920W        W32503  38.811  39.183  13.379
60921W        W32504  17.918   4.089   4.896
60922W        W32505  27.653   2.213   1.409
60923W        W32506  36.045  31.139  10.663
60924W        W32507  20.545   5.855  11.930
60925W        W32508   5.265  40.849   2.175
60926W        W32509  34.165  25.805   2.420
60927W        W32510  33.470  35.457   4.542
60928W        W32511   3.327   4.197   4.914
60929W        W32512  19.529  16.606  14.661
60930W        W32513  25.229  10.243   4.711
60931W        W32514  22.771   2.905  12.515
60932W        W32515  41.910  33.865   2.563
60933W        W32516  42.153  41.026  12.552
60934W        W32517   0.852  31.976  10.739
60935W        W32518  13.137   6.685   0.592
60936W        W32519  12.024   8.767  11.132
60937W        W32520  25.447  34.764  13.322
60938W        W32521  11.456  40.269   4.753
60939W        W32522  28.118  31.898   4.067
60940W        W32523  41.230  26.187  12.466
60941W        W32524  16.691  11.730  13.198
60942W        W32525  21.003   5.200   3.170
60943W        W32526  13.190  20.231  11.551
60944W        W32527  25.201  17.702  12.468
60945W        W32528  20.165  32.566  10.666
60946W        W32529   6.082  36.076  13.615
60947W        W32530  30.138   6.424  10.959
60948W        W32531  37.060  17.061   2.205
60949W        W32532  19.645  23.279   3.793
60950W        W32533  16.575  27.924   3.982
60951W        W32534  19.875  12.162   0.034
60952W        W32535   2.913   6.657   4.139
60953W        W32536  11.264  11.373  13.599
60954W        W32537  19.055  37.043   4.174
60955W        W32538  10.608  36.926   0.471
60956W        W32539  11.100  35.241  11.023
60957W        W32540  38.349  12.380  11.095
60958W        W32541  26.790  17.328  13.285
60959W        W32542  20.034  42.175   0.376
60960W        W32543  22.797   8.518   0.312
60961W        W32544  37.870   0.991  13.818
60962W        W32545   7.223  10.023   0.246
60963W        W32546   5.699   4.337  13.887
60964W        W32547  32.626  21.744  12.934
60965W        W32548  11.129  32.988   4.538
60966W        W32549   6.504  44.251  12.854
60967W        W32550   5.218  28.211   2.223
60968W        W32551  35.420  29.656  13.390
60969W        W32552  36.079   1.510   0.668
60970W        W32553  16.877  35.800  12.560
60971W        W32554  41.851  27.585   3.454
60972W        W32555  11.854   9.131   0.275
60973W        W32556  14.178  26.440  12.107
60974W        W32557  11.093  44.072  11.676
60975W        W32558  10.684   6.345   1.505
60976W        W32559  20.335  16.504  12.098
60977W        W32560  42.574  34.467  11.659
60978W        W32561   0.249  14.764   3.794
60979W        W32562  34.318   4.018   3.714
60980W        W32563  28.728   4.935   1.825
60981W        W32564  32.698  42.299   3.307
60982W        W32565  21.110  39.359  12.939
60983W        W32566   2.172   4.717   4.470
60984W        W32567  17.207  32.948  13.828
60985W        W32568  24.615  26.639  14.046
60986W        W32569  35.436  12.317   0.025
60987W        W32570  31.042  10.443  10.016
60988W        W32571  14.580  25.953   4.224
60989W        W32572  15.794   8.905   0.296
60990W        W32573  36.955   5.815   2.822
60991W        W32574  28.786  21.168   0.600
60992W        W32575  37.729  15.228  12.003
60993W        W32576   4.857  42.773  12.144
60994W        W32577  37.456   1.345  12.454
60995W        W32578  33.262  23.743  13.339
60996W        W32579   3.383  31.340   2.377
60997W        W32580   3.745  11.731   4.844
60998W        W32581  12.544   2.951  12.436
60999W        W32582   9.844  19.161  12.577
61000W        W32583  15.163  26.882   2.676
61001W        W32584  37.620  40.077   1.374
61002W        W32585  11.921  32.433   4.873
61003W        W32586  25.473  14.600  12.717
61004W        W32587  34.847  33.090  10.596
61005W        W32588  12.639  29.694   4.678
61006W        W32589  32.297  19.147  10.107
61007W        W32590  18.062  16.825   1.826
61008W        W32591  39.337  16.304  13.482
61009W        W32592  14.877  28.866  14.022
61010W        W32593   0.428  23.801   1.863
61011W        W32594  35.445  35.017   4.928
61012W        W32595  41.538  44.021   0.198
61013W        W32596  15.200  19.662   1.735
61014W        W32597  12.696  26.551  13.533
61015W        W32598  10.944   6.817  14.248
61016W        W32599   8.626   7.271  10.602
61017W        W32600  38.240   7.356   2.430
61018W        W32601   7.695  25.923  10.700
61019W        W32602  42.284  25.736   2.931
61020W        W32603  25.389  13.349  11.210
61021W        W32604  39.069   5.401   2.356
61022W        W32605  15.978  28.958  12.470
61023W        W32606  33.395  10.871   1.850
61024W        W32607  36.224  38.936   3.620
61025W        W32608  25.667   0.632   3.222
61026W        W32609   7.300  38.438   0.407
61027W        W32610  16.657   0.202  11.162
61028W        W32611  22.077   7.748   2.634
61029W        W32612  12.343  33.603   0.791
61030W        W32613  27.107  11.781  13.023
61031W        W32614   6.663   2.593   3.727
61032W        W32615  37.279  20.324  14.829
61033W        W32616  25.452  12.501  11.933
61034W        W32617   0.067  13.603   1.871
61035W        W32618  21.953  38.961   3.855
61036W        W32619   4.916  16.109   1.756
61037W        W32620  38.204  14.624  13.446
61038W        W32621  29.177  44.250   1.236
61039W        W32622   7.886  39.561  14.514
61040W        W32623  12.435   0.475   3.211
61041W        W32624  25.047   0.508   1.970
61042W        W32625  43.097   9.285   2.626
61043W        W32626  30.896  17.978  13.864
61044W        W32627  19.081  43.707   1.920
61045W        W32628  20.558  13.564   1.214
61046W        W32629   1.123  36.908  14.683
61047W        W32630   6.322  39.728  13.351
61048W        W32631  37.166  42.538  12.549
61049W        W32632   8.237  36.121   4.579
61050W        W32633  44.468  12.947  12.522
61051W        W32634  35.236  27.452  10.975
61052W        W32635  30.637  29.130   0.197
61053W        W32636  25.171   7.779   4.937
61054W        W32637  19.172  21.268  14.459
61055W        W32638   2.489   9.347  13.718
61056W        W32639  40.913  28.988   0.439
61057W        W32640  21.231  30.901  11.930
61058W        W32641  15.657  21.316  11.629
61059W        W32642  44.588   2.838   0.781
61060W        W32643  32.533  39.486   4.349
61061W        W32644   6.255  22.598   0.270
61062W        W32645  19.363  25.022   1.960
61063W        W32646  31.899  44.539   5.125
61064W        W32647   5.632  19.745  10.951
61065W        W32648   0.889  32.465  14.467
61066W        W32649  13.753   2.702   4.261
61067W        W32650   0.903  25.977  11.550
61068W        W32651  18.708  10.099  13.084
61069W        W32652   0.405  34.525   2.390
61070W        W32653  36.588   7.220  12.996
61071W        W32654  26.053  40.818  11.220
61072W        W32655  35.596  15.637   2.885
61073W        W32656  43.976  16.065   0.342
61074W        W32657  28.786  16.434  13.557
61075W        W32658   3.970  17.166  11.997
61076W        W32659   1.656  21.821  13.578
61077W        W32660  42.848  41.287  10.186
61078W        W32661  40.991   7.690   2.194
61079W        W32662  11.615  15.533  11.075
61080W        W32663  11.259  34.545   2.477
61081W        W32664   9.746  16.575   3.711
61082W        W32665   9.884  33.998   3.246
61083W        W32666  19.180  19.418  11.007
61084W        W32667  34.916  37.846   4.923
61085W        W32668  17.871  17.101   3.307
61086W        W32669  18.089   5.221  13.879
61087W        W32670  21.449  35.405  11.085
61088W        W32671   2.966  24.679   2.698
61089W        W32672  15.155  31.080  12.429
61090W        W32673   1.228  39.475  11.903
61091W        W32674  42.121   4.084  11.153
61092W        W32675   5.789   4.231   1.395
61093W        W32676  23.703  11.424   1.278
61094W        W32677  30.542  30.700   4.483
61095W        W32678  19.644  38.501   4.499
61096W        W32679  31.676  29.087   3.848
61097W        W32680   4.093  31.033  12.244
61098W        W32681  20.363   2.238  11.441
61099W        W32682  18.796  36.344   2.366
61100W        W32683  13.664  24.590  12.549
61101W        W32684  44.684  23.280   3.293
61102W        W32685  17.587  33.531   4.245
61103W        W32686  21.330   4.225   1.371
61104W        W32687  11.641  28.349   2.754
61105W        W32688  39.287  38.592   4.857
61106W        W32689   1.574  13.284   2.157
61107W        W32690   2.238  25.257   4.188
61108W        W32691   4.575  30.430   1.861
61109W        W32692   0.724   8.721  12.997
61110W        W32693  44.417  30.603  11.937
61111W        W32694  28.396   2.405  10.725
61112W        W32695  38.118  22.558  13.506
61113W        W32696  44.257  41.888   4.074
61114W        W32697  12.497  16.864   0.753
61115W        W32698  32.004  30.978  14.270
61116W        W32699   6.434  25.641   4.702
61117W        W32700  40.000  33.878   0.132
61118W        W32701  44.848  44.369   2.985
61119W        W32702   1.225  24.431   3.986
61120W        W32703  16.750  43.009   2.313
61121W        W32704  11.899  39.128  11.207
61122W        W32705   1.533  37.477   4.169
61123W        W32706  25.756   0.297   3.976
61124W        W32707  34.465  16.524   4.574
61125W        W32708  35.621   4.784  10.828
61126W        W32709  43.922   5.438   2.196
61127W        W32710  42.957  35.711   3.471
61128W        W32711  32.051  40.567   3.715
61129W        W32712  12.221  22.825  14.383
61130W        W32713  37.986  41.470  13.011
61131W        W32714  43.992  21.287  14.494
61132W        W32715  35.505  42.535   4.009
61133W        W32716  30.482  30.413   4.052
61134W        W32717  14.718   7.148  12.336
61135W        W32718  15.276  19.454  12.331
61136W        W32719  19.560  42.843  14.964
61137W        W32720  10.610   9.276  14.267
61138W        W32721  14.209  34.862   3.557
61139W        W32722  40.294  12.551   2.328
61140W        W32723  33.963  23.959   0.976
61141W        W32724  43.402   8.795  11.191
61142W        W32725  28.905  34.097  12.260
61143W        W32726  36.045   3.000  10.914
61144W        W32727  16.787  22.500   0.394
61145W        W32728  34.828  30.134   4.052
61146W        W32729  43.480   7.375  12.173
61147W        W32730  11.715  40.770   2.158
61148W        W32731   5.867  28.182  13.817
61149W        W32732  34.920  23.648  10.625
61150W        W32733   1.209  12.248   4.468
61151W        W32734   7.859  10.298  12.438
61152W        W32735  37.089  18.110   2.343
61153W        W32736  11.618  18.813   2.853
61154W        W32737  37.351  37.368   4.244
61155W        W32738  13.785   6.405  13.314
61156W        W32739   2.493  24.910   1.674
61157W        W32740  16.233  11.752   3.258
61158W        W32741   1.325  14.143   4.130
61159W        W32742  33.819  11.729  13.403
61160W        W32743  23.905  43.281  11.196
61161W        W32744  16.274  36.119  14.462
61162W        W32745  26.206  35.514  12.457
61163W        W32746  41.574  29.201  11.163
61164W        W32747   4.856   2.141   4.557
61165W        W32748   4.391  31.611   3.187
61166W        W32749   1.846  17.136   5.000
61167W        W32750   5.338  36.984  13.371
61168W        W32751  43.356  28.944  12.125
61169W        W32752  39.571  23.658   1.470
61170W        W32753  25.888  25.621  13.493
61171W        W32754  23.099  31.905   1.159
61172W        W32755  22.155  44.123  11.484
61173W        W32756   5.684  32.880  14.796
61174W        W32757  35.310   9.224   0.984
61175W        W32758  28.503  16.103  12.561
61176W        W32759  26.345   0.271   2.795
61177W        W32760  38.577   0.010  13.524
61178W        W32761  12.851  23.574  12.967
61179W        W32762  32.077  41.657   2.044
61180W        W32763  19.301  31.982  10.865
61181W        W32764  19.746  24.506  13.293
61182W        W32765   8.488   4.458  11.768
61183W        W32766   6.967  20.844   0.735
61184W        W32767  37.377   4.195  14.191
61185W        W32768  37.808  20.583   3.913
61186W        W32769   6.551  44.760   3.739
61187W        W32770   9.875  21.712   2.783
61188W        W32771  42.443   1.215  12.256
61189W        W32772   0.735  24.056   3.550
61190W        W32773  16.261   4.816   4.633
61191W        W32774  10.127  43.992  14.371
61192W        W32775  19.741  22.612   0.310
61193W        W32776   6.428  21.142   1.695
61194W        W32777  21.957   2.476   2.265
61195W        W32778   5.364  15.678  12.103
61196W        W32779  19.102   3.358  10.712
61197W        W32780  38.810  31.604  11.892
61198W        W32781  27.802  26.153   0.266
61199W        W32782  11.799  42.964   3.693
61200W        W32783  21.412   4.970  11.340
61201W        W32784  18.916  15.695  14.691
61202W        W32785  27.408  43.614   2.021
61203W        W32786   3.676   8.900   0.504
61204W        W32787  25.565  26.212  12.529
61205W        W32788  17.572  16.172   0.815
61206W        W32789  22.605  18.252  13.023
61207W        W32790  36.476  35.899   1.459
61208W        W32791  23.230   8.274  10.872
61209W        W32792  22.505  16.599  12.630
61210W        W32793  28.419  39.938  10.860
61211W        W32794  12.772  38.477  13.211
61212W        W32795  34.401  28.926  11.623
61213W        W32796  34.675  26.792   4.200
61214W        W32797  37.075  29.512  10.917
61215W        W32798   5.943   8.662  11.112
61216W        W32799  14.198  25.655   0.772
61217W        W32800   3.779  26.059   2.798
61218W        W32801  10.713  20.972  13.067
61219W        W32802   3.224  42.505  13.867
61220W        W32803   8.021  22.150   1.782
61221W        W32804   3.252   2.274   0.963
61222W        W32805  15.663  16.026   2.037
61223W        W32806  19.275  42.419   1.342
61224W        W32807  28.968  31.653   1.527
61225W        W32808  40.809  40.922  14.925
61226W        W32809   9.936  12.653   3.527
61227W        W32810   1.533  38.296   4.637
61228W        W32811   4.247  40.563   4.149
61229W        W32812  33.840  39.775   1.713
61230W        W32813  40.473  16.786  13.275
61231W        W32814   9.776  26.340   3.512
61232W        W32815  33.898   6.332   2.704
61233W        W32816  34.655   0.768   2.164
61234W        W32817  43.986   6.229   4.610
61235W        W32818  38.358  10.558   4.692
61236W        W32819  21.199   7.990   4.600
61237W        W32820  10.121  28.531  11.620
61238W        W32821  35.779  32.972   0.624
61239W        W32822  23.688  30.720   0.857
61240W        W32823  12.834  41.050  14.878
61241W        W32824   1.114  31.077  13.419
61242W        W32825  34.848  28.124  11.663
61243W        W32826  40.999  18.306   4.103
61244W        W32827  25.387  28.820  12.367
61245W        W32828  23.129  30.058   3.056
61246W        W32829  20.881  21.573  13.420
61247W        W32830  14.408   6.274   3.301
61248W        W32831  31.181  35.526  11.118
61249W        W32832  42.541  27.653   4.652
61250W        W32833  40.320  32.540   3.191
61251W        W32834  43.176  32.937   3.715
61252W        W32835  15.151  27.662  12.889
61253W        W32836  41.753  43.166   0.757
61254W        W32837  32.424  26.233   3.314
61255W        W32838   2.694   0.029  12.645
61256W        W32839  28.152   2.243  12.034
61257W        W32840  41.773  28.482  13.325
61258W        W32841  36.460   0.241  13.446
61259W        W32842  22.137  10.620   4.626
61260W        W32843   2.129  30.641   5.245
61261W        W32844  42.979   2.233  10.722
61262W        W32845  22.727  38.010  10.529
61263W        W32846  15.235  15.701   3.669
61264W        W32847  44.284  35.467  14.896
61265W        W32848  20.822  31.306   0.421
61266W        W32849  12.882   9.213  11.310
61267W        W32850  27.321  38.418   2.775
61268W        W32851   3.135  39.817   5.419
61269W        W32852  19.482   5.281   3.241
61270W        W32853  34.362  13.259   2.159
61271W        W32854   4.695  13.147   1.446
61272W        W32855  11.246  32.475   3.645
61273W        W32856   9.336  34.811   0.196
61274W        W32857  22.953  33.371   2.140
61275W        W32858  24.890  30.488  10.822
61276W        W32859  42.724  32.207   2.440
61277W        W32860  40.455  16.003   1.799
61278W        W32861  36.085  41.977   1.359
61279W        W32862  43.280  31.479   0.239
61280W        W32863   1.871  37.571   1.962
61281W        W32864   7.817  38.163  11.118
61282W        W32865  44.677  44.954  14.972
61283W        W32866  13.049   0.940   0.026
61284W        W32867   6.915   9.995  12.354
61285W        W32868  15.871  10.723   2.245
61286W        W32869   1.240  15.302   0.833
61287W        W32870   5.725   6.683  12.013
61288W        W32871  38.903  27.048   2.385
61289W        W32872  21.490  42.811  11.205
61290W        W32873  37.434  22.035  12.187
61291W        W32874  15.185  32.971   0.052
61292W        W32875  29.736  40.855   1.588
61293W        W32876   0.461  23.970  12.448
61294W        W32877  39.324  35.484   0.259
61295W        W32878  11.397  13.063   1.751
61296W        W32879  26.184  21.541   4.958
61297W        W32880  33.353  30.048  13.344
61298W        W32881   5.835  15.221   2.983
61299W        W32882  13.590   3.498  13.289
61300W        W32883   2.657  39.091  12.062
61301W        W32884  28.454   2.431   2.888
61302W        W32885  12.526  34.517  12.561
61303W        W32886  25.324  24.185   2.883
61304W        W32887  17.294   7.369  12.946
61305W        W32888   4.964   3.599  13.140
61306W        W32889  18.868  31.847  11.397
61307W        W32890  21.563  36.466  13.303
61308W        W32891  38.323   8.911  10.636
61309W        W32892  24.991  30.085  11.638
61310W        W32893  25.435  10.691   3.154
61311W        W32894  10.430  33.312  14.257
61312W        W32895  44.152   8.679   2.231
61313W        W32896  18.101  20.302  12.380
61314W        W32897  26.524  44.538  14.786
61315W        W32898  10.403  24.249   4.146
61316W        W32899  37.492  32.611  13.910
61317W        W32900  37.139  29.541  13.898
61318W        W32901  36.083  43.935   0.736
61319W        W32902  10.484  11.267   2.320
61320W        W32903  28.482  20.221  13.505
61321W        W32904  18.824  44.890   2.692
61322W        W32905   6.535  17.637   2.055
61323W        W32906  19.743   1.507  13.371
61324W        W32907  18.139  33.820  13.822
61325W        W32908   6.185  13.403  11.461
61326W        W32909  41.425  36.174   2.156
61327W        W32910  36.896  27.418  12.842
61328W        W32911  40.982  17.029  12.568
61329W        W32912  33.231  29.329  12.466
61330W        W32913   3.287  39.081   1.442
61331W        W32914  15.561  33.914  12.115
61332W        W32915  25.613  27.134  10.553
61333W        W32916  38.289  30.056   1.424
61334W        W32917  23.019  13.832   4.193
61335W        W32918  12.346  27.536   3.673
61336W        W32919  15.756  11.709  14.536
61337W        W32920   5.418  19.193  13.681
61338W        W32921  35.099  43.325  14.759
61339W        W32922  23.101   8.883   9.684
61340W        W32923  43.520   2.493   2.742
61341W        W32924  33.203  10.967  14.457
61342W        W32925  28.127  26.055  11.154
61343W        W32926  25.238  18.941   4.168
61344W        W32927  28.704  13.749   3.182
61345W        W32928  39.006   6.964   0.763
61346W        W32929  26.574  31.514  11.829
61347W        W32930  31.882   5.748   0.713
61348W        W32931  44.088  31.885  11.132
61349W        W32932   6.343  29.912  10.948
61350W        W32933  21.727  38.388  14.366
61351W        W32934  37.392   9.574  13.884
61352W        W32935   3.689   1.475   1.504
61353W        W32936   5.964  25.013   0.522
61354W        W32937   0.916  32.976  13.848
61355W        W32938   7.713  23.559  10.195
61356W        W32939  22.756   1.621   0.888
61357W        W32940  37.653   4.789  13.418
61358W        W32941  39.006  12.895   0.858
61359W        W32942  37.839   0.544   0.828
61360W        W32943  43.919  19.999   1.968
61361W        W32944  24.141  20.913  10.649
61362W        W32945  21.312  11.370  13.560
61363W        W32946   3.970  16.718  10.699
61364W        W32947  10.164  13.115   3.757
61365W        W32948   5.165  17.234  14.301
61366W        W32949  34.904  10.475   3.736
61367W        W32950  13.055  35.173  12.027
61368W        W32951  43.715  40.734  14.957
61369W        W32952  37.100  15.176   0.578
61370W        W32953  13.134   2.472   0.356
61371W        W32954  21.675  22.197   3.796
61372W        W32955  31.950   8.724   3.456
61373W        W32956  37.225   0.334  11.820
61374W        W32957  32.260  32.993  10.827
61375W        W32958  13.652   2.615  12.135
61376W        W32959  26.935  37.919  13.008
61377W        W32960  31.999  21.991   2.215
61378W        W32961  20.999  37.498   2.397
61379W        W32962   8.333  34.732  14.883
61380W        W32963  41.493  24.154  13.407
61381W        W32964  22.823  11.216  11.592
61382W        W32965  22.650   2.734  12.041
61383W        W32966  16.215  44.675   0.851
61384W        W32967  34.117  17.186   4.071
61385W        W32968  13.591   2.383   2.301
61386W        W32969   5.537  20.963   2.833
61387W        W32970  21.569  19.488   0.278
61388W        W32971  11.114  17.569   1.978
61389W        W32972  31.829  29.689  11.743
61390W        W32973  17.238  36.046   2.201
61391W        W32974   3.716  25.549   3.889
61392W        W32975  35.649  24.480   1.718
61393W        W32976  30.925  27.088   4.810
61394W        W32977  11.636  23.148   0.291
61395W        W32978  33.189  24.808  14.325
61396W        W32979  27.164  24.028  12.628
61397W        W32980  32.334  34.092  12.064
61398W        W32981  39.816  24.040   0.336
61399W        W32982  43.032   2.828  11.603
61400W        W32983  18.889  29.931   3.155
61401W        W32984   0.659  35.337   1.705
61402W        W32985  27.958  36.996  12.097
61403W        W32986  40.520  12.667   0.442
61404W        W32987  10.096   9.985  14.056
61405W        W32988  25.523  34.167   4.653
61406W        W32989  17.132  40.842  10.809
61407W        W32990  38.290  38.518   4.628
61408W        W32991  40.530  42.238   0.025
61409W        W32992  26.092  21.653  10.464
61410W        W32993   7.743   0.021  13.036
61411W        W32994   2.001  24.514   3.237
61412W        W32995  11.457  22.308   1.267
61413W        W32996   3.459   3.894  12.414
61414W        W32997  30.623   4.190   1.356
61415W        W32998   6.354  15.831  13.883
61416W        W32999  41.963  40.843   2.745
61417W        W33000   7.665   8.313  14.839
61418W        W33001   3.068  37.949   0.722
61419W        W33002  43.242   7.299   3.269
61420W        W33003  20.436  24.196  12.921
61421W        W33004   9.406  43.420   1.420
61422W        W33005  42.054  11.791  12.526
61423W        W33006   6.257   8.572  13.032
61424W        W33007  39.356  39.966   2.739
61425W        W33008  21.024   1.945   3.587
61426W        W33009  21.176   0.524   3.452
61427W        W33010  15.709   8.629   4.688
61428W        W33011   5.514  14.345  11.750
61429W        W33012  11.326  19.820  10.790
61430W        W33013  10.109  39.110  14.023
61431W        W33014  37.927  40.431   3.264
61432W        W33015  31.175  23.437   5.507
61433W        W33016   8.941  39.382   0.316
61434W        W33017  34.255  13.397   0.244
61435W        W33018  13.724   7.133   1.857
61436W        W33019  21.065  29.418   2.657
61437W        W33020  24.127  30.615  14.990
61438W        W33021   2.443   3.161   5.067
61439W        W33022  40.752  33.145  12.950
61440W        W33023  35.085  30.662  14.798
61441W        W33024  13.947  27.084   2.561
61442W        W33025  24.694  43.884   4.270
61443W        W33026  13.623  26.468  13.457
61444W        W33027  30.445  17.149   0.214
61445W        W33028  43.324  43.382  11.409
61446W        W33029  29.689  20.346   2.598
61447W        W33030  40.443  15.621   2.781
61448W        W33031  19.808   1.764   0.872
61449W        W33032  38.994  39.537  13.035
61450W        W33033  16.058  37.541  12.496
61451W        W33034   9.990  40.237   5.053
61452W        W33035  39.574  21.242   0.496
61453W        W33036  35.565  42.688   1.825
61454W        W33037  40.483   2.332   1.240
61455W        W33038  43.484  20.079  12.041
61456W        W33039   6.207  24.235  14.293
61457W        W33040  26.561  23.208   4.214
61458W        W33041  24.454  12.737  14.980
61459W        W33042  19.569  33.493  12.442
61460W        W33043   4.268  29.223   3.729
61461W        W33044  40.468  19.624   3.025
61462W        W33045   3.888   3.589  12.114
61463W        W33046  28.545  30.967   0.614
61464W        W33047  32.748  36.437   1.579
61465W        W33048  18.568  20.051  12.383
61466W        W33049   7.409  24.972   0.809
61467W        W33050   0.561   5.508  14.455
61468W        W33051  34.574  17.520   4.867
61469W        W33052  14.089  26.038  14.006
61470W        W33053  43.486  32.917  12.420
61471W        W33054  36.313  20.536   0.319
61472W        W33055   7.619   1.485  14.504
61473W        W33056  17.326   0.465   3.510
61474W        W33057  21.759  15.182   1.188
61475W        W33058  33.858  30.448  13.846
61476W        W33059  38.069  14.283  13.831
61477W        W33060  37.295  18.211  14.827
61478W        W33061  14.136   2.638   4.979
61479W        W33062  15.490   0.748   4.128
61480W        W33063  25.674  14.276   0.756
61481W        W33064   8.729  19.247   0.283
61482W        W33065  20.544  14.958  14.965
61483W        W33066  42.888  24.169  12.496
61484W        W33067  38.344  38.099   1.255
61485W        W33068  30.552  38.970  14.382
61486W        W33069  35.087  13.662  14.803
61487W        W33070   9.410  26.958   0.312
61488W        W33071  35.179  28.862  13.485
61489W        W33072  33.611  12.258  12.014
61490W        W33073  12.077   2.139  10.884
61491W        W33074  33.168  13.151  12.446
61492W        W33075   1.667  33.698  10.973
61493W        W33076  31.859   1.753   2.822
61494W        W33077  11.182   2.954  14.880
61495W        W33078  31.137  30.443  12.983
61496W        W33079   0.864  28.937   2.793
61497W        W33080  31.691  42.460  11.731
61498W        W33081  25.273   9.850   0.173
61499W        W33082  22.722  20.730   1.431
61500W        W33083   2.072  26.516   0.202
61501W        W33084   3.901  22.765  10.300
61502W        W33085  38.654  29.728  13.889
61503W        W33086  13.795  36.632   4.385
61504W        W33087  11.583  20.314   3.781
61505W        W33088  36.072  29.454  12.635
61506W        W33089  44.437  34.903   1.473
61507W        W33090  36.271  12.743   3.128
61508W        W33091  24.575   4.998   0.748
61509W        W33092  28.900  38.979   1.479
61510W        W33093  30.737  23.670  10.748
61511W        W33094  35.123  26.151   0.940
61512W        W33095   3.062   8.418   4.133
61513W        W33096  21.514  33.192  12.937
61514W        W33097  14.638  14.587  13.858
61515W        W33098  15.619  20.812   3.324
61516W        W33099  27.837  33.157  14.832
61517W        W33100  24.933  40.787   0.617
61518W        W33101   5.707  27.435   0.935
61519W        W33102  22.502  26.617   1.908
61520W        W33103  39.531   4.594   0.179
61521W        W33104  32.582  32.141  14.507
61522W        W33105  19.672  27.622  11.625
61523W        W33106  16.309  42.751  14.303
61524W        W33107  37.573   9.686   1.786
61525W        W33108  21.593  16.807  12.788
61526W        W33109  36.592   8.687  14.042
61527W        W33110  32.036  44.931   4.699
61528W        W33111   9.968  16.196   0.771
61529W        W33112  16.278   5.711  12.495
61530W        W33113  29.908   3.198  13.979
61531W        W33114  44.949  16.584  11.841
61532W        W33115   5.251  21.267   4.125
61533W        W33116   6.671  42.880  11.403
61534W        W33117  33.962  40.509  12.930
61535W        W33118  22.982  10.189  13.275
61536W        W33119   0.688   6.232  13.113
61537W        W33120  25.556  14.382   3.240
61538W        W33121  37.357  32.372   1.179
61539W        W33122  18.189   0.775   4.528
61540W        W33123  11.392  11.988  14.456
61541W        W33124  40.935   4.032  14.261
61542W        W33125  42.764  12.687   4.123
61543W        W33126  11.421   0.936  13.895
61544W        W33127   1.004   8.976  12.630
61545W        W33128   4.508   4.611  11.492
61546W        W33129   9.693   1.487   2.427
61547W        W33130   6.348   9.191  11.562
61548W        W33131  44.773   7.301   3.200
61549W        W33132   2.353   4.306  14.540
61550W        W33133  38.496  13.603   1.902
61551W        W33134  29.711   8.811  14.092
61552W        W33135  30.529  13.712   3.414
61553W        W33136  14.558  30.180  11.249
61554W        W33137  36.499  25.694   1.239
61555W        W33138  42.952   0.011  14.772
61556W        W33139  24.000  37.431   4.109
61557W        W33140   9.348  21.140   2.443
61558W        W33141  31.454  14.252   0.330
61559W        W33142  41.345   1.708   3.278
61560W        W33143  12.256   5.506   3.904
61561W        W33144  31.390  14.440  13.518
61562W        W33145  43.351  38.983   2.192
61563W        W33146  31.039  40.764  10.877
61564W        W33147  39.602  15.011   0.755
61565W        W33148  23.740  35.421  10.446
61566W        W33149  27.430  36.011   0.814
61567W        W33150  32.561  40.472  10.729
61568W        W33151   1.603  31.210   2.679
61569W        W33152  35.480  23.521  14.908
61570W        W33153  32.331   4.654  10.113
61571W        W33154   6.237   3.507  11.064
61572W        W33155  11.056   2.809  11.275
61573W        W33156  36.654   1.635  14.898
61574W        W33157   3.901   3.218  14.584
61575W        W33158   8.866   7.149   3.692
61576W        W33159  19.031  24.495   0.855
61577W        W33160  25.318  26.939   3.784
61578W        W33161  10.280  41.696  10.244
61579W        W33162  35.824   2.370   2.095
61580W        W33163  40.862  22.808  11.104
61581W        W33164   1.296  18.342  13.869
61582W        W33165  29.552  17.406   2.684
61583W        W33166  23.556   5.403   0.913
61584W        W33167  12.650  29.248  11.179
61585W        W33168  39.412  10.610   2.017
61586W        W33169  28.861  28.440   0.292
61587W        W33170  26.147   3.062   1.386
61588W        W33171  41.998   2.896   0.680
61589W        W33172  23.234   2.431   4.136
61590W        W33173  11.156   3.564   4.022
61591W        W33174  30.576   2.537   4.128
61592W        W33175  39.984  15.669  13.286
61593W        W33176  26.923  23.688  12.294
61594W        W33177  15.085  40.480   0.203
61595W        W33178  31.155  13.184  11.190
61596W        W33179   8.104  39.069   1.887
61597W        W33180  39.423  26.435  10.654
61598W        W33181  20.782   4.208  11.985
61599W        W33182  27.037  42.535  13.952
61600W        W33183  44.525   5.932   3.301
61601W        W33184  15.616  22.527   4.517
61602W        W33185   9.241  39.982   2.678
61603W        W33186  27.919  42.222   1.272
61604W        W33187  23.508  44.385   2.364
61605W        W33188   9.635   4.478  11.526
61606W        W33189  32.484  31.041   4.539
61607W        W33190   1.247   6.686  12.364
61608W        W33191   7.784  15.844   1.246
61609W        W33192  21.746   3.541   3.218
61610W        W33193  22.912  10.577  11.337
61611W        W33194  29.236  17.622   2.084
61612W        W33195  26.598  29.514   4.784
61613W        W33196  25.765  12.236   4.620
61614W        W33197  31.614  42.529   4.650
61615W        W33198  15.186  43.351   2.619
61616W        W33199  10.885  30.964  12.837
61617W        W33200  37.874  24.548   3.732
61618W        W33201   3.720   2.205  11.177
61619W        W33202  32.131   8.438  12.477
61620W        W33203   1.906  39.829   0.466
61621W        W33204  13.052   1.657   0.951
61622W        W33205  42.646  37.608  14.591
61623W        W33206   3.169  31.012   2.755
61624W        W33207  30.386   1.337  13.248
61625W        W33208  24.189  35.389   1.678
61626W        W33209  11.906   8.320   2.610
61627W        W33210  34.017  14.171   3.643
61628W        W33211  35.512  34.095   3.134
61629W        W33212  30.506   4.838   2.650
61630W        W33213  24.568  39.860   4.865
61631W        W33214   4.600  29.762   1.137
61632W        W33215   1.853  27.885  13.509
61633W        W33216  16.833  23.519   2.878
61634W        W33217  31.427   7.779   0.294
61635W        W33218  34.831  38.887  10.279
61636W        W33219   3.866  15.027  13.113
61637W        W33220   7.177  19.589   2.252
61638W        W33221   2.269   5.330   2.741
61639W        W33222  30.930  13.196  12.148
61640W        W33223  15.067  36.887  14.674
61641W        W33224  43.805  11.889  14.018
61642W        W33225   7.735  42.291  10.700
61643W        W33226  39.432   3.167  11.527
61644W        W33227  30.452  27.147   4.565
61645W        W33228  42.201  38.921   1.715
61646W        W33229  34.195  41.986   1.725
61647W        W33230   3.921  40.414   3.223
61648W        W33231  34.556  36.940  14.305
61649W        W33232   4.729  32.186   4.269
61650W        W33233  30.901  25.420  11.146
61651W        W33234   1.938  24.016   3.088
61652W        W33235  34.125   1.386  11.112
61653W        W33236   0.719  15.959  12.765
61654W        W33237  29.690  23.341  14.229
61655W        W33238  26.548   9.269  12.961
61656W        W33239  29.328   5.763  11.866
61657W        W33240  32.889  21.087   3.913
61658W        W33241  12.582   8.202  13.353
61659W        W33242   2.837  32.702   0.288
61660W        W33243  24.703  36.155   4.564
61661W        W33244  26.122  35.051  10.426
61662W        W33245  31.927  29.456   0.412
61663W        W33246   0.877  35.391  11.939
61664W        W33247   3.384  29.902  12.446
61665W        W33248  30.875   2.029   4.529
61666W        W33249  27.651  15.556   1.911
61667W        W33250  17.750  26.600  11.425
61668W        W33251  16.698  42.532  10.659
61669W        W33252  13.121   2.362   2.107
61670W        W33253  35.484  22.536  14.882
61671W        W33254   9.270  38.266   2.395
61672W        W33255  36.999   4.675   1.404
61673W        W33256  16.559  43.495   3.405
61674W        W33257  26.632   0.612   2.129
61675W        W33258  44.511  11.897   0.491
61676W        W33259  28.152   3.481  14.947
61677W        W33260   2.776   5.127  13.234
61678W        W33261  11.327   6.285  10.415
61679W        W33262  25.788  17.993   3.364
61680W        W33263  16.246   2.323  10.517
61681W        W33264   4.704  41.506  10.948
61682W        W33265  11.430  30.402  14.212
61683W        W33266  29.008  43.304   3.238
61684W        W33267  43.907  11.107  13.543
61685W        W33268  25.464  15.677   2.651
61686W        W33269  34.633  43.068  14.948
61687W        W33270  22.950  33.646  10.818
61688W        W33271  25.278  17.401  14.485
61689W        W33272  35.025  14.103   4.789
61690W        W33273  35.225  35.182  12.449
61691W        W33274  28.415  38.696   0.808
61692W        W33275  15.038  29.132  12.569
61693W        W33276  38.108   1.170   3.250
61694W        W33277  13.759  10.751   3.814
61695W        W33278  40.295  19.607   5.042
61696W        W33279  15.159  29.904   4.642
61697W        W33280   4.871  16.031   4.485
61698W        W33281  28.695  14.317   2.315
61699W        W33282  42.504  41.441   2.938
61700W        W33283  15.145  17.139   3.061
61701W        W33284  19.628  42.023   2.291
61702W        W33285   7.205  11.151  11.574
61703W        W33286  13.204  24.437   4.402
61704W        W33287   4.533   6.377  13.480
61705W        W33288  21.162   2.454  14.468
61706W        W33289   2.718  44.698   0.717
61707W        W33290  27.926   5.751  10.608
61708W        W33291  38.043  28.753   3.023
61709W        W33292  27.718  30.755   2.852
61710W        W33293  33.507  35.102  11.951
61711W        W33294  12.808  15.262  14.072
61712W        W33295  38.544  30.913   2.416
61713W        W33296  32.066  43.736   3.393
61714W        W33297  17.118   9.219  10.616
61715W        W33298  14.312  30.176   4.988
61716W        W33299  18.481  41.449   0.844
61717W        W33300  15.228   8.279  11.541
61718W        W33301  42.888   5.918  10.127
61719W        W33302  12.324   4.904  13.470
61720W        W33303   4.161  40.347   3.686
61721W        W33304   4.370   7.624  11.302
61722W        W33305   2.395  11.511   4.619
61723W        W33306  26.424  30.139  11.417
61724W        W33307  38.528   0.992  13.488
61725W        W33308  42.546  41.814   0.808
61726W        W33309  40.828  23.017  14.297
61727W        W33310  13.706   6.773   3.711
61728W        W33311  28.688  36.625  14.966
61729W        W33312  16.077  24.662  14.408
61730W        W33313   2.718   8.549   4.516
61731W        W33314  25.323  14.669  11.720
61732W        W33315  40.046  26.152  11.240
61733W        W33316   0.546  29.667   3.757
61734W        W33317  41.268  34.512  12.022
61735W        W33318  31.318  35.667   1.191
61736W        W33319   7.253  14.873  11.515
61737W        W33320  30.766  16.269  14.736
61738W        W33321  10.619  12.582  12.456
61739W        W33322   7.878  36.005   0.490
61740W        W33323   7.478  29.190   1.350
61741W        W33324  21.249  31.813  11.017
61742W        W33325  44.251   3.270   0.049
61743W        W33326  19.754  32.568   0.402
61744W        W33327   2.511  36.542  14.261
61745W        W33328  21.453  31.083   2.328
61746W        W33329  39.634  12.624   1.795
61747W        W33330  33.936  31.653   1.235
61748W        W33331  21.712  25.589   3.592
61749W        W33332  23.113  31.479  13.506
61750W        W33333  29.469  31.848   5.561
61751W        W33334   9.868  37.938   4.880
61752W        W33335  13.168   0.777   1.050
61753W        W33336   4.945   6.528   0.362
61754W        W33337  41.456  37.836  13.900
61755W        W33338  41.599   0.211   2.870
61756W        W33339  33.607  17.806   1.065
61757W        W33340  17.713  43.133   2.576
61758W        W33341   2.184  19.642   4.163
61759W        W33342  35.438   7.961   1.269
61760W        W33343  31.431   2.991   4.141
61761W        W33344  15.047  22.126  13.377
61762W        W33345  42.894   4.834   3.258
61763W        W33346   0.306  29.912  11.140
61764W        W33347  17.344  44.747   2.992
61765W        W33348   8.804  26.730  13.972
61766W        W33349  43.871  35.996   3.143
61767W        W33350  14.816  22.051  12.490
61768W        W33351  24.485  43.039  14.675
61769W        W33352  42.246   8.634  12.905
61770W        W33353  41.250  31.539   2.846
61771W        W33354  41.606   2.088   4.953
61772W        W33355  41.267   7.282  11.375
61773W        W33356  27.731  31.224   1.962
61774W        W33357   6.874  30.648  12.133
61775W        W33358  41.088  29.461  12.484
61776W        W33359  21.233  25.042   2.264
61777W        W33360  44.376  15.288   1.384
61778W        W33361  13.092  24.514   3.398
61779W        W33362  38.583   2.013  13.064
61780W        W33363  43.024   1.377  14.514
61781W        W33364  26.191  13.594   4.558
61782W        W33365  14.199   6.091   4.189
61783W        W33366  41.790  35.006   2.641
61784W        W33367   3.449  23.142  12.390
61785W        W33368  14.711   1.523  12.833
61786W        W33369  27.126  16.450  12.237
61787W        W33370   2.791  38.019   1.700
61788W        W33371  20.357   2.292  12.934
61789W        W33372  27.140  11.720   4.379
61790W        W33373  14.150  27.566   0.338
61791W        W33374  12.196   3.391  13.357
61792W        W33375  18.521  33.022  14.059
61793W        W33376  41.634  13.078  12.473
61794W        W33377   0.398  38.748   0.296
61795W        W33378  32.845  14.262   1.227
61796W        W33379  25.928  40.826   0.745
61797W        W33380  37.898  18.036  11.682
61798W        W33381  40.295  23.280   1.952
61799W        W33382  44.656   0.327   2.792
61800W        W33383  26.109  28.898   1.343
61801W        W33384  23.887   6.964  13.904
61802W        W33385   7.128  10.824   4.579
61803W        W33386   5.212  31.150  13.347
61804W        W33387  26.474  39.104  11.940
61805W        W33388  36.088   0.343   4.613
61806W        W33389   7.120  42.780   4.207
61807W        W33390  24.164  42.856  14.092
61808W        W33391  44.184  27.579   2.889
61809W        W33392  42.599  19.327  11.240
61810W        W33393  32.057  21.232  13.373
61811W        W33394   8.193  31.573  11.408
61812W        W33395  35.930  38.929  14.054
61813W        W33396  28.165   7.694   0.392
61814W        W33397   6.502  26.081  12.981
61815W        W33398   9.248   9.855  13.870
61816W        W33399   7.847  14.678  12.552
61817W        W33400  33.433   2.397  14.820
61818W        W33401  42.291  16.889   1.682
61819W        W33402   1.848   1.974   4.561
61820W        W33403  13.725   8.694  13.514
61821W        W33404  38.156  19.266   2.074
61822W        W33405   5.259  16.694  14.632
61823W        W33406  20.719  33.954  12.511
61824W        W33407  12.745   8.295  14.739
61825W        W33408  19.594  31.403   4.843
61826W        W33409  43.764   2.852  12.840
61827W        W33410   3.479  35.026  14.962
61828W        W33411  24.617  12.552   1.529
61829W        W33412  21.200  14.808   2.330
61830W        W33413  36.233  10.868  10.782
61831W        W33414  10.459  10.687  12.920
61832W        W33415  39.471  15.620  14.213
61833W        W33416   6.835  38.109   1.828
61834W        W33417  31.914  25.305   1.739
61835W        W33418  34.378  13.325  11.113
61836W        W33419   3.787   2.392  11.657
61837W        W33420   6.329  14.892  14.697
61838W        W33421  33.973  14.343   4.707
61839W        W33422   4.352   8.300   2.762
61840W        W33423   5.692  35.700  10.760
61841W        W33424  18.110  35.638   1.403
61842W        W33425   3.732   3.468  12.599
61843W        W33426  37.563  31.401   4.134
61844W        W33427  19.653  36.307   1.212
61845W        W33428  31.336  16.596  14.548
61846W        W33429   0.048   8.787   2.246
61847W        W33430  25.571   1.711   0.300
61848W        W33431  41.136  24.246  11.004
61849W        W33432  21.548  26.891  12.728
61850W        W33433  44.245  36.814  14.865
61851W        W33434   4.995  17.181   0.358
61852W        W33435   7.721  18.805  14.072
61853W        W33436  34.085  25.537  12.040
61854W        W33437  33.133  13.227   2.822
61855W        W33438  30.247  25.575  11.634
61856W        W33439  23.751  30.393  14.069
61857W        W33440  44.734  25.007   3.158
61858W        W33441  26.435  28.082   0.287
61859W        W33442  30.339  22.520   4.506
61860W        W33443  17.975  24.057  12.525
61861W        W33444  40.528   6.430   3.844
61862W        W33445  31.736  12.070   2.788
61863W        W33446   0.961  35.052   4.864
61864W        W33447   0.602   4.199   3.686
61865W        W33448   6.255  15.563  10.771
61866W        W33449  20.422  20.736  12.981
61867W        W33450  39.973  10.811  10.647
61868W        W33451   2.731   1.860  13.442
61869W        W33452   7.990  15.078   2.134
61870W        W33453   5.392  42.250  10.877
61871W        W33454  37.891  36.296  13.430
61872W        W33455  10.656  19.512   4.129
61873W        W33456  44.968  31.141   1.927
61874W        W33457   1.385  16.888   4.867
61875W        W33458  42.933   9.732   0.042
61876W        W33459  39.571  25.423   3.605
61877W        W33460  41.239  42.333   0.276
61878W        W33461  32.053  24.439   4.201
61879W        W33462  25.503   4.204   0.989
61880W        W33463  15.705   2.040   3.233
61881W        W33464  42.407  22.555  14.451
61882W        W33465   1.343  21.468  12.335
61883W        W33466  19.853   4.635  12.064
61884W        W33467  41.296  14.263   1.775
61885W        W33468   7.398   4.722  12.027
61886W        W33469  25.289   4.832   2.972
61887W        W33470  29.985  22.187   9.843
61888W        W33471   6.302  25.084  12.360
61889W        W33472  22.024  10.946   0.232
61890W        W33473  32.386  39.250   0.277
61891W        W33474   0.117  17.555   0.502
61892W        W33475  21.964  36.062  14.963
61893W        W33476  24.525  17.080  11.537
61894W        W33477  14.272  41.053   2.218
61895W        W33478  18.344  15.062  12.414
61896W        W33479  40.730  39.101  10.431
61897W        W33480  37.065   5.887  13.898
61898W        W33481   4.426  28.000   0.608
61899W        W33482   4.844   7.720   4.199
61900W        W33483   5.368   7.207  14.587
61901W        W33484   4.386  10.045   3.232
61902W        W33485  21.574   1.694   1.950
61903W        W33486  35.390   8.462   1.357
61904W        W33487  41.889  38.728   2.675
61905W        W33488  40.797  26.139  11.545
61906W        W33489  44.926  14.124   4.541
61907W        W33490  36.420  11.748  14.789
61908W        W33491  17.207   3.546   4.192
61909W        W33492  11.859  38.111  13.696
61910W        W33493  40.980  25.727  11.253
61911W        W33494   6.791  37.325  12.022
61912W        W33495  33.955  11.216  13.141
61913W        W33496  43.479  23.064  14.004
61914W        W33497   7.425  32.490  11.544
61915W        W33498  18.251  31.586   0.973
61916W        W33499  41.880   0.544  11.194
61917W        W33500  26.682  44.852  10.607
61918W        W33501  31.030  19.282   0.095
61919W        W33502  25.673  29.678  11.003
61920W        W33503  14.567  20.182   2.117
61921W        W33504   8.073  39.102  13.084
61922W        W33505  21.667   8.158   0.905
61923W        W33506  44.884  15.667  10.775
61924W        W33507  37.555  25.418  13.964
61925W        W33508  39.403  12.573   4.648
61926W        W33509  30.521  12.872   4.761
61927W        W33510  16.045  44.961  12.397
61928W        W33511  15.622  15.390  13.567
61929W        W33512   1.430  11.224  13.575
61930W        W33513   9.267  41.039   1.875
61931W        W33514   2.302  37.884   1.391
61932W        W33515  35.557  30.464  14.796
61933W        W33516  12.542  44.778  10.495
61934W        W33517  24.255  10.921  14.898
61935W        W33518   2.531  19.488  12.317
61936W        W33519  36.430  18.626   0.721
61937W        W33520  36.982  32.654   0.966
61938W        W33521  18.725  41.066   4.695
61939W        W33522  36.875  26.496  12.148
61940W        W33523  15.842  37.533   0.447
61941W        W33524  19.131  22.396   1.233
61942W        W33525  20.249  15.251  12.295
61943W        W33526  31.968  41.551   2.770
61944W        W33527  29.531  31.210   4.046
61945W        W33528  26.157  36.429  14.549
61946W        W33529  19.309  21.218   1.669
61947W        W33530  37.876  43.959  12.596
61948W        W33531  43.021  37.003  13.792
61949W        W33532  20.502  32.408   0.858
61950W        W33533   2.783  22.709   3.149
61951W        W33534  19.388   4.324   0.334
61952W        W33535   0.244   9.876   2.336
61953W        W33536   2.468  20.981   0.877
61954W        W33537  14.288  20.563  11.212
61955W        W33538  26.606  31.494  14.717
61956W        W33539  20.963   8.265  11.403
61957W        W33540   0.344  38.601   2.780
61958W        W33541  30.138  10.904  13.383
61959W        W33542  36.480  17.201  14.054
61960W        W33543   9.629  11.636   3.254
61961W        W33544  14.305  12.761  12.406
61962W        W33545  29.573  37.847  11.713
61963W        W33546  29.473  26.999  14.945
61964W        W33547   9.662  23.985   0.072
61965W        W33548  21.967  29.690  13.052
61966W        W33549  36.769  12.043   2.733
61967W        W33550  10.446   6.693   1.839
61968W        W33551   6.271  12.347   3.317
61969W        W33552  42.551   1.976  12.033
61970W        W33553  13.870  40.567  10.822
61971W        W33554  15.782  32.541   0.510
61972W        W33555  15.831  44.238  13.057
61973W        W33556  21.270  38.507  14.813
61974W        W33557  27.430  44.984  13.344
61975W        W33558  40.848  26.515  12.327
61976W        W33559  10.185   0.657   2.259
61977W        W33560   2.839  38.090   3.688
61978W        W33561   2.772  24.662   4.779
61979W        W33562   4.334   5.159   4.159
61980W        W33563  18.284  26.184  13.010
61981W        W33564  43.987  35.800   1.400
61982W        W33565  11.224  35.650  14.984
61983W        W33566  38.517  38.579   1.049
61984W        W33567   1.517  39.443  12.595
61985W        W33568  18.829  36.435   1.855
61986W        W33569  28.596  11.111   4.188
61987W        W33570  10.085  22.765  14.257
61988W        W33571  31.495  39.249   2.752
61989W        W33572  37.955  40.872  10.790
61990W        W33573  43.868  25.081   2.207
61991W        W33574  38.114  22.517  12.397
61992W        W33575  28.208  11.368  11.815
61993W        W33576  13.798  43.116  12.389
61994W        W33577  32.459  33.386   3.729
61995W        W33578  26.641  16.199   4.622
61996W        W33579  40.637   3.450  13.831
61997W        W33580  44.527  31.621   3.139
61998W        W33581  24.386  35.072  12.407
61999W        W33582  42.000   3.369  10.816
62000W        W33583   5.504  10.450   1.007
62001W        W33584  13.143  19.213   4.243
62002W        W33585  34.063  43.890   3.277
62003W        W33586  11.146  42.008   0.704
62004W        W33587  34.633  31.518  14.962
62005W        W33588  26.277  24.631   3.669
62006W        W33589   6.440  29.550  11.596
62007W        W33590   8.645  36.921   0.676
62008W        W33591  10.408  43.817   0.934
62009W        W33592   2.944   7.675   2.734
62010W        W33593   9.001   2.431   2.884
62011W        W33594  19.611  38.581   2.721
62012W        W33595  10.623  21.568   2.295
62013W        W33596   9.914   1.292  12.921
62014W        W33597   3.645  32.587   1.888
62015W        W33598  30.592  19.558   4.564
62016W        W33599  41.473   2.947  14.017
62017W        W33600  36.965  29.951  12.981
62018W        W33601  10.061   5.757   0.957
62019W        W33602   7.784   4.136  12.494
62020W        W33603  11.182  40.860   1.441
62021W        W33604   3.675  14.160  13.565
62022W        W33605  18.048  13.414  11.909
62023W        W33606  20.498  16.691   0.321
62024W        W33607  27.055  10.143  14.189
62025W        W33608   6.242   9.739   1.267
62026W        W33609  20.353  41.521   4.073
62027W        W33610   6.251  31.453   4.284
62028W        W33611   1.258  27.005   2.712
62029W        W33612  40.988  22.543   2.903
62030W        W33613  16.075  11.211   2.236
62031W        W33614  38.424  39.694  11.691
62032W        W33615  39.463  25.916   1.455
62033W        W33616  16.281  15.460   4.698
62034W        W33617   3.604   7.949  11.962
62035W        W33618  29.475  11.305  14.415
62036W        W33619  34.921   4.821  14.104
62037W        W33620  19.074  32.865  12.097
62038W        W33621  15.328  30.450  10.700
62039W        W33622  31.691   2.122  11.220
62040W        W33623  11.624   2.909   3.256
62041W        W33624   3.164  39.903   3.447
62042W        W33625  40.560  44.288  12.572
62043W        W33626  29.199  21.740  13.002
62044W        W33627  14.733  24.600   3.648
62045W        W33628   2.902  41.747  14.306
62046W        W33629  27.528  42.311  13.813
62047W        W33630   8.553   4.093  12.943
62048W        W33631  32.973  12.178  12.598
62049W        W33632  34.059  18.703  11.383
62050W        W33633  36.814  43.620   0.155
62051W        W33634  40.496   1.746   3.673
62052W        W33635  29.433  37.991  13.482
62053W        W33636  22.522  42.018  14.536
62054W        W33637  19.669  21.135   3.304
62055W        W33638   6.883   0.355  12.560
62056W        W33639  29.003  23.337   1.749
62057W        W33640   0.983  41.887  10.793
62058W        W33641  25.364  13.852   2.380
62059W        W33642  41.743  34.921  12.908
62060W        W33643   7.186  12.425  14.793
62061W        W33644  44.691  24.431   2.647
62062W        W33645  11.100  23.983  11.116
62063W        W33646  42.311  34.537  14.015
62064W        W33647   2.313  38.800  14.859
62065W        W33648   9.171  20.555   0.014
62066W        W33649  12.565   4.027   4.547
62067W        W33650  28.470  29.383   0.060
62068W        W33651  43.505  42.182   0.658
62069W        W33652  24.049  17.169  12.365
62070W        W33653  37.855  24.322  13.869
62071W        W33654  29.564  32.621  14.290
62072W        W33655  20.681  43.608  10.746
62073W        W33656  19.300   8.230  13.408
62074W        W33657  18.611  38.171   0.064
62075W        W33658   3.337  39.084  11.510
62076W        W33659  11.789  33.620  11.895
62077W        W33660  27.868  38.848  12.708
62078W        W33661  10.938  37.604   3.111
62079W        W33662  14.766  39.446   2.792
62080W        W33663  24.465  39.758  14.529
62081W        W33664   5.386   4.053   1.692
62082W        W33665  40.289  27.439  11.603
62083W        W33666  35.362  31.418  13.796
62084W        W33667   4.498   4.181   3.914
62085W        W33668  40.730  44.826  10.692
62086W        W33669  24.834  27.120  13.244
62087W        W33670  13.312  37.253  10.139
62088W        W33671  36.923  40.064  12.461
62089W        W33672  38.589  42.912   3.717
62090W        W33673   2.829  19.465  11.888
62091W        W33674  35.470  22.256  12.871
62092W        W33675   8.334   0.833  13.169
62093W        W33676   3.411  26.554  10.623
62094W        W33677  11.577  10.184  13.738
62095W        W33678  28.988  25.857   0.934
62096W        W33679   0.034  30.317   0.719
62097W        W33680  41.281  11.390  12.476
62098W        W33681  28.987  33.133   3.609
62099W        W33682   8.862   4.855  11.916
62100W        W33683   7.397  40.998  10.666
62101W        W33684  33.079  21.028  11.937
62102W        W33685   4.125  34.171  11.879
62103W        W33686  23.473   9.027  12.164
62104W        W33687   9.552  19.177  12.153
62105W        W33688   9.801   7.613   0.457
62106W        W33689   9.363  15.517  14.781
62107W        W33690  12.601  23.550   3.167
62108W        W33691   0.642  20.788   2.785
62109W        W33692  24.137  16.337   1.471
62110W        W33693   8.343  18.296   0.431
62111W        W33694  39.381  28.544   0.037
62112W        W33695  21.053  32.688   3.205
62113W        W33696  16.116  20.664  11.555
62114W        W33697   9.177   9.150   1.800
62115W        W33698   4.794  10.425  11.879
62116W        W33699  39.382  26.277  14.753
62117W        W33700  37.633  44.321  14.424
62118W        W33701  11.241  44.685  11.050
62119W        W33702  11.947  33.331  11.488
62120W        W33703  30.431   6.933   4.392
62121W        W33704  33.528  42.755   2.507
62122W        W33705  40.518  29.922   1.640
62123W        W33706  36.441  24.696  10.653
62124W        W33707  33.554  39.887   1.300
62125W        W33708   2.914  21.316  10.658
62126W        W33709   0.813  27.015   0.512
62127W        W33710  28.647  12.401  10.285
62128W        W33711   9.973  25.464  11.750
62129W        W33712  33.231  11.389   3.835
62130W        W33713  41.949  22.519  13.640
62131W        W33714   8.258  31.235  14.486
62132W        W33715  15.634  41.289  12.602
62133W        W33716  36.710   4.327   3.630
62134W        W33717  18.864  12.302   4.504
62135W        W33718  28.285  38.000   3.933
62136W        W33719  21.021  22.306  13.898
62137W        W33720  33.732  10.357   9.999
62138W        W33721  38.951  30.627  13.571
62139W        W33722  10.390  28.428  13.638
62140W        W33723  43.462   2.173   1.886
62141W        W33724  42.008  35.421   2.869
62142W        W33725  12.075  15.059   1.516
62143W        W33726  42.402  18.248  12.701
62144W        W33727  43.492  42.465   2.182
62145W        W33728  13.661  24.735  13.048
62146W        W33729  17.242  22.141   3.139
62147W        W33730  17.232   6.086   1.519
62148W        W33731  26.011  43.458   5.318
62149W        W33732   2.800  29.226   3.858
62150W        W33733  13.797  23.027  11.662
62151W        W33734  11.327  25.772  11.434
62152W        W33735   2.178  30.203   4.150
62153W        W33736   6.751   8.895  11.556
62154W        W33737  26.286  19.814   1.285
62155W        W33738  23.888  10.305   3.063
62156W        W33739  20.520  34.853   3.489
62157W        W33740  41.267  39.795  11.661
62158W        W33741   6.889  26.119   3.604
62159W        W33742  14.808  21.230  10.652
62160W        W33743  19.701   5.694  14.902
62161W        W33744   2.188  42.330   0.984
62162W        W33745  41.583  40.211  10.764
62163W        W33746  34.672  28.692  10.452
62164W        W33747   5.162  19.617   4.737
62165W        W33748  12.288   0.318  12.878
62166W        W33749  42.248  14.432  11.475
62167W        W33750  20.091  25.196   0.067
62168W        W33751  31.995  16.448  12.910
62169W        W33752   3.987  10.309   1.747
62170W        W33753  30.056  10.852  14.833
62171W        W33754  39.267  20.005  13.954
62172W        W33755   7.232  29.494   3.244
62173W        W33756  14.023  33.087   4.241
62174W        W33757  43.546   5.489  14.973
62175W        W33758  23.988   3.730  12.516
62176W        W33759  18.648  13.030   2.797
62177W        W33760  34.311  13.883   2.736
62178W        W33761  15.975  19.526  14.243
62179W        W33762  44.278  39.950   0.969
62180W        W33763   6.627  18.134   1.191
62181W        W33764   8.604   8.458  11.091
62182W        W33765  42.236   7.574  14.786
62183W        W33766   9.892  24.998  11.946
62184W        W33767  13.114   5.433   2.686
62185W        W33768  23.538  35.462  14.414
62186W        W33769  43.607   4.964   2.673
62187W        W33770  10.228  44.846  10.631
62188W        W33771  39.471  43.233  11.571
62189W        W33772   7.371  16.639   1.657
62190W        W33773  33.568  29.860   2.057
62191W        W33774  23.642   9.817   0.535
62192W        W33775  28.511  38.575  11.150
62193W        W33776   4.397  35.391  14.809
62194W        W33777  27.548  28.553   1.828
62195W        W33778  31.360   0.430  11.505
62196W        W33779  22.626  43.076   2.950
62197W        W33780  29.105  40.801   4.674
62198W        W33781  29.648  27.223   4.231
62199W        W33782  11.314  31.519   2.847
62200W        W33783  20.205  33.090  10.694
62201W        W33784  14.975  12.240  12.610
62202W        W33785   6.811  15.261  12.160
62203W        W33786  17.140  11.216   3.267
62204W        W33787  15.565  24.271   4.155
62205W        W33788   6.132  19.567  11.187
62206W        W33789  11.237  23.663   0.521
62207W        W33790  32.043   7.961  14.750
62208W        W33791  14.645  24.444  14.974
62209W        W33792  28.507  42.983   2.688
62210W        W33793  35.911   7.217  14.052
62211W        W33794  37.964  12.764  10.993
62212W        W33795  11.420  22.763  10.532
62213W        W33796  14.745  36.863   5.056
62214W        W33797   0.836  18.091   0.345
62215W        W33798  28.081  22.061   0.367
62216W        W33799  41.070  41.587  14.388
62217W        W33800  29.357  21.714   2.701
62218W        W33801   9.365  18.676  14.110
62219W        W33802  15.242   1.966   1.903
62220W        W33803  14.148   5.716  11.102
62221W        W33804   6.561  23.557   4.033
62222W        W33805   7.540  38.065   0.681
62223W        W33806  40.603  43.696  13.445
62224W        W33807  34.458  37.609   4.910
62225W        W33808  44.702   7.079   0.347
62226W        W33809  20.001  24.440   0.764
62227W        W33810  31.641  12.267   3.702
62228W        W33811  12.353  44.931   1.811
62229W        W33812   3.308   5.885  10.118
62230W        W33813  21.563  44.436   3.487
62231W        W33814  42.095  27.579   4.922
62232W        W33815  31.610   5.217   3.757
62233W        W33816  25.116  33.870   0.475
62234W        W33817  35.093  19.580   3.631
62235W        W33818  30.662  14.019  11.194
62236W        W33819  24.281   7.837  11.940
62237W        W33820   3.920   1.248   1.927
62238W        W33821  40.044  20.267   4.559
62239W        W33822  17.540  36.008  13.896
62240W        W33823  21.237  16.444  14.465
62241W        W33824  33.663  33.562   4.139
62242W        W33825   4.888  38.556   3.744
62243W        W33826   8.834  27.865  12.312
62244W        W33827  35.323   7.756  14.400
62245W        W33828  40.223  13.119  13.365
62246W        W33829  29.991   2.168   0.844
62247W        W33830  29.551  31.032   2.144
62248W        W33831  28.734  41.300  11.998
62249W        W33832   9.216  44.568   3.148
62250W        W33833  18.019  16.599  12.232
62251W        W33834   2.619  37.093   1.281
62252W        W33835   8.587   4.452  14.734
62253W        W33836  34.410  44.476   3.661
62254W        W33837  20.327  17.293   5.443
62255W        W33838   4.961  25.155   1.835
62256W        W33839  29.458   9.827  10.854
62257W        W33840  36.071  36.026  10.409
62258W        W33841  15.656  29.429  10.444
62259W        W33842  27.030  17.639   4.635
62260W        W33843  12.708  34.656   0.756
62261W        W33844  32.673  40.478  11.620
62262W        W33845  21.006  12.735  13.365
62263W        W33846   4.470  29.947  13.875
62264W        W33847  28.229  28.190  14.378
62265W        W33848  32.415  13.281   4.102
62266W        W33849  41.020   4.849  13.384
62267W        W33850   4.384   5.496  14.897
62268W        W33851   3.032  36.304  10.150
62269W        W33852   9.368  38.324  11.104
62270W        W33853  40.151  26.181  14.526
62271W        W33854   0.817  39.008  12.465
62272W        W33855   1.467  34.066  11.412
62273W        W33856   3.485   5.901  11.700
62274W        W33857  23.715  32.901   4.377
62275W        W33858  24.554  25.705   3.232
62276W        W33859   3.779  44.843  13.803
62277W        W33860  21.488  33.084   2.258
62278W        W33861  40.151   8.180   2.389
62279W        W33862  39.889   3.673   0.309
62280W        W33863  34.285   3.746   4.160
62281W        W33864  27.228  12.066   4.759
62282W        W33865   7.759  10.196  14.329
62283W        W33866   6.058  17.486  14.154
62284W        W33867  27.520   2.415  13.118
62285W        W33868  33.590  13.624  14.323
62286W        W33869  28.724  16.208  14.573
62287W        W33870  23.124  38.636   1.001
62288W        W33871  10.127  39.899   1.422
62289W        W33872  31.270  35.916  11.496
62290W        W33873  18.874   9.278   4.918
62291W        W33874   4.773   7.670  10.470
62292W        W33875  13.884  40.059  14.465
62293W        W33876   9.632  19.081   4.562
62294W        W33877  16.274  20.900  11.135
62295W        W33878  38.459  19.519   0.436
62296W        W33879  18.294  43.955   3.914
62297W        W33880  17.722  21.627   3.601
62298W        W33881   6.163  23.612   1.690
62299W        W33882  34.434  43.414  11.010
62300W        W33883  41.710  36.614   2.163
62301W        W33884   2.266  18.824   0.037
62302W        W33885  39.113  15.189   0.784
62303W        W33886  25.648  43.000   1.942
62304W        W33887  40.029  44.190   3.685
62305W        W33888   9.601  43.041   3.170
62306W        W33889  22.362   8.241  10.672
62307W        W33890  16.731  15.196  14.738
62308W        W33891  41.974  14.735   2.419
62309W        W33892   4.953  12.042  14.411
62310W        W33893  10.711  31.046   3.412
62311W        W33894  26.244  18.971   0.247
62312W        W33895   2.823  34.409  14.812
62313W        W33896  32.459  35.370   2.899
62314W        W33897  31.611  22.818   3.344
62315W        W33898  10.737  15.154   0.415
62316W        W33899   0.284  24.809   3.819
62317W        W33900  18.337  16.871  14.924
62318W        W33901  28.434  39.743  14.722
62319W        W33902  14.251  42.341   1.876
62320W        W33903  28.393  41.906  10.759
62321W        W33904  30.432  26.889  11.495
62322W        W33905  27.128  22.717   4.680
62323W        W33906  22.166  44.948  14.275
62324W        W33907  32.464  25.818   3.014
62325W        W33908  23.104  25.939   4.566
62326W        W33909  20.766   9.477  11.910
62327W        W33910   2.056  24.021   1.277
62328W        W33911  20.737  43.841   2.462
62329W        W33912   5.281  35.498   2.199
62330W        W33913  13.825  10.545   3.332
62331W        W33914   0.444  37.546  12.538
62332W        W33915   0.590  11.244   4.205
62333W        W33916  32.708  32.772  11.745
62334W        W33917  25.725  28.055  12.911
62335W        W33918  30.197  14.284   2.838
62336W        W33919   7.271  29.384   1.886
62337W        W33920  10.030  40.202  14.787
62338W        W33921  26.894   5.179   3.920
62339W        W33922  26.452  16.223   2.405
62340W        W33923  42.138  29.553   2.229
62341W        W33924   0.866  33.836  12.802
62342W        W33925  11.691  43.362  11.811
62343W        W33926  24.141  22.807   0.039
62344W        W33927  13.091  30.316   0.871
62345W        W33928  11.610  32.354  12.609
62346W        W33929   5.694  26.423   3.943
62347W        W33930  24.576  16.632  12.970
62348W        W33931  23.779  37.327  13.589
62349W        W33932  17.854  35.446  12.492
62350W        W33933  35.366  21.639   0.812
62351W        W33934  13.264  44.152  11.883
62352W        W33935  20.667  40.547  12.421
62353W        W33936  18.832  39.722   0.212
62354W        W33937  33.822   7.634  14.643
62355W        W33938  25.528  32.961   0.656
62356W        W33939  40.510  35.846  10.828
62357W        W33940  34.946  34.521  11.114
62358W        W33941   3.661   1.011   0.322
62359W        W33942   4.076   2.327  12.086
62360W        W33943  42.584   4.826   2.694
62361W        W33944  27.743   7.203  11.506
62362W        W33945  37.301  28.556   3.740
62363W        W33946  17.950  41.005   4.028
62364W        W33947  20.542  38.901   0.843
62365W        W33948  12.176  25.148   3.786
62366W        W33949  11.746  35.891  10.946
62367W        W33950  34.951  38.556   4.288
62368W        W33951  12.751  19.030  10.658
62369W        W33952  30.026   1.119  12.624
62370W        W33953  17.297  23.162   4.622
62371W        W33954   1.986  43.687   2.832
62372W        W33955  28.292  20.781   2.819
62373W        W33956   3.870   0.502   2.390
62374W        W33957  26.632  33.982   2.716
62375W        W33958  30.606  18.486   3.642
62376W        W33959  12.367  36.800   1.279
62377W        W33960  44.597   7.738   0.722
62378W        W33961  28.667   3.990   1.808
62379W        W33962  44.755  32.409  11.114
62380W        W33963  21.946   3.665   0.044
62381W        W33964   8.411  16.483  14.887
62382W        W33965  36.533  11.876   1.414
62383W        W33966   2.980  13.454   3.123
62384W        W33967   2.458  41.433  14.331
62385W        W33968   9.270   1.600   9.996
62386W        W33969  38.445  34.781  12.955
62387W        W33970  17.704  27.421  14.513
62388W        W33971  44.911  16.395   1.299
62389W        W33972  18.069  24.073  10.648
62390W        W33973  17.256   3.253  12.853
62391W        W33974  17.678  25.237  12.648
62392W        W33975  38.930  29.914   4.539
62393W        W33976   2.479  13.820  11.082
62394W        W33977   0.429  20.514  12.472
62395W        W33978  37.592  30.582   0.903
62396W        W33979  40.802  33.856  11.610
62397W        W33980  39.275   9.868   3.845
62398W        W33981  25.770  12.684   0.472
62399W        W33982  39.604  31.553  10.757
62400W        W33983  37.828  22.441  14.252
62401W        W33984  11.773   5.223   4.586
62402W        W33985  19.559  24.084   2.741
62403W        W33986  20.080  26.354   4.516
62404W        W33987   8.767  36.032   0.047
62405W        W33988  18.830  30.790   2.716
62406W        W33989  10.474  33.633  14.674
62407W        W33990  19.122  36.038  14.835
62408W        W33991  27.214  21.638  13.927
62409W        W33992  24.628  26.503  12.517
62410W        W33993  24.061  15.524   2.606
62411W        W33994  16.212  23.545  12.171
62412W        W33995  11.637   2.453   4.443
62413W        W33996  18.474  44.821  12.963
62414W        W33997  42.252  12.000   1.666
62415W        W33998  24.517  16.691   3.431
62416W        W33999  38.573  33.709   4.896
62417W        W34000  14.213  26.725  13.502
62418W        W34001  10.853  13.372  13.486
62419W        W34002  21.696  32.891  14.803
62420W        W34003  44.949   0.230  12.230
62421W        W34004   7.912  12.808   4.172
62422W        W34005  34.932  28.651  14.051
62423W        W34006  26.131  40.337  12.997
62424W        W34007  31.452  28.156  14.523
62425W        W34008   5.023  34.604   4.098
62426W        W34009  17.188  34.631   1.051
62427W        W34010  13.035   4.140   4.765
62428W        W34011   2.207   6.059   3.862
62429W        W34012  38.993  44.243   0.795
62430W        W34013  29.134  35.386  10.685
62431W        W34014  24.543  16.711   3.972
62432W        W34015   5.795   0.126  14.898
62433W        W34016  30.863  33.339  13.370
62434W        W34017  19.641   9.054   1.957
62435W        W34018   5.839   8.941  11.531
62436W        W34019  26.115  34.589   3.688
62437W        W34020  13.339  20.557  10.751
62438W        W34021  29.147   1.869  12.903
62439W        W34022  17.062  15.308  10.655
62440W        W34023  43.289   7.579  10.959
62441W        W34024  13.134  18.729   1.770
62442W        W34025   0.382  23.513  11.333
62443W        W34026  12.108  17.599  12.507
62444W        W34027  42.534  31.258  12.412
62445W        W34028  21.280  26.440  14.829
62446W        W34029   6.352  25.553   3.240
62447W        W34030   9.625  19.712   1.956
62448W        W34031  20.216   2.705   4.964
62449W        W34032   5.656  13.194   1.691
62450W        W34033  38.953  32.557  12.081
62451W        W34034  27.980   3.322   0.837
62452W        W34035  26.433  14.165   0.845
62453W        W34036  12.504  32.897  12.099
62454W        W34037  38.025  36.309  12.441
62455W        W34038  23.460  39.302  12.837
62456W        W34039  12.037  38.428   0.778
62457W        W34040  40.807  43.420  11.125
62458W        W34041  40.097  22.084  14.375
62459W        W34042  31.913  39.986   2.893
62460W        W34043  12.241  12.237   0.551
62461W        W34044  29.478   1.171  10.991
62462W        W34045   0.239  27.104  13.519
62463W        W34046  20.940  42.729  14.820
62464W        W34047  29.158  10.880   9.963
62465W        W34048  14.987  18.479  12.551
62466W        W34049  17.144   5.491  12.204
62467W        W34050   3.830  22.719  12.426
62468W        W34051  25.435  19.822   5.033
62469W        W34052  37.031  33.641   2.768
62470W        W34053   5.816  27.954  13.386
62471W        W34054  21.702  39.910   3.658
62472W        W34055  41.863  16.342  10.628
62473W        W34056  34.825  11.910   1.288
62474W        W34057  43.220  41.791  14.852
62475W        W34058  16.767  40.239   1.452
62476W        W34059  11.760   6.638  14.525
62477W        W34060   1.902  29.619   2.155
62478W        W34061   4.216   2.023   2.774
62479W        W34062  20.073  20.652  14.662
62480W        W34063  25.480  38.142   2.335
62481W        W34064  43.478  36.812   2.635
62482W        W34065   6.021   4.986  14.348
62483W        W34066  13.567  44.045  12.561
62484W        W34067   1.921  32.496  14.306
62485W        W34068   5.336  15.564  10.120
62486W        W34069   9.230  12.764   0.295
62487W        W34070  18.281  35.907   0.278
62488W        W34071  38.986   9.784  10.471
62489W        W34072  10.136  27.204  12.997
62490W        W34073  14.211  25.063   4.683
62491W        W34074  24.567  30.031   0.324
62492W        W34075  25.996  42.807   4.562
62493W        W34076  34.059  42.897  10.209
62494W        W34077  12.997   1.455  13.515
62495W        W34078  31.862  14.449   3.316
62496W        W34079   0.750  33.521  13.709
62497W        W34080  13.961   9.086  12.755
62498W        W34081  25.957  42.961  10.573
62499W        W34082   7.421   5.893   3.353
62500W        W34083  40.651  16.459  11.839
62501W        W34084  26.002  25.997  11.971
62502W        W34085  19.784  17.793  10.264
62503W        W34086   7.787  22.525  13.518
62504W        W34087  29.396  35.051  11.960
62505W        W34088  23.909   0.476  13.574
62506W        W34089  44.562   4.831   4.741
62507W        W34090  24.088  24.185  13.907
62508W        W34091  41.039   8.154   4.163
62509W        W34092  27.854  33.928   3.256
62510W        W34093  32.912  33.947   1.813
62511W        W34094  29.974  23.443   2.538
62512W        W34095  11.677  28.302   4.530
62513W        W34096   5.545   4.779  12.668
62514W        W34097  37.908  32.679   0.109
62515W        W34098  42.907  36.831  12.894
62516W        W34099  35.163   2.753   2.262
62517W        W34100  37.894  36.508   3.880
62518W        W34101  29.068  41.485   3.575
62519W        W34102   9.893  14.651  14.451
62520W        W34103  19.618  10.697   0.021
62521W        W34104  16.197   3.090  14.548
62522W        W34105  39.179  44.361   1.716
62523W        W34106  37.569  38.616   0.940
62524W        W34107   4.862  14.567   4.412
62525W        W34108   1.643  30.677   2.685
62526W        W34109  29.584  23.966   3.254
62527W        W34110   9.879   1.165   1.825
62528W        W34111  44.843  26.388   3.369
62529W        W34112  37.096  44.507  13.556
62530W        W34113  27.535  42.551  12.914
62531W        W34114  44.293  19.214   0.797
62532W        W34115  18.741   7.254   0.236
62533W        W34116  26.172  29.929   3.172
62534W        W34117  13.565  44.539   0.891
62535W        W34118  35.435  20.249  12.422
62536W        W34119  41.935  39.814  10.653
62537W        W34120  34.129   4.457  13.518
62538W        W34121   5.173  27.111  12.890
62539W        W34122  21.575  34.918   2.907
62540W        W34123   5.995  42.578  13.751
62541W        W34124  42.297  19.321  10.796
62542W        W34125   1.880  20.215  11.466
62543W        W34126  38.308  44.675   3.341
62544W        W34127  33.678  23.621  11.440
62545W        W34128   1.494  15.014  13.945
62546W        W34129   4.509  32.556   0.495
62547W        W34130  37.767   1.314   1.688
62548W        W34131   6.426   7.431   1.476
62549W        W34132  15.209  38.886   2.431
62550W        W34133  38.068  17.031  10.760
62551W        W34134  44.566  28.408   4.961
62552W        W34135  19.512  41.500   2.184
62553W        W34136  25.741  27.470  11.976
62554W        W34137  34.202  31.807  14.881
62555W        W34138  40.825  42.908   0.107
62556W        W34139  28.032  36.266  14.318
62557W        W34140  42.512  44.787  12.015
62558W        W34141   8.343  32.830  10.738
62559W        W34142   9.598  18.116   3.155
62560W        W34143   7.670  13.653  13.972
62561W        W34144  31.039  32.509   3.113
62562W        W34145   0.099   3.362   3.813
62563W        W34146   3.039  24.773   1.640
62564W        W34147   1.077  11.627   2.695
62565W        W34148  25.523   4.996   3.869
62566W        W34149  37.315   0.145   0.792
62567W        W34150  33.038  39.980   1.353
62568W        W34151  13.722   2.716   1.338
62569W        W34152  27.173  10.065   0.256
62570W        W34153  41.453   2.802   2.889
62571W        W34154  22.725  11.140   4.685
62572W        W34155  34.105  30.027   1.116
62573W        W34156  41.124  38.115   3.312
62574W        W34157  26.382  10.594   4.057
62575W        W34158   8.768  31.957  14.541
62576W        W34159  41.268  33.997  13.819
62577W        W34160  39.068  12.101  12.380
62578W        W34161  44.280  23.156  12.057
62579W        W34162  20.233  33.456  11.370
62580W        W34163  16.570  34.014  13.234
62581W        W34164  40.179  11.260  13.312
62582W        W34165  32.473  16.509  12.707
62583W        W34166   6.627  41.054  11.248
62584W        W34167  30.711  41.638   4.222
62585W        W34168  37.778  27.162  11.607
62586W        W34169  10.312   2.914  12.815
62587W        W34170  42.387  31.523   4.076
62588W        W34171  31.178   4.383  12.374
62589W        W34172  38.050  21.715   1.582
62590W        W34173  42.894  29.982  10.884
62591W        W34174  30.193  25.682   1.069
62592W        W34175   4.842  14.694   0.450
62593W        W34176   7.878   6.195  11.168
62594W        W34177  10.139  35.344  11.538
62595W        W34178  44.545  28.512   2.633
62596W        W34179  27.443   8.948  11.159
62597W        W34180   8.596  14.313  10.603
62598W        W34181  15.336  19.294   4.105
62599W        W34182  38.323  39.544  14.870
62600W        W34183   0.385  18.988   1.378
62601W        W34184  42.961  20.632  12.999
62602W        W34185  30.844  15.188  11.560
62603W        W34186  43.460  19.535   3.234
62604W        W34187   5.380  30.635   3.301
62605W        W34188  37.037   6.752   4.076
62606W        W34189  43.309  43.998   4.763
62607W        W34190  18.578  24.861  12.228
62608W        W34191  27.171  19.285  11.561
62609W        W34192  29.108  14.783  14.524
62610W        W34193  19.508  37.027   4.413
62611W        W34194  24.500  12.814  11.022
62612W        W34195  16.014  23.174   3.257
62613W        W34196  27.047  10.102   9.664
62614W        W34197  14.712  31.149  12.192
62615W        W34198  35.184  44.916   3.624
62616W        W34199  44.800   9.794   0.450
62617W        W34200  30.191  31.127  11.837
62618W        W34201   6.920  25.282   1.345
62619W        W34202  20.268  28.887   1.764
62620W        W34203   6.516  14.160  13.289
62621W        W34204  10.770  14.882   0.853
62622W        W34205  41.579  44.701  11.995
62623W        W34206  35.693  38.330   1.881
62624W        W34207  33.464  40.342  12.789
62625W        W34208  23.757   4.947   0.736
62626W        W34209  16.316  34.458   3.724
62627W        W34210  14.706   9.342   1.273
62628W        W34211   7.266  19.580  10.525
62629W        W34212  12.371   2.951  11.917
62630W        W34213  34.345  24.678  10.529
62631W        W34214  28.397   2.158  14.950
62632W        W34215  35.329  17.056   2.161
62633W        W34216  38.309  16.390  11.920
62634W        W34217  28.518  34.102  13.083
62635W        W34218  17.675  10.089   0.789
62636W        W34219  38.617  42.874  10.570
62637W        W34220  34.086  27.561  14.964
62638W        W34221  17.455   3.706  12.987
62639W        W34222  19.110  13.847   0.277
62640W        W34223  38.550   1.542  13.423
62641W        W34224  11.751  32.182   3.272
62642W        W34225  25.002  22.835  10.857
62643W        W34226  20.958  39.985  14.210
62644W        W34227  24.764  23.523   0.489
62645W        W34228  20.276  37.835   3.531
62646W        W34229  44.752  26.667   0.997
62647W        W34230  31.558   7.714   4.395
62648W        W34231  41.779  35.536  14.944
62649W        W34232   8.363  44.306  11.488
62650W        W34233   6.304  38.534   2.542
62651W        W34234  14.630  42.307   4.298
62652W        W34235   5.000  30.392  12.082
62653W        W34236   8.467   6.907   4.022
62654W        W34237  16.397  23.985   0.303
62655W        W34238  15.230  12.713  12.381
62656W        W34239  39.896  39.931   0.057
62657W        W34240  42.850  34.341  10.948
62658W        W34241  26.620   3.242  10.667
62659W        W34242  24.568  15.306  14.850
62660W        W34243   1.409  38.139   0.922
62661W        W34244  19.790   5.270   0.968
62662W        W34245  30.019  37.395  10.636
62663W        W34246   6.444  36.033  14.526
62664W        W34247   0.402  27.168  12.558
62665W        W34248  10.629  20.457  11.248
62666W        W34249  33.180  19.567   1.708
62667W        W34250  17.109   1.586   4.085
62668W        W34251  44.347  12.709   1.235
62669W        W34252   8.782   0.932  12.441
62670W        W34253  33.083   6.784   4.735
62671W        W34254  35.122  17.049  13.048
62672W        W34255  34.069  20.655  14.625
62673W        W34256  41.277  31.439   1.873
62674W        W34257  36.007   9.036   3.577
62675W        W34258  43.103  10.662   4.412
62676W        W34259   8.489   2.358  13.921
62677W        W34260  12.111  21.958   0.756
62678W        W34261   9.271  12.398   4.732
62679W        W34262  16.779   2.362   3.626
62680W        W34263  18.857   9.829  11.659
62681W        W34264  26.255  12.390   4.658
62682W        W34265  22.952   7.315  14.268
62683W        W34266  34.613   5.872   1.826
62684W        W34267  19.193  12.508  12.017
62685W        W34268  28.362   7.822   1.810
62686W        W34269  43.066   3.029  12.271
62687W        W34270   2.308  30.688  12.851
62688W        W34271  43.506  19.207  14.706
62689W        W34272   1.741  16.945   4.164
62690W        W34273  14.591  12.767   0.428
62691W        W34274  31.483   5.045  14.745
62692W        W34275  41.598  37.734   4.565
62693W        W34276  22.493  39.770  12.894
62694W        W34277  11.269  35.079   4.775
62695W        W34278  20.705  29.127  11.015
62696W        W34279  34.472   7.592  11.614
62697W        W34280   2.668  38.621  14.480
62698W        W34281  36.614  43.074  11.016
62699W        W34282   3.230   9.919  11.517
62700W        W34283  14.767  10.757  13.368
62701W        W34284  18.181  13.087  14.811
62702W        W34285  34.918   9.239  11.659
62703W        W34286   4.433   0.934  14.293
62704W        W34287  31.495  33.369   3.641
62705W        W34288  33.971  30.598  14.314
62706W        W34289  15.254  37.318   2.233
62707W        W34290  13.424   2.975  13.293
62708W        W34291  21.618  12.788   4.696
62709W        W34292   6.279   8.265   1.041
62710W        W34293  14.358  36.232   0.786
62711W        W34294  15.025  44.684  14.320
62712W        W34295  40.033  31.993  10.108
62713W        W34296  14.677   9.157  14.870
62714W        W34297  15.104  30.842  10.432
62715W        W34298  31.952  41.543  14.836
62716W        W34299  40.364  39.943   4.533
62717W        W34300  23.126  30.651   4.256
62718W        W34301  30.978  26.204  12.388
62719W        W34302  13.024   8.664   3.177
62720W        W34303  10.211  29.188  12.068
62721W        W34304  25.590   1.399  14.849
62722W        W34305  17.278  36.449   1.259
62723W        W34306  14.787  34.291   5.064
62724W        W34307  28.187  19.133   4.663
62725W        W34308   2.774   9.686   3.754
62726W        W34309   7.592  40.111  11.113
62727W        W34310  28.664  42.834   3.163
62728W        W34311  43.286  33.692  12.730
62729W        W34312  12.185  37.029   0.838
62730W        W34313  12.806   9.648  14.254
62731W        W34314  17.527   6.699  13.621
62732W        W34315   5.138  37.755   4.665
62733W        W34316  28.600  41.358   3.743
62734W        W34317  25.795  39.322   0.695
62735W        W34318   7.137  33.814   1.167
62736W        W34319  27.565  20.755  14.524
62737W        W34320  15.502  42.977  13.385
62738W        W34321  41.949  10.623  13.298
62739W        W34322  35.612  27.087  11.172
62740W        W34323  12.784  23.762  11.232
62741W        W34324  40.545   5.831  11.984
62742W        W34325  44.895  41.494  13.670
62743W        W34326   3.841  25.900  12.065
62744W        W34327  20.053   5.262  12.936
62745W        W34328   6.311   7.929  12.202
62746W        W34329   8.333  23.873   0.251
62747W        W34330  41.362  40.010  11.201
62748W        W34331  29.594   0.472   2.363
62749W        W34332  39.335  10.408  11.137
62750W        W34333  22.477  43.277  13.901
62751W        W34334   0.459  11.782   1.386
62752W        W34335  27.877  35.575   0.268
62753W        W34336  27.642  39.079  11.737
62754W        W34337  29.055   2.702  13.586
62755W        W34338   7.151  13.757  13.976
62756W        W34339  25.984  28.706   4.630
62757W        W34340  40.830  18.803   4.243
62758W        W34341  14.465  20.844   5.229
62759W        W34342  20.788  25.190   1.240
62760W        W34343   4.957   4.803   1.476
62761W        W34344  31.620   6.733  11.876
62762W        W34345  16.503  23.226   4.150
62763W        W34346  22.479   6.867  13.906
62764W        W34347  30.666  16.357  13.786
62765W        W34348  10.712   8.277  10.634
62766W        W34349  25.084  37.479   4.315
62767W        W34350  12.151   5.043   4.084
62768W        W34351  25.589  19.794  14.375
62769W        W34352  11.115  33.340   0.327
62770W        W34353  37.510  41.048  14.568
62771W        W34354   8.464  30.897   4.940
62772W        W34355  36.171  25.161   3.810
62773W        W34356  20.147  33.873   4.465
62774W        W34357  35.763  42.140   4.603
62775W        W34358  34.883  22.215  14.424
62776W        W34359  34.222  10.951  10.710
62777W        W34360  28.320  11.222   3.327
62778W        W34361  28.040  31.144   3.704
62779W        W34362   4.736  24.618  14.953
62780W        W34363  42.186  27.756   0.243
62781W        W34364  30.773  35.970  11.646
62782W        W34365   1.668  26.952  13.466
62783W        W34366  40.945  33.643   2.258
62784W        W34367  17.802  10.557  10.646
62785W        W34368   2.322  24.591   0.906
62786W        W34369  29.884   0.039   3.064
62787W        W34370   9.411   3.451   0.330
62788W        W34371  17.695  13.391   0.474
62789W        W34372  38.995  16.706  12.999
62790W        W34373  32.173   9.111   2.797
62791W        W34374   7.990  39.603  11.257
62792W        W34375  27.396  43.835   2.543
62793W        W34376  34.643  22.489   1.796
62794W        W34377  31.723  13.068   0.767
62795W        W34378  21.614  25.739   2.381
62796W        W34379   1.381  44.390   1.414
62797W        W34380  43.994  29.568   4.490
62798W        W34381  27.520  12.120  11.612
62799W        W34382   0.944  22.698   4.903
62800W        W34383  24.438  29.669  13.755
62801W        W34384  15.746  36.660  14.523
62802W        W34385  13.809  18.080   1.154
62803W        W34386  21.732  43.932  14.814
62804W        W34387  25.163   6.933  11.792
62805W        W34388  38.573   7.130  14.112
62806W        W34389   6.916  29.192   4.187
62807W        W34390   0.267   7.305   1.448
62808W        W34391  27.619  25.437  10.789
62809W        W34392  43.248  39.786   4.803
62810W        W34393   1.993  24.000  13.312
62811W        W34394  22.013  23.678  11.680
62812W        W34395   4.007  35.744  13.956
62813W        W34396  24.686  22.471   1.731
62814W        W34397   3.284   1.128   2.630
62815W        W34398  25.011  30.846   0.946
62816W        W34399  26.205  32.175   0.772
62817W        W34400  41.294  16.434  11.118
62818W        W34401   1.152  22.738  12.330
62819W        W34402  20.698  15.896   1.683
62820W        W34403  21.495  33.955   0.440
62821W        W34404  42.758  20.156   0.193
62822W        W34405  26.704  17.710  12.932
62823W        W34406  32.464   2.422   3.227
62824W        W34407   5.945  38.148  12.931
62825W        W34408  38.887   2.993  12.106
62826W        W34409  30.115  27.983   3.089
62827W        W34410  29.094  42.307   4.193
62828W        W34411  31.931  25.992  11.967
62829W        W34412   8.207  12.764  12.557
62830W        W34413  42.651  27.625   0.430
62831W        W34414  18.425  22.395   3.547
62832W        W34415  29.059  36.227   0.411
62833W        W34416   8.243  16.322   2.333
62834W        W34417  41.120  20.271  12.806
62835W        W34418   6.411   7.855  11.234
62836W        W34419  11.395  16.042  14.466
62837W        W34420  19.387  21.665   0.256
62838W        W34421   1.703  31.742  11.618
62839W        W34422  28.209  24.276  13.935
62840W        W34423  43.461  41.085  11.176
62841W        W34424   0.492   7.081   1.858
62842W        W34425  24.676  28.438  10.659
62843W        W34426  32.199  42.459  11.620
62844W        W34427  24.669  37.929  10.959
62845W        W34428  31.532  17.792   0.959
62846W        W34429  43.522   7.861  12.354
62847W        W34430  22.475  43.390  12.975
62848W        W34431  20.510   6.317   2.169
62849W        W34432  23.163   5.691   3.676
62850W        W34433   6.263  33.379   2.042
62851W        W34434  17.282  40.334   2.834
62852W        W34435   3.904  24.273   1.474
62853W        W34436  10.378  14.194  14.250
62854W        W34437  37.518  41.355  10.342
62855W        W34438   6.527  29.831  13.892
62856W        W34439  26.230  21.138   2.540
62857W        W34440  19.864  31.288  13.489
62858W        W34441  24.307  18.995   0.883
62859W        W34442  35.500  21.412  13.968
62860W        W34443  17.135  22.003  11.498
62861W        W34444  25.652  10.132  11.726
62862W        W34445  30.259  40.890  13.580
62863W        W34446  25.214   1.043   4.596
62864W        W34447  27.095  42.907  14.323
62865W        W34448  40.501  44.090  13.063
62866W        W34449  33.928  35.159  11.623
62867W        W34450  29.482  40.342   3.942
62868W        W34451  26.462   0.121  13.521
62869W        W34452  44.197   8.280   4.548
62870W        W34453  42.877   0.533  11.962
62871W        W34454   4.599  40.132   0.247
62872W        W34455   6.346  24.973   1.873
62873W        W34456   3.712  28.326  13.454
62874W        W34457  15.643  27.587  10.507
62875W        W34458   5.990  36.101  13.052
62876W        W34459  10.245  33.955   3.626
62877W        W34460  39.191  16.696   2.664
62878W        W34461  28.069  30.112  11.679
62879W        W34462  25.710   4.348   4.573
62880W        W34463  16.685  34.666  13.567
62881W        W34464  20.852  37.453  11.547
62882W        W34465   4.855  41.009   1.008
62883W        W34466   4.790  38.643  10.739
62884W        W34467  24.047  13.044   2.290
62885W        W34468   4.772  27.303   2.611
62886W        W34469  21.539   9.341   2.262
62887W        W34470  31.692   9.568   1.801
62888W        W34471  24.486  12.769   4.119
62889W        W34472  40.509  42.417   1.441
62890W        W34473  34.346  36.148  13.947
62891W        W34474  23.585  39.997  13.932
62892W        W34475  20.813  27.437   2.166
62893W        W34476  31.874   5.445   2.825
62894W        W34477  23.368   5.090   3.269
62895W        W34478  19.685  15.262  14.113
62896W        W34479  39.387   9.105   5.595
62897W        W34480  32.151  18.596  12.032
62898W        W34481  35.443   5.178   0.727
62899W        W34482   5.316  27.240   2.316
62900W        W34483  41.470  33.021   4.436
62901W        W34484  14.051   8.175   1.260
62902W        W34485   1.455  41.870  14.992
62903W        W34486  31.334  21.821   4.513
62904W        W34487  14.720  34.032   0.750
62905W        W34488  27.422   9.202   3.666
62906W        W34489   8.188  23.598  14.416
62907W        W34490  11.904  39.055   2.792
62908W        W34491  39.313  13.278   1.373
62909W        W34492  33.526  29.017   2.303
62910W        W34493   9.944  22.927  12.488
62911W        W34494  35.064  44.358  11.872
62912W        W34495  10.340   0.866  13.035
62913W        W34496   4.395  13.710  12.564
62914W        W34497  43.899  14.603   4.887
62915W        W34498  32.397  41.256  11.074
62916W        W34499  33.460  26.047   1.979
62917W        W34500  24.023  19.226   1.846
62918W        W34501  38.223  26.448   1.277
62919W        W34502  36.432   1.923   2.153
62920W        W34503  15.274  42.818   3.367
62921W        W34504  38.455  35.857   2.793
62922W        W34505  43.086  29.913  13.385
62923W        W34506  18.289  11.150   1.757
62924W        W34507  17.472  31.085  14.909
62925W        W34508  22.263  38.827  14.874
62926W        W34509  36.830  10.275  10.755
62927W        W34510  21.509  17.683   4.842
62928W        W34511  15.629   0.083   3.316
62929W        W34512  19.852  16.629  11.555
62930W        W34513  11.757  26.722  13.805
62931W        W34514  16.101  35.921  14.932
62932W        W34515  39.985  32.935   0.428
62933W        W34516  16.203   4.330  12.589
62934W        W34517  14.194  22.052  13.550
62935W        W34518   7.936  42.338  14.621
62936W        W34519  38.337   8.268   2.143
62937W        W34520   6.264  37.045   4.891
62938W        W34521  21.490   3.104   3.039
62939W        W34522  34.084  10.685   4.098
62940W        W34523  38.872  36.830   3.141
62941W        W34524  18.779  15.039  13.373
62942W        W34525  38.570   2.938  14.939
62943W        W34526  25.709  29.604  13.288
62944W        W34527   2.483  16.327  13.917
62945W        W34528  20.701   3.823   1.905
62946W        W34529   3.639  23.548  11.175
62947W        W34530  12.726  16.487  10.865
62948W        W34531  23.030  24.068  13.974
62949W        W34532  34.760   1.124   4.972
62950W        W34533  16.465  19.687  14.370
62951W        W34534  14.212   4.513  14.532
62952W        W34535  16.616  37.403  11.662
62953W        W34536   6.160   3.318   5.094
62954W        W34537  23.920  44.537   4.245
62955W        W34538  42.756  24.945   1.823
62956W        W34539  33.458  14.375  12.888
62957W        W34540  24.870  36.574   4.914
62958W        W34541  26.588  44.591  12.951
62959W        W34542  15.539   1.166  12.896
62960W        W34543   5.898   6.393  12.541
62961W        W34544  29.569  17.776  13.771
62962W        W34545  35.818  18.773   3.217
62963W        W34546  33.923  40.023   0.779
62964W        W34547  38.539  42.582   1.373
62965W        W34548  21.662  16.886  12.283
62966W        W34549  37.870   5.474  14.008
62967W        W34550  11.070  10.128   4.207
62968W        W34551  44.409  23.506  10.858
62969W        W34552  19.961  20.708   0.685
62970W        W34553  31.446  15.359  13.491
62971W        W34554   3.306  38.092   1.741
62972W        W34555  20.564  41.089  13.444
62973W        W34556  15.271   3.136   3.921
62974W        W34557  11.559  13.175  12.415
62975W        W34558  33.465  29.930   0.292
62976W        W34559  29.672  11.532  13.973
62977W        W34560  31.463  24.536   4.314
62978W        W34561  38.514   7.143   2.824
62979W        W34562   9.223  43.467  14.385
62980W        W34563  10.888   9.799  11.196
62981W        W34564  41.237  10.123   0.563
62982W        W34565   8.017  28.194  11.678
62983W        W34566  31.604  43.128  13.490
62984W        W34567  25.013  24.195   0.174
62985W        W34568  10.399  33.043   2.366
62986W        W34569   2.547  29.532  12.910
62987W        W34570   8.248  15.628  12.200
62988W        W34571  44.837  29.555  12.854
62989W        W34572  18.176   2.197   1.920
62990W        W34573  38.257  31.513   1.263
62991W        W34574   2.959  42.216   4.127
62992W        W34575   0.064   3.388  13.994
62993W        W34576   9.756  14.845   2.694
62994W        W34577   6.982  43.415   1.647
62995W        W34578   9.324  34.794  10.470
62996W        W34579  39.809  30.952   1.730
62997W        W34580  20.390  30.347  11.497
62998W        W34581   3.655   2.250  14.196
62999W        W34582   3.697   4.723   3.686
63000W        W34583  31.527   2.227   3.706
63001W        W34584  19.788  18.478   2.658
63002W        W34585   4.371  19.265   5.086
63003W        W34586  28.667   9.257   2.360
63004W        W34587   8.162  25.120  11.118
63005W        W34588  44.483   5.341  11.055
63006W        W34589  27.547  14.244  10.957
63007W        W34590   2.551  28.798   3.673
63008W        W34591  12.632  10.710  14.993
63009W        W34592  41.983  42.516  12.915
63010W        W34593   6.752   8.299   1.455
63011W        W34594  14.881  17.470   4.066
63012W        W34595  33.411  40.424  12.295
63013W        W34596  14.641  20.993   0.845
63014W        W34597  30.417   7.336   4.714
63015W        W34598  30.208   1.310   3.173
63016W        W34599   3.077  34.581  12.542
63017W        W34600  15.329  24.211  14.315
63018W        W34601  19.212   3.435   3.235
63019W        W34602  24.075  20.605   1.090
63020W        W34603   4.343  11.136   1.894
63021W        W34604  13.822  31.110  13.875
63022W        W34605  40.076  21.065   0.668
63023W        W34606  23.796  14.303  13.315
63024W        W34607  38.816   4.561  10.718
63025W        W34608  16.741  27.634   3.131
63026W        W34609   1.932  29.169  14.870
63027W        W34610  37.753  24.567   4.226
63028W        W34611  34.375  33.086  10.367
63029W        W34612  10.876  40.007   3.593
63030W        W34613   2.893   1.956  11.544
63031W        W34614  26.613  33.564  12.783
63032W        W34615  29.951  12.354   4.150
63033W        W34616  43.363  11.912  12.468
63034W        W34617  37.350  44.479  13.058
63035W        W34618  30.364  28.680   2.412
63036W        W34619  19.672  36.095  12.172
63037W        W34620  19.203  41.257   4.744
63038W        W34621   0.871   7.271  12.900
63039W        W34622  41.820  20.202  14.351
63040W        W34623  35.181  22.817   5.142
63041W        W34624  23.309   9.652  13.902
63042W        W34625  44.281  16.647  14.020
63043W        W34626  43.818  32.092  12.520
63044W        W34627   4.145  27.422   4.290
63045W        W34628   9.446  20.515  11.504
63046W        W34629  17.131   9.092   1.424
63047W        W34630   0.908  19.545   1.893
63048W        W34631  26.617  10.822  13.739
63049W        W34632   6.591  20.748   2.982
63050W        W34633  39.843   7.879  12.552
63051W        W34634  34.265  44.914   2.370
63052W        W34635  28.015   4.347  12.852
63053W        W34636  40.417  28.607  13.384
63054W        W34637   7.513  42.455   4.000
63055W        W34638  37.107  17.285   4.176
63056W        W34639   4.359  40.002  14.448
63057W        W34640  18.153  14.359   2.619
63058W        W34641  38.838  12.759   4.391
63059W        W34642  15.168   9.243   0.049
63060W        W34643  13.371  34.223  13.526
63061W        W34644   5.050  39.783  13.453
63062W        W34645  24.900  20.185  10.938
63063W        W34646   2.856  23.135  13.531
63064W        W34647  39.818   3.809   4.964
63065W        W34648  13.315  36.221   0.422
63066W        W34649  42.603  28.784   3.713
63067W        W34650  22.036  21.727   1.797
63068W        W34651  34.836   3.421   0.500
63069W        W34652   0.571  43.439   4.665
63070W        W34653  36.276  43.706  13.315
63071W        W34654  13.813  16.741   0.598
63072W        W34655  25.747   3.898   1.334
63073W        W34656  10.646  43.046  12.511
63074W        W34657  36.399  17.630   3.427
63075W        W34658  39.586  12.701   4.167
63076W        W34659  25.631  18.746   3.853
63077W        W34660  24.613  23.644   3.270
63078W        W34661  38.565  18.317   4.070
63079W        W34662  35.254   6.994  12.010
63080W        W34663  29.176  23.948  14.109
63081W        W34664  21.583  34.107   2.195
63082W        W34665  19.588  21.794   4.068
63083W        W34666  42.863  24.257  13.595
63084W        W34667   4.400  39.521   0.428
63085W        W34668  15.178  25.225  14.991
63086W        W34669  44.510  35.039   4.551
63087W        W34670  11.729  20.482  14.495
63088W        W34671  25.711  16.761   1.890
63089W        W34672  24.502  21.197   3.294
63090W        W34673  41.336   9.849  10.845
63091W        W34674  27.907   3.709   1.287
63092W        W34675   8.054  35.905   3.091
63093W        W34676  13.907   1.430   1.216
63094W        W34677   4.704  37.452   0.811
63095W        W34678  24.544  19.502  12.885
63096W        W34679  31.663   1.898   1.967
63097W        W34680  44.717  17.838  10.329
63098W        W34681   5.728  41.773  13.159
63099W        W34682  31.158  24.895  12.121
63100W        W34683  18.271   0.747   1.936
63101W        W34684  29.611  33.673   0.452
63102W        W34685  44.718  27.472   0.418
63103W        W34686  36.391  33.760   0.823
63104W        W34687  13.702  36.124  10.584
63105W        W34688  17.148  26.802   4.764
63106W        W34689  29.614  16.440   3.042
63107W        W34690  44.290  30.604   3.720
63108W        W34691  32.931  19.844  12.884
63109W        W34692   6.744  32.527   0.726
63110W        W34693  43.987   3.691  10.768
63111W        W34694  44.548  25.021  13.880
63112W        W34695  34.982  28.005   0.316
63113W        W34696   2.032   2.676  12.551
63114W        W34697  38.932   6.290   5.082
63115W        W34698  32.849  36.125   3.420
63116W        W34699   4.395  15.358  10.584
63117W        W34700  14.670  15.034  13.647
63118W        W34701  18.787  25.488   4.593
63119W        W34702   8.625  40.070  11.083
63120W        W34703   7.925  40.256   4.237
63121W        W34704  35.960  23.687  14.828
63122W        W34705  43.553  29.536   4.822
63123W        W34706  37.578   8.666  11.118
63124W        W34707  30.937   2.230   1.812
63125W        W34708   6.667  42.558   2.611
63126W        W34709  26.174   2.231  11.401
63127W        W34710  32.481  32.112  11.334
63128W        W34711  21.225  23.128   3.124
63129W        W34712  28.317  11.359  14.093
63130W        W34713  42.875  34.656  13.454
63131W        W34714   8.587  27.578  11.227
63132W        W34715  44.688  14.148   4.092
63133W        W34716  37.256  42.543   2.423
63134W        W34717   0.890  27.177   3.004
63135W        W34718  23.645  12.659   2.189
63136W        W34719  17.428  27.981  12.874
63137W        W34720  41.913  40.912   1.829
63138W        W34721   7.809  34.068   3.417
63139W        W34722   6.484  26.382   2.069
63140W        W34723  14.726   8.139  10.711
63141W        W34724   4.499  22.105   4.210
63142W        W34725  20.500  36.915  13.491
63143W        W34726  18.237  44.421   4.135
63144W        W34727   1.513  40.315  11.654
63145W        W34728  36.906  25.963   3.256
63146W        W34729  37.575  38.567   2.772
63147W        W34730  15.618  38.121   2.251
63148W        W34731  16.486  37.546  13.794
63149W        W34732  21.550  15.072  12.717
63150W        W34733  39.945  17.089   2.110
63151W        W34734   0.862  22.108   4.040
63152W        W34735  40.043  17.942   4.757
63153W        W34736   1.352   1.706   1.327
63154W        W34737  29.014  13.490   4.603
63155W        W34738  16.347  22.040  12.100
63156W        W34739   2.521  38.013   2.769
63157W        W34740  16.794  16.965  11.598
63158W        W34741  23.603  16.699   3.112
63159W        W34742  11.902  22.028   1.257
63160W        W34743  18.183   2.275   4.888
63161W        W34744  33.160  38.369   0.780
63162W        W34745  19.626  19.650  12.477
63163W        W34746  42.293  38.260   2.093
63164W        W34747  36.509  13.739   4.165
63165W        W34748  42.334  31.672  10.622
63166W        W34749  24.268  14.239  13.565
63167W        W34750  10.784  17.928   1.791
63168W        W34751  29.562  28.118  11.069
63169W        W34752  14.424  11.381  11.677
63170W        W34753   0.413  33.345  10.655
63171W        W34754  13.359  32.221  10.736
63172W        W34755   6.680   9.364   3.304
63173W        W34756  33.162  14.664   2.308
63174W        W34757  38.049  37.506   0.307
63175W        W34758  31.452  24.950  13.432
63176W        W34759   5.723  42.292  12.545
63177W        W34760   1.898  17.112   0.346
63178W        W34761  37.463   1.746   4.936
63179W        W34762  42.471  15.650  13.776
63180W        W34763  27.817  23.824  13.085
63181W        W34764  10.509   2.184  11.586
63182W        W34765   7.534  34.409  11.258
63183W        W34766  29.595  25.476   2.878
63184W        W34767  21.699  42.859  13.799
63185W        W34768   5.358  34.776  13.939
63186W        W34769  20.804  16.836   2.201
63187W        W34770  22.218   5.371   1.195
63188W        W34771  14.560  25.447  14.848
63189W        W34772  44.297   7.772   3.828
63190W        W34773  44.343  27.674   2.394
63191W        W34774  17.145  42.944  12.023
63192W        W34775  21.738   9.722   4.219
63193W        W34776  22.549  30.569   3.530
63194W        W34777  37.896  20.177   0.777
63195W        W34778  19.293   5.104   2.638
63196W        W34779  44.875  38.861  12.480
63197W        W34780  25.589   4.669  10.140
63198W        W34781   6.894  17.144   1.191
63199W        W34782  28.815  15.305   4.142
63200W        W34783  42.447  38.583  13.421
63201W        W34784  34.630  34.144  12.292
63202W        W34785  11.825  20.033   0.399
63203W        W34786   4.788  28.604   3.195
63204W        W34787  20.638  20.085   5.415
63205W        W34788   3.864  34.038   4.527
63206W        W34789   2.730  19.923  13.824
63207W        W34790  16.370  10.714  14.445
63208W        W34791  35.380  37.428  11.156
63209W        W34792  25.482  41.284  14.249
63210W        W34793  23.788  10.770  14.380
63211W        W34794   0.897  20.703  14.986
63212W        W34795  28.379   1.794  11.993
63213W        W34796  38.297  19.707   3.309
63214W        W34797   6.158  16.327  11.962
63215W        W34798  40.068  44.926  13.271
63216W        W34799   7.689  39.829   4.379
63217W        W34800  25.289   3.885  13.267
63218W        W34801   3.325  32.855   0.408
63219W        W34802  34.101  26.144  14.445
63220W        W34803  31.520  25.905   4.327
63221W        W34804   1.018  16.605   3.124
63222W        W34805  14.678  19.371  13.975
63223W        W34806  20.047  38.631   2.385
63224W        W34807  37.702  34.562  12.035
63225W        W34808  13.789  27.118   1.536
63226W        W34809   4.385  26.320  13.372
63227W        W34810  21.565  18.855   3.654
63228W        W34811  40.233  42.196  13.419
63229W        W34812  36.527  34.007   4.332
63230W        W34813  39.225  39.135   4.228
63231W        W34814  20.941  26.058  13.485
63232W        W34815  20.015  16.136  13.892
63233W        W34816  28.884  13.056  11.905
63234W        W34817  15.653  41.670   2.554
63235W        W34818   6.326  34.398  12.863
63236W        W34819   2.768  28.679   4.581
63237W        W34820  40.020  24.624   4.417
63238W        W34821  33.058  29.127  14.898
63239W        W34822  21.072  32.844   4.451
63240W        W34823  42.598  19.439  11.747
63241W        W34824  26.096   0.302   4.739
63242W        W34825  32.377   2.895  13.869
63243W        W34826   4.992   3.859   0.376
63244W        W34827  12.361  23.600   3.704
63245W        W34828   3.558  43.489  11.189
63246W        W34829  12.864   5.398  11.088
63247W        W34830  30.685  40.487  12.451
63248W        W34831   4.759  32.465   4.708
63249W        W34832   9.620  24.215   3.295
63250W        W34833  13.730  39.592   2.801
63251W        W34834  29.529  43.855  11.702
63252W        W34835   3.250   6.695  14.744
63253W        W34836  21.016   8.710  14.312
63254W        W34837   9.580  43.844   2.697
63255W        W34838   2.919  37.461   1.042
63256W        W34839   8.311   3.257  12.599
63257W        W34840  28.190  28.133   0.302
63258W        W34841  11.316  30.564  12.167
63259W        W34842  17.439  39.180   0.273
63260W        W34843  23.592  22.099   3.187
63261W        W34844  38.339  44.363   4.678
63262W        W34845  18.692  32.556  10.652
63263W        W34846  42.355  41.360   1.942
63264W        W34847  37.612   8.372   3.653
63265W        W34848  11.371  33.347  12.038
63266W        W34849  19.274  32.787   1.399
63267W        W34850  44.846  27.845  12.553
63268W        W34851  21.510   0.561  13.459
63269W        W34852  35.236  29.628  12.382
63270W        W34853  40.737  25.816   0.169
63271W        W34854   0.852   6.159   5.141
63272W        W34855  41.909   0.216   3.758
63273W        W34856   2.815  35.820   1.213
63274W        W34857  15.737  36.268   1.303
63275W        W34858   6.404  33.634  14.576
63276W        W34859  31.996  36.794  12.875
63277W        W34860  38.500  41.023  14.830
63278W        W34861  12.191  13.896   2.255
63279W        W34862   4.056  24.401   2.655
63280W        W34863  28.368  30.944  12.075
63281W        W34864  40.447  17.012   0.952
63282W        W34865  44.050  19.246   3.637
63283W        W34866   5.812  17.986  12.041
63284W        W34867  25.556  35.046  12.069
63285W        W34868  43.818  12.781   4.075
63286W        W34869  36.551  21.464   1.007
63287W        W34870  20.023  28.430   1.881
63288W        W34871  29.518  18.604   0.759
63289W        W34872  19.549  11.784   1.769
63290W        W34873  19.810  34.491   1.914
63291W        W34874  25.559   3.649   5.047
63292W        W34875   1.329   7.428   4.871
63293W        W34876  42.597  13.154   4.830
63294W        W34877  16.829   4.863   1.283
63295W        W34878  17.306  41.795  13.072
63296W        W34879  27.556  28.503   1.283
63297W        W34880  33.573  10.894  12.956
63298W        W34881  44.894   6.119   4.607
63299W        W34882  41.736   9.958   0.481
63300W        W34883   7.669  34.881  11.092
63301W        W34884   0.019  34.345   0.565
63302W        W34885  22.714  33.401   4.148
63303W        W34886  24.547  38.995  10.538
63304W        W34887  30.960   5.910  13.824
63305W        W34888  21.113  26.466   4.207
63306W        W34889  38.602  20.099   3.522
63307W        W34890   4.343  28.019  11.459
63308W        W34891  11.148  21.517  14.764
63309W        W34892  35.489  41.017   3.256
63310W        W34893  34.787  24.317   0.121
63311W        W34894  22.079  16.530  13.318
63312W        W34895  11.905   5.160   0.910
63313W        W34896   3.881   4.451   0.894
63314W        W34897   8.889  35.468  14.339
63315W        W34898  24.528  20.194  14.359
63316W        W34899   8.688  32.507   4.304
63317W        W34900  23.390  11.688   4.914
63318W        W34901  23.534   5.244   2.305
63319W        W34902  44.517   6.924   4.745
63320W        W34903  27.584  30.037   0.960
63321W        W34904  35.587   0.388   2.304
63322W        W34905  11.478  42.203   4.560
63323W        W34906   7.682  10.869  10.686
63324W        W34907   5.791  32.393   3.311
63325W        W34908   0.890  20.574  12.157
63326W        W34909  42.495  22.239  11.209
63327W        W34910   4.048  38.480   4.067
63328W        W34911   6.486  33.273  14.966
63329W        W34912   5.916  38.374   1.409
63330W        W34913  35.587   4.177  13.844
63331W        W34914  27.135  26.111   3.295
63332W        W34915  35.077   7.944  13.509
63333W        W34916  34.395  30.158   2.676
63334W        W34917  34.746  38.106  14.169
63335W        W34918  38.427   8.954  14.139
63336W        W34919  29.156  25.163   3.194
63337W        W34920  23.228  38.915   3.235
63338W        W34921  24.196  22.835  14.532
63339W        W34922  37.412  22.536   3.693
63340W        W34923  19.184  30.372   2.140
63341W        W34924   2.421  23.495  10.603
63342W        W34925  38.981   7.892   3.158
63343W        W34926  20.152  41.778  11.026
63344W        W34927  15.208   6.083   2.279
63345W        W34928  14.817   3.569  12.423
63346W        W34929   3.655   5.523  14.284
63347W        W34930   9.580  19.050  11.378
63348W        W34931  33.972   9.167   1.332
63349W        W34932   2.715  44.921   1.915
63350W        W34933  26.711  23.708   2.104
63351W        W34934  34.877  32.031   1.713
63352W        W34935   0.174  33.198   3.695
63353W        W34936  32.697   2.804   2.861
63354W        W34937  30.665  29.600   1.125
63355W        W34938  13.797  41.958  12.278
63356W        W34939  12.115  14.284   0.802
63357W        W34940  30.091  15.790  12.678
63358W        W34941  30.737  42.450  10.542
63359W        W34942  43.980   2.805  10.657
63360W        W34943   5.816   6.909  11.575
63361W        W34944  30.500   9.302  11.559
63362W        W34945  13.827  26.646  11.164
63363W        W34946  30.974  38.915  13.576
63364W        W34947  11.211  28.053   0.986
63365W        W34948  39.399  36.396  13.930
63366W        W34949  19.607   0.703  13.970
63367W        W34950  30.267  27.554  14.194
63368W        W34951  22.616  12.884   5.024
63369W        W34952   6.248  38.147   0.410
63370W        W34953  24.670  24.680  11.897
63371W        W34954  30.507   7.973  11.970
63372W        W34955  43.913  21.040   4.061
63373W        W34956  26.432  44.930   4.658
63374W        W34957   5.525   6.302  13.702
63375W        W34958   5.705  10.428   0.331
63376W        W34959   4.894  39.118   1.838
63377W        W34960  19.618   1.863   2.391
63378W        W34961  22.522   5.027   3.927
63379W        W34962   9.837  35.076   4.358
63380W        W34963  42.269   3.787   4.191
63381W        W34964  30.733  35.070   3.372
63382W        W34965  19.414  24.643   4.586
63383W        W34966   9.311  19.648   3.595
63384W        W34967  43.936  36.381   0.006
63385W        W34968  29.632  19.068   0.019
63386W        W34969  10.321  17.531   3.061
63387W        W34970  28.899   7.329  12.182
63388W        W34971  39.365  26.153  13.854
63389W        W34972  37.406  11.875  13.397
63390W        W34973   4.351  10.348  12.698
63391W        W34974  16.226  28.263  10.529
63392W        W34975  19.019  13.974   4.541
63393W        W34976  24.523  28.128   2.237
63394W        W34977  19.097   2.771  14.524
63395W        W34978  11.105  18.512   1.682
63396W        W34979  35.500  24.947   3.292
63397W        W34980  44.764  15.862  10.278
63398W        W34981  16.593   5.746   3.214
63399W        W34982  41.295  32.083   0.859
63400W        W34983  37.979  21.469   4.589
63401W        W34984  12.117  12.176  11.900
63402W        W34985  33.989  35.353   0.945
63403W        W34986  19.764  28.043   4.152
63404W        W34987  12.084   3.173   3.287
63405W        W34988  25.154  40.781  11.378
63406W        W34989  32.905  36.389  14.083
63407W        W34990  12.790   5.825   2.711
63408W        W34991  26.544  33.905  10.040
63409W        W34992  43.287  37.983  10.529
63410W        W34993   8.477  15.348  12.568
63411W        W34994  18.545  29.637  14.897
63412W        W34995  33.605  26.334  14.491
63413W        W34996   2.010   3.467  11.115
63414W        W34997  41.547  40.299  14.303
63415W        W34998  18.267  43.229   4.619
63416W        W34999  44.276  31.181  10.686
63417W        W35000   1.972   6.808  14.853
63418W        W35001  35.434  26.464   4.705
63419W        W35002  13.225   1.900   1.910
63420W        W35003   7.928  13.772  12.481
63421W        W35004  36.196  35.451   2.149
63422W        W35005  22.476  17.794   4.623
63423W        W35006  41.159  37.329  11.414
63424W        W35007  32.720   3.381  14.824
63425W        W35008  14.572  14.858  12.897
63426W        W35009  19.576  38.902   2.312
63427W        W35010  44.074  21.873   4.939
63428W        W35011   1.306   8.141  12.347
63429W        W35012  44.002  40.794  14.528
63430W        W35013  16.807  42.931   4.246
63431W        W35014  43.664   2.731   1.636
63432W        W35015  26.233  42.527  10.503
63433W        W35016  31.547  10.272  10.907
63434W        W35017  23.768  20.230   2.792
63435W        W35018  42.403   7.809  10.662
63436W        W35019  42.276   9.601   2.689
63437W        W35020  28.219  14.556  11.081
63438W        W35021   1.332  32.977   0.797
63439W        W35022  10.208  12.318  14.442
63440W        W35023  20.547   3.009  14.777
63441W        W35024  39.596   8.482  10.202
63442W        W35025   2.174  23.488   2.267
63443W        W35026  19.029  19.160   0.576
63444W        W35027  11.306  37.191   1.590
63445W        W35028  15.615   8.212  12.976
63446W        W35029  23.585  32.873   3.318
63447W        W35030   5.531  15.353   2.186
63448W        W35031  44.397  37.480  13.613
63449W        W35032   2.228  13.801   3.486
63450W        W35033  27.558  16.988  13.346
63451W        W35034  30.172  18.651   3.381
63452W        W35035  35.573  43.086  14.733
63453W        W35036  13.306  43.963  14.141
63454W        W35037  19.829  43.513   3.976
63455W        W35038  30.466  23.764   3.250
63456W        W35039  34.496  40.763   1.687
63457W        W35040  38.367   5.837   3.299
63458W        W35041  16.072  28.394   0.367
63459W        W35042  29.255  34.870  11.493
63460W        W35043  28.523  40.123   0.651
63461W        W35044  28.467  21.988  14.830
63462W        W35045  33.128   4.277  10.670
63463W        W35046   1.228  42.340   1.450
63464W        W35047  12.405  10.088  11.567
63465W        W35048  23.224  35.946   3.772
63466W        W35049  36.438   1.212   2.452
63467W        W35050  37.887   8.352  14.245
63468W        W35051  21.113  20.376   3.036
63469W        W35052  24.986   8.257   3.418
63470W        W35053   9.364   2.863  11.189
63471W        W35054  18.260  44.235   2.154
63472W        W35055  14.473  33.639   4.516
63473W        W35056  39.979   0.328  11.630
63474W        W35057  41.924  22.632  12.644
63475W        W35058  10.299  23.144  14.558
63476W        W35059  21.779  24.231   0.412
63477W        W35060  33.024  30.400  11.435
63478W        W35061  32.636   7.674   3.203
63479W        W35062  33.209  44.672  14.340
63480W        W35063  43.465  15.181  10.658
63481W        W35064  33.419  14.427  11.924
63482W        W35065  44.290  42.853  11.466
63483W        W35066  27.171  33.641   1.871
63484W        W35067  41.022   2.284  14.460
63485W        W35068   4.180  43.363  12.581
63486W        W35069   8.372   8.889   0.267
63487W        W35070  15.388  44.376  14.764
63488W        W35071  30.065  15.291   4.681
63489W        W35072  14.681  15.636   4.095
63490W        W35073  26.206  40.367   3.233
63491W        W35074  36.358   0.991   4.242
63492W        W35075  37.047  38.543   1.037
63493W        W35076  39.474  26.538   2.808
63494W        W35077  28.108   3.491   4.370
63495W        W35078  14.667  33.387   1.841
63496W        W35079   1.491   7.834  13.870
63497W        W35080   5.817  10.087   1.884
63498W        W35081   9.431  34.492  13.485
63499W        W35082  20.508   1.800   3.673
63500W        W35083  19.023   6.237  10.585
63501W        W35084  39.812   2.670  12.932
63502W        W35085  19.174   9.968  10.644
63503W        W35086  43.001  43.272   1.181
63504W        W35087  42.976  44.369  11.936
63505W        W35088  44.394  43.346   2.172
63506W        W35089  31.546  36.679   4.665
63507W        W35090  35.104  43.351   3.613
63508W        W35091  34.295  34.392   2.428
63509W        W35092  39.376  10.136  14.793
63510W        W35093   4.811  13.403   3.280
63511W        W35094  13.711  14.382   0.189
63512W        W35095  35.275   8.939  12.325
63513W        W35096   3.871  42.032   2.738
63514W        W35097  11.688  32.526   0.244
63515W        W35098   7.207   6.754  13.978
63516W        W35099  28.811  38.544   2.700
63517W        W35100   3.928  39.311   9.677
63518W        W35101  29.964  44.910  14.378
63519W        W35102  15.019  20.139   2.374
63520W        W35103  27.971  26.963  12.380
63521W        W35104  23.201  19.238  10.738
63522W        W35105  36.348   5.407   2.284
63523W        W35106  14.190  32.941  14.062
63524W        W35107  34.831   3.455  12.536
63525W        W35108   2.546  33.653   3.783
63526W        W35109  38.914   3.742   3.539
63527W        W35110  35.512  40.356   1.136
63528W        W35111  24.985  16.674   0.771
63529W        W35112  29.955  41.395  14.826
63530W        W35113   9.216  21.642   3.194
63531W        W35114  21.307  11.852  11.578
63532W        W35115  27.132  20.662   2.771
63533W        W35116  24.181  41.807   4.510
63534W        W35117  10.488   4.722   2.330
63535W        W35118  14.408  25.750  11.513
63536W        W35119  35.646  43.543  11.647
63537W        W35120  25.116   1.259  10.898
63538W        W35121  38.078  30.699  12.554
63539W        W35122   8.348  17.094   4.118
63540W        W35123  32.581  32.350   1.809
63541W        W35124  17.653  11.364  13.343
63542W        W35125  31.764  26.125   2.553
63543W        W35126  18.985  20.370  12.530
63544W        W35127  41.564   3.928   2.758
63545W        W35128  34.934  29.113   2.166
63546W        W35129  42.534  24.284  14.951
63547W        W35130  39.366  27.982  11.236
63548W        W35131   5.150   0.074   0.887
63549W        W35132   2.220  42.510   2.376
63550W        W35133  36.410  35.848  11.755
63551W        W35134  26.004  28.878  11.988
63552W        W35135  42.916  30.583   3.561
63553W        W35136  41.555   9.377  13.455
63554W        W35137   5.730   2.515  12.991
63555W        W35138  39.806  39.879   0.582
63556W        W35139  44.228   2.692   3.396
63557W        W35140  20.727  33.719   0.989
63558W        W35141  11.293  22.645  12.981
63559W        W35142  31.533  30.482  14.465
63560W        W35143  19.294  14.736  12.476
63561W        W35144  32.454   3.936   1.472
63562W        W35145  20.589  39.222  12.913
63563W        W35146   4.612  15.381  11.631
63564W        W35147  37.664  19.759   0.945
63565W        W35148  34.480  37.111  14.808
63566W        W35149  25.601   4.942  13.829
63567W        W35150  44.424   3.649  10.241
63568W        W35151  40.355  15.779  10.299
63569W        W35152  30.758  20.007   1.210
63570W        W35153  34.036  37.809   4.540
63571W        W35154  28.082   9.858  11.986
63572W        W35155  18.746   1.433   4.590
63573W        W35156   6.902  36.419  14.826
63574W        W35157   4.603  15.330   1.708
63575W        W35158  28.839   7.849  14.337
63576W        W35159   7.167  20.788   2.745
63577W        W35160   8.798  21.594  13.969
63578W        W35161  33.936   8.175   1.133
63579W        W35162  30.659   6.671  13.419
63580W        W35163   4.738  24.232  14.204
63581W        W35164  42.897  33.040   0.910
63582W        W35165  28.563  44.418   3.903
63583W        W35166  39.481  43.108  14.816
63584W        W35167   6.323   6.455   3.340
63585W        W35168  20.126  15.241  13.814
63586W        W35169  10.438  41.549   4.758
63587W        W35170  16.357   7.048   0.406
63588W        W35171  40.933  23.782  11.474
63589W        W35172  12.581  29.513   0.692
63590W        W35173  13.493  22.651   3.914
63591W        W35174  27.517  39.316  14.851
63592W        W35175  21.255   5.372   4.046
63593W        W35176   0.181   6.306   1.332
63594W        W35177  35.790  12.785   3.347
63595W        W35178   8.888   0.441  12.564
63596W        W35179   4.561  12.544   0.271
63597W        W35180  34.904  44.711   3.162
63598W        W35181  42.571  29.149  11.037
63599W        W35182  16.204  24.296  13.445
63600W        W35183  39.002   0.416   4.073
63601W        W35184  25.242  14.157   1.021
63602W        W35185   4.721  11.878  11.928
63603W        W35186  10.907  24.031   1.472
63604W        W35187  18.239  16.775  11.803
63605W        W35188   7.555  10.154   9.941
63606W        W35189  42.778   6.389   3.081
63607W        W35190  28.437  25.685  13.528
63608W        W35191   9.431  40.986   3.632
63609W        W35192  39.066  10.987   2.259
63610W        W35193   1.250  14.426  11.644
63611W        W35194  26.435  38.867  14.932
63612W        W35195  23.977  33.543   4.850
63613W        W35196  25.085  27.929  11.597
63614W        W35197  10.588  27.066   2.393
63615W        W35198   1.013  13.271   4.245
63616W        W35199  21.718  43.521  12.301
63617W        W35200  25.887  27.111  12.860
63618W        W35201  15.617   6.865   0.387
63619W        W35202   4.656   4.700   0.154
63620W        W35203  13.908   1.806  14.444
63621W        W35204  29.524  25.476  13.505
63622W        W35205  28.265  16.795   3.155
63623W        W35206  23.484   5.239  14.884
63624W        W35207  43.989  15.109  13.348
63625W        W35208   6.796  35.547   4.587
63626W        W35209  10.912   1.794   3.174
63627W        W35210  39.916  34.476   1.708
63628W        W35211  44.065  28.120  14.057
63629W        W35212  44.930  30.651   3.319
63630W        W35213   8.944  40.503   3.169
63631W        W35214   2.639  24.531  12.987
63632W        W35215  33.662  39.548  14.599
63633W        W35216  26.887   1.869  14.457
63634W        W35217  19.671   7.160  10.131
63635W        W35218  33.840  11.658  12.898
63636W        W35219  27.553  44.305  14.249
63637W        W35220   8.876  29.425  14.766
63638W        W35221  41.387   0.733  14.385
63639W        W35222  43.368   6.781   3.567
63640W        W35223  12.242  19.563   4.579
63641W        W35224  43.494  12.887   0.346
63642W        W35225   2.436  42.031   0.041
63643W        W35226  23.726  18.065   4.341
63644W        W35227  16.155  39.527   2.503
63645W        W35228  20.268  17.218   1.834
63646W        W35229  14.714  19.875  11.771
63647W        W35230  37.706  42.346  12.549
63648W        W35231  31.090  18.206  14.742
63649W        W35232  21.696  18.555  12.649
63650W        W35233   2.579  40.978  12.099
63651W        W35234   8.370  25.105   3.700
63652W        W35235   3.957  24.307   0.962
63653W        W35236  15.357  22.156   2.300
63654W        W35237  33.398   7.836  11.243
63655W        W35238  43.892  21.034  12.769
63656W        W35239   5.698  18.870   0.969
63657W        W35240  44.365  38.573   1.412
63658W        W35241  11.064  28.936  10.703
63659W        W35242  18.764  19.475  11.332
63660W        W35243  25.905  38.524  12.412
63661W        W35244  13.312  31.581   0.466
63662W        W35245  18.285  24.530   0.218
63663W        W35246  12.242  44.330  13.599
63664W        W35247  17.785  27.090   0.350
63665W        W35248  34.089  36.650   2.290
63666W        W35249  12.811  21.016   0.353
63667W        W35250  36.942   3.234   0.531
63668W        W35251  15.347  39.934  14.509
63669W        W35252   4.309  29.455  13.830
63670W        W35253  28.389  21.646   0.209
63671W        W35254  13.088  25.939   3.789
63672W        W35255   9.765  20.483   1.254
63673W        W35256  17.128  29.082  10.776
63674W        W35257  27.110  15.029  11.197
63675W        W35258  13.201  44.735   3.737
63676W        W35259  12.845  25.240  13.797
63677W        W35260  34.512   7.438  13.876
63678W        W35261  39.416  19.765   3.088
63679W        W35262  30.490   8.470  12.163
63680W        W35263   8.328   1.941   2.839
63681W        W35264  30.180  25.751   1.584
63682W        W35265  32.879  35.992   0.417
63683W        W35266   6.794   7.351   3.294
63684W        W35267  34.435  12.883   0.249
63685W        W35268  37.626  28.023  13.932
63686W        W35269  30.104   1.883  14.795
63687W        W35270   3.467  31.757  11.025
63688W        W35271  18.622  13.678  12.941
63689W        W35272  28.467   3.788   4.799
63690W        W35273  20.960  36.065  14.852
63691W        W35274  43.233  11.759   1.724
63692W        W35275   7.744  32.039   2.641
63693W        W35276  36.551  16.125  10.651
63694W        W35277  40.825  28.947  13.512
63695W        W35278  29.941  43.839   0.214
63696W        W35279   3.362   1.113  14.869
63697W        W35280  39.537  32.644   1.824
63698W        W35281   5.731  25.031   3.394
63699W        W35282  41.881  16.604   1.822
63700W        W35283  20.284  37.021   1.986
63701W        W35284  36.944  42.570   0.219
63702W        W35285  43.255   8.402  11.528
63703W        W35286  41.001  27.212   1.264
63704W        W35287  30.637  34.084  10.664
63705W        W35288  17.215  21.641   0.238
63706W        W35289  26.054  16.819   4.268
63707W        W35290  26.128  15.849  13.931
63708W        W35291  30.833  34.336  14.445
63709W        W35292  29.899  31.362  12.583
63710W        W35293   3.992   3.931  12.491
63711W        W35294  12.194  41.066  12.543
63712W        W35295  43.327   1.181  11.171
63713W        W35296   9.589   9.427  14.513
63714W        W35297  13.162   9.530  11.641
63715W        W35298  16.588   9.204   0.647
63716W        W35299  37.439   4.870   2.702
63717W        W35300  29.615  21.431   0.166
63718W        W35301   4.855  37.294   5.506
63719W        W35302  31.390  39.363   2.266
63720W        W35303   9.306  34.551   3.631
63721W        W35304   8.795  26.638   0.942
63722W        W35305  10.042  14.113  12.961
63723W        W35306  16.350  13.636   1.339
63724W        W35307   6.146   9.178   4.159
63725W        W35308  42.523  27.683  13.963
63726W        W35309  37.704  35.663  12.779
63727W        W35310   1.371  15.934  11.562
63728W        W35311  13.249  11.096   4.306
63729W        W35312   1.618  28.093  10.711
63730W        W35313  38.978  31.007  12.949
63731W        W35314  38.612  30.209   1.800
63732W        W35315   5.922  21.133  13.787
63733W        W35316  14.817  15.063  14.868
63734W        W35317  14.127  30.157  13.851
63735W        W35318   6.821  36.537   1.773
63736W        W35319   7.262  39.182  11.537
63737W        W35320  33.513   8.774  14.904
63738W        W35321  35.818  41.464   0.383
63739W        W35322   0.840  17.638  11.685
63740W        W35323   0.560  11.526   2.785
63741W        W35324   8.854  26.434  14.434
63742W        W35325  20.760   5.856  12.821
63743W        W35326  18.627   4.335  14.204
63744W        W35327   2.333  36.870   0.316
63745W        W35328   3.964   6.027  11.547
63746W        W35329  14.011  24.708   2.863
63747W        W35330  26.790   6.971   3.866
63748W        W35331  32.630  43.343   0.790
63749W        W35332  20.843   9.119   4.111
63750W        W35333   9.988  23.859   1.670
63751W        W35334  43.258  17.077  14.945
63752W        W35335  40.510  13.224  13.813
63753W        W35336  35.327  25.635  14.500
63754W        W35337  31.097  42.728  14.492
63755W        W35338  24.160   8.061   4.760
63756W        W35339  41.770   4.409   2.770
63757W        W35340  26.165   4.046  10.599
63758W        W35341  35.395  26.177  12.948
63759W        W35342  29.687  34.929  12.578
63760W        W35343  37.066  28.947  11.954
63761W        W35344  39.838  14.515   3.253
63762W        W35345   7.661  28.857  10.963
63763W        W35346  19.654  27.569   4.558
63764W        W35347  13.683  35.243  13.887
63765W        W35348  41.594  32.673   0.234
63766W        W35349  20.189  24.454  13.914
63767W        W35350  24.243   3.782   3.283
63768W        W35351   2.929  30.220  11.523
63769W        W35352  42.306   7.716  13.366
63770W        W35353  17.544  37.050   3.099
63771W        W35354  37.969  11.238   2.715
63772W        W35355  25.069   1.748   4.044
63773W        W35356  35.945  33.644   3.844
63774W        W35357  40.323  39.407   1.559
63775W        W35358  18.024  17.289   2.696
63776W        W35359   4.771  31.395  14.260
63777W        W35360  32.910  24.266  12.778
63778W        W35361  20.710  34.607   2.479
63779W        W35362  34.379  30.841   4.306
63780W        W35363  33.975   2.976  11.634
63781W        W35364  44.180  35.884  12.392
63782W        W35365  16.292  23.694  14.834
63783W        W35366   0.352  19.473  14.281
63784W        W35367  10.680  22.147   2.727
63785W        W35368   2.911   8.066  13.684
63786W        W35369  27.131  40.555  12.283
63787W        W35370  16.197  26.473  13.793
63788W        W35371  34.800  10.113   3.054
63789W        W35372  33.920  21.707   3.653
63790W        W35373  33.705  17.353   3.799
63791W        W35374  23.191  30.925  11.230
63792W        W35375   3.593  38.160   0.791
63793W        W35376  38.172  39.277  10.788
63794W        W35377  17.742   9.682  11.552
63795W        W35378   8.860   7.945   3.244
63796W        W35379  20.179  10.578  12.456
63797W        W35380  13.912   7.563  14.620
63798W        W35381  12.371   3.473  11.923
63799W        W35382  28.220  21.319   2.198
63800W        W35383  27.073   2.364   0.227
63801W        W35384  14.849  22.482  12.980
63802W        W35385  22.622  18.197   2.429
63803W        W35386  42.325   1.706  13.204
63804W        W35387  35.509  10.697   3.313
63805W        W35388   7.793   7.799   1.466
63806W        W35389  12.332  21.169  11.199
63807W        W35390  14.939   3.312   1.638
63808W        W35391  23.190   8.736   4.600
63809W        W35392  20.257  28.677  13.989
63810W        W35393   7.810  14.311   4.643
63811W        W35394   9.308  19.502  11.472
63812W        W35395  39.632   6.783   4.171
63813W        W35396  41.623  39.615  13.062
63814W        W35397  13.975  29.498   0.835
63815W        W35398  40.298  17.595  14.308
63816W        W35399   8.675  25.046   1.817
63817W        W35400  43.818   4.719   4.534
63818W        W35401  21.296  40.038  13.822
63819W        W35402  33.536  33.650   0.983
63820W        W35403  27.237  20.132  11.728
63821W        W35404  17.916  14.471   0.374
63822W        W35405  31.888  19.719   1.380
63823W        W35406   6.832  34.038   3.155
63824W        W35407  39.410  30.395  13.720
63825W        W35408  30.020  31.659   3.745
63826W        W35409  28.732  19.943  13.131
63827W        W35410  19.763  13.756   5.136
63828W        W35411  21.770   8.868  11.941
63829W        W35412  23.945  27.308  13.092
63830W        W35413  33.912  20.648  12.917
63831W        W35414  35.807   0.306   3.152
63832W        W35415  40.070  25.486   3.759
63833W        W35416  34.343  29.228   2.998
63834W        W35417  22.749  22.079  12.037
63835W        W35418  37.824  44.306  13.101
63836W        W35419  18.616  23.778   2.929
63837W        W35420  15.298  13.110  13.665
63838W        W35421  39.128  39.961   4.128
63839W        W35422  17.892  10.408  13.344
63840W        W35423  30.558  29.974  12.420
63841W        W35424  32.460  35.637   0.396
63842W        W35425  30.191  14.333   0.863
63843W        W35426   8.347   1.346  10.372
63844W        W35427  43.690  43.211  13.816
63845W        W35428  25.149  12.591  12.940
63846W        W35429  21.463  26.564   0.306
63847W        W35430  36.364  15.083   0.096
63848W        W35431  26.137  17.705   1.651
63849W        W35432   2.892  17.073  11.017
63850W        W35433  28.318  40.390   2.198
63851W        W35434  11.325  21.222  11.334
63852W        W35435  36.604  29.529   0.958
63853W        W35436  33.142  21.810  12.984
63854W        W35437  19.325   8.649  12.502
63855W        W35438  25.470   4.827   4.719
63856W        W35439  12.933  21.765  11.619
63857W        W35440  42.864   3.660   1.965
63858W        W35441  24.675  27.641   4.640
63859W        W35442  10.358   1.925   1.968
63860W        W35443   7.303  41.280   4.257
63861W        W35444  23.594  24.586  14.972
63862W        W35445  27.509   2.282  12.620
63863W        W35446  27.971  43.461   4.884
63864W        W35447  27.414  33.648   5.004
63865W        W35448  39.429   7.700  11.084
63866W        W35449  41.924  15.706   4.478
63867W        W35450  21.548  30.682  13.309
63868W        W35451  22.111  21.736  12.817
63869W        W35452  40.464  39.306   3.694
63870W        W35453  20.155  43.556   4.793
63871W        W35454   5.883   6.606  14.987
63872W        W35455  36.517  44.294   4.760
63873W        W35456   3.537  17.991  12.513
63874W        W35457  33.974  26.311  11.378
63875W        W35458  34.345  28.042  11.638
63876W        W35459  40.476  20.241  12.029
63877W        W35460  43.511  31.449   3.180
63878W        W35461  14.618   6.654   1.666
63879W        W35462   2.292  31.098   0.540
63880W        W35463  27.537   6.396  11.771
63881W        W35464   7.727  36.118   0.986
63882W        W35465  41.477   4.624   3.136
63883W        W35466   9.729   2.942  12.506
63884W        W35467   0.569  29.695   1.358
63885W        W35468  17.494  19.701  11.264
63886W        W35469  14.657  15.551  13.566
63887W        W35470  17.561  25.621   2.027
63888W        W35471  34.554  27.039   2.861
63889W        W35472  27.492   5.122   2.884
63890W        W35473   6.746  41.466   1.634
63891W        W35474  26.283  35.054   2.205
63892W        W35475  17.770  14.179  13.037
63893W        W35476  39.734   6.267   0.852
63894W        W35477  36.297  34.258  13.857
63895W        W35478   1.986   5.779   2.619
63896W        W35479  38.919  11.556   3.163
63897W        W35480  28.909  44.067  14.279
63898W        W35481  37.512   8.791   0.938
63899W        W35482  26.922  35.072  14.782
63900W        W35483   4.849  25.891   4.541
63901W        W35484  38.490  44.874   4.696
63902W        W35485  25.033  18.557  10.674
63903W        W35486  18.987   0.328  10.455
63904W        W35487  14.853  18.744  14.305
63905W        W35488  26.906  30.015  13.778
63906W        W35489  40.985  37.042  11.029
63907W        W35490  44.789  40.913  10.730
63908W        W35491  31.962  30.933  11.184
63909W        W35492  35.951  13.326   4.546
63910W        W35493  40.768  15.141  14.468
63911W        W35494  26.132  35.799  12.005
63912W        W35495  19.424  19.296   3.369
63913W        W35496  12.644  39.504   4.953
63914W        W35497  15.225   5.924   4.170
63915W        W35498  12.802  24.022   3.317
63916W        W35499  21.311   8.666  12.059
63917W        W35500  35.860  21.246  12.502
63918W        W35501  30.214  25.254  14.441
63919W        W35502   0.735  26.660   4.272
63920W        W35503  31.145  18.951   1.833
63921W        W35504  20.185   1.344  10.357
63922W        W35505  44.266  35.118  13.122
63923W        W35506  43.848   4.487  13.828
63924W        W35507  43.352  21.092  11.949
63925W        W35508   4.165  23.171  10.498
63926W        W35509  35.052  42.508   1.314
63927W        W35510  35.336   5.653  13.907
63928W        W35511  43.329  43.843  11.628
63929W        W35512  20.872   0.077   2.818
63930W        W35513  26.075   2.169  13.263
63931W        W35514  23.484  40.835  11.108
63932W        W35515  13.951  18.733   4.070
63933W        W35516  22.117   2.278  14.908
63934W        W35517  41.380  18.868  10.719
63935W        W35518  36.115  22.164   4.551
63936W        W35519  11.293  41.278  13.094
63937W        W35520  16.496  40.935  14.788
63938W        W35521  16.606   7.111   4.336
63939W        W35522   8.654   3.008  11.644
63940W        W35523  33.840  16.211  14.092
63941W        W35524  17.445  10.186   4.515
63942W        W35525  38.975  14.044  12.428
63943W        W35526  29.718  16.091  14.924
63944W        W35527   9.240  20.809  12.145
63945W        W35528  37.467   9.429   1.316
63946W        W35529   7.263  23.238  11.559
63947W        W35530  28.433   3.713   2.205
63948W        W35531  32.600  42.479  14.772
63949W        W35532  27.007  23.538  13.290
63950W        W35533   9.377   7.424  11.604
63951W        W35534  11.275  23.142   1.283
63952W        W35535   5.817   3.570   3.385
63953W        W35536  24.001  39.180  13.774
63954W        W35537   0.864   8.221   4.595
63955W        W35538  31.340  19.677  11.651
63956W        W35539  17.539   7.257  14.496
63957W        W35540  22.541  28.086   0.329
63958W        W35541  10.169  27.923   4.754
63959W        W35542  20.214  36.503   4.703
63960W        W35543  25.059  40.391  10.480
63961W        W35544  18.672  25.016  14.847
63962W        W35545  29.836  38.015  11.294
63963W        W35546  10.130   3.243  13.497
63964W        W35547  12.434  29.960  11.643
63965W        W35548  21.048  25.033  12.047
63966W        W35549   8.721  33.911  12.242
63967W        W35550  42.925   3.661   4.672
63968W        W35551  23.030   5.800   0.461
63969W        W35552   5.417  28.905   4.143
63970W        W35553   1.614  23.437  12.671
63971W        W35554  23.318  12.522   0.737
63972W        W35555  14.161  37.848   1.706
63973W        W35556  37.005  16.874   2.686
63974W        W35557  18.626   8.906   2.110
63975W        W35558  33.928  42.880   4.423
63976W        W35559  26.603  32.889   1.716
63977W        W35560   1.318  31.657  12.825
63978W        W35561  15.141   9.855  10.383
63979W        W35562  11.641  38.542   9.976
63980W        W35563  20.253  16.542  11.207
63981W        W35564  12.548  19.812   0.901
63982W        W35565  43.631  34.968   4.064
63983W        W35566  35.946   5.303  13.470
63984W        W35567  19.209  25.781  12.937
63985W        W35568  24.254   1.913   4.684
63986W        W35569  40.461   1.146  13.312
63987W        W35570  37.102   2.917   4.820
63988W        W35571  41.365  23.632   4.298
63989W        W35572  12.280  31.054  14.043
63990W        W35573   3.483  27.622  11.887
63991W        W35574  14.163  14.843   1.375
63992W        W35575  17.988  20.680   2.036
63993W        W35576  28.609  21.838  11.142
63994W        W35577  33.844  34.651   2.398
63995W        W35578  14.225  27.083  14.855
63996W        W35579  14.424   2.281  13.800
63997W        W35580  39.208  30.477   2.489
63998W        W35581  18.105   9.199   3.230
63999W        W35582  43.282  37.559   1.209
64000W        W35583  28.687   5.131   2.331
64001W        W35584  27.829  34.933   4.067
64002W        W35585  38.561  13.716   4.155
64003W        W35586  18.955  43.296   2.404
64004W        W35587   1.200  36.052   4.744
64005W        W35588   4.755  17.931   3.744
64006W        W35589  21.147   2.200   2.701
64007W        W35590   3.318  19.042  12.630
64008W        W35591  18.527  23.576   0.973
64009W        W35592  20.261   6.829  11.944
64010W        W35593  31.408   5.619  13.946
64011W        W35594   1.581  11.314   1.017
64012W        W35595  16.178  31.223   4.052
64013W        W35596  17.844   6.715   1.270
64014W        W35597  26.503   9.909  10.889
64015W        W35598   5.449  13.560   0.880
64016W        W35599  28.011   7.241   4.985
64017W        W35600  43.825  17.553   0.280
64018W        W35601  43.923   2.453   1.277
64019W        W35602  26.588  30.726   2.343
64020W        W35603  22.798  23.996  14.507
64021W        W35604  32.156  23.561  11.587
64022W        W35605  31.617  32.638   0.843
64023W        W35606  38.479  33.043   1.117
64024W        W35607  43.405  16.697  11.790
64025W        W35608   3.424  38.615   1.238
64026W        W35609  28.708   4.670  12.217
64027W        W35610   4.464  12.212   2.329
64028W        W35611  15.562  43.359   2.278
64029W        W35612  30.943  12.409   4.083
64030W        W35613  37.834  38.817   2.165
64031W        W35614   1.971  28.570   3.226
64032W        W35615  11.802  42.913  13.990
64033W        W35616  28.896  43.422   4.650
64034W        W35617   0.263  17.510   1.982
64035W        W35618   3.275   2.722  13.531
64036W        W35619  17.614  30.293  13.120
64037W        W35620  19.745  13.895   2.377
64038W        W35621  42.063  12.402  13.045
64039W        W35622  35.493  36.246   0.403
64040W        W35623  25.963   6.723   1.880
64041W        W35624  37.800  22.471   4.561
64042W        W35625  14.587  11.435   2.828
64043W        W35626  37.543   6.243  14.993
64044W        W35627  15.655   0.467  14.892
64045W        W35628  28.710  27.544   0.720
64046W        W35629  36.464   7.633   1.950
64047W        W35630   5.336   0.755  14.290
64048W        W35631  44.125   7.212  13.397
64049W        W35632  33.625  34.518   3.183
64050W        W35633  32.580  40.377   4.328
64051W        W35634   1.712  10.026   1.211
64052W        W35635  31.623  12.138  13.358
64053W        W35636  41.517   5.524  11.741
64054W        W35637   9.910   6.011   1.988
64055W        W35638  12.604  23.279   1.698
64056W        W35639  23.532  25.175   1.637
64057W        W35640   7.582  42.405  13.360
64058W        W35641  12.221  29.472  11.715
64059W        W35642  13.915  35.973   3.277
64060W        W35643  10.485  19.700   1.400
64061W        W35644  13.221  17.659  14.051
64062W        W35645  17.158  15.248   0.923
64063W        W35646  31.831  23.817   3.283
64064W        W35647  19.934  31.707   0.517
64065W        W35648  29.606  12.895   3.272
64066W        W35649  10.685  31.014  10.651
64067W        W35650   8.910  38.781  10.726
64068W        W35651  32.128  18.133  14.508
64069W        W35652  14.831  12.708  12.054
64070W        W35653   6.017  30.108  14.033
64071W        W35654   5.334  36.341  10.529
64072W        W35655  25.381   1.264   2.288
64073W        W35656  13.121   1.757   1.443
64074W        W35657  43.852  24.101  10.678
64075W        W35658  12.679  38.939   3.181
64076W        W35659  30.942  27.547  14.906
64077W        W35660  30.179   1.909  12.030
64078W        W35661   6.808  29.895  11.631
64079W        W35662   4.485   8.689   3.059
64080W        W35663  39.335  35.482   4.582
64081W        W35664  39.113  12.718   3.952
64082W        W35665  42.341   7.438   4.291
64083W        W35666   9.091   2.408   3.778
64084W        W35667  30.384  22.561   2.750
64085W        W35668  11.832  27.279   2.819
64086W        W35669  14.663  30.632  12.019
64087W        W35670  23.797  17.575   0.012
64088W        W35671  28.332  13.678   1.871
64089W        W35672  14.165   8.696  13.787
64090W        W35673  15.207  12.376  14.921
64091W        W35674  40.042   5.709  12.008
64092W        W35675  11.950  22.631  10.228
64093W        W35676  43.383  22.810   3.331
64094W        W35677  40.811  24.269  11.877
64095W        W35678  21.869  38.405  13.780
64096W        W35679   3.952  24.645  14.267
64097W        W35680  38.863  42.333  13.547
64098W        W35681   1.534  24.327   3.129
64099W        W35682  34.434  26.716   1.274
64100W        W35683  39.213  31.658  11.118
64101W        W35684  44.949   8.543  11.166
64102W        W35685  39.015   1.760   3.996
64103W        W35686  37.479  39.565  12.926
64104W        W35687  32.969  39.881   0.467
64105W        W35688  28.301  31.905   0.824
64106W        W35689  42.038   4.411   4.240
64107W        W35690   0.606  24.749   0.398
64108W        W35691  30.848  42.002  12.958
64109W        W35692  18.478   9.577  12.796
64110W        W35693  12.628  16.118  13.988
64111W        W35694  15.238  39.234   2.813
64112W        W35695  32.413  39.993   3.085
64113W        W35696  44.961   5.198  13.859
64114W        W35697   6.087  13.730   3.175
64115W        W35698   6.420  15.584  12.062
64116W        W35699  33.131  35.107   3.725
64117W        W35700  30.639   3.892   0.806
64118W        W35701  17.692  40.295  13.015
64119W        W35702  35.447  12.100   4.445
64120W        W35703   6.379  36.399  11.880
64121W        W35704  13.360  28.659  12.820
64122W        W35705  38.404   2.428   4.755
64123W        W35706  11.854  35.845   0.762
64124W        W35707   7.359  43.663  11.976
64125W        W35708  34.906   8.739  10.383
64126W        W35709  23.171   0.273   1.651
64127W        W35710  14.526  35.849   2.671
64128W        W35711  32.959  30.612   4.028
64129W        W35712  33.148   2.719  10.763
64130W        W35713  24.233   3.536  10.599
64131W        W35714  20.674  23.661  12.091
64132W        W35715  19.645  24.944   2.904
64133W        W35716  35.415  24.091   2.666
64134W        W35717  10.634   0.033   4.119
64135W        W35718   7.768  24.151   1.164
64136W        W35719  28.995  43.017  12.222
64137W        W35720  16.229  14.057  14.320
64138W        W35721  11.083   4.512  12.099
64139W        W35722  25.009   5.425  11.560
64140W        W35723  27.406  21.102   4.730
64141W        W35724  31.621  12.032   4.565
64142W        W35725  10.025  42.917   4.695
64143W        W35726  12.735  13.804  12.390
64144W        W35727  15.206  30.220   0.933
64145W        W35728  21.958  23.953  12.868
64146W        W35729  15.555  33.920   3.118
64147W        W35730  10.378  21.146   4.687
64148W        W35731  18.707   0.022   2.191
64149W        W35732  34.986   2.287   3.662
64150W        W35733  25.522  36.313   4.159
64151W        W35734  40.094  30.527  12.787
64152W        W35735  16.595   4.926  14.350
64153W        W35736   7.416  44.948  11.336
64154W        W35737  42.986   6.689   0.836
64155W        W35738  34.439  11.381   0.468
64156W        W35739  32.913  22.631  14.502
64157W        W35740  18.645  20.023  12.895
64158W        W35741   6.924  40.418  14.882
64159W        W35742   5.739  40.911  13.022
64160W        W35743   3.915  43.719   2.653
64161W        W35744  17.283   9.946   5.067
64162W        W35745  41.647  28.636   2.764
64163W        W35746  31.954  34.578  13.903
64164W        W35747  11.546  28.950  14.300
64165W        W35748  37.808  42.847  13.866
64166W        W35749  40.624  37.189   3.760
64167W        W35750   6.210  13.812  13.871
64168W        W35751  36.416  12.350   3.685
64169W        W35752  29.448  30.915   3.608
64170W        W35753  40.473  12.256  12.436
64171W        W35754  44.253  36.628  11.525
64172W        W35755  22.630  24.277  12.735
64173W        W35756  26.147  10.838  13.482
64174W        W35757  42.311  24.464  13.939
64175W        W35758  42.185  14.111  12.273
64176W        W35759  36.464  40.205  12.653
64177W        W35760  23.251  27.736   0.965
64178W        W35761  26.640  16.638   3.989
64179W        W35762  44.518  12.964  14.594
64180W        W35763  20.797  24.089   4.724
64181W        W35764  37.864  18.087  14.527
64182W        W35765  21.541  34.080   4.418
64183W        W35766  15.807  25.878   2.268
64184W        W35767   3.806  20.724  14.351
64185W        W35768  24.037  44.871   2.830
64186W        W35769  41.860  25.152   2.145
64187W        W35770  39.125  20.230   3.324
64188W        W35771  39.679   1.721   1.855
64189W        W35772   8.895   3.481   1.253
64190W        W35773  31.641  16.052  12.860
64191W        W35774  23.464  41.514   3.778
64192W        W35775  13.634  31.392   2.193
64193W        W35776  29.622  38.384   2.302
64194W        W35777  38.998  43.154   0.341
64195W        W35778  43.276  10.737   1.162
64196W        W35779  39.510  37.611   0.923
64197W        W35780  34.999  31.899  13.428
64198W        W35781  10.654  40.386  13.119
64199W        W35782   5.628  37.902   4.607
64200W        W35783  34.964   8.204   0.158
64201W        W35784  44.229  44.711  11.793
64202W        W35785  41.475   5.851   2.119
64203W        W35786  34.787  31.605  13.023
64204W        W35787  42.326   5.290  13.239
64205W        W35788  29.515  11.187  11.640
64206W        W35789  34.843  37.068  12.374
64207W        W35790  34.560   0.908  14.244
64208W        W35791  23.247  12.079  13.329
64209W        W35792  44.444   8.648   4.825
64210W        W35793  31.157  44.787   1.186
64211W        W35794  32.695   7.031   2.398
64212W        W35795  21.922  24.908  12.803
64213W        W35796  15.033  44.717   0.354
64214W        W35797  30.993  31.959   0.886
64215W        W35798   2.191  43.999   1.826
64216W        W35799   9.269  38.481   0.124
64217W        W35800  17.739   5.345   2.918
64218W        W35801   1.993  19.711   2.607
64219W        W35802  29.224  18.019  11.657
64220W        W35803  29.269   2.838   4.216
64221W        W35804  23.268  30.407  14.831
64222W        W35805  31.489  35.502   2.760
64223W        W35806  41.992  44.883   2.463
64224W        W35807  13.227   2.888   1.860
64225W        W35808   0.456  14.321   3.624
64226W        W35809  18.814   6.899   1.434
64227W        W35810  35.995  27.030   2.608
64228W        W35811  30.039   4.742   2.428
64229W        W35812  40.382  26.457   3.250
64230W        W35813  17.059  40.825   4.147
64231W        W35814  15.400  20.012  13.590
64232W        W35815  33.635  37.170  14.439
64233W        W35816  24.976  17.920   3.121
64234W        W35817  11.251   8.248   3.094
64235W        W35818   2.822  19.615  13.119
64236W        W35819  21.088  44.971   0.272
64237W        W35820  20.098  36.542   1.114
64238W        W35821   3.033  19.745   2.392
64239W        W35822  36.910  21.759   0.774
64240W        W35823  10.613   4.666  13.963
64241W        W35824  19.131  43.654   3.896
64242W        W35825  34.077  24.262  10.718
64243W        W35826  13.464   4.846  11.210
64244W        W35827  28.818  24.516   1.681
64245W        W35828   3.811  11.073  12.007
64246W        W35829  37.979  32.778   1.809
64247W        W35830  18.347  41.384   1.594
64248W        W35831   0.518  24.724   4.735
64249W        W35832  26.712  38.169  14.427
64250W        W35833  36.643   2.220   1.732
64251W        W35834  33.557  15.602  13.569
64252W        W35835  12.367   6.854   1.597
64253W        W35836  18.844  27.118   2.491
64254W        W35837  20.003  29.872  14.749
64255W        W35838  13.408  33.018  11.744
64256W        W35839   2.569  41.204  13.011
64257W        W35840  26.976   2.829   1.419
64258W        W35841  20.902   6.937   9.796
64259W        W35842  12.899  41.557   4.506
64260W        W35843  18.141   5.499  11.562
64261W        W35844  35.953   5.605   4.275
64262W        W35845  19.772  23.217   1.935
64263W        W35846  15.831   0.737  12.930
64264W        W35847  31.739  23.703   4.536
64265W        W35848  22.858  37.599   3.341
64266W        W35849  22.172  26.115  13.274
64267W        W35850   8.863  35.822   1.548
64268W        W35851  14.575  34.332  13.793
64269W        W35852   4.770  14.371   1.692
64270W        W35853  44.456  35.970   1.249
64271W        W35854  17.611  38.042  11.934
64272W        W35855  43.007  41.196   1.300
64273W        W35856  39.532   5.811  11.096
64274W        W35857  27.008   1.999  12.466
64275W        W35858  40.794  12.410   0.014
64276W        W35859  17.133  18.361  13.818
64277W        W35860  18.058  14.935  11.067
64278W        W35861  43.267  19.020   4.039
64279W        W35862  10.905  10.678   4.249
64280W        W35863  25.536   9.212  12.123
64281W        W35864  18.015  28.832  12.481
64282W        W35865  24.834   1.012  11.301
64283W        W35866   7.306  28.362   0.368
64284W        W35867  12.311  32.144  14.855
64285W        W35868  28.693  17.388   1.018
64286W        W35869  12.253  11.789  12.213
64287W        W35870  43.815  23.463  11.923
64288W        W35871  36.327  44.748  12.463
64289W        W35872  32.811  28.320   0.372
64290W        W35873  19.705  13.642  14.188
64291W        W35874   8.841  36.860   1.540
64292W        W35875   4.156   4.759   0.291
64293W        W35876  18.026   9.795  11.129
64294W        W35877  43.041  37.876  14.362
64295W        W35878   8.463  41.285   1.451
64296W        W35879  42.871  28.840   2.294
64297W        W35880  10.902  35.154  14.081
64298W        W35881  13.563  32.599   2.133
64299W        W35882   4.788  40.933  12.686
64300W        W35883  32.847  19.558   2.123
64301W        W35884  41.160  20.666  11.282
64302W        W35885  29.168  12.571  14.970
64303W        W35886  27.060  23.285  14.885
64304W        W35887  20.975  21.051  10.944
64305W        W35888  31.028   5.915   0.751
64306W        W35889  24.297   1.479  13.467
64307W        W35890  30.357   7.941  12.930
64308W        W35891  34.315  24.018  11.111
64309W        W35892  44.552  31.375  14.764
64310W        W35893  44.423  15.677   3.419
64311W        W35894  36.124  18.058  12.895
64312W        W35895  37.931   3.957   4.299
64313W        W35896  15.349  34.911  14.084
64314W        W35897   9.369  25.136  14.587
64315W        W35898   2.764  18.697  11.486
64316W        W35899  23.113  40.874  14.170
64317W        W35900  14.675  22.666  11.966
64318W        W35901  21.158  30.584  12.571
64319W        W35902  41.290  12.209  12.674
64320W        W35903   4.583  35.960   5.121
64321W        W35904  19.699  26.529  11.684
64322W        W35905  14.720  28.365   1.234
64323W        W35906  14.509   2.946  14.709
64324W        W35907   7.635   8.869   2.221
64325W        W35908  43.038  18.844   1.120
64326W        W35909   7.545  40.685   5.053
64327W        W35910  33.573  21.778   3.270
64328W        W35911  22.008  10.680   4.129
64329W        W35912  26.543  44.766   4.168
64330W        W35913  32.440  22.211   5.027
64331W        W35914   6.299  32.587  12.844
64332W        W35915  39.899  27.357   3.427
64333W        W35916   3.301   7.245   2.155
64334W        W35917  42.527  24.148  10.676
64335W        W35918  25.948  10.531  12.152
64336W        W35919  22.923  44.671  12.504
64337W        W35920  32.081  38.100  10.518
64338W        W35921  31.102  35.909   4.855
64339W        W35922  37.775   3.402  14.996
64340W        W35923  43.252  28.498  14.031
64341W        W35924   6.981  23.074  10.488
64342W        W35925  39.992  23.782  14.913
64343W        W35926  29.833   0.917  14.285
64344W        W35927  29.099  27.074   1.329
64345W        W35928  39.884  37.325   4.912
64346W        W35929  22.830  23.980   0.363
64347W        W35930  35.377  12.871   1.859
64348W        W35931  28.157  32.058   4.925
64349W        W35932  26.232  26.108   1.315
64350W        W35933  21.118  23.323  10.994
64351W        W35934  40.546  31.020   2.273
64352W        W35935  11.870  11.126   0.797
64353W        W35936  11.081  31.645  14.875
64354W        W35937  32.635  18.682   0.669
64355W        W35938   5.520   1.436  11.897
64356W        W35939  27.120  36.301   2.294
64357W        W35940  16.721  20.631  11.111
64358W        W35941  13.617  41.520   2.724
64359W        W35942  31.003   0.729   4.122
64360W        W35943  41.880  23.132   2.767
64361W        W35944  30.606  31.554   0.772
64362W        W35945   9.828  22.994  14.749
64363W        W35946  36.867   0.209   1.753
64364W        W35947   9.917  29.668  12.258
64365W        W35948   0.428  26.277   2.897
64366W        W35949  18.534  26.168  12.537
64367W        W35950  33.135   9.680  12.812
64368W        W35951  37.575  17.106   1.545
64369W        W35952   9.364  17.610   2.742
64370W        W35953  24.248  42.772   4.091
64371W        W35954  19.511  32.995   0.899
64372W        W35955  36.767  18.851   1.931
64373W        W35956  18.556  16.002   3.913
64374W        W35957  15.252  38.107   4.360
64375W        W35958   6.571  12.222  13.498
64376W        W35959  39.537  18.821  11.956
64377W        W35960  11.490  14.666   3.809
64378W        W35961  39.811  13.647   2.413
64379W        W35962  40.768  39.849  11.651
64380W        W35963  20.748  40.968   3.294
64381W        W35964   9.280  13.628  10.982
64382W        W35965  36.036  43.274  14.930
64383W        W35966   3.701  28.291   4.653
64384W        W35967   1.758  20.051   1.332
64385W        W35968  41.816  14.873   1.044
64386W        W35969  38.413   3.195   1.263
64387W        W35970  37.985  23.487   4.572
64388W        W35971  33.062  31.202   2.301
64389W        W35972   6.529  37.484   1.401
64390W        W35973   1.168  12.742  13.991
64391W        W35974  27.374   5.417   1.804
64392W        W35975  14.700  27.626  12.641
64393W        W35976  21.784  33.482   3.784
64394W        W35977  34.949   8.724  10.891
64395W        W35978  32.392  20.471  14.997
64396W        W35979   6.820  33.104   2.734
64397W        W35980  36.528   2.926   2.283
64398W        W35981  18.632  35.356   1.481
64399W        W35982   0.979  10.458  11.714
64400W        W35983  36.508  33.900   2.758
64401W        W35984  18.044  36.408  14.734
64402W        W35985  18.703  19.478  10.810
64403W        W35986  24.295   3.975   3.954
64404W        W35987  20.607  29.611   4.195
64405W        W35988   6.352  35.638  14.197
64406W        W35989  21.390  36.684  11.615
64407W        W35990   9.155  24.908   5.111
64408W        W35991   8.453  41.621  11.296
64409W        W35992   0.808  27.487  12.401
64410W        W35993  41.352  17.120   1.697
64411W        W35994  36.474  30.825  10.597
64412W        W35995   9.419  12.647  11.176
64413W        W35996  25.012  22.614   4.492
64414W        W35997  41.517  30.568   2.639
64415W        W35998  10.268   7.689   3.229
64416W        W35999  27.140   1.245   0.945
64417W        W36000  35.634   1.959  13.910
64418W        W36001  15.258   9.841  13.305
64419W        W36002  30.160  15.228  14.574
64420W        W36003  30.488   7.629  11.571
64421W        W36004   5.285  35.406  11.671
64422W        W36005  44.737  28.023   1.769
64423W        W36006  20.184  10.863   1.350
64424W        W36007  14.586  19.826  12.720
64425W        W36008  38.531  37.950  10.670
64426W        W36009  15.926  42.055  11.460
64427W        W36010  34.762  42.944   1.339
64428W        W36011  16.630   7.771  13.450
64429W        W36012  34.387  28.740   2.708
64430W        W36013  40.908  15.735   2.019
64431W        W36014  21.929  16.159  11.539
64432W        W36015  16.792   4.412  13.317
64433W        W36016  20.750   8.199   4.092
64434W        W36017  28.598  13.143   4.605
64435W        W36018  41.023   2.826   4.190
64436W        W36019   4.900  35.109   0.248
64437W        W36020  26.939   8.672  14.649
64438W        W36021  44.836  13.586  12.962
64439W        W36022  37.738  26.183  13.517
64440W        W36023  23.706  34.102  10.710
64441W        W36024   4.658   1.373   0.498
64442W        W36025  22.233  20.729   1.275
64443W        W36026  19.282  42.543   3.099
64444W        W36027  15.257  30.674   4.155
64445W        W36028   2.444  28.218  11.969
64446W        W36029  31.451  31.178  13.098
64447W        W36030  37.959  22.006  11.556
64448W        W36031   2.902  10.278  11.310
64449W        W36032  31.849  22.589   2.769
64450W        W36033  28.021   7.821   2.249
64451W        W36034   6.690   0.763   3.733
64452W        W36035  28.404  20.720   3.346
64453W        W36036  10.262  28.380   3.844
64454W        W36037  40.829  34.458   3.255
64455W        W36038  43.445  12.801   2.349
64456W        W36039  37.033  13.517  11.010
64457W        W36040  36.430   5.298   4.482
64458W        W36041  27.476   4.769   2.229
64459W        W36042  44.314   5.508  13.343
64460W        W36043   5.849  37.580  11.991
64461W        W36044  44.965  40.374  11.683
64462W        W36045  38.414  36.600  12.591
64463W        W36046   6.825  42.136   4.125
64464W        W36047  33.018  25.680  14.571
64465W        W36048  16.658   0.951  13.828
64466W        W36049  28.229  12.547   3.762
64467W        W36050  23.119  15.384   4.057
64468W        W36051  30.980  28.368  14.012
64469W        W36052  20.214  36.037   1.247
64470W        W36053  12.556  17.204  14.530
64471W        W36054  22.916  23.746   1.758
64472W        W36055  17.590   9.003  10.636
64473W        W36056   2.699  39.804   1.520
64474W        W36057  11.155  24.964   1.419
64475W        W36058   6.792  14.702  11.951
64476W        W36059  28.927  37.039   3.570
64477W        W36060  39.400  33.610   0.488
64478W        W36061  20.526   8.725  13.471
64479W        W36062  35.165  36.875   1.349
64480W        W36063  29.210  11.617   5.002
64481W        W36064  13.332  37.897   0.759
64482W        W36065  28.639  43.844   0.505
64483W        W36066  41.267  33.523   0.730
64484W        W36067  17.746  15.695  12.375
64485W        W36068  18.846  24.489   2.530
64486W        W36069  11.719  17.012  11.490
64487W        W36070  24.114  31.591  13.751
64488W        W36071  20.247   1.980   0.649
64489W        W36072  39.451  38.779  12.827
64490W        W36073  44.825  20.686  14.547
64491W        W36074  23.249  35.102  11.820
64492W        W36075  16.818  34.954   4.451
64493W        W36076  28.916  35.401  13.470
64494W        W36077  34.189  35.032  10.300
64495W        W36078   2.212  30.075   3.113
64496W        W36079  10.986  37.585   1.773
64497W        W36080  20.810   5.235   1.722
64498W        W36081  29.933   0.549  13.350
64499W        W36082   5.725  44.721  12.075
64500W        W36083  10.410   1.778  14.412
64501W        W36084   6.772   7.229  14.706
64502W        W36085   8.716   4.705   4.618
64503W        W36086  34.835   6.666   4.224
64504W        W36087  34.545  12.305   4.037
64505W        W36088  41.735   6.806   2.817
64506W        W36089  17.986  41.388   2.179
64507W        W36090  38.083  38.387   1.938
64508W        W36091  13.257  33.219  12.561
64509W        W36092  36.085  33.459   1.123
64510W        W36093  12.300   0.743  12.513
64511W        W36094  26.115  39.827  12.992
64512W        W36095  25.716   8.787   0.507
64513W        W36096  18.638  21.286  11.157
64514W        W36097  24.912   0.292  10.899
64515W        W36098  13.615   6.813   2.371
64516W        W36099  20.033  26.681   4.127
64517W        W36100   0.352  32.677   3.672
64518W        W36101  38.032  23.246   2.749
64519W        W36102   2.282  16.645   2.747
64520W        W36103  29.283   9.301  14.366
64521W        W36104  14.158   1.240  12.080
64522W        W36105   3.813   1.156   3.360
64523W        W36106   7.077  33.625  13.593
64524W        W36107  12.809  14.840   0.572
64525W        W36108   7.122  40.053   1.950
64526W        W36109  33.392  30.293  12.211
64527W        W36110  39.065  12.557   3.451
64528W        W36111  27.548  42.416   2.130
64529W        W36112   4.786  36.756   4.613
64530W        W36113  18.724  34.335   3.180
64531W        W36114  18.487   0.586  10.282
64532W        W36115  19.640   8.797   0.296
64533W        W36116   4.537  30.972   3.621
64534W        W36117   5.909  42.741  12.850
64535W        W36118  43.739  19.033   2.169
64536W        W36119  40.869  41.776   3.645
64537W        W36120  11.563   8.394  10.322
64538W        W36121  44.031  36.334   0.544
64539W        W36122  22.811  31.830  11.964
64540W        W36123  34.639  38.588  12.340
64541W        W36124  13.234  44.754   2.698
64542W        W36125   9.421   4.720   1.723
64543W        W36126  40.065  32.907  12.448
64544W        W36127  10.675  34.982   3.812
64545W        W36128  35.076  24.324  12.354
64546W        W36129  25.982  21.188   3.067
64547W        W36130   4.953  25.530  14.997
64548W        W36131  22.107  23.692  13.416
64549W        W36132  16.682   8.778   1.486
64550W        W36133  28.434  26.729   2.388
64551W        W36134  26.945  37.882  11.078
64552W        W36135  37.884   2.243   4.725
64553W        W36136  42.418  15.887   0.295
64554W        W36137   9.859  41.296  14.291
64555W        W36138  25.752   9.733  13.879
64556W        W36139  42.281   4.356  11.670
64557W        W36140  14.943  28.707  11.586
64558W        W36141  24.485   9.909  14.820
64559W        W36142  43.438  28.433   3.786
64560W        W36143  28.393  24.078   3.809
64561W        W36144   3.432  10.370  11.457
64562W        W36145  14.051  19.000   5.040
64563W        W36146  14.631  37.184   3.252
64564W        W36147  28.618  38.861  10.719
64565W        W36148  20.613  10.776   1.652
64566W        W36149  28.109   9.663   2.553
64567W        W36150   9.638  13.430   4.557
64568W        W36151  31.478   3.875  14.840
64569W        W36152   1.396   5.872  14.234
64570W        W36153  34.185  12.660   1.678
64571W        W36154   9.263   9.892  12.898
64572W        W36155  37.807   4.334  10.302
64573W        W36156  42.181  29.841   4.410
64574W        W36157  16.098  38.398  13.410
64575W        W36158   9.941  19.008   1.391
64576W        W36159  10.093  17.270   2.643
64577W        W36160  30.826  41.924   3.089
64578W        W36161   7.601   1.042  11.793
64579W        W36162   1.363  17.143   0.554
64580W        W36163  33.089  35.472   0.765
64581W        W36164   1.893  17.201  12.328
64582W        W36165   8.000   0.995   0.437
64583W        W36166   0.416  28.963   0.894
64584W        W36167   2.833   3.463   1.755
64585W        W36168   6.826  37.585   2.814
64586W        W36169  27.066  41.850  14.485
64587W        W36170  41.393   1.431   3.701
64588W        W36171   4.462  34.469  13.804
64589W        W36172  34.821  13.071  13.026
64590W        W36173  10.822  18.652   0.301
64591W        W36174   0.734  18.103   1.414
64592W        W36175  34.075   6.704   1.654
64593W        W36176  40.977  17.359   4.150
64594W        W36177   3.421  36.877   9.877
64595W        W36178   5.797  34.032  10.572
64596W        W36179  36.698  16.746  13.949
64597W        W36180   2.233  26.889  13.603
64598W        W36181  15.759  16.980   2.823
64599W        W36182  39.096  14.753  12.857
64600W        W36183  21.933  30.386   4.605
64601W        W36184   6.250  21.032  10.644
64602W        W36185  29.215  33.819  14.897
64603W        W36186  44.905   4.419  11.466
64604W        W36187  13.174  29.222  11.193
64605W        W36188  40.100  26.165  13.614
64606W        W36189  21.672  31.890   2.880
64607W        W36190  28.923   5.897   0.937
64608W        W36191  21.730   7.133   9.415
64609W        W36192  24.704  16.997   1.526
64610W        W36193  40.277  32.914  14.993
64611W        W36194   2.715  26.244   4.663
64612W        W36195   4.970  18.718   1.687
64613W        W36196  10.257   0.469  11.654
64614W        W36197   8.091   3.811   4.817
64615W        W36198   1.897  23.583  10.745
64616W        W36199  12.717  38.565  11.010
64617W        W36200  42.389   2.201  14.487
64618W        W36201   8.272  27.648   0.646
64619W        W36202  40.535  34.164  11.912
64620W        W36203  34.949   7.701   1.923
64621W        W36204  44.871  15.707   2.505
64622W        W36205  11.781  37.220   4.135
64623W        W36206   6.191  40.780   0.031
64624W        W36207  24.289  36.357  11.688
64625W        W36208   5.846  15.908   3.772
64626W        W36209  14.076  41.266   2.647
64627W        W36210   0.198  19.728   0.853
64628W        W36211  42.259   9.846   3.803
64629W        W36212  24.932  38.030  12.039
64630W        W36213   9.189  42.509   3.381
64631W        W36214   5.270  43.786  12.508
64632W        W36215  27.241  17.813  12.170
64633W        W36216   1.003  17.792   3.681
64634W        W36217  33.025   9.258  13.094
64635W        W36218  23.762  25.175   0.198
64636W        W36219  12.997  23.785   2.131
64637W        W36220  33.008  14.912  14.415
64638W        W36221  25.114   4.335   1.303
64639W        W36222  24.632  32.826  13.884
64640W        W36223  36.888  29.441   2.205
64641W        W36224   2.474  33.828   2.824
64642W        W36225  21.503  38.082  11.099
64643W        W36226   5.413  20.198  11.037
64644W        W36227  11.819   3.286   4.608
64645W        W36228  12.718   9.326  14.708
64646W        W36229  13.363  10.179  14.094
64647W        W36230  29.496  44.287  12.012
64648W        W36231  20.798   5.431   0.257
64649W        W36232   9.353  23.710  10.505
64650W        W36233  35.444  19.470  14.525
64651W        W36234  34.702  24.696   2.724
64652W        W36235  36.147   6.642  10.581
64653W        W36236  10.819  16.940   1.848
64654W        W36237  28.485  44.259  12.454
64655W        W36238   4.728   3.716   2.826
64656W        W36239  20.077  20.383   2.181
64657W        W36240  19.678  30.901  11.097
64658W        W36241  32.791  18.574  11.024
64659W        W36242  29.497  18.207   2.964
64660W        W36243   8.367   0.216  12.480
64661W        W36244   8.432  11.792  11.272
64662W        W36245   0.714  31.086   3.189
64663W        W36246  36.028  13.889  14.339
64664W        W36247  44.966   0.972   4.107
64665W        W36248  33.180  25.119   3.652
64666W        W36249  12.766  21.720   3.597
64667W        W36250  12.211  13.640   1.517
64668W        W36251   7.923  44.382   1.869
64669W        W36252  11.844  24.715  12.468
64670W        W36253   8.649  44.686   1.218
64671W        W36254  33.660  37.324  11.051
64672W        W36255  26.168  22.614   2.306
64673W        W36256  23.695  26.250   3.184
64674W        W36257   1.200  21.745   4.189
64675W        W36258   6.650   4.333   4.088
64676W        W36259  24.993   5.705  11.992
64677W        W36260  30.126  19.690   4.810
64678W        W36261   5.504  18.093  14.827
64679W        W36262  38.944  23.307   1.998
64680W        W36263  34.938  14.124  13.919
64681W        W36264  26.031   3.679   3.668
64682W        W36265  43.137  43.775   2.351
64683W        W36266  25.451  34.526  12.073
64684W        W36267  13.095  41.882   1.009
64685W        W36268   0.782  40.826   0.820
64686W        W36269  40.124   7.854   4.631
64687W        W36270  42.262  34.028   3.848
64688W        W36271   2.974  24.102  14.509
64689W        W36272  26.545  36.462   1.679
64690W        W36273  22.186  25.677   1.807
64691W        W36274   3.699  18.402  11.173
64692W        W36275  31.458  24.105  11.393
64693W        W36276  20.824   6.746   0.431
64694W        W36277  30.300  32.038  10.942
64695W        W36278  18.023  13.880  11.030
64696W        W36279  44.457  21.734   4.052
64697W        W36280  21.310   1.251   4.521
64698W        W36281  11.202  23.683   4.355
64699W        W36282  38.494   5.954   3.811
64700W        W36283   5.125  27.529  14.429
64701W        W36284  25.229  18.259  11.995
64702W        W36285  28.014  14.160  13.990
64703W        W36286  39.771  32.884  14.884
64704W        W36287  29.505  23.268  12.491
64705W        W36288  23.956  23.192  12.869
64706W        W36289  31.576  35.876  11.086
64707W        W36290   1.264  22.868   1.464
64708W        W36291  25.976  26.453  12.181
64709W        W36292  36.916   0.976   1.254
64710W        W36293  34.183   5.641  12.124
64711W        W36294  33.274   7.438  13.301
64712W        W36295   1.850  20.110  12.907
64713W        W36296  43.512   0.982   1.367
64714W        W36297   8.235  22.984  11.530
64715W        W36298  38.972  29.773  12.567
64716W        W36299  28.944  21.669   4.999
64717W        W36300  21.769  44.886   3.658
64718W        W36301   9.320   6.387   3.648
64719W        W36302  25.566  39.826  12.512
64720W        W36303  13.398  32.489   1.535
64721W        W36304  38.710   5.271  11.105
64722W        W36305  19.710  31.249  14.500
64723W        W36306  20.648  17.810   4.300
64724W        W36307   3.561   3.970   4.506
64725W        W36308  32.031  18.536   1.370
64726W        W36309  40.804  16.605   0.977
64727W        W36310  15.090  33.148   1.375
64728W        W36311  19.792   5.313   0.456
64729W        W36312  20.549   2.923   2.425
64730W        W36313   5.236   6.407  12.064
64731W        W36314  18.508   3.811   2.153
64732W        W36315   6.450  15.253   2.289
64733W        W36316  12.226  26.333  10.682
64734W        W36317  21.812  29.925   1.194
64735W        W36318   1.948  17.398  10.685
64736W        W36319  31.697   7.801   2.363
64737W        W36320  13.812  37.612   0.339
64738W        W36321   6.151  42.020  12.354
64739W        W36322  20.186  42.852  11.711
64740W        W36323   8.841  24.134  13.302
64741W        W36324  11.652  30.192  12.741
64742W        W36325  42.494  16.370   0.417
64743W        W36326  17.230  13.235   1.818
64744W        W36327   7.289   6.876  12.636
64745W        W36328   4.434   0.384  14.379
64746W        W36329  11.504  26.664  10.023
64747W        W36330  41.090  38.439  13.408
64748W        W36331  15.837   1.285   1.507
64749W        W36332  22.092  34.615  11.901
64750W        W36333  36.084  16.039   3.728
64751W        W36334  40.542  25.678   3.632
64752W        W36335  22.130   1.732   4.314
64753W        W36336   8.735  43.995   4.565
64754W        W36337  32.697  18.642  13.355
64755W        W36338  29.363  35.412  11.582
64756W        W36339  34.118  35.065   2.213
64757W        W36340  28.410  44.604  13.799
64758W        W36341  10.996  25.058   0.333
64759W        W36342  39.023   9.764   3.000
64760W        W36343   9.606   8.853   1.913
64761W        W36344   1.326  25.026   2.789
64762W        W36345  11.284  30.222   3.144
64763W        W36346  10.701  26.766  13.888
64764W        W36347  31.430  26.973   4.852
64765W        W36348  37.433  12.716  12.375
64766W        W36349  32.488  33.575  14.579
64767W        W36350  44.412  17.535   1.355
64768W        W36351   4.299  25.190   2.878
64769W        W36352  34.410  39.602   1.117
64770W        W36353  15.031  34.370   4.322
64771W        W36354  10.365  26.892   1.247
64772W        W36355  20.135  35.824  14.968
64773W        W36356  26.732  14.682   4.084
64774W        W36357  29.819  35.963  11.920
64775W        W36358  23.534  40.243  14.394
64776W        W36359   2.411  20.738  14.430
64777W        W36360  36.423  21.569   2.735
64778W        W36361   8.774  33.154  10.663
64779W        W36362  43.349   0.298   3.581
64780W        W36363   6.289   0.945  13.036
64781W        W36364  25.703  44.540  12.449
64782W        W36365  31.366   2.386  14.947
64783W        W36366  25.439  29.914   3.675
64784W        W36367  14.747   5.342   1.334
64785W        W36368  32.924  17.814   3.318
64786W        W36369   8.768  14.177   1.666
64787W        W36370  27.986  26.092   2.793
64788W        W36371  44.415  28.297  13.373
64789W        W36372  10.291   6.163   0.668
64790W        W36373  24.746  26.017   1.206
64791W        W36374   2.481  19.830   3.299
64792W        W36375   3.470  37.987   4.110
64793W        W36376  12.808  18.613   3.282
64794W        W36377  10.658  28.381   3.179
64795W        W36378  17.981  12.259   3.552
64796W        W36379  24.853  13.194   2.565
64797W        W36380  43.298  35.762  12.542
64798W        W36381   9.801  12.954   2.994
64799W        W36382   6.334  42.395   3.284
64800W        W36383  26.526   1.853  12.419
64801W        W36384   7.808  25.231   1.615
64802W        W36385   9.247  29.533  14.399
64803W        W36386  17.246   5.631  11.709
64804W        W36387  15.312  17.054  10.773
64805W        W36388  19.726  39.707  13.967
64806W        W36389   7.524  44.060  14.494
64807W        W36390  30.948   9.740   3.190
64808W        W36391  23.987  39.770  10.352
64809W        W36392   2.768  44.155   3.922
64810W        W36393  42.514  15.707  11.257
64811W        W36394  25.160   5.244   0.912
64812W        W36395  40.423  35.670   0.555
64813W        W36396  31.269  42.721   2.227
64814W        W36397  41.099  17.195   0.332
64815W        W36398  40.861  34.888  12.478
64816W        W36399  39.167   7.882   5.470
64817W        W36400  22.724  12.187   2.787
64818W        W36401   7.761  34.296   1.713
64819W        W36402   4.420   3.993   4.491
64820W        W36403  22.886  35.010  12.626
64821W        W36404  23.081  31.845   4.841
64822W        W36405   1.006  26.277   4.090
64823W        W36406  11.146  13.983  11.290
64824W        W36407  17.614  41.445  11.245
64825W        W36408  23.347  28.658   3.129
64826W        W36409   4.799  33.790   2.265
64827W        W36410  22.834  25.501   3.721
64828W        W36411  18.160  14.164  11.411
64829W        W36412  15.324  30.429   2.805
64830W        W36413  13.667  43.305  11.431
64831W        W36414  16.991   5.033   4.292
64832W        W36415  15.225  21.125  10.928
64833W        W36416  14.154  28.882   4.234
64834W        W36417  19.347  21.964  13.880
64835W        W36418  41.530  26.995  11.379
64836W        W36419   0.920   8.342  12.078
64837W        W36420  29.689  36.109   1.406
64838W        W36421  42.838  11.746  13.144
64839W        W36422  21.654  16.918   4.115
64840W        W36423   7.267   7.909  11.192
64841W        W36424  29.881   9.134  11.089
64842W        W36425   5.234  41.311   0.836
64843W        W36426  15.706  35.486   0.838
64844W        W36427  42.977  25.941  14.319
64845W        W36428   5.649  31.909   0.723
64846W        W36429  23.865  10.023   4.958
64847W        W36430  19.258  39.222  12.050
64848W        W36431  25.411  17.687   0.464
64849W        W36432  26.241  42.469  12.330
64850W        W36433  35.426  20.566  12.901
64851W        W36434  26.923   6.579  14.450
64852W        W36435  24.529  30.678  11.173
64853W        W36436   2.716  24.755   1.208
64854W        W36437  10.291  22.688   1.295
64855W        W36438  24.301   5.663  14.393
64856W        W36439  14.153  25.935   1.790
64857W        W36440  26.126   2.213   1.649
64858W        W36441  43.938  19.039  14.952
64859W        W36442  20.621  22.598  13.763
64860W        W36443   7.234  23.691  11.333
64861W        W36444   4.749  38.340  14.411
64862W        W36445  24.042  20.128   3.266
64863W        W36446  29.581  16.661   4.278
64864W        W36447   3.694  27.356  14.524
64865W        W36448  21.029   7.147  14.914
64866W        W36449   0.440   2.966  13.997
64867W        W36450   0.823  35.121  13.903
64868W        W36451  10.153  25.460   2.190
64869W        W36452   2.446  38.244  13.571
64870W        W36453  40.612  15.352   3.307
64871W        W36454  21.997  12.883  13.447
64872W        W36455   1.314  26.241  13.881
64873W        W36456  30.510  33.486   4.002
64874W        W36457  37.931  15.133  11.447
64875W        W36458  37.194  35.823   0.897
64876W        W36459  27.456  19.320  11.087
64877W        W36460  38.432  29.391  11.088
64878W        W36461  27.122  34.682   2.697
64879W        W36462  26.669  18.062   3.082
64880W        W36463  37.433   2.720   0.863
64881W        W36464  42.513  14.621   3.134
64882W        W36465   6.465  28.695  14.768
64883W        W36466  28.240  31.381   0.782
64884W        W36467   9.352  27.964  12.131
64885W        W36468  42.885  24.425   4.647
64886W        W36469   3.753  33.098   1.796
64887W        W36470   5.691  19.550   0.175
64888W        W36471   1.985  40.159  11.886
64889W        W36472  22.279  33.869  14.091
64890W        W36473  30.997  42.302   0.793
64891W        W36474  14.392   1.435  13.760
64892W        W36475   5.100  30.463   1.864
64893W        W36476  22.165   7.291   4.550
64894W        W36477  25.907  28.295  11.141
64895W        W36478  14.111   1.342   2.819
64896W        W36479   5.827  10.619   1.878
64897W        W36480  24.618  36.995  14.536
64898W        W36481  30.346  22.578   0.328
64899W        W36482  22.462  34.397   1.456
64900W        W36483  20.002   4.406  13.882
64901W        W36484  34.897  35.541   0.538
64902W        W36485  23.299   4.908   0.964
64903W        W36486   2.068  13.824   1.613
64904W        W36487   6.352  36.833   1.662
64905W        W36488  15.636  17.755  12.892
64906W        W36489  44.198  37.458   1.463
64907W        W36490  38.308  18.630  11.135
64908W        W36491  27.412   4.210   2.332
64909W        W36492   3.892  36.078  12.058
64910W        W36493  32.180  24.856   4.643
64911W        W36494  13.868  27.088   2.048
64912W        W36495  23.935  26.121   4.428
64913W        W36496   3.472  11.612   2.156
64914W        W36497  23.427  34.973   1.733
64915W        W36498  31.965  11.386  14.504
64916W        W36499  37.257  43.034   4.173
64917W        W36500  37.579  13.295   2.213
64918W        W36501  29.312  14.149   4.118
64919W        W36502  28.634  31.081  12.518
64920W        W36503  21.994  10.565  12.557
64921W        W36504  40.584  19.524   1.738
64922W        W36505  20.688  16.744  10.900
64923W        W36506  24.485  41.381   1.192
64924W        W36507  20.203   1.275  14.473
64925W        W36508  38.307   1.168   0.392
64926W        W36509  10.170  29.380  12.586
64927W        W36510  42.740  35.387   2.533
64928W        W36511   6.873  37.175   0.185
64929W        W36512  23.231  15.142   4.511
64930W        W36513  21.765  30.674   0.091
64931W        W36514  21.906  27.094  10.695
64932W        W36515  42.864  39.879   1.279
64933W        W36516   9.462  21.132   4.138
64934W        W36517   0.749  26.877   2.588
64935W        W36518   9.164  26.474   3.515
64936W        W36519   0.937  41.474   1.540
64937W        W36520  14.257  15.632   3.813
64938W        W36521  23.252  26.913   1.393
64939W        W36522   8.183  18.072  13.954
64940W        W36523  21.687  14.353  10.463
64941W        W36524  36.329   5.059  11.530
64942W        W36525  18.537  13.211   3.685
64943W        W36526   7.667   2.129  14.988
64944W        W36527   2.385   3.220   1.772
64945W        W36528  32.881  30.003  13.151
64946W        W36529   6.789  31.892   0.180
64947W        W36530  19.244  41.910  13.953
64948W        W36531  21.025  23.049   3.588
64949W        W36532  20.295   0.720  14.392
64950W        W36533  36.918  29.911   1.433
64951W        W36534  26.380  12.042  12.137
64952W        W36535  36.409  29.150  12.888
64953W        W36536  43.279   6.615  11.446
64954W        W36537  41.763  36.005  13.412
64955W        W36538   1.921   8.433  14.313
64956W        W36539  13.748   7.913  11.113
64957W        W36540  10.144  33.433  13.842
64958W        W36541  23.566  31.861   3.660
64959W        W36542  23.137   5.031  11.070
64960W        W36543  35.588   5.891   4.552
64961W        W36544  13.850  22.160  10.748
64962W        W36545  31.920  27.441  12.032
64963W        W36546  43.264  40.982  10.699
64964W        W36547   7.248  10.736   2.311
64965W        W36548  22.401  43.296   2.310
64966W        W36549   3.999  14.493  13.297
64967W        W36550  28.885  41.448  13.421
64968W        W36551  40.486  27.440  10.724
64969W        W36552  25.356  39.387   4.052
64970W        W36553   8.221  28.149  12.978
64971W        W36554  31.769   5.370   0.328
64972W        W36555   2.249  16.389   1.885
64973W        W36556   0.168  37.732  12.941
64974W        W36557  14.846  16.211   2.294
64975W        W36558  28.652  32.140   0.320
64976W        W36559  25.414  31.060   3.277
64977W        W36560  34.613  29.977   3.137
64978W        W36561  44.845  22.641  13.307
64979W        W36562  13.360  27.300   0.938
64980W        W36563  39.515  14.010   3.641
64981W        W36564  12.424  25.010  13.553
64982W        W36565  38.286  33.124   2.130
64983W        W36566  39.409   5.625  11.574
64984W        W36567  20.805  14.043   1.188
64985W        W36568  23.591   1.769   0.845
64986W        W36569  13.756  15.220   1.326
64987W        W36570  11.165  13.813   1.377
64988W        W36571   1.415  41.268   4.900
64989W        W36572  35.925  32.418  14.416
64990W        W36573   4.445  17.748  10.610
64991W        W36574  33.926   9.213   4.117
64992W        W36575  18.071  26.025   4.512
64993W        W36576  13.528  38.060   0.301
64994W        W36577  39.825   7.192   3.242
64995W        W36578  25.318   8.980   2.877
64996W        W36579  21.392  38.926  12.803
64997W        W36580  12.038  29.852  12.635
64998W        W36581   1.714  30.109   3.258
64999W        W36582  16.033  33.483   4.077
65000W        W36583  36.839  38.084   0.871
65001W        W36584  24.090  44.278  11.184
65002W        W36585  10.827  31.935   3.199
65003W        W36586  20.732   2.750  14.344
65004W        W36587  41.110  18.139  11.186
65005W        W36588  29.391  19.041   1.020
65006W        W36589  42.916  24.977   3.385
65007W        W36590   4.029   4.216  11.116
65008W        W36591  39.841  21.294  10.873
65009W        W36592   0.822  35.019   2.744
65010W        W36593  24.507  22.734   4.313
65011W        W36594  36.338  30.910   2.520
65012W        W36595  41.472   7.481  13.798
65013W        W36596  10.362  19.936   0.364
65014W        W36597  23.101  22.044   2.441
65015W        W36598  42.932  11.099  14.753
65016W        W36599  33.103  42.641   4.036
65017W        W36600  34.527  13.672   4.169
65018W        W36601  25.347   1.399   4.928
65019W        W36602  43.006  15.161   5.046
65020W        W36603  21.170  12.312   3.580
65021W        W36604  39.400  36.999  13.967
65022W        W36605  13.374  44.007   1.925
65023W        W36606   3.680   1.276  13.382
65024W        W36607  22.465  19.063   3.308
65025W        W36608  35.079   2.756  11.030
65026W        W36609   9.360  14.310   1.012
65027W        W36610  41.286  40.727   4.571
65028W        W36611  37.074  33.639  11.585
65029W        W36612   7.959  32.564  13.323
65030W        W36613  38.750  19.300   3.321
65031W        W36614  15.128  21.079  14.290
65032W        W36615   0.698  11.699   0.911
65033W        W36616  43.778  11.139   1.370
65034W        W36617  20.511  19.135   1.263
65035W        W36618  11.630  11.649   2.344
65036W        W36619  24.809  14.396   3.185
65037W        W36620  23.894   4.938  12.887
65038W        W36621   3.434  37.581   2.732
65039W        W36622  37.747   9.877   1.291
65040W        W36623   3.315   9.250   0.320
65041W        W36624  38.040  31.738   2.157
65042W        W36625   6.990  29.119   1.473
65043W        W36626  25.983  40.883   3.031
65044W        W36627  20.372  36.334  11.061
65045W        W36628  14.235  36.941   0.802
65046W        W36629  16.746  33.993   2.322
65047W        W36630  19.597  35.297  14.528
65048W        W36631  43.529  19.253   3.660
65049W        W36632   9.490  21.155   3.615
65050W        W36633   6.619   5.289   0.778
65051W        W36634   3.230  25.633  11.179
65052W        W36635   7.334  20.642   3.734
65053W        W36636  24.810  30.515  13.065
65054W        W36637  32.090  27.182  13.978
65055W        W36638   6.410   5.435  10.630
65056W        W36639   9.295  32.382  10.738
65057W        W36640  23.094  31.340  13.030
65058W        W36641  13.639  17.763  13.715
65059W        W36642  22.270  27.652   0.444
65060W        W36643  38.408  41.081  12.485
65061W        W36644  26.469  35.384   3.851
65062W        W36645  29.523  23.965  11.251
65063W        W36646  30.028  36.597  11.728
65064W        W36647   9.899  44.210   1.998
65065W        W36648  10.366  24.194   0.429
65066W        W36649  27.905  10.257   3.350
65067W        W36650   5.321  28.465   3.880
65068W        W36651  20.349  37.810  11.590
65069W        W36652   7.859  43.987   2.217
65070W        W36653  30.979  17.134   4.027
65071W        W36654  16.196  37.915  11.239
65072W        W36655  32.890  19.244  10.901
65073W        W36656  17.773  35.413   3.691
65074W        W36657   8.398  42.254   2.972
65075W        W36658  24.693  36.686   1.851
65076W        W36659  23.730  14.555  11.117
65077W        W36660  15.377  16.087  10.719
65078W        W36661  19.554   8.666   2.368
65079W        W36662   0.708  41.886   0.318
65080W        W36663   1.636  40.974  14.778
65081W        W36664  16.670  20.606   2.689
65082W        W36665  24.893  37.106   2.680
65083W        W36666  26.383   0.287   1.790
65084W        W36667  33.893   0.680   2.025
65085W        W36668  24.616  40.851  12.163
65086W        W36669   9.814  30.473  11.710
65087W        W36670  36.511   6.367  13.428
65088W        W36671  28.692  18.573   3.616
65089W        W36672  20.086  41.098   4.320
65090W        W36673  39.757  22.771  11.674
65091W        W36674  35.470  16.825   4.699
65092W        W36675   6.148  23.350   3.718
65093W        W36676  41.290  35.604   3.107
65094W        W36677  13.008  18.344   4.871
65095W        W36678  26.686  17.581   0.776
65096W        W36679  34.467  37.369  13.420
65097W        W36680  43.948  40.356   2.264
65098W        W36681  41.607  23.720  12.160
65099W        W36682  20.947  17.520  11.974
65100W        W36683  16.324  41.966  11.771
65101W        W36684  43.377  41.958   3.731
65102W        W36685  30.994  26.214   1.852
65103W        W36686   9.741  19.048  13.524
65104W        W36687   7.159  21.055  10.678
65105W        W36688  28.065  17.206  12.080
65106W        W36689  12.044  10.306  14.402
65107W        W36690   2.608  36.110   9.910
65108W        W36691  10.206  40.366  13.494
65109W        W36692   2.865  17.763  12.411
65110W        W36693  14.761  37.699  14.800
65111W        W36694  25.652   3.458  11.591
65112W        W36695  14.633  12.593  10.680
65113W        W36696  40.933  16.213  11.412
65114W        W36697  27.251  39.288   2.641
65115W        W36698  37.484  43.294   1.925
65116W        W36699  31.585  24.128  12.903
65117W        W36700  42.868   8.879   3.441
65118W        W36701  30.188  40.249   2.676
65119W        W36702   3.392   4.271  14.590
65120W        W36703  11.683  13.292  14.224
65121W        W36704  18.650  42.840   1.719
65122W        W36705  12.192  14.064  12.050
65123W        W36706  37.615  37.468  11.836
65124W        W36707  21.562   0.371   2.341
65125W        W36708  35.261  31.925  12.427
65126W        W36709   3.990  41.492   4.641
65127W        W36710  11.642   5.048  12.384
65128W        W36711  39.947  21.814  11.102
65129W        W36712  10.163  34.573   4.840
65130W        W36713  21.995  28.998  10.688
65131W        W36714  37.383  27.924   4.573
65132W        W36715   1.906   4.339  11.629
65133W        W36716  22.284  22.789   3.612
65134W        W36717  38.778  13.108   4.033
65135W        W36718  38.289   4.854   3.313
65136W        W36719  23.188   0.991   0.300
65137W        W36720   8.065   5.670   4.074
65138W        W36721   6.208  38.258  13.381
65139W        W36722  12.317   0.284   2.695
65140W        W36723  29.933  44.750   1.240
65141W        W36724  18.462   0.791   1.460
65142W        W36725  20.998   4.679   1.356
65143W        W36726  15.164  25.135   0.933
65144W        W36727  40.426  21.496  10.385
65145W        W36728  35.961  19.734   4.526
65146W        W36729  16.180  21.623   3.398
65147W        W36730  16.801  28.626   0.552
65148W        W36731   4.683  33.188  12.078
65149W        W36732  44.098  40.604   4.212
65150W        W36733  39.060  32.866  14.129
65151W        W36734  33.864   3.956  11.144
65152W        W36735  26.594  10.359  11.595
65153W        W36736  44.698  17.009   1.916
65154W        W36737  19.960  23.060  12.916
65155W        W36738  41.197  14.287  11.023
65156W        W36739   3.006   3.832  13.643
65157W        W36740  31.862  41.519   3.659
65158W        W36741  11.242  26.251  11.636
65159W        W36742  15.240  21.096  10.402
65160W        W36743  26.623  25.314  12.111
65161W        W36744  43.646  15.978   0.791
65162W        W36745  21.092   1.286   0.225
65163W        W36746   9.009  30.637  12.249
65164W        W36747  10.692  31.065   1.571
65165W        W36748   3.361   9.631   1.768
65166W        W36749  41.773   9.322   3.197
65167W        W36750  20.278   4.971  14.979
65168W        W36751   8.182  20.163   0.813
65169W        W36752  26.438  15.166  13.785
65170W        W36753  44.649  14.256   2.773
65171W        W36754  11.755   6.419   4.185
65172W        W36755  32.089  30.099   1.834
65173W        W36756  43.497  15.230   1.447
65174W        W36757  34.962  28.163   2.319
65175W        W36758  29.140  43.511  11.026
65176W        W36759   8.603  36.442   0.340
65177W        W36760  16.566  40.333   1.963
65178W        W36761  29.018  33.643   3.594
65179W        W36762   1.914  26.144   0.506
65180W        W36763  35.822   5.062  11.561
65181W        W36764  21.565  39.049  13.264
65182W        W36765   9.654  21.693  14.343
65183W        W36766  27.553  44.616   1.853
65184W        W36767   6.164  41.955   4.551
65185W        W36768  18.356  17.196   1.392
65186W        W36769  33.417  23.555   1.346
65187W        W36770   9.563  18.729   1.771
65188W        W36771  32.967   6.284   4.853
65189W        W36772  17.170   2.444  12.621
65190W        W36773  35.645  21.911   4.750
65191W        W36774   8.220  29.092   0.962
65192W        W36775  11.598   3.756   0.908
65193W        W36776   6.424   2.500  12.317
65194W        W36777  10.133  33.813  14.324
65195W        W36778  13.451  25.673   4.558
65196W        W36779   9.376  13.058   0.982
65197W        W36780   3.258  33.575   4.123
65198W        W36781  25.114  14.344   1.468
65199W        W36782  22.719  10.569   3.651
65200W        W36783   7.928   4.148   1.283
65201W        W36784  24.284   5.234   0.318
65202W        W36785  40.165   4.778  13.879
65203W        W36786  35.395  28.194   1.604
65204W        W36787  15.544   9.828  12.083
65205W        W36788  28.027  21.685  14.831
65206W        W36789   7.323  25.983  14.095
65207W        W36790  14.598  37.081   5.516
65208W        W36791   9.414  12.541  13.427
65209W        W36792  31.883  11.801   4.130
65210W        W36793   2.204  42.532  14.976
65211W        W36794  39.973  15.823   2.499
65212W        W36795  23.420  29.928   1.457
65213W        W36796  41.112   5.286  14.557
65214W        W36797  39.337  20.560   0.282
65215W        W36798   1.655  37.980   0.188
65216W        W36799  28.007  14.620   2.102
65217W        W36800  30.611  44.493   4.832
65218W        W36801  19.265  17.335  13.498
65219W        W36802   6.176  10.788   1.516
65220W        W36803   6.370  12.624   0.683
65221W        W36804  26.903  11.780   0.837
65222W        W36805  37.924   7.802  14.323
65223W        W36806  20.285  24.570   5.102
65224W        W36807  32.201  31.949  12.406
65225W        W36808  42.348  38.798   1.233
65226W        W36809  44.694  10.303  11.531
65227W        W36810  23.492   6.323   0.903
65228W        W36811  38.786  11.324   0.264
65229W        W36812  33.336   3.235   5.045
65230W        W36813  23.980  37.997   0.327
65231W        W36814  37.585  11.527   2.892
65232W        W36815  42.235  36.280   3.440
65233W        W36816  34.371   5.918   4.348
65234W        W36817   9.819  17.177  12.378
65235W        W36818  21.090  13.616   1.292
65236W        W36819  10.789  37.364  12.136
65237W        W36820  15.243  29.453   2.875
65238W        W36821  30.916  25.068   2.795
65239W        W36822  37.165  35.511   1.886
65240W        W36823  26.918  12.918   4.136
65241W        W36824   7.006  43.788  10.864
65242W        W36825   6.679  24.714  13.532
65243W        W36826   7.779   0.937   2.394
65244W        W36827  41.627  12.066  13.882
65245W        W36828  42.786  11.545  12.217
65246W        W36829  20.009  30.825   3.972
65247W        W36830  16.683  25.707   2.670
65248W        W36831  16.770  44.174  11.578
65249W        W36832   0.198  40.939   2.936
65250W        W36833   4.927  29.922  11.126
65251W        W36834  33.713   8.346  12.536
65252W        W36835  16.849  11.330   3.668
65253W        W36836  28.682   8.641   3.772
65254W        W36837  39.364  22.424   3.657
65255W        W36838  20.288  20.080   2.530
65256W        W36839  31.054  12.660   2.684
65257W        W36840  21.120  41.339   1.826
65258W        W36841  41.365  35.527  10.996
65259W        W36842  24.176   3.237   2.235
65260W        W36843  38.930   2.971  13.029
65261W        W36844  13.406  29.980   3.697
65262W        W36845  29.557   8.647  14.890
65263W        W36846  16.667  35.179   1.435
65264W        W36847  44.353  17.331   3.337
65265W        W36848   0.323  43.557   1.989
65266W        W36849  32.950  36.345  12.042
65267W        W36850  44.259  11.112  14.378
65268W        W36851  43.011  18.080  13.908
65269W        W36852  34.582   6.907  13.984
65270W        W36853  33.445  16.117   4.708
65271W        W36854  38.068  37.837  12.494
65272W        W36855  43.008  10.096  12.594
65273W        W36856   7.846  28.432   0.316
65274W        W36857   2.904  13.836   4.709
65275W        W36858   8.151   3.716  11.089
65276W        W36859   4.892  18.744   0.652
65277W        W36860   8.087  30.074  10.407
65278W        W36861  44.871  31.226  13.598
65279W        W36862   7.177  28.956  10.747
65280W        W36863  31.483  43.989  13.313
65281W        W36864  14.621   9.234   4.636
65282W        W36865  41.559   9.716  12.572
65283W        W36866  14.112  31.526  13.942
65284W        W36867  42.709  40.184   0.020
65285W        W36868  11.091  36.070   3.942
65286W        W36869  15.200  22.083   1.394
65287W        W36870  15.690  30.662   0.193
65288W        W36871  15.723  15.392  10.241
65289W        W36872   2.446   0.099  11.107
65290W        W36873  25.719  43.730   3.427
65291W        W36874  34.915   9.293   4.126
65292W        W36875  29.789   2.071   2.877
65293W        W36876   7.115  36.016  14.578
65294W        W36877  11.254  37.238  11.942
65295W        W36878  38.996   7.476   0.752
65296W        W36879   5.803   1.468   2.317
65297W        W36880  38.742  19.959  13.951
65298W        W36881  39.005  38.015  10.914
65299W        W36882  28.593  39.784  12.854
65300W        W36883  20.703  39.106  11.135
65301W        W36884  38.425  16.425   3.699
65302W        W36885  27.125  24.018  11.596
65303W        W36886  44.209   6.252  14.444
65304W        W36887  14.122  20.447   1.187
65305W        W36888  38.644  17.262   2.539
65306W        W36889  29.695  29.079  12.454
65307W        W36890  11.933   9.793   2.441
65308W        W36891  15.240  25.701   3.911
65309W        W36892  19.322  36.898   0.646
65310W        W36893   7.288  30.061  13.376
65311W        W36894  20.723   9.427   0.736
65312W        W36895   4.746  13.788   4.202
65313W        W36896  14.283  32.014  10.614
65314W        W36897   1.170  34.812   1.763
65315W        W36898  15.112  27.428   4.943
65316W        W36899  25.588   0.446  13.540
65317W        W36900  42.483  35.917   0.905
65318W        W36901  28.819  10.816   0.677
65319W        W36902  44.237  36.814   4.103
65320W        W36903  10.590   5.961   3.098
65321W        W36904  39.340   8.232  11.207
65322W        W36905   4.004  12.211  11.216
65323W        W36906  15.561   6.476   3.611
65324W        W36907   7.263  30.168   4.580
65325W        W36908  32.446  36.402  11.182
65326W        W36909  28.790  22.073  12.890
65327W        W36910  19.221  26.041   1.267
65328W        W36911  40.755   5.752  14.889
65329W        W36912  27.597  34.102   4.677
65330W        W36913   2.021  23.763   2.664
65331W        W36914   4.758   8.871   4.896
65332W        W36915  26.599   8.782  13.174
65333W        W36916  40.049  30.602   1.432
65334W        W36917   8.512   3.997   5.052
65335W        W36918   1.867   8.141   3.701
65336W        W36919  33.910  20.545  13.854
65337W        W36920   5.500  15.719  14.245
65338W        W36921  39.483   1.948   3.850
65339W        W36922  37.074  23.938   1.814
65340W        W36923   3.273  32.081   4.207
65341W        W36924  15.078  37.072   0.270
65342W        W36925   4.131  29.623  11.792
65343W        W36926  31.367  13.128   3.208
65344W        W36927  16.865  32.281  12.346
65345W        W36928  18.298  38.016   0.726
65346W        W36929  18.981  42.849   1.263
65347W        W36930   2.168  42.506   0.493
65348W        W36931   7.146   4.375   0.859
65349W        W36932   8.419  26.705  14.384
65350W        W36933  11.402  19.598   3.326
65351W        W36934  17.195  18.711   4.977
65352W        W36935  11.856   0.450  10.199
65353W        W36936  40.982  36.178  13.017
65354W        W36937  33.212  10.403   0.612
65355W        W36938   2.222  35.946  11.709
65356W        W36939  16.842  31.624   3.727
65357W        W36940  18.796   8.660  13.938
65358W        W36941   0.976  12.620  10.766
65359W        W36942  36.978   5.924  12.112
65360W        W36943  26.952   1.907  13.937
65361W        W36944  42.337   4.972   2.217
65362W        W36945  34.699  32.608  13.007
65363W        W36946   8.398  10.749  12.869
65364W        W36947   4.655  12.615   1.408
65365W        W36948  34.372  23.090   3.604
65366W        W36949  15.840  23.129  10.626
65367W        W36950  27.522  43.381   3.188
65368W        W36951  17.591   4.199  12.956
65369W        W36952  21.170   1.167   2.570
65370W        W36953  17.827  25.108   2.709
65371W        W36954   0.201  42.461   3.327
65372W        W36955   1.291   7.725  12.034
65373W        W36956  41.958  32.955  10.629
65374W        W36957  21.491  22.829  13.503
65375W        W36958   8.211  13.342  14.821
65376W        W36959  12.574  29.692  14.485
65377W        W36960  12.239  40.315   4.181
65378W        W36961  38.432   3.024   3.315
65379W        W36962  33.997   7.068  12.183
65380W        W36963   4.709   5.339  10.677
65381W        W36964  13.890  21.636   4.306
65382W        W36965   4.932  28.725   4.166
65383W        W36966  12.035  19.921  11.121
65384W        W36967   2.987  28.464  12.095
65385W        W36968   1.073  41.944   1.791
65386W        W36969   2.675  39.478   2.831
65387W        W36970  37.414  27.251   3.177
65388W        W36971  37.894  42.525  12.109
65389W        W36972  32.945  39.423   2.821
65390W        W36973   4.326  40.970  12.474
65391W        W36974   8.382   9.390   0.398
65392W        W36975  34.606  26.223  12.680
65393W        W36976  23.051  28.102   1.299
65394W        W36977  43.812  43.547   2.958
65395W        W36978  12.722  30.888  10.730
65396W        W36979  19.282  37.945   3.935
65397W        W36980  21.226  43.530  12.472
65398W        W36981  15.873  12.687   4.381
65399W        W36982  11.289   7.441  11.526
65400W        W36983  35.890  37.276   2.200
65401W        W36984  42.845   9.466   1.272
65402W        W36985  28.874  42.740  10.789
65403W        W36986   5.159   4.351  10.732
65404W        W36987  29.009  10.857   4.424
65405W        W36988   6.343  42.161   1.819
65406W        W36989  24.954  16.893   3.232
65407W        W36990  28.364   2.402   4.167
65408W        W36991  42.012  41.238  13.278
65409W        W36992  17.717  30.944  11.416
65410W        W36993  34.400  40.861   2.646
65411W        W36994  36.159  18.331  12.473
65412W        W36995  13.254  17.163  13.769
65413W        W36996   3.383  29.966  11.569
65414W        W36997   6.505  38.666   4.253
65415W        W36998  21.488   9.802   4.668
65416W        W36999  24.179  19.693  11.151
65417W        W37000  31.637  37.157  11.980
65418W        W37001  22.821   4.290   1.358
65419W        W37002  30.134   9.142   4.228
65420W        W37003  19.835  37.053   0.662
65421W        W37004   4.686  21.035  11.682
65422W        W37005   3.945  32.830   4.237
65423W        W37006  38.086  27.635  10.679
65424W        W37007  37.819  28.862   2.578
65425W        W37008  10.723  26.048  13.074
65426W        W37009   9.703  16.216  10.932
65427W        W37010  27.651  44.878  13.826
65428W        W37011  41.091  15.317  13.893
65429W        W37012  25.392  22.589  12.146
65430W        W37013   0.210   4.248  12.000
65431W        W37014  40.216  39.850  13.114
65432W        W37015  42.340  27.560  11.518
65433W        W37016  35.972  35.666  11.971
65434W        W37017  15.766  40.885  14.068
65435W        W37018  28.046  25.688   4.535
65436W        W37019  31.441   0.338  12.489
65437W        W37020   9.312  22.181  10.738
65438W        W37021  25.746  33.978  13.731
65439W        W37022  44.217  34.287   3.160
65440W        W37023  37.781  16.349  11.478
65441W        W37024  10.701  44.233  12.871
65442W        W37025  22.193  20.114   2.727
65443W        W37026  14.857  19.547  10.472
65444W        W37027  11.233  21.766   0.213
65445W        W37028   1.437  33.736   1.440
65446W        W37029  17.049  16.951  10.120
65447W        W37030  13.170  26.428  10.021
65448W        W37031  25.655  43.188  11.933
65449W        W37032   0.524   4.349  14.831
65450W        W37033  36.927  11.328  11.391
65451W        W37034  38.081  43.409   4.065
65452W        W37035   7.029  43.851  13.422
65453W        W37036  36.049   3.415   4.627
65454W        W37037  31.338  16.975   2.643
65455W        W37038  39.438  17.394  14.854
65456W        W37039  28.638  30.895  11.121
65457W        W37040  14.650  16.522  10.458
65458W        W37041  35.635  22.164   4.305
65459W        W37042  12.218  13.266   3.744
65460W        W37043  13.824  25.229   0.439
65461W        W37044  19.569   6.218   0.946
65462W        W37045   9.159   4.177   3.194
65463W        W37046  37.081   2.693   2.958
65464W        W37047  26.650   6.421   2.347
65465W        W37048   5.385  28.014  13.151
65466W        W37049  31.536  10.577   4.837
65467W        W37050  26.072  31.037  10.791
65468W        W37051   1.376  33.311  10.775
65469W        W37052  11.473  30.540   2.249
65470W        W37053  37.023   0.854  13.046
65471W        W37054  23.793  29.450  11.780
65472W        W37055  29.525  36.930  14.728
65473W        W37056  16.727  25.059  14.883
65474W        W37057  25.571   6.810  12.463
65475W        W37058  34.018  34.957   3.889
65476W        W37059  15.128   0.151  11.863
65477W        W37060  29.663  18.246  13.509
65478W        W37061  22.556  10.393  14.246
65479W        W37062   6.728  42.973  13.810
65480W        W37063  10.704  31.557   0.307
65481W        W37064   3.215   3.913   4.137
65482W        W37065  22.864   3.219   1.306
65483W        W37066  11.499  34.927  11.099
65484W        W37067  38.467  16.636   4.179
65485W        W37068  40.654   0.502   1.150
65486W        W37069  20.271  43.185   1.814
65487W        W37070  19.510  39.241  13.984
65488W        W37071  30.953  36.847   3.811
65489W        W37072   8.894  24.150   4.673
65490W        W37073  39.490  32.865   4.734
65491W        W37074   4.822  32.530  13.020
65492W        W37075   0.066  21.760   2.809
65493W        W37076  26.920   1.747   3.644
65494W        W37077  14.263  11.727  13.542
65495W        W37078  38.584  28.959  11.972
65496W        W37079  36.114   2.203  11.952
65497W        W37080  37.273   1.384   2.765
65498W        W37081  25.188  40.971   4.535
65499W        W37082  27.937   4.945  13.407
65500W        W37083  25.487  24.238   3.905
65501W        W37084   9.170   9.725  14.362
65502W        W37085  10.174  42.760  14.918
65503W        W37086  38.554  11.634   1.277
65504W        W37087  29.199  31.169   4.865
65505W        W37088  31.328  15.291  12.530
65506W        W37089  33.001  34.865  12.943
65507W        W37090  38.013  15.320  12.916
65508W        W37091  20.781  33.045  13.422
65509W        W37092  13.024  15.086  14.490
65510W        W37093  25.126  39.059  12.109
65511W        W37094  38.140   2.421   4.303
65512W        W37095  35.364  17.801  12.634
65513W        W37096  26.147   8.120   1.878
65514W        W37097  31.856  43.912   2.387
65515W        W37098  23.936  29.602  10.159
65516W        W37099  20.575  19.267  11.866
65517W        W37100  36.035  12.233  12.041
65518W        W37101  10.273  32.669  14.812
65519W        W37102  37.933  26.241   4.693
65520W        W37103   1.289  34.606   4.409
65521W        W37104  27.399   3.350  14.481
65522W        W37105  21.650  17.442  11.576
65523W        W37106  20.553  39.646  14.171
65524W        W37107   2.413  25.715  12.073
65525W        W37108  42.769  36.455   0.446
65526W        W37109  34.866   1.913  13.482
65527W        W37110  24.670  42.260  10.590
65528W        W37111  14.817  37.090   2.394
65529W        W37112  23.218  44.834  10.622
65530W        W37113  22.450  11.571   1.480
65531W        W37114   4.337  18.345  14.286
65532W        W37115  12.899  37.408  14.839
65533W        W37116  17.469  17.280   5.071
65534W        W37117  37.296  22.719   2.842
65535W        W37118  30.092  32.105  11.427
65536W        W37119  12.900   9.470  10.470
65537W        W37120  40.201   7.872  12.948
65538W        W37121  38.858   0.308   0.845
65539W        W37122   5.893  23.718   3.133
65540W        W37123  32.505  14.809  14.476
65541W        W37124  24.125  11.729   4.135
65542W        W37125   3.361  26.827   4.948
65543W        W37126   9.102  14.299  10.546
65544W        W37127   3.211   0.433   0.418
65545W        W37128   9.651  11.443   3.736
65546W        W37129  11.084   0.037   1.382
65547W        W37130  11.691  12.174  10.471
65548W        W37131  12.909  17.218   3.674
65549W        W37132  44.288  31.863  12.510
65550W        W37133   8.895   6.262   0.967
65551W        W37134   3.854  36.585   9.870
65552W        W37135  32.279   8.279   1.678
65553W        W37136   3.692  28.770   0.202
65554W        W37137  42.250  13.151   2.377
65555W        W37138  14.788  40.483  11.994
65556W        W37139  12.761   5.555   2.188
65557W        W37140  43.563  36.121  12.935
65558W        W37141  20.326  30.629   1.839
65559W        W37142  37.796  16.362   4.073
65560W        W37143   6.982  32.662   3.842
65561W        W37144  44.409   2.204  13.394
65562W        W37145  28.332  20.498   1.623
65563W        W37146  25.529  21.815  14.329
65564W        W37147  34.435  39.889   3.152
65565W        W37148  40.552  13.337   3.757
65566W        W37149  19.323  14.796   2.785
65567W        W37150   7.838   3.049   0.964
65568W        W37151  43.769  37.964   3.451
65569W        W37152  13.657  26.409  14.868
65570W        W37153  43.748   8.625   1.862
65571W        W37154  37.266  16.161  14.323
65572W        W37155  24.475  35.359   0.367
65573W        W37156  28.511  20.162  12.015
65574W        W37157   0.263   6.387   4.894
65575W        W37158  19.810  32.466   3.746
65576W        W37159  27.730  26.244   2.370
65577W        W37160  20.596  39.141  14.934
65578W        W37161  21.688  31.487  11.042
65579W        W37162  42.127  27.245   3.151
65580W        W37163  24.487   9.943   3.757
65581W        W37164  26.059   1.141  12.606
65582W        W37165  25.008  35.622   2.735
65583W        W37166  24.976   8.737   3.182
65584W        W37167  28.899  24.075   3.786
65585W        W37168  18.641  19.130   0.212
65586W        W37169  10.030  25.318   0.190
65587W        W37170  38.976  16.621   4.430
65588W        W37171  14.349  39.304  11.992
65589W        W37172  41.814  32.582  14.340
65590W        W37173   9.740   1.752  12.625
65591W        W37174  24.055  16.069  14.784
65592W        W37175  12.161  42.756  11.641
65593W        W37176   1.213  20.277  10.686
65594W        W37177  21.536  26.718  13.836
65595W        W37178   7.780   4.938   4.915
65596W        W37179  28.095  31.588   1.779
65597W        W37180  13.623  38.032  12.105
65598W        W37181   0.254   5.405   3.215
65599W        W37182   4.384  12.625  13.288
65600W        W37183  42.099  27.543   4.410
65601W        W37184  22.618  14.417   2.782
65602W        W37185   0.073  41.464  13.198
65603W        W37186  20.138  30.188   2.016
65604W        W37187  12.301  20.861  12.394
65605W        W37188  32.043  39.951  10.690
65606W        W37189  41.989   8.428   2.162
65607W        W37190   2.265  14.133  13.409
65608W        W37191  14.248  22.718  13.318
65609W        W37192  29.619  14.648  13.332
65610W        W37193   5.530  24.411   1.815
65611W        W37194  28.365   5.219   3.553
65612W        W37195  42.554  18.013   1.122
65613W        W37196  25.690  38.835   0.605
65614W        W37197  12.789   1.926  13.310
65615W        W37198  34.419   2.514   4.542
65616W        W37199  33.245  28.620   1.282
65617W        W37200  22.219   7.912  12.249
65618W        W37201   5.456  20.569  11.426
65619W        W37202  34.607  17.706   3.458
65620W        W37203  14.410  12.017   4.900
65621W        W37204   9.988   9.647  11.157
65622W        W37205  39.010  34.590   3.755
65623W        W37206  44.896   9.338  11.802
65624W        W37207   7.264  37.580  13.599
65625W        W37208  25.181  30.899  12.018
65626W        W37209   8.937  28.008   0.946
65627W        W37210  39.428  38.785   3.460
65628W        W37211  41.237  29.364   2.323
65629W        W37212   6.137   9.292   2.831
65630W        W37213  31.540  16.133   0.322
65631W        W37214  30.023  23.804   1.210
65632W        W37215  21.256  21.234  12.927
65633W        W37216   6.954   8.378   3.261
65634W        W37217  40.528  39.004   3.264
65635W        W37218  28.510  13.931  13.864
65636W        W37219  12.413  35.541  12.628
65637W        W37220   4.323  36.839  10.669
65638W        W37221  15.965  32.254   4.080
65639W        W37222  40.219  33.931   2.334
65640W        W37223  37.876   3.304  14.385
65641W        W37224   6.149  16.343  14.758
65642W        W37225  40.883  15.844   2.548
65643W        W37226  30.292  40.090  10.722
65644W        W37227  33.383  34.396   1.419
65645W        W37228   3.212  10.779  12.082
65646W        W37229   5.004  13.989   5.063
65647W        W37230  42.320  28.191  13.728
65648W        W37231   7.417   8.982  10.508
65649W        W37232  43.326  40.471  12.363
65650W        W37233  32.941  44.183   1.043
65651W        W37234   8.739  14.312   0.237
65652W        W37235  35.806  15.259   0.911
65653W        W37236  16.119   0.247   3.166
65654W        W37237  12.128   2.368   4.266
65655W        W37238  34.034  27.553   3.730
65656W        W37239  39.447  42.584   3.700
65657W        W37240  13.096  32.604   4.261
65658W        W37241  19.987   8.747  10.638
65659W        W37242  30.033   2.811   0.072
65660W        W37243  27.129  18.231  14.881
65661W        W37244  44.634  24.755  13.383
65662W        W37245  34.251  29.635  10.683
65663W        W37246   3.344  35.181  10.632
65664W        W37247   8.645  26.544   1.449
65665W        W37248  34.090  13.285   4.688
65666W        W37249  35.557  31.024  13.554
65667W        W37250  32.474  42.506   4.236
65668W        W37251   4.202  17.734   3.808
65669W        W37252   5.310  32.917   1.927
65670W        W37253  20.394  34.454   3.826
65671W        W37254  20.431  25.210   1.786
65672W        W37255  16.085  23.535   0.273
65673W        W37256  36.478   2.890  10.644
65674W        W37257  34.076   0.684   0.451
65675W        W37258  34.274  26.083  10.703
65676W        W37259  28.176  29.552  12.403
65677W        W37260  19.782  30.788  13.456
65678W        W37261  33.897  35.391  13.003
65679W        W37262  37.640  41.071  13.534
65680W        W37263  22.614  19.808  10.125
65681W        W37264   8.705  37.279  11.641
65682W        W37265  35.861  15.089   4.085
65683W        W37266  31.733  25.099  13.881
65684W        W37267  11.863   7.409   3.556
65685W        W37268  27.571   0.958   1.713
65686W        W37269  23.789  19.145  12.539
65687W        W37270  13.312   0.029   1.686
65688W        W37271  27.239  44.359   1.518
65689W        W37272  35.510  38.358   1.390
65690W        W37273  34.411  15.588   0.846
65691W        W37274  31.301   4.736  11.046
65692W        W37275   6.419  21.226   0.402
65693W        W37276  28.619  39.888  12.343
65694W        W37277  33.389  11.902   1.259
65695W        W37278  19.310  42.424  14.079
65696W        W37279  10.632  20.715   2.590
65697W        W37280   0.360   4.901  12.022
65698W        W37281  18.212   2.730  11.175
65699W        W37282  12.639  41.110   2.983
65700W        W37283  42.882  21.051   3.114
65701W        W37284  20.268   0.802  13.480
65702W        W37285  44.534  16.296  11.941
65703W        W37286  23.966  13.277  10.664
65704W        W37287  33.943   3.315   1.072
65705W        W37288   3.338  39.468   5.112
65706W        W37289   9.757  12.401   2.842
65707W        W37290  14.750  25.636   0.504
65708W        W37291  13.084   8.789  11.538
65709W        W37292  27.193   3.396   4.274
65710W        W37293  16.130  33.326   0.330
65711W        W37294   5.705   3.678   1.521
65712W        W37295  11.846  13.742   0.021
65713W        W37296  28.188  13.719   3.041
65714W        W37297   0.812   0.286   0.479
65715W        W37298  35.930  25.661  12.463
65716W        W37299  19.727  10.165  10.426
65717W        W37300  20.748  41.898   2.343
65718W        W37301  42.800  24.208   5.122
65719W        W37302   0.920  28.913  10.651
65720W        W37303  13.416  15.959   3.681
65721W        W37304  40.562  15.246  14.005
65722W        W37305  30.498   6.864   4.936
65723W        W37306   0.508  11.672  12.578
65724W        W37307  38.336  25.889  12.441
65725W        W37308  31.671   8.330  13.400
65726W        W37309  22.515   9.665  13.269
65727W        W37310  27.893  18.665   0.915
65728W        W37311  32.209  23.059   3.962
65729W        W37312  22.322  16.892   4.748
65730W        W37313  33.466  36.888  13.377
65731W        W37314  39.915  19.774  12.890
65732W        W37315  42.449  44.349   3.293
65733W        W37316  12.066  29.617  14.492
65734W        W37317   3.848   8.229   2.862
65735W        W37318  23.461  11.350   1.754
65736W        W37319  20.654   7.972   3.236
65737W        W37320  29.104  19.773   2.693
65738W        W37321  28.632  37.654   2.775
65739W        W37322   8.724   9.222   2.005
65740W        W37323  37.924  37.494   2.861
65741W        W37324  21.654   6.481  12.579
65742W        W37325  10.823  36.442   0.413
65743W        W37326   1.755  44.756  14.920
65744W        W37327  10.783   3.345  14.244
65745W        W37328   9.393  14.812   4.946
65746W        W37329  20.009  28.666   0.853
65747W        W37330  28.110  42.705  11.634
65748W        W37331  38.593  30.989  11.162
65749W        W37332   2.444  37.722  13.469
65750W        W37333  43.258  15.750   0.263
65751W        W37334  27.364  12.192   1.277
65752W        W37335  15.960  10.257   4.975
65753W        W37336   2.345   1.560  12.871
65754W        W37337  40.829  29.833   2.843
65755W        W37338   8.841  41.641   3.329
65756W        W37339  19.298  31.974  13.399
65757W        W37340   5.246  22.471   1.347
65758W        W37341   3.754  31.894   4.144
65759W        W37342  32.462  30.032  12.446
65760W        W37343  32.603  34.857   1.818
65761W        W37344  27.027  30.676  11.532
65762W        W37345  13.937   5.810   2.650
65763W        W37346  41.461  18.123   3.938
65764W        W37347   8.865   1.252  12.051
65765W        W37348  43.984  22.091   1.846
65766W        W37349  24.210  22.227  12.017
65767W        W37350  42.312  10.595   4.845
65768W        W37351  38.894  19.787   3.163
65769W        W37352  44.571  17.276  11.569
65770W        W37353  41.385  21.008   1.845
65771W        W37354  11.680  10.386   3.790
65772W        W37355  23.548  17.910  12.908
65773W        W37356  28.132  19.048   1.325
65774W        W37357  28.314  38.632   2.809
65775W        W37358   1.378  11.303  14.596
65776W        W37359  29.380  34.118   0.321
65777W        W37360  38.370  38.916  11.114
65778W        W37361  42.082  28.729   0.439
65779W        W37362   7.430  24.036   3.851
65780W        W37363  21.586  33.478  11.611
65781W        W37364  34.611  11.926   4.852
65782W        W37365  14.297  16.725   0.742
65783W        W37366  44.149  26.590  10.756
65784W        W37367   0.576   2.975  12.217
65785W        W37368  13.136  20.368  13.900
65786W        W37369  40.767  38.476  14.477
65787W        W37370  24.882  38.248  12.490
65788W        W37371   0.105  22.550  12.392
65789W        W37372  29.414  38.402  13.814
65790W        W37373  29.196  17.754   0.313
65791W        W37374  43.944   8.971  13.765
65792W        W37375  34.571  26.295   4.096
65793W        W37376  15.329  25.659  12.835
65794W        W37377  26.250  22.611  13.771
65795W        W37378   5.755  44.819   2.608
65796W        W37379  10.202  34.558  13.049
65797W        W37380   0.119  44.273  14.338
65798W        W37381   1.818  44.724  12.462
65799W        W37382  37.410   8.539   5.163
65800W        W37383  42.943   7.418   3.743
65801W        W37384  35.668  32.448   1.380
65802W        W37385  38.010   2.347   2.878
65803W        W37386  17.133  22.007   4.188
65804W        W37387   6.859   5.190   2.207
65805W        W37388  13.760   5.162  14.451
65806W        W37389  22.114  26.155  14.794
65807W        W37390   2.798  25.686  10.872
65808W        W37391  31.793  12.832   0.077
65809W        W37392  18.319   8.928  11.165
65810W        W37393  13.536  26.400  11.524
65811W        W37394  21.208  19.644  13.513
65812W        W37395  19.644  39.112   2.783
65813W        W37396   0.821  12.537   1.640
65814W        W37397  26.546   9.892  11.383
65815W        W37398  10.282  31.502   3.717
65816W        W37399   0.294  24.818  10.414
65817W        W37400  28.357   8.924  12.988
65818W        W37401   8.212  11.663  10.814
65819W        W37402   1.764  42.797   4.623
65820W        W37403  44.471  17.176   0.702
65821W        W37404  32.030   3.353  10.609
65822W        W37405  15.311  40.360  11.098
65823W        W37406   3.486  16.472  14.871
65824W        W37407  37.464  12.263   2.040
65825W        W37408  16.239   6.777  11.533
65826W        W37409  27.504   3.354  12.036
65827W        W37410   2.701  17.297  12.220
65828W        W37411  15.614  10.936   0.691
65829W        W37412  36.902  16.609  11.205
65830W        W37413  14.094  11.672   0.419
65831W        W37414   2.894   6.173   3.801
65832W        W37415  26.479  17.168   1.047
65833W        W37416   5.639  40.645   3.654
65834W        W37417  30.129  29.584   1.214
65835W        W37418  13.545   9.894  14.948
65836W        W37419  42.719  36.547   4.131
65837W        W37420  38.025   2.807  12.824
65838W        W37421  21.455  23.594   3.533
65839W        W37422  15.703  25.706  13.372
65840W        W37423   3.309  23.500  14.446
65841W        W37424  31.188  42.413   1.656
65842W        W37425  17.176   4.690   3.414
65843W        W37426  23.298   4.020   0.852
65844W        W37427  15.792  17.519   2.690
65845W        W37428  22.552  18.676   3.757
65846W        W37429  14.047   3.691  11.403
65847W        W37430  13.036   7.407   0.654
65848W        W37431  25.791  11.812  10.326
65849W        W37432  36.052  34.014   0.498
65850W        W37433  20.595  40.258   0.392
65851W        W37434   2.942  21.304   3.075
65852W        W37435  44.625  30.223   3.338
65853W        W37436   9.425  38.388  14.122
65854W        W37437  18.778  10.926  12.620
65855W        W37438  24.179  10.986   4.836
65856W        W37439   9.955  26.821  11.645
65857W        W37440  17.252  18.757   3.037
65858W        W37441  31.530  37.073   1.456
65859W        W37442   1.190  23.077   4.587
65860W        W37443   5.285  24.726   3.838
65861W        W37444  38.996  11.154  11.115
65862W        W37445   9.118   4.558  14.864
65863W        W37446  32.957  40.861  14.258
65864W        W37447  19.221  23.263  13.508
65865W        W37448   2.023  42.811   3.320
65866W        W37449  24.296  13.621   4.967
65867W        W37450  30.883  23.914  11.971
65868W        W37451  29.847  38.504   2.774
65869W        W37452  39.060  19.073   2.396
65870W        W37453  37.668  14.423  14.450
65871W        W37454  25.654  25.109  14.597
65872W        W37455  39.518  16.219   0.349
65873W        W37456  21.610  42.075  12.658
65874W        W37457  22.481  26.817   5.206
65875W        W37458  12.646  41.805  10.955
65876W        W37459  25.572  29.180   4.324
65877W        W37460  26.704  21.791   2.734
65878W        W37461  43.606   4.737   0.816
65879W        W37462  15.780  26.143   3.169
65880W        W37463  23.617   7.362  11.511
65881W        W37464  43.312   4.291  13.482
65882W        W37465  11.043  27.959   4.068
65883W        W37466  21.488  34.717  12.798
65884W        W37467  38.072  12.094  14.498
65885W        W37468  19.139  11.748  14.743
65886W        W37469   8.113  43.782  12.393
65887W        W37470  43.870  27.207   1.302
65888W        W37471  27.100  38.805   2.443
65889W        W37472   6.193   7.199   3.919
65890W        W37473   0.414  36.664   3.235
65891W        W37474  33.052  32.469   0.185
65892W        W37475  43.441  32.902   2.773
65893W        W37476   8.877  22.639   0.547
65894W        W37477   4.077   1.727   4.110
65895W        W37478  18.581  10.818   0.895
65896W        W37479  30.719  43.484  12.757
65897W        W37480  33.961  28.150  10.688
65898W        W37481   2.067   2.314   1.790
65899W        W37482  24.043   8.482   2.017
65900W        W37483  39.793   5.385   1.849
65901W        W37484  42.768  25.964   0.406
65902W        W37485   6.759   6.666   0.094
65903W        W37486  17.078   8.120  13.391
65904W        W37487  33.871   3.155  10.591
65905W        W37488  23.460  30.427   3.649
65906W        W37489   5.975   5.876   4.153
65907W        W37490  34.072  39.976   1.289
65908W        W37491  27.497  32.220   2.792
65909W        W37492  37.419  29.733  11.640
65910W        W37493  25.111  27.634   0.205
65911W        W37494  14.468  12.275  12.629
65912W        W37495  19.618  16.950  10.284
65913W        W37496  37.890   5.900   1.484
65914W        W37497  16.786  41.323   3.671
65915W        W37498   8.823  22.460   2.873
65916W        W37499  13.862   0.707   1.920
65917W        W37500  18.873  25.504  14.966
65918W        W37501  26.313   6.118  12.877
65919W        W37502  39.998  34.474  13.799
65920W        W37503  15.139   4.343  10.885
65921W        W37504  24.132  35.007  14.366
65922W        W37505   1.112   3.981   3.741
65923W        W37506  15.733   6.744  13.508
65924W        W37507  28.113   0.307   2.279
65925W        W37508  29.030  10.938  13.936
65926W        W37509   5.468   8.378  11.101
65927W        W37510  26.521  37.245   0.387
65928W        W37511  21.508  34.904   1.702
65929W        W37512   1.453  10.809   0.262
65930W        W37513   8.685  40.657   2.264
65931W        W37514  27.326  40.807  14.068
65932W        W37515  16.102  21.119  11.792
65933W        W37516  35.069  37.701  11.467
65934W        W37517   5.784  20.282  12.438
65935W        W37518  15.222  37.599   4.488
65936W        W37519  31.965  32.812   3.405
65937W        W37520  22.601  38.302   4.790
65938W        W37521  33.514  40.523  13.661
65939W        W37522  39.238  24.648  14.884
65940W        W37523  10.284  29.166   1.939
65941W        W37524   7.703   3.162  14.819
65942W        W37525  36.696   1.081  11.060
65943W        W37526  36.491  38.064  11.109
65944W        W37527  24.735  32.456   4.877
65945W        W37528  12.816  22.830   1.880
65946W        W37529  30.051  21.139  11.108
65947W        W37530   1.797  31.538  14.060
65948W        W37531  30.538  11.308   2.738
65949W        W37532  13.979  37.011   1.765
65950W        W37533  27.042  30.180   4.181
65951W        W37534  37.026  10.384   1.528
65952W        W37535  32.525  20.307   3.716
65953W        W37536  27.924   4.179  13.819
65954W        W37537   3.730  22.968  11.970
65955W        W37538  40.971  33.505   2.825
65956W        W37539  21.231  38.245  11.495
65957W        W37540  26.652  26.753   1.938
65958W        W37541  29.693  18.413  11.204
65959W        W37542  26.070  12.559  10.086
65960W        W37543  42.827  15.161   2.605
65961W        W37544  19.601  36.617   3.848
65962W        W37545   8.072  25.004   4.319
65963W        W37546  26.353  24.526   4.639
65964W        W37547  10.256  30.993   3.638
65965W        W37548  44.801   3.524  11.832
65966W        W37549  40.030  27.861   3.353
65967W        W37550  24.286  11.677   2.821
65968W        W37551  19.739  26.260  10.409
65969W        W37552  12.136  19.378   1.837
65970W        W37553   3.818   3.914  13.978
65971W        W37554  41.692  22.740  11.067
65972W        W37555   9.258  27.935   3.978
65973W        W37556   3.973  33.830  11.471
65974W        W37557  36.011   7.973  11.945
65975W        W37558   4.948  38.818   2.893
65976W        W37559  22.778  29.124   5.018
65977W        W37560   2.448  21.512   0.847
65978W        W37561  36.101  27.862  11.060
65979W        W37562  38.865  38.073  12.962
65980W        W37563  35.894  24.491  11.908
65981W        W37564  33.556  13.278  13.281
65982W        W37565  14.875   4.898   4.522
65983W        W37566   1.276  34.972  14.886
65984W        W37567  15.237  39.244  12.885
65985W        W37568  13.753  17.899  12.242
65986W        W37569   2.389  25.012   0.422
65987W        W37570  17.994   7.879   0.433
65988W        W37571  34.565  32.403   4.498
65989W        W37572   3.524  31.259   3.653
65990W        W37573   4.405  11.601  13.927
65991W        W37574  15.558  44.663  12.981
65992W        W37575  31.542  19.973   2.891
65993W        W37576   0.485  35.510  12.321
65994W        W37577  13.608  37.808  12.898
65995W        W37578  12.573  33.648  11.030
65996W        W37579  43.499   2.303  12.080
65997W        W37580  42.380  25.666   2.394
65998W        W37581  44.356   2.233  11.988
65999W        W37582  44.434  16.220   1.489
66000W        W37583  39.031  37.424   0.711
66001W        W37584  22.229  41.326   1.368
66002W        W37585  44.008  12.324  11.786
66003W        W37586  10.199  10.368   4.684
66004W        W37587  39.506  44.386  10.688
66005W        W37588  34.166  14.866  13.294
66006W        W37589  27.371  11.379   3.632
66007W        W37590  36.913  25.989  10.411
66008W        W37591  27.427   5.612   2.769
66009W        W37592  37.603  17.965  12.932
66010W        W37593  38.054  44.447  12.531
66011W        W37594   1.362  44.756   3.309
66012W        W37595  43.710  44.640  11.688
66013W        W37596   8.552   2.558  10.531
66014W        W37597  22.467  12.760  13.325
66015W        W37598  17.778  39.043   1.888
66016W        W37599  25.046  43.935   0.844
66017W        W37600  41.105  28.528   1.628
66018W        W37601  22.319  20.008   4.079
66019W        W37602   0.981  41.812  14.344
66020W        W37603  27.132  35.811   4.717
66021W        W37604  25.765  17.722   2.919
66022W        W37605  15.094  16.114   3.380
66023W        W37606  11.879  10.063  11.442
66024W        W37607  33.306  29.964   1.199
66025W        W37608   9.754  13.940   1.832
66026W        W37609  20.611   8.778  14.940
66027W        W37610  21.236  40.549  11.172
66028W        W37611   0.410  19.153  10.747
66029W        W37612  28.093  40.932  13.441
66030W        W37613   3.438   8.240  13.041
66031W        W37614   9.076  39.013  12.714
66032W        W37615  34.489  10.170  13.020
66033W        W37616   8.540  24.387   0.314
66034W        W37617  20.729  31.105  10.148
66035W        W37618  33.253  35.611   3.821
66036W        W37619  42.418  29.483  11.387
66037W        W37620  43.017   5.462  14.495
66038W        W37621  28.105  44.867  13.079
66039W        W37622   9.133  39.449  11.616
66040W        W37623  38.801  28.485   3.201
66041W        W37624  29.398  39.404   2.405
66042W        W37625  32.578  33.980  13.771
66043W        W37626  23.565  31.686   4.785
66044W        W37627  26.944  13.643   3.510
66045W        W37628  27.422  11.090  11.525
66046W        W37629  43.755  30.624  11.051
66047W        W37630  23.539   8.239  14.778
66048W        W37631  19.016  41.352   2.256
66049W        W37632  28.525  31.311  10.318
66050W        W37633  44.523  22.006  12.928
66051W        W37634  37.228  27.469   4.835
66052W        W37635  16.294  18.823   0.536
66053W        W37636   8.155  16.747  11.603
66054W        W37637  12.361  28.458  12.135
66055W        W37638  25.718  27.457  13.545
66056W        W37639  12.701  20.715   3.263
66057W        W37640   9.623  15.083  14.572
66058W        W37641  25.030  33.540  11.520
66059W        W37642   3.275   0.401  14.557
66060W        W37643  18.136   9.355  11.419
66061W        W37644   5.887  38.601  11.985
66062W        W37645  43.123  13.429   3.742
66063W        W37646  40.519  13.399  12.041
66064W        W37647  30.866  17.096  13.822
66065W        W37648   4.935  22.566  10.714
66066W        W37649  27.891  24.990   4.061
66067W        W37650  18.245  13.268  12.814
66068W        W37651   9.729  34.571  11.125
66069W        W37652  43.579  37.992   1.255
66070W        W37653  42.579   8.463  14.954
66071W        W37654  43.969  19.654   3.298
66072W        W37655  42.512   0.763   1.355
66073W        W37656  42.795  31.624   1.796
66074W        W37657  13.311  26.780   0.838
66075W        W37658  25.412  13.034   1.534
66076W        W37659  19.099   2.087   0.350
66077W        W37660  23.022   4.579  12.915
66078W        W37661  11.110  11.212   1.470
66079W        W37662   4.899  20.921   4.279
66080W        W37663  22.008  33.666   4.886
66081W        W37664  27.780  41.088  10.695
66082W        W37665  23.271  24.425   0.358
66083W        W37666  13.376  17.297   1.643
66084W        W37667  41.497  20.476   0.072
66085W        W37668  37.596  14.082   4.952
66086W        W37669  14.708   2.186  11.386
66087W        W37670  14.669   6.786   0.672
66088W        W37671  44.219  28.906   2.652
66089W        W37672  33.121   0.517   2.700
66090W        W37673   9.680   3.991  12.481
66091W        W37674  41.840  34.405  13.829
66092W        W37675  32.025  39.452  12.831
66093W        W37676  28.609  28.655   1.231
66094W        W37677  37.615   6.985  13.512
66095W        W37678  16.111  16.755   4.499
66096W        W37679  40.261   5.773   5.089
66097W        W37680  30.587  37.884  12.627
66098W        W37681  42.667  14.301   1.824
66099W        W37682  11.649  32.999   1.133
66100W        W37683  33.985  31.918  12.402
66101W        W37684  17.307  24.979  11.075
66102W        W37685  39.771   8.642   0.783
66103W        W37686  16.125   6.229  10.682
66104W        W37687  21.572   8.284  11.694
66105W        W37688  28.772  33.280   5.018
66106W        W37689   5.720   8.775  12.761
66107W        W37690  25.287  11.632  12.141
66108W        W37691  39.144  28.355   3.625
66109W        W37692   4.518   3.638  14.284
66110W        W37693  29.594   1.875  14.804
66111W        W37694   7.312   0.295   0.019
66112W        W37695  41.426   0.386   4.779
66113W        W37696  27.976  22.642  11.810
66114W        W37697   2.819   9.185   1.462
66115W        W37698  15.432  28.431   1.834
66116W        W37699  26.718  40.427   1.007
66117W        W37700  31.180   7.717   2.281
66118W        W37701  22.175  29.479   3.707
66119W        W37702  17.598  18.308   0.898
66120W        W37703  32.821  16.648  14.462
66121W        W37704   2.655  43.351   2.263
66122W        W37705  20.232  32.124   1.840
66123W        W37706  39.566  27.660   1.805
66124W        W37707   9.989  32.341   4.902
66125W        W37708  25.492  17.190   2.115
66126W        W37709   5.721  21.040  11.368
66127W        W37710  36.592  22.215   3.304
66128W        W37711  17.651   1.473   4.582
66129W        W37712   7.622  43.775  14.082
66130W        W37713  42.371   1.081  10.452
66131W        W37714  34.992  34.118  13.130
66132W        W37715  25.774  43.310  13.574
66133W        W37716   2.018  43.583  10.965
66134W        W37717  23.511  10.918   1.416
66135W        W37718   8.312  40.430  12.339
66136W        W37719  37.288  36.406   2.059
66137W        W37720  23.517  30.055   0.384
66138W        W37721  39.728  41.844   1.470
66139W        W37722  27.750  20.854   3.503
66140W        W37723  22.271   9.098   3.381
66141W        W37724  32.455  19.483  13.486
66142W        W37725  40.837  43.887  14.780
66143W        W37726  11.560  43.783  13.844
66144W        W37727  31.161  43.248  12.836
66145W        W37728   6.177  29.900  12.446
66146W        W37729  17.092  22.872   1.908
66147W        W37730  11.798  10.710  12.548
66148W        W37731  30.672   9.925  13.359
66149W        W37732   3.265  34.193   3.370
66150W        W37733   5.923   4.784  10.695
66151W        W37734  27.114  29.061  10.705
66152W        W37735  27.546  21.730  11.055
66153W        W37736   6.452  30.549   3.054
66154W        W37737  22.951  36.429   0.901
66155W        W37738  20.804  43.047   1.890
66156W        W37739  22.625  14.409  10.099
66157W        W37740  17.782  37.591   5.025
66158W        W37741  38.970   5.456  12.916
66159W        W37742   7.242  32.818   3.177
66160W        W37743  20.671   1.694  14.404
66161W        W37744  27.179  33.459   3.376
66162W        W37745  20.256  20.486  12.462
66163W        W37746  16.591  21.496  14.965
66164W        W37747  29.972  25.736  13.527
66165W        W37748   6.875   1.274   3.771
66166W        W37749   9.586  37.470   1.817
66167W        W37750  29.336  17.280   3.144
66168W        W37751  16.116  35.279   0.569
66169W        W37752  38.899  19.792   4.169
66170W        W37753   7.902  22.991  13.345
66171W        W37754  29.917  11.848  13.601
66172W        W37755  44.837   4.676   2.734
66173W        W37756   1.985  30.538   3.096
66174W        W37757   1.768   5.785  12.485
66175W        W37758  15.119  11.657  12.971
66176W        W37759   3.926  36.025  13.085
66177W        W37760  30.946  42.674   4.213
66178W        W37761   0.374   0.960   1.179
66179W        W37762  22.115  21.258   0.669
66180W        W37763  26.519  40.900  12.492
66181W        W37764   8.110  15.210  14.360
66182W        W37765  32.573   5.160   2.258
66183W        W37766  31.912  29.824   4.968
66184W        W37767   4.405   9.148   3.256
66185W        W37768  36.714  37.627  12.804
66186W        W37769   1.382  11.258  14.101
66187W        W37770   4.896  19.096   4.545
66188W        W37771  17.323   9.991  14.285
66189W        W37772   1.962  32.169  11.496
66190W        W37773  19.640  14.092   1.003
66191W        W37774   5.932  34.962   0.177
66192W        W37775  40.405  34.643   0.259
66193W        W37776   2.985  18.270  14.311
66194W        W37777  26.486  35.245  11.722
66195W        W37778  27.624  14.338  12.317
66196W        W37779  39.838  28.191  13.054
66197W        W37780  33.455  42.584   2.995
66198W        W37781  19.207  26.330   2.779
66199W        W37782  44.891  29.483  12.340
66200W        W37783  11.433  21.336  14.310
66201W        W37784   3.427  31.979  13.177
66202W        W37785  20.979  30.094  14.984
66203W        W37786  20.648  12.935   2.265
66204W        W37787   0.697   8.723  10.775
66205W        W37788  42.827  30.511   1.316
66206W        W37789  44.362  37.486  12.051
66207W        W37790  35.434   3.696  14.874
66208W        W37791   7.981  31.937  10.725
66209W        W37792  14.984  34.460  14.541
66210W        W37793  11.763  27.035   1.048
66211W        W37794  31.443  17.590   4.367
66212W        W37795   3.508  24.141   3.863
66213W        W37796   3.697  29.677  12.087
66214W        W37797  39.791   1.945  12.385
66215W        W37798  16.188  12.271  13.790
66216W        W37799  20.662  31.046   1.195
66217W        W37800  19.810   7.128  14.069
66218W        W37801  20.088   4.739  11.607
66219W        W37802  40.844  23.163   4.640
66220W        W37803  32.378  27.670   4.446
66221W        W37804  22.835  32.725   0.459
66222W        W37805   5.726   5.893   1.610
66223W        W37806  27.197   8.946   4.074
66224W        W37807   6.234  37.674   4.178
66225W        W37808  42.131  25.605   3.810
66226W        W37809  24.136  33.393  13.474
66227W        W37810  42.747   0.951   2.669
66228W        W37811  14.269  26.431   1.836
66229W        W37812  39.080  28.577  13.811
66230W        W37813  16.497  26.033  14.766
66231W        W37814  37.655  18.194   3.282
66232W        W37815  15.566  37.387   0.852
66233W        W37816  42.811  27.505  13.514
66234W        W37817  33.129  14.201   4.497
66235W        W37818  18.308  23.667  13.793
66236W        W37819  43.540  23.960  11.082
66237W        W37820  15.866  38.312  12.906
66238W        W37821   6.729  10.114   0.291
66239W        W37822  31.136   4.774   0.479
66240W        W37823  12.640  30.110  14.799
66241W        W37824  27.253  11.391   2.496
66242W        W37825  41.354  28.710   3.191
66243W        W37826  40.031  31.394   3.087
66244W        W37827  29.355  17.236   9.790
66245W        W37828  28.097   3.482  11.616
66246W        W37829  44.991   1.943  13.053
66247W        W37830  18.721  30.470   1.373
66248W        W37831  36.817   3.691   1.335
66249W        W37832  43.948  34.837   3.615
66250W        W37833  25.195  38.776   0.451
66251W        W37834  41.896  11.395  13.023
66252W        W37835   9.332  36.459   2.132
66253W        W37836  34.436   8.903   1.368
66254W        W37837  22.511  29.446   4.145
66255W        W37838  42.351  10.654  11.831
66256W        W37839  14.279   4.524  11.540
66257W        W37840   0.897  19.022   4.455
66258W        W37841  21.143  30.231  12.974
66259W        W37842  12.883  29.097   0.727
66260W        W37843   5.254  16.969   4.684
66261W        W37844  18.488   7.684   0.475
66262W        W37845  41.074  18.830   4.710
66263W        W37846  27.418  39.890   1.818
66264W        W37847  10.096  32.580  13.154
66265W        W37848  43.387  20.821   3.569
66266W        W37849  23.790  17.803   0.891
66267W        W37850  23.411  23.213  11.806
66268W        W37851  21.270  23.968   4.564
66269W        W37852   0.281  22.147   1.722
66270W        W37853  21.853   9.577  10.414
66271W        W37854  40.858  42.294  12.517
66272W        W37855   7.747   8.086  11.108
66273W        W37856  11.268  38.595   1.244
66274W        W37857  44.498  42.995  14.246
66275W        W37858  14.080   0.704   5.000
66276W        W37859  16.304  13.624  10.644
66277W        W37860  43.187  25.255   1.817
66278W        W37861   5.599   0.490   4.302
66279W        W37862   9.219  25.043  10.624
66280W        W37863  33.531  41.465  11.199
66281W        W37864  16.272   3.386   4.533
66282W        W37865  25.088  41.885   1.513
66283W        W37866  44.059  12.252  11.291
66284W        W37867  17.284   3.203  13.374
66285W        W37868  27.691  30.389  11.949
66286W        W37869  14.258  15.214  13.410
66287W        W37870  42.095  10.280   0.232
66288W        W37871  38.058  41.718  14.753
66289W        W37872  42.036  22.480   4.965
66290W        W37873  35.286  37.053   1.840
66291W        W37874  37.992  14.148   4.604
66292W        W37875  10.404  38.109   0.324
66293W        W37876  13.701  41.445   3.639
66294W        W37877  43.550  37.125   1.286
66295W        W37878  15.092  11.326  10.941
66296W        W37879   5.968  27.716   3.604
66297W        W37880  18.128  20.172   0.527
66298W        W37881   2.286  11.806   4.204
66299W        W37882  28.063  18.243   0.198
66300W        W37883  33.977  18.133   3.862
66301W        W37884  17.821   3.060  11.194
66302W        W37885   0.304  21.232   1.697
66303W        W37886  24.992  33.388   3.230
66304W        W37887  10.015  41.518   0.303
66305W        W37888   7.718  40.555   4.576
66306W        W37889  41.435  20.996   0.794
66307W        W37890   3.884  10.223  12.078
66308W        W37891  36.796   6.340   4.209
66309W        W37892  34.652   0.792  14.747
66310W        W37893   7.866  42.197  14.110
66311W        W37894  29.858  21.721   2.655
66312W        W37895  33.600  41.827  10.558
66313W        W37896  32.448  38.787   2.319
66314W        W37897  33.362  31.626   2.825
66315W        W37898  16.888  38.724  12.573
66316W        W37899  37.931  43.302   2.605
66317W        W37900  18.335  37.105   1.634
66318W        W37901  19.536   6.074   1.449
66319W        W37902  24.018  28.426  14.969
66320W        W37903  37.592  28.563  13.919
66321W        W37904   7.719  21.478  12.527
66322W        W37905  40.878   1.841  12.794
66323W        W37906  44.013  41.881  14.362
66324W        W37907  14.835   6.044   0.906
66325W        W37908  20.701   2.067  12.603
66326W        W37909   8.085  34.518   0.285
66327W        W37910   5.823   4.883   1.635
66328W        W37911  25.526  23.928  10.924
66329W        W37912  23.563  16.766  14.987
66330W        W37913  32.501  14.984  12.856
66331W        W37914  23.909   0.049   0.273
66332W        W37915  19.895  12.185   3.223
66333W        W37916  38.576  39.608  10.666
66334W        W37917  24.684  20.522  12.131
66335W        W37918  27.044  13.113   0.377
66336W        W37919  17.217  26.102   0.380
66337W        W37920  23.504  29.966   3.393
66338W        W37921  42.074  33.598  14.610
66339W        W37922  42.325   6.114  14.481
66340W        W37923  37.223  38.827   3.717
66341W        W37924  39.538  37.303  12.039
66342W        W37925  18.661  16.493   3.189
66343W        W37926   7.328  19.771   2.732
66344W        W37927  24.877  10.243   5.112
66345W        W37928  23.469  17.540   0.520
66346W        W37929  22.217  36.971  11.816
66347W        W37930  42.338  32.924  11.532
66348W        W37931  22.125  11.285  12.791
66349W        W37932  17.556  25.015   2.238
66350W        W37933  40.266  10.298  11.480
66351W        W37934   6.760  14.222   4.543
66352W        W37935  26.430  32.060   4.534
66353W        W37936  15.324   6.229   1.302
66354W        W37937  29.651   5.004  13.847
66355W        W37938  31.677  35.199  12.593
66356W        W37939   2.716  44.405   0.286
66357W        W37940  14.936  16.172  12.466
66358W        W37941  35.097   7.455  12.767
66359W        W37942  10.146   2.036  12.514
66360W        W37943  33.914  38.363   1.197
66361W        W37944  13.366  25.146   0.684
66362W        W37945  13.173  19.739  11.610
66363W        W37946  24.314   8.699   2.875
66364W        W37947  29.902   1.781  12.441
66365W        W37948  43.513   4.166  12.440
66366W        W37949  30.961  21.559  11.049
66367W        W37950  21.705  37.456  10.029
66368W        W37951  16.469  39.390  12.237
66369W        W37952  34.496   0.348   3.958
66370W        W37953  12.115  34.762   1.316
66371W        W37954  22.128  12.048  13.772
66372W        W37955  33.675  31.685   3.783
66373W        W37956   7.213  29.074   3.726
66374W        W37957  10.654  26.982  10.568
66375W        W37958  23.261  31.094   0.271
66376W        W37959  17.357  22.203   5.034
66377W        W37960  17.981   8.672  13.514
66378W        W37961  21.955  14.703   1.159
66379W        W37962  41.557   3.993   3.718
66380W        W37963   7.489  27.441   3.139
66381W        W37964   3.936  34.016   0.398
66382W        W37965  38.826  13.057  12.516
66383W        W37966  34.274  19.594  12.690
66384W        W37967  22.128   8.418   0.815
66385W        W37968  39.802  33.967   1.553
66386W        W37969  43.233  35.348   0.006
66387W        W37970  43.799  40.956  13.550
66388W        W37971  30.640  10.499   0.163
66389W        W37972  16.830  38.400   3.775
66390W        W37973  16.772  40.077   4.496
66391W        W37974  12.686  16.389   0.887
66392W        W37975   1.490  15.417  11.537
66393W        W37976  37.987   9.688   2.159
66394W        W37977  26.864   1.495   3.194
66395W        W37978  32.905   2.935  13.815
66396W        W37979  10.926   5.538   1.050
66397W        W37980  28.543  28.682  13.785
66398W        W37981   6.947  10.197  13.467
66399W        W37982   0.789  32.443  12.902
66400W        W37983  19.851  33.071   0.474
66401W        W37984  35.017   2.777   3.819
66402W        W37985  29.002   9.047   1.093
66403W        W37986  32.681   5.301   4.622
66404W        W37987  26.594   0.710  10.984
66405W        W37988  32.614  13.281   2.811
66406W        W37989  27.617   0.880  10.903
66407W        W37990  42.803  25.076  12.407
66408W        W37991   3.374  43.964   4.244
66409W        W37992   9.115  33.469   0.938
66410W        W37993  35.214  22.955  11.195
66411W        W37994   9.421  28.979  14.487
66412W        W37995   9.456  34.905  11.440
66413W        W37996  22.953  26.601  14.455
66414W        W37997  41.770  39.324  10.644
66415W        W37998   1.507   3.281   3.258
66416W        W37999  12.421  39.034   2.749
66417W        W38000  23.108  34.956  10.800
66418W        W38001  26.644  25.603  13.866
66419W        W38002  19.398   7.201   5.053
66420W        W38003   5.363  35.445   4.343
66421W        W38004  10.679  41.119  14.731
66422W        W38005  10.576  24.204  14.014
66423W        W38006  41.454  31.917   1.728
66424W        W38007   5.343   8.240   4.299
66425W        W38008  28.163  40.272   3.131
66426W        W38009  24.236  23.696   2.324
66427W        W38010  39.480  35.009   0.076
66428W        W38011  16.971  35.914   5.139
66429W        W38012  24.196   4.741   1.012
66430W        W38013  13.993  29.495   4.939
66431W        W38014   2.324  20.599  13.489
66432W        W38015  37.077   8.287  13.390
66433W        W38016  19.102  10.138  13.427
66434W        W38017  40.555   2.225  10.481
66435W        W38018  38.831  13.547   3.752
66436W        W38019  30.606  27.640   4.491
66437W        W38020   3.861  28.540   4.114
66438W        W38021  29.543  36.831   1.877
66439W        W38022  26.128  35.525  13.812
66440W        W38023  41.811   3.821   0.746
66441W        W38024  10.604  24.094  11.253
66442W        W38025  34.391  33.228   0.926
66443W        W38026  13.341  12.879   1.328
66444W        W38027  30.075  18.792  11.151
66445W        W38028  42.756   2.571   1.808
66446W        W38029  43.054  38.403   3.243
66447W        W38030  40.279  27.136   2.888
66448W        W38031  43.118   4.503  10.407
66449W        W38032  40.767  28.215  13.035
66450W        W38033  38.486   2.957   4.843
66451W        W38034  34.917   2.376   4.559
66452W        W38035  26.029  14.239   1.158
66453W        W38036   8.568  26.015  14.341
66454W        W38037   0.585   9.708  10.898
66455W        W38038   0.265   6.417  10.675
66456W        W38039  20.376  38.873  12.582
66457W        W38040  34.057  31.144  10.603
66458W        W38041  24.435  42.317  12.585
66459W        W38042  24.989   0.443   3.776
66460W        W38043  10.690   0.151  11.686
66461W        W38044  37.872   9.205   0.103
66462W        W38045  39.212  25.187   4.257
66463W        W38046   1.716   7.213   1.067
66464W        W38047   7.837  28.499  12.079
66465W        W38048  23.285   5.541  11.102
66466W        W38049  14.294   8.121   2.654
66467W        W38050  31.115  22.878  11.138
66468W        W38051   5.206  19.550   2.230
66469W        W38052  21.710  25.210   2.390
66470W        W38053  19.059  43.190  13.241
66471W        W38054  33.938   3.342   4.085
66472W        W38055  10.715   5.447   3.164
66473W        W38056  23.661  33.232  11.961
66474W        W38057  43.808   8.670   0.242
66475W        W38058   6.882  15.873   4.297
66476W        W38059  12.973  21.078   2.075
66477W        W38060  24.609  31.930  14.733
66478W        W38061   0.212   1.484  12.517
66479W        W38062  28.185  14.445  14.362
66480W        W38063  18.118   1.216  11.995
66481W        W38064   7.716  12.517   2.318
66482W        W38065  14.752   7.211   4.594
66483W        W38066  30.849  27.159  13.241
66484W        W38067  36.067  28.583  10.580
66485W        W38068  21.809  14.635   3.072
66486W        W38069   2.305  40.958  12.638
66487W        W38070  22.512  19.782  12.970
66488W        W38071  42.801  44.070  14.996
66489W        W38072  23.500  11.836   0.326
66490W        W38073  16.191  14.389   0.788
66491W        W38074   9.041  33.069  11.082
66492W        W38075  29.538  10.068  14.799
66493W        W38076   1.625   0.677   0.476
66494W        W38077  16.517  30.037   4.649
66495W        W38078  10.739  29.677   2.795
66496W        W38079  12.659   4.339   3.786
66497W        W38080   7.411  35.920   2.310
66498W        W38081  31.105  20.147  12.907
66499W        W38082  22.240  22.213   0.464
66500W        W38083   2.461  42.832  10.424
66501W        W38084  31.705  34.067  14.803
66502W        W38085  36.783  28.609   1.707
66503W        W38086  12.565  29.215   3.088
66504W        W38087  32.656  18.715  11.804
66505W        W38088  43.427  38.408   0.986
66506W        W38089  35.565   5.886  10.818
66507W        W38090   9.777  40.278  14.301
66508W        W38091  34.066   7.690  12.981
66509W        W38092   1.950   4.832   3.605
66510W        W38093  14.355  23.195  13.141
66511W        W38094  36.655  26.551  14.870
66512W        W38095   7.451   5.686   1.848
66513W        W38096  23.956  10.401  13.555
66514W        W38097  19.878   9.481   9.666
66515W        W38098  16.036  11.259  14.607
66516W        W38099   1.471  24.487  12.027
66517W        W38100  24.098   1.461   2.787
66518W        W38101   2.037  35.085  14.578
66519W        W38102   7.078   2.944  12.924
66520W        W38103  21.058  21.792  13.852
66521W        W38104  35.872  15.260  14.954
66522W        W38105  19.096  18.276   0.821
66523W        W38106  12.325  26.547   2.092
66524W        W38107   2.043   2.303  11.678
66525W        W38108  25.490  28.057  13.981
66526W        W38109  21.585  11.805   0.500
66527W        W38110   5.100  17.815   4.157
66528W        W38111   7.378  10.813  13.299
66529W        W38112   7.990  20.277  11.120
66530W        W38113  37.024  41.543  13.367
66531W        W38114  35.946   9.988  11.146
66532W        W38115  33.753   5.041   9.888
66533W        W38116  19.842  20.157   3.830
66534W        W38117  15.025  37.775   5.843
66535W        W38118  24.498  35.816   1.593
66536W        W38119  35.129  29.661   1.275
66537W        W38120   3.964  22.833   3.950
66538W        W38121  10.393   3.279   4.363
66539W        W38122   0.719  26.128   1.789
66540W        W38123  36.891  42.929   2.592
66541W        W38124  14.055  10.706   1.714
66542W        W38125  20.725  30.893  11.927
66543W        W38126  25.936  23.962   3.162
66544W        W38127  34.074  21.714   0.417
66545W        W38128  38.960  15.083  13.928
66546W        W38129  30.927  16.870  14.265
66547W        W38130  25.441  34.963   1.848
66548W        W38131  19.809  25.655  12.036
66549W        W38132  24.598  16.156  10.587
66550W        W38133  14.980   6.687  14.526
66551W        W38134  33.182  13.114   3.856
66552W        W38135   9.389  22.217   3.550
66553W        W38136  32.634  25.780   4.082
66554W        W38137  26.786  33.949   0.235
66555W        W38138  11.024  25.456  13.648
66556W        W38139  11.699  35.694   1.756
66557W        W38140  10.088   4.370   1.315
66558W        W38141   0.764  43.848   3.760
66559W        W38142  26.938  13.378  11.932
66560W        W38143   4.981  31.336   0.240
66561W        W38144   1.770  20.167   2.942
66562W        W38145  22.029  34.345  14.423
66563W        W38146  44.755   5.947  14.307
66564W        W38147  21.293  35.565  12.029
66565W        W38148  43.519   3.253  13.935
66566W        W38149   5.880  14.235   1.401
66567W        W38150  26.753  12.887   2.798
66568W        W38151  26.098   3.754   1.746
66569W        W38152  22.880   8.476   1.729
66570W        W38153  34.892   9.644   2.847
66571W        W38154  30.865  38.872  14.957
66572W        W38155   0.814  38.099   3.955
66573W        W38156  10.152   4.383  14.340
66574W        W38157  33.147   5.495  13.364
66575W        W38158  17.756  38.503   1.898
66576W        W38159   2.993  41.493  12.907
66577W        W38160  28.528  33.673   2.296
66578W        W38161  35.392  34.351   2.259
66579W        W38162  43.290  18.279   4.712
66580W        W38163   8.851   5.007   1.486
66581W        W38164   3.191  12.099   3.174
66582W        W38165   9.881   6.354   2.395
66583W        W38166  25.709  25.861   0.397
66584W        W38167  13.209  10.694  10.487
66585W        W38168   5.002  25.079  12.771
66586W        W38169   0.306  18.570  11.485
66587W        W38170  37.718  23.772   3.466
66588W        W38171  35.600  23.173   3.116
66589W        W38172  20.723  17.792   1.387
66590W        W38173  17.430  15.241   4.589
66591W        W38174   7.869   9.682  11.791
66592W        W38175  42.022  43.435   4.693
66593W        W38176  17.546  27.306  13.064
66594W        W38177  13.584  15.110   0.806
66595W        W38178  44.275  17.661   0.513
66596W        W38179  20.804  38.440   0.740
66597W        W38180  19.351  31.392   1.153
66598W        W38181  13.995  25.023  12.783
66599W        W38182  12.910  22.962   0.417
66600W        W38183  38.317  10.650   1.325
66601W        W38184   6.725  44.965  14.848
66602W        W38185   4.934  17.363   1.295
66603W        W38186  22.596  34.048  11.111
66604W        W38187  14.098  39.947  14.939
66605W        W38188  18.126  30.967  13.953
66606W        W38189  32.421  39.738   1.114
66607W        W38190  31.396  33.537   4.122
66608W        W38191  39.682  41.027  12.845
66609W        W38192  43.459  31.665  10.733
66610W        W38193  12.970   6.579   2.333
66611W        W38194  35.050  31.694   0.752
66612W        W38195  26.241  10.126  12.584
66613W        W38196  23.791   5.017   0.228
66614W        W38197   9.613  14.416  12.227
66615W        W38198   5.387  25.665   4.256
66616W        W38199  17.255  30.019   2.350
66617W        W38200  42.258  28.124  13.227
66618W        W38201  24.924   2.168   2.219
66619W        W38202  23.698  28.028   1.766
66620W        W38203  12.587  35.957   2.657
66621W        W38204  12.287  44.188   3.640
66622W        W38205  39.792   6.725   2.168
66623W        W38206   1.334  21.710   0.768
66624W        W38207   1.418  19.252   2.778
66625W        W38208   9.311   4.140  10.749
66626W        W38209  13.352  30.081   3.153
66627W        W38210   1.970  42.267   2.759
66628W        W38211  27.343  17.654   1.935
66629W        W38212   6.242  29.183   3.724
66630W        W38213  18.805  11.836   3.731
66631W        W38214   5.894   4.552   4.552
66632W        W38215  22.765  13.161  11.438
66633W        W38216   8.615   6.723   0.984
66634W        W38217   4.422  18.139  13.818
66635W        W38218  32.223  12.582   3.386
66636W        W38219  27.489  31.625  13.369
66637W        W38220  23.809  42.351  12.022
66638W        W38221  25.163   1.754  12.516
66639W        W38222  20.026  41.421   2.195
66640W        W38223  14.531  17.469  10.732
66641W        W38224  20.675  17.286   1.298
66642W        W38225  18.702   3.855   2.642
66643W        W38226  28.200  30.424  12.050
66644W        W38227  10.250  30.602   4.574
66645W        W38228  16.639  36.810   4.150
66646W        W38229   6.402  16.991   1.474
66647W        W38230   7.334  12.140   4.688
66648W        W38231  23.570  21.058   0.430
66649W        W38232  40.511  36.996   2.300
66650W        W38233  42.370   3.955  10.717
66651W        W38234  13.410   3.234   2.230
66652W        W38235   0.152  12.960  11.692
66653W        W38236  21.817  10.177   3.899
66654W        W38237  22.033  44.841  12.012
66655W        W38238   5.914   2.799  13.911
66656W        W38239   8.720  40.163   2.131
66657W        W38240  25.969   3.687  14.811
66658W        W38241   1.683  43.886   1.937
66659W        W38242  43.065  36.071  11.503
66660W        W38243  15.577   5.661   3.820
66661W        W38244  44.752   2.958  13.217
66662W        W38245  18.022  29.363   0.908
66663W        W38246  22.590  28.984   1.288
66664W        W38247   7.430   3.360  12.326
66665W        W38248   3.203  10.751   4.235
66666W        W38249  10.639  27.561   3.148
66667W        W38250   5.237   7.138  11.556
66668W        W38251   3.758   0.318   3.361
66669W        W38252  32.825  11.962   4.300
66670W        W38253  14.248  19.647  11.281
66671W        W38254   1.318  39.290   2.161
66672W        W38255  43.228  28.773  14.472
66673W        W38256  13.745  29.134  14.331
66674W        W38257  20.142  27.677   2.927
66675W        W38258  12.145  39.084   2.311
66676W        W38259  44.970  40.001  12.157
66677W        W38260  20.988  18.244  10.810
66678W        W38261  19.704  32.031   4.094
66679W        W38262  39.153   0.346  13.990
66680W        W38263  11.648   0.726  10.647
66681W        W38264  28.669  21.301   4.767
66682W        W38265  26.044  40.021   1.731
66683W        W38266  33.814  32.986  14.369
66684W        W38267  37.405  34.942   0.322
66685W        W38268  38.436   9.198   0.898
66686W        W38269  17.439  12.843   4.705
66687W        W38270  22.477   6.258   1.684
66688W        W38271  22.726  24.574  11.431
66689W        W38272   6.756  38.776  12.880
66690W        W38273  17.993   0.037   0.486
66691W        W38274   2.272  33.035   0.494
66692W        W38275  36.957  31.544   3.355
66693W        W38276  25.132  39.558  11.155
66694W        W38277  37.019  27.256   2.823
66695W        W38278  37.140  44.188   1.366
66696W        W38279   3.028  22.724  14.995
66697W        W38280  35.558   0.929   2.139
66698W        W38281  14.133  17.136   3.308
66699W        W38282  14.803  41.018   4.248
66700W        W38283  10.416   1.363   4.162
66701W        W38284  22.359   0.515  12.551
66702W        W38285   5.991  31.970   4.583
66703W        W38286  17.004   8.357  13.867
66704W        W38287  23.960  25.650   4.152
66705W        W38288   9.804  11.863   4.103
66706W        W38289  16.650  11.810   3.577
66707W        W38290  43.790  24.584   4.168
66708W        W38291  24.573  30.426   1.478
66709W        W38292  17.535  11.873   2.911
66710W        W38293  36.487  28.165   1.757
66711W        W38294  31.534  30.039   2.212
66712W        W38295  10.719  43.481   4.652
66713W        W38296  44.268  21.030  13.923
66714W        W38297   2.893   0.298   2.742
66715W        W38298  34.484  38.818  13.013
66716W        W38299   8.125  19.870   1.269
66717W        W38300  29.104  39.226  14.492
66718W        W38301  11.869  23.151   4.489
66719W        W38302  35.911  38.970   1.920
66720W        W38303  42.326   9.821   1.773
66721W        W38304  22.982  29.942  12.980
66722W        W38305  41.262  44.723  12.408
66723W        W38306   3.922  29.669  10.886
66724W        W38307  23.515  30.491   1.724
66725W        W38308  36.323  28.038  14.752
66726W        W38309  36.401   9.650  11.342
66727W        W38310  21.176   2.980  14.468
66728W        W38311   7.258  41.963  13.348
66729W        W38312  24.765  38.983   2.203
66730W        W38313  38.857  23.426  14.354
66731W        W38314  20.737  44.954  14.045
66732W        W38315   6.509  28.656   1.834
66733W        W38316  28.743  35.814   0.351
66734W        W38317   3.547   9.555   3.306
66735W        W38318   4.308  40.008  13.446
66736W        W38319  43.823  30.878   1.259
66737W        W38320   3.193  44.752   1.925
66738W        W38321  26.973   6.880   2.739
66739W        W38322  26.243  29.065  12.407
66740W        W38323  15.268   2.797   3.301
66741W        W38324  39.489   8.397  13.065
66742W        W38325  35.151   6.673  12.605
66743W        W38326  21.964  42.929  10.188
66744W        W38327  16.594  16.481  12.900
66745W        W38328  22.662  27.419   4.079
66746W        W38329  24.648  32.365   1.340
66747W        W38330  18.437   9.659   0.708
66748W        W38331   2.853  37.407  13.244
66749W        W38332  21.471  25.673   5.096
66750W        W38333   1.254  36.905   0.981
66751W        W38334   9.613  27.258  11.646
66752W        W38335  11.804  35.085   4.807
66753W        W38336  22.655  43.575  12.537
66754W        W38337  10.767   4.761   0.362
66755W        W38338   4.687  22.244  14.457
66756W        W38339  24.580  22.079  10.953
66757W        W38340  32.644   2.782  10.758
66758W        W38341  15.640  29.400  11.524
66759W        W38342  15.070  23.448  10.964
66760W        W38343  36.005  33.672  14.838
66761W        W38344  22.389  12.326  11.118
66762W        W38345   6.686   9.070   2.784
66763W        W38346  41.843  26.230  10.719
66764W        W38347  24.962  44.779   2.172
66765W        W38348  38.365   9.428  11.473
66766W        W38349  26.622   2.862   3.264
66767W        W38350   2.527  34.508  12.149
66768W        W38351   3.417   5.359   3.602
66769W        W38352  31.824  34.129  12.049
66770W        W38353  44.798  39.388  11.036
66771W        W38354  27.491  34.045   1.718
66772W        W38355  25.439  22.971   4.138
66773W        W38356  10.083  19.643   1.729
66774W        W38357   4.226   3.771   2.307
66775W        W38358  13.646  40.971  13.785
66776W        W38359  13.142  37.361   4.035
66777W        W38360  17.260  28.153  10.969
66778W        W38361  14.834  22.186   1.013
66779W        W38362  36.385  41.188  14.386
66780W        W38363  37.421  27.962   1.916
66781W        W38364  39.818  23.098  14.392
66782W        W38365  43.957  17.973   2.296
66783W        W38366   0.939   3.694  11.594
66784W        W38367  35.064  33.158   3.529
66785W        W38368  23.759   3.569   2.212
66786W        W38369  43.881  39.321  10.424
66787W        W38370  43.499   9.125   0.248
66788W        W38371  31.429  39.043   3.240
66789W        W38372   0.899  31.622  12.519
66790W        W38373  35.500  37.983  14.296
66791W        W38374  11.786  22.149   0.327
66792W        W38375   0.321  33.825   3.638
66793W        W38376  40.271  39.314   2.869
66794W        W38377   9.565  35.598   0.541
66795W        W38378  33.107  35.317   4.225
66796W        W38379  12.608  39.387   2.401
66797W        W38380  35.806  37.879  10.798
66798W        W38381   3.278  38.562  10.646
66799W        W38382  39.030  44.132  13.510
66800W        W38383   9.357  40.513   4.226
66801W        W38384  27.850  17.717   1.854
66802W        W38385  25.764  21.627   1.364
66803W        W38386  14.060  32.656   0.802
66804W        W38387  19.256  16.401  10.895
66805W        W38388   8.377  17.709   2.178
66806W        W38389   0.781   0.500  12.039
66807W        W38390  33.810   5.255  11.182
66808W        W38391  36.770  33.026   2.272
66809W        W38392  39.404  28.492  11.223
66810W        W38393  27.928  20.025   3.181
66811W        W38394  36.008  17.541   3.764
66812W        W38395  15.396  25.767   5.057
66813W        W38396   1.441  35.050   4.649
66814W        W38397  20.308  12.310   4.726
66815W        W38398  25.116  11.385   4.180
66816W        W38399  32.439   3.615   0.591
66817W        W38400  16.566  13.701   0.888
66818W        W38401   3.345  38.302  12.525
66819W        W38402   0.282  16.659   2.795
66820W        W38403  42.966  37.163  11.448
66821W        W38404  13.316  18.309   2.483
66822W        W38405   4.948   5.277  13.523
66823W        W38406  34.597  41.921   1.189
66824W        W38407  27.183  42.356  10.762
66825W        W38408  15.135   8.053  13.021
66826W        W38409  11.766   3.253   0.882
66827W        W38410  43.585  39.882  11.549
66828W        W38411  24.517  20.295   3.367
66829W        W38412   9.859  25.412  12.262
66830W        W38413   9.116   9.377   1.298
66831W        W38414   6.321  23.580   2.185
66832W        W38415   2.130  28.151  11.570
66833W        W38416  24.754   6.357   2.303
66834W        W38417   5.826  41.805  14.517
66835W        W38418  37.800  37.943  12.051
66836W        W38419   1.887  44.005  11.704
66837W        W38420  41.321  21.505  13.482
66838W        W38421   0.296  23.150   2.296
66839W        W38422  42.478  14.609   0.375
66840W        W38423   6.220  34.305  11.717
66841W        W38424  10.902  31.557   1.471
66842W        W38425   4.505  23.959   3.980
66843W        W38426  24.558  15.008  12.022
66844W        W38427   9.649  32.677   1.318
66845W        W38428  38.618  14.299   5.197
66846W        W38429   9.957  42.487  12.632
66847W        W38430  26.704  24.150   0.790
66848W        W38431  11.925  28.995   0.760
66849W        W38432  35.550  16.951  11.681
66850W        W38433  26.210  13.560  13.402
66851W        W38434   8.868  11.421   4.200
66852W        W38435  37.548  12.062  10.939
66853W        W38436  34.601  24.015   1.294
66854W        W38437  22.266  13.651  11.068
66855W        W38438  43.058  25.264  11.470
66856W        W38439  14.178  21.044   0.565
66857W        W38440  33.863  30.924   0.938
66858W        W38441  16.531  30.654   3.751
66859W        W38442  28.696  17.012   1.431
66860W        W38443  14.290  14.311   2.290
66861W        W38444  18.200  19.432   1.609
66862W        W38445   1.674  38.112  10.328
66863W        W38446   2.206  44.486   1.540
66864W        W38447  12.148  33.792  11.332
66865W        W38448  44.376  44.954   0.396
66866W        W38449  22.274  37.581   1.833
66867W        W38450  23.801  36.556   1.317
66868W        W38451  17.832  25.180   4.071
66869W        W38452  11.614  26.444   3.193
66870W        W38453  29.963  27.112  12.579
66871W        W38454   8.083  33.156  14.490
66872W        W38455  17.140   3.593  11.813
66873W        W38456  42.975  18.343   1.184
66874W        W38457  44.213  33.369   3.088
66875W        W38458  20.100  40.612   2.851
66876W        W38459  14.778  14.167   2.196
66877W        W38460  11.156  14.321   1.314
66878W        W38461   6.672  38.951  10.754
66879W        W38462   6.765  38.486   0.477
66880W        W38463  17.355  16.573   1.050
66881W        W38464  31.856   5.421  11.112
66882W        W38465  14.490   6.785  14.400
66883W        W38466  14.272  24.670   3.352
66884W        W38467  30.106  23.143  10.875
66885W        W38468  23.084   6.856  11.551
66886W        W38469  20.456  10.682  14.398
66887W        W38470   0.316   1.720   3.793
66888W        W38471   6.412  17.070  10.605
66889W        W38472  10.871  35.066   2.904
66890W        W38473  19.627  18.206   1.077
66891W        W38474  13.182   9.283   0.353
66892W        W38475  13.987  35.917   0.966
66893W        W38476   3.748  44.550  11.147
66894W        W38477  27.800  29.709   2.724
66895W        W38478  19.955  34.502  12.545
66896W        W38479   8.002  17.717  14.281
66897W        W38480   2.192  26.273   0.936
66898W        W38481  33.791  39.420   2.474
66899W        W38482  10.648  29.594  12.573
66900W        W38483  40.857  20.748  12.780
66901W        W38484  36.393  20.810   3.488
66902W        W38485  31.235  32.809  14.938
66903W        W38486   5.392   3.819   4.578
66904W        W38487   1.864   7.660  11.177
66905W        W38488  22.904  19.218  11.170
66906W        W38489  20.552   0.364  13.710
66907W        W38490  18.743   7.276   4.436
66908W        W38491  43.077  28.376   2.312
66909W        W38492  36.441   6.688   3.749
66910W        W38493  23.653   9.607   0.073
66911W        W38494  44.023  42.808   4.145
66912W        W38495  39.530   1.828  11.567
66913W        W38496  33.710  23.578   3.811
66914W        W38497  34.484  19.122  10.661
66915W        W38498   3.246  15.968  13.594
66916W        W38499   1.487   3.013   3.712
66917W        W38500  34.875  27.471   0.450
66918W        W38501   8.756  37.683   2.710
66919W        W38502  13.762   8.217  12.701
66920W        W38503  15.367  19.784   2.205
66921W        W38504  37.906  42.426  10.795
66922W        W38505   3.597  13.649   3.710
66923W        W38506  15.230  21.515  14.563
66924W        W38507  12.850   6.487  13.871
66925W        W38508  39.047  36.494   0.397
66926W        W38509  44.840  14.226  10.690
66927W        W38510  25.687  24.828  14.163
66928W        W38511   2.661  25.608   0.953
66929W        W38512  39.025  18.502   3.781
66930W        W38513  38.003  28.615   1.743
66931W        W38514  13.596  39.616  14.385
66932W        W38515  29.677  16.663  12.584
66933W        W38516  25.427   9.042   0.849
66934W        W38517  25.573  19.564  14.873
66935W        W38518  18.146   4.794   0.750
66936W        W38519  13.934  27.593   2.792
66937W        W38520  11.598  39.393  13.017
66938W        W38521   9.454  20.570   1.930
66939W        W38522  20.233  25.086   5.035
66940W        W38523  39.926  37.327   0.853
66941W        W38524  13.895  16.946   3.746
66942W        W38525   1.164   5.201  13.185
66943W        W38526  19.876  20.656  12.953
66944W        W38527  14.902  28.813  10.632
66945W        W38528   3.466  16.698  11.437
66946W        W38529  38.423  24.914  13.432
66947W        W38530  25.823   7.534  14.920
66948W        W38531  25.567  30.217  12.121
66949W        W38532   3.793  38.899   3.073
66950W        W38533   1.191   7.609   0.520
66951W        W38534  16.026  32.041  13.002
66952W        W38535  18.550  12.221  10.528
66953W        W38536  25.697  44.732  10.704
66954W        W38537   2.222  15.244   0.395
66955W        W38538   4.712  24.226   0.330
66956W        W38539   5.234  34.476  11.599
66957W        W38540  14.516   5.350  11.104
66958W        W38541  27.036  33.956   5.490
66959W        W38542  33.577   8.324  11.148
66960W        W38543  16.511   5.941   0.439
66961W        W38544  31.150   6.349   1.856
66962W        W38545  18.796  26.154  11.666
66963W        W38546   6.324  39.096  12.588
66964W        W38547  15.179  11.802  12.453
66965W        W38548  10.272  37.891  12.427
66966W        W38549  18.651   3.440  14.013
66967W        W38550  42.504  36.607   2.652
66968W        W38551  44.559   1.803   1.340
66969W        W38552   2.097  25.672   1.616
66970W        W38553   8.578  31.260  10.708
66971W        W38554  31.499  12.541  12.131
66972W        W38555   2.786  30.821  13.082
66973W        W38556  36.791   9.845   4.624
66974W        W38557  24.026   5.734   4.078
66975W        W38558  38.063   8.941   2.856
66976W        W38559  40.284  22.346   4.401
66977W        W38560  44.813  10.771  10.857
66978W        W38561  21.973  40.321   3.186
66979W        W38562  26.077   6.406  11.607
66980W        W38563  14.631  35.304   9.820
66981W        W38564  41.445  27.660   2.508
66982W        W38565  10.040   7.351  12.400
66983W        W38566  11.703   7.251  13.159
66984W        W38567  30.742   3.345  14.928
66985W        W38568   1.496   2.372   3.190
66986W        W38569  15.229  25.537   3.411
66987W        W38570  44.878  15.853  14.815
66988W        W38571  35.987  30.580   2.773
66989W        W38572  12.176  37.034  13.906
66990W        W38573  27.994   3.640  13.879
66991W        W38574  33.564  13.892  14.818
66992W        W38575  10.172  22.162  14.931
66993W        W38576  13.831  38.093   4.913
66994W        W38577   5.465  10.622   2.832
66995W        W38578  17.233  43.341  10.692
66996W        W38579  37.955  25.452   2.612
66997W        W38580  11.062  42.390   3.890
66998W        W38581  43.090  35.921  14.083
66999W        W38582  37.294  33.673   1.490
67000W        W38583  38.318  42.953   3.269
67001W        W38584   8.486  15.573  13.114
67002W        W38585  37.846  27.868  13.049
67003W        W38586  12.001  22.072   4.662
67004W        W38587  40.591   7.629  14.770
67005W        W38588   9.851  32.287  12.822
67006W        W38589  12.261   0.389   0.237
67007W        W38590  10.208  12.243   3.781
67008W        W38591   7.968   7.298   0.286
67009W        W38592  34.914   2.874   2.703
67010W        W38593  23.853  43.489   3.709
67011W        W38594  25.089  44.501   0.816
67012W        W38595   3.532   1.544  12.199
67013W        W38596   5.461  44.652   1.001
67014W        W38597  16.021  13.510   2.177
67015W        W38598  24.668  31.275  11.241
67016W        W38599  26.188   3.471   4.391
67017W        W38600  31.036  30.987  11.191
67018W        W38601   8.498  22.785  11.926
67019W        W38602  28.407  27.728  12.432
67020W        W38603  42.285  12.911   0.720
67021W        W38604  17.273  14.408  12.879
67022W        W38605  43.582  44.700  14.262
67023W        W38606   1.870   6.908  13.483
67024W        W38607   2.509  10.806   2.130
67025W        W38608  19.582  13.608   0.870
67026W        W38609  14.160  29.647  13.649
67027W        W38610  11.297   4.228   2.282
67028W        W38611  15.318  12.807  11.890
67029W        W38612   2.958   2.813  13.947
67030W        W38613  35.858  17.768  13.859
67031W        W38614  31.888  18.585   2.689
67032W        W38615  28.662  30.913  14.066
67033W        W38616  25.749   3.578   4.126
67034W        W38617  22.140  38.321   2.580
67035W        W38618   1.813  18.745  13.176
67036W        W38619  14.152  21.314   2.463
67037W        W38620   4.348  43.516   2.869
67038W        W38621  21.444  11.635  10.809
67039W        W38622  10.765  17.660  10.978
67040W        W38623  39.328  35.545  10.804
67041W        W38624  39.278   8.654  11.500
67042W        W38625   3.842  19.730   3.417
67043W        W38626  21.105  36.010  12.960
67044W        W38627  10.079  23.061   4.561
67045W        W38628  10.721  40.696   4.016
67046W        W38629  27.918  31.168  11.222
67047W        W38630  17.195  26.284   1.336
67048W        W38631   4.901   0.949  14.510
67049W        W38632  35.249  25.045   1.740
67050W        W38633  14.407   1.874   2.849
67051W        W38634  15.813  15.583  14.031
67052W        W38635  12.142   7.002  13.340
67053W        W38636  25.808  19.093  13.990
67054W        W38637   0.006  41.842  11.125
67055W        W38638   8.199  31.955   2.864
67056W        W38639  23.265   3.943  12.160
67057W        W38640  40.835   3.343   2.699
67058W        W38641  44.280  14.030  11.695
67059W        W38642  10.530  30.219   4.736
67060W        W38643   4.395  29.677   4.688
67061W        W38644   6.444  30.923   2.374
67062W        W38645  39.330  29.014  14.127
67063W        W38646  35.052  25.631   0.806
67064W        W38647  40.830  34.965   1.199
67065W        W38648  12.886   2.361   4.637
67066W        W38649  11.240   9.783  13.871
67067W        W38650  33.831  26.034  10.936
67068W        W38651   5.151  44.808   4.691
67069W        W38652  16.041   3.079   2.526
67070W        W38653  40.834   5.611  11.630
67071W        W38654  21.759   5.621   1.794
67072W        W38655  28.389   0.435   0.913
67073W        W38656   7.443   4.302   2.205
67074W        W38657   6.933   4.023   0.316
67075W        W38658  29.498  32.645   2.210
67076W        W38659  44.039   4.759  11.734
67077W        W38660  33.919   3.312   0.014
67078W        W38661  25.771  36.875   1.808
67079W        W38662  21.438  35.929   4.691
67080W        W38663  44.756  22.999   0.556
67081W        W38664  26.277  23.990  10.251
67082W        W38665  20.088  18.069   2.742
67083W        W38666   6.438  30.130   0.728
67084W        W38667  16.718  22.964  10.709
67085W        W38668  22.383  33.972  14.591
67086W        W38669   4.979  23.229  14.307
67087W        W38670  28.117  27.262   0.541
67088W        W38671  23.547  31.200   0.823
67089W        W38672  13.659   9.927  10.492
67090W        W38673  24.815  11.291  13.720
67091W        W38674  15.063  19.582  12.781
67092W        W38675  24.721  43.887   2.270
67093W        W38676   7.426  23.776  10.876
67094W        W38677  29.972  36.033   2.773
67095W        W38678  41.110  40.878   3.241
67096W        W38679  32.185  21.804  13.901
67097W        W38680  30.018  30.924  13.791
67098W        W38681   5.750   1.875  10.456
67099W        W38682  44.855  15.648  11.822
67100W        W38683  24.820  42.377   4.635
67101W        W38684  41.924   2.758   2.117
67102W        W38685  39.031   9.743  14.741
67103W        W38686  32.870  27.944   2.223
67104W        W38687  35.582  33.488  14.313
67105W        W38688  35.509  39.687   4.599
67106W        W38689  29.423   3.291   1.651
67107W        W38690  28.001  39.841  14.435
67108W        W38691  15.248  37.098   3.058
67109W        W38692  36.089   2.781   1.869
67110W        W38693  17.227   4.859   0.607
67111W        W38694  16.492  15.027   0.172
67112W        W38695  36.098   4.828  11.118
67113W        W38696  17.706  24.199  12.080
67114W        W38697  24.499  24.631  14.475
67115W        W38698  36.387  22.674   3.127
67116W        W38699  43.241   3.385  11.351
67117W        W38700  13.134  37.469   1.631
67118W        W38701  17.645  39.808   4.628
67119W        W38702  20.662  38.715  12.973
67120W        W38703  19.858  16.197   3.294
67121W        W38704   9.474  40.580  14.616
67122W        W38705   1.222  42.770   2.274
67123W        W38706  17.106  34.846  13.275
67124W        W38707  41.987  12.073   4.175
67125W        W38708   2.677   1.079   4.985
67126W        W38709  10.283   6.416   3.684
67127W        W38710  43.069   0.800  10.937
67128W        W38711  36.813  24.463   3.378
67129W        W38712  27.977  22.658   3.046
67130W        W38713  26.177  30.187   3.659
67131W        W38714  34.404  42.381  10.798
67132W        W38715  40.807   6.962  10.742
67133W        W38716  11.233  15.312   2.172
67134W        W38717  27.248  13.641  11.568
67135W        W38718  11.146  16.506   4.767
67136W        W38719  36.312   3.889   0.995
67137W        W38720  44.734  44.723   4.633
67138W        W38721  19.316  16.189   0.466
67139W        W38722  19.511   2.791  10.914
67140W        W38723  11.658  22.122   1.710
67141W        W38724  20.239  35.998  14.401
67142W        W38725   7.418  17.937   1.522
67143W        W38726  10.970   1.472  12.847
67144W        W38727  22.296  10.455   5.085
67145W        W38728   1.774  35.840  11.950
67146W        W38729  42.326  16.052   0.814
67147W        W38730  30.193  33.956   3.225
67148W        W38731  22.225   2.475   5.015
67149W        W38732  18.114  27.935  11.707
67150W        W38733  18.568  43.263  12.439
67151W        W38734  25.626   2.626   4.141
67152W        W38735  14.560  24.279   2.271
67153W        W38736  24.957  15.617   0.063
67154W        W38737  35.135  35.964   0.773
67155W        W38738  34.486   6.693   2.021
67156W        W38739  11.338  20.817  14.383
67157W        W38740  41.920   3.820   1.277
67158W        W38741  32.481  12.099   3.378
67159W        W38742  44.038  29.682  12.498
67160W        W38743  44.495  27.481  13.595
67161W        W38744   3.276   6.632   4.937
67162W        W38745  38.925  13.130   2.233
67163W        W38746  17.795  11.469   2.749
67164W        W38747  23.037  10.298  12.762
67165W        W38748  28.183  12.086  13.596
67166W        W38749   7.471  25.949   0.520
67167W        W38750   6.673  24.971  11.156
67168W        W38751  41.424  19.607  14.562
67169W        W38752  39.465  29.544   3.968
67170W        W38753   3.175  24.118  10.645
67171W        W38754   1.310  24.241   2.275
67172W        W38755  36.851   1.083  14.019
67173W        W38756   9.419   1.391  12.770
67174W        W38757  29.182  34.808   5.261
67175W        W38758   4.098  14.847   3.099
67176W        W38759  36.764  16.757   1.903
67177W        W38760  41.808  36.083  12.765
67178W        W38761   9.229  43.974  11.779
67179W        W38762  41.901   7.615   1.784
67180W        W38763  18.258  40.998   2.356
67181W        W38764   7.586  15.016  10.606
67182W        W38765  27.003  34.027  11.455
67183W        W38766   8.873  18.222   3.880
67184W        W38767  43.583  41.081  14.581
67185W        W38768  20.985  31.352  11.933
67186W        W38769  40.246  39.539   1.066
67187W        W38770   5.615  13.737   1.545
67188W        W38771  17.746  13.419   3.334
67189W        W38772  23.542  11.985   3.550
67190W        W38773   3.307  30.404   3.622
67191W        W38774   8.048  30.978  14.098
67192W        W38775   4.727  15.597  12.506
67193W        W38776  41.842  29.231   4.541
67194W        W38777   2.908   3.777  13.134
67195W        W38778  24.484  42.164   2.278
67196W        W38779  26.105  29.572  12.452
67197W        W38780  13.488   7.894   4.109
67198W        W38781   0.948   8.666  14.736
67199W        W38782   0.230  14.082  12.493
67200W        W38783  23.744  39.801   3.169
67201W        W38784  28.795   5.882   0.398
67202W        W38785  11.351  31.689   1.819
67203W        W38786  26.879  13.554   5.041
67204W        W38787  40.158   3.393  13.979
67205W        W38788  18.161  17.846   1.791
67206W        W38789  16.285  44.553  13.277
67207W        W38790   6.631  31.446  14.338
67208W        W38791  34.378  26.960  10.539
67209W        W38792   2.365   1.805  10.903
67210W        W38793  24.600  37.892   2.803
67211W        W38794   6.792  12.446   2.357
67212W        W38795  10.882  12.655   4.563
67213W        W38796  34.922  24.814  14.949
67214W        W38797  10.877  29.117   3.617
67215W        W38798  33.897  22.051   1.915
67216W        W38799  44.288  25.085   3.424
67217W        W38800   3.693  32.030  14.496
67218W        W38801  21.935  30.182  14.878
67219W        W38802  42.268  39.328   4.911
67220W        W38803  11.758  17.067  10.586
67221W        W38804  42.136  36.940   4.856
67222W        W38805  25.271  23.465   0.463
67223W        W38806  24.994  35.439  14.477
67224W        W38807  38.062  38.062  11.026
67225W        W38808  38.642   7.817   5.495
67226W        W38809  30.934   5.271   4.124
67227W        W38810  34.191  22.242   4.670
67228W        W38811   6.641  35.205   9.939
67229W        W38812  15.759   3.817  14.829
67230W        W38813  22.896  14.759  14.807
67231W        W38814  38.854   0.260  13.065
67232W        W38815   1.167  19.522  12.450
67233W        W38816   4.414  35.241  10.776
67234W        W38817  36.806   2.374  12.502
67235W        W38818  20.987   8.944  13.442
67236W        W38819   2.199  12.610  11.587
67237W        W38820  25.786  19.835   4.483
67238W        W38821  24.796  24.715  13.925
67239W        W38822  19.655  22.082   4.506
67240W        W38823  31.201  19.327   3.818
67241W        W38824  39.080  38.584  10.186
67242W        W38825  25.456   0.015   4.836
67243W        W38826  28.962  35.629   1.447
67244W        W38827  24.196  14.967   4.805
67245W        W38828  15.718  38.671  10.888
67246W        W38829  30.721  25.152  12.170
67247W        W38830  40.278  16.316  14.060
67248W        W38831  17.605  14.115  10.900
67249W        W38832  41.882  32.897  12.116
67250W        W38833  11.592  14.104  11.495
67251W        W38834   9.801  10.684  11.012
67252W        W38835  28.620  10.511   5.527
67253W        W38836  43.517  43.680  12.612
67254W        W38837  15.884  22.295   0.843
67255W        W38838  34.548  21.361   5.109
67256W        W38839  42.392  34.502  11.169
67257W        W38840  13.670  29.922   2.447
67258W        W38841  17.569  10.620   0.883
67259W        W38842  23.414   5.941   4.717
67260W        W38843   8.041   4.720   4.528
67261W        W38844  36.944  16.128   1.284
67262W        W38845  24.674   7.700   2.257
67263W        W38846  27.619  15.546   2.811
67264W        W38847  15.832  17.672  11.119
67265W        W38848  35.487  30.078   3.400
67266W        W38849  40.807  29.949  12.469
67267W        W38850  13.128  10.712  14.774
67268W        W38851   7.308  25.473  10.577
67269W        W38852  41.960  17.493  13.921
67270W        W38853  21.636  42.128   0.768
67271W        W38854  40.096   1.838   2.139
67272W        W38855   6.617  30.349   1.188
67273W        W38856  44.724   3.871  13.220
67274W        W38857   5.633  40.383  11.869
67275W        W38858  23.791  29.051  10.941
67276W        W38859   5.118   3.030  14.963
67277W        W38860  43.315  39.090  12.100
67278W        W38861   6.343  26.979  12.880
67279W        W38862  26.657   7.834  11.097
67280W        W38863  25.154  16.205  10.733
67281W        W38864  33.557  16.649   2.943
67282W        W38865   7.710   6.265   0.011
67283W        W38866  43.306  27.741  11.347
67284W        W38867   3.860   5.186   2.902
67285W        W38868  15.652  28.938   1.694
67286W        W38869   8.200  41.676   0.476
67287W        W38870   8.924  44.535   0.250
67288W        W38871  34.993  14.906  14.583
67289W        W38872  18.754  44.358  12.833
67290W        W38873  23.555  19.098  14.812
67291W        W38874  38.805   5.793   2.153
67292W        W38875  16.648  32.981   2.359
67293W        W38876  40.234  35.389  10.605
67294W        W38877  18.095  23.642   5.463
67295W        W38878   0.701   4.809  14.683
67296W        W38879  34.257  42.850   1.296
67297W        W38880   2.854   2.782   1.119
67298W        W38881   4.308  39.525  12.500
67299W        W38882  29.678  13.607  14.285
67300W        W38883   2.006  36.595   2.430
67301W        W38884  20.138  38.501   3.291
67302W        W38885   1.247  30.863  11.548
67303W        W38886  15.339   2.282  11.125
67304W        W38887  16.296  24.128   4.520
67305W        W38888  37.452  16.159  11.830
67306W        W38889  20.067   6.506  14.844
67307W        W38890  19.255  35.911  11.897
67308W        W38891  11.794  15.888   4.093
67309W        W38892  19.245  12.253   0.924
67310W        W38893  34.681  40.342   4.201
67311W        W38894   2.523   6.588   0.433
67312W        W38895  10.609  19.715  14.449
67313W        W38896  22.464  15.448  14.322
67314W        W38897  42.692  34.077   3.443
67315W        W38898  43.528   8.194   3.616
67316W        W38899  14.117  20.956   9.946
67317W        W38900  17.617  17.107  13.941
67318W        W38901  29.143   5.723  13.599
67319W        W38902  42.344  35.799  12.024
67320W        W38903  14.299   8.301  14.411
67321W        W38904  12.074  36.095  12.172
67322W        W38905   3.042  10.308   4.465
67323W        W38906  21.126  16.627   1.198
67324W        W38907  31.012   0.801   1.679
67325W        W38908  36.305  39.534   3.074
67326W        W38909  13.708  26.412  10.704
67327W        W38910  25.702  38.425   3.709
67328W        W38911  18.284   8.983   3.686
67329W        W38912  32.433  24.235  11.824
67330W        W38913  42.919  23.323  10.474
67331W        W38914   9.602  35.063  11.898
67332W        W38915  38.789  41.467  14.092
67333W        W38916  39.700  25.234   4.070
67334W        W38917   6.413  38.367  12.891
67335W        W38918  11.102  23.503  14.571
67336W        W38919   5.994   6.872   0.879
67337W        W38920  15.357   1.510  14.165
67338W        W38921   1.687  14.819  10.766
67339W        W38922   1.351  20.549   1.708
67340W        W38923  15.130  10.568  14.808
67341W        W38924  43.095  40.248   1.689
67342W        W38925  34.154   4.220   3.251
67343W        W38926   5.390  30.851   1.492
67344W        W38927   3.762  37.942  11.122
67345W        W38928  10.664  36.688   3.298
67346W        W38929  18.078   1.352  14.811
67347W        W38930  23.809  12.410   2.658
67348W        W38931  14.677  32.091   0.750
67349W        W38932  43.964  21.545   4.165
67350W        W38933  40.581  41.818  13.295
67351W        W38934  41.786  23.589   4.617
67352W        W38935  10.337   6.932   4.661
67353W        W38936  10.401  41.668  11.091
67354W        W38937  23.208  27.688  11.451
67355W        W38938  30.888  27.676   1.383
67356W        W38939   9.805  31.899   2.328
67357W        W38940   4.674  20.506  13.921
67358W        W38941  14.584  39.231  11.136
67359W        W38942  30.721  13.104   1.348
67360W        W38943  28.565  24.902  10.973
67361W        W38944  24.794   8.836   1.791
67362W        W38945  35.916  33.995   3.478
67363W        W38946  16.107   2.586   2.429
67364W        W38947  42.318  20.141  13.462
67365W        W38948   7.904  44.499   0.890
67366W        W38949  27.675  26.903  10.206
67367W        W38950  40.178  37.158  14.533
67368W        W38951   6.365   0.293   2.851
67369W        W38952  28.621   0.993  11.108
67370W        W38953  14.224  12.853  10.483
67371W        W38954  33.961  36.851   4.754
67372W        W38955   2.167  19.665   5.088
67373W        W38956  38.279   1.988  13.484
67374W        W38957   5.163  18.302  14.493
67375W        W38958   6.468  12.613   4.050
67376W        W38959  37.116  40.477   4.692
67377W        W38960  29.189  23.560  11.603
67378W        W38961   6.575  12.723  11.821
67379W        W38962  30.049  17.610  14.859
67380W        W38963  31.055  13.569   3.712
67381W        W38964   6.644  31.441   3.455
67382W        W38965  23.645  27.733   1.313
67383W        W38966  18.733  23.457   3.321
67384W        W38967   8.333  14.181   3.997
67385W        W38968  13.361  10.516  11.520
67386W        W38969  34.064  39.627  12.143
67387W        W38970  16.318  43.092  13.503
67388W        W38971  36.507  36.188   3.355
67389W        W38972  28.228  30.671   1.272
67390W        W38973   2.894  20.577   0.776
67391W        W38974   1.330  18.729  12.322
67392W        W38975  29.698  12.665   2.767
67393W        W38976  42.043  37.304   2.638
67394W        W38977  13.263  33.723  13.363
67395W        W38978  27.922   1.288   2.320
67396W        W38979  32.149  17.800   0.864
67397W        W38980  31.512  37.893   3.135
67398W        W38981  14.812  43.018  11.792
67399W        W38982   9.755  13.792  12.057
67400W        W38983  10.134  27.692   2.923
67401W        W38984   2.074  22.644   2.138
67402W        W38985  35.107  44.763  14.024
67403W        W38986  29.775   5.833  11.605
67404W        W38987  39.470  22.150   2.653
67405W        W38988  43.487  11.602   3.697
67406W        W38989  10.663  33.777  10.424
67407W        W38990  33.427  20.349  13.919
67408W        W38991  31.613  18.727  12.046
67409W        W38992  35.506   1.802  12.538
67410W        W38993  29.385  11.013  13.073
67411W        W38994  22.971  36.834  14.493
67412W        W38995  10.922  43.374  11.543
67413W        W38996   3.361  19.579   3.640
67414W        W38997   5.959  38.125  14.346
67415W        W38998  38.054  38.370   2.861
67416W        W38999  25.108  37.982   1.506
67417W        W39000  14.212   9.090  11.193
67418W        W39001   9.126   0.019   2.278
67419W        W39002  33.970  30.433   0.768
67420W        W39003  16.652  34.651   0.884
67421W        W39004  36.846   9.476  11.975
67422W        W39005   2.784  36.645   0.500
67423W        W39006   2.150   8.585   1.647
67424W        W39007  12.960  30.466  13.483
67425W        W39008   7.859  23.566  12.168
67426W        W39009  35.540   7.659   3.657
67427W        W39010  13.665   7.957   2.226
67428W        W39011  40.447   1.580  14.480
67429W        W39012   4.442  15.868  10.582
67430W        W39013  39.929   5.320  13.176
67431W        W39014   0.868   3.974  12.930
67432W        W39015   4.409  16.261   1.789
67433W        W39016   2.623  41.441   2.883
67434W        W39017  12.781  15.838   2.739
67435W        W39018   5.416  15.878  11.644
67436W        W39019   9.284   1.842  14.783
67437W        W39020   0.003  15.638  12.359
67438W        W39021  43.984  31.104   4.839
67439W        W39022   1.697  25.226   4.153
67440W        W39023  11.062  27.636   2.818
67441W        W39024  20.618   1.557   2.313
67442W        W39025  22.051  26.688  13.942
67443W        W39026   4.157  28.493  11.533
67444W        W39027  21.710  28.964  11.934
67445W        W39028  26.463  43.492   2.731
67446W        W39029  15.753  42.929   3.159
67447W        W39030  24.277  16.893  14.473
67448W        W39031  43.922  36.985   2.905
67449W        W39032   2.694  17.181  11.699
67450W        W39033   3.669  11.879   3.250
67451W        W39034  43.547  22.270  11.148
67452W        W39035   9.795  21.020  12.019
67453W        W39036  11.348  37.882   0.449
67454W        W39037  41.254  36.440  13.932
67455W        W39038  20.903  21.458   1.927
67456W        W39039  23.769  35.387   3.168
67457W        W39040  12.459  35.977   0.576
67458W        W39041  44.822  35.451  13.530
67459W        W39042   7.272  39.998   0.789
67460W        W39043  36.015  22.700  14.964
67461W        W39044  16.367   5.435   2.308
67462W        W39045   3.105  34.813   3.295
67463W        W39046  17.739  40.367   0.852
67464W        W39047  36.562  18.672  11.218
67465W        W39048  40.583   8.491  12.624
67466W        W39049   4.776  37.776  12.620
67467W        W39050   6.819  13.258   3.143
67468W        W39051  22.767  16.293   1.929
67469W        W39052  28.711   3.325  13.386
67470W        W39053  37.634  33.503   3.389
67471W        W39054   0.406  15.435  11.581
67472W        W39055  10.186   8.379  10.587
67473W        W39056   7.881  11.707  13.307
67474W        W39057  18.506   0.434  13.102
67475W        W39058   0.807   9.866  13.443
67476W        W39059  41.582  34.502   2.729
67477W        W39060  11.803  16.856  12.886
67478W        W39061  25.093  42.072   2.896
67479W        W39062  37.395  42.865   0.396
67480W        W39063  30.652  25.902  13.701
67481W        W39064  43.075  27.184  10.719
67482W        W39065  41.989   7.491   0.877
67483W        W39066  22.240  25.970  11.763
67484W        W39067  12.416   4.449  14.037
67485W        W39068  22.440  34.742   0.700
67486W        W39069  27.397  37.642  11.845
67487W        W39070  41.825  29.388   1.401
67488W        W39071  31.200   2.685   1.718
67489W        W39072  10.561  32.958  12.554
67490W        W39073  27.918  38.846   3.103
67491W        W39074  14.729  25.118  10.283
67492W        W39075  35.547  34.433  10.761
67493W        W39076  41.986   9.348  11.905
67494W        W39077   3.456  28.441  10.540
67495W        W39078  34.965  42.783   0.876
67496W        W39079  32.146  44.025  11.042
67497W        W39080   2.414  24.127   3.215
67498W        W39081  12.902  42.370  13.675
67499W        W39082  26.250  17.144  14.334
67500W        W39083  29.133  28.957   4.395
67501W        W39084  37.085   4.322   4.118
67502W        W39085  12.201  25.907  14.069
67503W        W39086  25.728  32.922  13.033
67504W        W39087  27.079  15.090  12.506
67505W        W39088  39.226  35.449   2.140
67506W        W39089  33.685   2.404   0.267
67507W        W39090   4.474  38.293   2.324
67508W        W39091  12.942  43.819   4.531
67509W        W39092   3.162  42.989   2.702
67510W        W39093   4.388  28.771  10.312
67511W        W39094   9.846   6.246   4.623
67512W        W39095  32.491  39.766   0.244
67513W        W39096  16.521  20.676   3.793
67514W        W39097  32.655  37.355  13.965
67515W        W39098  19.592  17.817   3.790
67516W        W39099   9.173  22.987   2.125
67517W        W39100   4.094  32.699  12.579
67518W        W39101  24.141   8.228  10.679
67519W        W39102  13.170   4.874   1.836
67520W        W39103  44.528  33.007   2.853
67521W        W39104  31.511  22.984   9.664
67522W        W39105  36.577   6.895  14.307
67523W        W39106  38.875  27.701  12.425
67524W        W39107  28.353  43.460  11.372
67525W        W39108   6.618   9.452   4.269
67526W        W39109  15.706  38.079  13.329
67527W        W39110  42.510  15.759   1.725
67528W        W39111  15.535  39.014   4.950
67529W        W39112  44.945  40.473   4.102
67530W        W39113  17.057  40.115   1.964
67531W        W39114   3.285  17.624   4.360
67532W        W39115   6.420   8.942  11.114
67533W        W39116   6.691   2.940  13.249
67534W        W39117  18.811  13.933  13.352
67535W        W39118  18.778  34.297   0.864
67536W        W39119  19.160  37.023   1.135
67537W        W39120  22.123  21.001   4.071
67538W        W39121  19.727  11.846   3.569
67539W        W39122   1.698   8.378   1.743
67540W        W39123  36.541  27.042  14.251
67541W        W39124   2.413  34.394   1.672
67542W        W39125  42.558  14.820   1.784
67543W        W39126  22.552   6.909   5.116
67544W        W39127  38.081   1.509   0.777
67545W        W39128  26.986  11.767  10.310
67546W        W39129  33.876   1.223  10.678
67547W        W39130  39.031  17.747   3.295
67548W        W39131  10.171  38.974   1.426
67549W        W39132  29.641  42.265   0.835
67550W        W39133   9.132  23.553  11.515
67551W        W39134  32.033  15.718   4.601
67552W        W39135   0.688  33.383   1.344
67553W        W39136  20.136  30.049   3.611
67554W        W39137  30.338  27.383   2.716
67555W        W39138   0.260  16.082  12.546
67556W        W39139  23.503  15.326  12.487
67557W        W39140  38.499  34.116  12.278
67558W        W39141   6.401  24.611  13.969
67559W        W39142  15.143  34.393   1.961
67560W        W39143  26.142   9.927   4.643
67561W        W39144   1.980  12.596   2.288
67562W        W39145  33.553   8.934   2.302
67563W        W39146  41.754  37.355  12.576
67564W        W39147  31.542  31.656   0.922
67565W        W39148  39.236   9.644   4.325
67566W        W39149   5.857  23.401  14.374
67567W        W39150  19.337   3.371   0.504
67568W        W39151  30.895   9.093   3.755
67569W        W39152  30.502  17.667   3.744
67570W        W39153   0.138  25.140   2.372
67571W        W39154   8.257  28.612   3.080
67572W        W39155  33.620  13.934  10.283
67573W        W39156  30.592  30.554  11.257
67574W        W39157  30.473  31.116  13.945
67575W        W39158  29.613  20.731   2.256
67576W        W39159  28.450  13.683   1.372
67577W        W39160  22.701  43.321   0.756
67578W        W39161  28.073   1.033   1.891
67579W        W39162   7.687  22.927   4.957
67580W        W39163  35.971  18.532   3.733
67581W        W39164  29.615  31.607   1.256
67582W        W39165   4.835  29.532  13.857
67583W        W39166  25.208  38.227   0.186
67584W        W39167  22.477  22.215   4.376
67585W        W39168  32.944  44.745   4.906
67586W        W39169  18.744  17.270   3.637
67587W        W39170  36.896  27.562  11.638
67588W        W39171   6.901  39.725   1.111
67589W        W39172  11.180   7.481  12.936
67590W        W39173  29.875  20.399  10.537
67591W        W39174  28.325  35.641   2.403
67592W        W39175  33.409  17.699   3.122
67593W        W39176  23.640   3.257   0.418
67594W        W39177  13.381  25.482   1.271
67595W        W39178  33.802  18.485   1.663
67596W        W39179  33.995  18.733   3.604
67597W        W39180   0.278  26.758   2.816
67598W        W39181  40.892  44.163  13.393
67599W        W39182   8.158   9.268  13.365
67600W        W39183  17.330  16.787   3.711
67601W        W39184  26.605  11.722   0.399
67602W        W39185  41.967  41.395   1.621
67603W        W39186  39.954  17.109  10.724
67604W        W39187  31.478  37.581   1.667
67605W        W39188  39.377  21.467  10.371
67606W        W39189  37.658  19.086   2.299
67607W        W39190  33.059   8.809   0.755
67608W        W39191  31.013  20.539  11.859
67609W        W39192  29.533  33.255  11.056
67610W        W39193  40.688  40.604   2.240
67611W        W39194  23.040  24.708   2.273
67612W        W39195  19.271  20.686   1.513
67613W        W39196  32.135  38.863   1.520
67614W        W39197  22.722  36.872   0.771
67615W        W39198  27.632  28.195  14.076
67616W        W39199  11.094  11.131   3.667
67617W        W39200  21.017  15.717  11.898
67618W        W39201  14.127  29.617  10.614
67619W        W39202  40.669  13.862  12.942
67620W        W39203  28.459  23.103  13.947
67621W        W39204   4.319   1.238  12.881
67622W        W39205  17.017   7.240  12.553
67623W        W39206  38.324  35.981  13.966
67624W        W39207  23.953  39.576  10.840
67625W        W39208   4.241  14.597  12.833
67626W        W39209   7.780  32.588   4.332
67627W        W39210   3.640  21.465  13.379
67628W        W39211  20.160  26.498   3.657
67629W        W39212  17.523  41.361  12.641
67630W        W39213  16.144   8.309  14.971
67631W        W39214   2.707   7.227  13.873
67632W        W39215  14.552  27.929  14.010
67633W        W39216  10.500   0.244   2.219
67634W        W39217  27.432   0.976  10.416
67635W        W39218  27.682  11.184   2.710
67636W        W39219  30.514  36.380  13.911
67637W        W39220  33.539  12.191  14.485
67638W        W39221  14.324   1.533   3.269
67639W        W39222  40.760  25.138   0.941
67640W        W39223   1.426  32.858  14.889
67641W        W39224   8.492  15.017   1.951
67642W        W39225  35.989  23.127   3.513
67643W        W39226   0.319  43.755  14.819
67644W        W39227  20.242  17.726  14.633
67645W        W39228  41.241  21.049   3.538
67646W        W39229  40.523   7.624  10.763
67647W        W39230  11.730   5.400   0.487
67648W        W39231  29.584   0.155  10.751
67649W        W39232   9.984  23.184  13.001
67650W        W39233  17.261   5.895   4.268
67651W        W39234   9.120  35.183  11.723
67652W        W39235  16.361  41.932  11.231
67653W        W39236  29.878  28.833   2.430
67654W        W39237  19.477  42.987  13.049
67655W        W39238  36.861  30.063  10.852
67656W        W39239  12.351  31.650   3.898
67657W        W39240  39.973  20.892  11.167
67658W        W39241  35.870  16.266   1.735
67659W        W39242   6.788  38.903   3.223
67660W        W39243  22.178  16.609  11.517
67661W        W39244  21.148  32.925   2.751
67662W        W39245  21.386  39.549  13.929
67663W        W39246  14.590  26.485  14.786
67664W        W39247   4.285  20.379  13.570
67665W        W39248  10.285  29.945  14.908
67666W        W39249  31.316   7.259   4.528
67667W        W39250  27.988  35.332   1.175
67668W        W39251   3.017  37.305   5.061
67669W        W39252   8.315  31.883   4.883
67670W        W39253  12.061  11.217  14.289
67671W        W39254  24.126  38.578   0.785
67672W        W39255  17.394  18.541   0.476
67673W        W39256   6.163  26.047   4.903
67674W        W39257   7.433   8.806   3.408
67675W        W39258  21.074  16.191   1.870
67676W        W39259  17.991  30.005   1.359
67677W        W39260  29.576   5.315   4.846
67678W        W39261  23.471  26.495   1.003
67679W        W39262  16.806   3.051  14.710
67680W        W39263  38.890  12.254   3.825
67681W        W39264   1.749   4.849   2.112
67682W        W39265   0.697  25.227  14.446
67683W        W39266  39.761  34.616  14.867
67684W        W39267   2.130  22.261  14.232
67685W        W39268  24.089  26.149  14.777
67686W        W39269   6.250  18.777  13.853
67687W        W39270  20.269   2.755  10.739
67688W        W39271   9.930  27.061  14.339
67689W        W39272  29.478  20.612  14.570
67690W        W39273  36.114  33.007  12.427
67691W        W39274  24.756  18.724  12.461
67692W        W39275  27.941  26.913   0.934
67693W        W39276  22.276   4.335  10.678
67694W        W39277  23.736  24.274   2.812
67695W        W39278  40.207  20.793  14.530
67696W        W39279   0.106  24.624   0.325
67697W        W39280  29.863   1.975   0.252
67698W        W39281  32.927  24.041  11.710
67699W        W39282  33.302  44.010  10.658
67700W        W39283   2.160   1.318  14.360
67701W        W39284  22.601  29.385  10.602
67702W        W39285  19.621   3.978  14.423
67703W        W39286  11.763  37.300  11.067
67704W        W39287  22.915  24.088  11.379
67705W        W39288  10.222   5.704   0.432
67706W        W39289  38.486  20.484  13.061
67707W        W39290  37.848  11.653  14.354
67708W        W39291   6.324   9.451  11.988
67709W        W39292  14.609  10.103  14.212
67710W        W39293  39.652  36.656   1.263
67711W        W39294  44.894  27.108   0.746
67712W        W39295  25.653  29.041  10.227
67713W        W39296  41.822   9.833  13.531
67714W        W39297  31.423  10.854  11.477
67715W        W39298  28.358  15.366  11.514
67716W        W39299  31.434  17.614   1.945
67717W        W39300  35.789   6.865  13.209
67718W        W39301  13.812  28.937   0.271
67719W        W39302   9.811  17.503   1.398
67720W        W39303   1.759  28.663   4.770
67721W        W39304  31.421  25.184  12.976
67722W        W39305  12.858  24.026   1.261
67723W        W39306   2.780  22.280  13.019
67724W        W39307   2.289  14.362  13.931
67725W        W39308   6.033  32.571  14.331
67726W        W39309   8.044  27.701   4.194
67727W        W39310   6.916   6.946   4.124
67728W        W39311  34.388  22.271   4.084
67729W        W39312  42.352  39.811  13.769
67730W        W39313   5.430   0.238   0.374
67731W        W39314  41.821  40.701  11.577
67732W        W39315   0.309  37.862  13.451
67733W        W39316  12.229  36.553   3.259
67734W        W39317   5.282  11.870  11.127
67735W        W39318  17.783  44.066  10.813
67736W        W39319  19.775  23.661  10.186
67737W        W39320  18.680  24.129   4.815
67738W        W39321  44.592  15.387   5.161
67739W        W39322  31.633  25.676   2.290
67740W        W39323  27.014  32.535  12.999
67741W        W39324  10.764   8.435   4.362
67742W        W39325  38.650  35.851  11.998
67743W        W39326  29.701  20.141  13.897
67744W        W39327  35.654  42.789   0.133
67745W        W39328  19.077   3.053  11.593
67746W        W39329  42.748  30.641  10.161
67747W        W39330  18.118  11.869  11.863
67748W        W39331  26.812  29.910  11.147
67749W        W39332   8.355  23.820  10.724
67750W        W39333  14.866  14.715  13.305
67751W        W39334   5.730   6.776   2.845
67752W        W39335  40.074  44.884   1.940
67753W        W39336  36.509  43.594   2.781
67754W        W39337  30.646  34.610   0.217
67755W        W39338  26.742   9.324  12.469
67756W        W39339  34.493  26.469   3.168
67757W        W39340  39.432  27.755   1.280
67758W        W39341  27.097  25.477   4.496
67759W        W39342  21.749  28.098  10.683
67760W        W39343  44.555  14.545   1.854
67761W        W39344  12.238  15.227  11.613
67762W        W39345  21.364  18.646  14.731
67763W        W39346  10.837  30.390  11.430
67764W        W39347  39.420  40.509   1.543
67765W        W39348  20.156  32.991   1.450
67766W        W39349   3.459   5.144  11.118
67767W        W39350  25.508  11.606  11.660
67768W        W39351  26.521  19.287   4.331
67769W        W39352  28.694  34.915   3.087
67770W        W39353  26.833   1.809  11.990
67771W        W39354   4.153  44.270   3.350
67772W        W39355  43.370   7.927  13.573
67773W        W39356  44.509  38.470   3.649
67774W        W39357   5.930  13.520   3.920
67775W        W39358   2.942   3.227   3.622
67776W        W39359  42.462  13.831   3.849
67777W        W39360   4.290  27.643  14.837
67778W        W39361  31.189  31.925  12.722
67779W        W39362  10.659   7.179   0.905
67780W        W39363  24.550   6.171  10.824
67781W        W39364  32.037  28.608   0.721
67782W        W39365   9.067  40.848   4.542
67783W        W39366  32.340  28.428  14.501
67784W        W39367  22.505  27.971  11.696
67785W        W39368  28.058  10.172   5.104
67786W        W39369   8.869  34.750  12.570
67787W        W39370  11.063  28.107  12.576
67788W        W39371  22.030   5.470  10.659
67789W        W39372  37.114  26.741   4.318
67790W        W39373  18.750  24.739   0.287
67791W        W39374  30.033  14.085  12.107
67792W        W39375  11.201   7.712   4.085
67793W        W39376   8.374  12.933   2.732
67794W        W39377  42.280  11.495   1.464
67795W        W39378  42.217  12.727  14.818
67796W        W39379  17.220  10.622  11.284
67797W        W39380  19.897   5.693  14.413
67798W        W39381  18.492  23.987  13.344
67799W        W39382   9.626  22.957   2.679
67800W        W39383  24.419  32.672   3.570
67801W        W39384   8.686   4.842  11.416
67802W        W39385  19.647   9.545   4.278
67803W        W39386  41.051  26.218  11.097
67804W        W39387  10.332  32.255   1.882
67805W        W39388  30.925  29.894  14.744
67806W        W39389  40.278  12.726  12.231
67807W        W39390  32.568  35.897  11.077
67808W        W39391  21.175  43.838  11.502
67809W        W39392   1.698  20.070  10.647
67810W        W39393  20.118  41.073   4.838
67811W        W39394  11.377  36.899  10.667
67812W        W39395  30.245  29.505   0.211
67813W        W39396  17.834  38.541  11.079
67814W        W39397  40.775   2.755   3.362
67815W        W39398  20.251  12.552   3.299
67816W        W39399  27.691  38.599  11.464
67817W        W39400  12.923   7.192   3.621
67818W        W39401  24.872  27.364  13.711
67819W        W39402   3.425  25.436   1.319
67820W        W39403   0.998   7.197   1.685
67821W        W39404  35.214  11.710  13.872
67822W        W39405  15.753   6.614  11.462
67823W        W39406  22.600  44.925  11.840
67824W        W39407   4.765  34.021  12.658
67825W        W39408  44.794  38.013   3.799
67826W        W39409  26.054  36.778  11.107
67827W        W39410  12.579  38.803  14.964
67828W        W39411   7.868   5.160  11.211
67829W        W39412   6.868  42.000   1.777
67830W        W39413  26.673   1.494  11.596
67831W        W39414  42.039   8.947  12.534
67832W        W39415  42.363   9.693  12.961
67833W        W39416   4.564  38.463   2.793
67834W        W39417  33.546   4.201  14.826
67835W        W39418  26.892   3.266   2.596
67836W        W39419   0.471  12.458   3.507
67837W        W39420  14.275  35.298  10.704
67838W        W39421   2.319  37.959   3.718
67839W        W39422  44.046  26.705   4.220
67840W        W39423  33.896  27.248  11.168
67841W        W39424  12.887   5.883   1.797
67842W        W39425  12.649  34.295  13.875
67843W        W39426   6.170   1.500   1.903
67844W        W39427  10.085  12.332  11.628
67845W        W39428  38.893  20.062  11.813
67846W        W39429  11.206  15.170   0.176
67847W        W39430  37.911   4.000  13.875
67848W        W39431  19.695  42.239  13.814
67849W        W39432  34.417   3.385   1.320
67850W        W39433  37.817  22.986   4.585
67851W        W39434  33.788  13.752   3.377
67852W        W39435  44.341  16.061   2.527
67853W        W39436  17.586  14.061  13.530
67854W        W39437  37.181   6.520   0.669
67855W        W39438   1.378  15.596   2.795
67856W        W39439  27.507  22.613  10.533
67857W        W39440  12.538  31.057  14.925
67858W        W39441  24.064  10.987   1.127
67859W        W39442  40.962   9.353  13.947
67860W        W39443  24.588  42.944   2.727
67861W        W39444  37.335   3.432  10.710
67862W        W39445  16.532   4.861  13.275
67863W        W39446  25.512  18.151  12.411
67864W        W39447  25.629  31.117  13.398
67865W        W39448  28.416  33.907   1.250
67866W        W39449  43.031   6.397   1.731
67867W        W39450  33.182   5.232   4.591
67868W        W39451  43.756  28.546  11.603
67869W        W39452  18.263  44.237   4.697
67870W        W39453  20.270  32.689   0.361
67871W        W39454  22.781  34.632   4.732
67872W        W39455  33.529   0.799   2.870
67873W        W39456  28.566  11.705   3.232
67874W        W39457  12.334  17.126   2.227
67875W        W39458  39.510  43.418   1.272
67876W        W39459  19.124  18.330   4.935
67877W        W39460  19.241  29.576   0.491
67878W        W39461  28.536   6.323  12.925
67879W        W39462  32.051   8.778   0.883
67880W        W39463  31.953  13.195  10.538
67881W        W39464  43.360  30.142  14.739
67882W        W39465  15.328   4.990   4.806
67883W        W39466   7.880  22.160   3.141
67884W        W39467  17.256  22.648   0.170
67885W        W39468   4.192  11.642   0.727
67886W        W39469  29.589   4.850  10.340
67887W        W39470  17.175  43.099   3.339
67888W        W39471  44.189  14.493  11.370
67889W        W39472   4.935  40.531  11.269
67890W        W39473   6.946  37.592   3.681
67891W        W39474  39.097  25.279  13.883
67892W        W39475  13.609  32.503   3.265
67893W        W39476  40.237  33.715  12.143
67894W        W39477  44.876  11.424   1.382
67895W        W39478  12.877  14.656   4.044
67896W        W39479  36.338  10.940   0.475
67897W        W39480  10.427  13.930  12.669
67898W        W39481  40.484  27.631   2.799
67899W        W39482  43.417  24.323  12.266
67900W        W39483  16.155   0.390   0.276
67901W        W39484  44.033  26.518  14.273
67902W        W39485   2.208  39.466  12.943
67903W        W39486   9.561  25.746  13.517
67904W        W39487  24.700  18.455  11.134
67905W        W39488  19.278  37.395   0.753
67906W        W39489  37.300   8.353   3.236
67907W        W39490   7.775   7.083   1.759
67908W        W39491  22.232  31.648   4.208
67909W        W39492  24.745  15.802  13.515
67910W        W39493  23.730  25.602   1.872
67911W        W39494  14.319  20.519   3.655
67912W        W39495  33.134  40.372  14.348
67913W        W39496  38.823  27.589   2.321
67914W        W39497  37.086  34.491  10.742
67915W        W39498  28.919   9.663  12.969
67916W        W39499  15.404   3.845   2.228
67917W        W39500   8.286  28.999   1.969
67918W        W39501  33.186  26.508  13.550
67919W        W39502   2.745  27.062  14.967
67920W        W39503  17.631  18.963   3.335
67921W        W39504  42.433  12.860   2.813
67922W        W39505  24.235   3.996   1.753
67923W        W39506  38.766  19.229   1.410
67924W        W39507  23.684  44.315   0.821
67925W        W39508  11.105  34.385   1.205
67926W        W39509  13.322  32.741  14.423
67927W        W39510   4.952  44.511  14.195
67928W        W39511  29.287  22.913   0.418
67929W        W39512  19.387  22.237  11.637
67930W        W39513  28.906   5.278  13.364
67931W        W39514  28.703  12.135   4.577
67932W        W39515  21.617  33.689  12.946
67933W        W39516  12.669  41.254   3.585
67934W        W39517  14.063  40.769   1.232
67935W        W39518   6.476  30.530  14.824
67936W        W39519  42.042  41.603   3.123
67937W        W39520   9.800  44.454  13.416
67938W        W39521  10.172   2.454   0.688
67939W        W39522  14.612  11.713   3.914
67940W        W39523  26.641  44.072  12.898
67941W        W39524  32.648  36.814   4.665
67942W        W39525  16.003  29.989   4.783
67943W        W39526  37.360  27.952  13.497
67944W        W39527  43.398  34.122   2.289
67945W        W39528  15.009  11.784   4.276
67946W        W39529  44.479   5.626  12.877
67947W        W39530  16.233  17.044  12.508
67948W        W39531  38.396  26.674   4.611
67949W        W39532  29.624   6.614  11.143
67950W        W39533  36.499  42.758  11.473
67951W        W39534  38.489  35.794   0.513
67952W        W39535  29.173  29.089  12.520
67953W        W39536  24.423  12.586  12.435
67954W        W39537  36.267  42.836   4.224
67955W        W39538  10.838  15.978  10.540
67956W        W39539  44.518  40.044  11.927
67957W        W39540  35.886   3.192  11.506
67958W        W39541   1.055  13.212   2.346
67959W        W39542  33.961  36.946   0.729
67960W        W39543   1.305  31.819  10.540
67961W        W39544  20.750  43.491  14.841
67962W        W39545   0.405  40.955   0.502
67963W        W39546  11.320   6.320  13.074
67964W        W39547   2.435   0.796   4.644
67965W        W39548   0.880   4.981  11.960
67966W        W39549   6.814  21.604  13.952
67967W        W39550  21.769   5.290   0.263
67968W        W39551  19.537  32.958  11.157
67969W        W39552  34.985   5.272  13.801
67970W        W39553  17.777  25.252  11.130
67971W        W39554   0.569  40.223  13.352
67972W        W39555  18.419  29.645  12.101
67973W        W39556  38.328   5.140   1.720
67974W        W39557  15.444  44.400   2.349
67975W        W39558  13.343  26.098   4.852
67976W        W39559  21.966  15.461   3.827
67977W        W39560  23.114  20.183  12.132
67978W        W39561  17.758  31.998   4.400
67979W        W39562  17.358  12.732  10.828
67980W        W39563  27.635   6.108   1.000
67981W        W39564  36.863  29.446  13.039
67982W        W39565  37.850   4.284  14.953
67983W        W39566   5.018  41.944   1.425
67984W        W39567  41.999  36.571  12.894
67985W        W39568   3.249  11.436   0.388
67986W        W39569  37.526  10.651  12.052
67987W        W39570  41.002  19.456   0.885
67988W        W39571  23.084  31.443  14.784
67989W        W39572  31.457  23.914  14.959
67990W        W39573  22.968   0.661  12.402
67991W        W39574  30.564  12.340   4.695
67992W        W39575  43.807  42.582   4.554
67993W        W39576  35.103  21.791   0.389
67994W        W39577  38.627  23.689  11.681
67995W        W39578  34.285  14.101   4.392
67996W        W39579  43.873  25.663   1.270
67997W        W39580   7.806  22.029  11.622
67998W        W39581   6.795  21.845  14.388
67999W        W39582  16.049  32.140   0.717
68000W        W39583  27.225  11.611  14.015
68001W        W39584  25.070  37.749   0.025
68002W        W39585  17.676  23.417  14.882
68003W        W39586  26.547  34.332   0.683
68004W        W39587  18.625  30.948   4.222
68005W        W39588  25.507  14.291  11.425
68006W        W39589  24.573  40.399   0.845
68007W        W39590  11.245  34.368   0.369
68008W        W39591   0.038   1.690  13.914
68009W        W39592  31.939  34.386   1.411
68010W        W39593  15.294  36.655   3.336
68011W        W39594  14.072  17.679   2.783
68012W        W39595  44.689  33.065   3.816
68013W        W39596   8.815  15.680   4.488
68014W        W39597  20.158  32.184  14.015
68015W        W39598  29.876  29.755  14.034
68016W        W39599  39.821  29.587  10.745
68017W        W39600   9.706  40.128   2.859
68018W        W39601  22.944  20.537  14.297
68019W        W39602  14.257  24.607   0.860
68020W        W39603  41.890  21.509  13.552
68021W        W39604  23.298  35.429   3.723
68022W        W39605  35.375  16.051  11.337
68023W        W39606  37.577  23.772   1.809
68024W        W39607  32.719  10.170  11.621
68025W        W39608  21.491   2.297  10.454
68026W        W39609  10.647  18.568   3.966
68027W        W39610  36.366  26.974  14.744
68028W        W39611  38.357  44.039   0.878
68029W        W39612   9.745  26.948  10.735
68030W        W39613  43.407  11.879  13.486
68031W        W39614  42.704   5.394  12.502
68032W        W39615  41.273  30.429   2.173
68033W        W39616   8.597  28.451   4.714
68034W        W39617  28.151  11.311   1.970
68035W        W39618  12.876   6.991  13.835
68036W        W39619  17.451  26.531   3.848
68037W        W39620  41.187  42.915  10.297
68038W        W39621  44.793  19.754   1.223
68039W        W39622  24.529  35.544   4.682
68040W        W39623   2.257  41.044  13.457
68041W        W39624  35.372   1.021   1.186
68042W        W39625  20.447   6.472   1.164
68043W        W39626  21.756   1.941   0.965
68044W        W39627  20.879   0.722   2.667
68045W        W39628  21.564  10.908  11.500
68046W        W39629   4.098  37.141   1.518
68047W        W39630  26.141  38.365  11.975
68048W        W39631  33.316  28.441   0.359
68049W        W39632  37.471  25.537   3.765
68050W        W39633  34.390  32.700  11.599
68051W        W39634  36.109  34.362  14.357
68052W        W39635  15.558  33.089  13.071
68053W        W39636  15.139   7.216   5.154
68054W        W39637  30.488  29.219  12.906
68055W        W39638  21.201  13.781   2.794
68056W        W39639  19.707  35.604   1.878
68057W        W39640  41.372  18.111   3.425
68058W        W39641  22.908  11.147   0.735
68059W        W39642  40.876   3.984   0.759
68060W        W39643  14.773  24.170  11.209
68061W        W39644  40.888  32.660  13.578
68062W        W39645  34.460  25.444   3.946
68063W        W39646  27.412  41.455  11.612
68064W        W39647  36.940  38.421  10.458
68065W        W39648  27.440  31.406  12.507
68066W        W39649  12.761   4.032   2.617
68067W        W39650  14.214   2.883   0.162
68068W        W39651  24.141  29.076   2.037
68069W        W39652  29.442   7.886  11.549
68070W        W39653  21.003  16.622   3.651
68071W        W39654  19.166  38.801  12.903
68072W        W39655  25.614  37.111   4.611
68073W        W39656  31.125  30.639   1.211
68074W        W39657  16.725  28.068  11.721
68075W        W39658  28.245  41.730   3.700
68076W        W39659   9.966   6.799   1.716
68077W        W39660  27.771  42.375  13.345
68078W        W39661  30.958  27.899   0.747
68079W        W39662  26.629  35.627  13.554
68080W        W39663  28.729  26.217   1.232
68081W        W39664   8.069  31.483   4.563
68082W        W39665   7.303  25.600  12.795
68083W        W39666  21.588  12.758   2.872
68084W        W39667   1.633  20.654   2.827
68085W        W39668   3.789  18.810  10.786
68086W        W39669  28.121   7.742  11.013
68087W        W39670  31.963  36.116  13.946
68088W        W39671   9.113  38.422   4.906
68089W        W39672  23.453  39.741  12.034
68090W        W39673   2.340  37.479   1.051
68091W        W39674   5.699  27.741  10.749
68092W        W39675  12.280  35.817   1.042
68093W        W39676  41.869  16.652  11.839
68094W        W39677  44.211  39.519   2.220
68095W        W39678  18.770  29.703   4.605
68096W        W39679  44.324  16.070   3.034
68097W        W39680  16.018  23.149   4.273
68098W        W39681  14.334  41.554   2.297
68099W        W39682  20.474  25.569   4.097
68100W        W39683  26.153  38.762   3.760
68101W        W39684  36.971  40.328   0.014
68102W        W39685  42.427  39.713   4.546
68103W        W39686  11.970  34.408   4.206
68104W        W39687  31.824  12.640  13.282
68105W        W39688  15.195  23.494  12.820
68106W        W39689  38.247  34.474  11.041
68107W        W39690  24.545  15.236  10.330
68108W        W39691  25.541   5.046  14.746
68109W        W39692   9.842  24.605  11.632
68110W        W39693  33.987  34.175  10.917
68111W        W39694   4.415   3.465   4.537
68112W        W39695   4.977  29.235   4.090
68113W        W39696  17.737  41.268  14.422
68114W        W39697  14.374  36.814   4.617
68115W        W39698   4.177  39.528  14.533
68116W        W39699  43.956  19.282   0.402
68117W        W39700  38.358  30.993   1.917
68118W        W39701  15.584   3.516   0.245
68119W        W39702  38.542  41.603   1.402
68120W        W39703   5.909  22.263  13.370
68121W        W39704  12.892  25.068  13.326
68122W        W39705  36.443  21.692   4.532
68123W        W39706  29.103  15.136  12.946
68124W        W39707  24.895  25.996   2.577
68125W        W39708  17.189  17.618  13.375
68126W        W39709   6.268  13.033  12.074
68127W        W39710  39.522  31.581  12.081
68128W        W39711  19.747   2.563   4.758
68129W        W39712  20.625   4.936   0.356
68130W        W39713   8.849  17.115  12.744
68131W        W39714  35.908  25.186   4.266
68132W        W39715  18.833  38.302   3.330
68133W        W39716  14.422  42.552  12.088
68134W        W39717  21.275   7.130  12.097
68135W        W39718  43.497  27.241   1.696
68136W        W39719  36.608  20.562   2.501
68137W        W39720   7.441  25.603  11.052
68138W        W39721   1.179  34.505  12.508
68139W        W39722  33.490  15.608   4.546
68140W        W39723  21.633  42.247  14.431
68141W        W39724  20.539  36.670  13.971
68142W        W39725   9.805  36.328   2.915
68143W        W39726  40.893   6.461   0.731
68144W        W39727  27.006  41.403  11.958
68145W        W39728  32.168   0.379   2.385
68146W        W39729  30.632   5.458   1.702
68147W        W39730  43.972  41.590   0.221
68148W        W39731  11.307  10.084   2.888
68149W        W39732  41.848  10.825   4.665
68150W        W39733  44.763   9.598  13.583
68151W        W39734  44.061  43.399  11.143
68152W        W39735  23.753  41.431  12.072
68153W        W39736  24.069  33.997   4.585
68154W        W39737  38.766  20.548   3.728
68155W        W39738  14.197  19.483   1.450
68156W        W39739  29.375  24.682  13.031
68157W        W39740  20.019  17.463   0.046
68158W        W39741  40.665  36.507   2.221
68159W        W39742  14.770  44.280  12.604
68160W        W39743  30.903  19.269   3.326
68161W        W39744   3.544  33.872   2.297
68162W        W39745  37.122  20.774   0.964
68163W        W39746  20.091  41.266  14.374
68164W        W39747  26.530  21.952  10.280
68165W        W39748  28.155  19.327  13.954
68166W        W39749  29.345  24.512  11.903
68167W        W39750  40.738  17.326  14.213
68168W        W39751  32.543  20.348  10.436
68169W        W39752   1.656   1.790  12.568
68170W        W39753  22.096  12.795  14.409
68171W        W39754   7.875   1.006   0.950
68172W        W39755  44.350  38.532   2.760
68173W        W39756   5.293  12.760   3.677
68174W        W39757  40.934  42.434   1.933
68175W        W39758  30.191  42.294  11.948
68176W        W39759   5.256   4.216   0.705
68177W        W39760  14.578  37.512  10.579
68178W        W39761  10.723   5.915  13.311
68179W        W39762   5.784   8.268   3.495
68180W        W39763   6.303   2.197   2.256
68181W        W39764  39.564  38.374   2.664
68182W        W39765  18.108  11.793   1.676
68183W        W39766  39.307  31.611   0.374
68184W        W39767  23.542  44.319   1.405
68185W        W39768  18.419  39.988   2.400
68186W        W39769   1.743  44.918  12.954
68187W        W39770  18.155  24.672  11.570
68188W        W39771  10.660  22.978   0.416
68189W        W39772  22.259   9.842  11.942
68190W        W39773   1.663  13.072   2.619
68191W        W39774  10.834  16.626  13.026
68192W        W39775  29.809  34.211   1.322
68193W        W39776  40.317   7.823  11.460
68194W        W39777  26.904   8.202   3.052
68195W        W39778  32.798  24.756  13.810
68196W        W39779  15.653  22.565  13.625
68197W        W39780  40.082   9.661  14.962
68198W        W39781   7.930  23.281   4.104
68199W        W39782  29.231  16.089   4.682
68200W        W39783  13.708  18.998  11.453
68201W        W39784  41.526   6.285  12.241
68202W        W39785  40.895   7.941  13.259
68203W        W39786  35.523  39.930   4.135
68204W        W39787   6.971  13.119  11.211
68205W        W39788  31.267  34.842   2.018
68206W        W39789  31.018  39.409   4.492
68207W        W39790   3.285  31.721   2.857
68208W        W39791   1.808  30.308  12.152
68209W        W39792  13.277   3.829  13.552
68210W        W39793  29.134  24.435  13.874
68211W        W39794  10.610   2.974  11.076
68212W        W39795  26.494  22.678  13.064
68213W        W39796  37.802  29.222  13.053
68214W        W39797  33.861   1.901   0.924
68215W        W39798   9.222  24.592  10.382
68216W        W39799  12.373   2.744   3.149
68217W        W39800  39.609  10.869  13.061
68218W        W39801  29.932  15.948  13.906
68219W        W39802  33.517  43.540   0.719
68220W        W39803   1.268  10.798   3.281
68221W        W39804  10.122  29.055   2.392
68222W        W39805  25.506   1.696  14.410
68223W        W39806   9.753  34.042  11.309
68224W        W39807  40.960  19.320  12.153
68225W        W39808   6.217   4.874   2.257
68226W        W39809   5.693  38.851   4.634
68227W        W39810  16.130   1.500  13.506
68228W        W39811  31.467   8.037   1.679
68229W        W39812  27.758   8.773  11.866
68230W        W39813  32.374   5.661  12.647
68231W        W39814  32.972   7.817   2.686
68232W        W39815   8.917  15.296   2.759
68233W        W39816  26.947  26.526   0.853
68234W        W39817  42.153  16.029   2.295
68235W        W39818  22.678  25.618   4.551
68236W        W39819  28.456   1.615   2.477
68237W        W39820  29.480   4.435  11.253
68238W        W39821  40.993  40.002   0.720
68239W        W39822  28.643  32.255  13.979
68240W        W39823  22.814  27.328  13.828
68241W        W39824  43.066  34.190   0.127
68242W        W39825   3.410   4.285   1.924
68243W        W39826   7.914  39.041   0.628
68244W        W39827  22.659  25.618  13.892
68245W        W39828  40.346  20.809   2.151
68246W        W39829  43.495  27.200   2.688
68247W        W39830  44.405   0.512  11.558
68248W        W39831   8.158  28.379  13.480
68249W        W39832   4.917  37.289  12.650
68250W        W39833   9.941  43.230   0.517
68251W        W39834   2.808   5.922   2.155
68252W        W39835   8.704  25.687   2.988
68253W        W39836  33.474  15.336   3.164
68254W        W39837  15.061  43.927   3.394
68255W        W39838  10.798  19.226  12.336
68256W        W39839   0.991  31.577   4.125
68257W        W39840  31.345  20.823   4.516
68258W        W39841  24.628  11.821   4.054
68259W        W39842  16.243  12.595   3.664
68260W        W39843  15.378  12.736   4.504
68261W        W39844  25.486  40.342  12.504
68262W        W39845  16.535  18.122   2.251
68263W        W39846  17.459  23.026  11.042
68264W        W39847   0.978  15.318   3.590
68265W        W39848  21.849  13.443  14.693
68266W        W39849  29.530  15.079   3.818
68267W        W39850  32.020  15.609   3.678
68268W        W39851  18.106  25.374  10.228
68269W        W39852  34.112  38.146  11.091
68270W        W39853  27.886  25.016  14.394
68271W        W39854  24.332  11.325  10.312
68272W        W39855  27.561  14.525   1.865
68273W        W39856  22.712   9.138   2.426
68274W        W39857  27.977  38.487  10.570
68275W        W39858  33.047  39.179   0.694
68276W        W39859  10.913  29.960   1.770
68277W        W39860  31.162  16.179  10.944
68278W        W39861  13.642   3.474   3.210
68279W        W39862  34.287  26.457  13.010
68280W        W39863  37.741  31.535   1.257
68281W        W39864  35.312  31.098   2.394
68282W        W39865  17.311  39.957  12.960
68283W        W39866  18.201  20.131  14.229
68284W        W39867  40.420  24.703  11.159
68285W        W39868   7.417  41.463  13.490
68286W        W39869  44.624  29.947  11.183
68287W        W39870  18.417   2.716   4.918
68288W        W39871  27.433   6.127   2.817
68289W        W39872  10.848  27.461  11.867
68290W        W39873  37.817  25.001   4.498
68291W        W39874  26.413  36.395   2.733
68292W        W39875  40.803  14.376   0.985
68293W        W39876  14.136   7.751   3.759
68294W        W39877  44.788  25.032  14.536
68295W        W39878  36.662  30.700   3.430
68296W        W39879  12.345  11.569  14.033
68297W        W39880  37.097  14.020   0.066
68298W        W39881   9.143  39.896   4.583
68299W        W39882  17.905  31.914  13.428
68300W        W39883   6.433  36.361   4.328
68301W        W39884  29.680  40.110  13.195
68302W        W39885   3.761  28.163   3.292
68303W        W39886   2.451  41.945  14.532
68304W        W39887   6.172  17.586   0.852
68305W        W39888  35.986   0.888   0.009
68306W        W39889   1.468  39.898   0.185
68307W        W39890  40.302   6.757   2.168
68308W        W39891   6.807  14.081  11.323
68309W        W39892  35.584  29.438   0.358
68310W        W39893   5.489  37.520   0.478
68311W        W39894  34.961  27.106  14.359
68312W        W39895  41.992  32.305   3.489
68313W        W39896  44.482  26.429  11.107
68314W        W39897  30.987   1.265   1.379
68315W        W39898  43.309   5.263   1.373
68316W        W39899  11.213  22.043   2.615
68317W        W39900   9.901  16.068  11.456
68318W        W39901  33.840  19.798   3.379
68319W        W39902  41.362  18.130   0.053
68320W        W39903  12.612   2.529   3.807
68321W        W39904  44.841  23.657  12.132
68322W        W39905  10.206  17.090  11.170
68323W        W39906  15.393  26.673   4.941
68324W        W39907  24.203  36.166   1.329
68325W        W39908  13.545  20.290  14.208
68326W        W39909  15.635  12.148  10.886
68327W        W39910  31.453  11.623  11.952
68328W        W39911  26.198  19.307  11.636
68329W        W39912  25.184  20.735   1.178
68330W        W39913   3.388   5.153   1.399
68331W        W39914  43.982  34.659   0.252
68332W        W39915  24.164  44.286  12.063
68333W        W39916  32.103  34.459   3.899
68334W        W39917   2.526  43.802   2.706
68335W        W39918   6.171  44.314  10.627
68336W        W39919  24.453   2.739  13.470
68337W        W39920  27.548  14.003  10.488
68338W        W39921  19.108  21.888   1.263
68339W        W39922  14.259  21.518   3.366
68340W        W39923  14.778  14.646  14.354
68341W        W39924  10.907  34.756  13.305
68342W        W39925   5.960  36.078   1.229
68343W        W39926  21.599   3.767  14.665
68344W        W39927   5.982  10.351   4.174
68345W        W39928   1.169  42.892  13.532
68346W        W39929  42.243  16.671  14.230
68347W        W39930  10.600  34.109   2.693
68348W        W39931  44.469  22.139   3.754
68349W        W39932  11.737  38.030  10.618
68350W        W39933  35.455  26.778   2.366
68351W        W39934   9.934  28.282   5.087
68352W        W39935  10.834  42.237  14.474
68353W        W39936  21.670  36.936   1.226
68354W        W39937  12.273  33.162   4.648
68355W        W39938   5.931  23.330  12.517
68356W        W39939  37.099  37.898  14.865
68357W        W39940  32.838  12.842  10.381
68358W        W39941  37.460  12.161  12.042
68359W        W39942  14.163  42.988  12.038
68360W        W39943  17.283  36.575   0.745
68361W        W39944  44.424   0.992   1.994
68362W        W39945   5.727  35.616   3.899
68363W        W39946  38.709  40.746  12.748
68364W        W39947  34.097  20.644   2.706
68365W        W39948  22.794  14.755  12.274
68366W        W39949  18.636  43.161  11.929
68367W        W39950  16.539  27.893   1.357
68368W        W39951  41.415   4.260   4.491
68369W        W39952  14.000  40.289   2.313
68370W        W39953  13.581  31.199  14.779
68371W        W39954   8.279  36.397   3.175
68372W        W39955   9.743   5.781   2.432
68373W        W39956   7.970   5.657   1.740
68374W        W39957  10.480  42.423   4.667
68375W        W39958   5.769  15.380  10.577
68376W        W39959  43.351  38.037  13.959
68377W        W39960   8.458  16.242   0.768
68378W        W39961  44.711   4.236  11.914
68379W        W39962  32.228  17.827   2.097
68380W        W39963  28.048   8.677  12.666
68381W        W39964  30.062   3.765   4.617
68382W        W39965  25.802   3.706  14.318
68383W        W39966  34.382  43.935   0.521
68384W        W39967  21.191  43.422  10.615
68385W        W39968  23.762  44.851   2.377
68386W        W39969  21.156  17.104   1.421
68387W        W39970  32.929  39.926   3.217
68388W        W39971  29.366  38.834  14.892
68389W        W39972  41.894  37.036  13.091
68390W        W39973   3.707  41.920   0.410
68391W        W39974  11.586  38.118  12.673
68392W        W39975  22.688   9.280   2.961
68393W        W39976  20.252  17.075  14.437
68394W        W39977  26.215  37.101   0.791
68395W        W39978  38.630  30.166  14.423
68396W        W39979   7.176  42.450  11.487
68397W        W39980  20.350  31.706  14.144
68398W        W39981   9.996   6.241  13.275
68399W        W39982  13.663  44.977   3.650
68400W        W39983  25.669   9.330   0.397
68401W        W39984  42.032  34.823   2.232
68402W        W39985  10.171  19.084   4.531
68403W        W39986  21.452  30.419  14.157
68404W        W39987  15.807  44.551   0.555
68405W        W39988  13.668   6.659   0.538
68406W        W39989   5.878   0.968   3.839
68407W        W39990  40.502   9.138   1.607
68408W        W39991  21.067  39.040   3.372
68409W        W39992  44.244  41.325  10.098
68410W        W39993   0.065   7.765  10.702
68411W        W39994  31.089  40.965  14.948
68412W        W39995  25.932   4.029  12.633
68413W        W39996  29.050  31.871  13.038
68414W        W39997  15.035  35.263   3.698
68415W        W39998  25.238  13.673  14.393
68416W        W39999   7.167   5.406   4.204
68417W        W40000   8.067  20.131  13.592
68418W        W40001  34.855  21.542   4.561
68419W        W40002  23.698  44.156  12.194
68420W        W40003  14.343  42.333  14.290
68421W        W40004  16.191  35.648   0.957
68422W        W40005  39.009  21.591   0.820
68423W        W40006  25.734  29.701  14.777
68424W        W40007   1.934  34.592   1.740
68425W        W40008  26.758   4.246  13.008
68426W        W40009  25.545  24.708  10.468
68427W        W40010  32.045  10.637  10.686
68428W        W40011   7.741   8.336   2.323
68429W        W40012  13.628  21.263  11.082
68430W        W40013   2.143  40.922   4.589
68431W        W40014  19.797   2.932   2.762
68432W        W40015  29.080  22.035   1.304
68433W        W40016  15.096  14.844  13.978
68434W        W40017  20.379  43.410  10.371
68435W        W40018  37.992  29.589  13.473
68436W        W40019  30.173  17.007  11.563
68437W        W40020  25.315   8.295  12.497
68438W        W40021  21.176  20.286  12.438
68439W        W40022   8.589  13.101  14.548
68440W        W40023  18.714  44.292   1.324
68441W        W40024  28.703  34.531  12.861
68442W        W40025  14.091  21.059  14.519
68443W        W40026   3.252  39.970  11.488
68444W        W40027   5.204  25.998  11.153
68445W        W40028   2.361  39.057   4.161
68446W        W40029  29.467  25.086   1.821
68447W        W40030  31.863  21.747   4.509
68448W        W40031   7.961  44.224   3.659
68449W        W40032  29.796  26.612   4.518
68450W        W40033  23.155  10.623  13.987
68451W        W40034  28.552  39.199  14.706
68452W        W40035  14.358  10.347   0.039
68453W        W40036  35.936  31.124   1.330
68454W        W40037  39.759   3.280   2.697
68455W        W40038  33.921  22.475  11.098
68456W        W40039  33.392   1.258   4.268
68457W        W40040  42.349  35.625   0.206
68458W        W40041  35.079  34.352   1.408
68459W        W40042  25.150  17.874  14.292
68460W        W40043  29.884  42.037   2.226
68461W        W40044  11.946  29.673   5.050
68462W        W40045  34.005  23.775  12.626
68463W        W40046  20.036  40.481  11.495
68464W        W40047  38.737  10.765   2.665
68465W        W40048  38.888  22.092  12.484
68466W        W40049  15.292  13.188   2.232
68467W        W40050  23.270   8.438   2.114
68468W        W40051   6.983  38.554   0.013
68469W        W40052   9.317  17.727   1.717
68470W        W40053  28.153  43.050  12.512
68471W        W40054  38.400  25.889   4.185
68472W        W40055  20.357   2.861   1.927
68473W        W40056  27.510  25.776   2.449
68474W        W40057   8.172  38.911   1.412
68475W        W40058  17.024  13.969   0.280
68476W        W40059  31.550  42.126  13.451
68477W        W40060  10.490  18.181  12.913
68478W        W40061  13.820  22.409   0.011
68479W        W40062   9.882   8.638  13.863
68480W        W40063  18.686  17.069  12.840
68481W        W40064  28.115  20.665   1.140
68482W        W40065  33.126  11.119   4.641
68483W        W40066  26.456   4.767  10.303
68484W        W40067  31.309  30.671   5.075
68485W        W40068  29.704  39.569  10.837
68486W        W40069  32.435  24.318   3.835
68487W        W40070  33.816  19.291  14.892
68488W        W40071  39.519   5.405  12.036
68489W        W40072   9.816  28.526   4.164
68490W        W40073  12.114   3.231  11.514
68491W        W40074  25.325  32.798   1.715
68492W        W40075   7.486   8.277   4.931
68493W        W40076  16.587  15.174   3.767
68494W        W40077  37.481  39.664  13.431
68495W        W40078  26.515  33.635   1.229
68496W        W40079   7.875  27.374  12.950
68497W        W40080  22.600   3.538  11.729
68498W        W40081  43.221  24.783   0.801
68499W        W40082  37.302  20.947   4.115
68500W        W40083   6.697  20.048  14.031
68501W        W40084   8.892  20.944   2.697
68502W        W40085  15.459  37.346  14.002
68503W        W40086  39.884  10.031  13.454
68504W        W40087  15.066  38.511  12.644
68505W        W40088  29.423  36.032   2.718
68506W        W40089  23.480   4.846   2.839
68507W        W40090  27.247  32.967   3.354
68508W        W40091  19.100  43.687  13.377
68509W        W40092  38.509  19.038  12.767
68510W        W40093  20.338   4.706  10.338
68511W        W40094  31.150  33.417  12.917
68512W        W40095  28.589  30.511   2.393
68513W        W40096   8.150  23.117  14.990
68514W        W40097  35.046  14.349   1.829
68515W        W40098  18.530  27.423   4.574
68516W        W40099  27.562  23.452   0.034
68517W        W40100  32.345  33.266  13.381
68518W        W40101  40.388  18.619   2.767
68519W        W40102   2.267   7.298   3.625
68520W        W40103   4.185   5.775  13.584
68521W        W40104  12.792  40.628   2.924
68522W        W40105  14.563   6.838  13.142
68523W        W40106  24.132   7.374   2.672
68524W        W40107  14.678   4.734  12.384
68525W        W40108  26.153  44.967   0.028
68526W        W40109  30.508  32.251   3.580
68527W        W40110  25.917  36.559   2.263
68528W        W40111   1.223  16.665   0.725
68529W        W40112  36.441  33.687   2.276
68530W        W40113   0.423  35.537  12.857
68531W        W40114  12.725  40.220   0.943
68532W        W40115  39.782  15.027  11.627
68533W        W40116  33.390  17.117   0.439
68534W        W40117  13.438  38.097   3.758
68535W        W40118  29.738   9.685  11.855
68536W        W40119   7.860   2.898  10.742
68537W        W40120  20.168  13.078   1.497
68538W        W40121  12.257  23.054   2.594
68539W        W40122   2.733   8.296  14.770
68540W        W40123   2.395   5.835  13.068
68541W        W40124   4.608  23.629  14.845
68542W        W40125  41.810  11.207  10.776
68543W        W40126  32.898  38.523   4.773
68544W        W40127  39.927  26.267   3.117
68545W        W40128  18.395  41.454   4.796
68546W        W40129   0.236  27.465   2.284
68547W        W40130   6.956   3.577  12.264
68548W        W40131  38.004  10.504  10.949
68549W        W40132   2.366  37.939  14.846
68550W        W40133   0.433   0.267   4.109
68551W        W40134  11.853  15.824   2.739
68552W        W40135  35.222  30.128  13.995
68553W        W40136  21.771  39.480   4.420
68554W        W40137  44.136  38.919  13.331
68555W        W40138  24.078  34.536   4.548
68556W        W40139  11.876  23.758  12.139
68557W        W40140  13.992  42.289   3.182
68558W        W40141   0.222   7.770   0.299
68559W        W40142   3.278  11.310  14.868
68560W        W40143   9.900   2.297  13.902
68561W        W40144  36.915  13.231  12.548
68562W        W40145  20.530   3.902   1.382
68563W        W40146  26.072   5.660  14.965
68564W        W40147  26.253  13.246  14.876
68565W        W40148   9.739   4.975   4.515
68566W        W40149  41.861   3.873   1.873
68567W        W40150  43.019   2.732  10.668
68568W        W40151   8.675   7.412  13.957
68569W        W40152  14.905  20.131  13.609
68570W        W40153  25.690   2.700   0.726
68571W        W40154  19.467  16.437  12.992
68572W        W40155  17.287  37.462  10.194
68573W        W40156  18.100   8.180   2.200
68574W        W40157  36.017  43.027   0.400
68575W        W40158  11.731  34.824   3.979
68576W        W40159  39.860  36.808   0.792
68577W        W40160  40.695   6.828   5.467
68578W        W40161  29.375  35.429  12.508
68579W        W40162  33.548  21.710   0.483
68580W        W40163  39.956  35.684  14.736
68581W        W40164  16.115  38.252  11.625
68582W        W40165  14.550  10.350   3.407
68583W        W40166  14.315   9.984   4.314
68584W        W40167  28.649  30.384  12.886
68585W        W40168  38.816  13.753  13.449
68586W        W40169  17.000  44.130   0.881
68587W        W40170  35.370  41.987   3.565
68588W        W40171   6.846   4.213   1.238
68589W        W40172  24.261  17.295   1.474
68590W        W40173  20.763  14.288   0.729
68591W        W40174  24.402  16.205  11.443
68592W        W40175  36.563  35.406   1.289
68593W        W40176  33.164  22.126   0.302
68594W        W40177  32.458  25.768   0.303
68595W        W40178  34.655  14.600  10.627
68596W        W40179   3.041  26.720   0.204
68597W        W40180  36.525  26.495  13.844
68598W        W40181   0.853  27.945  10.320
68599W        W40182   3.249  21.005   2.351
68600W        W40183  34.316  17.864  12.526
68601W        W40184  37.872  23.312  13.982
68602W        W40185   1.003  38.260   4.566
68603W        W40186   3.158  26.987  10.808
68604W        W40187  33.121   8.625  11.948
68605W        W40188   8.383  27.795   1.600
68606W        W40189  17.871   0.458   1.759
68607W        W40190  32.571  12.018  14.816
68608W        W40191  24.423  18.333   2.056
68609W        W40192  35.341   6.773  14.894
68610W        W40193   2.100  37.923  10.114
68611W        W40194   8.843  43.481   4.628
68612W        W40195  12.053  12.234  12.427
68613W        W40196  26.685  15.969   2.824
68614W        W40197  12.889  42.938   4.866
68615W        W40198  40.270  42.770  13.720
68616W        W40199   1.080   4.298   2.987
68617W        W40200  20.476  42.353   2.298
68618W        W40201  35.113  32.336   4.548
68619W        W40202  28.858   4.644   2.422
68620W        W40203  25.906   1.305  13.073
68621W        W40204  25.097   4.360   2.191
68622W        W40205  40.781  34.897   2.843
68623W        W40206  16.044  33.832   0.287
68624W        W40207   7.486  15.720  14.655
68625W        W40208  30.007  33.217  12.503
68626W        W40209  35.707   2.853  13.970
68627W        W40210  27.778  40.315   2.143
68628W        W40211  18.067   3.515  11.543
68629W        W40212  18.615  42.453   0.801
68630W        W40213  23.186  37.170  12.085
68631W        W40214  30.793  35.476   4.917
68632W        W40215  37.490  21.640   4.684
68633W        W40216  21.489  29.027  14.477
68634W        W40217  32.913  23.303   3.363
68635W        W40218  30.127   1.442  11.158
68636W        W40219  18.242  36.593   1.701
68637W        W40220  37.701  30.100  11.841
68638W        W40221  23.519  26.162  13.914
68639W        W40222   0.932  20.964  13.929
68640W        W40223   5.309  43.023  11.982
68641W        W40224  12.476  13.610   1.968
68642W        W40225  32.567  44.323   3.456
68643W        W40226  11.244  15.113  14.164
68644W        W40227  19.176   2.963  13.602
68645W        W40228   9.243  32.025   0.879
68646W        W40229  13.101  30.137  11.186
68647W        W40230   4.849  41.486  11.455
68648W        W40231  17.849  23.198   0.320
68649W        W40232  31.979   3.441   0.858
68650W        W40233  38.558   8.609  14.502
68651W        W40234  31.589  26.620   0.681
68652W        W40235  36.154  18.675  13.370
68653W        W40236   0.343  33.174   4.439
68654W        W40237   3.310   0.631   1.766
68655W        W40238   3.199  34.346  14.411
68656W        W40239   6.498   5.529  14.365
68657W        W40240  15.741  40.638  11.146
68658W        W40241  32.131  13.123   5.015
68659W        W40242  43.480   7.274   3.725
68660W        W40243  33.581  28.538   0.850
68661W        W40244  10.321  31.983   2.317
68662W        W40245  36.952  15.065   3.626
68663W        W40246  32.685  27.152   2.747
68664W        W40247  34.037  21.200   1.255
68665W        W40248  20.583  20.997   3.208
68666W        W40249  10.599  11.295   3.553
68667W        W40250  42.268  12.422   0.970
68668W        W40251   7.734  23.237   2.225
68669W        W40252  39.996  37.152  11.118
68670W        W40253  17.590  10.332   1.805
68671W        W40254  17.032  33.134   1.855
68672W        W40255  38.052  15.569  11.189
68673W        W40256  42.657  29.750   2.365
68674W        W40257  24.349   7.858  11.013
68675W        W40258   9.861   7.004  10.759
68676W        W40259  16.110  39.503  13.411
68677W        W40260  41.445  18.273   1.800
68678W        W40261  36.657  30.000   3.048
68679W        W40262  19.219  19.779  10.655
68680W        W40263  42.377   3.857   1.911
68681W        W40264   3.352  38.060   4.585
68682W        W40265  42.034  25.120   3.530
68683W        W40266  22.205   0.683  11.695
68684W        W40267  17.001  31.189   0.286
68685W        W40268  17.655  12.287  13.605
68686W        W40269  11.296  43.366   0.186
68687W        W40270  18.782  13.540   2.770
68688W        W40271  31.911  36.985  10.759
68689W        W40272  21.749  30.251   9.768
68690W        W40273  31.964   0.810  14.472
68691W        W40274  20.194  25.857   5.243
68692W        W40275  19.957  33.587  14.216
68693W        W40276  41.267  30.139   2.827
68694W        W40277  33.666  21.294   3.103
68695W        W40278  38.450  37.297   4.126
68696W        W40279  44.544   5.756  11.362
68697W        W40280  44.378  31.469  11.125
68698W        W40281  17.857  44.504   4.468
68699W        W40282   0.071  41.723   3.730
68700W        W40283  25.983  31.962  14.835
68701W        W40284  11.281  20.593   2.417
68702W        W40285   7.127  12.623   4.697
68703W        W40286   4.606  18.171  11.582
68704W        W40287  21.655  27.580  14.289
68705W        W40288  21.694  21.779  13.101
68706W        W40289  14.736  25.033  14.072
68707W        W40290  29.602  27.734   4.283
68708W        W40291  32.937  12.439   0.845
68709W        W40292   8.298  21.225   1.469
68710W        W40293   7.650  24.678  13.293
68711W        W40294  21.723  36.680  12.857
68712W        W40295   3.238  13.883  13.931
68713W        W40296  34.360  41.597  13.367
68714W        W40297  10.369  32.556   2.713
68715W        W40298  44.482  24.599   4.201
68716W        W40299  22.011  23.229   3.663
68717W        W40300  14.831   3.542   3.557
68718W        W40301   7.087  35.052  14.246
68719W        W40302   0.395  18.480   1.296
68720W        W40303  20.504  36.219  12.108
68721W        W40304  23.554  27.544  12.153
68722W        W40305  17.580  36.548   4.831
68723W        W40306   6.783  40.560   1.313
68724W        W40307   4.085   5.358  11.733
68725W        W40308  15.169  30.892  14.394
68726W        W40309  20.647  32.866   2.224
68727W        W40310  17.682  10.955   2.756
68728W        W40311  16.781  19.663   4.948
68729W        W40312  13.926  37.903   4.122
68730W        W40313  20.995  42.274  14.348
68731W        W40314   8.828  16.686   2.861
68732W        W40315   9.095   8.765  11.700
68733W        W40316  32.069  35.301  10.869
68734W        W40317   4.720  16.040  11.743
68735W        W40318   8.338  33.298   1.232
68736W        W40319   3.796   1.835   0.894
68737W        W40320  39.088  36.336   1.964
68738W        W40321  12.648   3.268  10.961
68739W        W40322  19.151   3.281   0.028
68740W        W40323  21.769   9.224   0.943
68741W        W40324  37.559  30.837   0.313
68742W        W40325  30.948  37.740  12.961
68743W        W40326  32.172  42.683   1.833
68744W        W40327  39.571  32.052   0.315
68745W        W40328  34.128  39.442   2.001
68746W        W40329  27.193   3.984  11.617
68747W        W40330  20.084  16.203   3.746
68748W        W40331  19.873  44.665   0.785
68749W        W40332  19.586  13.261  13.845
68750W        W40333  35.497  22.609   4.691
68751W        W40334  12.544  26.173   2.869
68752W        W40335  20.271  16.693  14.052
68753W        W40336  24.691  41.453  14.823
68754W        W40337  11.775   3.153   2.826
68755W        W40338  30.132   3.503  12.039
68756W        W40339  25.737  20.443   2.698
68757W        W40340  25.982  10.852   0.952
68758W        W40341   6.722  25.271   4.156
68759W        W40342  30.931  12.861   3.166
68760W        W40343  31.460  20.609   0.018
68761W        W40344  17.732  15.242   0.990
68762W        W40345  43.335  17.102  12.129
68763W        W40346   1.220  13.115   1.212
68764W        W40347  31.408  33.607  11.584
68765W        W40348   4.848  37.241   3.239
68766W        W40349  10.879   7.272  14.868
68767W        W40350   6.935  22.156   1.794
68768W        W40351  13.275  16.867   1.944
68769W        W40352  18.478   0.432   4.785
68770W        W40353  25.251  20.964  14.399
68771W        W40354   0.423  16.891  14.334
68772W        W40355  15.559  12.701  11.460
68773W        W40356   9.935  16.071  13.617
68774W        W40357  31.370  38.506  11.133
68775W        W40358   5.228   4.687   0.918
68776W        W40359  13.171  34.051   4.371
68777W        W40360  15.198  13.762   2.766
68778W        W40361  19.823   2.370  14.276
68779W        W40362   7.899  26.419  11.246
68780W        W40363   7.874   6.820  10.584
68781W        W40364  22.603   0.993  11.583
68782W        W40365   7.111   3.785   3.367
68783W        W40366  42.551   9.343   1.696
68784W        W40367  11.866   9.656  11.082
68785W        W40368  27.422   2.346  13.620
68786W        W40369   3.664  30.608  13.941
68787W        W40370  38.902  17.253   3.206
68788W        W40371  20.399  12.608   0.231
68789W        W40372  13.255   5.739   0.023
68790W        W40373  10.208  29.753   2.777
68791W        W40374  30.537   2.773  12.102
68792W        W40375  15.645   5.256   4.164
68793W        W40376  23.705  34.328   2.757
68794W        W40377  42.066  35.735  11.526
68795W        W40378  24.600  17.639   5.136
68796W        W40379  27.475  37.728   0.516
68797W        W40380  21.271   4.908  12.570
68798W        W40381   3.241   1.948   1.359
68799W        W40382   5.316   0.561   0.806
68800W        W40383  44.844   1.838  11.179
68801W        W40384  32.519  44.784  14.041
68802W        W40385  18.342  13.253   1.741
68803W        W40386  23.239  26.171  14.450
68804W        W40387   7.276  31.830   1.873
68805W        W40388  15.651  20.231   4.196
68806W        W40389  32.881  14.156   0.311
68807W        W40390  24.153   7.810   2.999
68808W        W40391  13.256   1.331  14.714
68809W        W40392  15.763  29.238   1.289
68810W        W40393  20.920  26.759   4.600
68811W        W40394  37.900  21.932  14.280
68812W        W40395  27.446  21.762  13.485
68813W        W40396  18.666  37.023  13.130
68814W        W40397  11.313  35.459  14.000
68815W        W40398  20.773  10.294  10.238
68816W        W40399   9.938  33.565  11.439
68817W        W40400   7.998  27.020   2.841
68818W        W40401  29.899   3.743   0.068
68819W        W40402  14.803  13.787  13.266
68820W        W40403  43.509   3.301  12.201
68821W        W40404  40.561   2.756   0.771
68822W        W40405  32.996  24.546   1.002
68823W        W40406  19.201  27.527   1.247
68824W        W40407  35.705  13.947  13.280
68825W        W40408   6.386   4.701  12.882
68826W        W40409  10.097  25.101   3.244
68827W        W40410  23.150   9.607  11.675
68828W        W40411  28.690  29.864   3.710
68829W        W40412  36.650   9.938   2.176
68830W        W40413   7.924  21.278   1.890
68831W        W40414  42.452  15.603   2.232
68832W        W40415  38.686  32.677   3.315
68833W        W40416  21.736   4.999  14.090
68834W        W40417   9.358  44.742  14.051
68835W        W40418  25.961  15.895  12.149
68836W        W40419  16.743  28.696  11.962
68837W        W40420  18.997  39.388  13.922
68838W        W40421  24.238  13.710  10.808
68839W        W40422  42.063  17.385   5.142
68840W        W40423  42.991  25.085   1.364
68841W        W40424  12.397  12.888   1.342
68842W        W40425  40.085  12.861   1.955
68843W        W40426  10.286  19.519   3.162
68844W        W40427  30.978  26.084  14.274
68845W        W40428  17.508  20.978  10.696
68846W        W40429  23.625   8.790   1.917
68847W        W40430  17.107  13.194   4.004
68848W        W40431  20.165  33.362  11.864
68849W        W40432  13.889  21.442  11.468
68850W        W40433  10.517   7.916   2.688
68851W        W40434   5.378  19.364  11.197
68852W        W40435  19.904  30.719  10.654
68853W        W40436  25.169   3.500   3.286
68854W        W40437  20.230  23.634   1.016
68855W        W40438   6.260  23.555   0.693
68856W        W40439  16.935   3.543  14.651
68857W        W40440   4.984  29.415  12.096
68858W        W40441  22.639  17.102  13.616
68859W        W40442  14.338  43.264  14.013
68860W        W40443  23.272  12.621   4.541
68861W        W40444   5.391   6.746   4.161
68862W        W40445  19.050  36.291  12.752
68863W        W40446  11.886   5.765  12.069
68864W        W40447   6.775  30.757   1.990
68865W        W40448  32.664  19.697   0.330
68866W        W40449   9.091  16.288  14.367
68867W        W40450  26.060   5.450  12.589
68868W        W40451   9.197  29.915   3.892
68869W        W40452   3.809  15.134   3.451
68870W        W40453   1.661  32.963  14.423
68871W        W40454  34.677  39.473   4.175
68872W        W40455   4.195   4.748  11.105
68873W        W40456  23.498  30.952   1.295
68874W        W40457  41.052  31.867  12.530
68875W        W40458  10.965  29.110  11.588
68876W        W40459  18.959  42.040   0.741
68877W        W40460  15.384  16.745  14.296
68878W        W40461  40.389  13.157   0.674
68879W        W40462  41.848  41.209  11.661
68880W        W40463   4.328  15.624  10.120
68881W        W40464  14.742  18.877  13.832
68882W        W40465  42.686  24.973   4.308
68883W        W40466  13.264  19.488  12.971
68884W        W40467  16.844   4.347  12.452
68885W        W40468  38.045  27.098  10.670
68886W        W40469  27.782  17.044   1.312
68887W        W40470  11.124   9.317  14.096
68888W        W40471  27.668  33.030  11.055
68889W        W40472  29.947  21.681   1.379
68890W        W40473  17.911  38.039  13.401
68891W        W40474  11.631  10.362  11.948
68892W        W40475  44.267  44.498   4.552
68893W        W40476   1.325   5.862  11.108
68894W        W40477  31.193  41.797   4.106
68895W        W40478  24.469  37.612  13.832
68896W        W40479  25.393  13.672   3.773
68897W        W40480  43.762  38.269  13.710
68898W        W40481   3.993   7.297  14.425
68899W        W40482   1.983  15.603  11.393
68900W        W40483  37.380  36.052  10.729
68901W        W40484  40.497  27.100   0.390
68902W        W40485  30.195  38.825  11.215
68903W        W40486   3.735  12.933   4.140
68904W        W40487  10.792  44.497   0.896
68905W        W40488  16.155  23.037   3.761
68906W        W40489  29.487  29.466  13.880
68907W        W40490  12.380  31.905  10.736
68908W        W40491  13.628  18.133  14.426
68909W        W40492  39.818   9.270  14.751
68910W        W40493  44.750  16.503   1.884
68911W        W40494  10.776  26.600   2.241
68912W        W40495  34.904  29.174   4.971
68913W        W40496  24.110   9.353   3.171
68914W        W40497  11.407   9.294   0.537
68915W        W40498  44.091   2.412  12.979
68916W        W40499   3.294   2.584  14.953
68917W        W40500  14.622  31.976  11.087
68918W        W40501   6.703  41.794  14.004
68919W        W40502  14.998  11.752   1.699
68920W        W40503   3.538  13.273  11.670
68921W        W40504  35.082  43.699   3.188
68922W        W40505  27.688  11.083   1.775
68923W        W40506  10.736  44.441  13.329
68924W        W40507  35.922  35.892   2.332
68925W        W40508  31.697  38.807   2.861
68926W        W40509  41.095   7.114  12.942
68927W        W40510  13.287  36.535   3.681
68928W        W40511  29.433   8.137   2.577
68929W        W40512  24.219  30.048  13.465
68930W        W40513  11.920   9.155  11.584
68931W        W40514  32.899  15.569   0.103
68932W        W40515  16.031  18.300   4.465
68933W        W40516  39.456  28.703  12.951
68934W        W40517  31.213  27.492   0.971
68935W        W40518  34.387  30.528  10.824
68936W        W40519  44.199  14.133   1.834
68937W        W40520  11.136   6.969  12.848
68938W        W40521  39.102   6.630   3.316
68939W        W40522  19.475  26.567  10.732
68940W        W40523  33.509  26.441   2.883
68941W        W40524  13.432  10.642   4.198
68942W        W40525  18.988  32.774  12.876
68943W        W40526  10.832  31.704   4.652
68944W        W40527  20.140  28.253  10.019
68945W        W40528  16.248  19.522  10.784
68946W        W40529  14.051  15.028   5.118
68947W        W40530  14.704   2.977  10.779
68948W        W40531   5.758   2.820   4.218
68949W        W40532  33.864  25.647   0.226
68950W        W40533  37.371   7.826   3.273
68951W        W40534  14.287  39.909   3.912
68952W        W40535  24.695   0.238   4.155
68953W        W40536   6.132   5.247   0.923
68954W        W40537  31.545  40.791   2.951
68955W        W40538  44.937  11.315   2.321
68956W        W40539  44.817   3.172   2.944
68957W        W40540  14.977  33.426  12.648
68958W        W40541  15.214  12.229   3.864
68959W        W40542  15.078  12.854  14.223
68960W        W40543   3.792  20.209  11.548
68961W        W40544  22.451  41.132  12.558
68962W        W40545  34.427  38.962  13.527
68963W        W40546  21.083  17.238   2.954
68964W        W40547   1.632  38.080   2.689
68965W        W40548  25.240  38.984  12.643
68966W        W40549  18.300  27.407   0.376
68967W        W40550  11.256   0.268   1.820
68968W        W40551  43.784   1.727   1.860
68969W        W40552   9.277  42.833   4.082
68970W        W40553  19.196  29.910   5.057
68971W        W40554   5.941  23.689   2.577
68972W        W40555   3.232   4.857  13.149
68973W        W40556  12.941  43.669   3.250
68974W        W40557  21.719  15.786  12.912
68975W        W40558  13.189  14.230   4.114
68976W        W40559  27.519  26.515  13.127
68977W        W40560  39.373  39.009  11.052
68978W        W40561  29.084  14.512   4.454
68979W        W40562  19.984  35.572   3.782
68980W        W40563   8.186   6.435  12.579
68981W        W40564  32.649  14.794   2.326
68982W        W40565  38.338  37.862   3.603
68983W        W40566  16.305  30.036   1.766
68984W        W40567  40.971  35.621   1.815
68985W        W40568  35.901  28.975   0.058
68986W        W40569  16.385  41.342  14.300
68987W        W40570  31.489   2.937   3.255
68988W        W40571  28.852  42.241   1.320
68989W        W40572  10.776  20.153  14.245
68990W        W40573  21.366  37.582  11.003
68991W        W40574  19.221  14.562  10.606
68992W        W40575  41.347   1.583  11.618
68993W        W40576  30.045  32.723   5.341
68994W        W40577  10.373  35.254   1.769
68995W        W40578  17.796  26.654  13.887
68996W        W40579  10.316  29.151   3.630
68997W        W40580  32.618  39.093  11.006
68998W        W40581  40.064  42.547  14.135
68999W        W40582   1.211  17.324  12.255
69000W        W40583   0.975  11.270  13.799
69001W        W40584   2.766  40.388  14.285
69002W        W40585  27.721   7.207   4.141
69003W        W40586  37.981  16.019   2.344
69004W        W40587  30.093   8.185  14.464
69005W        W40588   6.923  16.782   3.270
69006W        W40589  25.883   7.243   0.746
69007W        W40590  23.349  36.962  12.565
69008W        W40591  37.888  39.244  14.902
69009W        W40592  22.404   4.423   2.269
69010W        W40593  37.728  30.420   2.248
69011W        W40594  33.479  24.737   1.002
69012W        W40595  16.755  40.333   2.825
69013W        W40596  42.360  38.218   0.348
69014W        W40597  16.808  31.473  10.602
69015W        W40598   0.732  33.448   3.118
69016W        W40599   4.913   1.839  14.492
69017W        W40600  37.737  17.137   1.067
69018W        W40601  30.006  19.107   3.106
69019W        W40602  27.061  30.955  11.986
69020W        W40603  23.808  28.718   4.391
69021W        W40604  15.034  41.881  13.986
69022W        W40605  37.789  10.298   3.728
69023W        W40606   5.877  17.977  14.031
69024W        W40607  39.633  15.686  13.705
69025W        W40608  15.732  27.625  13.489
69026W        W40609  44.801   8.204  10.769
69027W        W40610  29.558  22.754  11.977
69028W        W40611  28.029  41.901  13.351
69029W        W40612  29.658  30.392  14.877
69030W        W40613  20.253  37.012   3.851
69031W        W40614   7.610   6.460   4.243
69032W        W40615   4.254  44.559  11.932
69033W        W40616  15.200   1.155   0.563
69034W        W40617  10.108   6.315   4.170
69035W        W40618  44.597  20.540  12.834
69036W        W40619  36.328  29.141   0.735
69037W        W40620  32.159  19.620  11.941
69038W        W40621   4.467  41.870   1.478
69039W        W40622  40.158   0.016   0.342
69040W        W40623  21.020  24.552  11.891
69041W        W40624  27.193   9.617  14.980
69042W        W40625  30.403   1.032  11.150
69043W        W40626  32.962  31.980   1.465
69044W        W40627  17.037  21.426  12.012
69045W        W40628   9.931  21.528   3.613
69046W        W40629  13.570   5.896   4.152
69047W        W40630  26.722   4.859   3.181
69048W        W40631  37.399  23.675  11.387
69049W        W40632  29.253   2.392  12.546
69050W        W40633  21.518  17.171   3.223
69051W        W40634  42.550  35.379   3.605
69052W        W40635  29.157   0.679  13.526
69053W        W40636  22.042  35.615   4.088
69054W        W40637   6.108  23.538   1.185
69055W        W40638  42.136   1.315  11.847
69056W        W40639  39.788  37.492   0.388
69057W        W40640  32.245   3.665  14.016
69058W        W40641  42.303  11.046   4.563
69059W        W40642  40.545  29.976  13.844
69060W        W40643  22.642  20.490   5.221
69061W        W40644  25.829  25.919   4.172
69062W        W40645  12.181  34.035   1.883
69063W        W40646  43.911   7.835   2.225
69064W        W40647  18.879   9.667   3.587
69065W        W40648  30.191  33.013   9.857
69066W        W40649   8.072  27.420   2.271
69067W        W40650   5.064  43.593  14.469
69068W        W40651  43.104  22.095  13.024
69069W        W40652  43.836  33.939  12.841
69070W        W40653   9.107  32.976   2.952
69071W        W40654  29.702   5.327  13.446
69072W        W40655   6.732  29.331  13.952
69073W        W40656  26.606  20.591   1.926
69074W        W40657  33.982  13.202   3.156
69075W        W40658  38.938  13.546  12.528
69076W        W40659  13.507  25.099  12.600
69077W        W40660  40.445  38.751   0.001
69078W        W40661   4.285  42.896  13.450
69079W        W40662   4.563   3.274  13.192
69080W        W40663  33.041   4.627   4.084
69081W        W40664  39.075  11.826   4.084
69082W        W40665  25.006   5.743   1.747
69083W        W40666  30.617   8.150   1.091
69084W        W40667  10.937   3.437  11.990
69085W        W40668  37.572   7.640   1.830
69086W        W40669  25.468  28.216   1.242
69087W        W40670   7.365  22.215   2.805
69088W        W40671   4.170  38.150  10.906
69089W        W40672  18.173   6.837   2.685
69090W        W40673  41.621  23.542   2.546
69091W        W40674  22.034   9.488   1.344
69092W        W40675  33.530  13.276   1.264
69093W        W40676  28.034  23.002  12.595
69094W        W40677  20.183  37.509   0.193
69095W        W40678   9.476  22.583  11.704
69096W        W40679  38.884   6.668  14.831
69097W        W40680  39.894  12.148  14.339
69098W        W40681  14.693  39.247  14.899
69099W        W40682  39.704  33.911   2.520
69100W        W40683  29.054  20.690  12.954
69101W        W40684  26.678  11.455  13.031
69102W        W40685  36.815  35.688   4.069
69103W        W40686  26.612  30.197   3.112
69104W        W40687  22.017  12.693   4.266
69105W        W40688  28.999   1.499   2.365
69106W        W40689  12.406  34.160  11.068
69107W        W40690  32.604  24.182   1.655
69108W        W40691  28.524  36.533  10.599
69109W        W40692   1.183  15.912  12.984
69110W        W40693  31.453  36.137   1.848
69111W        W40694  29.143   4.990  10.602
69112W        W40695  27.147  37.354   3.119
69113W        W40696  26.627  33.819   0.733
69114W        W40697   9.085  22.235  11.205
69115W        W40698  33.342  10.992  11.652
69116W        W40699  42.815  23.075   2.405
69117W        W40700  13.819  44.744   3.194
69118W        W40701  31.857  19.854  11.613
69119W        W40702  22.749  33.720  14.289
69120W        W40703  20.553  26.967   3.666
69121W        W40704  38.379  17.897   3.677
69122W        W40705  43.390  41.999  12.880
69123W        W40706  37.363  42.346   0.416
69124W        W40707   1.826  23.644   4.423
69125W        W40708   7.182  10.520   0.430
69126W        W40709  41.691   6.760   0.127
69127W        W40710  32.339  14.299  14.418
69128W        W40711  30.672  29.575   2.852
69129W        W40712   3.988  36.857   3.110
69130W        W40713  18.715  12.476   2.967
69131W        W40714  30.172  39.944  13.123
69132W        W40715   5.049  30.990   4.760
69133W        W40716   7.428  38.929  13.522
69134W        W40717  41.225  44.317   3.252
69135W        W40718  35.864  34.104  11.032
69136W        W40719  25.113  15.623   3.554
69137W        W40720  32.619   9.573  12.191
69138W        W40721  17.755  10.595   2.257
69139W        W40722  15.822  14.324  10.847
69140W        W40723   4.652  19.196   2.920
69141W        W40724  43.713   7.792  12.906
69142W        W40725  37.396  18.150   3.739
69143W        W40726  11.742  41.812  10.724
69144W        W40727   7.378  19.574  14.423
69145W        W40728  20.991  40.735  11.615
69146W        W40729  36.965   8.176   2.260
69147W        W40730  30.432  44.576  13.890
69148W        W40731  25.900  15.027   3.736
69149W        W40732   2.717  10.631   4.180
69150W        W40733   8.824   9.772  13.269
69151W        W40734  20.099  35.162   3.503
69152W        W40735  39.695   3.642  12.903
69153W        W40736  11.564  26.544   1.297
69154W        W40737  16.202  44.456   2.768
69155W        W40738  13.159  23.605  11.545
69156W        W40739  36.087  24.950  11.041
69157W        W40740  40.923  14.852   3.808
69158W        W40741  16.249  20.366  11.126
69159W        W40742  39.544  42.548  14.869
69160W        W40743  20.198  15.827   3.398
69161W        W40744  43.008  33.843  10.988
69162W        W40745  11.340  15.231  10.623
69163W        W40746  37.999  36.027   3.725
69164W        W40747  12.202   4.564   3.864
69165W        W40748  20.537  10.623   1.079
69166W        W40749   3.704  16.443   5.066
69167W        W40750   5.426  43.540  10.689
69168W        W40751  18.311  10.320   1.394
69169W        W40752  37.998   2.461  11.993
69170W        W40753  21.445   7.805   0.570
69171W        W40754  28.936   2.351   0.838
69172W        W40755   7.782  20.211   3.144
69173W        W40756  26.321  20.660  13.090
69174W        W40757   8.578   0.824  11.993
69175W        W40758  34.451   9.191  13.068
69176W        W40759  40.222  40.389   0.845
69177W        W40760  19.265  18.953   5.453
69178W        W40761  40.825  34.039   3.583
69179W        W40762  29.282  43.212   4.952
69180W        W40763  17.701  24.750  11.310
69181W        W40764   7.097  21.971  11.250
69182W        W40765  33.978  15.532  13.859
69183W        W40766  40.096   0.278  14.587
69184W        W40767  28.862  16.768   4.121
69185W        W40768  31.539  21.984   0.893
69186W        W40769   9.873  38.619   1.731
69187W        W40770  33.087  25.937   2.326
69188W        W40771  28.080   3.991  12.469
69189W        W40772  20.102  43.902   0.009
69190W        W40773  32.362  22.413   3.253
69191W        W40774  44.826  40.275   3.091
69192W        W40775  39.071  23.792  12.003
69193W        W40776  29.756  42.432   1.730
69194W        W40777   1.742  15.496   1.940
69195W        W40778   4.203  24.073   0.410
69196W        W40779  29.192  33.635  13.824
69197W        W40780  34.684  26.017  14.183
69198W        W40781   3.164  19.248   3.323
69199W        W40782  20.737   3.559   4.662
69200W        W40783  25.648  44.831   4.254
69201W        W40784  31.907  30.857   0.233
69202W        W40785  33.945  44.133   2.222
69203W        W40786  15.199  13.231   4.564
69204W        W40787  42.916  11.315  10.977
69205W        W40788  27.411  43.450  11.578
69206W        W40789   0.425  19.180   4.697
69207W        W40790  36.104   4.905  11.997
69208W        W40791  31.066  24.453   2.319
69209W        W40792  13.250  21.098  10.669
69210W        W40793  22.073  33.518   3.370
69211W        W40794  17.261  26.268   5.579
69212W        W40795  28.429  18.746  12.488
69213W        W40796  23.107  42.807   2.792
69214W        W40797  35.352  33.277  12.596
69215W        W40798   3.218  18.704   0.311
69216W        W40799  36.165   1.737  14.800
69217W        W40800  40.333  10.249  14.058
69218W        W40801  32.281  10.852   0.645
69219W        W40802  37.045  19.071  12.419
69220W        W40803  28.110   1.410   1.531
69221W        W40804  23.050  39.960  14.478
69222W        W40805  18.994   5.446   1.396
69223W        W40806  39.983  43.355   0.049
69224W        W40807  39.328  28.519   3.179
69225W        W40808   7.247  19.360  12.960
69226W        W40809   7.843   1.448   1.456
69227W        W40810  37.355  36.291   4.514
69228W        W40811  27.178  32.841   4.617
69229W        W40812  20.495  43.942  14.688
69230W        W40813  36.270  44.886   2.709
69231W        W40814  19.796  12.989   3.653
69232W        W40815  30.904  30.724   4.080
69233W        W40816  16.900  36.992   0.290
69234W        W40817  40.964  36.269   4.384
69235W        W40818   9.155   9.246   4.266
69236W        W40819  25.040  12.871   4.086
69237W        W40820   5.621  36.536  12.123
69238W        W40821  38.906   3.359   1.347
69239W        W40822   1.422  35.478  11.539
69240W        W40823  33.081  30.586   1.753
69241W        W40824   8.874  18.723  13.956
69242W        W40825   6.838  41.725   3.668
69243W        W40826  37.873  20.578   3.220
69244W        W40827  33.137  14.269   2.859
69245W        W40828  35.454  19.992  11.567
69246W        W40829   1.359   3.274   4.663
69247W        W40830   8.073  18.685  13.566
69248W        W40831  17.489   8.147  13.849
69249W        W40832  27.242   6.992   4.115
69250W        W40833   4.134  17.627  14.939
69251W        W40834  33.121  32.101  14.356
69252W        W40835  38.436  16.015   2.790
69253W        W40836  20.260  19.174   1.739
69254W        W40837  22.931  22.870   3.138
69255W        W40838  32.288   0.270  10.775
69256W        W40839   0.678  42.823  13.399
69257W        W40840  35.011  11.280  11.613
69258W        W40841  38.080  35.408   1.276
69259W        W40842  38.574  24.610   4.633
69260W        W40843  19.622  38.834  13.479
69261W        W40844  16.647  28.436  14.530
69262W        W40845  18.478  17.043   2.734
69263W        W40846  35.915  32.866   3.288
69264W        W40847  40.265  26.184   4.481
69265W        W40848  19.390   3.389   4.727
69266W        W40849  17.308  19.866  13.299
69267W        W40850   2.543  24.709  11.143
69268W        W40851  20.895  19.990   3.297
69269W        W40852   8.795  38.324   0.310
69270W        W40853   8.614  38.223   1.717
69271W        W40854  42.014  32.507  11.471
69272W        W40855   8.423  21.094  12.538
69273W        W40856  20.185  40.195   4.063
69274W        W40857  41.097  25.215   1.346
69275W        W40858  26.483  23.736  10.656
69276W        W40859  19.932  21.188   4.239
69277W        W40860  41.851   4.424  10.863
69278W        W40861  11.595  22.249   4.985
69279W        W40862  14.826  31.502  11.002
69280W        W40863  40.340  41.949  12.058
69281W        W40864  41.845  43.452  13.875
69282W        W40865  21.047   9.062  14.849
69283W        W40866  38.093   1.262  13.409
69284W        W40867  13.764  33.126  12.636
69285W        W40868  37.540   3.719   4.614
69286W        W40869  38.144  18.566  13.449
69287W        W40870  35.615   7.392  10.734
69288W        W40871  28.109   9.184  11.227
69289W        W40872  14.527  15.675   2.339
69290W        W40873  15.576   6.060  11.177
69291W        W40874  28.911  32.290   3.483
69292W        W40875  23.234  43.965  10.662
69293W        W40876  21.402  30.356   4.505
69294W        W40877  13.618  34.133  13.981
69295W        W40878  43.887   6.908  13.021
69296W        W40879  24.094  35.521   4.403
69297W        W40880  25.297  30.910  14.594
69298W        W40881   3.291  26.133  14.063
69299W        W40882  22.319  37.884  10.133
69300W        W40883  10.681  10.239  10.970
69301W        W40884  41.965  18.567   4.543
69302W        W40885  31.409   1.425  10.527
69303W        W40886   1.889  34.791  13.031
69304W        W40887  25.229  10.247  10.923
69305W        W40888  23.023  14.233   1.652
69306W        W40889  12.699   5.696  12.588
69307W        W40890  29.731  20.460   5.607
69308W        W40891  15.860  28.373  11.556
69309W        W40892   4.689   3.490  12.709
69310W        W40893  20.178  32.424  12.132
69311W        W40894   7.718  25.427  13.083
69312W        W40895  12.135  39.004   0.376
69313W        W40896  25.299   4.486  13.929
69314W        W40897  30.785  39.337  11.756
69315W        W40898  17.737  32.778   3.746
69316W        W40899  41.010   0.848  13.004
69317W        W40900  28.222  14.633   3.008
69318W        W40901  23.929  23.274   4.209
69319W        W40902   6.622  42.196  14.999
69320W        W40903  11.248  35.082  14.968
69321W        W40904  26.559  37.433  13.968
69322W        W40905  16.647  44.941   0.852
69323W        W40906  44.997  14.668   3.359
69324W        W40907   9.804  28.267   4.603
69325W        W40908  44.398  13.454  11.159
69326W        W40909  10.509  12.678  14.233
69327W        W40910  19.723   0.283   1.158
69328W        W40911  28.562  18.077  14.964
69329W        W40912  24.268  29.668  11.151
69330W        W40913  15.225  21.057  14.825
69331W        W40914  32.667  14.202  14.006
69332W        W40915  11.745   3.661   2.790
69333W        W40916  23.605  20.576   1.326
69334W        W40917  23.408   4.329  10.733
69335W        W40918  15.271  37.791   9.866
69336W        W40919  20.692   5.255  11.978
69337W        W40920  13.719   0.473   4.546
69338W        W40921  29.607  35.932   4.961
69339W        W40922  22.220  13.523   1.749
69340W        W40923  37.590  11.772   3.648
69341W        W40924  41.334  20.692   2.259
69342W        W40925  29.047   5.446   1.195
69343W        W40926  29.922  40.443   1.896
69344W        W40927  33.584  34.571   0.942
69345W        W40928  37.405  29.266   1.770
69346W        W40929  13.336  24.982   1.203
69347W        W40930  26.295   0.679   5.013
69348W        W40931  20.820   2.830   2.852
69349W        W40932  42.272  23.447   4.010
69350W        W40933  26.227  21.151  12.583
69351W        W40934   4.118   9.170  13.307
69352W        W40935  34.907   4.453   2.817
69353W        W40936  36.843  27.473   2.396
69354W        W40937   8.857  18.622  11.703
69355W        W40938  26.123  44.007   4.277
69356W        W40939   4.487  15.255   4.195
69357W        W40940  43.912  23.579  10.683
69358W        W40941  32.630  35.074  13.788
69359W        W40942  42.293  29.557  14.455
69360W        W40943  31.789  20.284   3.270
69361W        W40944  27.394  27.874   4.175
69362W        W40945  28.309  11.933   1.363
69363W        W40946   7.902  10.622   0.737
69364W        W40947   0.487   0.052   0.955
69365W        W40948  22.419  44.725   0.501
69366W        W40949  37.021   9.619  14.648
69367W        W40950  26.902  23.930  14.462
69368W        W40951   4.075  29.248   0.980
69369W        W40952  33.103  23.791  12.850
69370W        W40953  24.296  12.727   4.591
69371W        W40954   2.492  20.353   3.264
69372W        W40955  25.153  17.078  13.032
69373W        W40956  41.567  11.137  12.101
69374W        W40957  19.991   4.872   2.189
69375W        W40958  16.029  43.673   0.789
69376W        W40959  33.622  20.117  11.917
69377W        W40960  14.670  30.561   0.243
69378W        W40961   6.111   5.939   1.259
69379W        W40962  38.344   7.856   3.783
69380W        W40963  26.094  14.577  10.733
69381W        W40964   6.730   3.181   5.039
69382W        W40965  11.392   9.196   0.045
69383W        W40966   4.681  33.060   3.117
69384W        W40967  27.602  18.838  14.275
69385W        W40968  24.190   3.902  12.043
69386W        W40969  16.674  32.893   2.860
69387W        W40970   9.662  18.839   2.691
69388W        W40971   8.840  36.444  10.995
69389W        W40972   5.308  35.986   4.227
69390W        W40973   2.827  40.493  10.409
69391W        W40974  19.273  40.903  11.414
69392W        W40975  25.905  10.698  11.079
69393W        W40976   7.138   5.410   3.222
69394W        W40977  29.582  17.796   4.779
69395W        W40978   8.773   6.470  11.038
69396W        W40979  41.806  17.097   1.970
69397W        W40980  30.465  14.632   2.062
69398W        W40981   7.801  32.007   0.230
69399W        W40982  24.938  24.067  13.739
69400W        W40983   3.453  19.677   0.892
69401W        W40984  31.160  27.448   2.355
69402W        W40985  29.340  36.365  10.794
69403W        W40986   6.714  25.883  12.019
69404W        W40987   2.750  24.161   0.468
69405W        W40988  14.845  18.557   3.267
69406W        W40989  30.604   0.445   2.321
69407W        W40990   6.666   4.259  11.600
69408W        W40991   3.977  41.057  13.009
69409W        W40992  12.201  25.951   4.403
69410W        W40993  44.960  40.444  10.575
69411W        W40994  20.808   6.166  13.735
69412W        W40995  27.931  19.541   1.420
69413W        W40996  40.500  33.456  11.652
69414W        W40997   8.305  36.972   0.275
69415W        W40998  21.906   2.798   4.774
69416W        W40999  37.075  31.912   1.252
69417W        W41000  29.871  11.079  12.935
69418W        W41001  15.311  25.510   0.433
69419W        W41002  27.221  27.603  13.765
69420W        W41003  40.489  41.279  10.376
69421W        W41004  42.539  26.615   1.507
69422W        W41005  43.468  28.380  11.997
69423W        W41006  38.741  11.647   2.661
69424W        W41007  40.069  15.951  13.753
69425W        W41008  33.176   3.356   0.010
69426W        W41009   3.449  38.355   2.166
69427W        W41010  34.196  30.623   1.754
69428W        W41011   2.068  18.380   3.346
69429W        W41012  11.953  42.703  13.534
69430W        W41013  16.368   6.123  13.224
69431W        W41014  18.634  24.642  13.841
69432W        W41015  28.141  32.829   4.134
69433W        W41016   9.623   5.774  14.574
69434W        W41017  15.958  27.281   1.398
69435W        W41018  36.076  42.180  10.843
69436W        W41019  30.965   9.758   4.534
69437W        W41020  27.610  27.451   2.835
69438W        W41021  31.644  28.784   4.283
69439W        W41022   3.950  11.644   2.857
69440W        W41023  20.178   6.840   3.774
69441W        W41024   7.894   0.106  11.600
69442W        W41025  18.715  15.487   1.794
69443W        W41026   1.707  13.387   1.276
69444W        W41027  28.033  23.790  13.984
69445W        W41028  18.600  11.722  14.880
69446W        W41029  23.788   2.730   0.959
69447W        W41030   3.736  13.741  13.886
69448W        W41031  35.019  30.942   3.771
69449W        W41032  11.055   5.139   2.239
69450W        W41033  33.366  33.858   1.438
69451W        W41034  37.215  43.454   3.869
69452W        W41035  43.426  40.615   1.865
69453W        W41036  21.948  24.393  11.077
69454W        W41037  42.713  13.258   0.768
69455W        W41038   3.707  25.916  13.405
69456W        W41039   3.166  22.050   4.702
69457W        W41040  12.419  21.336  13.565
69458W        W41041  28.164  31.521  10.671
69459W        W41042  11.503   0.203  11.081
69460W        W41043  12.073  44.880   4.039
69461W        W41044  28.470   1.888  10.664
69462W        W41045  18.307  38.441  10.937
69463W        W41046  14.171   7.728  12.902
69464W        W41047  34.089  35.933  12.144
69465W        W41048   4.737  24.639  12.920
69466W        W41049  26.928  19.885   1.329
69467W        W41050   9.596  41.931  14.882
69468W        W41051   5.430  21.022   0.267
69469W        W41052  13.742  20.645  10.432
69470W        W41053   4.437   5.033   1.929
69471W        W41054  27.132  13.040   1.790
69472W        W41055  43.553  18.994   3.220
69473W        W41056  14.153  24.205   3.988
69474W        W41057   2.105  35.696   4.962
69475W        W41058   1.327  17.336  14.041
69476W        W41059  12.774  30.338  11.579
69477W        W41060  22.254   8.224  13.525
69478W        W41061  18.321  22.437   5.099
69479W        W41062  20.615  17.713   5.331
69480W        W41063   1.214  33.933  10.996
69481W        W41064  43.347  29.859  11.102
69482W        W41065   0.227  32.490   1.288
69483W        W41066   0.850  42.272   2.201
69484W        W41067   7.115  26.980   1.034
69485W        W41068   4.395  37.086  13.461
69486W        W41069  40.531   5.362   0.471
69487W        W41070  14.762   1.748   9.961
69488W        W41071  37.623  40.563  13.288
69489W        W41072  23.627  33.101  11.472
69490W        W41073  28.182   8.722   1.819
69491W        W41074   4.396  34.606   4.059
69492W        W41075   7.175  25.938  10.752
69493W        W41076   3.941  16.024  13.921
69494W        W41077  39.204  36.055   3.256
69495W        W41078   5.950  38.401   2.204
69496W        W41079   2.505  31.455  11.189
69497W        W41080  18.757   2.872  13.914
69498W        W41081   2.181  14.666  12.580
69499W        W41082  42.982  26.294   0.747
69500W        W41083   3.480  22.848   4.138
69501W        W41084  25.656  27.073  11.598
69502W        W41085  23.893   0.710   3.258
69503W        W41086  30.151  40.562  12.446
69504W        W41087  16.098  41.311  14.749
69505W        W41088  29.712  33.127   4.161
69506W        W41089   1.964  35.900   1.258
69507W        W41090  11.188  31.134  14.827
69508W        W41091  37.251  39.761   4.179
69509W        W41092  37.670  36.150  12.051
69510W        W41093  26.206  16.034   3.724
69511W        W41094  18.719  37.628  11.219
69512W        W41095  15.613   8.633  11.492
69513W        W41096  21.156  21.745   2.747
69514W        W41097  27.409  19.539   3.267
69515W        W41098  26.686  35.581  12.080
69516W        W41099  14.434  31.984   3.329
69517W        W41100  20.571   8.241   1.827
69518W        W41101   7.302   8.142   3.548
69519W        W41102  18.838  15.897   4.367
69520W        W41103  37.074  38.788  11.552
69521W        W41104  25.230  35.869  14.326
69522W        W41105  22.837  14.166  13.494
69523W        W41106  15.440  30.053  11.020
69524W        W41107   0.305  39.174  10.725
69525W        W41108   5.214  28.750   2.271
69526W        W41109   4.191   8.342   2.278
69527W        W41110  40.032  26.600   4.673
69528W        W41111  30.940  23.992   3.788
69529W        W41112  44.763   9.772   2.181
69530W        W41113  19.549  24.957   9.800
69531W        W41114  32.925  18.806  12.726
69532W        W41115  37.087  12.601   2.121
69533W        W41116   4.975  31.366  11.130
69534W        W41117   6.865  26.586   4.731
69535W        W41118  18.326  27.910  12.589
69536W        W41119  18.569   3.024  13.061
69537W        W41120  36.324  11.842   4.900
69538W        W41121  30.833   1.090  11.406
69539W        W41122  16.485   7.567   4.662
69540W        W41123  42.282  31.914   2.283
69541W        W41124  24.535  28.299   4.085
69542W        W41125  36.239  44.364  13.472
69543W        W41126  19.081  28.161  13.324
69544W        W41127  28.279   9.822  13.791
69545W        W41128  14.767  40.368   1.851
69546W        W41129  23.780  29.160  13.216
69547W        W41130  21.459  24.099  13.825
69548W        W41131   9.669  29.233  12.091
69549W        W41132   5.704  16.875   3.730
69550W        W41133  25.401  30.099   4.182
69551W        W41134  20.733  38.490   3.891
69552W        W41135  28.510  10.969  12.873
69553W        W41136  19.325  29.598  11.972
69554W        W41137  33.158  33.402   0.761
69555W        W41138  40.566  38.268  11.886
69556W        W41139  40.485  10.667   1.300
69557W        W41140  35.470  10.398  14.096
69558W        W41141   5.546  41.961   1.364
69559W        W41142   0.915  36.552   3.835
69560W        W41143  38.753  31.858  11.023
69561W        W41144  26.677  26.145  14.028
69562W        W41145  40.236  37.331  13.756
69563W        W41146  42.376  39.332  13.969
69564W        W41147  35.492  34.272   1.756
69565W        W41148  28.585   5.990  14.891
69566W        W41149  29.481   8.580   4.060
69567W        W41150   0.454  24.727   2.377
69568W        W41151   4.275  19.378   2.618
69569W        W41152  34.904  30.048  12.469
69570W        W41153  35.606  44.507   4.330
69571W        W41154  44.834  24.126  10.684
69572W        W41155  30.646  31.661  12.965
69573W        W41156  32.986   5.280  13.927
69574W        W41157   9.941  36.841   1.299
69575W        W41158  24.657  17.594   2.842
69576W        W41159  23.804   5.490  13.809
69577W        W41160  44.758  43.893   2.765
69578W        W41161   7.447  13.866   1.878
69579W        W41162  44.432  27.639   1.884
69580W        W41163  36.167  16.781   4.337
69581W        W41164  14.733  24.400   1.729
69582W        W41165  30.870  25.035   3.740
69583W        W41166  30.945  27.053   0.240
69584W        W41167  33.888  34.653  12.533
69585W        W41168  29.948  19.768  12.124
69586W        W41169   1.757  43.441  10.563
69587W        W41170  42.776  35.655  13.533
69588W        W41171  18.149   5.876  14.313
69589W        W41172   6.868   1.501   4.619
69590W        W41173  28.092  38.169   2.100
69591W        W41174  15.570  18.138  11.923
69592W        W41175  39.290  44.171  13.968
69593W        W41176  23.049   2.441   0.728
69594W        W41177   3.845  40.931   3.281
69595W        W41178  12.684  21.129  10.441
69596W        W41179  37.610  28.950   3.840
69597W        W41180  38.777  29.112   2.758
69598W        W41181  26.440  35.144  12.215
69599W        W41182   3.914  17.221  14.613
69600W        W41183  42.506  42.909   4.022
69601W        W41184  29.490  13.794   2.693
69602W        W41185  14.852  31.437   4.703
69603W        W41186  33.627  14.736  11.577
69604W        W41187  38.575  19.246   2.378
69605W        W41188  38.377  41.911  13.800
69606W        W41189   6.756   8.903  13.974
69607W        W41190  13.083  16.866   4.492
69608W        W41191   0.406  40.983  14.991
69609W        W41192   3.949  21.153   1.302
69610W        W41193  25.609  33.830   3.826
69611W        W41194  35.917  19.846  10.585
69612W        W41195   4.799  28.519  12.863
69613W        W41196   0.061  28.189  10.685
69614W        W41197   7.635   9.269   3.176
69615W        W41198  11.227  32.742   0.380
69616W        W41199   4.722  35.984   4.324
69617W        W41200  15.129  40.211  10.643
69618W        W41201  12.706   8.714   0.985
69619W        W41202  14.015  15.827   2.374
69620W        W41203   1.744  12.341   4.485
69621W        W41204  34.417  11.724  12.199
69622W        W41205  33.668  18.376  14.370
69623W        W41206  25.985  34.547  10.522
69624W        W41207  39.424  25.979  14.337
69625W        W41208  18.757  11.364   4.687
69626W        W41209  17.787  30.162  13.591
69627W        W41210  30.028  12.613  10.609
69628W        W41211   1.420  39.892   4.210
69629W        W41212  36.897  11.292  11.897
69630W        W41213   9.836  18.265   1.849
69631W        W41214  41.476  36.047   0.767
69632W        W41215  23.735  26.889  12.877
69633W        W41216   2.803  30.103   2.386
69634W        W41217  29.647   9.131   2.798
69635W        W41218  29.077   8.888   4.016
69636W        W41219  15.204   0.347   0.936
69637W        W41220  10.311  21.513   1.071
69638W        W41221  26.827  22.546   1.668
69639W        W41222  24.469  23.864  13.746
69640W        W41223  11.642  22.102  10.495
69641W        W41224  25.088   9.394   0.707
69642W        W41225  19.402  37.598   2.858
69643W        W41226  32.467  33.202   4.596
69644W        W41227  39.971  29.207   0.434
69645W        W41228  20.516  27.462  12.039
69646W        W41229  11.767   1.393   1.453
69647W        W41230   1.354  22.915  14.112
69648W        W41231  26.288  44.187  10.314
69649W        W41232  30.170  41.509   1.373
69650W        W41233  22.305  37.627  11.074
69651W        W41234  34.490  10.374   1.396
69652W        W41235  16.821   2.229  10.546
69653W        W41236  38.155  16.137  10.529
69654W        W41237  23.218  11.317  11.919
69655W        W41238  21.228   5.764  10.968
69656W        W41239  26.632  19.479  11.863
69657W        W41240   0.813  26.003  14.015
69658W        W41241  40.497   8.807   0.342
69659W        W41242  37.301   3.555   1.413
69660W        W41243  24.985  21.188   3.563
69661W        W41244   7.173  42.381   0.901
69662W        W41245  35.223   6.165   4.246
69663W        W41246  29.660   8.342  13.880
69664W        W41247  40.490  34.544  12.533
69665W        W41248  20.101   0.524   0.414
69666W        W41249  14.247  12.777   0.871
69667W        W41250  36.825  24.152   1.276
69668W        W41251  10.147  21.967   0.870
69669W        W41252  14.113  28.326  11.634
69670W        W41253  32.002  34.103   3.551
69671W        W41254   4.739  39.719  14.261
69672W        W41255   1.504   6.370   1.757
69673W        W41256  21.095  36.623   0.577
69674W        W41257  21.313   2.735   1.950
69675W        W41258  40.468  19.629   4.563
69676W        W41259  34.800  19.504  10.226
69677W        W41260  39.382  37.051   3.144
69678W        W41261  11.413  36.328  14.450
69679W        W41262   8.503  28.768  13.551
69680W        W41263   8.735  12.182   4.623
69681W        W41264  34.557  34.592  10.387
69682W        W41265  40.264  33.412  14.455
69683W        W41266  26.638  41.298   2.261
69684W        W41267   3.088   9.242  11.088
69685W        W41268   7.130   4.480   4.195
69686W        W41269  34.685  36.574  11.582
69687W        W41270  35.331  37.261   3.982
69688W        W41271  25.891  24.738  11.208
69689W        W41272   3.280  22.248  11.143
69690W        W41273  32.430   3.034   4.313
69691W        W41274  23.124  40.254  14.029
69692W        W41275  25.687  17.063  10.773
69693W        W41276  33.533   3.809   9.943
69694W        W41277   5.751  28.954   4.559
69695W        W41278  39.458  15.685   2.696
69696W        W41279   1.405   1.167   3.288
69697W        W41280  40.505  38.258  13.746
69698W        W41281  33.601  16.772  11.569
69699W        W41282   8.203  31.003   2.446
69700W        W41283  11.196   8.014  12.868
69701W        W41284  21.035  40.814  13.497
69702W        W41285   5.715   8.749   1.451
69703W        W41286  21.560  43.687   0.310
69704W        W41287  12.171  30.119  14.542
69705W        W41288  41.048  35.866  11.538
69706W        W41289  41.000  33.813  12.521
69707W        W41290  24.733   6.774  14.876
69708W        W41291   5.417  16.676  10.532
69709W        W41292  27.099  36.819   4.553
69710W        W41293  28.578  25.284   0.923
69711W        W41294  21.532  43.372  13.334
69712W        W41295  35.920  40.944   4.507
69713W        W41296  24.611   6.221  14.914
69714W        W41297  36.826  14.232   3.632
69715W        W41298  29.157  39.967   0.056
69716W        W41299   0.891  31.919   4.585
69717W        W41300  42.318  20.206  10.712
69718W        W41301  21.553  15.624   1.389
69719W        W41302  29.412  22.703   2.910
69720W        W41303  24.660  25.120  11.554
69721W        W41304  43.501   0.706  11.187
69722W        W41305   1.907   6.350  13.415
69723W        W41306  44.335  13.710  13.888
69724W        W41307  36.348  18.208  11.647
69725W        W41308  23.111  35.476   2.592
69726W        W41309  21.474  35.593  13.297
69727W        W41310  27.672   5.790  13.545
69728W        W41311   6.704  38.819   1.295
69729W        W41312  20.669  10.666   2.556
69730W        W41313   2.873  23.686   0.924
69731W        W41314  33.629   9.347   2.635
69732W        W41315  39.710  19.253   4.306
69733W        W41316   0.196  24.823  13.544
69734W        W41317  29.388   5.370   3.633
69735W        W41318  32.691  18.339  11.482
69736W        W41319  36.306   8.340  14.543
69737W        W41320  28.779  34.669  11.498
69738W        W41321  38.051  28.565  14.709
69739W        W41322   2.545  19.813  14.890
69740W        W41323  16.610   2.466   3.137
69741W        W41324  18.024  19.630  14.452
69742W        W41325   4.040   1.500  12.095
69743W        W41326   6.206  36.492  13.330
69744W        W41327  22.192  28.892   1.800
69745W        W41328  20.279   2.265   3.578
69746W        W41329  18.878   3.937  13.959
69747W        W41330   5.454  34.416   4.289
69748W        W41331   7.423  31.016  14.922
69749W        W41332  14.900  32.920   3.271
69750W        W41333   7.797  29.758  10.691
69751W        W41334  20.949  38.824  10.782
69752W        W41335  11.614  22.980  11.037
69753W        W41336  22.413   5.193  12.992
69754W        W41337  34.063  34.064  11.444
69755W        W41338  36.776  11.907   4.600
69756W        W41339   7.863  12.097   0.878
69757W        W41340  38.848  23.371   0.252
69758W        W41341  40.001   8.883  14.400
69759W        W41342  16.223  42.252  14.113
69760W        W41343   6.129  22.796  11.202
69761W        W41344  38.369   2.382   3.855
69762W        W41345   3.226  17.153  10.638
69763W        W41346   0.847  21.716  14.444
69764W        W41347  42.756  31.203   2.809
69765W        W41348  32.371  44.601   4.944
69766W        W41349  15.550  29.951  10.516
69767W        W41350   4.157  37.037  13.919
69768W        W41351   8.266   1.435   2.752
69769W        W41352  21.783  16.081   1.245
69770W        W41353  30.136  21.596   5.583
69771W        W41354  38.287   3.164  14.093
69772W        W41355   4.493   5.995  14.843
69773W        W41356  28.218  10.213   4.250
69774W        W41357  39.875  31.153  10.512
69775W        W41358  10.670  42.014   0.963
69776W        W41359  31.915  28.573   1.653
69777W        W41360  14.429  44.254   2.298
69778W        W41361  16.102  32.938  11.962
69779W        W41362  34.012   8.212  13.841
69780W        W41363   5.506  42.985  12.552
69781W        W41364  43.653  18.240  14.937
69782W        W41365  29.498  40.490   4.442
69783W        W41366   5.187  36.364   5.500
69784W        W41367  35.823  26.633   2.036
69785W        W41368  36.250  27.243  12.039
69786W        W41369  26.102  23.046  12.903
69787W        W41370  29.738  10.312   4.085
69788W        W41371  16.065  29.622   2.451
69789W        W41372  38.099  39.364  14.443
69790W        W41373  21.271  21.159   4.581
69791W        W41374   4.666   6.175   1.854
69792W        W41375   3.086  41.936  12.137
69793W        W41376  10.342  43.509   5.202
69794W        W41377  28.329  41.642   0.859
69795W        W41378  20.516   5.320   3.144
69796W        W41379  42.960  10.832  11.170
69797W        W41380  21.821  16.860   2.278
69798W        W41381   5.646  15.927   5.139
69799W        W41382  40.032  18.797  13.010
69800W        W41383   4.359   9.353  14.969
69801W        W41384  25.831  43.912   0.502
69802W        W41385   3.547  28.158  12.590
69803W        W41386  23.686  17.958   0.355
69804W        W41387  40.180   3.889   4.027
69805W        W41388  14.624  28.913  11.049
69806W        W41389  32.566  12.299   0.495
69807W        W41390  21.094   6.382  14.293
69808W        W41391  44.541  34.450  10.794
69809W        W41392  28.111  36.609   2.858
69810W        W41393  33.989  27.961  12.906
69811W        W41394  42.272   6.746   3.671
69812W        W41395  18.180  43.764  10.716
69813W        W41396   8.199  37.111   2.162
69814W        W41397  36.586  12.525  14.487
69815W        W41398  25.175  29.109  14.700
69816W        W41399   8.669  12.020  12.576
69817W        W41400  20.848   0.316   4.616
69818W        W41401  29.607   4.173  13.257
69819W        W41402  12.711  18.084   1.296
69820W        W41403   6.766  37.089   4.745
69821W        W41404  37.233  40.261  10.791
69822W        W41405  24.396  41.420   2.364
69823W        W41406  42.532  42.067  10.760
69824W        W41407  18.813  32.571   3.514
69825W        W41408   5.140  26.400  13.400
69826W        W41409  11.759  11.680   3.261
69827W        W41410  12.859  19.568  10.671
69828W        W41411   8.729  22.993   2.665
69829W        W41412  16.678   2.265  14.333
69830W        W41413  42.026   7.131  14.970
69831W        W41414  16.072  42.718  13.844
69832W        W41415   4.893   9.842   2.196
69833W        W41416  12.287  32.888   1.707
69834W        W41417   8.748  38.458  13.499
69835W        W41418  23.690  23.026  13.305
69836W        W41419   0.358  38.585   1.818
69837W        W41420  18.082  42.346   2.646
69838W        W41421  19.123   1.006   3.238
69839W        W41422   0.063   7.211   2.793
69840W        W41423  26.959   4.317  10.713
69841W        W41424  26.577  40.005   3.359
69842W        W41425  22.630  22.156   2.827
69843W        W41426   7.866  10.711  13.045
69844W        W41427  16.236  11.744   0.453
69845W        W41428  17.272  41.511  14.414
69846W        W41429  26.975   4.656   2.213
69847W        W41430   9.614  44.789   2.210
69848W        W41431  10.678  33.949   4.953
69849W        W41432   8.803  25.225   0.823
69850W        W41433  21.550  44.755  12.917
69851W        W41434  19.941  33.596  10.537
69852W        W41435  40.493  11.039   2.220
69853W        W41436  40.548   9.794   2.913
69854W        W41437  28.930  39.059  11.619
69855W        W41438  39.917   8.620   2.239
69856W        W41439  24.928  10.581  11.193
69857W        W41440  31.498   3.238   1.742
69858W        W41441  33.420  38.075  14.542
69859W        W41442  40.526  40.473   0.423
69860W        W41443  43.827  26.355   4.513
69861W        W41444  10.391  16.343   4.393
69862W        W41445  35.504  31.027  10.666
69863W        W41446   9.924  16.364  10.452
69864W        W41447  39.952  18.710   3.654
69865W        W41448  19.348  41.857  11.950
69866W        W41449  15.742  42.512  13.390
69867W        W41450  11.596  18.550   0.763
69868W        W41451  11.651  23.182  14.751
69869W        W41452  36.746  17.269   3.323
69870W        W41453   5.676   4.800  13.614
69871W        W41454  37.026  17.688   2.653
69872W        W41455   3.825  13.182   3.694
69873W        W41456  38.297  11.418  14.322
69874W        W41457  18.580  18.833   3.734
69875W        W41458  39.039  17.041   2.250
69876W        W41459   4.072  32.868  10.704
69877W        W41460  31.923  18.111   4.204
69878W        W41461   1.535  27.470  13.366
69879W        W41462  38.936  34.471   1.861
69880W        W41463  27.635   2.307  12.117
69881W        W41464  35.800  15.596  12.043
69882W        W41465  16.687  29.618  14.984
69883W        W41466  43.423   6.167  11.690
69884W        W41467  43.635  15.403   2.193
69885W        W41468  11.496  44.442  13.522
69886W        W41469  28.500  29.605  13.441
69887W        W41470  29.409   2.777  11.025
69888W        W41471  43.762   0.923  13.526
69889W        W41472   0.291  20.722  14.847
69890W        W41473  24.215  16.715  13.971
69891W        W41474  34.102  20.994  12.050
69892W        W41475  30.667   6.364  10.805
69893W        W41476  22.165  41.273   0.480
69894W        W41477   8.851  32.790  11.445
69895W        W41478  27.675   4.653   3.127
69896W        W41479   4.280   5.847   0.314
69897W        W41480  39.476  43.762  11.495
69898W        W41481   2.943  30.551   2.629
69899W        W41482  19.741  12.142  14.529
69900W        W41483  41.927  40.516   0.641
69901W        W41484  32.144  37.274  12.021
69902W        W41485   7.781  34.511   5.075
69903W        W41486  16.335  18.174  11.547
69904W        W41487  39.342  33.950  13.288
69905W        W41488  34.357  35.629  13.920
69906W        W41489   6.634  33.418  10.640
69907W        W41490  34.437   1.349   4.403
69908W        W41491  20.226  24.547  14.425
69909W        W41492   5.595  25.437   2.692
69910W        W41493  39.956  41.909   3.262
69911W        W41494  18.990  24.060  10.659
69912W        W41495  39.168  34.569  14.892
69913W        W41496   9.933   2.002  10.313
69914W        W41497   7.069  28.405   4.512
69915W        W41498  44.475  15.775  13.657
69916W        W41499  35.125  18.071  10.310
69917W        W41500  28.402   0.378   1.849
69918W        W41501  25.692  28.592   2.901
69919W        W41502   0.538  37.676   4.091
69920W        W41503  18.955   6.036   2.212
69921W        W41504  13.569  28.559   2.595
69922W        W41505  39.249  33.964  12.384
69923W        W41506   7.321  37.977   1.609
69924W        W41507  30.675  34.463   0.712
69925W        W41508  15.407  35.116   3.140
69926W        W41509  11.837  16.382   1.073
69927W        W41510  15.501  19.029   1.925
69928W        W41511  35.572  43.711  13.037
69929W        W41512  44.164  43.942  12.192
69930W        W41513  18.604  34.491  14.813
69931W        W41514  26.638   0.780   2.614
69932W        W41515  14.703   5.292  13.854
69933W        W41516  10.836  39.248  14.559
69934W        W41517   1.841  38.229   4.221
69935W        W41518  28.644  36.575   2.801
69936W        W41519  27.963  36.016  11.855
69937W        W41520  42.077  10.753   0.493
69938W        W41521  16.144  10.864   4.311
69939W        W41522  20.366  29.289   2.203
69940W        W41523  29.905  21.539  12.407
69941W        W41524  38.973  27.906   0.983
69942W        W41525  41.848   8.843   0.209
69943W        W41526  18.890  34.022   4.949
69944W        W41527  17.931  22.479   3.670
69945W        W41528  26.736   1.998   0.898
69946W        W41529  20.063  13.442   4.855
69947W        W41530   1.135  39.794  12.779
69948W        W41531   1.685   7.173  13.893
69949W        W41532  16.601   3.463   3.090
69950W        W41533   9.701  18.169  14.468
69951W        W41534   9.868  37.233  12.103
69952W        W41535  43.571   0.300  14.866
69953W        W41536  18.409  31.996   1.827
69954W        W41537  41.971  11.637  13.476
69955W        W41538  16.801  42.892  13.544
69956W        W41539  35.989  39.623   2.679
69957W        W41540   6.929  15.667  13.918
69958W        W41541   3.485   6.307  13.412
69959W        W41542  19.849   8.659  12.504
69960W        W41543  28.165  34.907  12.492
69961W        W41544  38.782  11.326  13.706
69962W        W41545  41.560  10.193  13.983
69963W        W41546  38.463  33.782   4.389
69964W        W41547  39.962  13.593  10.713
69965W        W41548  19.445   3.737  11.969
69966W        W41549  23.541  12.859   0.346
69967W        W41550  37.368  33.186  14.987
69968W        W41551  44.131  15.269   2.300
69969W        W41552  34.430  20.952   3.763
69970W        W41553  41.257  43.334   4.122
69971W        W41554  23.420  43.398   1.254
69972W        W41555  18.057  31.569   1.834
69973W        W41556  34.904  31.639  13.864
69974W        W41557  38.696  23.221  11.884
69975W        W41558  19.318  22.009  14.830
69976W        W41559  15.686  31.964   5.001
69977W        W41560  40.744  27.549   0.289
69978W        W41561  13.664  42.357  11.283
69979W        W41562  24.927  35.359   2.265
69980W        W41563  26.105   7.739  11.841
69981W        W41564  43.020   4.840  10.796
69982W        W41565  32.539  20.951  14.906
69983W        W41566   5.707   5.447   4.289
69984W        W41567  25.235  18.092   1.845
69985W        W41568   8.433   3.362   3.163
69986W        W41569  31.925  17.536   5.052
69987W        W41570  23.916  34.899  12.539
69988W        W41571  33.076  13.037   1.384
69989W        W41572  26.129   3.435  10.693
69990W        W41573  42.289  26.376  13.050
69991W        W41574  43.328  34.805   2.674
69992W        W41575   3.468  33.352   0.386
69993W        W41576  28.431  30.561  14.484
69994W        W41577  44.691  20.343  11.755
69995W        W41578  27.622   1.643  11.569
69996W        W41579   8.859  30.268   0.832
69997W        W41580  15.212   7.904   2.778
69998W        W41581  11.337  33.565  14.761
69999W        W41582  25.057  39.066   4.993
70000W        W41583  43.839  33.761   0.561
70001W        W41584  23.386  42.041   0.364
70002W        W41585  28.258  16.722   0.796
70003W        W41586  15.653  19.199  14.010
70004W        W41587   5.443   8.853  14.493
70005W        W41588  29.843  28.442   4.791
70006W        W41589  43.589  10.143  12.032
70007W        W41590   0.079  23.887  14.329
70008W        W41591  36.930  41.757  13.865
70009W        W41592   9.212  14.046   3.156
70010W        W41593   7.435   2.772   4.329
70011W        W41594  43.978  23.532   4.336
70012W        W41595   4.724   5.252  13.985
70013W        W41596  23.718   4.700   3.308
70014W        W41597   4.930  42.197  14.924
70015W        W41598  32.562  41.509  10.646
70016W        W41599  36.555   1.366  11.977
70017W        W41600   8.543   4.596  13.085
70018W        W41601  24.434  37.988  12.311
70019W        W41602   6.444   1.946   1.801
70020W        W41603  34.465  41.123   0.203
70021W        W41604  41.743   3.392   0.456
70022W        W41605  32.596  31.678   0.997
70023W        W41606  36.648  36.080  12.137
70024W        W41607   3.572  35.914   2.791
70025W        W41608  11.111  31.683   4.149
70026W        W41609  25.206  17.228  10.775
70027W        W41610  16.652  38.836   2.874
70028W        W41611  37.903  18.774   3.237
70029W        W41612  31.378   1.321  12.554
70030W        W41613  41.065   6.831  11.159
70031W        W41614  26.597  21.126   2.173
70032W        W41615  25.261  19.998   2.793
70033W        W41616  37.377  29.538   2.270
70034W        W41617   0.389  38.151  11.502
70035W        W41618  19.617  12.124  11.225
70036W        W41619  43.253  38.327   2.721
70037W        W41620  41.563   5.007   2.773
70038W        W41621   9.288  16.196   2.418
70039W        W41622  38.472   3.455   3.602
70040W        W41623  43.763   5.119  11.451
70041W        W41624  43.821  14.575  10.551
70042W        W41625  17.130  15.040  11.119
70043W        W41626   4.875  42.276  13.530
70044W        W41627  14.624  33.448  11.024
70045W        W41628   2.558  34.836  10.385
70046W        W41629  14.291  22.302   4.424
70047W        W41630  27.002   2.985   4.537
70048W        W41631  29.145   0.343   0.889
70049W        W41632  22.056  10.541   3.313
70050W        W41633  30.080  23.113  10.351
70051W        W41634   9.893  39.421   1.452
70052W        W41635  20.716  19.234  10.430
70053W        W41636  12.270   5.961  12.505
70054W        W41637   8.939  16.339   0.982
70055W        W41638  18.554  27.699   1.740
70056W        W41639  30.639  34.512   3.784
70057W        W41640  29.285  20.971   3.200
70058W        W41641   9.490  25.614   2.724
70059W        W41642   5.423   9.339  12.112
70060W        W41643  14.365  14.052  13.079
70061W        W41644  13.787  34.590   2.757
70062W        W41645  41.858  11.848   4.633
70063W        W41646  21.973  30.999  14.503
70064W        W41647  26.630  13.697   0.769
70065W        W41648  33.373  21.079  10.553
70066W        W41649   5.466   2.975  14.087
70067W        W41650  14.309  44.983  11.076
70068W        W41651  42.326  19.103   2.505
70069W        W41652  13.396  37.600  11.932
70070W        W41653  42.807  24.112   0.993
70071W        W41654  30.558  30.034   2.582
70072W        W41655  43.395   3.680   2.243
70073W        W41656  20.274  25.481  12.885
70074W        W41657   8.402  12.723   3.807
70075W        W41658  36.220  31.663  12.230
70076W        W41659  14.101   0.269   1.191
70077W        W41660  19.681  18.002   3.051
70078W        W41661  29.950   4.492  13.010
70079W        W41662  38.977   2.316   4.721
70080W        W41663  26.470   2.201   0.411
70081W        W41664  35.380   8.690   2.825
70082W        W41665  10.091  14.594   3.748
70083W        W41666  23.400  24.169  11.548
70084W        W41667  21.404   5.833   1.363
70085W        W41668  17.074  28.053   9.907
70086W        W41669   0.418  41.467  10.696
70087W        W41670   2.696  29.125   4.887
70088W        W41671  44.815   1.378  11.470
70089W        W41672  16.105  44.532   1.759
70090W        W41673  30.603  38.776  13.890
70091W        W41674   1.942  16.252  10.560
70092W        W41675  26.715  21.628  13.816
70093W        W41676  30.873  37.686   5.013
70094W        W41677  19.113  33.652  12.552
70095W        W41678   1.332  11.206   0.578
70096W        W41679   9.828   2.923  14.466
70097W        W41680  14.076  28.648   2.442
70098W        W41681  21.482  22.586   0.988
70099W        W41682  32.192  33.196  14.782
70100W        W41683  36.064  37.938  12.573
70101W        W41684  26.384  16.904   5.154
70102W        W41685  15.215   7.314   4.381
70103W        W41686  22.698  11.354   2.942
70104W        W41687  34.032  35.014   3.382
70105W        W41688  44.619  29.585   0.485
70106W        W41689   9.899  38.280  14.352
70107W        W41690  10.101   8.256  13.257
70108W        W41691  31.969   3.861   2.286
70109W        W41692  23.263  38.997  14.914
70110W        W41693  36.907  38.797   2.351
70111W        W41694  34.963  12.838   3.854
70112W        W41695  19.060   9.336  12.996
70113W        W41696  13.810  32.062  12.861
70114W        W41697  43.139   5.389   4.274
70115W        W41698  13.170   0.722  11.216
70116W        W41699  14.225   9.769  14.257
70117W        W41700  21.686   6.605  12.066
70118W        W41701  14.882  12.882   2.361
70119W        W41702  42.742  16.669   1.830
70120W        W41703  10.908  32.057  12.974
70121W        W41704  29.182  25.587  12.577
70122W        W41705   5.355  42.423   2.758
70123W        W41706  17.491  43.525   3.194
70124W        W41707  35.499  21.747  13.105
70125W        W41708  36.961  23.537  13.551
70126W        W41709   8.094   7.600   4.522
70127W        W41710  38.290  12.118  12.905
70128W        W41711  26.586  32.124   1.485
70129W        W41712  11.285  24.539  12.000
70130W        W41713  32.462  44.277   2.273
70131W        W41714  13.061  36.438  11.583
70132W        W41715  29.998  40.829  12.029
70133W        W41716  44.599  15.382  10.325
70134W        W41717  10.454  30.431  14.072
70135W        W41718  19.049   2.661   1.390
70136W        W41719   0.799  23.572  12.546
70137W        W41720  43.506   9.331  11.642
70138W        W41721  13.915   6.775  10.702
70139W        W41722  42.021  25.317  10.096
70140W        W41723   4.356  42.379  11.909
70141W        W41724   4.281  24.989   4.172
70142W        W41725  13.133  38.513  10.679
70143W        W41726  32.213   2.731  14.345
70144W        W41727  18.962  19.034   1.086
70145W        W41728   0.813  39.964  10.269
70146W        W41729  21.262  15.403   0.290
70147W        W41730   9.794  23.885  12.836
70148W        W41731  44.768   9.251  12.302
70149W        W41732  24.721  13.952  10.985
70150W        W41733   3.487  11.280   4.866
70151W        W41734  32.037   8.130  14.266
70152W        W41735  43.851  29.974   0.433
70153W        W41736   9.713  11.657  13.066
70154W        W41737   5.567   4.974   3.569
70155W        W41738  16.533  29.156   0.203
70156W        W41739  28.470   5.623  11.882
70157W        W41740  14.728  28.048  12.949
70158W        W41741  27.500  23.921   2.750
70159W        W41742  44.329   4.242  14.011
70160W        W41743  18.275   9.356  11.916
70161W        W41744  40.946  33.131   2.299
70162W        W41745  31.664  10.307  13.309
70163W        W41746   9.383  30.588  12.616
70164W        W41747   7.011  42.276   2.270
70165W        W41748   4.719  40.618  10.821
70166W        W41749  29.706  34.128  13.494
70167W        W41750  21.694   1.430  12.135
70168W        W41751   3.254   2.790  12.121
70169W        W41752  31.899  38.982  10.373
70170W        W41753  31.170  22.518   1.425
70171W        W41754  34.487  12.310   1.900
70172W        W41755  44.088  25.139  12.927
70173W        W41756  12.369  39.966   3.350
70174W        W41757  12.588  29.109   1.762
70175W        W41758   2.646   8.809   0.323
70176W        W41759  12.218   1.851   2.950
70177W        W41760  35.603   0.748  13.383
70178W        W41761  41.198  39.117   1.948
70179W        W41762  29.516   6.269   2.192
70180W        W41763  40.463  22.484  13.487
70181W        W41764  33.513  38.140   3.734
70182W        W41765  37.773   0.773   4.228
70183W        W41766  35.889  26.729   3.362
70184W        W41767  20.286   1.326   2.622
70185W        W41768   5.774  18.823  13.564
70186W        W41769  39.168  40.224  14.237
70187W        W41770  14.578  44.595   0.803
70188W        W41771   4.358  37.998  13.401
70189W        W41772  34.511  35.487  12.545
70190W        W41773   5.459   1.819   0.345
70191W        W41774  28.826  40.955  10.738
70192W        W41775  29.833  28.553   2.946
70193W        W41776   0.223  16.682   0.950
70194W        W41777   3.710  16.730  14.497
70195W        W41778   7.484  15.691  13.050
70196W        W41779   2.381  27.456   2.435
70197W        W41780  25.257  41.691   4.232
70198W        W41781  38.803  42.644   0.393
70199W        W41782  24.390  21.292   2.355
70200W        W41783  39.298  44.041  14.845
70201W        W41784  40.149  38.017   3.463
70202W        W41785  37.382  13.942  11.793
70203W        W41786  37.991  38.580  14.125
70204W        W41787  13.390  44.436  14.939
70205W        W41788  18.539  16.207   4.649
70206W        W41789  23.182  33.009   4.465
70207W        W41790  29.418  31.975   3.637
70208W        W41791   9.234   4.661  10.702
70209W        W41792  28.425   0.912  12.106
70210W        W41793  37.703  34.208   3.819
70211W        W41794   8.415  26.965   1.255
70212W        W41795  21.117  10.054   3.248
70213W        W41796  33.386  17.963   2.438
70214W        W41797  26.684  23.253  14.497
70215W        W41798   4.267  27.049  11.608
70216W        W41799   8.359  17.613   2.690
70217W        W41800  36.911  30.226   4.285
70218W        W41801  12.807  36.534   1.927
70219W        W41802  19.015  28.046   3.227
70220W        W41803   5.039  43.231  12.367
70221W        W41804  15.062  16.752  13.830
70222W        W41805  17.712  24.895  10.781
70223W        W41806  10.169  20.860   2.793
70224W        W41807  16.201  37.660  10.111
70225W        W41808   1.946  28.114   2.930
70226W        W41809  34.913  39.058  14.710
70227W        W41810  15.457  35.128   4.921
70228W        W41811  14.313  42.953   1.647
70229W        W41812  26.622  19.604  12.819
70230W        W41813  10.387   9.795   3.179
70231W        W41814  28.402  44.769   1.349
70232W        W41815   3.757  29.924   4.208
70233W        W41816   6.401  10.197  12.541
70234W        W41817  15.922  20.202   2.840
70235W        W41818  26.495  15.637   3.565
70236W        W41819  12.248  35.088   3.696
70237W        W41820  22.093  28.349  14.453
70238W        W41821   8.644   1.757   0.426
70239W        W41822  27.812  41.300   0.720
70240W        W41823   0.487  10.175  11.069
70241W        W41824  32.859  24.071  13.272
70242W        W41825  22.287  32.516  11.059
70243W        W41826   6.016  39.479   1.423
70244W        W41827  31.537  40.704  14.959
70245W        W41828  25.468  31.135  11.052
70246W        W41829  42.678  36.961   0.281
70247W        W41830  44.352  12.447  12.499
70248W        W41831   5.909   3.195   1.405
70249W        W41832  28.649  43.736   0.009
70250W        W41833  13.712  35.823   0.176
70251W        W41834  14.327  37.825   3.297
70252W        W41835  42.547   4.281   3.686
70253W        W41836  24.078  33.189  14.114
70254W        W41837   5.741  29.649  10.818
70255W        W41838  29.764  21.790   2.149
70256W        W41839  39.928  13.337   0.834
70257W        W41840  32.482  29.691   1.267
70258W        W41841   4.705  18.423   3.588
70259W        W41842   8.517   6.340  14.313
70260W        W41843  15.077  37.378   3.485
70261W        W41844  19.797   5.764   3.187
70262W        W41845   7.098   7.714  13.335
70263W        W41846  38.985   3.354  13.379
70264W        W41847  31.568  14.652  12.097
70265W        W41848  12.715   6.422   1.519
70266W        W41849   5.648  15.262  11.535
70267W        W41850   5.695   6.173  12.093
70268W        W41851  10.779  21.156  11.434
70269W        W41852  20.492   3.673  10.445
70270W        W41853  13.458   8.938   3.305
70271W        W41854  31.715  37.535   1.199
70272W        W41855  14.709  11.346  12.146
70273W        W41856  20.365  11.422  10.594
70274W        W41857   6.261  27.397  11.057
70275W        W41858  28.160  29.516   2.354
70276W        W41859   3.495  36.511  10.263
70277W        W41860  20.809  23.772   4.289
70278W        W41861  28.130  18.351   2.098
70279W        W41862   9.366  11.289  13.925
70280W        W41863  17.100  44.357  14.738
70281W        W41864   2.256  10.290  13.543
70282W        W41865  12.991  37.481   0.767
70283W        W41866  14.714  21.673  10.416
70284W        W41867  26.482   6.703   1.885
70285W        W41868  32.565  31.274  10.728
70286W        W41869  26.533   2.892  11.017
70287W        W41870  19.633  31.429   2.848
70288W        W41871   7.789  37.948   1.352
70289W        W41872  35.418  17.796   4.054
70290W        W41873  22.686  40.240   5.000
70291W        W41874   7.699   6.626  11.550
70292W        W41875   2.225   4.072   1.223
70293W        W41876   0.641  28.041   4.683
70294W        W41877  14.236  23.263  14.550
70295W        W41878  11.416  10.709  12.886
70296W        W41879  36.873  40.540   2.011
70297W        W41880  29.136  20.726   4.159
70298W        W41881  33.122  14.284   0.770
70299W        W41882  44.370  33.331  13.766
70300W        W41883  33.093  43.511   2.678
70301W        W41884  16.141  13.266  13.776
70302W        W41885  24.143  38.901  12.136
70303W        W41886  39.359  33.866   4.736
70304W        W41887  12.799  16.610  11.383
70305W        W41888  12.612  29.826   2.530
70306W        W41889  18.058  12.668   3.223
70307W        W41890   7.130  35.770   2.757
70308W        W41891  44.012   3.509   1.323
70309W        W41892  28.203  27.559  11.984
70310W        W41893  39.888  26.977  14.101
70311W        W41894   9.636  43.761  14.237
70312W        W41895  37.202  23.359  12.431
70313W        W41896  25.465  33.714  13.390
70314W        W41897  28.452  30.843  14.973
70315W        W41898  18.318  21.984  11.039
70316W        W41899  31.398  22.309   1.850
70317W        W41900  44.890  12.480  13.869
70318W        W41901  10.341  10.694   2.654
70319W        W41902  38.891  31.685   3.202
70320W        W41903   7.566  13.380   1.701
70321W        W41904   8.867  14.188  13.865
70322W        W41905  17.051  37.303   3.137
70323W        W41906   4.779  15.147   0.728
70324W        W41907  33.839  35.458   1.445
70325W        W41908  41.218  39.278  10.589
70326W        W41909  15.256   5.321   1.515
70327W        W41910  11.156  31.601   2.359
70328W        W41911   3.116  41.328   3.764
70329W        W41912  31.125  25.397  11.993
70330W        W41913  18.576  40.324   0.781
70331W        W41914   8.201  35.602   4.706
70332W        W41915  10.834   5.055   4.124
70333W        W41916   8.203   0.287   1.955
70334W        W41917   3.483  22.774   0.881
70335W        W41918  37.878   5.024  10.915
70336W        W41919  28.087  25.168   4.519
70337W        W41920  28.339  26.440   4.891
70338W        W41921  10.677  18.116   0.387
70339W        W41922  20.201  30.467   1.034
70340W        W41923  17.078  35.246   4.756
70341W        W41924  40.412  39.845  13.594
70342W        W41925  13.596  13.224  12.120
70343W        W41926  14.595  11.234   3.313
70344W        W41927  36.485   6.631  13.864
70345W        W41928  27.650  20.225  14.016
70346W        W41929   2.814  43.699  11.695
70347W        W41930  36.394  12.573  12.146
70348W        W41931  39.688  16.587  12.394
70349W        W41932  21.019  13.623   3.351
70350W        W41933  13.253  25.086   0.160
70351W        W41934  33.728  39.388   0.103
70352W        W41935  24.754  29.221  11.487
70353W        W41936   2.496  11.188  13.562
70354W        W41937  38.966   4.443   2.215
70355W        W41938  35.629  11.185  10.611
70356W        W41939  28.504  17.629  10.979
70357W        W41940   0.657  40.008  12.860
70358W        W41941  18.385  13.100   1.222
70359W        W41942  42.081  41.724  12.467
70360W        W41943  28.047  40.065  11.633
70361W        W41944  25.798  34.578   4.474
70362W        W41945  12.101  31.575  13.056
70363W        W41946   8.186  19.876   3.087
70364W        W41947  14.703  19.530   1.828
70365W        W41948   3.498  14.561  11.472
70366W        W41949  20.720  37.900   2.183
70367W        W41950  19.658  39.589   1.381
70368W        W41951  33.374  10.179   3.626
70369W        W41952   8.122  16.751  12.515
70370W        W41953  26.424  27.770   1.875
70371W        W41954  22.131  40.312   3.668
70372W        W41955  36.817   4.181  11.314
70373W        W41956  12.342  20.477  13.780
70374W        W41957  37.937  31.058  11.922
70375W        W41958  28.740  28.125  13.274
70376W        W41959  10.769  30.394  14.484
70377W        W41960   5.710   9.474   3.176
70378W        W41961  11.818  32.800   0.677
70379W        W41962  44.752  31.633  12.453
70380W        W41963  11.846   3.702   1.361
70381W        W41964  13.955   6.480   1.068
70382W        W41965  11.751  20.009   4.209
70383W        W41966  16.316   6.753   4.574
70384W        W41967  17.654   9.437   3.194
70385W        W41968  37.364   9.425  11.499
70386W        W41969   7.548  39.168  13.073
70387W        W41970  30.145  20.079  11.309
70388W        W41971   1.206   0.202  13.440
70389W        W41972  38.515  13.046   1.377
70390W        W41973   6.382  30.965   4.437
70391W        W41974  35.960  10.479  11.879
70392W        W41975  15.114   7.176   3.150
70393W        W41976  23.746  43.772   3.124
70394W        W41977   9.251  43.979  10.784
70395W        W41978  13.255  10.169  12.957
70396W        W41979  43.587  22.511   2.986
70397W        W41980  10.851   2.347   4.198
70398W        W41981  16.384  26.949   4.721
70399W        W41982  14.843  33.457  12.014
70400W        W41983   6.804  20.628  14.870
70401W        W41984  32.667  36.913   3.932
70402W        W41985  17.518  32.136   2.529
70403W        W41986   3.298  18.805   4.288
70404W        W41987  12.142  30.192  14.005
70405W        W41988   4.025  35.770   1.549
70406W        W41989  36.057  14.265  10.775
70407W        W41990  12.245  41.440   1.156
70408W        W41991  38.954  12.355  11.928
70409W        W41992  28.892  15.345  12.518
70410W        W41993   6.014  14.081  13.454
70411W        W41994  28.065  34.507   2.273
70412W        W41995  34.283  43.175   4.158
70413W        W41996  35.782  20.216   3.926
70414W        W41997  18.844  25.509   2.189
70415W        W41998  34.534  31.628  13.459
70416W        W41999  26.171  30.071  12.641
70417W        W42000  34.921   8.556  12.409
70418W        W42001   2.524  16.686   3.212
70419W        W42002   9.615  12.061  13.411
70420W        W42003  43.316  39.868  13.630
70421W        W42004  26.653  31.093  14.405
70422W        W42005   2.665  14.022   3.888
70423W        W42006  12.859  42.544  13.175
70424W        W42007  38.889   4.859  11.718
70425W        W42008  38.294   5.810  13.349
70426W        W42009   0.561  28.073  10.743
70427W        W42010  12.756  37.925   1.512
70428W        W42011   8.833   4.183  13.372
70429W        W42012   3.848  13.207   0.455
70430W        W42013   1.184  33.485  11.224
70431W        W42014  35.600  40.324   2.711
70432W        W42015  27.440  21.093   0.155
70433W        W42016  12.995  34.681   0.303
70434W        W42017  17.313  19.421  13.030
70435W        W42018   4.777  36.893   9.751
70436W        W42019   5.444  37.384  12.667
70437W        W42020  15.871   3.961   1.373
70438W        W42021  28.122  13.951   0.736
70439W        W42022  30.099  32.720  12.440
70440W        W42023  15.389  25.129  10.990
70441W        W42024  28.516   4.370   4.062
70442W        W42025  27.211  22.384  12.774
70443W        W42026  19.593   3.863  11.494
70444W        W42027   2.598  26.995   4.551
70445W        W42028  10.027   3.089   4.994
70446W        W42029  22.486  42.973  12.034
70447W        W42030  33.943   4.633   0.302
70448W        W42031   8.898   2.761  12.049
70449W        W42032  28.378  12.538  14.391
70450W        W42033  25.335  16.166   1.869
70451W        W42034   2.993  30.741  11.507
70452W        W42035  34.514  13.748   1.430
70453W        W42036  31.623  18.577   0.402
70454W        W42037   4.744  13.679   0.334
70455W        W42038  31.770   7.255  10.822
70456W        W42039  43.450  44.532  10.253
70457W        W42040  27.428  13.829  13.397
70458W        W42041  23.403   1.310  10.749
70459W        W42042  44.199   3.280  10.550
70460W        W42043  42.989   0.289  10.761
70461W        W42044  10.765   1.556   1.298
70462W        W42045   0.498  22.515   1.439
70463W        W42046  41.899  43.290  12.469
70464W        W42047  33.407  39.435   1.517
70465W        W42048   5.243  33.024  13.344
70466W        W42049   8.344  11.394   2.687
70467W        W42050  40.211  13.055   5.022
70468W        W42051  27.317  12.063   2.618
70469W        W42052  16.699   3.750   4.036
70470W        W42053  26.305  20.039  12.069
70471W        W42054   9.839   2.346   4.436
70472W        W42055  43.455  10.874  13.545
70473W        W42056   3.138  30.579   1.252
70474W        W42057  42.950  32.571   3.247
70475W        W42058   6.023  32.994   3.785
70476W        W42059  39.778  37.408  10.694
70477W        W42060  15.619   8.145   4.915
70478W        W42061  38.994  11.171   1.268
70479W        W42062  31.491  35.001   2.819
70480W        W42063  24.138  26.186   2.305
70481W        W42064  26.893  12.639  12.244
70482W        W42065   0.443   7.923  13.359
70483W        W42066  33.417   3.401  12.800
70484W        W42067  32.163  33.651  13.780
70485W        W42068  40.242  16.296   2.312
70486W        W42069  36.691  28.096  11.657
70487W        W42070  33.844  23.214  14.414
70488W        W42071   7.679  17.583  11.633
70489W        W42072  22.442  12.801   3.287
70490W        W42073   1.423  19.535   3.736
70491W        W42074  26.971  12.837  14.480
70492W        W42075  40.440  34.973  13.323
70493W        W42076  11.759  28.864   2.618
70494W        W42077  25.259  21.791  12.956
70495W        W42078  21.147   1.941  14.441
70496W        W42079   2.206   1.863   3.692
70497W        W42080  34.737  19.680  11.213
70498W        W42081  17.599  32.329   4.781
70499W        W42082  18.307  26.385   9.507
70500W        W42083  41.015   8.817   4.581
70501W        W42084  35.081   3.997  14.316
70502W        W42085  19.699  34.810   2.352
70503W        W42086  13.109  33.633  12.862
70504W        W42087  44.483  29.559   3.231
70505W        W42088  28.105  12.117  14.503
70506W        W42089   2.074  14.741  12.066
70507W        W42090  12.708  23.181  12.046
70508W        W42091   3.218   6.172   1.001
70509W        W42092  28.648  43.734  13.968
70510W        W42093  31.136  43.884   1.815
70511W        W42094  42.961  37.916   5.107
70512W        W42095  28.621  19.866   0.698
70513W        W42096  15.560  29.170  13.438
70514W        W42097   8.892  13.398  12.719
70515W        W42098  44.491  38.959   1.775
70516W        W42099  11.358   4.709   3.184
70517W        W42100  44.249  26.012   3.030
70518W        W42101  21.416   6.771   1.247
70519W        W42102  28.961  20.722   5.610
70520W        W42103  17.204  34.831  13.779
70521W        W42104  20.778  40.156   1.346
70522W        W42105  17.598   6.225  10.648
70523W        W42106  18.232  15.660   4.132
70524W        W42107  13.371  31.688   0.967
70525W        W42108  24.710  40.334   2.780
70526W        W42109  14.566  17.604   2.272
70527W        W42110  30.650  26.245  14.891
70528W        W42111  31.776  20.126   4.197
70529W        W42112  14.241   9.641  11.106
70530W        W42113   6.720  25.634  13.372
70531W        W42114   0.193  17.119   0.208
70532W        W42115  20.750   3.971  12.458
70533W        W42116  20.303   7.246   2.391
70534W        W42117  36.908  31.057   0.401
70535W        W42118  41.494  38.474   3.122
70536W        W42119  23.973  33.544  10.582
70537W        W42120   4.331   6.112  14.369
70538W        W42121   6.281  11.737  12.976
70539W        W42122  33.098  18.347  13.527
70540W        W42123  35.783  24.184  14.092
70541W        W42124  44.428   9.297  12.698
70542W        W42125  38.105   2.983   1.616
70543W        W42126  24.061   3.767  13.941
70544W        W42127  28.924  38.988  13.061
70545W        W42128  35.483  42.262  13.263
70546W        W42129  40.977  30.864  13.484
70547W        W42130  39.261  44.980   3.197
70548W        W42131  20.758  31.954  14.944
70549W        W42132  30.478  31.343   1.211
70550W        W42133   2.293  16.011  12.109
70551W        W42134   3.771  40.580  14.346
70552W        W42135  26.265   6.494  10.794
70553W        W42136  18.786  39.754   1.322
70554W        W42137  12.030  20.914  10.302
70555W        W42138  23.412  28.867  10.636
70556W        W42139  39.092   9.278   3.742
70557W        W42140  37.000   4.665  10.566
70558W        W42141  30.538   5.702  14.521
70559W        W42142  14.213  19.644  13.820
70560W        W42143   5.681  11.624  12.038
70561W        W42144  13.274  10.163  13.583
70562W        W42145  27.060  33.682   2.911
70563W        W42146  20.017  42.477   4.967
70564W        W42147   3.859  30.955  11.241
70565W        W42148  18.405   5.358  14.275
70566W        W42149  26.460  20.289  11.630
70567W        W42150  36.599  18.118   4.252
70568W        W42151  19.788  29.847   2.747
70569W        W42152  10.757  39.066   0.746
70570W        W42153  40.922   6.152  12.836
70571W        W42154  30.747  11.256  10.695
70572W        W42155  25.562  44.020   2.015
70573W        W42156  34.203  23.794  13.185
70574W        W42157  35.536   4.176   0.390
70575W        W42158  28.622  35.626  14.356
70576W        W42159  23.939  10.526   4.908
70577W        W42160  12.225  33.996   0.453
70578W        W42161  28.027   3.142  14.020
70579W        W42162  33.942  20.620   0.284
70580W        W42163  38.258  20.030  14.866
70581W        W42164  30.819  30.360   3.359
70582W        W42165  27.527  31.968  14.796
70583W        W42166   9.883  28.482  11.118
70584W        W42167  19.754  18.694   1.210
70585W        W42168  11.580  13.188  11.073
70586W        W42169   6.813  20.059   1.349
70587W        W42170  44.024  39.003   0.032
70588W        W42171  36.306  37.102  11.963
70589W        W42172   7.278  32.409  13.915
70590W        W42173  19.832  11.398   3.787
70591W        W42174  18.223  41.607   3.295
70592W        W42175   2.998  37.169  12.776
70593W        W42176  19.577  21.681  11.612
70594W        W42177  22.578  26.130   4.583
70595W        W42178  35.887  24.536   1.257
70596W        W42179  38.529  24.422  13.524
70597W        W42180   5.529   2.762   2.273
70598W        W42181  17.272  38.867  11.044
70599W        W42182   9.358   0.386   1.952
70600W        W42183   2.679  44.835   2.797
70601W        W42184  20.513  26.569   0.422
70602W        W42185  30.965   0.176  11.236
70603W        W42186  16.731   8.158  11.126
70604W        W42187  10.658  38.306  11.470
70605W        W42188  22.761  16.416  14.402
70606W        W42189  11.293  29.772  11.140
70607W        W42190  31.012   8.432   3.131
70608W        W42191  11.100   6.721  11.943
70609W        W42192  38.521  14.269  14.073
70610W        W42193  35.629  15.199  13.021
70611W        W42194   2.788  40.751  12.736
70612W        W42195  13.274  39.981  12.571
70613W        W42196  29.532  24.633   4.900
70614W        W42197  40.869  27.882  14.357
70615W        W42198  23.042  16.171  10.738
70616W        W42199   8.086  43.313  12.118
70617W        W42200  15.224  30.952  11.427
70618W        W42201  26.255  36.007   3.708
70619W        W42202  42.994  33.625  14.378
70620W        W42203  22.608   2.496  11.571
70621W        W42204  24.527  26.499  12.029
70622W        W42205   4.866  39.872  12.107
70623W        W42206  19.605  37.874   2.107
70624W        W42207  41.589  19.830  11.585
70625W        W42208  24.764  43.826   1.283
70626W        W42209   7.860   6.464   5.446
70627W        W42210  22.888  38.569  13.313
70628W        W42211  29.077  17.646  12.546
70629W        W42212  25.785  41.909   3.422
70630W        W42213  42.335  29.039  13.773
70631W        W42214  15.604   5.389  12.358
70632W        W42215   3.335  33.851  14.393
70633W        W42216  24.495  23.734  11.857
70634W        W42217  10.341  43.797   1.452
70635W        W42218  14.089  15.543   4.918
70636W        W42219  17.427   5.704   3.789
70637W        W42220   6.279  27.288  11.551
70638W        W42221  26.721   3.893  12.307
70639W        W42222  34.453   3.658   2.851
70640W        W42223   9.411   9.757  12.019
70641W        W42224  25.642  25.034  10.852
70642W        W42225  21.679   6.362  10.404
70643W        W42226   9.774   9.263  12.622
70644W        W42227  29.368   6.926  14.475
70645W        W42228  10.144  33.488   0.088
70646W        W42229  28.563  28.656  10.569
70647W        W42230  44.306  27.885   4.273
70648W        W42231  22.554  27.994   3.206
70649W        W42232  29.057  35.384  14.490
70650W        W42233   1.030  25.751  12.907
70651W        W42234   6.194  30.615  14.339
70652W        W42235   6.160  37.532  10.553
70653W        W42236  28.034  24.437   0.703
70654W        W42237  42.052   9.834   3.287
70655W        W42238  26.501  21.863  11.590
70656W        W42239  15.810  31.504   4.569
70657W        W42240  23.943  42.421  13.953
70658W        W42241  38.030  24.809  14.327
70659W        W42242   9.688  38.835  13.885
70660W        W42243  43.824  11.923  13.123
70661W        W42244   9.407   8.784   5.102
70662W        W42245   2.926   2.933   1.657
70663W        W42246  37.930   5.468   1.760
70664W        W42247  17.611  38.337  10.664
70665W        W42248   3.124   0.752   2.933
70666W        W42249  37.648  30.621  11.201
70667W        W42250  18.639  25.771  11.113
70668W        W42251  37.466  41.605  10.785
70669W        W42252  34.381   2.733   2.617
70670W        W42253   7.390  11.769  10.613
70671W        W42254  36.894  31.744   2.289
70672W        W42255  13.711  14.921   3.438
70673W        W42256  22.572   2.654   0.694
70674W        W42257  15.000  41.351  12.131
70675W        W42258  33.347  39.465  12.656
70676W        W42259  20.790  17.236  13.332
70677W        W42260   6.797  10.332   3.824
70678W        W42261  14.367  41.390  14.876
70679W        W42262  34.674  39.376   3.355
70680W        W42263   3.694   8.915   1.970
70681W        W42264  16.597  12.162  14.439
70682W        W42265  22.541  29.906   4.652
70683W        W42266  29.950  44.977   3.561
70684W        W42267  39.909   8.301  10.570
70685W        W42268  33.467  38.941   4.055
70686W        W42269  19.759  30.546   3.630
70687W        W42270  31.441  10.194  14.849
70688W        W42271  33.523  17.790  10.086
70689W        W42272  21.083   7.397   3.825
70690W        W42273  38.112  44.991   3.706
70691W        W42274  13.944   6.101   1.793
70692W        W42275  25.161  41.349  11.473
70693W        W42276  35.002  22.508  13.097
70694W        W42277  35.034  41.322   4.985
70695W        W42278  42.319  27.703  13.496
70696W        W42279  13.734  30.399  10.634
70697W        W42280  21.047  33.659   4.941
70698W        W42281  25.995  35.550   3.713
70699W        W42282  14.172  43.845   4.161
70700W        W42283  25.492   1.175  14.363
70701W        W42284   4.305   0.289   4.661
70702W        W42285  26.100  40.133   3.930
70703W        W42286  31.518  10.086   3.153
70704W        W42287   3.333  28.599   2.848
70705W        W42288   3.276  40.391   2.755
70706W        W42289  17.519  40.814  12.965
70707W        W42290  26.272   6.927  13.946
70708W        W42291  13.666   1.035   3.683
70709W        W42292  18.597  11.473  14.411
70710W        W42293   7.994   4.376  11.661
70711W        W42294   4.349  28.343   1.053
70712W        W42295   1.777   5.391  10.668
70713W        W42296  23.517  41.246   0.898
70714W        W42297   7.237  15.718   0.165
70715W        W42298  30.674  19.002  12.011
70716W        W42299  21.709   4.515   0.175
70717W        W42300  32.612  22.239  10.651
70718W        W42301  34.079  13.883  14.457
70719W        W42302  28.211  12.713  13.781
70720W        W42303  22.024  32.973   2.211
70721W        W42304  24.139  24.659  12.710
70722W        W42305  39.931   6.069   2.682
70723W        W42306  29.460  23.670  12.129
70724W        W42307  10.210  11.125  12.004
70725W        W42308   9.730  14.546  12.725
70726W        W42309  25.142  37.222  10.631
70727W        W42310  26.606  25.263  10.786
70728W        W42311   2.291  13.238   2.704
70729W        W42312  25.911   1.341  11.111
70730W        W42313  27.166  19.974  13.798
70731W        W42314  29.543  12.147  11.103
70732W        W42315  15.557  16.688  14.797
70733W        W42316   2.401  17.647  13.834
70734W        W42317  22.189   8.932   0.832
70735W        W42318   9.750  42.000  12.528
70736W        W42319  26.513  25.287  14.530
70737W        W42320  20.444   5.969   1.342
70738W        W42321  12.891   8.913  10.795
70739W        W42322  32.369  13.585  13.100
70740W        W42323   6.771   7.722   0.956
70741W        W42324  38.016  34.540  13.860
70742W        W42325  20.497  16.330  11.589
70743W        W42326  20.179   5.539   0.763
70744W        W42327  28.992  41.982  13.448
70745W        W42328  39.219  42.697  14.469
70746W        W42329  13.833   0.938  13.408
70747W        W42330  20.140   3.909  14.453
70748W        W42331  17.115  21.573  11.056
70749W        W42332  31.693   4.866   2.923
70750W        W42333  29.619  31.561  11.934
70751W        W42334  26.155  12.622   1.347
70752W        W42335  16.448  11.922   0.903
70753W        W42336   9.334  11.641   0.749
70754W        W42337  31.772  10.939  14.281
70755W        W42338  21.258   4.483  12.866
70756W        W42339  16.540  14.464   1.916
70757W        W42340  42.015  25.292   3.049
70758W        W42341   1.325  21.861  11.945
70759W        W42342  42.321  12.450   4.120
70760W        W42343  27.502  40.947   0.458
70761W        W42344   0.186   8.532  11.638
70762W        W42345  10.545  25.353   4.383
70763W        W42346  10.339   7.678   2.241
70764W        W42347  33.547  23.819   0.339
70765W        W42348  14.836  33.167   2.279
70766W        W42349  10.590  28.101  14.005
70767W        W42350  26.430  33.441   4.965
70768W        W42351  27.147  35.305  13.366
70769W        W42352  21.521  12.768   3.383
70770W        W42353  37.489   7.380  10.653
70771W        W42354  32.897  13.091  12.008
70772W        W42355  31.773  12.761   1.718
70773W        W42356  15.794   8.373  12.508
70774W        W42357  14.207   6.904   0.847
70775W        W42358   9.679   3.632   0.769
70776W        W42359  16.578  27.692   2.149
70777W        W42360  33.866  39.535  12.634
70778W        W42361  13.608  30.644   4.684
70779W        W42362  42.769  16.770   2.891
70780W        W42363  26.046  25.813  14.986
70781W        W42364   7.598  36.540   0.706
70782W        W42365  14.687  26.482  13.628
70783W        W42366  32.616  38.511  14.916
70784W        W42367  13.548  24.485   2.675
70785W        W42368   6.442   8.367   3.203
70786W        W42369  22.415  15.575  11.839
70787W        W42370  28.054  15.528  11.960
70788W        W42371  22.089   2.932   4.257
70789W        W42372  44.954  34.147  10.660
70790W        W42373  36.046  21.327  10.794
70791W        W42374   9.036  24.405  11.193
70792W        W42375  15.702   6.325   0.505
70793W        W42376  21.685  32.608   2.344
70794W        W42377  35.423   1.287   3.881
70795W        W42378  23.597   8.274   1.734
70796W        W42379  15.083  17.581  12.455
70797W        W42380  39.463   5.059   2.413
70798W        W42381  26.965   5.352   2.921
70799W        W42382  31.906  43.350  13.886
70800W        W42383  23.656  23.397  11.376
70801W        W42384  15.545   2.906  12.326
70802W        W42385  38.553  39.365   1.123
70803W        W42386  23.780  16.266  14.236
70804W        W42387  12.038  25.207   1.370
70805W        W42388   2.301  34.172   0.835
70806W        W42389  14.845  15.256  12.682
70807W        W42390  32.340  29.975  11.095
70808W        W42391   7.617  29.355   0.696
70809W        W42392  40.857  27.570   3.740
70810W        W42393  41.931  21.240   2.652
70811W        W42394  35.151  39.404   1.937
70812W        W42395   6.710  11.255   3.624
70813W        W42396  19.825  37.384   5.050
70814W        W42397   6.684  33.703  11.895
70815W        W42398  40.717   7.887  11.147
70816W        W42399  36.085  32.583  11.556
70817W        W42400  18.686  40.836  12.148
70818W        W42401  27.061  28.208  13.538
70819W        W42402  15.059  17.523  10.713
70820W        W42403  29.403  38.383   0.842
70821W        W42404  12.242  32.674  13.954
70822W        W42405  10.280  42.553  11.457
70823W        W42406  33.183   8.363  14.801
70824W        W42407  21.886  11.343   0.552
70825W        W42408  16.246  42.803   0.925
70826W        W42409   9.394  44.303   0.360
70827W        W42410  30.679  16.298   0.251
70828W        W42411  28.197   2.564   3.714
70829W        W42412   4.727   2.221   2.871
70830W        W42413   5.653   4.871   2.652
70831W        W42414   8.846  13.730  11.266
70832W        W42415  24.641  14.243   4.154
70833W        W42416  28.914   6.797  11.614
70834W        W42417  26.685  37.669  13.501
70835W        W42418   2.948   3.222  14.272
70836W        W42419   5.410  40.520   0.235
70837W        W42420  22.633  17.076   3.199
70838W        W42421  15.147   2.100  11.605
70839W        W42422  13.848  28.076  14.766
70840W        W42423  25.154  34.879   2.274
70841W        W42424   2.760  24.430  11.529
70842W        W42425  37.979  14.187  10.760
70843W        W42426  12.744   9.192   0.711
70844W        W42427  28.896  12.209   0.718
70845W        W42428  32.426  37.806   3.333
70846W        W42429  26.038   7.739  11.328
70847W        W42430   0.970  36.104  10.681
70848W        W42431  12.099  11.157  13.785
70849W        W42432  19.685   0.031   4.255
70850W        W42433  16.034  15.242  14.379
70851W        W42434  18.640  20.193   4.180
70852W        W42435   6.871  23.395   4.481
70853W        W42436  43.954  42.625   0.347
70854W        W42437  22.807  24.564  10.918
70855W        W42438  27.840  38.063   1.275
70856W        W42439  16.546   6.097  11.914
70857W        W42440  12.158  11.639   1.942
70858W        W42441   5.669   3.256   2.821
70859W        W42442  26.940  24.511  11.916
70860W        W42443   5.912   8.869  13.307
70861W        W42444  31.531  26.498   4.630
70862W        W42445  22.204  24.296   1.314
70863W        W42446  33.336  12.570  12.587
70864W        W42447  22.121   9.550   3.089
70865W        W42448  25.865  21.821  14.756
70866W        W42449   1.418  31.266   0.442
70867W        W42450  10.512  25.189  10.712
70868W        W42451  40.377   7.942  13.428
70869W        W42452  42.228  24.045   1.265
70870W        W42453  16.481   8.128   2.338
70871W        W42454  28.806  41.277   0.887
70872W        W42455  44.366  40.548  12.989
70873W        W42456  28.038  37.535   3.349
70874W        W42457  22.195  27.109   4.875
70875W        W42458   2.342  32.364  11.188
70876W        W42459  15.343  35.405  14.826
70877W        W42460   3.442   4.442  12.282
70878W        W42461  10.149  14.142   0.201
70879W        W42462   0.407  14.235   1.347
70880W        W42463  26.620  21.508  11.222
70881W        W42464   7.301  20.031   3.211
70882W        W42465   5.169  15.845  12.530
70883W        W42466  24.609  34.886  10.585
70884W        W42467  35.562  30.631   2.473
70885W        W42468  37.822  25.749  14.388
70886W        W42469   5.251  12.650  11.433
70887W        W42470  38.806  37.877   2.869
70888W        W42471   1.452  18.697   0.774
70889W        W42472  36.019  38.405   0.508
70890W        W42473  39.569   2.628   0.920
70891W        W42474  36.476  42.243   0.258
70892W        W42475  42.009  29.265  11.658
70893W        W42476  16.738  35.934  14.285
70894W        W42477   0.095  28.352   3.301
70895W        W42478  14.806   4.613  13.262
70896W        W42479  30.610  39.189   9.879
70897W        W42480  41.335   9.286  10.713
70898W        W42481  14.191  23.073   0.551
70899W        W42482  21.829  12.809   5.177
70900W        W42483  12.853  19.829   3.151
70901W        W42484   9.871  42.241  11.443
70902W        W42485   7.812  17.539  12.938
70903W        W42486   6.109  25.863   1.327
70904W        W42487  11.955  16.842   1.941
70905W        W42488  36.645  10.263  14.389
70906W        W42489  34.523  26.990   4.661
70907W        W42490  28.515   0.417   0.349
70908W        W42491  13.988  42.925   2.614
70909W        W42492   4.714  39.017   0.780
70910W        W42493  25.935   1.370  13.613
70911W        W42494  25.933  29.395  11.967
70912W        W42495  12.707  16.053  11.614
70913W        W42496  37.532  24.953   3.841
70914W        W42497   4.692  36.360   3.340
70915W        W42498  30.527  11.539  13.769
70916W        W42499  14.345  33.262   4.852
70917W        W42500  39.947  43.318   2.729
70918W        W42501  10.659  34.358   4.595
70919W        W42502  28.705  17.691   3.666
70920W        W42503  21.142   7.397  10.664
70921W        W42504  25.033  31.361  10.804
70922W        W42505  23.032  22.105   1.430
70923W        W42506  40.909  21.125   0.034
70924W        W42507   6.257   8.243   3.686
70925W        W42508  37.463  26.711   3.170
70926W        W42509  19.565  40.578  11.664
70927W        W42510   0.303  32.678   4.594
70928W        W42511   6.859  34.377  11.148
70929W        W42512   7.881  10.213  11.513
70930W        W42513  42.309  10.697  14.012
70931W        W42514  25.853   3.185   2.404
70932W        W42515  44.134   2.807  12.502
70933W        W42516  29.245  20.325   5.432
70934W        W42517   9.444   6.121   2.195
70935W        W42518  12.841  43.761   0.733
70936W        W42519  32.977  24.199   2.928
70937W        W42520  34.133  25.579   1.948
70938W        W42521  16.247  29.151   2.354
70939W        W42522  38.938  36.113   3.706
70940W        W42523  16.910  37.819   9.697
70941W        W42524  14.636  30.609  10.361
70942W        W42525  30.678   9.339   0.282
70943W        W42526  42.825   1.468   3.410
70944W        W42527  13.679  29.458  13.372
70945W        W42528   8.637  10.153  11.992
70946W        W42529  24.910   8.820   4.633
70947W        W42530  16.584  25.621   1.161
70948W        W42531  33.531   1.911  14.951
70949W        W42532  23.633  27.137  10.891
70950W        W42533  42.048  39.434  14.549
70951W        W42534   8.442   3.019  12.111
70952W        W42535  42.057  40.420  14.332
70953W        W42536   7.117   4.275  11.876
70954W        W42537  10.650  41.763   1.428
70955W        W42538  11.250  13.786  10.783
70956W        W42539  28.493  16.070   0.441
70957W        W42540  44.525  39.602   1.811
70958W        W42541  16.490   3.308   1.782
70959W        W42542   5.371  38.953  12.017
70960W        W42543  10.622  26.424   1.201
70961W        W42544  12.897  43.533  10.575
70962W        W42545  22.731   5.348  11.227
70963W        W42546   4.360  44.440   2.460
70964W        W42547  28.276  17.108   1.149
70965W        W42548   9.347  11.597   4.144
70966W        W42549   0.153  24.208   1.678
70967W        W42550  23.015  21.176   1.385
70968W        W42551   7.301   7.095   2.014
70969W        W42552  25.694  16.009   3.000
70970W        W42553  42.817  23.434   3.766
70971W        W42554   8.435  26.171  12.345
70972W        W42555  25.138  20.212   0.850
70973W        W42556  36.610  15.051  14.250
70974W        W42557  43.759  37.962   1.891
70975W        W42558  43.560  42.774  12.529
70976W        W42559  41.740  19.118   1.670
70977W        W42560  14.092  12.701  11.929
70978W        W42561  27.668  20.715  12.828
70979W        W42562   5.416  39.750   0.719
70980W        W42563  21.050   8.342   4.962
70981W        W42564   4.048  41.340   2.499
70982W        W42565   0.874  15.109   0.467
70983W        W42566  11.756  43.431  14.297
70984W        W42567  11.102   6.791  14.750
70985W        W42568  28.244  36.991  14.878
70986W        W42569  10.695   3.936  10.730
70987W        W42570  12.645  39.520   3.931
70988W        W42571  11.173  10.764  11.905
70989W        W42572  23.137  14.119   3.575
70990W        W42573  35.141  39.134   2.763
70991W        W42574  22.721   4.817   2.227
70992W        W42575  15.645  21.266  10.667
70993W        W42576  16.587  29.539   2.467
70994W        W42577   5.146  23.601  14.886
70995W        W42578  11.336  43.569   2.200
70996W        W42579   4.179   1.268   0.279
70997W        W42580  10.087   9.297   1.440
70998W        W42581  11.939  35.345   0.857
70999W        W42582  10.574   1.988   1.511
71000W        W42583  24.936  34.850   1.785
71001W        W42584  37.972  14.133   2.865
71002W        W42585   7.155  40.886  14.816
71003W        W42586  16.315   7.143  10.293
71004W        W42587  26.026  33.029   3.355
71005W        W42588  34.533  31.468   4.593
71006W        W42589   5.893  17.665   0.435
71007W        W42590  40.491  35.499   4.397
71008W        W42591  40.378   8.458  10.689
71009W        W42592  42.095  33.739   4.810
71010W        W42593  16.761  42.488   4.769
71011W        W42594  30.469  43.508  13.965
71012W        W42595  13.876   1.349  12.488
71013W        W42596  25.562  33.651   1.325
71014W        W42597  35.291  35.218   2.206
71015W        W42598   2.834  43.638  12.540
71016W        W42599  39.452  42.854  13.319
71017W        W42600  42.880   1.672  14.941
71018W        W42601  10.247  36.345   0.717
71019W        W42602  22.162  18.224   0.807
71020W        W42603  29.042  17.933  10.414
71021W        W42604  20.785  19.318   5.392
71022W        W42605  22.988  38.550   2.957
71023W        W42606   8.415   7.910  13.275
71024W        W42607  12.855  35.845  13.864
71025W        W42608  20.982   3.725  10.638
71026W        W42609  18.778  11.440  12.529
71027W        W42610  38.855  35.241  14.482
71028W        W42611  22.637  19.567   0.760
71029W        W42612  43.526  40.435  13.358
71030W        W42613   1.592  10.330   2.295
71031W        W42614  28.980  35.317   4.095
71032W        W42615  38.271  36.755  11.595
71033W        W42616  41.180   3.749  12.821
71034W        W42617   2.777   4.966  10.674
71035W        W42618   3.005   0.945  13.401
71036W        W42619  40.865  14.578   1.726
71037W        W42620   2.910   0.726   0.711
71038W        W42621   2.856   8.141   1.413
71039W        W42622  38.878  32.423   0.728
71040W        W42623  38.979  26.264  12.973
71041W        W42624   6.568  24.613   4.862
71042W        W42625   9.739   0.955   2.284
71043W        W42626   3.151   0.928   0.301
71044W        W42627  34.584  28.196  13.207
71045W        W42628  34.553  15.829  10.943
71046W        W42629  43.478  31.151   1.911
71047W        W42630  43.944   5.737   4.751
71048W        W42631  43.059  34.505  13.011
71049W        W42632  12.763  24.179   4.329
71050W        W42633  25.975   7.292  11.601
71051W        W42634  37.018  26.189  12.525
71052W        W42635  20.776  39.550  13.291
71053W        W42636  35.065  37.418   3.569
71054W        W42637  26.145   0.009  10.655
71055W        W42638   2.914   6.899  10.750
71056W        W42639  36.683  20.655  13.596
71057W        W42640   4.006  31.129   4.693
71058W        W42641  10.298  17.198  12.192
71059W        W42642   6.498  25.201  12.825
71060W        W42643   0.848  23.264  14.357
71061W        W42644  23.089  38.443   3.458
71062W        W42645  30.038  16.997   1.178
71063W        W42646  41.926  12.779  14.375
71064W        W42647  35.561  22.734  12.140
71065W        W42648  27.583  40.505  12.841
71066W        W42649  28.056  10.840  13.099
71067W        W42650  33.982  17.823  11.530
71068W        W42651  33.867  39.989  12.868
71069W        W42652  24.846   6.717  13.953
71070W        W42653  22.118  33.763  12.254
71071W        W42654  13.713  36.654  10.601
71072W        W42655  44.268   6.399   3.406
71073W        W42656  38.289  32.953  14.653
71074W        W42657  23.946  44.456  10.331
71075W        W42658  16.730  34.194   5.100
71076W        W42659  12.861  13.750  11.905
71077W        W42660  28.542  26.685   1.903
71078W        W42661  33.832  20.480  11.597
71079W        W42662  19.202  18.011  10.981
71080W        W42663   5.684  11.764   3.209
71081W        W42664  15.368  29.297  12.946
71082W        W42665  41.437   7.930   3.424
71083W        W42666   8.584  33.258   5.049
71084W        W42667  22.667  19.736   5.096
71085W        W42668  38.416  39.815  13.024
71086W        W42669  34.884  37.059  13.301
71087W        W42670  38.413  21.901  11.748
71088W        W42671   9.711  22.216  12.016
71089W        W42672  23.045  28.603   2.719
71090W        W42673  25.516   3.207   0.675
71091W        W42674  21.275  14.155  10.227
71092W        W42675  30.131  32.858   4.843
71093W        W42676   7.871  32.106  12.059
71094W        W42677  32.848  27.485  14.457
71095W        W42678   2.300   8.083  14.460
71096W        W42679  11.332  34.959   2.175
71097W        W42680   8.297   2.255   0.620
71098W        W42681  11.618  40.920   1.152
71099W        W42682  30.146  42.494  13.823
71100W        W42683  27.897  17.840   0.505
71101W        W42684  33.832  25.344  11.518
71102W        W42685  24.976  31.178   4.162
71103W        W42686  18.524  31.887  11.030
71104W        W42687  29.016  37.564   3.676
71105W        W42688   7.754  19.799  11.803
71106W        W42689  32.615  19.495  12.130
71107W        W42690  43.413  31.676  13.460
71108W        W42691  25.073  39.755  13.382
71109W        W42692  29.989  16.332  10.808
71110W        W42693  15.673  30.240   1.161
71111W        W42694   8.309  33.809  13.950
71112W        W42695  35.711   2.303  11.562
71113W        W42696  31.126  10.687   3.157
71114W        W42697  14.139   3.780   4.600
71115W        W42698  39.526   4.376   4.290
71116W        W42699   5.896  31.392  14.872
71117W        W42700  26.228   5.405   2.449
71118W        W42701  39.169  26.987   2.857
71119W        W42702  13.832  30.133   1.398
71120W        W42703  10.189   1.164   3.707
71121W        W42704  34.424  41.709   2.100
71122W        W42705  14.689  23.742   4.145
71123W        W42706  15.079  39.811  10.983
71124W        W42707  37.250   7.447  12.118
71125W        W42708  38.962  16.380  10.784
71126W        W42709   7.810  40.417  12.241
71127W        W42710   1.314   1.818  12.120
71128W        W42711  11.164   3.185   3.153
71129W        W42712   5.719  27.152   1.426
71130W        W42713  25.683  40.038   2.140
71131W        W42714   0.463  29.177   3.608
71132W        W42715  43.069  27.179  12.223
71133W        W42716  29.672  25.798   3.260
71134W        W42717  32.191   5.417   4.547
71135W        W42718   9.662   2.244  12.433
71136W        W42719  22.609  29.136  10.165
71137W        W42720  43.379  34.949   3.173
71138W        W42721   5.676   1.667   3.264
71139W        W42722  19.515   1.314   0.354
71140W        W42723   6.298  23.290  11.616
71141W        W42724  24.681  43.247  12.324
71142W        W42725  42.738   5.877   1.771
71143W        W42726   8.922   5.983  11.045
71144W        W42727  20.255  16.708  13.054
71145W        W42728   6.954  25.247  13.083
71146W        W42729   9.776  11.120  11.630
71147W        W42730   9.083   1.520  14.098
71148W        W42731  14.719   2.066  11.892
71149W        W42732   1.807   6.899   2.246
71150W        W42733  22.102  36.910  10.853
71151W        W42734  20.546  31.459   4.392
71152W        W42735   1.833  11.940  13.981
71153W        W42736  30.650   1.836  10.658
71154W        W42737  23.958   8.212  12.090
71155W        W42738  34.577   5.574   1.012
71156W        W42739  10.167  23.878  11.491
71157W        W42740   8.766   5.421  14.387
71158W        W42741  15.838  33.519  14.913
71159W        W42742   3.803  13.321   0.953
71160W        W42743   9.186  12.742  10.720
71161W        W42744  33.828  10.667  10.498
71162W        W42745  37.310   1.375   4.595
71163W        W42746  15.083  37.966   1.406
71164W        W42747  42.075   6.755  11.106
71165W        W42748  44.900   0.228   3.263
71166W        W42749  31.616  43.521  13.157
71167W        W42750  26.702   2.791  14.031
71168W        W42751  37.945  24.916  14.992
71169W        W42752  27.332  36.098   2.742
71170W        W42753  27.500  37.773   0.000
71171W        W42754  28.481  21.397   2.637
71172W        W42755   0.841  23.554  11.583
71173W        W42756  21.282  21.084   1.906
71174W        W42757  42.996  15.704   1.524
71175W        W42758  39.909  38.018  14.350
71176W        W42759  14.514  18.745  12.955
71177W        W42760  38.853   8.302   5.504
71178W        W42761  30.756  13.635  10.525
71179W        W42762   8.149  39.332   2.327
71180W        W42763  17.805  20.677  14.455
71181W        W42764  41.282  11.906   1.776
71182W        W42765  39.283  23.646   3.686
71183W        W42766  38.749  22.771  13.756
71184W        W42767  13.042  18.556  12.575
71185W        W42768  23.794   1.307   0.728
71186W        W42769  21.112   7.300  10.160
71187W        W42770   1.280  17.228   0.056
71188W        W42771  24.514  44.989   3.681
71189W        W42772   9.639  17.201   2.950
71190W        W42773   4.966  43.541   0.662
71191W        W42774  28.133  35.342  10.723
71192W        W42775  22.082  26.467   0.835
71193W        W42776  41.533  13.430  11.542
71194W        W42777   0.195  41.268   2.028
71195W        W42778  42.621   6.695   4.040
71196W        W42779  17.711   6.258   1.461
71197W        W42780  17.699   0.778  12.633
71198W        W42781  39.945   7.610  10.948
71199W        W42782   0.484   8.869  13.440
71200W        W42783  40.312  37.585  11.569
71201W        W42784  10.867   2.516  14.880
71202W        W42785  38.939  43.270   2.711
71203W        W42786  16.682  30.173   3.096
71204W        W42787   7.219  25.145  14.886
71205W        W42788  41.266  25.058  11.090
71206W        W42789   1.388   8.631  12.548
71207W        W42790  36.955  31.804  11.149
71208W        W42791  39.851  31.174   2.575
71209W        W42792  24.492  30.956  11.617
71210W        W42793  14.232  26.725  14.489
71211W        W42794   8.649  17.874  13.831
71212W        W42795  23.425  10.148   2.257
71213W        W42796  44.326  37.334  14.121
71214W        W42797  28.214  21.291   4.527
71215W        W42798  28.578   7.940  10.898
71216W        W42799  12.325  42.823  12.681
71217W        W42800   6.946   2.999  14.256
71218W        W42801  34.405  36.211  11.821
71219W        W42802  43.518  37.584  13.055
71220W        W42803  39.392  29.731   0.650
71221W        W42804  27.583   4.987  11.929
71222W        W42805  41.576  21.328  12.530
71223W        W42806  20.751   8.919   0.771
71224W        W42807  11.380  21.521   3.775
71225W        W42808  21.039  16.075  10.529
71226W        W42809   2.177  43.080  11.643
71227W        W42810  26.751   3.818  11.803
71228W        W42811  31.010  32.067  10.221
71229W        W42812  38.550  29.413   1.266
71230W        W42813  37.989  42.023  11.982
71231W        W42814  35.090  44.952  13.539
71232W        W42815  10.658  20.735  13.536
71233W        W42816  33.889   8.476  13.398
71234W        W42817  15.090  22.576  11.619
71235W        W42818  21.223  24.562  14.985
71236W        W42819  33.927  41.898   3.424
71237W        W42820  21.052  27.938  10.965
71238W        W42821  37.848  23.664  13.570
71239W        W42822  35.672  27.595  11.217
71240W        W42823  30.616  23.873  13.231
71241W        W42824  33.989  33.891   4.843
71242W        W42825  17.272  37.451   5.020
71243W        W42826  25.591  41.897  10.746
71244W        W42827   9.114  33.829   2.870
71245W        W42828  25.145  40.950  12.292
71246W        W42829  37.996  13.117   3.484
71247W        W42830  34.333   2.323  13.888
71248W        W42831  13.814  44.403   4.570
71249W        W42832  17.258  37.115   9.783
71250W        W42833  42.880   9.664  12.887
71251W        W42834  11.571  10.160  14.252
71252W        W42835   2.378  15.326   3.771
71253W        W42836  38.037  15.131  13.826
71254W        W42837  31.886  24.151  13.388
71255W        W42838  34.348  12.194  13.998
71256W        W42839  13.989  12.332   0.569
71257W        W42840  13.904   7.283   2.760
71258W        W42841  33.582   4.200   0.362
71259W        W42842  44.814   9.372  14.152
71260W        W42843   4.884   3.182   4.627
71261W        W42844  16.298  18.183  12.456
71262W        W42845  42.505  22.967   3.819
71263W        W42846  22.988  42.387  13.818
71264W        W42847  14.265   0.652   2.355
71265W        W42848  30.913  43.832  10.585
71266W        W42849  43.012  24.939   3.913
71267W        W42850  19.345  12.809   0.436
71268W        W42851   6.195  16.845  14.763
71269W        W42852  36.417  17.100   0.815
71270W        W42853  22.250   1.978   2.159
71271W        W42854  28.490   9.738   1.266
71272W        W42855  19.422  44.886   0.789
71273W        W42856  26.726  10.341  14.532
71274W        W42857   8.134  39.498   0.788
71275W        W42858  41.394  20.304  11.559
71276W        W42859  40.229  41.455   3.257
71277W        W42860  32.679  18.568   2.376
71278W        W42861  15.899  22.107  10.094
71279W        W42862  36.516  10.460   0.359
71280W        W42863  43.857   5.429   0.401
71281W        W42864  41.438  30.259  12.930
71282W        W42865  12.235  15.474   4.026
71283W        W42866  30.177  27.482   0.779
71284W        W42867  16.854  20.610  12.934
71285W        W42868  22.950  13.596  11.612
71286W        W42869   8.187  18.453   0.910
71287W        W42870  14.672  33.908   4.115
71288W        W42871  25.036  17.713   3.588
71289W        W42872  31.117   3.339   4.370
71290W        W42873  19.313  21.752  14.348
71291W        W42874   7.895  35.346  12.652
71292W        W42875  10.632   1.298  12.470
71293W        W42876   6.472  17.713  12.997
71294W        W42877   8.667  34.681  13.040
71295W        W42878  16.141  14.765   2.138
71296W        W42879   6.797  32.622   3.355
71297W        W42880   7.700  32.878  14.312
71298W        W42881   5.493  10.301  13.467
71299W        W42882   0.429  25.740  11.239
71300W        W42883   1.942   7.911  10.751
71301W        W42884   3.018  17.106   3.835
71302W        W42885  44.413  39.979  10.943
71303W        W42886  43.484  13.730   3.523
71304W        W42887  36.261   3.874   4.613
71305W        W42888  19.222   2.865   4.692
71306W        W42889   3.725  31.118  12.590
71307W        W42890   2.486  15.687  12.911
71308W        W42891  41.796   1.426   4.500
71309W        W42892  36.346  21.237  12.364
71310W        W42893   7.162  39.918  14.787
71311W        W42894  32.784   4.662  12.051
71312W        W42895   0.473   1.205  12.881
71313W        W42896  37.147  30.421  11.204
71314W        W42897  26.157  17.535   0.746
71315W        W42898   8.634  27.079  11.405
71316W        W42899   8.197  32.787  14.058
71317W        W42900  25.968  36.424   3.857
71318W        W42901  36.524  11.248   3.696
71319W        W42902  10.886   3.170   4.053
71320W        W42903  25.356  42.640   2.183
71321W        W42904  44.766  17.620  14.601
71322W        W42905  25.614  23.604  11.863
71323W        W42906  36.422   0.769   0.253
71324W        W42907  44.766  13.879  11.929
71325W        W42908  35.642  19.798   1.742
71326W        W42909  27.256  34.995   2.308
71327W        W42910   9.825   0.644   1.874
71328W        W42911   4.415   0.946  11.625
71329W        W42912  20.686  27.217   1.712
71330W        W42913  38.246  24.491   3.359
71331W        W42914  14.068  41.156  14.047
71332W        W42915  27.674  21.543   2.208
71333W        W42916   1.040  37.441  13.145
71334W        W42917  18.484  30.586  13.000
71335W        W42918  43.815   8.132   0.995
71336W        W42919  23.571  37.547   3.141
71337W        W42920   8.697  20.642   3.128
71338W        W42921  21.258  30.443   3.630
71339W        W42922  25.520  10.088   1.017
71340W        W42923  23.505  17.143  14.615
71341W        W42924  11.163  14.183   0.761
71342W        W42925  17.768  21.524   2.122
71343W        W42926  29.873  32.920  11.178
71344W        W42927   7.922  40.511   3.776
71345W        W42928  39.303  33.430  11.162
71346W        W42929  44.273   5.418  10.600
71347W        W42930  37.978  13.669   0.622
71348W        W42931  39.573  34.451  12.513
71349W        W42932  32.100  29.350   1.273
71350W        W42933  33.323  18.439   4.102
71351W        W42934  29.465  32.177  12.946
71352W        W42935  43.399  23.231  11.667
71353W        W42936  30.447  23.684  14.218
71354W        W42937  43.576   3.922   2.680
71355W        W42938  18.387  29.435   3.659
71356W        W42939  17.721  26.617  12.470
71357W        W42940  16.334  12.103  12.963
71358W        W42941  41.511  43.500  12.799
71359W        W42942   3.838  14.229   1.542
71360W        W42943  27.697   4.875  14.872
71361W        W42944  21.145  26.979   1.892
71362W        W42945  23.386  26.177   2.721
71363W        W42946  10.322  29.496  11.620
71364W        W42947   5.489   3.253  13.037
71365W        W42948  28.956   5.375  11.479
71366W        W42949   2.963  39.524  10.675
71367W        W42950  11.826   9.690  10.255
71368W        W42951  21.830   1.904  11.683
71369W        W42952   1.407  42.407   3.891
71370W        W42953  10.374  34.447  13.935
71371W        W42954   2.363   9.199  10.761
71372W        W42955  30.877  37.395  14.873
71373W        W42956   5.397  13.749  12.516
71374W        W42957  26.438  33.924  12.380
71375W        W42958  15.060   5.767   1.283
71376W        W42959   3.196   5.877   3.120
71377W        W42960  12.350  36.427  11.899
71378W        W42961   2.316   1.828  14.381
71379W        W42962  32.788  12.081   1.201
71380W        W42963   1.620  28.618  11.280
71381W        W42964   9.608  29.925   2.149
71382W        W42965  26.626  41.303  14.471
71383W        W42966  20.025  19.392   4.242
71384W        W42967  22.457   2.124   4.189
71385W        W42968   9.921   0.388   4.529
71386W        W42969  44.361  39.778   4.000
71387W        W42970   0.227  40.411   2.771
71388W        W42971  31.946  26.097   0.388
71389W        W42972  37.552   3.801  12.349
71390W        W42973  42.333  32.066   2.775
71391W        W42974  26.794   6.456   1.463
71392W        W42975   2.475  27.692  12.064
71393W        W42976  15.363  43.706  10.585
71394W        W42977  18.808   6.625   0.279
71395W        W42978  26.231  15.165  12.557
71396W        W42979  12.631  39.895   2.206
71397W        W42980  44.461  19.024   1.252
71398W        W42981  40.552  32.771  11.199
71399W        W42982  34.749  31.849  12.430
71400W        W42983  32.284  17.876   0.350
71401W        W42984  19.817  12.665   0.206
71402W        W42985   4.775  31.447   1.965
71403W        W42986  41.274  15.089  14.361
71404W        W42987  29.589   9.253  11.612
71405W        W42988  36.091  10.330   4.191
71406W        W42989  39.060   7.828  12.053
71407W        W42990  23.451  25.180   0.619
71408W        W42991  27.986  33.192   3.777
71409W        W42992  27.985   9.712   3.395
71410W        W42993  29.000  41.258   2.231
71411W        W42994   4.151  23.470  11.172
71412W        W42995  21.034  20.653  12.108
71413W        W42996  43.691  27.917  11.077
71414W        W42997  40.630   0.369  14.718
71415W        W42998   8.668  41.799  14.420
71416W        W42999  41.240  40.516  14.854
71417W        W43000   9.756  15.265  13.499
71418W        W43001  15.608  23.271   4.014
71419W        W43002   3.847   7.213   2.824
71420W        W43003  35.001   6.091  12.971
71421W        W43004  20.060  41.568   5.160
71422W        W43005  11.608   6.734  12.855
71423W        W43006  26.459  14.691  12.395
71424W        W43007  18.558  36.240   1.478
71425W        W43008  13.688  23.080   3.644
71426W        W43009  12.411  14.021   5.055
71427W        W43010  42.787  23.338  13.465
71428W        W43011  18.482  34.912   4.634
71429W        W43012  23.862  22.118  12.949
71430W        W43013  21.263   6.168   4.345
71431W        W43014  40.514  35.436  13.090
71432W        W43015  30.138  11.174   3.754
71433W        W43016   8.036  35.972  14.286
71434W        W43017   2.442  38.664   2.176
71435W        W43018   2.940  36.991   4.659
71436W        W43019  31.607  31.635   3.305
71437W        W43020  20.343   0.451   4.588
71438W        W43021  19.081   3.576  11.594
71439W        W43022  17.362   0.196  10.040
71440W        W43023  15.997  20.895  10.715
71441W        W43024  13.295  37.820   2.605
71442W        W43025  42.609  44.382  12.714
71443W        W43026   9.665  30.198   0.551
71444W        W43027  27.028   9.792  11.980
71445W        W43028  18.244  34.953   3.177
71446W        W43029  10.187  20.420   0.902
71447W        W43030   9.579  37.048  14.548
71448W        W43031  26.645   8.123   4.780
71449W        W43032  40.990  40.217  11.962
71450W        W43033  11.319  21.976   3.119
71451W        W43034  38.217  20.469  14.554
71452W        W43035   4.814   6.792  10.679
71453W        W43036  11.648  36.338   3.062
71454W        W43037  44.256  38.952  10.370
71455W        W43038  43.967  11.833   2.806
71456W        W43039  38.055  41.667   1.798
71457W        W43040  41.496  41.600   1.700
71458W        W43041  31.881   1.697  11.507
71459W        W43042   3.513  33.042  14.917
71460W        W43043  36.562  28.670  13.962
71461W        W43044   3.874  19.296  10.526
71462W        W43045  34.689  41.242  13.581
71463W        W43046  30.427  26.040   4.056
71464W        W43047  15.320  24.945  13.913
71465W        W43048  31.469   3.905  11.415
71466W        W43049  22.272  16.634  14.763
71467W        W43050  36.364  35.713   3.193
71468W        W43051  19.709  25.046   1.357
71469W        W43052  10.840  18.565   3.297
71470W        W43053  10.382  11.854  10.677
71471W        W43054  36.162  26.518  11.993
71472W        W43055  12.245  20.460   3.106
71473W        W43056  30.351  15.167  11.446
71474W        W43057   5.206  28.004   4.099
71475W        W43058  20.844   8.890   2.883
71476W        W43059   7.921   8.811   3.201
71477W        W43060  11.886   0.363  14.868
71478W        W43061  27.658  40.873  14.926
71479W        W43062  25.580  23.655  10.489
71480W        W43063  42.247  21.259  13.958
71481W        W43064   6.954  42.501  13.862
71482W        W43065  11.743  24.437   2.718
71483W        W43066  12.168  24.153  13.985
71484W        W43067  37.961  15.042  12.439
71485W        W43068  20.045  32.687   0.821
71486W        W43069  27.514   4.242  14.123
71487W        W43070   9.649   1.990   2.300
71488W        W43071   0.302  30.970  13.400
71489W        W43072  14.744   0.268  12.663
71490W        W43073  10.245   9.936  10.803
71491W        W43074   5.161  32.687   2.361
71492W        W43075   7.890  12.775   2.723
71493W        W43076   5.891  17.013   2.281
71494W        W43077   5.149  28.149  14.175
71495W        W43078  37.303  14.003  12.934
71496W        W43079  43.880   3.962  13.853
71497W        W43080  34.309  29.545  12.179
71498W        W43081  44.199   2.294  13.865
71499W        W43082  22.654  39.487   4.874
71500W        W43083  32.681   7.124  13.937
71501W        W43084  16.584  40.868  13.498
71502W        W43085  27.938  23.308  13.027
71503W        W43086  23.486  24.085   4.698
71504W        W43087  28.865  36.115   3.728
71505W        W43088  24.989   0.785   0.044
71506W        W43089  40.415  43.227  14.812
71507W        W43090  11.855  21.887  11.767
71508W        W43091  28.885  37.826  14.457
71509W        W43092  31.516   7.278   4.054
71510W        W43093  37.943   8.884  13.442
71511W        W43094  26.705  16.173  14.518
71512W        W43095  18.210  41.446   3.904
71513W        W43096  17.859  15.592   3.774
71514W        W43097  23.422  39.989  11.190
71515W        W43098  17.809  36.079   4.492
71516W        W43099  12.864  31.837   0.732
71517W        W43100  21.823  15.054   0.698
71518W        W43101   6.458  32.166   0.465
71519W        W43102  20.222  15.647  11.609
71520W        W43103  30.801  38.237  13.115
71521W        W43104   8.873  23.672  10.705
71522W        W43105  37.444  33.662  13.246
71523W        W43106  37.557  23.107  12.056
71524W        W43107  16.092  32.601  13.849
71525W        W43108   5.351  33.498  11.666
71526W        W43109  17.184  21.564  13.850
71527W        W43110  28.137  32.673  12.013
71528W        W43111  34.111  41.284  14.426
71529W        W43112   4.143  15.094   1.798
71530W        W43113  43.061   7.256   1.890
71531W        W43114   6.640  35.491   3.536
71532W        W43115  41.974  31.535   4.385
71533W        W43116  30.130  27.094  10.583
71534W        W43117   8.875  21.935   4.238
71535W        W43118  17.814  33.743  14.705
71536W        W43119  41.799  31.017   2.638
71537W        W43120  15.845  42.668   2.684
71538W        W43121  34.072  42.772  10.711
71539W        W43122   4.860  13.888   3.112
71540W        W43123  16.266  15.904  14.031
71541W        W43124  31.169  27.834  11.086
71542W        W43125   6.334  12.440  10.613
71543W        W43126  11.726   1.657  14.862
71544W        W43127  12.026   7.473  14.082
71545W        W43128  27.249  37.811   2.184
71546W        W43129  20.838   6.106  10.850
71547W        W43130  14.525  11.255   2.330
71548W        W43131  38.094  24.663   2.903
71549W        W43132  17.287  40.337  10.687
71550W        W43133  12.849  37.498  10.141
71551W        W43134  19.028  12.172   0.445
71552W        W43135  37.479   7.193  14.494
71553W        W43136  29.691  20.485  11.535
71554W        W43137  10.704  16.257   4.802
71555W        W43138  28.030  23.699  14.907
71556W        W43139   2.377   2.276  13.453
71557W        W43140  25.063  18.761  12.015
71558W        W43141  28.568  28.614   0.695
71559W        W43142   6.908   4.280   2.212
71560W        W43143   1.511  21.180   0.995
71561W        W43144  20.336  28.164   4.391
71562W        W43145  27.833  33.097   1.051
71563W        W43146  21.231  37.378   1.898
71564W        W43147   7.238   2.921  14.949
71565W        W43148  39.424   7.337  10.718
71566W        W43149  37.485  29.430   3.641
71567W        W43150   5.694  16.749   1.033
71568W        W43151  10.187   4.793   1.877
71569W        W43152  27.924  16.748   4.818
71570W        W43153  35.108   9.417   1.820
71571W        W43154  35.053  23.748  13.009
71572W        W43155  14.130  23.721   4.172
71573W        W43156  34.133  20.161  13.034
71574W        W43157  11.348  44.934  14.202
71575W        W43158  26.850  21.568  14.954
71576W        W43159  19.674  21.808   0.913
71577W        W43160  39.136  42.314  11.134
71578W        W43161  34.479  23.468   4.867
71579W        W43162  26.061  32.038  13.032
71580W        W43163  38.473  30.220  13.919
71581W        W43164  44.280  11.846   1.879
71582W        W43165  44.554  18.380  10.220
71583W        W43166  21.632   7.378   5.373
71584W        W43167  43.479  21.579  13.309
71585W        W43168  23.679  29.504  12.342
71586W        W43169  21.721   8.811  14.833
71587W        W43170   4.484  41.358   4.584
71588W        W43171  36.797  10.007   3.250
71589W        W43172   9.720  23.735   2.409
71590W        W43173   9.723  35.417   2.397
71591W        W43174  32.187  38.176   1.762
71592W        W43175  13.628  38.639   1.364
71593W        W43176  29.578  11.392   2.515
71594W        W43177  25.989  35.995  12.456
71595W        W43178  44.833  40.330   3.611
71596W        W43179   4.177  23.729   4.988
71597W        W43180  10.133  24.712   0.346
71598W        W43181  42.000  14.922   0.455
71599W        W43182   3.334  28.867   2.392
71600W        W43183  34.682  19.053  13.916
71601W        W43184  20.563  18.223  14.612
71602W        W43185  21.726   4.645   1.894
71603W        W43186   8.221  18.581  14.098
71604W        W43187  17.359   1.394  12.648
71605W        W43188  13.581   0.794  13.873
71606W        W43189  11.921  31.395   1.058
71607W        W43190  31.877  37.623  14.306
71608W        W43191  15.247   3.350   4.372
71609W        W43192  29.617   7.677   2.323
71610W        W43193  22.715  43.494  13.460
71611W        W43194  14.715  23.149   1.463
71612W        W43195  31.598  19.183   2.497
71613W        W43196  38.447  27.188   4.658
71614W        W43197  17.543   8.259   3.373
71615W        W43198  41.854   4.888   4.167
71616W        W43199   2.931  28.965   3.273
71617W        W43200   6.513   5.033  14.481
71618W        W43201  42.685  24.801  12.996
71619W        W43202   9.567   9.699   3.655
71620W        W43203   8.924  17.201  12.236
71621W        W43204  41.438   2.562  13.541
71622W        W43205  23.412  25.983   1.723
71623W        W43206  34.459   5.338   0.569
71624W        W43207  19.540  30.937   0.988
71625W        W43208  18.525  41.396  11.366
71626W        W43209   6.223  25.193   2.326
71627W        W43210  36.013   0.969   3.400
71628W        W43211  22.569   3.953  11.444
71629W        W43212  11.292   7.655  11.080
71630W        W43213   4.724  37.150   4.222
71631W        W43214  26.733  39.255   2.650
71632W        W43215   4.187   0.136   3.118
71633W        W43216  39.525  38.157   0.802
71634W        W43217  34.456   3.914   1.170
71635W        W43218  30.685  37.764   3.484
71636W        W43219   8.648  11.616  11.722
71637W        W43220  16.462  16.569  11.539
71638W        W43221   6.870   2.444  13.108
71639W        W43222  22.585  13.174  11.938
71640W        W43223  12.375  31.411  14.449
71641W        W43224  44.404  29.703  11.583
71642W        W43225  31.116  19.213   1.402
71643W        W43226  16.829  44.848  12.982
71644W        W43227   0.874  13.572  10.613
71645W        W43228  42.420  35.103   0.258
71646W        W43229  27.968  28.396   2.945
71647W        W43230   2.935  18.043  10.714
71648W        W43231  29.222  21.697   3.714
71649W        W43232  44.491  29.228   2.327
71650W        W43233  17.758   8.305   3.843
71651W        W43234  42.051  12.687   2.231
71652W        W43235   1.334  31.134   3.847
71653W        W43236  22.902  18.241   1.928
71654W        W43237  22.476  35.440   0.899
71655W        W43238  33.589  41.897  13.771
71656W        W43239   8.476  10.371  13.829
71657W        W43240  33.493  29.977   3.920
71658W        W43241   0.735  17.839  11.239
71659W        W43242  22.122  14.294   0.183
71660W        W43243   9.845  11.791   0.839
71661W        W43244   7.833  30.560  13.848
71662W        W43245  28.563  21.284  10.159
71663W        W43246   5.694  34.541   2.763
71664W        W43247  39.052  42.526   1.277
71665W        W43248   9.415   2.954  12.910
71666W        W43249  30.576   4.922   3.591
71667W        W43250  41.986   8.892  11.164
71668W        W43251  28.505  26.127   2.682
71669W        W43252   7.150  25.659   2.782
71670W        W43253  25.058   5.170   0.021
71671W        W43254  39.064  17.400  11.553
71672W        W43255  26.197  17.886  10.636
71673W        W43256  37.016  13.855   1.915
71674W        W43257  25.617  32.701  12.084
71675W        W43258  13.900  22.002  14.693
71676W        W43259  12.706  27.594   2.418
71677W        W43260  44.998  26.624  11.032
71678W        W43261   8.902  27.690   1.991
71679W        W43262  44.429  41.854   0.233
71680W        W43263  19.589  40.216   1.795
71681W        W43264  36.715  36.898   1.698
71682W        W43265  32.391  16.172  13.099
71683W        W43266  27.478  23.076  13.854
71684W        W43267  42.929  23.762  13.756
71685W        W43268   9.878   4.248   2.866
71686W        W43269  21.065  18.206  14.762
71687W        W43270  31.702  21.533   4.069
71688W        W43271  19.677   6.976   1.647
71689W        W43272  39.479  22.115   2.133
71690W        W43273  35.628  10.679  10.499
71691W        W43274  30.467  14.242   1.675
71692W        W43275  32.623  35.171   1.388
71693W        W43276  16.251  36.002  10.994
71694W        W43277  26.086  18.799   1.121
71695W        W43278  41.972  36.975  14.510
71696W        W43279  42.200  44.001  11.921
71697W        W43280  20.040   3.640  11.657
71698W        W43281  14.389  29.922  14.847
71699W        W43282   4.340  25.732  11.093
71700W        W43283  13.216   3.840   0.895
71701W        W43284  13.927   7.258   3.644
71702W        W43285  32.348  39.287   2.400
71703W        W43286   8.151  25.709  14.311
71704W        W43287  21.436   2.274   1.259
71705W        W43288  23.743  36.290   4.535
71706W        W43289  35.313   3.871   4.919
71707W        W43290  17.159   0.722   3.040
71708W        W43291  20.076  23.225  14.834
71709W        W43292  26.918  40.428   2.732
71710W        W43293  40.604  26.117   1.433
71711W        W43294  27.462   9.181  11.976
71712W        W43295  20.229  23.527  10.770
71713W        W43296  11.691  44.978   1.855
71714W        W43297   7.126  15.110   0.882
71715W        W43298   8.835  38.207   2.698
71716W        W43299  34.953  44.785  12.639
71717W        W43300  15.507   7.672  11.255
71718W        W43301  27.596   1.022   0.310
71719W        W43302  28.012   1.420   4.157
71720W        W43303  40.536  31.457  11.206
71721W        W43304  22.475  41.768  11.174
71722W        W43305  20.788  38.097   4.585
71723W        W43306  14.109   8.270   2.190
71724W        W43307   6.358  27.376   2.230
71725W        W43308  12.124   6.616  11.989
71726W        W43309   2.695  17.174   0.002
71727W        W43310  24.626   7.754   4.192
71728W        W43311  12.629   2.019   3.733
71729W        W43312  41.235  22.477  10.975
71730W        W43313  33.532   9.809   0.426
71731W        W43314  27.574  23.110   0.425
71732W        W43315  25.013  14.648  12.964
71733W        W43316  34.751  37.526  10.066
71734W        W43317   5.224  18.050  11.154
71735W        W43318  15.830  33.672   1.299
71736W        W43319  12.904  36.085   1.703
71737W        W43320   5.593   3.903  11.164
71738W        W43321  21.448  32.512   1.898
71739W        W43322  29.077  37.581  11.998
71740W        W43323   9.892  24.007  14.574
71741W        W43324  17.224  39.439   1.370
71742W        W43325  35.600  11.825  12.974
71743W        W43326   7.829  29.947  14.593
71744W        W43327   8.582  20.579  10.389
71745W        W43328  16.053  23.658   4.468
71746W        W43329  38.427  12.912  11.177
71747W        W43330  14.850  36.906  11.140
71748W        W43331  35.360  37.975   1.696
71749W        W43332   5.259  43.911   4.197
71750W        W43333  42.851   8.883  14.928
71751W        W43334   1.634   2.774  13.467
71752W        W43335   1.022  16.778   2.220
71753W        W43336   6.944   8.104   1.917
71754W        W43337   4.635  44.374   3.662
71755W        W43338  11.962  33.438   1.143
71756W        W43339  39.077  24.734   4.502
71757W        W43340  10.396  35.925  10.551
71758W        W43341  16.715  13.928  14.445
71759W        W43342  10.249   8.182  14.878
71760W        W43343   5.365  10.274  10.199
71761W        W43344   1.705  32.046   2.394
71762W        W43345  34.082  38.383   0.209
71763W        W43346  21.808  26.133  10.646
71764W        W43347  28.430  30.555   5.218
71765W        W43348  18.251  13.674  12.503
71766W        W43349  34.172  30.064  13.822
71767W        W43350  33.114   1.840  11.072
71768W        W43351  27.206  34.395  12.490
71769W        W43352  43.690  30.066  12.610
71770W        W43353  21.565   6.743  11.211
71771W        W43354  26.877  43.953   0.745
71772W        W43355  39.044  39.890  14.956
71773W        W43356   1.563   5.895   1.462
71774W        W43357   4.228  44.251  13.257
71775W        W43358  15.255  44.555  12.567
71776W        W43359  27.155   9.366  11.118
71777W        W43360  17.386  32.024  13.375
71778W        W43361  41.269  19.268  14.178
71779W        W43362  15.300  34.878  12.824
71780W        W43363  15.697   4.808  10.575
71781W        W43364   5.074  30.999   3.549
71782W        W43365  21.135   8.708   1.717
71783W        W43366  17.025   3.263  13.841
71784W        W43367  24.178  44.483   1.730
71785W        W43368  22.481  34.610   0.182
71786W        W43369  17.916   5.268   3.411
71787W        W43370   8.477  33.674  11.307
71788W        W43371  32.000  21.580   1.851
71789W        W43372  14.890  38.147   9.741
71790W        W43373  27.195  27.476  11.967
71791W        W43374  34.527   8.027   1.804
71792W        W43375  31.194  18.072   1.727
71793W        W43376  29.575  20.604  14.076
71794W        W43377  22.477  36.813   3.659
71795W        W43378   9.868  31.943  13.214
71796W        W43379   9.858  21.879  12.389
71797W        W43380  13.375   4.899  14.706
71798W        W43381  36.861  18.097   3.757
71799W        W43382  37.588  41.806  12.910
71800W        W43383  37.256  10.180  13.276
71801W        W43384  24.743  23.390  12.372
71802W        W43385  13.130  18.778   2.505
71803W        W43386  43.309  44.941  10.551
71804W        W43387  18.975  31.156  14.853
71805W        W43388  24.690  14.597   1.280
71806W        W43389  29.412  15.898  12.023
71807W        W43390  37.577   6.800   3.088
71808W        W43391   2.854   3.123   0.721
71809W        W43392  43.072  11.171   2.767
71810W        W43393  17.886  29.409   3.673
71811W        W43394  20.223  21.701  10.990
71812W        W43395  42.461  16.341   3.029
71813W        W43396   8.586  12.185  13.371
71814W        W43397  24.463  16.617   4.902
71815W        W43398  33.293  39.068   0.215
71816W        W43399   9.274  21.566   2.124
71817W        W43400   3.303  24.639  12.383
71818W        W43401  35.016  26.513   0.440
71819W        W43402  41.761  38.952   4.320
71820W        W43403  29.427  15.037  14.994
71821W        W43404  44.773  31.942  10.686
71822W        W43405  38.479  20.895  14.668
71823W        W43406  16.633   0.849  12.299
71824W        W43407  24.647  42.253  14.409
71825W        W43408  36.331  11.588  11.319
71826W        W43409  42.254   2.929   1.136
71827W        W43410   2.204  33.506   2.259
71828W        W43411   0.292  25.615   2.268
71829W        W43412  41.002   8.209  12.468
71830W        W43413  42.846  31.808  14.337
71831W        W43414  43.345  30.650  14.868
71832W        W43415  15.750  30.143   0.265
71833W        W43416   2.877  36.286   3.303
71834W        W43417   3.426  21.599   4.698
71835W        W43418   9.782  10.169   3.599
71836W        W43419  10.533  23.273   3.207
71837W        W43420   2.744  38.371   3.087
71838W        W43421  42.342  27.703   3.278
71839W        W43422  12.213  35.970   3.904
71840W        W43423  19.205  20.676   4.563
71841W        W43424  19.477  27.086  10.905
71842W        W43425   2.672  18.687  13.022
71843W        W43426  43.617  34.123  14.000
71844W        W43427   7.896  25.110  13.452
71845W        W43428   5.361  28.960  10.710
71846W        W43429  30.995  24.897  12.993
71847W        W43430  28.672  29.109  12.349
71848W        W43431  23.454  28.625  14.406
71849W        W43432  36.128  24.153   0.101
71850W        W43433   5.993  29.505  11.829
71851W        W43434  43.770  24.255  14.367
71852W        W43435  18.622  33.967   1.683
71853W        W43436  10.994   4.640   2.388
71854W        W43437  43.268   2.033  13.430
71855W        W43438  37.160  23.557   0.903
71856W        W43439  44.051  38.955   2.704
71857W        W43440  11.429  20.583  13.897
71858W        W43441   3.441   8.568  11.135
71859W        W43442  37.689  17.229   5.043
71860W        W43443  16.052  29.078   3.707
71861W        W43444  26.557  12.054   4.288
71862W        W43445   2.190  41.986  13.550
71863W        W43446  42.556  12.340   1.400
71864W        W43447  11.698  21.074  13.919
71865W        W43448  29.493   8.997  12.531
71866W        W43449   6.477  38.109  11.572
71867W        W43450  30.017  18.659   5.000
71868W        W43451  29.669  10.324   0.639
71869W        W43452  15.325  23.691   1.745
71870W        W43453  41.353  44.406  14.394
71871W        W43454   9.813  11.331   4.209
71872W        W43455  43.808  14.189  11.527
71873W        W43456  11.698  12.164  10.996
71874W        W43457   0.829  25.187   0.649
71875W        W43458  30.155  36.388  13.524
71876W        W43459   5.122  42.033   2.500
71877W        W43460  34.319   7.164   1.884
71878W        W43461   6.028  35.565  12.109
71879W        W43462  43.331  33.014   0.243
71880W        W43463  31.153   0.755  11.144
71881W        W43464  26.797  38.633  14.199
71882W        W43465  28.870  37.528  14.902
71883W        W43466  17.023  39.295   3.850
71884W        W43467  30.433  25.505  13.447
71885W        W43468  28.925  17.262   4.325
71886W        W43469  17.499   1.923   4.308
71887W        W43470   7.667  27.978  11.180
71888W        W43471  13.760  12.111   3.895
71889W        W43472  16.688  12.027   4.374
71890W        W43473  40.625  24.041   4.847
71891W        W43474   7.696  39.566  12.115
71892W        W43475   5.389  37.889   1.838
71893W        W43476  18.601  21.653   4.124
71894W        W43477  38.043  33.670   0.844
71895W        W43478  13.345  22.695  12.834
71896W        W43479   2.387  22.014   2.714
71897W        W43480   1.784  23.727  14.345
71898W        W43481  29.939  35.631   1.395
71899W        W43482   2.163   3.341  12.938
71900W        W43483  28.038  44.186   3.766
71901W        W43484  30.379  36.273  13.067
71902W        W43485  25.179   1.602   1.411
71903W        W43486   5.809  30.993  14.102
71904W        W43487   2.393  26.445   1.419
71905W        W43488  35.364  10.801  14.491
71906W        W43489  13.833   4.552   0.824
71907W        W43490  19.004  19.194   1.567
71908W        W43491  26.272  21.419   3.443
71909W        W43492   7.423   0.476   2.416
71910W        W43493  27.247   0.481  10.994
71911W        W43494  34.949  22.518  14.900
71912W        W43495   0.741  42.560  12.566
71913W        W43496  35.281  38.078   3.615
71914W        W43497   6.878  35.032  13.753
71915W        W43498  30.966  18.476  12.853
71916W        W43499  37.479  35.947   1.891
71917W        W43500  17.025  43.689  11.856
71918W        W43501  41.540  41.163   3.344
71919W        W43502   1.892  21.080  12.918
71920W        W43503  24.120  10.651  12.044
71921W        W43504  40.499   6.447   1.465
71922W        W43505  12.124  43.890  10.623
71923W        W43506  16.855  37.957   0.393
71924W        W43507  16.772   9.956  10.770
71925W        W43508  38.437  23.622   4.353
71926W        W43509   9.055  11.156   1.165
71927W        W43510  35.826  39.389  13.801
71928W        W43511  16.849  20.646  14.888
71929W        W43512  43.333  26.493   3.602
71930W        W43513  13.206  29.131   4.483
71931W        W43514   1.300  37.985   3.579
71932W        W43515   9.057  17.799   4.169
71933W        W43516  13.697  10.029  12.737
71934W        W43517  23.493   7.286   0.950
71935W        W43518  37.587  37.852   4.085
71936W        W43519  18.133  15.188  12.876
71937W        W43520   9.113   9.293  12.112
71938W        W43521   5.728  14.870   2.146
71939W        W43522  44.873  37.069  11.139
71940W        W43523   3.473  30.887  11.571
71941W        W43524  23.064  26.672   3.963
71942W        W43525  37.981  14.151  13.349
71943W        W43526  33.882  28.643   2.775
71944W        W43527  22.609  35.381   1.870
71945W        W43528  27.924  42.436   3.150
71946W        W43529  28.566  29.036  10.903
71947W        W43530  10.607   2.436  14.406
71948W        W43531   0.905  34.566   2.160
71949W        W43532   6.152  21.789  11.146
71950W        W43533  31.825  42.910   3.844
71951W        W43534  21.020  35.634  11.191
71952W        W43535  23.177   1.457   4.293
71953W        W43536   6.703  39.799  10.746
71954W        W43537   6.391   7.508   0.490
71955W        W43538  43.830  26.329   3.838
71956W        W43539  38.364  12.392   4.669
71957W        W43540   2.887   0.749   2.095
71958W        W43541  35.406  31.327   3.680
71959W        W43542  15.335   3.864  11.568
71960W        W43543  14.549  17.154   0.859
71961W        W43544  17.180  20.019   3.378
71962W        W43545   4.268  42.470   2.224
71963W        W43546  20.208  38.419  12.916
71964W        W43547  26.383  13.269  11.090
71965W        W43548   0.660  20.263   2.750
71966W        W43549   8.174  40.588  12.815
71967W        W43550  28.284  12.634   3.010
71968W        W43551  11.046  15.590   0.420
71969W        W43552  10.201  26.600   5.084
71970W        W43553   1.398  30.039   0.651
71971W        W43554  36.570   8.084  11.213
71972W        W43555  31.621  18.017  12.745
71973W        W43556   2.493  33.145  13.096
71974W        W43557  33.623   7.448  13.695
71975W        W43558   1.731  33.463   3.181
71976W        W43559  13.333  15.738   2.674
71977W        W43560  16.254  26.105  12.018
71978W        W43561  30.346  41.957   0.383
71979W        W43562  36.091  18.699  14.319
71980W        W43563   7.862  34.011  11.921
71981W        W43564  16.786  14.059   5.000
71982W        W43565  35.632  34.542  13.451
71983W        W43566  13.962  41.416   3.135
71984W        W43567  30.122   6.739  12.032
71985W        W43568  12.644   3.705  13.478
71986W        W43569  41.019  26.391   3.893
71987W        W43570   8.945  23.659  14.849
71988W        W43571   1.522  24.717  14.815
71989W        W43572  42.369  17.236   1.302
71990W        W43573  36.666  11.371   1.383
71991W        W43574  11.778  24.417   4.662
71992W        W43575   2.738   7.145  12.048
71993W        W43576   1.970   9.704   3.286
71994W        W43577  41.725  37.043  13.585
71995W        W43578  39.442  21.667  13.943
71996W        W43579  38.614  12.379   3.316
71997W        W43580  43.193  20.233  11.121
71998W        W43581  38.494  43.588  12.574
71999W        W43582  29.669  32.165   0.446
72000W        W43583  36.493  19.678   0.006
72001W        W43584  19.894  23.632  11.655
72002W        W43585  25.326   0.906   2.922
72003W        W43586  39.897  43.679   3.810
72004W        W43587  37.104  18.274   4.204
72005W        W43588   6.878  44.860   4.644
72006W        W43589  29.810  37.931   2.106
72007W        W43590   0.932  29.426  10.687
72008W        W43591  38.449  18.511  12.812
72009W        W43592  39.280  16.616  11.990
72010W        W43593  35.869  18.692  13.837
72011W        W43594  17.243  44.768  13.437
72012W        W43595   2.445  37.792  12.484
72013W        W43596  33.474  31.486  13.854
72014W        W43597   4.875  35.556   5.033
72015W        W43598  40.226   8.776  12.353
72016W        W43599  40.815  43.822  10.788
72017W        W43600  22.083  10.239   5.495
72018W        W43601  42.870  35.499  12.686
72019W        W43602  38.977  12.200  14.195
72020W        W43603  44.111  10.748   3.412
72021W        W43604  44.385  34.804  14.025
72022W        W43605  32.192   1.285  14.490
72023W        W43606  20.548  39.128   1.313
72024W        W43607  36.390   8.201   1.410
72025W        W43608   2.466   0.091   0.995
72026W        W43609  24.982  39.738   3.856
72027W        W43610  16.055  34.036   2.963
72028W        W43611   0.393  22.995  14.422
72029W        W43612  41.011  12.591  12.924
72030W        W43613  43.533  26.785   4.461
72031W        W43614  31.558  26.627  12.875
72032W        W43615   2.877  20.506  14.351
72033W        W43616  13.241  28.056  10.210
72034W        W43617  19.153  21.685   4.331
72035W        W43618   5.458  30.643  13.439
72036W        W43619   0.271  36.809  13.428
72037W        W43620  26.664  32.338  14.867
72038W        W43621  19.307  20.039   3.846
72039W        W43622  18.528  33.604   2.827
72040W        W43623  35.167  30.395   4.612
72041W        W43624   0.032  33.870   0.946
72042W        W43625  33.067  13.820  11.588
72043W        W43626   5.420  11.194  11.806
72044W        W43627  23.512   2.544   2.350
72045W        W43628  38.949  15.492  11.170
72046W        W43629  31.071  28.251  10.801
72047W        W43630  17.915  16.585   4.551
72048W        W43631  40.083  20.014  14.828
72049W        W43632  10.921  16.256  14.454
72050W        W43633  30.164  27.426  12.970
72051W        W43634  21.778  31.114   5.447
72052W        W43635   9.556   0.899   4.989
72053W        W43636   0.765  10.191   1.707
72054W        W43637  30.974  11.293  14.185
72055W        W43638  13.336  40.032  14.571
72056W        W43639   1.746  31.629  10.744
72057W        W43640  37.488  38.794   0.464
72058W        W43641  13.021  15.529   1.272
72059W        W43642  11.817  43.775   2.299
72060W        W43643   6.794  32.711  12.952
72061W        W43644  20.205  16.497   1.284
72062W        W43645  20.534  14.363   3.197
72063W        W43646  36.193   6.771  12.868
72064W        W43647  41.726  12.580  14.871
72065W        W43648  17.142  43.813  13.872
72066W        W43649  20.903  23.257   0.832
72067W        W43650   4.582  28.955  11.202
72068W        W43651  36.546  16.550  13.020
72069W        W43652  19.307  27.144  13.330
72070W        W43653  30.618  28.633   3.326
72071W        W43654  21.107  22.509  14.921
72072W        W43655  16.727  15.097   2.292
72073W        W43656  23.041   7.590  13.564
72074W        W43657  29.430   1.817  13.379
72075W        W43658  30.198  28.949  12.410
72076W        W43659  16.330  13.195   0.354
72077W        W43660  41.859   1.472  13.065
72078W        W43661  30.218   2.469  13.514
72079W        W43662  29.667   1.788  12.935
72080W        W43663  17.494  37.270  11.488
72081W        W43664  15.674   0.392   0.453
72082W        W43665  11.141   6.499  12.622
72083W        W43666  10.203  32.666   4.561
72084W        W43667  35.798  27.567  10.735
72085W        W43668  19.237  26.769   3.037
72086W        W43669  20.618  19.670   5.065
72087W        W43670  11.132   6.146  11.121
72088W        W43671   6.630  28.415  11.615
72089W        W43672   7.524  44.039   1.807
72090W        W43673  43.750  31.544   3.615
72091W        W43674  21.138  21.269  13.797
72092W        W43675  29.422   0.356   1.905
72093W        W43676  41.423  15.695   4.598
72094W        W43677  14.776  32.201  10.656
72095W        W43678  31.343  15.599   3.741
72096W        W43679  27.130   1.826  14.919
72097W        W43680  27.631  12.395  14.314
72098W        W43681  20.374   8.243   1.239
72099W        W43682  10.681  22.817  13.412
72100W        W43683   6.564  14.907   3.284
72101W        W43684   0.278  44.857  10.671
72102W        W43685  10.226   1.470   3.290
72103W        W43686  27.404  15.767   4.585
72104W        W43687  44.461  13.064   3.762
72105W        W43688  21.507  11.111   0.884
72106W        W43689  37.562  17.973  12.088
72107W        W43690  27.987  40.725   3.893
72108W        W43691  44.398   8.826  11.884
72109W        W43692  30.012  11.267  14.318
72110W        W43693  31.991  16.383   0.270
72111W        W43694  31.567  17.568  10.720
72112W        W43695  28.693   8.803   1.807
72113W        W43696  19.212  21.118   2.723
72114W        W43697  44.324  18.773  13.444
72115W        W43698   2.815  30.483  11.937
72116W        W43699  19.302  12.683  13.806
72117W        W43700  35.100   9.426   4.587
72118W        W43701  12.911   2.373   0.819
72119W        W43702  36.416  22.993   1.858
72120W        W43703  34.061  12.416   4.156
72121W        W43704   4.824  44.407  11.103
72122W        W43705  40.573  23.012  13.317
72123W        W43706  29.943  40.257  14.411
72124W        W43707  12.787  43.050  12.998
72125W        W43708  18.009  15.223   2.813
72126W        W43709  22.362  17.343  11.941
72127W        W43710  28.607  31.590   9.848
72128W        W43711  29.556  37.026   0.318
72129W        W43712   6.172  35.352   2.287
72130W        W43713  32.461  16.890  11.373
72131W        W43714  39.222  16.824   3.160
72132W        W43715   4.679  37.815   2.304
72133W        W43716  14.331  15.268  12.644
72134W        W43717  11.380  34.947  13.176
72135W        W43718  29.665  18.286  12.040
72136W        W43719  15.878  33.507  13.084
72137W        W43720  35.704  39.824  11.638
72138W        W43721   8.260   9.756  13.079
72139W        W43722  16.251   2.325  12.816
72140W        W43723  12.024  12.749  12.556
72141W        W43724  25.238   3.882  10.714
72142W        W43725  22.575   5.776   2.813
72143W        W43726   0.479  41.918  10.943
72144W        W43727  35.320  10.915  13.982
72145W        W43728  15.020  15.726   2.245
72146W        W43729  25.984   0.816  14.749
72147W        W43730  15.666  22.267  14.443
72148W        W43731  18.651  40.315  14.397
72149W        W43732  43.714  40.288  11.274
72150W        W43733  10.457  12.328   0.417
72151W        W43734  32.114   8.104   2.210
72152W        W43735  26.553  11.918   1.639
72153W        W43736  40.917   7.629   4.192
72154W        W43737  39.952  26.399  12.785
72155W        W43738  32.177  34.014  14.565
72156W        W43739   3.756   5.667   0.359
72157W        W43740  23.421  43.988   1.814
72158W        W43741  41.274  40.400  13.310
72159W        W43742  17.043   0.669  11.997
72160W        W43743  43.242   8.696   1.715
72161W        W43744  28.108  37.956   4.484
72162W        W43745  43.309  43.627   2.838
72163W        W43746  38.890  14.968  11.193
72164W        W43747  22.198  11.728  13.336
72165W        W43748  43.005  41.443   4.636
72166W        W43749  23.951  29.983   1.139
72167W        W43750  37.855  39.006   2.662
72168W        W43751  36.881  28.441  10.888
72169W        W43752  14.286  23.125   4.651
72170W        W43753  38.586   8.847  12.008
72171W        W43754  11.741  41.718  14.532
72172W        W43755   4.428  34.706  10.632
72173W        W43756  13.238  23.383   9.784
72174W        W43757  37.304  29.482   3.142
72175W        W43758   6.117  24.752   4.568
72176W        W43759   0.522   9.477   4.754
72177W        W43760  33.628   3.300  11.835
72178W        W43761  26.736  23.783   0.418
72179W        W43762  19.839  43.063   0.940
72180W        W43763   3.969  36.458   4.066
72181W        W43764   2.183  13.746   2.958
72182W        W43765  19.267   3.672   1.643
72183W        W43766  32.831  44.342   4.499
72184W        W43767  20.085  18.506  10.820
72185W        W43768  34.531  25.112  14.222
72186W        W43769  25.040   0.317  12.382
72187W        W43770   6.959  43.247  14.218
72188W        W43771  23.680   0.836  13.865
72189W        W43772  42.827   0.717   0.946
72190W        W43773  35.020  19.765   0.917
72191W        W43774  26.675  22.724  14.512
72192W        W43775  34.639  44.252   3.237
72193W        W43776   0.219   4.748  11.131
72194W        W43777   2.046  44.538   4.914
72195W        W43778  41.082   5.890   1.768
72196W        W43779  26.499   8.868   1.438
72197W        W43780  26.328  25.762   0.892
72198W        W43781   0.866   3.389   2.175
72199W        W43782  28.016  34.518  12.175
72200W        W43783  19.776  21.133   1.790
72201W        W43784  41.587  12.745   1.989
72202W        W43785   5.270  29.709   2.153
72203W        W43786  39.944  39.886  12.313
72204W        W43787  16.669   3.901   0.327
72205W        W43788  12.582  35.460  14.797
72206W        W43789  10.869  33.119   1.687
72207W        W43790   0.442  30.017   0.505
72208W        W43791   3.278  36.860   2.690
72209W        W43792  35.972  40.531   1.783
72210W        W43793  18.602   4.373   1.815
72211W        W43794  19.527  26.426  13.957
72212W        W43795  40.573   4.737   2.790
72213W        W43796  37.467  42.120  10.775
72214W        W43797  42.444  21.451   0.137
72215W        W43798   7.421  26.056  13.010
72216W        W43799   8.613  20.062  11.837
72217W        W43800  24.960  29.406  13.622
72218W        W43801  32.200  25.081   3.369
72219W        W43802  40.093   2.503  11.179
72220W        W43803  16.112  32.684  11.477
72221W        W43804  25.483  17.500   3.312
72222W        W43805   2.837   7.519   3.724
72223W        W43806  39.186  17.856  10.498
72224W        W43807  35.899  34.075   4.923
72225W        W43808   9.718  44.468   3.391
72226W        W43809  41.962  13.127  11.808
72227W        W43810   8.358   0.702   2.368
72228W        W43811  36.337  18.421   4.659
72229W        W43812  43.243  27.148   4.703
72230W        W43813  16.517  37.847  10.462
72231W        W43814  11.782   2.427   2.923
72232W        W43815  42.437  21.813   2.143
72233W        W43816  26.228  30.128   1.795
72234W        W43817  15.304  13.797   1.215
72235W        W43818  20.876  26.549   5.077
72236W        W43819   2.197  38.498   0.821
72237W        W43820   4.677   4.817  14.634
72238W        W43821  17.441  10.228  13.181
72239W        W43822  31.568  14.755  12.593
72240W        W43823  41.568  11.178  13.831
72241W        W43824  30.974  10.874  13.789
72242W        W43825  37.904  33.490  12.455
72243W        W43826  41.417  30.551   4.603
72244W        W43827  38.777   2.902  13.523
72245W        W43828  31.079  16.291  12.425
72246W        W43829   6.578   6.792   1.871
72247W        W43830  36.296  41.276  12.934
72248W        W43831  24.280  10.324  14.403
72249W        W43832  38.336   2.928  10.745
72250W        W43833  11.110   8.711   3.820
72251W        W43834  14.126  39.448   3.705
72252W        W43835  34.452  25.248  11.098
72253W        W43836  33.483  43.489  13.156
72254W        W43837  18.492  44.182  12.436
72255W        W43838   2.567  21.525   0.342
72256W        W43839  31.941  36.177   2.796
72257W        W43840   4.057  44.088  11.985
72258W        W43841  23.637   3.481   3.649
72259W        W43842  11.121  44.465   4.793
72260W        W43843   6.944  28.804  14.685
72261W        W43844  10.402  21.721   2.758
72262W        W43845   5.627  30.938  11.154
72263W        W43846  21.112  33.492  11.415
72264W        W43847  10.431  34.980  13.961
72265W        W43848  43.542   2.790  12.362
72266W        W43849  10.719   7.946   3.175
72267W        W43850  28.148  33.815  10.634
72268W        W43851  31.486  10.404   2.747
72269W        W43852  27.057  13.141  11.492
72270W        W43853  17.862   9.122  11.060
72271W        W43854   9.156   6.313   1.805
72272W        W43855  24.223  32.532   0.851
72273W        W43856   1.032  44.179   1.758
72274W        W43857  12.270  15.194  12.545
72275W        W43858  24.637  35.163  11.963
72276W        W43859   9.229   3.217  12.490
72277W        W43860   4.442  31.658   2.300
72278W        W43861  41.237  15.550  13.442
72279W        W43862   9.143  35.075   3.403
72280W        W43863  12.889  35.722   0.775
72281W        W43864  44.880   2.629  13.589
72282W        W43865   4.533  28.275  10.166
72283W        W43866   0.139  18.668   1.742
72284W        W43867  14.008  34.685   2.147
72285W        W43868   8.950  26.165   2.309
72286W        W43869  44.935  18.539  12.467
72287W        W43870  40.317  21.543  10.893
72288W        W43871   0.224   5.662  13.381
72289W        W43872  28.072   9.087   4.108
72290W        W43873   1.426  27.123  11.447
72291W        W43874  11.157  42.296   0.221
72292W        W43875  37.998   2.848  12.320
72293W        W43876  42.058  16.202  14.337
72294W        W43877  38.634  25.489  11.479
72295W        W43878   5.615   3.441  13.506
72296W        W43879  19.739  27.627  14.562
72297W        W43880  27.455  16.613  10.746
72298W        W43881  33.530   9.441   1.377
72299W        W43882  38.924  29.269  12.427
72300W        W43883  35.092  22.798   2.433
72301W        W43884  38.868  24.793  13.793
72302W        W43885  28.731  40.003   1.505
72303W        W43886  11.344  37.381  12.906
72304W        W43887   0.835  36.342   3.357
72305W        W43888  19.679  10.172  14.717
72306W        W43889  36.728   8.315   4.578
72307W        W43890  36.344   9.282   3.960
72308W        W43891  43.347  41.473  12.011
72309W        W43892  12.294  20.109  11.931
72310W        W43893  14.702  22.642   9.805
72311W        W43894  27.069  44.358   1.022
72312W        W43895  21.865  36.181  10.831
72313W        W43896  39.029  44.429   4.080
72314W        W43897   1.922  15.809   9.807
72315W        W43898  18.061   3.427   1.652
72316W        W43899  19.079  32.400  14.679
72317W        W43900  16.187   8.291  12.869
72318W        W43901   1.339  18.551   0.253
72319W        W43902   3.295  19.650  14.467
72320W        W43903  23.651  15.103  11.780
72321W        W43904  19.696  11.127  12.042
72322W        W43905  26.123   0.820  11.207
72323W        W43906  21.168  26.494   1.707
72324W        W43907  11.592  43.936  14.370
72325W        W43908  16.112  30.462   0.456
72326W        W43909  40.062  22.106   0.280
72327W        W43910  20.700  18.315   0.129
72328W        W43911  19.176   0.821  14.871
72329W        W43912   3.316  20.155   2.208
72330W        W43913  41.287  16.257  13.826
72331W        W43914  23.842  29.573   1.885
72332W        W43915  21.161   2.778  12.209
72333W        W43916  14.894  33.033  11.696
72334W        W43917  21.665  24.065  10.753
72335W        W43918  37.779  11.779   0.897
72336W        W43919  28.529  35.559   4.233
72337W        W43920   2.266  37.124  14.881
72338W        W43921  40.559  20.735  11.928
72339W        W43922  24.711  37.775  11.452
72340W        W43923  15.877  29.405  13.787
72341W        W43924  20.783  12.078   4.912
72342W        W43925  35.383   9.687   2.676
72343W        W43926  44.878  36.078  12.195
72344W        W43927   2.712  44.095   1.262
72345W        W43928   5.965  18.334  10.496
72346W        W43929   2.242  20.173   2.350
72347W        W43930  44.562   7.267  14.847
72348W        W43931  24.563  13.397  13.441
72349W        W43932  14.874   1.299   1.382
72350W        W43933  25.993  16.782  13.941
72351W        W43934  21.266   8.412   1.270
72352W        W43935  16.543  28.081  13.722
72353W        W43936   4.414  34.874   3.616
72354W        W43937   4.928  40.452   1.849
72355W        W43938   0.543  17.297   4.273
72356W        W43939   5.926   8.499  14.379
72357W        W43940  25.082  33.955  12.157
72358W        W43941  32.276  16.999  13.604
72359W        W43942  25.911  31.187  13.882
72360W        W43943  12.821  33.914   3.317
72361W        W43944  24.311  44.851   4.137
72362W        W43945   7.970  20.631  11.703
72363W        W43946  38.252  19.704  12.013
72364W        W43947   4.372  10.574   2.561
72365W        W43948  22.395  22.040   4.929
72366W        W43949   4.834  40.411   4.795
72367W        W43950  17.908  34.430   2.722
72368W        W43951   7.337  20.361  12.910
72369W        W43952  37.799  27.562   2.272
72370W        W43953   6.721  29.212  10.617
72371W        W43954  38.025  43.232  11.166
72372W        W43955  22.604   2.218  11.100
72373W        W43956   7.892  21.995   0.430
72374W        W43957  24.138  35.940  10.950
72375W        W43958  24.376  29.126  12.545
72376W        W43959   1.436  26.488  13.459
72377W        W43960  24.185  17.669  12.439
72378W        W43961  38.789  39.528   0.703
72379W        W43962  18.445  37.554  12.635
72380W        W43963  30.396  41.357   1.934
72381W        W43964  19.135  31.134  11.156
72382W        W43965  43.395  41.798   4.758
72383W        W43966  12.320  43.584  11.445
72384W        W43967  28.178  32.991  13.446
72385W        W43968  24.150  13.029  12.812
72386W        W43969  30.584  25.711   3.126
72387W        W43970  19.786  35.924   3.411
72388W        W43971   3.257  28.578  13.526
72389W        W43972  10.337  24.981  10.251
72390W        W43973  30.892   0.305   1.904
72391W        W43974   7.112  24.311  13.897
72392W        W43975   4.158  40.986  11.543
72393W        W43976  21.594  39.095  13.774
72394W        W43977   5.140  22.734  11.147
72395W        W43978  27.713  12.360  11.172
72396W        W43979  41.422  12.157  14.682
72397W        W43980  43.051   2.786   4.780
72398W        W43981  44.917  14.908   1.987
72399W        W43982   7.247  14.033   4.632
72400W        W43983  17.923  23.175  14.482
72401W        W43984   6.420  25.192  11.532
72402W        W43985  12.848  33.392  14.884
72403W        W43986  35.921  44.803  10.668
72404W        W43987  43.763   8.202   3.156
72405W        W43988  37.784  33.043   2.209
72406W        W43989  16.018  44.371   4.217
72407W        W43990   8.909  26.213   3.884
72408W        W43991   3.250  25.626   1.774
72409W        W43992  31.231  19.382  12.610
72410W        W43993  38.846   4.877   4.965
72411W        W43994  14.938  43.468   1.268
72412W        W43995  40.435   6.907   1.240
72413W        W43996  10.679  14.919  14.906
72414W        W43997   4.843  25.453   3.205
72415W        W43998  26.680  22.591   2.278
72416W        W43999  10.109  38.391   3.868
72417W        W44000  16.232  28.731   2.756
72418W        W44001   3.184  19.635  11.522
72419W        W44002  12.770  13.124  11.260
72420W        W44003  12.564  25.446   4.115
72421W        W44004  37.429  38.366   3.943
72422W        W44005  27.562  35.552   4.652
72423W        W44006  11.158  42.953  11.750
72424W        W44007   1.540  12.320   2.071
72425W        W44008  38.346  29.421  12.164
72426W        W44009  38.820  44.934   1.247
72427W        W44010  43.326  42.400   1.111
72428W        W44011  35.003  28.651   4.677
72429W        W44012  13.791  35.616  10.673
72430W        W44013  11.361  29.099   3.832
72431W        W44014  24.765  28.653   3.111
72432W        W44015  37.489  36.089  12.528
72433W        W44016  36.865  14.875  10.734
72434W        W44017  30.255  42.871  12.968
72435W        W44018  36.835  34.333   0.059
72436W        W44019  38.920  39.299   2.106
72437W        W44020  12.126  43.574   3.188
72438W        W44021  17.196  20.287  12.388
72439W        W44022  14.388  10.305   0.547
72440W        W44023  16.835  12.258   1.787
72441W        W44024   1.451   8.847   3.426
72442W        W44025  30.071  36.879   1.839
72443W        W44026  12.883  11.833   0.960
72444W        W44027  32.100  31.597  12.863
72445W        W44028   2.941  38.440   1.306
72446W        W44029  43.431  11.454  13.878
72447W        W44030  32.993  37.704  14.107
72448W        W44031  19.721  16.612   5.228
72449W        W44032  18.592   4.611   1.357
72450W        W44033  37.075  25.578   4.346
72451W        W44034  35.076  37.011   4.379
72452W        W44035  36.568  43.439   1.342
72453W        W44036  31.192  29.007  14.702
72454W        W44037  15.404  25.188  13.041
72455W        W44038   5.950  35.575  12.980
72456W        W44039  15.160  31.563   0.235
72457W        W44040   5.259  13.359   1.328
72458W        W44041  30.514  26.913   0.509
72459W        W44042  44.115  35.147   4.058
72460W        W44043   6.835  17.291   3.059
72461W        W44044  38.999   6.346  11.345
72462W        W44045  43.936  32.322   2.191
72463W        W44046  28.885   2.247  14.965
72464W        W44047  13.334  23.177   1.159
72465W        W44048  38.559  36.548  11.232
72466W        W44049   4.708   6.204  13.975
72467W        W44050  26.651  16.332  11.133
72468W        W44051  20.955  14.615  14.942
72469W        W44052  36.390  31.839   4.810
72470W        W44053  18.289   6.807   3.569
72471W        W44054   2.418   6.210  14.498
72472W        W44055   9.804  25.701  14.884
72473W        W44056  20.724  38.634  14.916
72474W        W44057  33.132  18.705  14.720
72475W        W44058   2.247  35.535   4.030
72476W        W44059  19.174  33.425   3.586
72477W        W44060  43.331  10.360   9.855
72478W        W44061  31.672   2.860  10.637
72479W        W44062  33.515   2.781  11.688
72480W        W44063  19.618  20.882  11.069
72481W        W44064  41.346  43.974  14.712
72482W        W44065  34.616  17.030   1.615
72483W        W44066   5.145  11.744   3.365
72484W        W44067   6.773  13.188  12.850
72485W        W44068  44.270  29.674   0.965
72486W        W44069  35.425  38.286   2.678
72487W        W44070  25.270   0.334   3.338
72488W        W44071  30.099  29.906   3.410
72489W        W44072   9.828   9.828   1.978
72490W        W44073   0.475  17.663  14.277
72491W        W44074  40.960  17.084   0.811
72492W        W44075   8.919  39.017   0.760
72493W        W44076  29.461  33.397   3.754
72494W        W44077  22.542  31.470  10.827
72495W        W44078  42.584  43.844   3.204
72496W        W44079   3.855  42.612  11.211
72497W        W44080  37.977   1.467  12.006
72498W        W44081  38.577   6.631   2.743
72499W        W44082  32.654  42.530  12.502
72500W        W44083  23.723  26.479  12.543
72501W        W44084   1.953  44.370  13.840
72502W        W44085   1.035  17.700   4.617
72503W        W44086  33.885  31.542   2.676
72504W        W44087  19.868  31.519  14.118
72505W        W44088  11.786  44.387  12.889
72506W        W44089  23.008  19.128  13.151
72507W        W44090   4.768   7.727  13.007
72508W        W44091  17.113   6.293  14.027
72509W        W44092   2.827  35.111  10.733
72510W        W44093  41.737  33.399  12.078
72511W        W44094  10.056  28.519  13.222
72512W        W44095   3.348  37.402  13.072
72513W        W44096  29.275   6.571  12.391
72514W        W44097  38.064  33.161   0.778
72515W        W44098   6.651   1.297   0.454
72516W        W44099  44.329  31.376   0.243
72517W        W44100  37.980  44.738   4.662
72518W        W44101  24.261  43.857  14.894
72519W        W44102  37.797  29.217   2.982
72520W        W44103  17.626   1.174  10.567
72521W        W44104  40.574   7.865  11.935
72522W        W44105  34.380  18.446   3.751
72523W        W44106   9.329   2.429  12.079
72524W        W44107  30.951  18.189  12.096
72525W        W44108   9.013  42.842   2.550
72526W        W44109  14.640  43.308  13.585
72527W        W44110  16.547  25.664  14.401
72528W        W44111  23.848  22.076  11.485
72529W        W44112  17.059  29.199  14.934
72530W        W44113   7.959  20.207   0.229
72531W        W44114  39.796  20.329   0.393
72532W        W44115  19.782  11.093   2.301
72533W        W44116  38.470   3.797  14.810
72534W        W44117  33.108  42.624   1.844
72535W        W44118  40.473  27.533   2.271
72536W        W44119   7.731   6.108   1.979
72537W        W44120  11.293  15.689  11.851
72538W        W44121  14.328  40.473  11.073
72539W        W44122  10.481  38.342   1.036
72540W        W44123  29.527   7.374  13.991
72541W        W44124  10.219  35.557   2.320
72542W        W44125  22.729  20.167   2.713
72543W        W44126   5.035   2.352   3.286
72544W        W44127   3.772   2.849  13.380
72545W        W44128   0.453  31.667   4.763
72546W        W44129   0.006  14.733   4.277
72547W        W44130   4.779  25.618  14.020
72548W        W44131   7.230  11.692  11.480
72549W        W44132  38.856  33.896   4.060
72550W        W44133  40.008   3.344  12.193
72551W        W44134   2.969  41.035  10.440
72552W        W44135  44.272  17.077  10.879
72553W        W44136   5.374   0.551  12.005
72554W        W44137   0.484  42.184  14.333
72555W        W44138  31.832  18.216   0.943
72556W        W44139  33.878  37.788   3.598
72557W        W44140  21.666  17.238   1.367
72558W        W44141  36.929  13.195  11.574
72559W        W44142  44.828  19.865   2.269
72560W        W44143  41.626  13.306   4.590
72561W        W44144  41.170  22.401  13.010
72562W        W44145  10.435  14.667  13.450
72563W        W44146  29.412  20.107  13.463
72564W        W44147  15.260  14.159   2.413
72565W        W44148   8.882   8.197   3.690
72566W        W44149   7.634  38.368  13.478
72567W        W44150  22.645  29.246  12.507
72568W        W44151  23.819  41.496   0.464
72569W        W44152  11.119  14.450  13.062
72570W        W44153  26.002  29.277   4.604
72571W        W44154  25.298  17.172   0.366
72572W        W44155  36.366  36.515   4.872
72573W        W44156  32.041  16.866   3.006
72574W        W44157  18.562  17.502  14.005
72575W        W44158  34.335  21.660  12.129
72576W        W44159  24.002  18.860  11.989
72577W        W44160  15.068   8.568  11.955
72578W        W44161  41.785  37.442   0.338
72579W        W44162  28.931  18.186   0.340
72580W        W44163   4.482  38.401  13.040
72581W        W44164  44.690  26.168   4.406
72582W        W44165  22.572  33.157   0.172
72583W        W44166   6.475  36.545   3.460
72584W        W44167  16.098  43.755   3.421
72585W        W44168   2.820  25.458   4.296
72586W        W44169  19.077  29.519   2.341
72587W        W44170   0.830   6.842   0.993
72588W        W44171  21.609  15.644   5.104
72589W        W44172  33.453  14.322   3.273
72590W        W44173   9.645  44.176  12.950
72591W        W44174  32.049  13.549   3.697
72592W        W44175  31.455  17.630   4.876
72593W        W44176  44.081  30.652   1.628
72594W        W44177  32.896  35.598   1.233
72595W        W44178   5.214  15.561   0.446
72596W        W44179   9.141  24.454   1.254
72597W        W44180   6.424   7.611   2.981
72598W        W44181   1.823  31.966  14.325
72599W        W44182   2.657  10.576  10.959
72600W        W44183  19.072  34.318  11.907
72601W        W44184   9.268   0.324  11.873
72602W        W44185  33.390  24.892  10.885
72603W        W44186  29.439  44.356   2.248
72604W        W44187  39.909  28.161   4.149
72605W        W44188  21.971  32.069  12.251
72606W        W44189   4.234  32.421  11.197
72607W        W44190   8.938  25.999   3.374
72608W        W44191  30.684   2.986  10.773
72609W        W44192  36.028  38.947  13.035
72610W        W44193  10.468  12.882  10.880
72611W        W44194  18.741  18.066  10.676
72612W        W44195   1.452   6.463  11.939
72613W        W44196  32.046   5.613   3.808
72614W        W44197  10.963  22.239  14.265
72615W        W44198   1.379  42.413  13.442
72616W        W44199  17.381   7.254  12.158
72617W        W44200  38.461  34.259  12.838
72618W        W44201  21.019   5.773  11.431
72619W        W44202  26.784  21.618   2.218
72620W        W44203  24.627  15.825   0.937
72621W        W44204  18.782  12.576  10.924
72622W        W44205  23.071  34.527  14.733
72623W        W44206   2.452  11.210   0.932
72624W        W44207   0.509  15.152  14.908
72625W        W44208  12.814  17.631  14.376
72626W        W44209  15.916   4.878   3.647
72627W        W44210  40.099  31.219  11.420
72628W        W44211  34.527  27.208   2.363
72629W        W44212  33.561  37.568   0.969
72630W        W44213   8.328   1.923  13.705
72631W        W44214  16.763  41.295   0.241
72632W        W44215   1.231  40.837  13.388
72633W        W44216   0.955  11.376  10.949
72634W        W44217  10.865  43.492   1.977
72635W        W44218   6.226   5.928  14.213
72636W        W44219  28.499  19.382   0.517
72637W        W44220  40.974  42.478  14.844
72638W        W44221  15.061   7.433  11.152
72639W        W44222  43.401   0.543   4.499
72640W        W44223  31.797  31.407  14.518
72641W        W44224  26.270  23.037  10.710
72642W        W44225  20.668  13.637  11.526
72643W        W44226  17.345  28.894  13.705
72644W        W44227  35.552  10.988   1.798
72645W        W44228  18.993  27.145  11.060
72646W        W44229  25.614   4.488   1.381
72647W        W44230  44.286  43.414   1.213
72648W        W44231  44.015   5.879   3.299
72649W        W44232  13.706  19.209   2.184
72650W        W44233  43.027  22.047   1.901
72651W        W44234   1.401  36.870  10.685
72652W        W44235  41.861  26.636  12.893
72653W        W44236  35.297  35.462  13.171
72654W        W44237  22.184  27.905  10.483
72655W        W44238  33.284   8.691  14.403
72656W        W44239  18.692   9.019   1.596
72657W        W44240  28.676  16.320  11.172
72658W        W44241  21.398  19.854   3.689
72659W        W44242   4.847  23.019  12.468
72660W        W44243  10.093  40.928   4.560
72661W        W44244  19.723  25.710  14.323
72662W        W44245  16.872  35.311   3.238
72663W        W44246  41.085  10.247   1.036
72664W        W44247  16.744  21.070  10.235
72665W        W44248  21.266   1.792   4.436
72666W        W44249  25.562  41.266   4.276
72667W        W44250   1.206  18.091  11.204
72668W        W44251  22.251  29.543  12.662
72669W        W44252  24.265  38.680  13.387
72670W        W44253  18.551  37.858  10.780
72671W        W44254   7.118   3.596  14.098
72672W        W44255   8.316   8.306   4.451
72673W        W44256  19.389   1.869  14.858
72674W        W44257  24.823  44.303  13.531
72675W        W44258  23.507  41.971  12.384
72676W        W44259   9.833  38.472   3.130
72677W        W44260  31.094  14.981   2.640
72678W        W44261  30.694   8.914  10.898
72679W        W44262  41.827  39.886  14.444
72680W        W44263  29.717   3.794   2.838
72681W        W44264  42.494  41.495  13.366
72682W        W44265   8.667  30.348  11.421
72683W        W44266   3.601  24.928   2.245
72684W        W44267  26.154  31.057   1.718
72685W        W44268  23.047  18.320   0.915
72686W        W44269  41.534  39.837   3.305
72687W        W44270  27.036  13.874  11.994
72688W        W44271  19.122   9.110   1.311
72689W        W44272   3.896  16.167  12.433
72690W        W44273  18.575  37.197  14.810
72691W        W44274   4.750  29.750   4.085
72692W        W44275  37.866   1.318   2.709
72693W        W44276  23.602  28.939  12.369
72694W        W44277  10.621  16.606  14.038
72695W        W44278  44.811  25.799  11.420
72696W        W44279   3.838  31.876  13.472
72697W        W44280  28.603  27.911  11.147
72698W        W44281  22.173  28.930   2.727
72699W        W44282   6.266  43.934  11.949
72700W        W44283  41.738  43.320   1.266
72701W        W44284  28.690   6.417   0.316
72702W        W44285   1.953  35.066   1.508
72703W        W44286   3.681  38.334  14.439
72704W        W44287  21.334  10.612   5.295
72705W        W44288   4.514  19.143  13.888
72706W        W44289  31.577  19.155   2.000
72707W        W44290  32.900  23.671  14.692
72708W        W44291  13.117  11.304   2.247
72709W        W44292  23.945  13.785   4.030
72710W        W44293  43.716   5.429   3.147
72711W        W44294  28.948  35.502   4.573
72712W        W44295  29.353  19.087   1.888
72713W        W44296  35.065  36.070  11.215
72714W        W44297  19.763  12.641   0.743
72715W        W44298   8.320  24.119   3.879
72716W        W44299  42.556  20.599   2.336
72717W        W44300  41.471  32.126  12.063
72718W        W44301  24.095  12.905   0.349
72719W        W44302  36.863   2.263   2.750
72720W        W44303   8.413  15.234   2.444
72721W        W44304  37.587   4.159   3.903
72722W        W44305  22.485  10.917  14.962
72723W        W44306   8.661  32.471   1.253
72724W        W44307  29.552  21.291  11.135
72725W        W44308  27.342  30.493   1.043
72726W        W44309   6.688  36.325  11.136
72727W        W44310  38.007   7.411   1.638
72728W        W44311   1.919  32.508   3.672
72729W        W44312  44.242   7.833   2.794
72730W        W44313  40.937  42.429   2.842
72731W        W44314  40.074   2.164  14.239
72732W        W44315   4.961  22.649   3.645
72733W        W44316  28.432  13.044  14.460
72734W        W44317   4.577   5.256  12.646
72735W        W44318   3.719  42.970  13.041
72736W        W44319   2.494   4.860   2.817
72737W        W44320  28.120  32.884  10.216
72738W        W44321  44.422  10.626  12.881
72739W        W44322  20.071   3.278   3.263
72740W        W44323  16.961   9.621   4.779
72741W        W44324  20.576   7.636   0.333
72742W        W44325  14.533  28.067   1.918
72743W        W44326  20.724   4.782   0.849
72744W        W44327   5.805  33.417   0.706
72745W        W44328  10.656  27.141   3.435
72746W        W44329  18.449   1.487  11.570
72747W        W44330  35.340  17.092   2.720
72748W        W44331   0.842  42.051  12.606
72749W        W44332  10.943  39.897  13.434
72750W        W44333  21.208  35.331  11.541
72751W        W44334  36.106  19.600   1.867
72752W        W44335  28.459  37.865   2.287
72753W        W44336  42.880  41.344  14.817
72754W        W44337  41.012  18.996   0.584
72755W        W44338   6.977  40.857   2.204
72756W        W44339  24.705  15.591   2.216
72757W        W44340  16.191  27.537   0.824
72758W        W44341  19.287  27.103   2.141
72759W        W44342  23.046  32.798  14.998
72760W        W44343  11.008   9.216   3.764
72761W        W44344  30.203  10.700   0.307
72762W        W44345  18.227  39.252   2.842
72763W        W44346  30.428  17.098  12.375
72764W        W44347  38.975  18.313  10.708
72765W        W44348   2.791  24.726  10.669
72766W        W44349  32.276  37.682   1.615
72767W        W44350  21.192  42.395   0.724
72768W        W44351  36.418  35.967   4.199
72769W        W44352  38.379  13.681   0.279
72770W        W44353  24.673  22.264   4.674
72771W        W44354  29.691  17.223   4.998
72772W        W44355  38.341   7.171  10.277
72773W        W44356  20.236   5.912  13.998
72774W        W44357  28.169  34.986   0.032
72775W        W44358   4.298   8.974  13.752
72776W        W44359  35.104   6.258  11.940
72777W        W44360   2.737   3.477   2.576
72778W        W44361  26.701  16.476  13.611
72779W        W44362  20.671  10.016  11.576
72780W        W44363  19.633  30.243  14.480
72781W        W44364  34.514   2.910   1.500
72782W        W44365  36.403  36.570   0.306
72783W        W44366  24.417  16.722  13.456
72784W        W44367  20.080   6.265  14.356
72785W        W44368  27.146  27.132  11.103
72786W        W44369   7.629   5.664   1.335
72787W        W44370  24.293  22.670   1.235
72788W        W44371   9.881  41.412  13.266
72789W        W44372  35.815  40.347  11.638
72790W        W44373  10.801  24.299   3.337
72791W        W44374  15.580   9.336   3.658
72792W        W44375  38.502  26.600   0.804
72793W        W44376  24.119  19.241  12.960
72794W        W44377  34.081   6.132   0.383
72795W        W44378   0.972  39.456  11.474
72796W        W44379   1.945  38.097  10.794
72797W        W44380  18.750  23.976   0.711
72798W        W44381  21.262  42.508  12.515
72799W        W44382  20.667  18.660   1.107
72800W        W44383  29.269  38.959   3.664
72801W        W44384  22.198  36.483  11.140
72802W        W44385  21.989  22.112  14.716
72803W        W44386  28.165   7.643   5.298
72804W        W44387   9.927  30.543  10.763
72805W        W44388  36.093  41.367  14.799
72806W        W44389  44.980   9.663   3.099
72807W        W44390  10.523  14.858   3.832
72808W        W44391   7.342  28.678   1.244
72809W        W44392  37.001   2.015  14.946
72810W        W44393   0.898  17.511  14.833
72811W        W44394   2.084  26.901   3.241
72812W        W44395  43.927  20.636  10.792
72813W        W44396  39.431  15.161  10.508
72814W        W44397   4.887  14.262   1.185
72815W        W44398   0.971  35.475   4.018
72816W        W44399  25.719  35.416   1.860
72817W        W44400  27.002  20.255  14.223
72818W        W44401   9.056   5.666  10.654
72819W        W44402   9.786  15.741   1.644
72820W        W44403  11.811  44.198   2.934
72821W        W44404  31.419  40.795  12.907
72822W        W44405  17.331  12.211  12.740
72823W        W44406   2.708   8.578  10.561
72824W        W44407  41.146   2.335   2.483
72825W        W44408  27.173  40.637   1.847
72826W        W44409  11.041  16.733   3.213
72827W        W44410   5.479  26.012  13.505
72828W        W44411   4.945  15.674   0.954
72829W        W44412  32.912  14.026   4.075
72830W        W44413  44.674  28.909  11.728
72831W        W44414   2.761  17.116   3.361
72832W        W44415  34.564  28.478  11.912
72833W        W44416   8.588  35.018   4.119
72834W        W44417  26.048  28.817  11.175
72835W        W44418  40.786  38.063   1.810
72836W        W44419   0.706  40.108  10.757
72837W        W44420  13.622  35.483  14.765
72838W        W44421  10.208  34.029  13.004
72839W        W44422  33.108  11.912  14.857
72840W        W44423   1.993  18.262  12.501
72841W        W44424   7.376   5.882  11.111
72842W        W44425  23.471  34.177  12.040
72843W        W44426  10.816  24.954  11.070
72844W        W44427  36.029   3.199  13.301
72845W        W44428  27.153  35.576   0.878
72846W        W44429  23.068  29.911   4.679
72847W        W44430   8.837  39.511  12.860
72848W        W44431   9.107  33.538   2.290
72849W        W44432  37.248   7.770  10.197
72850W        W44433  37.866  42.945  10.728
72851W        W44434  31.505   5.548  14.892
72852W        W44435  30.350   2.900  12.590
72853W        W44436  39.428  20.530   1.666
72854W        W44437  44.728  43.169   1.383
72855W        W44438  26.907  13.816  12.846
72856W        W44439  27.494  31.980  10.477
72857W        W44440   1.115  42.861  10.705
72858W        W44441  25.897  26.472   3.276
72859W        W44442  31.574  15.425   1.500
72860W        W44443  34.407   1.813  11.622
72861W        W44444   0.965  40.521   2.071
72862W        W44445  25.708  17.939   0.877
72863W        W44446  35.651  16.619  13.930
72864W        W44447  43.046  34.004  11.874
72865W        W44448   9.384   3.280   2.799
72866W        W44449  33.647  21.592  14.219
72867W        W44450  29.187  27.721  11.093
72868W        W44451   2.304  29.684  10.328
72869W        W44452  14.557  32.349   2.301
72870W        W44453  23.718  13.370  12.880
72871W        W44454  29.279  32.909   3.971
72872W        W44455  19.396  15.574  14.769
72873W        W44456  26.974  29.152  14.856
72874W        W44457  20.755  11.904   0.802
72875W        W44458  42.431   3.613   0.635
72876W        W44459   3.903  39.755   0.921
72877W        W44460   6.472  10.384  14.935
72878W        W44461  30.485   8.563  14.727
72879W        W44462  44.976  19.977   4.267
72880W        W44463  40.295  15.639   0.832
72881W        W44464  22.351  32.551   4.081
72882W        W44465  26.016   9.738  11.166
72883W        W44466  36.103   6.666   1.280
72884W        W44467  35.366  29.033   4.811
72885W        W44468  43.297   1.688  11.102
72886W        W44469   9.310  40.486   2.774
72887W        W44470  18.076  13.826   2.370
72888W        W44471  30.536  27.289   0.033
72889W        W44472   0.180  35.014   0.029
72890W        W44473  30.143  23.542  13.496
72891W        W44474  31.390   7.783   2.776
72892W        W44475  17.954   6.561  11.046
72893W        W44476  13.725  40.263   0.678
72894W        W44477  26.964   9.262  12.010
72895W        W44478  24.711   3.213   1.997
72896W        W44479  16.223   7.433   4.211
72897W        W44480   1.661  19.720  12.508
72898W        W44481  23.012  11.334   2.102
72899W        W44482  43.793  38.061   3.950
72900W        W44483  41.088  28.536   0.222
72901W        W44484  12.864  32.531   2.913
72902W        W44485   5.953  34.520  14.882
72903W        W44486  41.969  24.550  11.297
72904W        W44487  37.634  37.105   2.692
72905W        W44488  20.087   0.303   2.367
72906W        W44489  40.921  25.368   1.835
72907W        W44490   7.342  13.876  14.853
72908W        W44491  35.552  33.560   1.154
72909W        W44492  22.770   3.576  10.748
72910W        W44493  20.502  33.256   1.903
72911W        W44494  29.591  39.439   1.025
72912W        W44495   7.204   7.399  11.712
72913W        W44496  38.842  37.085  12.047
72914W        W44497  36.518  42.089   3.315
72915W        W44498  14.066  38.738   4.141
72916W        W44499  26.909  14.057  14.574
72917W        W44500   4.373  28.612   4.878
72918W        W44501  34.462  40.136   0.437
72919W        W44502  27.684  30.396  11.033
72920W        W44503  10.129  19.625  12.453
72921W        W44504   3.306  38.298   5.031
72922W        W44505  31.937   1.283   4.448
72923W        W44506  16.647   6.510  14.035
72924W        W44507  36.142   2.834   0.463
72925W        W44508  10.134   1.337  14.454
72926W        W44509  12.220   4.871  14.979
72927W        W44510  30.530  17.226  13.146
72928W        W44511  14.736  36.020  11.099
72929W        W44512  24.486   7.037   3.473
72930W        W44513  31.030  34.196   4.554
72931W        W44514  15.400   9.576  12.863
72932W        W44515  18.760  37.527   4.182
72933W        W44516  21.029  43.747   3.898
72934W        W44517  38.945  17.147   4.701
72935W        W44518  32.938   6.672   4.244
72936W        W44519  22.178  22.398  10.997
72937W        W44520  36.023  20.932   0.235
72938W        W44521  24.455  35.542   2.123
72939W        W44522  38.946  36.998   4.045
72940W        W44523  27.017  31.140   5.408
72941W        W44524  43.272  25.549  12.181
72942W        W44525  18.160  19.311   2.106
72943W        W44526  12.205  10.577  10.287
72944W        W44527   7.033  35.135  12.465
72945W        W44528  40.283  30.879  12.400
72946W        W44529   9.333  14.179   4.058
72947W        W44530  16.062  44.734  12.855
72948W        W44531   4.709  21.773  13.069
72949W        W44532  20.708  26.085  12.386
72950W        W44533   0.901   1.031   0.923
72951W        W44534  32.489  41.568   2.912
72952W        W44535  11.392  23.562   0.014
72953W        W44536  43.906  12.719   4.585
72954W        W44537   2.498  19.145  13.210
72955W        W44538  42.502   5.318   0.716
72956W        W44539  34.961  11.046  12.972
72957W        W44540  28.851  11.717  14.955
72958W        W44541  10.863  28.847   3.148
72959W        W44542   2.342  10.920  12.340
72960W        W44543  11.456  32.425  14.429
72961W        W44544   7.824   9.291  14.116
72962W        W44545  16.392  40.973   3.532
72963W        W44546  12.068   3.797   0.654
72964W        W44547  39.009  40.798  13.560
72965W        W44548  18.889  28.360  11.981
72966W        W44549   6.119   8.705  12.428
72967W        W44550  10.725  36.659  13.505
72968W        W44551  29.632  40.244   3.432
72969W        W44552  31.431  14.108  10.619
72970W        W44553  30.189  29.038   0.547
72971W        W44554  22.072  20.466   3.181
72972W        W44555  33.445  32.997   4.495
72973W        W44556  39.029  24.633   1.426
72974W        W44557  35.507  23.805  12.066
72975W        W44558  39.372  29.690   4.453
72976W        W44559  15.838   0.909   3.749
72977W        W44560  11.068  23.531  13.389
72978W        W44561   9.747  20.118   0.866
72979W        W44562  37.045  42.419   1.975
72980W        W44563  24.734  39.631  11.536
72981W        W44564  34.477  15.082  14.760
72982W        W44565  12.461  24.192  11.492
72983W        W44566  34.578  24.109  10.679
72984W        W44567  37.432  25.413   0.293
72985W        W44568  32.745  21.174   0.343
72986W        W44569  10.248  24.922  14.245
72987W        W44570  19.153   5.330  12.408
72988W        W44571  17.636  19.710   0.397
72989W        W44572  21.135   5.725  13.763
72990W        W44573   3.024  10.989   0.237
72991W        W44574  23.471  34.804  13.437
72992W        W44575  10.977  35.948   0.336
72993W        W44576  27.529  22.495  11.568
72994W        W44577  23.161  40.029   0.806
72995W        W44578   8.661  41.917  11.674
72996W        W44579  27.587  15.264  11.048
72997W        W44580  29.807   4.420   0.866
72998W        W44581  41.204  35.044  12.131
72999W        W44582   9.886  43.181  10.927
73000W        W44583  24.050  16.760   2.748
73001W        W44584  19.143   7.303   4.106
73002W        W44585  22.049  18.690   2.807
73003W        W44586  29.431  37.550  13.903
73004W        W44587  38.324  40.036  11.042
73005W        W44588  20.013  20.086   0.318
73006W        W44589  28.401  11.130  10.240
73007W        W44590  22.065  43.296   1.474
73008W        W44591   9.643  29.770   3.696
73009W        W44592  13.593  15.195   3.874
73010W        W44593  18.794  39.920   4.394
73011W        W44594  12.772   7.419   2.163
73012W        W44595  38.354  34.765   4.187
73013W        W44596  13.836  35.823   9.989
73014W        W44597  16.225  43.568  11.249
73015W        W44598  43.055  14.288   4.615
73016W        W44599  20.304  28.459   1.439
73017W        W44600  18.964  32.135   2.683
73018W        W44601  21.649  15.548  13.909
73019W        W44602   1.829   7.038   3.574
73020W        W44603  24.632  41.980  11.836
73021W        W44604  40.092  42.593  12.761
73022W        W44605  40.806  16.538  10.561
73023W        W44606  37.489   2.873   2.251
73024W        W44607  13.086  38.703  12.810
73025W        W44608  34.393   4.874  12.952
73026W        W44609  36.051  42.878   1.916
73027W        W44610  26.632  38.636   3.307
73028W        W44611   6.748  30.250  11.173
73029W        W44612  16.846  27.457   1.603
73030W        W44613  19.010  29.521   1.833
73031W        W44614  24.770  13.719   1.772
73032W        W44615  39.769  37.574  13.757
73033W        W44616  27.267  36.217  12.403
73034W        W44617   7.721   0.635   2.825
73035W        W44618  22.526   9.096   3.889
73036W        W44619  19.469  33.465  10.693
73037W        W44620   0.398  43.384   2.896
73038W        W44621  15.347  37.095   4.527
73039W        W44622   6.666  34.053  13.400
73040W        W44623   5.490  44.293   1.801
73041W        W44624  43.301  19.775  12.429
73042W        W44625   7.662  20.697  11.278
73043W        W44626  22.017   3.918  13.747
73044W        W44627  33.040  22.089  11.397
73045W        W44628  15.990  27.202  11.391
73046W        W44629  16.754  29.611   4.922
73047W        W44630  21.009  14.431  12.859
73048W        W44631  13.633   0.317  12.615
73049W        W44632  11.157   5.037  12.269
73050W        W44633  30.112  22.337  14.329
73051W        W44634  19.543  14.532   0.761
73052W        W44635   4.428  19.728  14.830
73053W        W44636  20.608  29.412  11.554
73054W        W44637  20.251  10.248   3.082
73055W        W44638   8.854  26.986   4.768
73056W        W44639  21.808  33.013  13.844
73057W        W44640  22.504  23.477   0.303
73058W        W44641  30.405  31.418   9.452
73059W        W44642  28.955  26.662  11.652
73060W        W44643   7.937  29.100   2.375
73061W        W44644  25.734  12.705   1.820
73062W        W44645  24.558  16.220   4.160
73063W        W44646  39.344  24.636  11.939
73064W        W44647   7.172  30.866   2.520
73065W        W44648  17.655  21.735   4.367
73066W        W44649  12.855  12.115  11.609
73067W        W44650  20.878  21.767  10.453
73068W        W44651  37.535  12.554   2.856
73069W        W44652  39.657   1.281  12.658
73070W        W44653   4.969  30.436  11.090
73071W        W44654  22.015  36.951   4.516
73072W        W44655  24.836  36.879  11.588
73073W        W44656  22.035  28.287  10.176
73074W        W44657  16.307  28.035   0.887
73075W        W44658  18.160  32.464  11.594
73076W        W44659  19.053  24.708  11.028
73077W        W44660  31.624  41.115  13.512
73078W        W44661  38.858   2.485  11.880
73079W        W44662  35.887  32.155  14.935
73080W        W44663  43.761  26.014   2.174
73081W        W44664  43.337  12.445  10.648
73082W        W44665  30.444   8.856  13.477
73083W        W44666  30.661  21.016   1.375
73084W        W44667  29.933  37.529  11.529
73085W        W44668  40.437   9.345  14.104
73086W        W44669   1.972   5.827   1.150
73087W        W44670  40.093  14.719  14.853
73088W        W44671  35.081  39.568  11.081
73089W        W44672  27.781   5.997   0.277
73090W        W44673  24.004  43.517  11.646
73091W        W44674   6.275  42.464  12.117
73092W        W44675   9.386  37.540  12.803
73093W        W44676  34.631   7.941  14.846
73094W        W44677   5.748   4.928   4.073
73095W        W44678   2.593  22.293   4.278
73096W        W44679  33.392  22.019   2.060
73097W        W44680   6.934  14.285   2.455
73098W        W44681  10.830  21.963   1.342
73099W        W44682   3.033  19.689  14.951
73100W        W44683  20.786  34.406   3.474
73101W        W44684  37.156   3.897  11.569
73102W        W44685  33.084   1.401  10.705
73103W        W44686  10.320  39.318   3.511
73104W        W44687  33.484   7.034  11.672
73105W        W44688  19.781  17.118   1.744
73106W        W44689   5.274  11.573  12.949
73107W        W44690  44.062  31.647  14.879
73108W        W44691  12.179  22.572   4.557
73109W        W44692  16.786  41.347   2.797
73110W        W44693  18.426  33.766  11.198
73111W        W44694  28.151  11.056   1.474
73112W        W44695   0.392  24.652   1.851
73113W        W44696  15.539  29.054  11.181
73114W        W44697  17.995   7.401   1.816
73115W        W44698  11.473   8.909  14.079
73116W        W44699  12.711  34.821  13.826
73117W        W44700   4.305   8.525  12.047
73118W        W44701   0.062  23.733   0.133
73119W        W44702  30.391  11.553  11.118
73120W        W44703  15.395  13.292   3.271
73121W        W44704  15.177  36.813   0.691
73122W        W44705   6.728  10.943  11.492
73123W        W44706  26.767   0.346  14.366
73124W        W44707  31.300  39.135  13.269
73125W        W44708  25.205  29.557  11.676
73126W        W44709  25.077  14.144  14.573
73127W        W44710  37.055  17.100  11.413
73128W        W44711  30.012  37.028  14.530
73129W        W44712  18.745  14.798  11.966
73130W        W44713  38.292  25.618  11.973
73131W        W44714  35.616  35.453  11.654
73132W        W44715  12.712   5.074   1.993
73133W        W44716  37.052  33.531  14.098
73134W        W44717  33.701  39.338  11.644
73135W        W44718  13.785  28.522   3.113
73136W        W44719  43.165  41.859  13.802
73137W        W44720  11.971   4.200  14.152
73138W        W44721   1.664  21.251   0.503
73139W        W44722  39.002  34.928   3.223
73140W        W44723   3.924   5.245   4.934
73141W        W44724  41.537  25.057   0.283
73142W        W44725  21.660  13.308  10.573
73143W        W44726  43.284  42.425  14.378
73144W        W44727  39.805  10.599   0.934
73145W        W44728  26.085  20.713   3.337
73146W        W44729  37.544  21.176  14.339
73147W        W44730  36.484   2.391  12.919
73148W        W44731  28.779  27.675  13.891
73149W        W44732  29.740  33.850  14.968
73150W        W44733  41.383   2.818   1.870
73151W        W44734  24.601   3.673   1.179
73152W        W44735  42.928   7.668  10.598
73153W        W44736  40.609  12.575  11.480
73154W        W44737  33.917  15.283   4.169
73155W        W44738  24.556  24.148   3.949
73156W        W44739  25.628  38.957  13.794
73157W        W44740   6.672   1.392   1.800
73158W        W44741  28.296  20.998   1.526
73159W        W44742   0.471  21.692   1.864
73160W        W44743  31.246  14.643   2.040
73161W        W44744  11.912  15.232   3.222
73162W        W44745  15.551  36.019  10.301
73163W        W44746  10.793  11.822   0.813
73164W        W44747  29.440  25.132   0.454
73165W        W44748  22.234   8.756  12.920
73166W        W44749  20.120  39.543   0.852
73167W        W44750  35.654  35.026  14.883
73168W        W44751   4.985  36.199   1.272
73169W        W44752  22.958  19.983  13.184
73170W        W44753  42.041  43.022   2.280
73171W        W44754  34.373  31.424   1.357
73172W        W44755  12.974   7.844   4.209
73173W        W44756  13.300  18.810  11.760
73174W        W44757  19.807   7.003  11.022
73175W        W44758  24.167  36.795   2.186
73176W        W44759  22.133  26.030   2.214
73177W        W44760  39.813  34.054  14.048
73178W        W44761  39.059   4.385   3.065
73179W        W44762   4.265  32.666   2.206
73180W        W44763  25.165  10.675   5.158
73181W        W44764  27.709  26.893   1.483
73182W        W44765   4.850  22.472  13.872
73183W        W44766  15.736  15.452   2.668
73184W        W44767  10.906   6.931   4.208
73185W        W44768  41.915  20.471   3.038
73186W        W44769   3.310  16.673   3.752
73187W        W44770  38.089  43.768   1.287
73188W        W44771  29.472  23.477   3.200
73189W        W44772  34.889  43.521  13.778
73190W        W44773  42.461  37.618   2.590
73191W        W44774  14.188   2.818  10.719
73192W        W44775  31.992  10.756   2.194
73193W        W44776  16.185  15.139  10.364
73194W        W44777  10.313  15.696   1.852
73195W        W44778  10.528  43.583  13.883
73196W        W44779  22.095  19.246  14.519
73197W        W44780  40.963  24.716   1.242
73198W        W44781   1.376  30.978   1.300
73199W        W44782   4.464  21.210   4.293
73200W        W44783   8.974  10.701   2.646
73201W        W44784   2.303  24.725  13.540
73202W        W44785  41.043  30.155  12.041
73203W        W44786  28.962  20.170   5.012
73204W        W44787  31.625  17.873  11.659
73205W        W44788   7.044  17.727  10.771
73206W        W44789  35.426   7.419  11.687
73207W        W44790  22.035  32.984  11.182
73208W        W44791  32.449  42.881   0.487
73209W        W44792  42.255  30.588  11.165
73210W        W44793  14.649  42.231   4.831
73211W        W44794  31.703   2.960   0.829
73212W        W44795  36.802   1.922  14.468
73213W        W44796   6.278  29.068   4.848
73214W        W44797  18.549   0.327  14.839
73215W        W44798  23.027   1.897   0.111
73216W        W44799  38.290   7.821   0.326
73217W        W44800  10.422  24.099   1.312
73218W        W44801  38.929  41.968  10.799
73219W        W44802  42.266  24.775   0.916
73220W        W44803  27.971   3.340   2.939
73221W        W44804  26.251  24.164  14.862
73222W        W44805  38.927  38.033  14.368
73223W        W44806  22.674  32.363   0.795
73224W        W44807  26.728   9.823   9.951
73225W        W44808  31.679  31.298  13.962
73226W        W44809  14.732  40.605   1.037
73227W        W44810  13.973  38.284   1.927
73228W        W44811  39.735  23.160   1.307
73229W        W44812   5.316   6.750  10.733
73230W        W44813  37.385  24.021   2.264
73231W        W44814  23.415   2.792   0.605
73232W        W44815  37.937  29.959  10.621
73233W        W44816   7.278  12.750   2.192
73234W        W44817  43.231  29.896   4.581
73235W        W44818   2.411  21.499  11.197
73236W        W44819   9.902   7.659  12.812
73237W        W44820  10.249   5.908   4.771
73238W        W44821   3.338  15.219  14.851
73239W        W44822   7.807  14.795  14.442
73240W        W44823  14.826  23.078  10.699
73241W        W44824  12.847  13.972   1.925
73242W        W44825  36.078  19.491  12.118
73243W        W44826  11.488  29.197   2.890
73244W        W44827  14.097   4.406  10.682
73245W        W44828  16.840  31.480  11.119
73246W        W44829  25.573  44.362   3.582
73247W        W44830  40.656  26.710  11.073
73248W        W44831  30.706  32.969   0.826
73249W        W44832   2.539  36.392  12.377
73250W        W44833  34.929  10.113  13.333
73251W        W44834  43.098  42.926  14.373
73252W        W44835  42.427   3.871   1.393
73253W        W44836   0.994   4.811  10.495
73254W        W44837  28.001  29.047   2.200
73255W        W44838  41.828  36.058   1.659
73256W        W44839  32.712  42.414  10.622
73257W        W44840  43.838  30.173  14.967
73258W        W44841  22.101  17.591  12.410
73259W        W44842   5.428  42.244   4.133
73260W        W44843  30.392  28.610  13.375
73261W        W44844  44.169  35.768   4.108
73262W        W44845  32.575  37.974  13.263
73263W        W44846  22.077  36.417  12.589
73264W        W44847  21.996   5.394  13.887
73265W        W44848   2.683   7.347   4.622
73266W        W44849   3.741  15.833   2.614
73267W        W44850  27.426  12.813   4.815
73268W        W44851  24.811  16.154  12.945
73269W        W44852  28.395  39.336  10.678
73270W        W44853  12.664  25.637   1.695
73271W        W44854  18.614  36.022  12.909
73272W        W44855  15.843  18.566   2.302
73273W        W44856  14.229  32.160  12.368
73274W        W44857  26.037   4.759   4.662
73275W        W44858  22.655  34.923  13.830
73276W        W44859  23.543  10.126   0.077
73277W        W44860  39.845   0.655  14.335
73278W        W44861  16.679  43.077  13.093
73279W        W44862  21.109  12.671   4.310
73280W        W44863   8.733  21.183   1.158
73281W        W44864  42.901  24.469  10.885
73282W        W44865  35.844  23.676  13.919
73283W        W44866  15.638  30.942   3.416
73284W        W44867  36.520  29.076   2.227
73285W        W44868  39.034  22.809  11.967
73286W        W44869  20.456  28.119   3.017
73287W        W44870  11.643   2.412  14.397
73288W        W44871  30.163  24.039  13.423
73289W        W44872   5.092  39.376   3.181
73290W        W44873  19.634  12.970  14.283
73291W        W44874  26.460  29.706  13.896
73292W        W44875  32.343  21.760  13.376
73293W        W44876  28.461   3.501   0.884
73294W        W44877  37.219  28.426   2.062
73295W        W44878  21.544  21.572  13.927
73296W        W44879  39.953   9.914  14.102
73297W        W44880  18.683  31.450   4.280
73298W        W44881  13.117  15.173   0.296
73299W        W44882  25.651  18.100  14.759
73300W        W44883  17.277  35.521   3.602
73301W        W44884  16.595  43.002  12.566
73302W        W44885  25.851  32.524   2.283
73303W        W44886  41.113  11.714  14.516
73304W        W44887  41.215  19.382  10.760
73305W        W44888  16.723  11.648   1.290
73306W        W44889   7.703  15.533  11.339
73307W        W44890  13.190  14.097  10.643
73308W        W44891  24.205   9.972   2.751
73309W        W44892  18.325  27.882   3.730
73310W        W44893  19.114   5.040   2.160
73311W        W44894  34.028  34.775   2.889
73312W        W44895  31.837  37.859   4.109
73313W        W44896  19.359  18.143   2.674
73314W        W44897  14.306  10.836   0.732
73315W        W44898  12.876  28.773   0.282
73316W        W44899  17.989  27.872   1.001
73317W        W44900  29.886  27.534  10.719
73318W        W44901   2.354  14.666  10.552
73319W        W44902  26.698   4.749  12.490
73320W        W44903  36.994   1.798   4.645
73321W        W44904   6.279  16.112   3.622
73322W        W44905  41.337  35.530   0.857
73323W        W44906  39.001  36.453   2.829
73324W        W44907   0.333  27.683  12.428
73325W        W44908  32.797  32.537  11.290
73326W        W44909  24.257  35.238  14.846
73327W        W44910   1.950  11.533   2.217
73328W        W44911  10.264  36.875   3.599
73329W        W44912   6.238  13.808  12.981
73330W        W44913   6.272  11.101  10.575
73331W        W44914   3.524  12.281  12.101
73332W        W44915  39.493  14.390  11.164
73333W        W44916  15.698  10.803   1.182
73334W        W44917   4.489  35.619  11.130
73335W        W44918  22.024  18.199  13.149
73336W        W44919  26.225  43.365  13.332
73337W        W44920  41.745   6.337   2.293
73338W        W44921  34.226  42.479  13.502
73339W        W44922  22.751  43.425  12.053
73340W        W44923  42.620  31.437  14.049
73341W        W44924  43.810   6.649   2.665
73342W        W44925  22.124  30.269  11.035
73343W        W44926  28.512  14.062   2.768
73344W        W44927  30.633   3.270  12.048
73345W        W44928   5.883  21.706   1.365
73346W        W44929  44.893  38.404  10.760
73347W        W44930   5.965  41.691  10.663
73348W        W44931  34.711  39.753  12.351
73349W        W44932   8.750  18.102  11.937
73350W        W44933  10.409  37.000   2.599
73351W        W44934  33.608  44.377  12.335
73352W        W44935   5.498  11.224  10.266
73353W        W44936  38.969  14.055  13.878
73354W        W44937  23.875   1.558   4.725
73355W        W44938  34.441  36.621   4.826
73356W        W44939  41.353  28.596   4.164
73357W        W44940  28.587  44.459  10.721
73358W        W44941   6.366  29.159   1.888
73359W        W44942   3.497  42.883   5.095
73360W        W44943  20.309  34.372   2.683
73361W        W44944  26.082  23.480   1.773
73362W        W44945  43.451  14.316   1.336
73363W        W44946  33.975  19.205   2.636
73364W        W44947  10.799   7.334  13.276
73365W        W44948  12.692  18.916   4.302
73366W        W44949   1.199  37.009  12.487
73367W        W44950   9.383  32.810  14.836
73368W        W44951   2.381  11.968  14.005
73369W        W44952   4.246  24.597  12.806
73370W        W44953  31.537  26.710   4.116
73371W        W44954  37.576  34.887   3.158
73372W        W44955  34.540  27.526  14.712
73373W        W44956  31.379  30.186   3.250
73374W        W44957  17.560  11.420   2.305
73375W        W44958  42.432  14.312  10.990
73376W        W44959   9.310   7.930   3.597
73377W        W44960  11.079  24.245  13.920
73378W        W44961  25.249  28.656   3.712
73379W        W44962   2.946  25.866  12.065
73380W        W44963  20.677  19.802  11.867
73381W        W44964  41.447  29.152   4.219
73382W        W44965   7.730   5.459  12.877
73383W        W44966  35.644  42.003   3.132
73384W        W44967  40.728  25.117   2.306
73385W        W44968  35.663  22.672  14.387
73386W        W44969  38.092  32.110  11.519
73387W        W44970  35.862  37.502  10.423
73388W        W44971  35.204  11.399  14.294
73389W        W44972  37.983  25.494   4.542
73390W        W44973  15.772  17.639   2.161
73391W        W44974  20.545  13.845   3.152
73392W        W44975  42.986   3.200  13.989
73393W        W44976   5.118   4.606  12.921
73394W        W44977  18.196  22.268  11.518
73395W        W44978   1.628  41.241  12.140
73396W        W44979  15.503  25.755  14.949
73397W        W44980  18.486  33.078   1.896
73398W        W44981  44.325  12.768   4.233
73399W        W44982  21.599  20.591   4.082
73400W        W44983  25.774  37.953   4.233
73401W        W44984  36.669  37.589   0.446
73402W        W44985  39.944   6.041  14.940
73403W        W44986   1.747  26.582  10.168
73404W        W44987   0.675   5.919   4.276
73405W        W44988  33.347  25.531  12.504
73406W        W44989   6.350  34.827   2.891
73407W        W44990  28.972  41.843   4.417
73408W        W44991  44.851  12.617  11.444
73409W        W44992   0.664   3.990  11.916
73410W        W44993  33.440  31.329  11.818
73411W        W44994   8.656  11.578  14.778
73412W        W44995  10.178  37.050  13.835
73413W        W44996  15.752   9.437   1.231
73414W        W44997  35.098  34.582   1.889
73415W        W44998  29.120   5.714  14.826
73416W        W44999  34.567  34.052  13.849
73417W        W45000  16.229  39.540   1.141
73418W        W45001  22.106  16.811  12.881
73419W        W45002  38.414   3.733   4.332
73420W        W45003  13.808   2.016  13.424
73421W        W45004   7.281   9.878  10.650
73422W        W45005  10.074  30.621   3.324
73423W        W45006  35.747  18.758  14.843
73424W        W45007  28.973  16.774   0.471
73425W        W45008  11.225   7.448   2.747
73426W        W45009   3.319  23.090  14.776
73427W        W45010  24.123  14.134  14.069
73428W        W45011  16.037  29.767  10.615
73429W        W45012  18.357   9.710   0.110
73430W        W45013  18.723   8.357  14.804
73431W        W45014   9.350  31.738   2.144
73432W        W45015  36.094   0.599  13.421
73433W        W45016   4.185  31.408   2.731
73434W        W45017  29.184  39.088   2.791
73435W        W45018  14.874  44.218  13.416
73436W        W45019  31.502   4.694   1.461
73437W        W45020  39.674  32.338   4.920
73438W        W45021  38.495  20.271   4.527
73439W        W45022  37.435  11.917  14.465
73440W        W45023  11.772   9.822   2.934
73441W        W45024   6.816  25.408  10.754
73442W        W45025   1.237  31.979   2.193
73443W        W45026  14.083  33.931   1.036
73444W        W45027   5.649  10.005  14.437
73445W        W45028  30.056  23.158  13.155
73446W        W45029  39.155  41.472   4.131
73447W        W45030  19.153   9.087   2.774
73448W        W45031  25.031  26.653  13.225
73449W        W45032   2.621   2.839  14.372
73450W        W45033   4.207  34.455  13.300
73451W        W45034  16.763  19.051   4.140
73452W        W45035   9.146  15.201  11.562
73453W        W45036  38.795   7.456  10.378
73454W        W45037  11.985  15.721  13.693
73455W        W45038  17.219  18.193   3.752
73456W        W45039  22.234  10.423  11.157
73457W        W45040  27.058   1.477  12.355
73458W        W45041  19.386  26.444  14.629
73459W        W45042  29.519  17.386  12.186
73460W        W45043   2.919  36.376   2.352
73461W        W45044  31.700  19.564   4.160
73462W        W45045   3.345  35.517  14.867
73463W        W45046  19.122  12.215  13.505
73464W        W45047  36.894  32.090   0.254
73465W        W45048  33.405  25.514   3.066
73466W        W45049  42.884  31.021   1.231
73467W        W45050  44.531  28.148   0.406
73468W        W45051  13.055  29.982  12.492
73469W        W45052  37.035  25.570  13.381
73470W        W45053  23.522  40.696   3.123
73471W        W45054  29.481  17.591  11.716
73472W        W45055  43.361  23.810  13.047
73473W        W45056  34.085  33.824  12.946
73474W        W45057  41.208  34.212  11.185
73475W        W45058  44.389   0.342   9.871
73476W        W45059  33.057   2.838   4.855
73477W        W45060  35.774  37.388  12.377
73478W        W45061  35.477  22.316   3.254
73479W        W45062   0.881   4.359   4.525
73480W        W45063  17.836   1.278   2.723
73481W        W45064  37.598   2.990  13.094
73482W        W45065  44.313  33.899   0.429
73483W        W45066   3.469  11.715   2.669
73484W        W45067  32.587  19.612   5.380
73485W        W45068  12.773  20.582   3.826
73486W        W45069  23.699  41.012  10.669
73487W        W45070  42.887  32.795   0.457
73488W        W45071   4.865  10.886  14.998
73489W        W45072  29.813  26.199  12.016
73490W        W45073  15.548  26.927  11.330
73491W        W45074  33.933  22.138   3.346
73492W        W45075  19.651  17.669   2.356
73493W        W45076  14.635  38.954   0.339
73494W        W45077   4.614  36.938   0.752
73495W        W45078  41.609  22.795  13.927
73496W        W45079  27.155  26.264  13.626
73497W        W45080  34.133  34.574   1.959
73498W        W45081  36.043  38.479  11.934
73499W        W45082  18.553  21.746  12.550
73500W        W45083  10.672  21.329   4.207
73501W        W45084   0.157   9.293  13.434
73502W        W45085   9.794  25.665  13.069
73503W        W45086  26.744  19.198   0.032
73504W        W45087   8.737  25.720   3.949
73505W        W45088  12.207  23.529   1.307
73506W        W45089   7.740   9.393   1.293
73507W        W45090  20.576  32.473  13.859
73508W        W45091  20.145  37.463   0.790
73509W        W45092  39.987   7.836   0.985
73510W        W45093  20.014  14.881  14.835
73511W        W45094  42.927   6.962  11.603
73512W        W45095  11.307  42.750   3.621
73513W        W45096  10.085  11.155   2.614
73514W        W45097   4.232  39.045  14.743
73515W        W45098  36.126  27.969  13.834
73516W        W45099  16.290  33.922   4.208
73517W        W45100  22.544  13.791  14.358
73518W        W45101  16.828  15.587   4.621
73519W        W45102  42.771  41.745  10.427
73520W        W45103  32.135  35.088  13.947
73521W        W45104   2.744  27.673   3.859
73522W        W45105   6.855   9.761  12.801
73523W        W45106  39.904  35.811   2.732
73524W        W45107  15.329  30.157  12.501
73525W        W45108  32.532   9.698  11.696
73526W        W45109  36.149  29.858  13.989
73527W        W45110  22.265  13.439  12.765
73528W        W45111  15.027  20.080  12.893
73529W        W45112   8.385  17.753   0.258
73530W        W45113  42.903  29.148  11.938
73531W        W45114  39.818  39.867   4.545
73532W        W45115  44.793  32.610  12.781
73533W        W45116  34.791  41.834  11.081
73534W        W45117  37.996  10.776   3.621
73535W        W45118  20.791  19.588   1.328
73536W        W45119  32.947  34.073   3.647
73537W        W45120  11.403   7.723  14.459
73538W        W45121   9.239  25.620   3.161
73539W        W45122  22.040  19.247   0.961
73540W        W45123  42.379  11.133   0.344
73541W        W45124   5.326  42.554  13.526
73542W        W45125  35.912   7.286  13.532
73543W        W45126  24.938  22.837  11.513
73544W        W45127  20.996  35.540   1.236
73545W        W45128  17.825  33.186   1.011
73546W        W45129  35.941  14.791   0.185
73547W        W45130  25.674  29.676   4.409
73548W        W45131  19.118  38.040   0.001
73549W        W45132  33.069   2.513  11.656
73550W        W45133  35.830  34.988  11.636
73551W        W45134  29.500  29.611  14.375
73552W        W45135  27.429  11.223   4.498
73553W        W45136   1.734  30.482   4.133
73554W        W45137   9.850  12.903  12.036
73555W        W45138  27.686  20.014   1.440
73556W        W45139  38.528  39.033  14.857
73557W        W45140   5.572  29.641   0.769
73558W        W45141  44.718  32.459  10.603
73559W        W45142   2.764  31.645  10.732
73560W        W45143  12.463  44.448   3.215
73561W        W45144   0.336  19.700   3.956
73562W        W45145   0.851  12.596  14.828
73563W        W45146  24.912  42.822  10.658
73564W        W45147  16.739  13.859  11.558
73565W        W45148  41.800   3.769   3.281
73566W        W45149  36.553  38.430   3.671
73567W        W45150  42.715  25.079   0.940
73568W        W45151  41.177  13.712  14.889
73569W        W45152   1.170  23.646  13.500
73570W        W45153  44.690  11.677  11.648
73571W        W45154  21.100  13.846  11.695
73572W        W45155  26.594  41.832   2.216
73573W        W45156  13.698  43.644   4.087
73574W        W45157  36.398  34.965  13.419
73575W        W45158  26.111  10.844  10.643
73576W        W45159   8.680  18.069  13.339
73577W        W45160  22.626   9.452   2.017
73578W        W45161  10.167  10.939  14.870
73579W        W45162   8.477  27.917  11.665
73580W        W45163  27.192  31.491   1.826
73581W        W45164   9.624  39.943   4.845
73582W        W45165  21.695  40.352   3.935
73583W        W45166  12.812  24.746   0.833
73584W        W45167  31.512  27.618  13.262
73585W        W45168   6.495   4.447  11.139
73586W        W45169  23.525  25.404   4.265
73587W        W45170  23.476  36.348  10.589
73588W        W45171  39.406  41.057   0.883
73589W        W45172  13.098  34.333   0.693
73590W        W45173  14.275   8.841   3.584
73591W        W45174  26.162  28.848   2.248
73592W        W45175  17.087  36.357   2.609
73593W        W45176  19.575  36.296  12.634
73594W        W45177  43.532  22.988  14.699
73595W        W45178  17.555  43.385  12.565
73596W        W45179  27.104  14.717   3.682
73597W        W45180  12.208   8.820   1.080
73598W        W45181   0.814   4.940  13.452
73599W        W45182  21.363  12.829   9.776
73600W        W45183  15.977  18.721   1.823
73601W        W45184  43.395  20.644  14.976
73602W        W45185  18.529  39.345  12.496
73603W        W45186  41.909  26.966  13.407
73604W        W45187  40.237  42.756   2.713
73605W        W45188   7.738  44.495  12.922
73606W        W45189   0.730  23.088  10.756
73607W        W45190  30.958  32.590  11.566
73608W        W45191   3.192  16.655  14.461
73609W        W45192  22.037   0.312   3.622
73610W        W45193  21.031  14.172   2.491
73611W        W45194  32.665   7.645  10.657
73612W        W45195  40.061  14.143   1.387
73613W        W45196  13.130   9.669  13.458
73614W        W45197  25.038  34.534  14.029
73615W        W45198  23.656   6.362  11.781
73616W        W45199  44.450  40.060   1.544
73617W        W45200  40.781  13.966   2.350
73618W        W45201  15.023  18.820   2.052
73619W        W45202  38.540  39.340  12.912
73620W        W45203  30.659  39.116   3.712
73621W        W45204  11.872   0.983  11.579
73622W        W45205  14.054   6.036   4.969
73623W        W45206  39.424  18.170   1.953
73624W        W45207  24.547  23.521   0.959
73625W        W45208  20.091   3.789   2.322
73626W        W45209  22.390  22.935  14.527
73627W        W45210   6.622  17.684  12.304
73628W        W45211  25.081  18.991   2.878
73629W        W45212  41.412  20.079   3.913
73630W        W45213  42.676  34.669   4.595
73631W        W45214  27.108   5.588   4.150
73632W        W45215  27.052  41.126   1.957
73633W        W45216  30.033  22.106   3.376
73634W        W45217   3.758  40.302   4.066
73635W        W45218   3.563  32.962  10.653
73636W        W45219   4.888  20.225  10.716
73637W        W45220  44.326  38.622  14.776
73638W        W45221  12.425   2.809  13.278
73639W        W45222  31.039  26.589  14.996
73640W        W45223  41.960  16.305  12.526
73641W        W45224  22.062  18.741   0.804
73642W        W45225  31.406  41.060   0.368
73643W        W45226  35.026  20.242   4.291
73644W        W45227  22.797  41.370  13.894
73645W        W45228  44.852  27.064   4.175
73646W        W45229  44.435  17.845   3.197
73647W        W45230  10.424  39.612   1.762
73648W        W45231  38.000  13.319  11.994
73649W        W45232  21.916  29.131   2.285
73650W        W45233  34.350  27.151  12.508
73651W        W45234  18.160  14.431  14.485
73652W        W45235  23.606   9.835   3.829
73653W        W45236  44.764  29.075   2.755
73654W        W45237  12.300  24.144   3.532
73655W        W45238  38.965   4.289   3.578
73656W        W45239  42.900  17.058   4.637
73657W        W45240  41.871   8.289   0.409
73658W        W45241  40.344  12.837   3.390
73659W        W45242  41.631  22.770   4.268
73660W        W45243  12.833  30.545  14.010
73661W        W45244   8.849  30.088  11.010
73662W        W45245  37.098  24.215  14.734
73663W        W45246  38.517   8.187  11.104
73664W        W45247  31.444  20.201   2.437
73665W        W45248   5.960  34.958   2.564
73666W        W45249  13.164  38.347   2.688
73667W        W45250  40.439  26.545   5.040
73668W        W45251  41.001  31.662   3.307
73669W        W45252   2.814  33.955   0.885
73670W        W45253  42.204   9.754   0.436
73671W        W45254  19.695  32.345   3.216
73672W        W45255  28.168  18.294  12.325
73673W        W45256  42.878  32.853   1.398
73674W        W45257  34.551   9.830   2.304
73675W        W45258  29.278  40.106  10.752
73676W        W45259  33.974  28.100   4.913
73677W        W45260  25.144   2.283  14.832
73678W        W45261  22.128  35.538   1.984
73679W        W45262  35.849  11.071   3.094
73680W        W45263   1.482  25.178  12.398
73681W        W45264  21.199  29.968  14.343
73682W        W45265  19.292  25.992  14.396
73683W        W45266   9.177   0.435   2.979
73684W        W45267  20.039   0.838   4.766
73685W        W45268  31.422  43.277   0.921
73686W        W45269  30.650  11.334   1.431
73687W        W45270   9.759  19.862   4.296
73688W        W45271  31.028  21.459   2.120
73689W        W45272  13.683  21.471  13.316
73690W        W45273  10.889  11.106   3.173
73691W        W45274  26.024  14.888  12.155
73692W        W45275  33.454   7.913  14.895
73693W        W45276  36.564  36.360  13.526
73694W        W45277  41.446   0.667   4.337
73695W        W45278   3.480  39.993  12.478
73696W        W45279  27.476   9.844  14.318
73697W        W45280  23.303  12.273  11.370
73698W        W45281  24.416  17.543  12.891
73699W        W45282  17.706  24.203   4.235
73700W        W45283  37.405  18.575   2.599
73701W        W45284  30.371  32.900  10.325
73702W        W45285  10.923   8.712   1.290
73703W        W45286  17.335  20.778   0.007
73704W        W45287  17.025  25.950   1.844
73705W        W45288  10.327  11.576  11.110
73706W        W45289   1.756  35.977  11.456
73707W        W45290  26.022  29.951  14.044
73708W        W45291   0.839   5.352   2.410
73709W        W45292   8.452  38.905  13.423
73710W        W45293  34.601  33.954   2.570
73711W        W45294  32.792   3.760  12.114
73712W        W45295   4.714  37.474  14.857
73713W        W45296  32.904  30.009  14.720
73714W        W45297  24.568  42.111   3.677
73715W        W45298  22.352  27.637   0.950
73716W        W45299  19.225   3.852  12.971
73717W        W45300  28.994  23.463  13.965
73718W        W45301  11.144  10.402   4.626
73719W        W45302  32.573   6.412   1.596
73720W        W45303  10.181  44.016   5.040
73721W        W45304  40.501  18.342   3.182
73722W        W45305   0.514  27.489   3.675
73723W        W45306  35.818  16.532  10.438
73724W        W45307  23.177  30.099  10.693
73725W        W45308  17.519  17.969  11.184
73726W        W45309  18.233   2.476  10.729
73727W        W45310  12.859  28.878   1.211
73728W        W45311  37.335  33.303   4.184
73729W        W45312  31.788  18.380  12.408
73730W        W45313  44.957  26.594  13.122
73731W        W45314  25.086  15.679   1.838
73732W        W45315  43.873   6.776  10.621
73733W        W45316   8.869  35.539  12.010
73734W        W45317  42.043  38.234  13.124
73735W        W45318  31.889  33.546  13.375
73736W        W45319  38.479  11.216   2.571
73737W        W45320  42.806  12.196   4.241
73738W        W45321   7.694   7.210   3.816
73739W        W45322  32.200   8.399  11.649
73740W        W45323  18.694  10.765  11.630
73741W        W45324  36.344  27.494   2.864
73742W        W45325  26.956  22.107  13.810
73743W        W45326  36.927  15.090   2.387
73744W        W45327  38.481  10.810  12.216
73745W        W45328  32.570  33.546  14.068
73746W        W45329  11.378  18.295  12.781
73747W        W45330  33.445  29.811  12.480
73748W        W45331  36.543  21.159   4.470
73749W        W45332  33.177  36.062  10.626
73750W        W45333   2.857  21.620  13.794
73751W        W45334   5.142   7.638  11.497
73752W        W45335   7.737  35.661  14.008
73753W        W45336  25.474  37.072   1.410
73754W        W45337  36.806  31.154  14.339
73755W        W45338  19.258  11.647  12.414
73756W        W45339  14.239   8.556  12.013
73757W        W45340  40.288  10.625   3.596
73758W        W45341  21.161   3.775  14.087
73759W        W45342   7.415  36.144  11.145
73760W        W45343  44.786  26.302  11.511
73761W        W45344  39.939   1.917   4.501
73762W        W45345  34.981   7.399   4.703
73763W        W45346  36.156  34.437   3.620
73764W        W45347   2.782   7.616   2.134
73765W        W45348  32.619  20.472   3.145
73766W        W45349  12.855  16.139  14.494
73767W        W45350   2.991  30.115   0.775
73768W        W45351  23.284  14.858   3.138
73769W        W45352  30.985  11.809  12.048
73770W        W45353  12.541   2.752   4.850
73771W        W45354  42.309  28.024   1.661
73772W        W45355  25.914  31.519   1.730
73773W        W45356  33.335  28.111  14.939
73774W        W45357  29.404  19.683  11.174
73775W        W45358  14.581   5.771   0.556
73776W        W45359  41.975   9.824  11.650
73777W        W45360  38.475   9.073   2.485
73778W        W45361  16.485  28.705   2.301
73779W        W45362  29.058  22.272  14.984
73780W        W45363  14.244  41.320  12.797
73781W        W45364  42.532  25.995  12.046
73782W        W45365   4.302  31.181  13.751
73783W        W45366  21.280   2.782   1.425
73784W        W45367  13.726  44.771   2.310
73785W        W45368  37.412  18.974   1.775
73786W        W45369  42.765  27.986  13.643
73787W        W45370   4.917  16.742   0.047
73788W        W45371  19.116  17.230  10.518
73789W        W45372  35.042  33.345   1.219
73790W        W45373   0.203   0.468   1.136
73791W        W45374  15.698  28.576   1.243
73792W        W45375  12.886  39.492   0.506
73793W        W45376   9.949   4.661   3.228
73794W        W45377  32.379  24.923  13.360
73795W        W45378   1.376  29.928   1.163
73796W        W45379  20.056  30.486  11.135
73797W        W45380  44.948   5.454   0.094
73798W        W45381  40.748  33.658  13.002
73799W        W45382  11.206  44.095   3.350
73800W        W45383  26.741  39.959  14.943
73801W        W45384  35.354  19.537   3.186
73802W        W45385  35.549   0.722  14.296
73803W        W45386  39.914  13.005  14.808
73804W        W45387  31.628  22.214   5.405
73805W        W45388  33.397   3.312   3.872
73806W        W45389   5.063  27.039   3.685
73807W        W45390  25.154  15.232   4.890
73808W        W45391  22.298  17.720   5.485
73809W        W45392   8.289  16.861   1.931
73810W        W45393   7.655  30.664   3.993
73811W        W45394  35.669  39.866   2.307
73812W        W45395  13.631  20.290   2.948
73813W        W45396  15.657  14.962  12.678
73814W        W45397   2.236  25.945  13.929
73815W        W45398  13.258  35.510  13.839
73816W        W45399  11.617  39.040  12.150
73817W        W45400   9.911   4.358   0.499
73818W        W45401  11.104  26.826   1.847
73819W        W45402  31.445  27.442  10.842
73820W        W45403   7.627  31.027  12.465
73821W        W45404  32.618  17.015  12.812
73822W        W45405  25.039   0.807   3.370
73823W        W45406  40.294  21.614  14.467
73824W        W45407  19.741  38.266  13.860
73825W        W45408   8.234  31.262  12.269
73826W        W45409  22.053  14.615  10.732
73827W        W45410  19.732  38.851  14.999
73828W        W45411  19.963  28.768   9.923
73829W        W45412  12.097   9.405  12.873
73830W        W45413  12.277  41.078  14.329
73831W        W45414  19.330  28.541  10.583
73832W        W45415  44.209  30.652   4.951
73833W        W45416  41.294   6.759  10.664
73834W        W45417  22.958   6.325  12.835
73835W        W45418   9.938  13.752  12.584
73836W        W45419  14.262  43.302   2.858
73837W        W45420  23.068   2.442  11.883
73838W        W45421   1.448  44.701  12.075
73839W        W45422  36.505  37.544  11.039
73840W        W45423  12.151  35.656   2.828
73841W        W45424  36.653  22.663   3.565
73842W        W45425  21.621  26.285   1.533
73843W        W45426  10.264  24.917  11.457
73844W        W45427  33.340  28.085  11.479
73845W        W45428  43.077  17.219   0.770
73846W        W45429   4.648  26.908  14.402
73847W        W45430  41.317  19.835   5.051
73848W        W45431  21.415  29.240   2.325
73849W        W45432  43.407  30.946   3.186
73850W        W45433  28.497  18.441   0.390
73851W        W45434   0.357  21.729  13.856
73852W        W45435  24.506  16.313  11.954
73853W        W45436  34.998   0.915   3.936
73854W        W45437  28.948  16.643   4.632
73855W        W45438  37.758  31.192   0.693
73856W        W45439   8.159   7.549   0.696
73857W        W45440  34.219  32.140   3.138
73858W        W45441  24.714  44.603   0.391
73859W        W45442  29.618  24.655  14.906
73860W        W45443  36.254  39.924  14.957
73861W        W45444  17.790  43.844  13.546
73862W        W45445  19.190  35.336  10.708
73863W        W45446  13.281  10.581  13.263
73864W        W45447  26.059   3.993   4.277
73865W        W45448  31.079  31.652  11.934
73866W        W45449  31.858  27.176  13.473
73867W        W45450   3.014   7.980   1.865
73868W        W45451  24.247  43.679   0.377
73869W        W45452   9.595  36.017   0.246
73870W        W45453  31.150   9.260   4.575
73871W        W45454  36.405  17.999   4.922
73872W        W45455  21.543  37.242   3.672
73873W        W45456  20.981  10.693   1.290
73874W        W45457   3.270  20.066   2.916
73875W        W45458   2.716   1.104  11.200
73876W        W45459  28.387  32.943   4.931
73877W        W45460  35.376   3.117   2.644
73878W        W45461  25.085  44.176   3.772
73879W        W45462  32.662  21.253   4.755
73880W        W45463  24.598   0.635   0.361
73881W        W45464   0.985  40.551  10.761
73882W        W45465  28.054  31.137   1.371
73883W        W45466  17.740  23.041  12.573
73884W        W45467  43.770  24.203  13.086
73885W        W45468  34.166  27.878  13.921
73886W        W45469   2.162   6.384   5.125
73887W        W45470  15.205   7.170  14.672
73888W        W45471  29.549  10.212  13.504
73889W        W45472  39.468   8.401   2.077
73890W        W45473  14.650  30.758  13.488
73891W        W45474   9.564   1.802   4.378
73892W        W45475  30.829  11.639   3.608
73893W        W45476  38.576  37.573  12.234
73894W        W45477  16.690   9.569   0.284
73895W        W45478  41.426   3.293  12.611
73896W        W45479  43.747  15.138  13.875
73897W        W45480  11.146  38.331  11.299
73898W        W45481   2.239  34.449  11.642
73899W        W45482  34.112  11.364   4.609
73900W        W45483  38.687  42.942   1.756
73901W        W45484   4.915  25.216  11.474
73902W        W45485  34.839  23.783   0.221
73903W        W45486  34.386  38.511   3.223
73904W        W45487   2.354  41.527  14.856
73905W        W45488  31.668  16.670  14.975
73906W        W45489  44.100  40.970  14.024
73907W        W45490  24.598  29.216  13.929
73908W        W45491  24.460   9.812   4.271
73909W        W45492  35.355  41.849   0.868
73910W        W45493  18.198  20.206   2.306
73911W        W45494  31.936   3.515  12.037
73912W        W45495  36.344   4.287  14.772
73913W        W45496  37.830  11.152   4.183
73914W        W45497  41.159  17.279  12.146
73915W        W45498   9.846  31.587  14.502
73916W        W45499  39.490  35.359   3.679
73917W        W45500  43.997   4.351  14.872
73918W        W45501  44.889  43.744   0.510
73919W        W45502  33.542   2.387  13.242
73920W        W45503  23.021  20.086  11.621
73921W        W45504  28.517   7.429  10.831
73922W        W45505  18.332  14.828   2.766
73923W        W45506  34.445  35.874  13.476
73924W        W45507  10.401  31.156  12.840
73925W        W45508   8.244  20.809   4.191
73926W        W45509  37.009  40.870  11.671
73927W        W45510  31.700  20.464  11.099
73928W        W45511  13.434  41.408   3.192
73929W        W45512  11.913  29.407  12.913
73930W        W45513  17.841  12.276   2.971
73931W        W45514  22.995  43.842   3.617
73932W        W45515  24.375  25.497   0.028
73933W        W45516  24.486   7.006   0.946
73934W        W45517   8.099  42.836   2.655
73935W        W45518  26.001   5.275   2.007
73936W        W45519  12.642  41.627  14.027
73937W        W45520  43.818  27.632  11.486
73938W        W45521  27.867   9.705  10.590
73939W        W45522  33.533  24.129  12.558
73940W        W45523  33.329  20.013  13.531
73941W        W45524  23.168  25.423   4.634
73942W        W45525  11.067  18.920   2.002
73943W        W45526  43.078  36.319   5.052
73944W        W45527  44.787  10.738   1.158
73945W        W45528  41.305   7.588   5.035
73946W        W45529  22.614   9.677  10.400
73947W        W45530  23.553   1.465  13.143
73948W        W45531  22.763  18.629   3.283
73949W        W45532   7.757  22.153  12.916
73950W        W45533  39.571   8.481   0.313
73951W        W45534  11.369  31.436  13.566
73952W        W45535  43.425  31.699   4.859
73953W        W45536   9.034  42.811  10.846
73954W        W45537  27.124  14.277  10.685
73955W        W45538  44.801   9.167   3.208
73956W        W45539  31.751  23.774   1.668
73957W        W45540  17.675  15.703   0.089
73958W        W45541  41.985  44.019  13.050
73959W        W45542  39.835  16.095  12.376
73960W        W45543   0.547   4.819  11.524
73961W        W45544  11.984   3.400   2.405
73962W        W45545  39.130   2.306   9.813
73963W        W45546  35.070  29.391   0.336
73964W        W45547  33.429  24.025   2.765
73965W        W45548  18.906  39.353   3.494
73966W        W45549   5.743  11.079  13.539
73967W        W45550  36.152  29.172  13.354
73968W        W45551  38.917  26.214   2.122
73969W        W45552  41.976   0.990  12.194
73970W        W45553  23.261   5.524  11.960
73971W        W45554  10.748   4.193   2.313
73972W        W45555  16.119  22.368   2.851
73973W        W45556  13.640   3.677   1.688
73974W        W45557  19.141   6.464   1.349
73975W        W45558   3.551  22.682  13.169
73976W        W45559  24.858  43.384   2.440
73977W        W45560  24.998  29.476   2.667
73978W        W45561  13.465   8.403   3.216
73979W        W45562   2.398   2.257  12.555
73980W        W45563  28.687  10.802  13.522
73981W        W45564   0.356  11.238  14.736
73982W        W45565  27.659  29.426   1.410
73983W        W45566   0.812   4.727  12.389
73984W        W45567  38.550  32.425  14.759
73985W        W45568  22.989  26.165  12.172
73986W        W45569  30.150  15.002   2.326
73987W        W45570  12.680  10.382   2.717
73988W        W45571  22.387  20.156   9.798
73989W        W45572  42.493  23.757  14.886
73990W        W45573  17.146  25.529   2.855
73991W        W45574  16.301  13.095  11.446
73992W        W45575   8.767  34.174  13.177
73993W        W45576   2.313   3.314   0.440
73994W        W45577  25.541  36.973   2.274
73995W        W45578  17.272  22.692  11.544
73996W        W45579  16.181   2.654  11.781
73997W        W45580  43.946  15.105   1.162
73998W        W45581  44.381  33.471   3.560
73999W        W45582   9.622  23.108   3.707
74000W        W45583   6.764  15.702   1.463
74001W        W45584   9.301  30.710  13.948
74002W        W45585  27.441  41.457   0.246
74003W        W45586   4.217   9.131   3.743
74004W        W45587  14.018  39.084  13.018
74005W        W45588   4.909   4.512  11.143
74006W        W45589  33.478  42.689   9.820
74007W        W45590  21.204   1.814   1.178
74008W        W45591  12.446  27.605  13.725
74009W        W45592   5.295  10.656  14.754
74010W        W45593  26.687  16.918   0.024
74011W        W45594  30.111  11.321   0.855
74012W        W45595   2.208  17.343  14.973
74013W        W45596  17.552  27.713   4.885
74014W        W45597  19.339  18.196  13.465
74015W        W45598  26.598  31.559   3.334
74016W        W45599  18.052  43.866  14.475
74017W        W45600  43.276  10.006   1.886
74018W        W45601  16.121  26.855  12.748
74019W        W45602  17.635   1.506   4.059
74020W        W45603  13.769  12.324  14.350
74021W        W45604  36.654  16.561   4.966
74022W        W45605  14.657  41.904  12.580
74023W        W45606  32.936  37.338   2.225
74024W        W45607  18.226  37.968   1.254
74025W        W45608   9.890  33.095   0.430
74026W        W45609  31.442  18.956   0.083
74027W        W45610  39.545  35.819   1.940
74028W        W45611  44.303  18.045  10.975
74029W        W45612  15.615  25.380   0.869
74030W        W45613  28.159   3.970   1.689
74031W        W45614  21.526  17.623   0.352
74032W        W45615  25.605  31.918  12.825
74033W        W45616  41.457  36.491  14.865
74034W        W45617  38.156   2.327  13.006
74035W        W45618  38.377  24.257   2.865
74036W        W45619  33.365  29.952   4.998
74037W        W45620  21.710  17.571  10.678
74038W        W45621  36.391  40.112   4.912
74039W        W45622   5.501   8.654   3.345
74040W        W45623  22.221  10.768  12.964
74041W        W45624  20.087   8.097   1.819
74042W        W45625  21.711   1.355   3.767
74043W        W45626  11.688  36.719   3.993
74044W        W45627  32.536  36.945  14.667
74045W        W45628  26.472  32.818   4.032
74046W        W45629  36.881  43.442   0.633
74047W        W45630  43.932  13.868   3.782
74048W        W45631  29.468  32.559  13.357
74049W        W45632  41.529   0.197  12.482
74050W        W45633  10.851  14.663   0.349
74051W        W45634  27.154  35.289   4.918
74052W        W45635  39.377  30.764  14.084
74053W        W45636  37.666  27.544   1.756
74054W        W45637  28.590  34.039  10.735
74055W        W45638  34.772  13.603  11.955
74056W        W45639  41.838  10.817   3.242
74057W        W45640  37.826  39.634   0.788
74058W        W45641   5.192  33.078   3.291
74059W        W45642   3.666   8.280   3.896
74060W        W45643  24.704   4.854  10.604
74061W        W45644  32.971   4.843   2.353
74062W        W45645   4.243  44.001   4.416
74063W        W45646  42.361  22.583  12.923
74064W        W45647   9.355  34.941  12.714
74065W        W45648  34.281  38.845   0.065
74066W        W45649   9.149  22.186  14.805
74067W        W45650   3.004  24.276   3.814
74068W        W45651   1.242  26.000  14.313
74069W        W45652   2.967  12.108  11.156
74070W        W45653  41.754  16.755   2.793
74071W        W45654  33.668   8.344  14.629
74072W        W45655  18.142   0.839   0.727
74073W        W45656  37.547   0.811  14.191
74074W        W45657  37.599  38.273   1.880
74075W        W45658   5.200  44.699  11.303
74076W        W45659  16.320   7.246  11.324
74077W        W45660  36.627  35.622   1.884
74078W        W45661  42.108   0.791   1.017
74079W        W45662  41.343  26.698   3.595
74080W        W45663  40.994   0.361   0.200
74081W        W45664  37.874  16.848  13.076
74082W        W45665  15.654  14.593   1.446
74083W        W45666  36.850   7.299   0.468
74084W        W45667  21.488  38.662  14.017
74085W        W45668  18.555  28.959   2.840
74086W        W45669  28.575  33.611   3.306
74087W        W45670  18.106  13.374  13.288
74088W        W45671  27.627  28.689   2.320
74089W        W45672  32.370  20.285  13.686
74090W        W45673  31.636  21.457  13.158
74091W        W45674  43.782   7.282   0.481
74092W        W45675  40.077  25.545  13.411
74093W        W45676  27.937  34.887   0.473
74094W        W45677  12.088  21.041   2.347
74095W        W45678  17.539  37.417   3.831
74096W        W45679   8.370  13.077   3.234
74097W        W45680  26.522  23.695   4.060
74098W        W45681   2.200  18.044   0.438
74099W        W45682  44.175  31.908   4.302
74100W        W45683  23.072  17.222  13.860
74101W        W45684  38.930   8.125   1.527
74102W        W45685  17.129  12.967  12.241
74103W        W45686  31.119  39.513  12.639
74104W        W45687   8.372   0.535  11.596
74105W        W45688  18.814  41.045  11.110
74106W        W45689  23.447  37.259   2.717
74107W        W45690  32.408   2.349   3.740
74108W        W45691  35.145  19.995   3.322
74109W        W45692  25.104  30.393  12.046
74110W        W45693  20.723  26.764   0.861
74111W        W45694  44.233  32.500  11.905
74112W        W45695  31.911  10.790  13.405
74113W        W45696  23.069   6.793  14.998
74114W        W45697  17.161   5.138  11.581
74115W        W45698  25.321  31.688  11.721
74116W        W45699  29.672   8.443   3.586
74117W        W45700  23.108  21.769  13.445
74118W        W45701  37.702  25.767   1.616
74119W        W45702  21.774  11.707  14.011
74120W        W45703  39.544  20.702  12.785
74121W        W45704   9.719  20.811   4.749
74122W        W45705  14.721  27.081   5.085
74123W        W45706  10.664  16.846  12.548
74124W        W45707   6.895  44.490  13.748
74125W        W45708  28.105  32.150  11.194
74126W        W45709  30.274  40.762   3.287
74127W        W45710  28.031  13.240   1.959
74128W        W45711   8.185  16.055   1.670
74129W        W45712  29.759  43.569   3.661
74130W        W45713  27.639   2.468   0.943
74131W        W45714  28.076   6.094  12.959
74132W        W45715  32.733  28.647   1.242
74133W        W45716  10.132  23.125   2.888
74134W        W45717  41.106  27.541   4.195
74135W        W45718  19.668  23.953   3.214
74136W        W45719  26.559   8.866  11.111
74137W        W45720  26.675  36.595   3.196
74138W        W45721  32.678  33.392   0.928
74139W        W45722  33.433  31.579   0.349
74140W        W45723   6.065  12.268   1.755
74141W        W45724   4.293  27.330  12.880
74142W        W45725  23.065  15.501  12.955
74143W        W45726  28.069  29.043  13.628
74144W        W45727  22.022  20.852  11.834
74145W        W45728   6.332  26.483   0.389
74146W        W45729  12.526  35.842  11.887
74147W        W45730  14.914  23.685   3.668
74148W        W45731  32.129  42.355   0.547
74149W        W45732  44.988   7.201  12.608
74150W        W45733  24.937   5.113   1.774
74151W        W45734  12.667  37.491   1.843
74152W        W45735  35.301   3.050  12.966
74153W        W45736  16.737  16.188   4.016
74154W        W45737  22.554  21.544  10.988
74155W        W45738   2.743  44.547   3.555
74156W        W45739  42.739  29.459  10.672
74157W        W45740   0.572  37.607   1.902
74158W        W45741  13.758   1.437   2.179
74159W        W45742  11.197   6.303  11.645
74160W        W45743   2.324  22.984   2.970
74161W        W45744   3.939  40.270   4.966
74162W        W45745  20.651   4.278   0.608
74163W        W45746  38.494  11.335  11.081
74164W        W45747  26.686  21.130   3.360
74165W        W45748  30.721  40.968   2.366
74166W        W45749   7.715  13.547   2.201
74167W        W45750  43.083  40.676   1.264
74168W        W45751  36.697  22.747   2.242
74169W        W45752  37.378   8.269  14.439
74170W        W45753  27.068  43.963   1.821
74171W        W45754  10.913  35.770   1.079
74172W        W45755   3.344  40.557   4.205
74173W        W45756  21.709  30.674   1.815
74174W        W45757   0.690  42.711   0.510
74175W        W45758  29.121  42.811   3.430
74176W        W45759   4.691   4.285  13.904
74177W        W45760  35.608  40.347  14.178
74178W        W45761  25.025   5.406   1.372
74179W        W45762  40.404   1.735  13.023
74180W        W45763  21.757  29.165   3.727
74181W        W45764  41.001  17.017   1.320
74182W        W45765  14.495  10.126   2.947
74183W        W45766  22.635  28.378   5.449
74184W        W45767  33.054  34.561   0.777
74185W        W45768  17.500  35.340   5.523
74186W        W45769  24.434  38.596  11.629
74187W        W45770  13.941  33.676  13.967
74188W        W45771  40.867  28.536   0.717
74189W        W45772  21.112  24.349   3.261
74190W        W45773  25.427  21.974  11.960
74191W        W45774  31.701  29.540  14.575
74192W        W45775  10.718   1.354  13.351
74193W        W45776   0.952  25.392   2.755
74194W        W45777  12.143   7.916  12.980
74195W        W45778  28.618  14.589  13.025
74196W        W45779  14.778  28.079   2.372
74197W        W45780  15.089  37.014  14.159
74198W        W45781  34.509  27.054   1.841
74199W        W45782   6.342   1.497  12.980
74200W        W45783   1.177  29.094  11.928
74201W        W45784  20.347  20.114   3.978
74202W        W45785  39.777  15.749   3.437
74203W        W45786  40.997  39.523   1.649
74204W        W45787  17.028   6.743  13.740
74205W        W45788  24.051  41.560  14.312
74206W        W45789  39.875  32.964  11.965
74207W        W45790  35.850  43.230  14.012
74208W        W45791  27.467   2.193  11.633
74209W        W45792  15.740   0.927  13.854
74210W        W45793  20.363  26.684  14.928
74211W        W45794  20.297  39.409  12.310
74212W        W45795   5.284  24.212  12.951
74213W        W45796  22.513   1.509   2.212
74214W        W45797  27.122  40.912  13.266
74215W        W45798  32.134  32.548   0.933
74216W        W45799  26.204  41.833  11.129
74217W        W45800  25.444  33.012  14.758
74218W        W45801  26.182  36.402  14.034
74219W        W45802  38.868  30.643  14.520
74220W        W45803  28.817  43.445   1.790
74221W        W45804  16.405  34.119   3.331
74222W        W45805   1.470  29.871  13.610
74223W        W45806  20.294  34.401  11.576
74224W        W45807  41.891  37.739   2.873
74225W        W45808  44.028  20.693   1.225
74226W        W45809  38.948  37.912  13.873
74227W        W45810  26.418  44.439   3.293
74228W        W45811  16.686  44.559   2.944
74229W        W45812  30.335   3.757  13.926
74230W        W45813   4.000  38.831   4.886
74231W        W45814   0.309   6.767  12.474
74232W        W45815  42.997   0.198  13.874
74233W        W45816  10.242  34.486   2.791
74234W        W45817  38.876  13.853   4.668
74235W        W45818  26.057   9.321  10.605
74236W        W45819  40.545  40.789  11.179
74237W        W45820   9.973   4.015   3.743
74238W        W45821   8.763  38.821  12.363
74239W        W45822  23.215   0.805  10.617
74240W        W45823  21.092  15.890  13.577
74241W        W45824  30.204  44.060  14.000
74242W        W45825  13.226  11.099   0.731
74243W        W45826  15.799  16.396  10.666
74244W        W45827   0.970  31.680  11.374
74245W        W45828  26.562   0.553  13.245
74246W        W45829  23.010  42.551  14.714
74247W        W45830  10.619  28.460  11.622
74248W        W45831  15.778  39.835  14.822
74249W        W45832  32.543   2.971  12.848
74250W        W45833  23.220  29.383   4.964
74251W        W45834  26.861  40.663   4.110
74252W        W45835  29.152  44.877  12.971
74253W        W45836   4.461  27.096   4.606
74254W        W45837  24.405  36.346  10.746
74255W        W45838  27.066   1.210  13.850
74256W        W45839  34.053  23.229   4.666
74257W        W45840  15.823  43.430   3.844
74258W        W45841  38.425  24.083  11.954
74259W        W45842  35.799   5.880  11.676
74260W        W45843  24.846   4.245  10.674
74261W        W45844  31.885  29.400  12.195
74262W        W45845   9.730  42.966  12.681
74263W        W45846  23.933  33.399   2.253
74264W        W45847  44.383  43.828  11.753
74265W        W45848  32.956  32.716  14.197
74266W        W45849  12.927  24.053  11.653
74267W        W45850  10.479  42.508   1.752
74268W        W45851  37.536  14.023   4.383
74269W        W45852  39.409  42.169  10.711
74270W        W45853  17.600   0.074   3.305
74271W        W45854   2.593   4.134  11.152
74272W        W45855  30.033  15.618   1.207
74273W        W45856   9.652  34.942   3.319
74274W        W45857   2.800  21.198   4.546
74275W        W45858  44.245  32.750   1.147
74276W        W45859   2.810  25.992  13.310
74277W        W45860  21.472   8.249  13.001
74278W        W45861   9.880  43.799   4.664
74279W        W45862  37.878  36.572  14.742
74280W        W45863  23.592  36.849  12.104
74281W        W45864  31.635   0.842   0.745
74282W        W45865  43.877  21.540  12.660
74283W        W45866  43.367  32.392  11.646
74284W        W45867   4.595  24.439   2.243
74285W        W45868  13.873  28.977   2.782
74286W        W45869  25.101  25.974   3.032
74287W        W45870  11.642  38.517   3.748
74288W        W45871  26.684  36.443  13.851
74289W        W45872   2.333  38.911  11.616
74290W        W45873  22.042  33.147  12.901
74291W        W45874  30.625   4.728  12.313
74292W        W45875   1.521   2.688   1.292
74293W        W45876  29.504  39.858  11.232
74294W        W45877  40.477   7.758   2.273
74295W        W45878  12.602  21.546   2.149
74296W        W45879   9.627  31.170  13.308
74297W        W45880   7.386  34.040  14.758
74298W        W45881  15.144  33.593   3.137
74299W        W45882  40.918  33.201  14.390
74300W        W45883  40.009   1.184   3.964
74301W        W45884  28.889  33.354  11.729
74302W        W45885  19.139  41.948   3.808
74303W        W45886  21.257  30.929   1.850
74304W        W45887  28.913  20.020   3.586
74305W        W45888  17.263  13.892  12.890
74306W        W45889  22.773  44.192  14.719
74307W        W45890  37.304  37.558  10.483
74308W        W45891  39.095  14.250   3.859
74309W        W45892  26.583  14.752   3.611
74310W        W45893   1.666   6.717  12.658
74311W        W45894  32.547  17.004   2.396
74312W        W45895   0.332  44.623  14.020
74313W        W45896  12.337  24.135  12.614
74314W        W45897  38.467   0.502  13.316
74315W        W45898  11.070  43.320  11.069
74316W        W45899   2.352   2.482   0.954
74317W        W45900  29.619   5.906  14.472
74318W        W45901  25.026  32.518   2.604
74319W        W45902   9.648  23.777  13.321
74320W        W45903  23.505   4.665  11.157
74321W        W45904  42.314  35.071   2.635
74322W        W45905  26.041  24.056   4.601
74323W        W45906  43.422  26.019   3.806
74324W        W45907  20.155  11.433  11.089
74325W        W45908   2.222  14.489   2.713
74326W        W45909  30.907  23.099   3.750
74327W        W45910  23.884   2.179  12.488
74328W        W45911   2.159  24.797  13.044
74329W        W45912  37.546  40.909  11.718
74330W        W45913  40.585  35.943   2.409
74331W        W45914  41.056   3.177   4.591
74332W        W45915   8.746  13.770   4.642
74333W        W45916  20.575   5.564   2.244
74334W        W45917  10.417  33.509  11.751
74335W        W45918   0.528  14.846   3.349
74336W        W45919  27.289  43.831  14.803
74337W        W45920  24.583  18.959  11.996
74338W        W45921  32.525  10.757  10.853
74339W        W45922   5.278  39.043   4.171
74340W        W45923  35.492   2.750  14.853
74341W        W45924  36.827   8.830   3.813
74342W        W45925  36.142  14.038  11.215
74343W        W45926  28.215  20.040  13.077
74344W        W45927   8.039   2.758  13.000
74345W        W45928  30.087  17.060  14.849
74346W        W45929  32.175  14.342  11.011
74347W        W45930  20.983   4.745   2.303
74348W        W45931  29.366  10.379   0.209
74349W        W45932   7.347   1.401   2.626
74350W        W45933   7.183   2.166   0.428
74351W        W45934  19.556  23.601   4.587
74352W        W45935  22.960  29.764  13.904
74353W        W45936  22.687  17.674   2.607
74354W        W45937  42.036  14.308   1.238
74355W        W45938  35.291  16.082  13.974
74356W        W45939  18.720  12.953  13.581
74357W        W45940  19.788  31.393   1.888
74358W        W45941  36.147  10.388  12.981
74359W        W45942  24.941   6.844   3.328
74360W        W45943  20.077  21.313   4.713
74361W        W45944  11.264   1.392  14.816
74362W        W45945   9.344  37.327  12.318
74363W        W45946  44.937  30.808   0.376
74364W        W45947   5.492  20.161   1.435
74365W        W45948  43.426  20.550   3.115
74366W        W45949   7.312  27.445   1.774
74367W        W45950  10.396  37.553  13.847
74368W        W45951  39.427   6.143  11.508
74369W        W45952  22.425  25.757  14.812
74370W        W45953   9.577   7.450  10.678
74371W        W45954  31.063  15.646   0.820
74372W        W45955  32.871  25.990   4.577
74373W        W45956  11.751   6.470  14.037
74374W        W45957  44.456  10.657  13.761
74375W        W45958  19.090   8.313  12.860
74376W        W45959  23.447  28.267   0.353
74377W        W45960  26.322  40.779   4.035
74378W        W45961  28.085  14.701  12.623
74379W        W45962  38.147   5.700   4.112
74380W        W45963  40.051  10.733   2.284
74381W        W45964  17.529  20.770   4.580
74382W        W45965  27.030  26.740  14.849
74383W        W45966  26.575  15.840  14.939
74384W        W45967  43.356  20.144   2.731
74385W        W45968   6.108  20.754   4.648
74386W        W45969  11.776   9.401  12.041
74387W        W45970   9.826  43.360   2.699
74388W        W45971   8.497  43.202  12.423
74389W        W45972  12.090  30.609   1.684
74390W        W45973  37.903  29.407  10.455
74391W        W45974   6.842   2.456  13.633
74392W        W45975   8.546  19.479   2.952
74393W        W45976  13.796  15.630   4.041
74394W        W45977  38.292  42.485   3.736
74395W        W45978  25.381  11.215  14.976
74396W        W45979  15.676  32.663  11.173
74397W        W45980  38.345   5.878  12.456
74398W        W45981  34.631  14.785   0.450
74399W        W45982  16.691  42.375   1.974
74400W        W45983  18.662  12.446  13.570
74401W        W45984  21.132  44.655   2.942
74402W        W45985  40.716  30.358  11.004
74403W        W45986  16.102   5.757   3.404
74404W        W45987  11.827  16.346   2.102
74405W        W45988   9.759  40.130  13.640
74406W        W45989  31.990  43.991   1.277
74407W        W45990  11.631  36.434  10.747
74408W        W45991  21.656  10.093   0.282
74409W        W45992  29.441  17.762   1.192
74410W        W45993   6.949   8.699   0.432
74411W        W45994  18.245  44.290  10.646
74412W        W45995  12.244   5.794  10.741
74413W        W45996   9.750  10.155  10.822
74414W        W45997  31.841  14.740   0.670
74415W        W45998  17.235  32.598   3.826
74416W        W45999   2.821  11.651  13.950
74417W        W46000  22.562  19.357  10.830
74418W        W46001  23.136   6.876  14.496
74419W        W46002  10.942  16.991  13.907
74420W        W46003   0.252  33.497   2.308
74421W        W46004  15.549  44.972   0.739
74422W        W46005  30.895  33.510  10.713
74423W        W46006  10.722   6.744   3.742
74424W        W46007  27.059  10.532   0.036
74425W        W46008  24.985  25.936   0.750
74426W        W46009  24.218  34.494  12.459
74427W        W46010  44.262   2.902  13.037
74428W        W46011  25.910  20.093  10.742
74429W        W46012   4.878  10.503  12.782
74430W        W46013  24.676  24.071  13.275
74431W        W46014  24.551  23.136   1.325
74432W        W46015  44.242  18.022  10.462
74433W        W46016  19.090  29.564  11.519
74434W        W46017   2.817  22.594   4.656
74435W        W46018   7.747  28.919   1.006
74436W        W46019  44.367  29.079  14.403
74437W        W46020  25.356  16.371   1.012
74438W        W46021   8.541  28.643  14.457
74439W        W46022  40.377  31.022  14.912
74440W        W46023  14.468  32.401  14.841
74441W        W46024  41.935  32.388  12.022
74442W        W46025  27.260  22.063  11.915
74443W        W46026  16.045  40.890   3.141
74444W        W46027  24.541   4.185   3.362
74445W        W46028  25.441  13.352  10.638
74446W        W46029  11.274  21.836  14.373
74447W        W46030  41.361  25.936   2.355
74448W        W46031  28.750  25.080   5.183
74449W        W46032  37.005  14.072  13.646
74450W        W46033   3.609   5.353   1.863
74451W        W46034  33.944  40.045  14.883
74452W        W46035  30.416  16.657  14.978
74453W        W46036  25.730  44.323   4.087
74454W        W46037   8.691  18.517   0.766
74455W        W46038  34.172  26.744   4.201
74456W        W46039  42.277   3.461   2.715
74457W        W46040   1.775  21.758   4.711
74458W        W46041   9.867  20.247  10.532
74459W        W46042  34.679  23.291  14.043
74460W        W46043   9.610  39.066   1.781
74461W        W46044  19.526  35.485  10.340
74462W        W46045  26.187  20.589  14.953
74463W        W46046  40.473   0.455   1.636
74464W        W46047  26.965  39.709  12.575
74465W        W46048   5.032  33.426  14.418
74466W        W46049   3.048  36.631  14.435
74467W        W46050  13.752  44.683   4.103
74468W        W46051   3.058  33.529  11.260
74469W        W46052  31.226   8.875  13.963
74470W        W46053  26.591   7.007  12.562
74471W        W46054  12.747  39.115  11.093
74472W        W46055  40.101  19.364   3.798
74473W        W46056  11.330  29.624   2.627
74474W        W46057  13.056  21.722  14.972
74475W        W46058  29.282  12.542   5.121
74476W        W46059  22.482  34.903  13.325
74477W        W46060  27.555  36.221  10.639
74478W        W46061  29.975   6.179   2.428
74479W        W46062  31.684  24.025   0.889
74480W        W46063  10.625  41.264  14.226
74481W        W46064  12.176  21.013  14.817
74482W        W46065   1.244  23.451   4.166
74483W        W46066  44.533  19.154   2.936
74484W        W46067  26.730  13.412  10.724
74485W        W46068  44.362  38.746  12.631
74486W        W46069   0.791   6.357   0.211
74487W        W46070  42.525  29.961  14.698
74488W        W46071  17.864  42.330  12.539
74489W        W46072  10.226   6.638  13.549
74490W        W46073   2.786  27.164   1.009
74491W        W46074  18.071  41.440  11.584
74492W        W46075  34.830   4.667  10.244
74493W        W46076  37.922  30.143   3.424
74494W        W46077  36.566  34.438  11.581
74495W        W46078  28.661  29.105   0.488
74496W        W46079  20.323  29.387   1.316
74497W        W46080  33.902   2.452   4.562
74498W        W46081  17.427  23.486  13.017
74499W        W46082  29.209  17.495  13.521
74500W        W46083   3.190  26.400   3.709
74501W        W46084   6.739  17.856  11.450
74502W        W46085   0.027  24.864   4.944
74503W        W46086  38.970  40.804  14.916
74504W        W46087   7.465   0.860  11.197
74505W        W46088  18.041  39.609  13.765
74506W        W46089  11.141   2.286   0.268
74507W        W46090   7.273  31.475  11.065
74508W        W46091  39.103   4.338  12.444
74509W        W46092  31.658  44.906  14.212
74510W        W46093  16.647  12.276  11.049
74511W        W46094  28.774  15.837   4.197
74512W        W46095   6.765  40.311   4.685
74513W        W46096   9.784  40.161   1.902
74514W        W46097  31.375  41.863   2.223
74515W        W46098  42.722  25.360  11.095
74516W        W46099  32.168  44.193   3.118
74517W        W46100  28.218   4.849   0.828
74518W        W46101   2.763  36.521  10.606
74519W        W46102  40.359  37.333   5.150
74520W        W46103  36.122  22.504   1.705
74521W        W46104   0.297   9.391  14.367
74522W        W46105   6.388  26.306   1.356
74523W        W46106  29.874  27.632   1.727
74524W        W46107   9.728   6.626   2.823
74525W        W46108  10.036  44.482  14.562
74526W        W46109   8.487   9.943   1.714
74527W        W46110   7.705  26.476   5.097
74528W        W46111  33.402  10.194   5.042
74529W        W46112  34.487  15.844   2.276
74530W        W46113   8.677  28.397   3.325
74531W        W46114  39.837  27.385  13.419
74532W        W46115  17.735  25.268   0.201
74533W        W46116   9.250  29.440   3.681
74534W        W46117  25.445   0.675   3.724
74535W        W46118  20.357   4.078  11.606
74536W        W46119  18.083  39.446   3.300
74537W        W46120  44.854  17.217   3.655
74538W        W46121  23.182  33.749  12.002
74539W        W46122   1.318  41.101   0.177
74540W        W46123  25.932  35.461  10.728
74541W        W46124  38.594  37.744  11.724
74542W        W46125  16.875  12.183  13.010
74543W        W46126  38.608  13.938  11.103
74544W        W46127  19.160  30.976   1.374
74545W        W46128  32.706  30.653   3.568
74546W        W46129   3.307  32.609   1.465
74547W        W46130   5.853   7.782   4.268
74548W        W46131  17.591  18.132  12.076
74549W        W46132  22.828  44.036  12.622
74550W        W46133   4.769   0.943  12.878
74551W        W46134  10.754   4.924  11.928
74552W        W46135   3.870  27.087  14.061
74553W        W46136  39.940   4.923  10.390
74554W        W46137  12.187  16.562  12.649
74555W        W46138  29.029  19.421  12.356
74556W        W46139  41.346  34.691   0.408
74557W        W46140  22.612  44.826  14.019
74558W        W46141  37.537  12.819   0.057
74559W        W46142  25.155   7.518   1.228
74560W        W46143  17.131  23.026   5.078
74561W        W46144  17.211  16.317   0.091
74562W        W46145  16.209  23.919  11.192
74563W        W46146  44.337  30.073   3.757
74564W        W46147  41.343  27.646  14.340
74565W        W46148   3.219  39.360  13.028
74566W        W46149  25.532  34.969   2.657
74567W        W46150  31.549  23.982  10.401
74568W        W46151  16.523   5.403   0.417
74569W        W46152  16.307  39.856  14.758
74570W        W46153  24.834  25.991  14.392
74571W        W46154   5.657   7.869   4.737
74572W        W46155  10.660   6.815  13.808
74573W        W46156  13.346  32.063  13.066
74574W        W46157  28.717  16.152   4.629
74575W        W46158   8.111   2.185   3.240
74576W        W46159  14.825  30.629   2.737
74577W        W46160  25.820  23.924   5.095
74578W        W46161  35.192   0.251  12.543
74579W        W46162  16.206  31.220  13.886
74580W        W46163  16.168  37.260  13.329
74581W        W46164  42.153   0.754   1.766
74582W        W46165  11.564  31.883   0.284
74583W        W46166  32.959  26.210  11.867
74584W        W46167  30.376  36.244  14.397
74585W        W46168  20.501  39.066  10.644
74586W        W46169  25.538   4.642  12.202
74587W        W46170  33.349  35.551  11.203
74588W        W46171  19.536  43.723   3.604
74589W        W46172  20.193  34.036  12.514
74590W        W46173  16.263  41.080  11.368
74591W        W46174   4.762  27.229  11.595
74592W        W46175  40.859   2.685   1.189
74593W        W46176  21.759  41.764   4.124
74594W        W46177  32.908  31.358   0.743
74595W        W46178  21.827  11.335  13.536
74596W        W46179  31.162  37.977   0.889
74597W        W46180  12.560  21.376  11.726
74598W        W46181  41.344   8.918   1.801
74599W        W46182  21.492  39.924  14.337
74600W        W46183  15.515   0.275   2.804
74601W        W46184  37.730   0.424  14.467
74602W        W46185  29.046  37.902  11.605
74603W        W46186  17.673   6.682   1.760
74604W        W46187  14.315   3.304  10.613
74605W        W46188  41.517  29.397  11.621
74606W        W46189  30.149  35.879  13.601
74607W        W46190  21.449   2.497   5.044
74608W        W46191   0.482  33.554  11.969
74609W        W46192  14.709  29.512   4.656
74610W        W46193  26.120  33.884   4.892
74611W        W46194  44.985  17.095   0.692
74612W        W46195   7.329  39.598  14.366
74613W        W46196  41.177  20.305   0.469
74614W        W46197  25.608  28.344   4.710
74615W        W46198  13.739  29.042   0.766
74616W        W46199   6.321  30.048   4.830
74617W        W46200  32.998  36.072   1.902
74618W        W46201  16.851  20.074   1.575
74619W        W46202  42.184  21.765  14.808
74620W        W46203   1.330  23.577   1.433
74621W        W46204  44.462  42.311  14.939
74622W        W46205   7.382  31.430   3.172
74623W        W46206  39.504  32.091  10.730
74624W        W46207  43.014  23.574   1.639
74625W        W46208  24.823  13.533  12.300
74626W        W46209   3.404  30.737   3.203
74627W        W46210  41.466  30.199   3.322
74628W        W46211  33.881   3.460   3.034
74629W        W46212  14.481  30.206   3.629
74630W        W46213   9.671  43.489   3.430
74631W        W46214   0.059   5.466  14.314
74632W        W46215   1.034  36.064   1.967
74633W        W46216   4.817  17.926   3.197
74634W        W46217  19.219  24.990  10.638
74635W        W46218  19.748   1.044  13.605
74636W        W46219  25.214  23.089   4.580
74637W        W46220  22.663   1.020   2.120
74638W        W46221   3.716   9.979  11.649
74639W        W46222   4.703  18.618   4.557
74640W        W46223  11.157  16.742   3.778
74641W        W46224   8.219  25.672   2.739
74642W        W46225  23.147  21.366  11.198
74643W        W46226  42.378  11.375  12.505
74644W        W46227  20.152  11.097  11.781
74645W        W46228  38.804  25.924   0.255
74646W        W46229  38.592   3.173   1.744
74647W        W46230  43.829   1.446  13.445
74648W        W46231  20.227  37.098  10.697
74649W        W46232   0.874   3.235  13.570
74650W        W46233  13.885  32.402  12.059
74651W        W46234  11.798  24.851  10.246
74652W        W46235  16.307  37.574  14.825
74653W        W46236  42.114   2.686  11.191
74654W        W46237  39.476  20.097  11.229
74655W        W46238  30.442   5.914  10.569
74656W        W46239  16.044  22.811   4.652
74657W        W46240  20.233  38.394  13.832
74658W        W46241  40.846  19.428  13.908
74659W        W46242  40.985  10.540   0.367
74660W        W46243   5.483   3.966   0.298
74661W        W46244  22.613   7.397  13.317
74662W        W46245  10.903  13.404  14.886
74663W        W46246  23.745  16.566   1.255
74664W        W46247  28.885   1.785  11.902
74665W        W46248   5.755  25.651  10.658
74666W        W46249   3.505  44.898   3.759
74667W        W46250  38.755   0.926   4.074
74668W        W46251  12.727  19.190  13.772
74669W        W46252  37.521  10.826   4.938
74670W        W46253  33.722  13.558   1.658
74671W        W46254  34.818  20.620   0.405
74672W        W46255  10.288   9.387  13.437
74673W        W46256  34.576  15.174   2.409
74674W        W46257  34.842  20.184   0.658
74675W        W46258  32.746  17.064   2.997
74676W        W46259  16.935  40.848   2.689
74677W        W46260  37.484  25.409  12.561
74678W        W46261  41.962  19.841   0.988
74679W        W46262  15.787  31.928   2.366
74680W        W46263  39.650  43.444  11.119
74681W        W46264  33.713  14.660  13.417
74682W        W46265  30.419  13.324   1.694
74683W        W46266  29.701  22.299   4.542
74684W        W46267   9.404   9.123   0.365
74685W        W46268  13.879  25.057  11.282
74686W        W46269  20.161   0.174  12.227
74687W        W46270  13.338   0.519   1.878
74688W        W46271  34.084  10.349  13.287
74689W        W46272   4.666  34.222   5.000
74690W        W46273  41.850  10.726  12.359
74691W        W46274  33.944  25.859  11.667
74692W        W46275  41.581  41.871   0.330
74693W        W46276  25.056  15.943  11.167
74694W        W46277  21.259  36.619   0.082
74695W        W46278  26.931  26.941  12.651
74696W        W46279  32.562  22.011  14.649
74697W        W46280  42.640  39.467   0.975
74698W        W46281  10.216  37.377  12.458
74699W        W46282  23.055   9.881   1.322
74700W        W46283   4.577  30.554  14.426
74701W        W46284  33.925  33.412   2.766
74702W        W46285   2.265  29.654   3.419
74703W        W46286  41.294  27.543  12.526
74704W        W46287  29.454  31.251  14.986
74705W        W46288  43.860   3.379   2.261
74706W        W46289  43.298  44.953  11.617
74707W        W46290   3.916  12.697   4.559
74708W        W46291  41.821  30.470   2.204
74709W        W46292   1.979   6.880  14.301
74710W        W46293  40.468  22.720   0.715
74711W        W46294  39.987   1.910   3.586
74712W        W46295  32.011  18.287  12.974
74713W        W46296  24.012  40.298  11.610
74714W        W46297  19.760   8.921  13.841
74715W        W46298  18.312   9.843   2.726
74716W        W46299  30.502   4.614  14.443
74717W        W46300  11.471   5.272  14.997
74718W        W46301  44.245  20.310  13.391
74719W        W46302   0.854  37.820   2.826
74720W        W46303   0.811  11.228   4.702
74721W        W46304  13.686  15.561  14.559
74722W        W46305   6.630  14.166  14.542
74723W        W46306  23.208  24.492  11.217
74724W        W46307  32.757  40.808  11.076
74725W        W46308  10.929  18.590  14.421
74726W        W46309  40.574   2.234  12.998
74727W        W46310  41.383  11.074   3.052
74728W        W46311  42.129   3.375   3.207
74729W        W46312  29.282   9.201   3.170
74730W        W46313  19.068  29.404   4.914
74731W        W46314  36.653  40.805  13.463
74732W        W46315  37.399  15.666   4.729
74733W        W46316  28.386  44.337   0.422
74734W        W46317  13.156  39.393   1.828
74735W        W46318  31.552  35.888  13.296
74736W        W46319  27.168  23.509   0.354
74737W        W46320  14.650  27.111  11.421
74738W        W46321  29.265  29.737   0.254
74739W        W46322  29.953  20.822   0.917
74740W        W46323  30.867  30.193   0.967
74741W        W46324  26.477  23.941  12.412
74742W        W46325  12.050  39.362  11.666
74743W        W46326   0.330   0.772   2.187
74744W        W46327   3.792  30.511  11.519
74745W        W46328  21.017  32.988   3.659
74746W        W46329  20.184  28.208  10.541
74747W        W46330   1.488  25.495  11.978
74748W        W46331  14.418  12.949   5.139
74749W        W46332  30.309  24.197  12.955
74750W        W46333  16.537   7.863   4.230
74751W        W46334  19.186   5.582   2.357
74752W        W46335   2.509  35.164   0.933
74753W        W46336  30.878  31.159   3.808
74754W        W46337  10.064  12.774   1.322
74755W        W46338   1.733   9.824  11.655
74756W        W46339   1.844   8.647   3.724
74757W        W46340   0.564  11.475  11.669
74758W        W46341  13.328  14.203   2.168
74759W        W46342  13.227   8.004  14.974
74760W        W46343  11.821  28.604   4.077
74761W        W46344  34.990  14.698   0.058
74762W        W46345   2.873  22.682  10.694
74763W        W46346  37.810  29.350   2.471
74764W        W46347  10.107  32.778  12.425
74765W        W46348  29.733  29.476   5.075
74766W        W46349  31.856  32.364  12.093
74767W        W46350  24.621  20.302  12.611
74768W        W46351  20.023  31.418   0.069
74769W        W46352  25.617  35.108   0.114
74770W        W46353  34.123  44.235  12.323
74771W        W46354  10.377  24.618   1.410
74772W        W46355  30.409  38.490   0.991
74773W        W46356  29.167  32.112   4.442
74774W        W46357  35.610   8.914  13.080
74775W        W46358  30.086  20.450   2.231
74776W        W46359  18.364   6.348   0.273
74777W        W46360  40.426  40.793  13.989
74778W        W46361   8.410  41.680   1.784
74779W        W46362  28.837  33.866  10.269
74780W        W46363   9.892  33.038   2.444
74781W        W46364  10.085   8.007   5.025
74782W        W46365  32.391  43.049  11.351
74783W        W46366  20.700  28.436  12.945
74784W        W46367  22.143  41.093   1.873
74785W        W46368  32.176  38.621  14.547
74786W        W46369  20.340  21.281  14.341
74787W        W46370  22.031  20.226  13.474
74788W        W46371  44.319  44.756   4.120
74789W        W46372   5.875  17.092  14.447
74790W        W46373  40.824  32.109  14.992
74791W        W46374  29.191  38.876   0.979
74792W        W46375  12.175  33.515   1.878
74793W        W46376  23.176  28.680   0.193
74794W        W46377  36.380  41.607   2.229
74795W        W46378  10.182   4.235   4.154
74796W        W46379  10.410  19.587   4.586
74797W        W46380   6.892  38.904  11.232
74798W        W46381   6.135  15.985   4.845
74799W        W46382   0.826  13.747   3.706
74800W        W46383  31.494  18.505  14.830
74801W        W46384  18.017  38.489   0.686
74802W        W46385  23.630  39.888   3.710
74803W        W46386  23.763   5.883   0.782
74804W        W46387  37.103  29.724  13.419
74805W        W46388  18.115  11.516  10.633
74806W        W46389  26.997   3.797   4.012
74807W        W46390  16.747  10.574   0.299
74808W        W46391  12.244  42.677   1.922
74809W        W46392  22.632  32.063  14.365
74810W        W46393  38.271   2.699   1.225
74811W        W46394  19.137  33.231   1.608
74812W        W46395  26.415  34.446  13.752
74813W        W46396  21.226  43.885  14.938
74814W        W46397  23.439  29.866  14.883
74815W        W46398  23.810   5.845   2.931
74816W        W46399   0.706   9.273   3.367
74817W        W46400  19.656  31.074  13.943
74818W        W46401  36.539  42.021  12.116
74819W        W46402  10.069  31.167  14.285
74820W        W46403   3.023  26.093   1.734
74821W        W46404  23.280  44.661  11.558
74822W        W46405  32.621   5.700   2.198
74823W        W46406  14.732  30.511  13.034
74824W        W46407   7.893  24.399  12.867
74825W        W46408  14.790  43.066  10.573
74826W        W46409  23.928  25.211  11.075
74827W        W46410  23.718   9.970   2.641
74828W        W46411  28.670  33.618  13.869
74829W        W46412  36.486  16.324   0.419
74830W        W46413  13.176  10.357  11.979
74831W        W46414  12.040  20.760  11.135
74832W        W46415   2.492  41.700  12.890
74833W        W46416  13.760  36.426  11.049
74834W        W46417  40.536  41.570   4.119
74835W        W46418  21.794  37.775  14.375
74836W        W46419   6.282  39.100  11.528
74837W        W46420   4.967  18.827  10.626
74838W        W46421  24.178  26.256  12.379
74839W        W46422  27.066  32.115  11.268
74840W        W46423   5.262  17.130   3.733
74841W        W46424  28.915  37.503   0.826
74842W        W46425  42.040  16.946   2.384
74843W        W46426  31.514  16.118  12.175
74844W        W46427  13.280  13.161   2.861
74845W        W46428  29.220  26.381   2.724
74846W        W46429  41.028  24.098   3.633
74847W        W46430  24.736  34.041   1.627
74848W        W46431  38.138  38.997  12.778
74849W        W46432  25.004  19.549   1.947
74850W        W46433  31.757   3.531  13.843
74851W        W46434  13.719  25.923   0.839
74852W        W46435  29.688  36.123  13.511
74853W        W46436  16.385  24.143  10.225
74854W        W46437  17.323  29.597  14.198
74855W        W46438  10.202   8.362   4.655
74856W        W46439   3.849   0.057  11.144
74857W        W46440  26.248   9.463   0.424
74858W        W46441  35.502  16.850   0.258
74859W        W46442  39.966   7.695   2.373
74860W        W46443  14.237  38.883  13.499
74861W        W46444  30.125  27.962  10.876
74862W        W46445   0.899  37.316   4.962
74863W        W46446   2.404  26.093   0.300
74864W        W46447  14.290  21.651  11.668
74865W        W46448  17.016   4.531   4.220
74866W        W46449   8.847   6.786  10.641
74867W        W46450   5.089  20.604  14.265
74868W        W46451  38.797  29.929   1.355
74869W        W46452  39.311  43.908  12.455
74870W        W46453  35.777  19.147  11.069
74871W        W46454   0.868   8.497  11.195
74872W        W46455  30.456  27.342   4.074
74873W        W46456  13.965  23.520  13.008
74874W        W46457  40.549  25.416   4.059
74875W        W46458  24.829  37.925  14.168
74876W        W46459  39.982  36.501   0.308
74877W        W46460   6.074  27.524  14.497
74878W        W46461  39.782   7.416  11.830
74879W        W46462  15.195  25.111  11.966
74880W        W46463  33.547   5.198   3.773
74881W        W46464  39.747  28.726   1.370
74882W        W46465  41.697   1.050   1.892
74883W        W46466  25.988  24.358   4.115
74884W        W46467  28.393  12.333   0.717
74885W        W46468  42.953  25.441   4.035
74886W        W46469  35.359  10.797   4.653
74887W        W46470   3.472  13.622  14.364
74888W        W46471  23.193  41.108  13.300
74889W        W46472  24.316  17.753  11.599
74890W        W46473  29.598  32.902  12.446
74891W        W46474  42.408  32.484  11.807
74892W        W46475  13.734   5.634  11.619
74893W        W46476  38.163  40.984  11.629
74894W        W46477  15.230   5.644   0.800
74895W        W46478  25.589  15.803  13.837
74896W        W46479   9.659  23.471   1.984
74897W        W46480  35.653  14.173  12.815
74898W        W46481   0.751  43.550   0.655
74899W        W46482  23.595  18.262   0.808
74900W        W46483  35.409  11.155  12.115
74901W        W46484  15.564  14.405   3.785
74902W        W46485  32.383  23.165   2.191
74903W        W46486  12.351  44.344  10.715
74904W        W46487  25.799  34.190  11.891
74905W        W46488  18.535  12.569  12.217
74906W        W46489  23.209  34.526   1.910
74907W        W46490  10.882  36.288   1.268
74908W        W46491  17.863  40.867  12.531
74909W        W46492  16.042  24.718  14.936
74910W        W46493   2.319  24.141  11.635
74911W        W46494   9.264   7.352  12.570
74912W        W46495   6.966  44.714   0.421
74913W        W46496  25.930  16.098   0.230
74914W        W46497  19.629  19.093   4.387
74915W        W46498   9.920   9.763  12.050
74916W        W46499  31.433  19.332   0.430
74917W        W46500  27.994  29.939  12.696
74918W        W46501  19.119  31.400   2.187
74919W        W46502   3.967  20.286   0.348
74920W        W46503  34.144  16.826   3.701
74921W        W46504  25.555  15.606   4.329
74922W        W46505  35.348  36.579   2.073
74923W        W46506  19.322  40.268  12.029
74924W        W46507  15.166   2.789  12.634
74925W        W46508  21.247  25.208  13.340
74926W        W46509  39.024  27.696  10.977
74927W        W46510  41.432  35.542  12.317
74928W        W46511  10.689  37.180   5.055
74929W        W46512   8.401  32.604   1.839
74930W        W46513  37.512  24.474  11.563
74931W        W46514  23.542   9.179  13.929
74932W        W46515   4.897   6.344   0.860
74933W        W46516   2.159   1.761   3.199
74934W        W46517  32.860  29.496  11.237
74935W        W46518  40.031  23.186   3.735
74936W        W46519  44.775  15.703   4.754
74937W        W46520  15.500  31.428   2.705
74938W        W46521   9.213   2.280   2.431
74939W        W46522  33.565  22.735  12.657
74940W        W46523  24.405  39.502  10.592
74941W        W46524   0.368  18.131   3.637
74942W        W46525  19.549   8.945  12.154
74943W        W46526  30.511   0.682   1.862
74944W        W46527  19.509  16.576   1.764
74945W        W46528  15.161  15.244   2.446
74946W        W46529   5.194  33.533   4.048
74947W        W46530  29.233  27.514  12.054
74948W        W46531  36.889  23.790   0.010
74949W        W46532  19.481   7.285   2.012
74950W        W46533   8.898  42.003  13.487
74951W        W46534  16.115  24.195   2.572
74952W        W46535  35.088  37.972   1.262
74953W        W46536  35.954   0.927   3.910
74954W        W46537  27.097  21.512   0.881
74955W        W46538  29.222  21.703  13.772
74956W        W46539  27.630  22.957   4.704
74957W        W46540  36.991  32.554   0.463
74958W        W46541  12.091  15.136   1.009
74959W        W46542   6.195  24.005  12.059
74960W        W46543  42.780   9.405  13.752
74961W        W46544  24.439  22.470   2.591
74962W        W46545  43.810  16.991  13.188
74963W        W46546  33.067  21.177   4.437
74964W        W46547   5.001  36.018  13.000
74965W        W46548  26.501  10.232  14.973
74966W        W46549  19.408  16.084   1.922
74967W        W46550   6.318  23.751  14.262
74968W        W46551   2.748  41.004   3.238
74969W        W46552  28.238  34.435  10.849
74970W        W46553   6.474  10.751   3.821
74971W        W46554  14.389  36.541  13.903
74972W        W46555   7.637  10.018   1.977
74973W        W46556  18.291   2.667   4.323
74974W        W46557  33.437  42.992  12.887
74975W        W46558   4.804  19.698  12.938
74976W        W46559   8.950   5.500  12.634
74977W        W46560   1.297  20.006   0.454
74978W        W46561  34.981  12.884  14.319
74979W        W46562  27.717  26.947  13.335
74980W        W46563  31.695   8.687   4.219
74981W        W46564   7.893  21.094  13.431
74982W        W46565   4.789  42.779  13.486
74983W        W46566  33.616   5.266   2.834
74984W        W46567  22.183   2.360   1.816
74985W        W46568  19.376  28.048   3.810
74986W        W46569  10.224  24.817   2.822
74987W        W46570  22.932  36.601   5.011
74988W        W46571  38.966   5.855  11.491
74989W        W46572   5.272  43.823   1.905
74990W        W46573   1.412  17.323   1.508
74991W        W46574  39.822  24.693   1.997
74992W        W46575  25.899  35.853   0.575
74993W        W46576  13.059  17.246   3.194
74994W        W46577  13.254  20.934  11.148
74995W        W46578  10.848  30.651  10.999
74996W        W46579   1.767  34.329   3.614
74997W        W46580  26.676   6.763  10.596
74998W        W46581  25.856   1.435   2.415
74999W        W46582  37.653  29.658   0.299
75000W        W46583  41.254  31.826  14.306
75001W        W46584   2.483  43.225   4.903
75002W        W46585  44.916  42.888   3.229
75003W        W46586  21.605  22.760  10.705
75004W        W46587  20.700  10.348  12.508
75005W        W46588  30.972  21.556  11.567
75006W        W46589   3.764  42.784   0.060
75007W        W46590  35.994  36.367   1.610
75008W        W46591  36.051  44.042  10.408
75009W        W46592  41.532   3.459   1.214
75010W        W46593  21.770  16.450  11.087
75011W        W46594   2.798  42.973  10.803
75012W        W46595  42.403  13.136   1.506
75013W        W46596  14.234  11.188   1.881
75014W        W46597  22.767   0.016  14.890
75015W        W46598   4.473  35.532   0.807
75016W        W46599  23.972  32.518   3.332
75017W        W46600  29.101  17.353   1.321
75018W        W46601   7.129  12.762  13.016
75019W        W46602  18.432  12.378  12.685
75020W        W46603  10.965   7.639  14.113
75021W        W46604   5.806  22.323   3.559
75022W        W46605  34.476  19.299   4.240
75023W        W46606  26.118  22.463  12.812
75024W        W46607  11.410  38.905  13.008
75025W        W46608   6.765  42.218   0.528
75026W        W46609  15.611  37.511   3.578
75027W        W46610  21.702  22.239  10.844
75028W        W46611   7.726  25.571   2.431
75029W        W46612  16.267   4.945  13.925
75030W        W46613  20.974  25.751  10.694
75031W        W46614  43.959  21.162  10.970
75032W        W46615  35.642  41.585   4.273
75033W        W46616  16.551   5.398  10.821
75034W        W46617  40.347   9.484   3.303
75035W        W46618  17.191  22.028   3.660
75036W        W46619  27.974   2.936   3.359
75037W        W46620  11.791  30.340  12.246
75038W        W46621  24.158  36.872  12.845
75039W        W46622  18.762   0.032  13.356
75040W        W46623  30.585   4.289  12.047
75041W        W46624  29.531  34.645   1.470
75042W        W46625   0.438  31.169   3.809
75043W        W46626  36.566  13.619   1.929
75044W        W46627  12.400  10.785  10.932
75045W        W46628  14.480  33.431   2.538
75046W        W46629  27.093  10.212  13.673
75047W        W46630   6.967  30.149   4.153
75048W        W46631  23.193  35.431  10.517
75049W        W46632   0.658   1.738  12.496
75050W        W46633  37.461  32.336  12.038
75051W        W46634  13.576  22.706  10.719
75052W        W46635  20.610  15.682   4.423
75053W        W46636  20.020  19.207  11.613
75054W        W46637  12.453  14.341   2.192
75055W        W46638  42.998  41.523  11.642
75056W        W46639   9.652  13.879   3.424
75057W        W46640  40.552  27.902  14.921
75058W        W46641  26.088  43.726   4.851
75059W        W46642   4.434   3.152  12.099
75060W        W46643  43.531  14.519   1.868
75061W        W46644  33.186  39.464   3.317
75062W        W46645   1.538   3.030  12.008
75063W        W46646  22.077  43.951   2.861
75064W        W46647   9.261  29.005  13.568
75065W        W46648  16.710   5.759   2.706
75066W        W46649  32.134   6.926  12.563
75067W        W46650   2.524  38.482   3.752
75068W        W46651  44.443  18.637   0.915
75069W        W46652  41.778  39.521  12.556
75070W        W46653  18.850  31.863  12.538
75071W        W46654  25.152   9.804   5.004
75072W        W46655  43.697  33.831   3.707
75073W        W46656  22.853  22.530  12.935
75074W        W46657  34.366  10.892  12.516
75075W        W46658  35.871  36.553  12.000
75076W        W46659  15.717  14.721  12.051
75077W        W46660  11.301  26.554   2.344
75078W        W46661  13.585   7.133  14.555
75079W        W46662   6.183   8.719   4.488
75080W        W46663  24.477  11.885   3.558
75081W        W46664  25.130  18.588   3.784
75082W        W46665  29.922   8.592   1.383
75083W        W46666  14.828   7.977  13.523
75084W        W46667  41.043  31.138   2.233
75085W        W46668  18.709   3.979   4.590
75086W        W46669  16.753  29.454  13.022
75087W        W46670   4.773  19.736  10.524
75088W        W46671   2.392  21.731  12.542
75089W        W46672  11.488  30.196   4.358
75090W        W46673  24.003   0.625   2.383
75091W        W46674  34.276  37.389   2.814
75092W        W46675  42.370  29.886  11.677
75093W        W46676   9.330   1.490  10.571
75094W        W46677   1.045   2.049  10.318
75095W        W46678  21.661   7.198  13.837
75096W        W46679  28.045  41.288  12.941
75097W        W46680  23.920  22.571  10.269
75098W        W46681  40.883  15.677   4.814
75099W        W46682  29.111  12.978   4.688
75100W        W46683  22.208  15.773  12.804
75101W        W46684  30.508  29.208  11.217
75102W        W46685  15.091  16.600   3.191
75103W        W46686  42.091  19.548  11.705
75104W        W46687  37.817  13.568  14.378
75105W        W46688  28.281  21.281   0.550
75106W        W46689   1.821   8.970  12.008
75107W        W46690   5.894  19.330  12.378
75108W        W46691  18.482  19.938  11.109
75109W        W46692   8.942  18.100  12.456
75110W        W46693  34.928  11.337  12.112
75111W        W46694  32.120  41.347   3.230
75112W        W46695  44.448   3.540  14.624
75113W        W46696  33.392  27.151  11.169
75114W        W46697  22.701  21.396   0.443
75115W        W46698  14.894   8.117  12.547
75116W        W46699  21.125  14.849  12.557
75117W        W46700  38.658  25.981   0.784
75118W        W46701   4.769  39.292   1.242
75119W        W46702   8.303  34.611  11.747
75120W        W46703  40.884   4.755   0.243
75121W        W46704  11.709  29.990  14.285
75122W        W46705  26.457   1.952  14.057
75123W        W46706  35.477  29.114  14.769
75124W        W46707   9.032  43.339  10.720
75125W        W46708  16.562  21.624   2.325
75126W        W46709   5.205  32.186  14.435
75127W        W46710  42.432   4.493  11.177
75128W        W46711  43.868   1.393  11.856
75129W        W46712   2.180  20.765  10.725
75130W        W46713  22.956   2.799   0.352
75131W        W46714  41.983  16.836  12.579
75132W        W46715  27.464  39.571   1.399
75133W        W46716  36.284   0.382  11.496
75134W        W46717  38.743  34.370  11.108
75135W        W46718  12.582  37.940  13.082
75136W        W46719  14.278  14.510  14.282
75137W        W46720  17.146  13.777  13.383
75138W        W46721  12.857  28.289  13.039
75139W        W46722  17.381  10.324  12.122
75140W        W46723  26.553  20.577  11.212
75141W        W46724  23.677  14.973  14.862
75142W        W46725  44.335  16.282  12.407
75143W        W46726  42.467  28.959   0.706
75144W        W46727   8.900  41.493  13.416
75145W        W46728  40.378  23.234   4.925
75146W        W46729  42.712  26.863   2.390
75147W        W46730  28.594  37.686   1.753
75148W        W46731  37.573  10.155   4.177
75149W        W46732  40.813  33.415   1.314
75150W        W46733   4.220  28.141  13.582
75151W        W46734  14.004  37.437   5.001
75152W        W46735  12.879  35.528   2.209
75153W        W46736  27.015  35.163   2.762
75154W        W46737  31.652  30.562   2.938
75155W        W46738  37.000   8.144  10.582
75156W        W46739  42.268  18.005  11.951
75157W        W46740  12.340  30.256   2.406
75158W        W46741   9.263  29.592  13.061
75159W        W46742  17.579  36.392  10.958
75160W        W46743  36.940  32.322   1.535
75161W        W46744  21.928  39.896  11.200
75162W        W46745  29.713  18.179   0.980
75163W        W46746  20.573  22.486   3.047
75164W        W46747  26.957   9.396   5.086
75165W        W46748   8.383  42.329  12.602
75166W        W46749  43.795  33.125  11.548
75167W        W46750  31.524   4.736   0.141
75168W        W46751   9.435   7.022   1.320
75169W        W46752  37.839   0.098  13.760
75170W        W46753  12.246  34.825   3.237
75171W        W46754  22.079  24.723  13.598
75172W        W46755  14.522  32.512  11.170
75173W        W46756  35.992  25.119   2.875
75174W        W46757  29.554  43.640  10.715
75175W        W46758  15.027  43.962   4.922
75176W        W46759  43.350  29.712  11.595
75177W        W46760  43.819  33.364  11.023
75178W        W46761  42.639  43.112  14.027
75179W        W46762  30.361  10.423   1.935
75180W        W46763  33.081  18.951   0.484
75181W        W46764  31.430  32.368  11.707
75182W        W46765  14.229  36.646   4.066
75183W        W46766  14.097  17.481  10.444
75184W        W46767   4.675   0.752   4.761
75185W        W46768  29.288  27.569  13.975
75186W        W46769   8.236  40.337   2.168
75187W        W46770  16.723  22.399   1.832
75188W        W46771  26.703   9.525   3.246
75189W        W46772  17.550   2.824  14.423
75190W        W46773   5.000  30.888  11.995
75191W        W46774  32.141  10.951  11.947
75192W        W46775  16.984   8.801  12.021
75193W        W46776   5.747  25.041   2.367
75194W        W46777  21.804  31.691   3.906
75195W        W46778  27.024  40.040   3.101
75196W        W46779  31.696   0.876   5.167
75197W        W46780  41.061  31.524  10.490
75198W        W46781   6.404  24.588  10.960
75199W        W46782   9.117  33.441   3.215
75200W        W46783  20.024  26.995   3.697
75201W        W46784   0.736  15.853  10.710
75202W        W46785  15.185   9.297  14.023
75203W        W46786  19.274  22.901  11.683
75204W        W46787   6.751  12.607  10.358
75205W        W46788  32.138  32.648   1.831
75206W        W46789  16.105  13.569  13.285
75207W        W46790  32.412   4.434   1.662
75208W        W46791  20.089  30.773  13.849
75209W        W46792  38.313   4.981   0.771
75210W        W46793   3.912   4.733   2.681
75211W        W46794  26.034  42.154   4.305
75212W        W46795  23.080   0.399   1.160
75213W        W46796  28.082  33.024  14.374
75214W        W46797  44.120  40.011  12.248
75215W        W46798  20.265  13.157   1.980
75216W        W46799  29.251  25.575   1.748
75217W        W46800   5.577  14.838   0.848
75218W        W46801   5.436  13.886  11.955
75219W        W46802   3.016  18.240  13.776
75220W        W46803   3.556   1.866   9.880
75221W        W46804   5.417  38.103   5.061
75222W        W46805  36.679  14.546   0.860
75223W        W46806  34.326  17.013  13.968
75224W        W46807  29.312  42.970  13.998
75225W        W46808  26.154  33.801  12.813
75226W        W46809  22.237  43.463  12.143
75227W        W46810  32.437  25.997  13.472
75228W        W46811  12.075   8.090   1.807
75229W        W46812  42.818  29.613   3.300
75230W        W46813  36.401  39.778  13.935
75231W        W46814   8.388  26.150   2.283
75232W        W46815  20.807  16.676   0.745
75233W        W46816  16.255   4.885   1.229
75234W        W46817  19.608   0.036  14.805
75235W        W46818  17.270  16.975  11.410
75236W        W46819  44.582  33.079   1.327
75237W        W46820  31.805  17.579   2.273
75238W        W46821  31.943  25.072   0.355
75239W        W46822   6.670  16.103  11.751
75240W        W46823   3.811  13.546  10.694
75241W        W46824   9.851   5.688  11.069
75242W        W46825  19.248  28.969  13.007
75243W        W46826   9.849  40.333   0.549
75244W        W46827  37.817  29.558  12.004
75245W        W46828  12.438  26.852   4.209
75246W        W46829  44.977  21.152  13.391
75247W        W46830  42.416  12.877  11.452
75248W        W46831  28.486   9.628   3.601
75249W        W46832  19.033  13.024   3.284
75250W        W46833  17.281  27.265   4.948
75251W        W46834  22.178  29.879  14.528
75252W        W46835  28.207  20.772  13.823
75253W        W46836  43.016   4.029  12.482
75254W        W46837   9.591   2.811   1.274
75255W        W46838  42.104  18.259   0.978
75256W        W46839   3.713   4.664  11.236
75257W        W46840   6.303  11.421   1.672
75258W        W46841  21.671   1.517   4.244
75259W        W46842  10.675  30.644  13.617
75260W        W46843   7.218  19.477   4.053
75261W        W46844  44.861   6.492  11.050
75262W        W46845  42.070   3.932   2.834
75263W        W46846  25.736   8.840  13.161
75264W        W46847  17.590   5.335   0.233
75265W        W46848  19.189   8.772   0.536
75266W        W46849  23.219  21.431   0.395
75267W        W46850  22.055  18.784   3.731
75268W        W46851  23.728  19.785  10.476
75269W        W46852  32.461   8.352  12.094
75270W        W46853   5.258  14.052  12.911
75271W        W46854  25.744  15.207  11.580
75272W        W46855  42.302  36.644  12.498
75273W        W46856  17.388  31.634   0.779
75274W        W46857  15.025  31.429   1.882
75275W        W46858  39.889   5.239  12.665
75276W        W46859  42.197   0.812   0.256
75277W        W46860  11.130   7.930  11.493
75278W        W46861  34.048  16.188   0.973
75279W        W46862   0.380   0.508  12.372
75280W        W46863   9.649  43.792   4.194
75281W        W46864  39.045   2.176  12.865
75282W        W46865  24.217  18.146  13.022
75283W        W46866  26.712  15.237  14.234
75284W        W46867  38.878  38.950  11.158
75285W        W46868  35.130   8.871   1.851
75286W        W46869  31.222  30.849  14.803
75287W        W46870   6.656   6.087  11.941
75288W        W46871  44.035  13.331   3.935
75289W        W46872  10.524  20.015  13.127
75290W        W46873  10.637  29.591   3.694
75291W        W46874  35.383  35.721   2.239
75292W        W46875  11.812  30.875  10.489
75293W        W46876  21.827  30.273  10.541
75294W        W46877  18.216  17.169   4.541
75295W        W46878  32.551  40.059  12.483
75296W        W46879  26.698  11.729   4.678
75297W        W46880   2.591  28.736   0.747
75298W        W46881  32.934  26.171  10.909
75299W        W46882   5.245  27.113   4.198
75300W        W46883  17.666  36.733  14.933
75301W        W46884  35.519  32.487   0.212
75302W        W46885  42.949   2.789   2.328
75303W        W46886  33.345  24.574  13.873
75304W        W46887  13.950   5.635  14.462
75305W        W46888  15.557  23.595   0.295
75306W        W46889  42.791  39.781   2.754
75307W        W46890  35.026  30.134   1.530
75308W        W46891  13.163   6.238   4.153
75309W        W46892   3.802  28.198   1.747
75310W        W46893  14.937   2.819   1.439
75311W        W46894  43.827   5.894  14.483
75312W        W46895  17.160  30.508   2.174
75313W        W46896  31.430  34.621  13.921
75314W        W46897  16.004   1.329  13.030
75315W        W46898   8.741  29.965   4.131
75316W        W46899  17.538  29.744   3.135
75317W        W46900  34.984  37.963   4.403
75318W        W46901  31.786  43.659  11.099
75319W        W46902  40.588  18.757  12.973
75320W        W46903  30.836   9.298   1.934
75321W        W46904  11.685  16.314  14.854
75322W        W46905  36.004  18.154   1.422
75323W        W46906   7.695  19.060  11.170
75324W        W46907  28.239   0.255  11.761
75325W        W46908  21.146   5.762  12.407
75326W        W46909   6.459  20.352  12.868
75327W        W46910  31.339  38.997   4.380
75328W        W46911  15.191  24.623   0.787
75329W        W46912  27.431  38.074   4.552
75330W        W46913  39.949  37.003  13.088
75331W        W46914  22.040  13.294  13.773
75332W        W46915   3.766   6.152  10.152
75333W        W46916  27.176  18.783   1.780
75334W        W46917  30.849  18.176   4.363
75335W        W46918  28.947   6.975   3.810
75336W        W46919   5.685  39.168   1.173
75337W        W46920  18.279  16.038   2.258
75338W        W46921  13.079  15.254   0.803
75339W        W46922  31.831  13.400   3.242
75340W        W46923   0.129  26.593  13.607
75341W        W46924  20.635  12.797   0.666
75342W        W46925   4.924   5.986  12.930
75343W        W46926  32.173  41.450   0.321
75344W        W46927  16.257  17.599   4.563
75345W        W46928  38.767  11.735  14.925
75346W        W46929  33.762  39.555  13.151
75347W        W46930  32.515  37.280  11.559
75348W        W46931  39.228   8.729  10.451
75349W        W46932  24.000  24.258   1.495
75350W        W46933  13.822  21.205  11.931
75351W        W46934  16.488  15.543  14.373
75352W        W46935  28.407  26.488   0.066
75353W        W46936   5.301  21.476   4.899
75354W        W46937   1.673  12.850   1.326
75355W        W46938  44.802  44.898  12.590
75356W        W46939  44.676  39.352   3.119
75357W        W46940   5.759  18.158   0.547
75358W        W46941   4.382  39.746  12.988
75359W        W46942  41.646   4.453   1.993
75360W        W46943  17.579   9.258   1.204
75361W        W46944  32.033  30.604  10.333
75362W        W46945   9.555   8.814  11.003
75363W        W46946   0.244  30.869  12.472
75364W        W46947  29.279   1.476   1.912
75365W        W46948  14.568  11.121  14.401
75366W        W46949  34.079  15.720   3.867
75367W        W46950  29.613  43.164  12.128
75368W        W46951  11.698   7.934  12.069
75369W        W46952  19.042   7.725  13.649
75370W        W46953  27.517  35.976   3.289
75371W        W46954  39.169  19.668   5.085
75372W        W46955  22.109  15.129  10.687
75373W        W46956  32.969  27.408   0.337
75374W        W46957  32.586  43.543  13.205
75375W        W46958  12.292  10.728  14.256
75376W        W46959  27.728  15.023   1.894
75377W        W46960  35.644   2.827   0.348
75378W        W46961  33.720  12.687   1.901
75379W        W46962  36.961  17.746   3.173
75380W        W46963  18.806  18.177  14.623
75381W        W46964   2.309   3.374  11.911
75382W        W46965  26.096  39.028   0.357
75383W        W46966  43.458  36.887   0.844
75384W        W46967   2.107   3.468  14.013
75385W        W46968  34.060  14.408  14.557
75386W        W46969  21.211  37.063   0.353
75387W        W46970  42.292   9.193  14.132
75388W        W46971  23.992   4.834   4.406
75389W        W46972  11.556  38.946  13.525
75390W        W46973  10.348  16.046   2.236
75391W        W46974  10.379   1.434   1.793
75392W        W46975   9.440  27.924  11.226
75393W        W46976  39.316  19.238  11.606
75394W        W46977  10.354  30.442  11.633
75395W        W46978  15.386  25.721  11.504
75396W        W46979  31.567  34.578  10.622
75397W        W46980  24.573   6.184  13.929
75398W        W46981   1.761   9.883  12.147
75399W        W46982  19.594  42.057  14.368
75400W        W46983   1.772  35.041  12.228
75401W        W46984   5.710  33.508   2.709
75402W        W46985  16.787  41.047   0.688
75403W        W46986  19.540  27.140  11.412
75404W        W46987  40.219  16.602   2.766
75405W        W46988   5.726  43.212   4.340
75406W        W46989  14.412   9.263   3.267
75407W        W46990  24.551  21.957   1.703
75408W        W46991  22.900  34.666   0.481
75409W        W46992   5.822  37.470  13.768
75410W        W46993  34.385  27.253   1.339
75411W        W46994  30.012   3.275  10.218
75412W        W46995  28.554  14.633   1.405
75413W        W46996  30.252  35.186  11.625
75414W        W46997  33.084   4.939  14.314
75415W        W46998   8.502  25.428  12.039
75416W        W46999  28.609  34.529  14.476
75417W        W47000  30.437   3.879  13.414
75418W        W47001  20.685   2.448  11.080
75419W        W47002  12.060  36.834  13.423
75420W        W47003  39.960  37.858   0.845
75421W        W47004   2.670  12.809  10.724
75422W        W47005   9.283  18.268   3.572
75423W        W47006   2.928   6.814   0.192
75424W        W47007  17.979  37.767  12.202
75425W        W47008   2.230  37.035  14.289
75426W        W47009  28.145  17.724   2.922
75427W        W47010  23.085  40.242   2.936
75428W        W47011   6.876  19.276   4.600
75429W        W47012   6.261  11.247  12.802
75430W        W47013  11.087  37.084  14.289
75431W        W47014  32.979  16.026   2.921
75432W        W47015   4.721  28.948  14.385
75433W        W47016  26.056  16.753  13.035
75434W        W47017  40.263  25.950  12.718
75435W        W47018   0.033   8.821  12.462
75436W        W47019   4.339  21.709  14.972
75437W        W47020  44.931  39.382  11.537
75438W        W47021  14.993  20.725  10.699
75439W        W47022  13.154  36.451   5.104
75440W        W47023  35.438   9.400  13.033
75441W        W47024  32.693   0.902   0.823
75442W        W47025   3.189  30.836  11.006
75443W        W47026  13.142  10.039   0.878
75444W        W47027  26.129  42.827   1.747
75445W        W47028  30.003  31.218  10.840
75446W        W47029   1.963  20.805   3.687
75447W        W47030  34.341  40.856  13.712
75448W        W47031  39.430  25.020   1.444
75449W        W47032   3.407  20.511  13.480
75450W        W47033   9.265  16.955  11.624
75451W        W47034  17.395  10.481   2.653
75452W        W47035  34.323  44.020   2.836
75453W        W47036  24.744  36.845   0.000
75454W        W47037  44.023  43.492  11.972
75455W        W47038  19.565  40.421   4.011
75456W        W47039   9.232  24.916   1.858
75457W        W47040  33.953  10.964   3.681
75458W        W47041   8.729  42.880  12.974
75459W        W47042  13.185  37.431  10.645
75460W        W47043   2.969   8.745  12.501
75461W        W47044  20.217  40.425  11.992
75462W        W47045  21.493  38.847  10.749
75463W        W47046  42.026  31.041  10.975
75464W        W47047  41.853  27.488  13.470
75465W        W47048   1.223  35.447  12.846
75466W        W47049  22.158  38.852  12.025
75467W        W47050  13.897  38.871  11.422
75468W        W47051  35.629   5.666   1.893
75469W        W47052  31.805  19.913  10.023
75470W        W47053  33.377  16.616   0.267
75471W        W47054   1.847  24.249  14.344
75472W        W47055  29.036  43.209  10.630
75473W        W47056  26.564  27.621  12.591
75474W        W47057  26.683  41.337   0.811
75475W        W47058  11.394  20.995  12.632
75476W        W47059  11.674  14.607   2.431
75477W        W47060   8.694   5.895  12.408
75478W        W47061  10.408  21.200   0.282
75479W        W47062  16.710   7.912  10.679
75480W        W47063  13.230  11.258   1.668
75481W        W47064  31.684  44.876  12.447
75482W        W47065  14.175  14.843  13.839
75483W        W47066  28.230  35.894   0.493
75484W        W47067  17.760  41.924  11.987
75485W        W47068  22.225   7.444  12.032
75486W        W47069   2.301   3.809   0.294
75487W        W47070  12.083  27.182   4.001
75488W        W47071  31.844  15.157  12.464
75489W        W47072   5.724   1.822  10.964
75490W        W47073  40.843  26.224  14.755
75491W        W47074  12.218   1.416   3.210
75492W        W47075   5.170  18.222   3.375
75493W        W47076  23.931  10.840   2.410
75494W        W47077  22.651  10.060   3.726
75495W        W47078   9.673  30.120  10.610
75496W        W47079  25.492  27.440   1.912
75497W        W47080  26.723  20.406   2.580
75498W        W47081  19.177  26.674  11.121
75499W        W47082   0.262  17.635  13.773
75500W        W47083   8.436  27.253  14.360
75501W        W47084  40.491   0.634  13.354
75502W        W47085  12.590   2.156   4.239
75503W        W47086   9.120   6.486  12.492
75504W        W47087  12.894  31.484   1.124
75505W        W47088  29.977  23.232  11.366
75506W        W47089   8.865  30.291   3.755
75507W        W47090  36.562  40.470  11.186
75508W        W47091  43.438  39.113  13.086
75509W        W47092  42.964  32.668   4.643
75510W        W47093  37.780  27.613  13.484
75511W        W47094  30.635  40.839  13.204
75512W        W47095  23.512   9.903   1.020
75513W        W47096  12.608  36.933  13.477
75514W        W47097  34.939   3.068  14.234
75515W        W47098  29.080  43.036  14.501
75516W        W47099  13.384  37.498  13.963
75517W        W47100  39.925  27.040   4.413
75518W        W47101  33.070  34.810  13.806
75519W        W47102  43.742  38.456  11.577
75520W        W47103  32.911  29.608   0.056
75521W        W47104  10.712   3.457   0.796
75522W        W47105   6.364   8.951   3.166
75523W        W47106  17.101  12.705   1.882
75524W        W47107   6.324  37.768  13.639
75525W        W47108  27.706  41.536  12.045
75526W        W47109   3.246  15.233   1.270
75527W        W47110   6.618  26.458  12.528
75528W        W47111  25.011  30.908  11.164
75529W        W47112  42.019  16.066   4.873
75530W        W47113  19.071  37.050  14.826
75531W        W47114   3.787  40.467  11.886
75532W        W47115  21.034   5.290  14.015
75533W        W47116   0.321  34.295  14.589
75534W        W47117  32.980  41.826   4.652
75535W        W47118  31.298   8.713  11.636
75536W        W47119   2.792  25.181   2.630
75537W        W47120  23.675  41.331   1.801
75538W        W47121  36.557   6.193   3.718
75539W        W47122  32.476  15.988  12.575
75540W        W47123  22.998  32.459  13.496
75541W        W47124   4.231  22.540   2.814
75542W        W47125   9.933  43.437   1.672
75543W        W47126   6.651  13.666   0.399
75544W        W47127  36.333  40.957  13.895
75545W        W47128   1.322   6.704  14.816
75546W        W47129  15.266   7.955   3.667
75547W        W47130  34.010   8.174   1.646
75548W        W47131   3.440   6.459   0.169
75549W        W47132  44.068  39.522  12.387
75550W        W47133  18.505  16.528   1.804
75551W        W47134   9.901   7.346  11.550
75552W        W47135  25.042  15.033   3.804
75553W        W47136  37.434  35.483   2.373
75554W        W47137   4.128  33.202   3.291
75555W        W47138   8.590  33.574   2.298
75556W        W47139  12.592  32.170  11.130
75557W        W47140  24.262  35.420   3.251
75558W        W47141  14.846  43.572  10.660
75559W        W47142  15.166   0.055  12.884
75560W        W47143  33.823  28.543   0.368
75561W        W47144  23.025  13.630  13.407
75562W        W47145   9.153  25.578   3.661
75563W        W47146  20.580  13.708   4.164
75564W        W47147  12.363  31.483   0.384
75565W        W47148  15.762  31.488  13.902
75566W        W47149  18.690  41.082   2.640
75567W        W47150   2.734   5.325  13.737
75568W        W47151  35.651   4.375  10.509
75569W        W47152   3.789  14.310   2.055
75570W        W47153  42.926  42.275  13.988
75571W        W47154  16.729  42.618   0.797
75572W        W47155  32.991  12.132   3.206
75573W        W47156  41.439  12.629  14.456
75574W        W47157  12.248   7.292   4.463
75575W        W47158  24.238  28.761   0.896
75576W        W47159  42.545  18.781  11.300
75577W        W47160  23.149  30.897   0.763
75578W        W47161  43.844   9.133   3.629
75579W        W47162  37.624  21.046  12.832
75580W        W47163  31.649  27.983  14.069
75581W        W47164  34.431  16.754   0.198
75582W        W47165  32.018  44.885  11.562
75583W        W47166  14.700  25.446   1.753
75584W        W47167  43.903  22.677   4.091
75585W        W47168  41.294  34.113   3.302
75586W        W47169  36.412  42.026   2.524
75587W        W47170   3.927  31.275   2.298
75588W        W47171  21.236  13.011  10.694
75589W        W47172  14.612  23.662  11.080
75590W        W47173  24.607  19.140   3.136
75591W        W47174   8.086  31.482  10.419
75592W        W47175  32.484   6.450  12.874
75593W        W47176  14.677  35.617  10.244
75594W        W47177  20.939   8.195  12.931
75595W        W47178  17.585   0.591  10.305
75596W        W47179  13.455  18.607   4.085
75597W        W47180  34.647  27.570  12.474
75598W        W47181  39.949  21.257   4.144
75599W        W47182  21.111   3.495  11.640
75600W        W47183   8.116  36.514  11.498
75601W        W47184  20.833  18.058   2.723
75602W        W47185  40.441  40.476   4.967
75603W        W47186  23.025  20.526   3.668
75604W        W47187  31.358  40.377  11.149
75605W        W47188  34.279  43.727   2.333
75606W        W47189  25.044  11.794   1.152
75607W        W47190   7.320   7.116   1.471
75608W        W47191  14.269  27.609  10.818
75609W        W47192  32.150  35.977   0.911
75610W        W47193  43.168  44.313   0.804
75611W        W47194  20.826  14.625   2.676
75612W        W47195  11.674  35.600   1.221
75613W        W47196  19.870  32.853  11.907
75614W        W47197  43.535  24.404   1.364
75615W        W47198  10.318  19.546  13.050
75616W        W47199  41.958  32.886   4.595
75617W        W47200  30.646  22.251   2.311
75618W        W47201  36.820  42.014  13.433
75619W        W47202  22.946  34.560   1.477
75620W        W47203  25.144  41.053   3.157
75621W        W47204   7.375  33.407  13.107
75622W        W47205  20.783  20.516   1.388
75623W        W47206   3.714   6.835   3.199
75624W        W47207  33.958   9.154  12.852
75625W        W47208  34.916  39.875   1.782
75626W        W47209  20.687  23.284   2.452
75627W        W47210  31.503   6.122   0.811
75628W        W47211  18.543  36.700  11.101
75629W        W47212  21.481  25.639  14.601
75630W        W47213  43.884  23.159   3.972
75631W        W47214  15.553  44.939  11.574
75632W        W47215  28.305  18.084  11.062
75633W        W47216  35.916  22.932   4.884
75634W        W47217  21.546  15.344  13.138
75635W        W47218  26.394  11.175  14.580
75636W        W47219  12.734  12.063  12.942
75637W        W47220  35.510  36.751   0.508
75638W        W47221  12.573   4.505   4.262
75639W        W47222  14.672  17.082  14.789
75640W        W47223   8.561   7.622   1.906
75641W        W47224  27.102   9.627   2.928
75642W        W47225  26.065   9.202  14.417
75643W        W47226   0.896  33.908   3.318
75644W        W47227  37.780  32.525  12.406
75645W        W47228  43.057  12.215   1.885
75646W        W47229  25.337  37.051   4.178
75647W        W47230  35.396   8.449   0.346
75648W        W47231   9.960  39.891  11.064
75649W        W47232  11.284  11.580   1.874
75650W        W47233  39.374  23.328   4.618
75651W        W47234  35.531  32.918  12.924
75652W        W47235  18.212  41.071   3.327
75653W        W47236   1.462   8.305  14.053
75654W        W47237  25.482  10.155   4.062
75655W        W47238  16.872  39.079   3.278
75656W        W47239  31.284  29.121   2.249
75657W        W47240   0.432  25.890   0.738
75658W        W47241  14.883   8.917   0.351
75659W        W47242  27.347  37.207  14.825
75660W        W47243  34.457  20.498  13.818
75661W        W47244   1.051  22.611  11.460
75662W        W47245   9.945  34.137  13.927
75663W        W47246  42.885  40.356  12.629
75664W        W47247  30.234   4.265  12.641
75665W        W47248  31.866   4.797   3.954
75666W        W47249   0.905  30.127   1.320
75667W        W47250  39.319  14.431   0.094
75668W        W47251  14.689  21.695  11.966
75669W        W47252  18.556  31.534  11.714
75670W        W47253   5.884  16.157   3.268
75671W        W47254   4.684  20.676   0.303
75672W        W47255  31.042  36.591   0.529
75673W        W47256  30.069  22.350   4.904
75674W        W47257   4.262  32.286   0.860
75675W        W47258  22.635  25.151  11.183
75676W        W47259  11.617  38.973   3.230
75677W        W47260  21.180  34.662   2.290
75678W        W47261  12.925   8.304   3.972
75679W        W47262  43.347  40.292  10.126
75680W        W47263   8.240  23.369   0.971
75681W        W47264  43.688  37.848   2.929
75682W        W47265  41.073  35.420   1.340
75683W        W47266  33.099   8.626   1.289
75684W        W47267   8.854  39.316  13.514
75685W        W47268   2.927  13.571  12.848
75686W        W47269  34.082  10.953   0.968
75687W        W47270  30.842  20.668   4.522
75688W        W47271  28.499  43.713   1.334
75689W        W47272   0.757  39.442  12.785
75690W        W47273  29.931  44.643   2.268
75691W        W47274  24.143  37.387   5.171
75692W        W47275  34.912   9.972  12.345
75693W        W47276  14.886  31.376   2.373
75694W        W47277  31.352   2.207   4.652
75695W        W47278  29.387   3.813  13.549
75696W        W47279  33.662  21.576   2.183
75697W        W47280  13.810   0.262   3.221
75698W        W47281  40.333  41.802  14.820
75699W        W47282   3.773  18.750   4.074
75700W        W47283  25.494  43.184  13.987
75701W        W47284   3.996   3.298   2.358
75702W        W47285  38.585  10.257   1.021
75703W        W47286  17.532  24.675   1.435
75704W        W47287  43.348  27.877  11.855
75705W        W47288  42.820  44.065   0.527
75706W        W47289  11.305   3.842  13.804
75707W        W47290  27.936  26.347   4.041
75708W        W47291  44.446  14.956  12.502
75709W        W47292  32.542  25.598   0.942
75710W        W47293  14.579  27.375   1.450
75711W        W47294  35.023  29.502   1.768
75712W        W47295  23.507  19.758   2.826
75713W        W47296  37.193  12.657  14.710
75714W        W47297  23.572  26.647  14.101
75715W        W47298  27.585  17.088   0.234
75716W        W47299  27.506  44.047   3.823
75717W        W47300  42.606  37.645  11.250
75718W        W47301  10.091   8.382   1.287
75719W        W47302   6.313  12.546  14.366
75720W        W47303  33.418  15.097  13.527
75721W        W47304   5.893   2.285  10.745
75722W        W47305  22.448  17.543   1.264
75723W        W47306  27.192   7.221  14.954
75724W        W47307  11.543  37.144   3.683
75725W        W47308   2.503  13.088   4.629
75726W        W47309  36.763  39.693   4.068
75727W        W47310  41.385  24.028   2.266
75728W        W47311  16.155  13.025  13.302
75729W        W47312  26.935  41.278   4.828
75730W        W47313  23.752  22.192  10.599
75731W        W47314  44.529  25.703  14.328
75732W        W47315  18.744   3.236  13.513
75733W        W47316  10.087  40.968   2.230
75734W        W47317  30.609  21.445  11.947
75735W        W47318   3.500  31.958  12.117
75736W        W47319  32.881  27.084   3.213
75737W        W47320   4.319   7.644   4.261
75738W        W47321  15.599  35.303   2.497
75739W        W47322   9.747  37.308   1.341
75740W        W47323  39.855  26.731  10.713
75741W        W47324  16.352  21.085   2.715
75742W        W47325   5.891   5.584  10.579
75743W        W47326  34.334  38.456   1.480
75744W        W47327   0.808  35.814   1.588
75745W        W47328   1.359  44.345  13.300
75746W        W47329  34.795   3.874   0.751
75747W        W47330   2.584  10.128  14.511
75748W        W47331  16.440  38.525   2.522
75749W        W47332   7.972  21.525  11.634
75750W        W47333  22.166  17.705   2.155
75751W        W47334  40.301  44.248  11.145
75752W        W47335   5.705  27.741  12.619
75753W        W47336  39.044  14.951  13.443
75754W        W47337  34.494  11.280  11.872
75755W        W47338  20.221  11.334   2.179
75756W        W47339  30.976  30.103   2.917
75757W        W47340   3.335  10.772  14.837
75758W        W47341  39.887  11.352   1.604
75759W        W47342  22.717  11.803  13.385
75760W        W47343   7.661  40.999  13.448
75761W        W47344  36.152  39.706  11.433
75762W        W47345  43.911  13.580   4.768
75763W        W47346  33.064  12.419   4.137
75764W        W47347  43.253   2.384   3.186
75765W        W47348  34.810  21.185  13.153
75766W        W47349  27.181  14.729  11.641
75767W        W47350  33.464  30.859   2.294
75768W        W47351  39.261  15.093  14.847
75769W        W47352  31.040  16.200   4.054
75770W        W47353  28.616  22.092   0.340
75771W        W47354  15.292  42.310  13.887
75772W        W47355  37.545  33.504  14.268
75773W        W47356  30.596  41.060   2.888
75774W        W47357  21.989  28.101  12.623
75775W        W47358  12.926   5.984  13.905
75776W        W47359  28.838  24.418   2.834
75777W        W47360  23.050  39.714   3.870
75778W        W47361  42.784  22.099   3.801
75779W        W47362  42.702  44.219   4.205
75780W        W47363  19.081  20.367   0.996
75781W        W47364  34.838  36.330  12.067
75782W        W47365  30.645  15.114   4.854
75783W        W47366   2.936  22.476  14.221
75784W        W47367  37.789  10.391  10.499
75785W        W47368   4.135  19.542   4.695
75786W        W47369  19.596  44.781   1.278
75787W        W47370   3.732  40.825   1.847
75788W        W47371  36.467  13.792   2.430
75789W        W47372  19.997   1.496   1.752
75790W        W47373  15.163  27.121   0.922
75791W        W47374  16.684   8.480   3.104
75792W        W47375  30.168  38.866   3.697
75793W        W47376   6.247  11.258   2.662
75794W        W47377  43.925  15.865  10.630
75795W        W47378  29.580  44.813  11.174
75796W        W47379  32.956   3.448  12.524
75797W        W47380   8.692  32.952  12.932
75798W        W47381   2.308   9.948   0.665
75799W        W47382  28.200  33.721  12.909
75800W        W47383  43.672   3.626   1.818
75801W        W47384  18.670  38.051  12.999
75802W        W47385  42.316  40.029   2.770
75803W        W47386  37.904  20.177  13.287
75804W        W47387  32.188  21.271   1.479
75805W        W47388  27.893   9.235   2.848
75806W        W47389  20.688  11.330   4.905
75807W        W47390  33.448  26.818   0.372
75808W        W47391  37.096  28.666   0.714
75809W        W47392   3.359  14.328   1.759
75810W        W47393  42.620  17.624   2.331
75811W        W47394   9.623  28.418   1.929
75812W        W47395  31.379   1.014  12.104
75813W        W47396  44.675  32.579  11.583
75814W        W47397  20.774  24.798   2.390
75815W        W47398   5.445  43.265  11.118
75816W        W47399  40.571   7.554  13.081
75817W        W47400  27.677  11.763   1.204
75818W        W47401  16.493  40.709  11.655
75819W        W47402  34.204  32.482  12.974
75820W        W47403   9.693  20.042  12.187
75821W        W47404  24.580  43.420   2.021
75822W        W47405   7.401  13.597  14.425
75823W        W47406  16.206  24.987   4.235
75824W        W47407  41.448  12.304   2.798
75825W        W47408  26.254  15.548  13.506
75826W        W47409  29.209  12.810   2.848
75827W        W47410  17.890  34.991   0.784
75828W        W47411  11.708  42.359  12.408
75829W        W47412  23.882  20.122  14.925
75830W        W47413  36.007  25.444   2.383
75831W        W47414  36.121  15.777  12.860
75832W        W47415  29.664   9.926  12.295
75833W        W47416  27.554  13.976  13.887
75834W        W47417   9.742  43.167  11.464
75835W        W47418  40.734  36.835  11.463
75836W        W47419   8.743   6.810  13.090
75837W        W47420  24.391  17.240  14.085
75838W        W47421  11.518  21.648  13.142
75839W        W47422   3.241  24.791  14.729
75840W        W47423  39.441  21.244  13.186
75841W        W47424  14.271  13.513   2.725
75842W        W47425   6.890  18.043  12.994
75843W        W47426  34.339   1.292  12.896
75844W        W47427  37.410  22.169   1.784
75845W        W47428  41.816   1.046   2.779
75846W        W47429  20.776  36.878  14.396
75847W        W47430  30.411  24.380   0.384
75848W        W47431   3.193  25.136   4.146
75849W        W47432  14.654   2.243  13.337
75850W        W47433   5.448   9.189   1.284
75851W        W47434  24.995  27.761  12.423
75852W        W47435  29.299  44.439   4.538
75853W        W47436  37.310  10.169   3.284
75854W        W47437  29.653  29.139  13.320
75855W        W47438  14.713  42.850  13.303
75856W        W47439  22.093  43.491  14.523
75857W        W47440  42.975   7.804   0.421
75858W        W47441  42.916  44.330   4.649
75859W        W47442  12.327   2.638  12.797
75860W        W47443   8.005  26.994  14.496
75861W        W47444  17.087  42.033   1.356
75862W        W47445   1.516  12.255   4.025
75863W        W47446  14.341  18.511   3.538
75864W        W47447   9.788  43.985   3.204
75865W        W47448  42.213  17.987   2.332
75866W        W47449   2.132  27.710   0.896
75867W        W47450  13.652  10.185   0.393
75868W        W47451  30.565   6.828  11.095
75869W        W47452  13.727  20.485  12.405
75870W        W47453  33.976  32.806   2.164
75871W        W47454  33.844  30.035   4.805
75872W        W47455   0.284  39.642  10.943
75873W        W47456  16.800  43.939  11.127
75874W        W47457  15.213  41.821  13.017
75875W        W47458   1.342   3.227  12.569
75876W        W47459  30.261  41.962  12.487
75877W        W47460  10.670  26.963  11.121
75878W        W47461  18.347  23.018   2.267
75879W        W47462  32.035  37.494  11.581
75880W        W47463  10.505   4.738  11.050
75881W        W47464  13.704   5.909  13.515
75882W        W47465  37.087  24.461   2.139
75883W        W47466   1.748   1.910  13.605
75884W        W47467  18.638  30.934   3.197
75885W        W47468  38.403  23.016   1.551
75886W        W47469  27.653  16.078   3.664
75887W        W47470  36.826   9.839   1.128
75888W        W47471  26.719  40.095  10.983
75889W        W47472  44.366   8.721  10.902
75890W        W47473   2.288   4.891  10.845
75891W        W47474  30.124  29.810  11.560
75892W        W47475  32.485   0.169   3.337
75893W        W47476  29.468  25.249  10.681
75894W        W47477   8.697  39.024  11.143
75895W        W47478  42.988   4.355   2.104
75896W        W47479  23.584  28.481   2.700
75897W        W47480  12.702  12.054  10.593
75898W        W47481  42.047  24.952   2.660
75899W        W47482   0.460  26.517  14.804
75900W        W47483  32.490  44.413   0.887
75901W        W47484  42.210  43.449   1.448
75902W        W47485  19.863  34.625  13.765
75903W        W47486   6.832  43.687  11.960
75904W        W47487  35.707  32.557  11.962
75905W        W47488  20.637  13.118  13.454
75906W        W47489   9.059  21.600   4.671
75907W        W47490  38.276   8.668   3.264
75908W        W47491   6.269  33.415  11.960
75909W        W47492  14.369  34.507   1.228
75910W        W47493  36.108  41.921   1.883
75911W        W47494  26.694   3.405   4.334
75912W        W47495  42.136   4.315  14.486
75913W        W47496  23.463  19.093  13.382
75914W        W47497  34.250  27.631  11.322
75915W        W47498  21.823  43.953  12.606
75916W        W47499  13.411  36.922   2.383
75917W        W47500   2.852   9.568  10.736
75918W        W47501  17.097  43.328  14.806
75919W        W47502  37.042  41.357  10.621
75920W        W47503   7.245  42.883  13.583
75921W        W47504  44.468   0.730   1.040
75922W        W47505  15.057  23.746   0.212
75923W        W47506  29.347  24.593   1.653
75924W        W47507  15.005  40.354   1.410
75925W        W47508   7.487  24.613  14.044
75926W        W47509  37.812   2.226  13.437
75927W        W47510  13.904   0.230  13.038
75928W        W47511  21.526  32.914  14.285
75929W        W47512  43.115  26.696   4.048
75930W        W47513  22.680  44.262   3.614
75931W        W47514  25.179  11.163  11.977
75932W        W47515   7.919  13.119  12.838
75933W        W47516  24.537  10.353  13.804
75934W        W47517  30.936  27.266   4.317
75935W        W47518  29.112  11.623  13.098
75936W        W47519  13.358  11.862   3.688
75937W        W47520  35.398   1.879   1.883
75938W        W47521  23.633   5.444  12.900
75939W        W47522  32.168  22.837  14.096
75940W        W47523  13.262  18.987  14.545
75941W        W47524   4.713  31.901  14.409
75942W        W47525  21.203  41.513  12.055
75943W        W47526   5.468   8.301  14.273
75944W        W47527  29.431   0.971  12.797
75945W        W47528  25.991  41.901   1.443
75946W        W47529  30.698  37.276   3.666
75947W        W47530  40.062   8.615  11.868
75948W        W47531  32.378  41.365   0.787
75949W        W47532  26.515   0.209   0.379
75950W        W47533  22.594  12.664   2.627
75951W        W47534   3.861  41.785   2.241
75952W        W47535  25.770   5.751   3.277
75953W        W47536   1.405  20.515  12.171
75954W        W47537  43.366   8.869   4.231
75955W        W47538  11.683  34.351   3.748
75956W        W47539  15.769   8.314  13.446
75957W        W47540  43.253  44.753  13.864
75958W        W47541   7.262  25.979   1.695
75959W        W47542  38.080  40.485  11.103
75960W        W47543   0.960  31.542   2.218
75961W        W47544  27.538  20.115   4.976
75962W        W47545  43.827   5.680   3.766
75963W        W47546  24.572  22.223   1.266
75964W        W47547  26.666  16.136  13.998
75965W        W47548  44.965  20.740  12.529
75966W        W47549   2.996  14.397  12.411
75967W        W47550  17.033  15.184  11.980
75968W        W47551  12.309  28.590  12.639
75969W        W47552  39.544   9.749   4.929
75970W        W47553   5.177  19.928   3.693
75971W        W47554   4.678  40.864   2.880
75972W        W47555  22.169  24.902   3.330
75973W        W47556  21.651  30.091  11.862
75974W        W47557  27.547  15.676   0.686
75975W        W47558   6.351   5.513  11.717
75976W        W47559  36.997  11.842   0.447
75977W        W47560  43.565  10.142  12.959
75978W        W47561  28.421  30.478   0.799
75979W        W47562  15.789  43.295   4.687
75980W        W47563   0.068  13.835   0.807
75981W        W47564   5.870  18.318  12.593
75982W        W47565  16.184  10.879   2.645
75983W        W47566  17.827  36.148   0.344
75984W        W47567  20.629   9.644  12.438
75985W        W47568  10.819  24.647  12.620
75986W        W47569  14.190  27.473  12.051
75987W        W47570  13.879  40.154   3.423
75988W        W47571  30.431   8.201   5.058
75989W        W47572   2.708  18.038   0.318
75990W        W47573  14.107   0.493  13.451
75991W        W47574  24.945  33.657  13.896
75992W        W47575  39.859   6.239  11.199
75993W        W47576  21.500  39.362  10.678
75994W        W47577  18.344  17.329  13.579
75995W        W47578  15.602  34.382  10.260
75996W        W47579   8.510  39.078  14.325
75997W        W47580  40.214  35.448   2.514
75998W        W47581   8.907  37.908   5.002
75999W        W47582  17.069  12.397   1.279
76000W        W47583  20.660  44.300  10.610
76001W        W47584  40.850  18.151  11.628
76002W        W47585  23.712  10.223  11.062
76003W        W47586   6.721  20.099  10.644
76004W        W47587  14.529  44.017  10.779
76005W        W47588  42.711  37.098   3.567
76006W        W47589  43.960  24.499   4.667
76007W        W47590  25.643  40.520   2.372
76008W        W47591  31.469  44.278   4.936
76009W        W47592   0.966  38.591   0.217
76010W        W47593  28.064  42.516   0.799
76011W        W47594  17.153  18.919   0.238
76012W        W47595  39.496   5.066   0.419
76013W        W47596  41.825  16.494   4.103
76014W        W47597  32.820  26.502   3.859
76015W        W47598  20.060  10.105   5.546
76016W        W47599  35.821   2.477  12.264
76017W        W47600  40.721  28.089   3.791
76018W        W47601  15.216   8.374  14.549
76019W        W47602  21.706  11.400   0.029
76020W        W47603  33.379  30.345   2.222
76021W        W47604   5.478  34.018   3.946
76022W        W47605  43.589  34.532   4.341
76023W        W47606   1.559  32.531   2.423
76024W        W47607  12.169  43.958   0.412
76025W        W47608  20.960  33.660   4.082
76026W        W47609  42.965  33.362  11.171
76027W        W47610   2.240  11.826  13.028
76028W        W47611  37.881   6.584   2.087
76029W        W47612  31.398  11.087  13.955
76030W        W47613  33.321   3.451  10.398
76031W        W47614  41.563   3.294   1.706
76032W        W47615  38.959   3.182   2.315
76033W        W47616  27.552  26.052  13.365
76034W        W47617  25.750   9.800  12.969
76035W        W47618  30.882  41.436   1.720
76036W        W47619  22.475   8.251   5.006
76037W        W47620  42.265   9.618   1.309
76038W        W47621  40.339  24.683   1.734
76039W        W47622   4.940  24.640   0.920
76040W        W47623  44.976  19.827  12.815
76041W        W47624  11.616  41.293   2.271
76042W        W47625  30.602  19.792  11.661
76043W        W47626  24.155  33.988  11.222
76044W        W47627  33.812  42.925  12.541
76045W        W47628  39.987  11.900   1.431
76046W        W47629  43.286  38.828  13.507
76047W        W47630  10.731  28.173   3.672
76048W        W47631  25.654  15.090   1.231
76049W        W47632  31.984  35.440   4.634
76050W        W47633   0.716   2.406  13.923
76051W        W47634  22.567   8.644   1.046
76052W        W47635  29.473  27.164   0.924
76053W        W47636  16.671   7.433   3.945
76054W        W47637   5.596  17.529  14.386
76055W        W47638  18.463  28.747  11.560
76056W        W47639  36.966  30.571  14.000
76057W        W47640  10.550  44.265  14.585
76058W        W47641   1.265   0.715  11.203
76059W        W47642   7.760  15.207   3.127
76060W        W47643   5.370   0.917  13.794
76061W        W47644   8.189   7.458   2.231
76062W        W47645  23.169   3.059  14.438
76063W        W47646   5.845  32.167   1.180
76064W        W47647  14.292  12.299  13.726
76065W        W47648  37.913  12.453  13.052
76066W        W47649  28.372  26.945  12.748
76067W        W47650  39.852  14.064  10.963
76068W        W47651  31.197   0.541  11.984
76069W        W47652  42.828  38.325   2.087
76070W        W47653  33.269  37.480   1.804
76071W        W47654  16.594  20.575   0.371
76072W        W47655  36.244   9.748   0.604
76073W        W47656  44.020  25.733  10.755
76074W        W47657   1.993  34.906  11.647
76075W        W47658  37.503  27.377  14.957
76076W        W47659   5.810  13.099  12.955
76077W        W47660   3.648  19.226   4.291
76078W        W47661   2.059  19.338  12.442
76079W        W47662   7.296  20.808  14.733
76080W        W47663  17.812  11.299   1.863
76081W        W47664  16.120   9.136  10.770
76082W        W47665  42.153  36.656   3.040
76083W        W47666  12.815   7.436   4.491
76084W        W47667  27.423   1.463  13.519
76085W        W47668  31.092  12.422   2.212
76086W        W47669   1.949  25.715  11.782
76087W        W47670   4.334  38.732   0.152
76088W        W47671  24.601   4.468  14.937
76089W        W47672  35.328  34.150  13.541
76090W        W47673  40.571   4.945   3.693
76091W        W47674  34.382   2.387  12.220
76092W        W47675  23.226  19.171  11.699
76093W        W47676  11.048  20.724  11.185
76094W        W47677  44.891  31.340  12.066
76095W        W47678   8.579  31.505   4.571
76096W        W47679  27.724  25.667   0.425
76097W        W47680  41.340  41.889   2.691
76098W        W47681  29.866  28.545  11.547
76099W        W47682  41.897  39.575   1.012
76100W        W47683  28.174  11.763  12.676
76101W        W47684  17.262  23.921  12.016
76102W        W47685   1.402  26.053  12.177
76103W        W47686   4.684  15.311   1.199
76104W        W47687  29.014  30.402   2.158
76105W        W47688  36.008  12.788   0.476
76106W        W47689  14.364  35.472  14.775
76107W        W47690  37.553  27.637   4.184
76108W        W47691   1.974  27.958  12.543
76109W        W47692   2.210   2.661  10.540
76110W        W47693  35.820   5.782   2.398
76111W        W47694  14.023   2.283  11.934
76112W        W47695  40.006  14.308   3.690
76113W        W47696  19.282  26.056   3.723
76114W        W47697  23.650  27.141  13.920
76115W        W47698  26.101  14.542  13.394
76116W        W47699  20.631   5.562  12.373
76117W        W47700  30.354  11.217   3.230
76118W        W47701  44.610  20.301  14.842
76119W        W47702  44.053  10.218   3.680
76120W        W47703  20.064  39.284   1.315
76121W        W47704   0.659  31.172  12.563
76122W        W47705  26.708  12.226  12.513
76123W        W47706  12.282  30.985   3.189
76124W        W47707  33.894  24.254   2.764
76125W        W47708  18.105   9.720   3.192
76126W        W47709  20.732  18.196  13.487
76127W        W47710  15.755  16.053   1.541
76128W        W47711  36.954  16.296  13.937
76129W        W47712   5.695   8.370  12.421
76130W        W47713   3.000  17.988  11.603
76131W        W47714   3.362  21.098   0.463
76132W        W47715   4.225  34.575   2.684
76133W        W47716  24.154   7.799  13.319
76134W        W47717   6.665  32.943  11.541
76135W        W47718  31.919  13.879  13.143
76136W        W47719  39.344  28.714  11.672
76137W        W47720  20.199  39.927  13.897
76138W        W47721  32.829   8.177   1.830
76139W        W47722   9.936  24.308   1.404
76140W        W47723   7.874  37.541  14.084
76141W        W47724  28.707  28.560  14.802
76142W        W47725   7.638  24.476  11.464
76143W        W47726  39.314  16.792   1.368
76144W        W47727  37.313  39.500   3.268
76145W        W47728  15.799   1.750  14.301
76146W        W47729   8.880  21.452   2.853
76147W        W47730  36.005  44.826  13.432
76148W        W47731   9.702   1.150   0.998
76149W        W47732  40.586  22.848   4.312
76150W        W47733  44.834   0.728  14.409
76151W        W47734  38.949   3.984   0.532
76152W        W47735  23.073  44.904  14.325
76153W        W47736  30.653  18.351  14.987
76154W        W47737  40.359  35.354   3.495
76155W        W47738  29.658   9.500   2.436
76156W        W47739  22.623  36.096   3.101
76157W        W47740  30.980   3.970  12.177
76158W        W47741  26.035  30.552  13.734
76159W        W47742  41.376  32.819  13.446
76160W        W47743  41.462  22.553   1.708
76161W        W47744   1.770  41.070  12.615
76162W        W47745  32.994   3.977  13.446
76163W        W47746  40.281  37.387  10.763
76164W        W47747   4.438  21.508  14.347
76165W        W47748   8.194  41.865  12.564
76166W        W47749   1.350  34.106   0.462
76167W        W47750  21.636  27.448  14.807
76168W        W47751  25.617  35.496  13.863
76169W        W47752  17.074  28.161  13.433
76170W        W47753   3.710  11.630  14.825
76171W        W47754  13.694   8.803  14.021
76172W        W47755  14.638  16.540   1.802
76173W        W47756  11.825   5.250   3.723
76174W        W47757   8.499  21.161   4.492
76175W        W47758  15.886  41.430  14.293
76176W        W47759  32.074  29.333   2.649
76177W        W47760   4.700  12.362  14.039
76178W        W47761  18.805   1.430  13.390
76179W        W47762   8.159  15.162  11.953
76180W        W47763   5.345   2.548   1.816
76181W        W47764   9.025   0.030   0.417
76182W        W47765  15.883  11.041  10.678
76183W        W47766  12.833  28.212  12.007
76184W        W47767  11.834  38.558  12.003
76185W        W47768   8.717  21.587  12.454
76186W        W47769  30.169  13.960  11.292
76187W        W47770  13.047  13.424   5.098
76188W        W47771  10.288   6.628  11.991
76189W        W47772  32.489  13.809   1.054
76190W        W47773  26.570  15.645  11.961
76191W        W47774  41.376   5.495   2.872
76192W        W47775  29.701  35.582   2.639
76193W        W47776  29.357  26.046  12.704
76194W        W47777  25.257  41.210  14.779
76195W        W47778  20.775  24.913  12.458
76196W        W47779  10.752  10.199  13.650
76197W        W47780  26.212  10.190   1.241
76198W        W47781  10.845  20.638  14.531
76199W        W47782   7.789   7.186  12.379
76200W        W47783  26.864  32.642  14.124
76201W        W47784   7.076  42.321  11.971
76202W        W47785  20.181   1.998  14.303
76203W        W47786  26.981  36.435  14.741
76204W        W47787  20.445  41.824   4.479
76205W        W47788   0.966  28.453   3.125
76206W        W47789   6.811  12.063  13.956
76207W        W47790   8.075  30.608   5.136
76208W        W47791   6.358  19.303   4.626
76209W        W47792  44.304  14.626  14.297
76210W        W47793   1.996  30.789  10.550
76211W        W47794  11.628   0.540  12.477
76212W        W47795  32.686   2.439  12.500
76213W        W47796  23.907  12.312  10.700
76214W        W47797   0.076  19.907  11.038
76215W        W47798  11.039  36.403   4.560
76216W        W47799   7.134   8.108   1.114
76217W        W47800  26.536   5.695  13.949
76218W        W47801   0.490  17.012   4.710
76219W        W47802  26.833  42.456   4.688
76220W        W47803   5.912   1.984   0.608
76221W        W47804   1.028  25.604  14.538
76222W        W47805   7.872  31.275  14.849
76223W        W47806  18.856   0.510   0.865
76224W        W47807  42.775  41.812   2.612
76225W        W47808   8.439  12.877   4.293
76226W        W47809  13.330  12.365   3.748
76227W        W47810   5.892   0.428   4.734
76228W        W47811  26.473  33.007   2.695
76229W        W47812  27.509  41.832   4.904
76230W        W47813   8.816   4.828  10.389
76231W        W47814  29.479  34.098   3.000
76232W        W47815  23.991  30.391   3.726
76233W        W47816  37.074   1.852  10.917
76234W        W47817   0.330   8.616   0.917
76235W        W47818  40.698  40.123   4.136
76236W        W47819   3.333  34.525  14.899
76237W        W47820  11.204  35.920   1.910
76238W        W47821  29.506  19.067  12.868
76239W        W47822   0.618   1.288   3.974
76240W        W47823  22.171  19.268  12.522
76241W        W47824   2.801   8.171  14.280
76242W        W47825  33.141  40.371   0.430
76243W        W47826  18.594  24.590  11.292
76244W        W47827  23.991  20.777   0.596
76245W        W47828  10.835  43.202   0.401
76246W        W47829   9.025  14.227  11.675
76247W        W47830  42.063  44.913  12.944
76248W        W47831  13.798  31.533  12.165
76249W        W47832  24.906  24.487   2.334
76250W        W47833  33.045  43.538  10.666
76251W        W47834  32.838  11.708   2.449
76252W        W47835  39.492  26.217   1.000
76253W        W47836  31.609  17.991  14.691
76254W        W47837  14.521  35.801   4.255
76255W        W47838  14.103   0.291   2.777
76256W        W47839  23.930   5.963  10.595
76257W        W47840  38.588  14.727  12.785
76258W        W47841  15.182  29.675  12.460
76259W        W47842  41.763   6.551   3.785
76260W        W47843  13.322  23.122  10.488
76261W        W47844  29.962  26.537   2.220
76262W        W47845  38.548   4.414  13.574
76263W        W47846  33.356  12.370  14.951
76264W        W47847  17.726  37.774  14.878
76265W        W47848  21.610   1.675  14.363
76266W        W47849   0.298  16.273  13.465
76267W        W47850  12.964  15.047   1.708
76268W        W47851  20.268  26.657  11.142
76269W        W47852  43.310  31.661   1.862
76270W        W47853  18.656  31.539   1.878
76271W        W47854  33.629   4.204  10.767
76272W        W47855  14.514  40.927   1.456
76273W        W47856  31.488  41.892   3.685
76274W        W47857  21.795   4.644  11.420
76275W        W47858  13.100  42.923   3.966
76276W        W47859  10.462  32.760   1.851
76277W        W47860   2.761  40.225  12.830
76278W        W47861  35.029   4.269  12.933
76279W        W47862   1.292  23.990   4.279
76280W        W47863  30.568  29.136   3.137
76281W        W47864   6.061  38.458  12.488
76282W        W47865  34.097  34.484   0.930
76283W        W47866  36.520   8.963  10.405
76284W        W47867  42.632  20.995  11.541
76285W        W47868  15.097  33.867  13.019
76286W        W47869  35.837  14.754  12.453
76287W        W47870   2.141  34.581   4.385
76288W        W47871   8.331  14.190   3.489
76289W        W47872   9.170  44.507   2.264
76290W        W47873  10.267  38.460  11.166
76291W        W47874  29.109  23.502  13.439
76292W        W47875  10.884  14.806  14.428
76293W        W47876  30.444  30.983  12.848
76294W        W47877   6.473  12.134   2.878
76295W        W47878  41.108  12.341   3.838
76296W        W47879  10.017  19.286  11.218
76297W        W47880  19.085  40.576  12.379
76298W        W47881  22.980  30.458  12.056
76299W        W47882  24.252  25.050   0.261
76300W        W47883  38.426  18.566   0.516
76301W        W47884  36.903  42.983  12.655
76302W        W47885  22.237  35.947  11.102
76303W        W47886   5.927  26.092   3.630
76304W        W47887   3.725  40.184   0.656
76305W        W47888   9.229  11.464  11.255
76306W        W47889   8.364  32.822  11.543
76307W        W47890  20.604  18.719   4.290
76308W        W47891   1.840  27.466   4.327
76309W        W47892  23.253  21.636   1.288
76310W        W47893  29.677  14.727  11.820
76311W        W47894  30.144  31.499   0.534
76312W        W47895  41.779  42.722  10.137
76313W        W47896   3.003   9.222  12.882
76314W        W47897  17.112  39.624  11.441
76315W        W47898  39.628  14.658   2.249
76316W        W47899   8.243  43.960  14.248
76317W        W47900  38.272  29.383   3.231
76318W        W47901   0.423  41.610   4.287
76319W        W47902  41.793  25.022  12.547
76320W        W47903  44.608  13.663  13.445
76321W        W47904  41.221  24.736  14.986
76322W        W47905  23.195  37.172  14.834
76323W        W47906  10.977   0.901   3.284
76324W        W47907  16.839   6.928   0.495
76325W        W47908  32.993  21.075  10.891
76326W        W47909  29.674  27.609  11.196
76327W        W47910   2.475  39.960  14.172
76328W        W47911  18.204  40.910   1.352
76329W        W47912  30.605   2.242   3.217
76330W        W47913  21.983  42.486  10.477
76331W        W47914  43.786  11.678  12.641
76332W        W47915  29.001  38.796   0.469
76333W        W47916  37.149  13.350   1.908
76334W        W47917   1.366  28.684   2.173
76335W        W47918  21.158   5.255  12.187
76336W        W47919  44.065  13.899   3.287
76337W        W47920  40.534  33.564   2.599
76338W        W47921   3.652  31.566  12.401
76339W        W47922  13.996  17.130   0.963
76340W        W47923  37.847  17.064  12.581
76341W        W47924  32.409  12.683  12.618
76342W        W47925  13.405  16.046   0.352
76343W        W47926  14.570  10.176  13.260
76344W        W47927  36.069  11.282  12.545
76345W        W47928   7.790  27.124  12.518
76346W        W47929  10.662  38.760  12.459
76347W        W47930   3.714  17.465   0.846
76348W        W47931  31.135  25.044  14.501
76349W        W47932  41.546  40.503  12.870
76350W        W47933  27.867  12.188   1.416
76351W        W47934  44.389  15.853  11.710
76352W        W47935  38.957  10.516   0.746
76353W        W47936  44.439  18.734   0.406
76354W        W47937  37.007  25.190  14.198
76355W        W47938   5.345  25.479  12.047
76356W        W47939  31.929  33.596   0.915
76357W        W47940   1.957  39.930  14.371
76358W        W47941  25.957  41.847  11.572
76359W        W47942  33.373  15.010   2.755
76360W        W47943  10.691  14.057   1.482
76361W        W47944  22.689  25.707   1.655
76362W        W47945  26.721  26.209  11.588
76363W        W47946  14.803  11.137  10.566
76364W        W47947  10.882  17.196   2.284
76365W        W47948  32.792  34.947   4.103
76366W        W47949   0.361  13.670   1.443
76367W        W47950  10.281  29.108   0.929
76368W        W47951  41.997  16.701   0.190
76369W        W47952  18.742  38.005   3.912
76370W        W47953   4.189  21.094  12.563
76371W        W47954   6.499  15.337  13.890
76372W        W47955  28.518  41.512  13.013
76373W        W47956  23.153  14.331   4.093
76374W        W47957  31.395  40.868   1.235
76375W        W47958  36.343  27.153  13.787
76376W        W47959   5.961   2.511  13.473
76377W        W47960  44.222   1.740  11.950
76378W        W47961  30.587  25.100   4.698
76379W        W47962  34.368   1.051  12.015
76380W        W47963   4.128  44.574   2.929
76381W        W47964   8.457   3.300   4.039
76382W        W47965   9.591  33.592  12.354
76383W        W47966  11.427   8.355   3.597
76384W        W47967  18.309  39.799   0.180
76385W        W47968  30.916  32.541   2.625
76386W        W47969   3.751   7.374  12.985
76387W        W47970  33.061  11.369  11.897
76388W        W47971   3.102  21.486  14.741
76389W        W47972   2.909  44.174   0.769
76390W        W47973  43.356  28.143   0.879
76391W        W47974   1.035  14.642  13.515
76392W        W47975  23.567  26.456   1.809
76393W        W47976  20.553  32.373  11.496
76394W        W47977   3.919  33.482   3.708
76395W        W47978  41.848  40.002   0.465
76396W        W47979  26.170  37.884   3.211
76397W        W47980  16.562  29.471  11.457
76398W        W47981  39.242  32.393  12.475
76399W        W47982  17.174  36.323   3.126
76400W        W47983  12.455  12.281   3.641
76401W        W47984  38.956   3.948   1.409
76402W        W47985  21.882   5.659  11.517
76403W        W47986  25.594  16.617  12.818
76404W        W47987  36.333  38.850  14.926
76405W        W47988  28.500  44.555   2.207
76406W        W47989   3.809  21.409   1.754
76407W        W47990   8.669  22.615  14.415
76408W        W47991  32.134  40.963  14.136
76409W        W47992  33.690  13.416  13.766
76410W        W47993  33.466  32.313   1.530
76411W        W47994  23.148  38.979   2.202
76412W        W47995  35.311  32.332   1.765
76413W        W47996  21.171  38.971   2.396
76414W        W47997  33.174  26.572  12.600
76415W        W47998   7.375  34.444   1.364
76416W        W47999  41.010  19.121   2.512
76417W        W48000  21.476  24.117   0.837
76418W        W48001  32.349  21.127  14.431
76419W        W48002   1.887  32.016   3.284
76420W        W48003  33.494  34.813   2.757
76421W        W48004   6.670   3.063  10.237
76422W        W48005  33.034  35.648  13.439
76423W        W48006  35.046  12.214  13.450
76424W        W48007  29.211   0.247   3.704
76425W        W48008  41.853  27.138   2.642
76426W        W48009   9.647  44.321   3.874
76427W        W48010   3.728   2.425   0.218
76428W        W48011  37.500  20.018  14.475
76429W        W48012  39.550  17.856   3.296
76430W        W48013  26.092  39.480   1.659
76431W        W48014  29.904  44.299  12.575
76432W        W48015   8.357  25.955  13.870
76433W        W48016  40.929  20.784  12.270
76434W        W48017  26.424  30.620   1.854
76435W        W48018   2.536  41.464   3.777
76436W        W48019   9.303  12.778  13.906
76437W        W48020   3.794  14.282   1.028
76438W        W48021  35.033  30.601  13.013
76439W        W48022  38.794   8.370   0.776
76440W        W48023  25.085  19.707  10.782
76441W        W48024  32.014  43.760   1.821
76442W        W48025   3.192   7.334  10.710
76443W        W48026  42.984  31.597  11.697
76444W        W48027  32.653  19.392  13.970
76445W        W48028   0.295  30.120  12.001
76446W        W48029  16.178  37.505   0.832
76447W        W48030  21.609   5.936   2.760
76448W        W48031  15.872   7.665  14.526
76449W        W48032  42.999  10.190   2.708
76450W        W48033  17.082  31.419  14.815
76451W        W48034  13.249  13.307   0.882
76452W        W48035   8.610  21.949   0.726
76453W        W48036  35.416  16.609  14.813
76454W        W48037  19.283  30.264   5.452
76455W        W48038   0.711   2.293  12.534
76456W        W48039  41.350   8.913   3.745
76457W        W48040   1.475  19.631  12.042
76458W        W48041  22.829  23.583  11.218
76459W        W48042  13.050   2.468  11.700
76460W        W48043  18.315  29.587  13.055
76461W        W48044  14.652  40.378  13.600
76462W        W48045  10.949   6.807   0.671
76463W        W48046  35.266  26.185  12.096
76464W        W48047  22.110  36.035   3.199
76465W        W48048  10.552  30.163   2.888
76466W        W48049   9.643  23.973  10.854
76467W        W48050  22.605   2.241  12.005
76468W        W48051  13.640  39.126   3.045
76469W        W48052  12.276  37.400  10.967
76470W        W48053  30.554  40.676  14.989
76471W        W48054  27.029  37.883  12.150
76472W        W48055  42.006  15.616  11.188
76473W        W48056  12.279  26.278   4.806
76474W        W48057  15.078  12.054   2.438
76475W        W48058  15.361  35.656  11.524
76476W        W48059  22.673   3.035  11.624
76477W        W48060  37.286   1.419  13.447
76478W        W48061  38.164  13.392  14.746
76479W        W48062  42.299  28.637  13.403
76480W        W48063  10.933   4.246  13.890
76481W        W48064  42.438  26.824  14.421
76482W        W48065  42.304  30.303   4.645
76483W        W48066  19.217  32.373  14.192
76484W        W48067  20.529   5.866   1.837
76485W        W48068   0.543  17.533   4.762
76486W        W48069  19.783  15.779   2.136
76487W        W48070  25.587  23.409  10.951
76488W        W48071  26.728  33.995  13.780
76489W        W48072  18.139  15.667   2.596
76490W        W48073  30.195  30.553   0.010
76491W        W48074  12.045  15.828  11.008
76492W        W48075  26.677  33.875   2.173
76493W        W48076  31.011   9.280   2.929
76494W        W48077  33.625  36.688   2.519
76495W        W48078  11.068   8.002   3.626
76496W        W48079  16.176  24.586  13.881
76497W        W48080  18.200  12.764   4.881
76498W        W48081  28.764  21.808   3.533
76499W        W48082  28.113  31.074   2.696
76500W        W48083  37.039  20.750  12.287
76501W        W48084  19.116  36.048   2.093
76502W        W48085  16.062  10.914   1.811
76503W        W48086  27.987  34.406   4.573
76504W        W48087  20.172   1.828   3.250
76505W        W48088  34.450  14.146  13.750
76506W        W48089  27.898  19.767   0.016
76507W        W48090   1.786  17.856   0.675
76508W        W48091  19.884  26.860   4.651
76509W        W48092  35.570   0.807   2.625
76510W        W48093  33.605  33.312   3.702
76511W        W48094   6.907  23.104  14.232
76512W        W48095  35.645   8.272  11.681
76513W        W48096   7.592  12.363  14.405
76514W        W48097  19.819  24.454  10.639
76515W        W48098  18.471   6.084   3.077
76516W        W48099  29.017  25.981   4.531
76517W        W48100  22.255   0.718  14.789
76518W        W48101  33.671  42.550   0.705
76519W        W48102  36.779   1.560  12.416
76520W        W48103   0.439  42.484   3.834
76521W        W48104  26.313  38.385  14.752
76522W        W48105  10.817  26.170  12.571
76523W        W48106  43.751  35.068   1.835
76524W        W48107  24.193  15.738  10.067
76525W        W48108  34.218   3.736  13.951
76526W        W48109  23.632  38.241   0.722
76527W        W48110  27.773  20.241  11.033
76528W        W48111   5.706  35.609  14.346
76529W        W48112  18.580  22.809  13.939
76530W        W48113  32.194  22.170   4.563
76531W        W48114  37.574  19.690   4.584
76532W        W48115  30.479  18.393   2.561
76533W        W48116  25.541   9.317  13.094
76534W        W48117   1.704  38.464   1.667
76535W        W48118  20.819   0.682  14.501
76536W        W48119   2.049  11.815  14.438
76537W        W48120  38.117  33.502  13.463
76538W        W48121  22.255   4.489  11.988
76539W        W48122  12.404  12.379   2.283
76540W        W48123   8.221  39.772  14.926
76541W        W48124   9.141  31.554  12.892
76542W        W48125  17.667   5.169  12.904
76543W        W48126  24.428  33.402   0.067
76544W        W48127  36.957  14.584  11.136
76545W        W48128  21.796  36.080  13.975
76546W        W48129   7.294  11.633   1.237
76547W        W48130  16.615  31.012  11.369
76548W        W48131  27.004  27.014   4.589
76549W        W48132  29.640  26.394  12.455
76550W        W48133  21.119  18.829  11.644
76551W        W48134  29.331   5.299  13.099
76552W        W48135  26.205  24.116   1.749
76553W        W48136  29.147  28.293   1.646
76554W        W48137  37.811  30.673  13.055
76555W        W48138   1.954   8.692   2.820
76556W        W48139  33.924  22.073   0.796
76557W        W48140   9.145   0.893   2.710
76558W        W48141  35.030  13.811  10.659
76559W        W48142   2.197   8.599  11.956
76560W        W48143  28.459   6.871  14.496
76561W        W48144  18.358  33.488  12.890
76562W        W48145  20.536  35.424  10.522
76563W        W48146  21.659  39.328  14.334
76564W        W48147  29.238  41.325  12.055
76565W        W48148  39.370  36.584   0.812
76566W        W48149  44.437   3.946  10.666
76567W        W48150  35.791  16.705  14.427
76568W        W48151  34.873   6.884   4.693
76569W        W48152   7.976  41.445  13.532
76570W        W48153  20.063  42.102  10.614
76571W        W48154  13.459   4.687  13.162
76572W        W48155  11.405  22.104  12.927
76573W        W48156  18.590  35.182  10.087
76574W        W48157  12.283  41.373  11.545
76575W        W48158  32.273   5.187  10.251
76576W        W48159  15.619   9.470  14.291
76577W        W48160  24.626  23.682   4.185
76578W        W48161  12.059   1.262  12.402
76579W        W48162  37.837   3.361  11.571
76580W        W48163  39.629  13.861   1.400
76581W        W48164  38.894  37.559  10.514
76582W        W48165  43.343  36.010  12.054
76583W        W48166   7.249  39.184  11.023
76584W        W48167  28.235   0.470  12.995
76585W        W48168  34.551  25.644   0.992
76586W        W48169  44.074   4.545   1.184
76587W        W48170  25.798  26.992   3.626
76588W        W48171  43.837   1.520  12.348
76589W        W48172   6.638  27.685  10.851
76590W        W48173  29.443  34.062   4.334
76591W        W48174   0.294  42.356  11.156
76592W        W48175  35.523   9.382  14.389
76593W        W48176  24.414  28.822  10.406
76594W        W48177  15.833  19.825  10.630
76595W        W48178  28.387  10.715   0.406
76596W        W48179  16.438  16.220  10.881
76597W        W48180  23.581   0.007  14.370
76598W        W48181   0.776  24.024  12.849
76599W        W48182  20.141  23.751   3.226
76600W        W48183  39.588  11.656   4.054
76601W        W48184   9.738   2.091   0.632
76602W        W48185   0.414   9.400  10.522
76603W        W48186  41.428  31.081   3.700
76604W        W48187  42.604  17.618  11.253
76605W        W48188   8.141   4.375   0.839
76606W        W48189  34.889  30.556  10.214
76607W        W48190  10.387   6.164  14.467
76608W        W48191   3.767  38.484  12.258
76609W        W48192  38.853  37.171  14.851
76610W        W48193  38.614  20.492  11.054
76611W        W48194   9.185  34.686   1.706
76612W        W48195   1.564   4.728  11.650
76613W        W48196  32.633  36.498  14.903
76614W        W48197  10.185  34.396  11.279
76615W        W48198   8.117  37.781   2.932
76616W        W48199  14.697  29.039   4.381
76617W        W48200  43.756  31.922  14.469
76618W        W48201  36.243  39.017  14.453
76619W        W48202   9.523  23.611   0.738
76620W        W48203  25.235   9.694  13.900
76621W        W48204  30.634  26.408   3.628
76622W        W48205   2.909  19.985  11.771
76623W        W48206  14.054  42.924  10.746
76624W        W48207  24.546  36.141  14.738
76625W        W48208  43.445   6.334   4.265
76626W        W48209  27.884  40.258   4.083
76627W        W48210  15.252  41.340  11.675
76628W        W48211  42.678  17.640   1.470
76629W        W48212  13.255  20.033  13.050
76630W        W48213  41.008   8.869   0.365
76631W        W48214  18.151  25.360  12.790
76632W        W48215  23.004  37.971   3.703
76633W        W48216  23.027  42.368   2.529
76634W        W48217   8.347  10.744  14.863
76635W        W48218  29.554  10.736   3.335
76636W        W48219  37.823   7.182   3.346
76637W        W48220   0.505  10.546   2.000
76638W        W48221  30.366  43.864   1.434
76639W        W48222   8.861  36.413  12.453
76640W        W48223   6.726  23.130  13.760
76641W        W48224  14.094  11.373  14.490
76642W        W48225  21.131  22.988   4.094
76643W        W48226  39.398  38.421  13.776
76644W        W48227  19.621  18.509   1.697
76645W        W48228   9.432   1.373   1.987
76646W        W48229   0.237   6.701   4.080
76647W        W48230  30.568  31.037  11.468
76648W        W48231   6.818  12.656   3.678
76649W        W48232  18.627  14.718  11.474
76650W        W48233  44.452  29.531  14.945
76651W        W48234   3.383  38.882  10.234
76652W        W48235  37.179  44.391  11.530
76653W        W48236  14.764  33.933  11.102
76654W        W48237   5.705  22.738  11.998
76655W        W48238   3.808  21.604   3.738
76656W        W48239   7.018  12.344   0.890
76657W        W48240   7.855   3.086   2.389
76658W        W48241  15.143  26.419  14.105
76659W        W48242   8.416   5.030   1.217
76660W        W48243  41.797  30.204   4.661
76661W        W48244   7.114  26.545  13.460
76662W        W48245  40.460  34.087   4.923
76663W        W48246   4.860  18.059  12.586
76664W        W48247   5.530  33.340  14.617
76665W        W48248  19.724  26.274   3.511
76666W        W48249  10.699  41.741   4.152
76667W        W48250  36.522   5.462   4.002
76668W        W48251  17.867  29.098  11.587
76669W        W48252   0.442   6.356  13.533
76670W        W48253   1.040  38.858  11.020
76671W        W48254   1.691  23.636  13.509
76672W        W48255  10.807  29.944  11.180
76673W        W48256  38.536  24.122  11.452
76674W        W48257  27.922  43.679  13.869
76675W        W48258  35.356  27.013  10.728
76676W        W48259  26.514  40.029   1.951
76677W        W48260  43.247  10.722  14.331
76678W        W48261   0.324  22.945   4.148
76679W        W48262  33.678  33.655   1.842
76680W        W48263   2.179  19.153  10.359
76681W        W48264   6.671   9.603  11.128
76682W        W48265   0.056   6.804  14.337
76683W        W48266  14.771  18.473   4.215
76684W        W48267  43.440  24.679   3.299
76685W        W48268  14.724  32.638  14.431
76686W        W48269  23.543  40.094  11.673
76687W        W48270  42.242  34.923  14.346
76688W        W48271  44.925   4.140  10.623
76689W        W48272  32.869  43.516  13.878
76690W        W48273   5.267  12.689   0.080
76691W        W48274  11.265  39.055  10.742
76692W        W48275  15.492  33.887   4.624
76693W        W48276  34.570  17.236  13.526
76694W        W48277  37.817  43.874   4.170
76695W        W48278  11.644  31.040   3.833
76696W        W48279  36.114  34.044  11.544
76697W        W48280  34.010  19.672   1.363
76698W        W48281   1.262  38.397   9.742
76699W        W48282   8.560  27.691  14.602
76700W        W48283  12.168  32.922  13.526
76701W        W48284  17.177  29.534   4.627
76702W        W48285  33.624  34.519  10.816
76703W        W48286  13.962  10.153   2.862
76704W        W48287  19.468  26.028  10.801
76705W        W48288  34.038  38.931  11.556
76706W        W48289   0.426  24.933   0.865
76707W        W48290   3.425  20.041   3.415
76708W        W48291  20.897  41.235  11.714
76709W        W48292  13.414  36.201   1.727
76710W        W48293   4.678   0.329   1.745
76711W        W48294  14.604  42.371   0.845
76712W        W48295  39.086   1.727  13.809
76713W        W48296  21.545  16.167   9.784
76714W        W48297   4.263  13.419   1.241
76715W        W48298  37.053  27.005   0.440
76716W        W48299  44.199   5.656   4.280
76717W        W48300  41.196  40.746   1.373
76718W        W48301   8.849   9.988  10.574
76719W        W48302  39.323   4.700  11.976
76720W        W48303   4.223  26.536   0.324
76721W        W48304  21.145  28.674  13.081
76722W        W48305  39.347  40.078   4.586
76723W        W48306  37.449  37.853  14.458
76724W        W48307  20.466  39.985  12.072
76725W        W48308  17.807   3.276  14.153
76726W        W48309  42.340   9.388   3.165
76727W        W48310  28.057  23.690  10.976
76728W        W48311  29.918   5.403  11.937
76729W        W48312  38.553  33.276  14.993
76730W        W48313  21.240  41.741   4.085
76731W        W48314  29.574  36.378  11.743
76732W        W48315   1.859   1.246   2.575
76733W        W48316  23.048  30.240   5.488
76734W        W48317   2.999  20.232   4.296
76735W        W48318   0.710  32.959   4.850
76736W        W48319  29.031  29.036   3.305
76737W        W48320  24.092  25.526   0.456
76738W        W48321  43.972  10.878   4.391
76739W        W48322  15.581  37.077  11.664
76740W        W48323  24.581  37.610   3.304
76741W        W48324  13.150  41.561  14.271
76742W        W48325  30.413  42.863   2.206
76743W        W48326  13.263  18.872   3.341
76744W        W48327  29.403  25.801  14.323
76745W        W48328  15.958  42.357  12.934
76746W        W48329  42.327  15.808   4.141
76747W        W48330  24.622  39.394  11.062
76748W        W48331  21.289   0.397   4.909
76749W        W48332  18.610  36.461   0.451
76750W        W48333  43.363  33.624   1.320
76751W        W48334  40.090   4.326  14.391
76752W        W48335   2.682  31.840   3.624
76753W        W48336  22.168  18.961   9.844
76754W        W48337   2.103  29.710  13.064
76755W        W48338  25.453   7.578  10.677
76756W        W48339  44.759  10.324   4.761
76757W        W48340  25.525  23.599  14.832
76758W        W48341  33.368  11.779  12.058
76759W        W48342  37.586  13.601  12.875
76760W        W48343  11.167   0.557  12.765
76761W        W48344  17.566  41.918  10.703
76762W        W48345   7.349   5.705  12.523
76763W        W48346  32.062  15.544  11.578
76764W        W48347  44.858  26.991   0.237
76765W        W48348  13.011  26.041  12.990
76766W        W48349   6.941  39.317   4.624
76767W        W48350  33.089  26.454  14.449
76768W        W48351  20.861  13.425  12.070
76769W        W48352  23.070  14.932  13.602
76770W        W48353  23.070   4.230  11.475
76771W        W48354  18.979  14.809   0.432
76772W        W48355  15.352   1.944  14.497
76773W        W48356  42.606  33.150  12.466
76774W        W48357  36.743  14.297   0.319
76775W        W48358  27.466  25.133  14.135
76776W        W48359  12.197  12.394  12.899
76777W        W48360  10.272  18.709  13.904
76778W        W48361   2.670  14.579  10.941
76779W        W48362  13.529   5.346  12.405
76780W        W48363  18.318  33.882  14.720
76781W        W48364   2.283  23.601  14.368
76782W        W48365  11.981   6.960  14.156
76783W        W48366  20.983  35.194   0.832
76784W        W48367  30.010  10.749   3.100
76785W        W48368  29.952   5.969   1.360
76786W        W48369  33.487   7.242  14.642
76787W        W48370   0.578  15.197   4.508
76788W        W48371  13.797   1.004   4.583
76789W        W48372   3.468  28.441  13.960
76790W        W48373  44.905  40.528  13.042
76791W        W48374  29.937  31.977  14.715
76792W        W48375  24.668  12.192  12.109
76793W        W48376  32.533  10.548   2.070
76794W        W48377  25.449  31.390  13.797
76795W        W48378  39.997  42.058  13.994
76796W        W48379  21.163  26.440   3.198
76797W        W48380   4.344  16.595   2.182
76798W        W48381   8.335  16.729  11.098
76799W        W48382  33.745  42.770   1.188
76800W        W48383  38.819  13.812  14.319
76801W        W48384   2.929   6.381  10.737
76802W        W48385   1.329  16.957   3.431
76803W        W48386  12.067  30.170  11.273
76804W        W48387  15.745  34.818   4.168
76805W        W48388  11.888   4.199   0.946
76806W        W48389  21.081  40.739   4.266
76807W        W48390  43.099  42.115   0.334
76808W        W48391  25.084  21.610  12.513
76809W        W48392   6.436  19.946  13.183
76810W        W48393   9.108  36.869  13.954
76811W        W48394  20.506  35.541  14.242
76812W        W48395   3.982  12.791  11.906
76813W        W48396   4.551  40.452  10.374
76814W        W48397  10.768  17.613   3.306
76815W        W48398   3.224  37.676   3.196
76816W        W48399  25.758  39.882  11.645
76817W        W48400  21.571  11.935   4.242
76818W        W48401  42.551  32.090  10.907
76819W        W48402  11.386  21.040   3.590
76820W        W48403  37.824  33.331  11.068
76821W        W48404  42.291  28.960   4.636
76822W        W48405  27.928  32.541  12.484
76823W        W48406  31.633   5.387  13.498
76824W        W48407  10.041  14.212  11.457
76825W        W48408  36.188  13.816  13.415
76826W        W48409   2.682  13.871   3.217
76827W        W48410  15.668  22.127  12.824
76828W        W48411  17.742  19.563   2.274
76829W        W48412   3.942   5.856   3.985
76830W        W48413   6.231   4.518  11.591
76831W        W48414  23.630  27.676   3.748
76832W        W48415   0.883  23.562  13.066
76833W        W48416  20.061  24.967   3.738
76834W        W48417  37.998  11.834  10.978
76835W        W48418  30.931  12.641  14.358
76836W        W48419   9.595  32.365   2.256
76837W        W48420  32.403  17.000   3.387
76838W        W48421  37.381   7.776   0.942
76839W        W48422  10.149  38.832  13.571
76840W        W48423   4.131   3.755   4.892
76841W        W48424   8.311  36.409  13.545
76842W        W48425   6.451  13.631   1.883
76843W        W48426  35.081  16.724  11.148
76844W        W48427  32.026  43.411   1.153
76845W        W48428  34.340  24.462   0.394
76846W        W48429   4.419  23.098   0.488
76847W        W48430  26.978  13.028   4.975
76848W        W48431  39.504   9.624   2.262
76849W        W48432  21.188  37.020   1.445
76850W        W48433  35.158   9.763   3.259
76851W        W48434  44.847   8.211   3.130
76852W        W48435  44.312  14.608  14.799
76853W        W48436  42.473  20.728   3.140
76854W        W48437  42.487  33.113   0.410
76855W        W48438  13.419  31.200  12.020
76856W        W48439  23.867  13.954  14.522
76857W        W48440  22.278  29.475   3.200
76858W        W48441   4.753  19.232   2.398
76859W        W48442  40.503  26.722   1.722
76860W        W48443  15.645  36.786  12.091
76861W        W48444  42.692  37.566  12.695
76862W        W48445  32.880   5.159   1.786
76863W        W48446  23.932  30.629  10.426
76864W        W48447  17.235  44.463  11.487
76865W        W48448  15.161   0.014   2.243
76866W        W48449   1.590   1.760   2.346
76867W        W48450  44.553   4.705  13.917
76868W        W48451   4.718  11.823   0.811
76869W        W48452  20.337  16.567   5.464
76870W        W48453  10.259  41.991   3.964
76871W        W48454   5.737   5.648  12.079
76872W        W48455  16.891  28.192   4.881
76873W        W48456  42.555  12.348   2.812
76874W        W48457  24.995   9.183  14.751
76875W        W48458  22.782  16.658   3.457
76876W        W48459  10.857   9.158   1.029
76877W        W48460  26.029  18.758  13.022
76878W        W48461  13.570   4.937  14.040
76879W        W48462  19.460  37.402  10.708
76880W        W48463  36.311  23.664   5.083
76881W        W48464   7.991  23.787   0.708
76882W        W48465   8.623  24.411   1.233
76883W        W48466  16.817  39.391  11.831
76884W        W48467  14.856   8.436  13.747
76885W        W48468  22.023  11.892   3.614
76886W        W48469   6.209  42.955  12.013
76887W        W48470  42.357  28.200   3.412
76888W        W48471  21.731  16.702   3.158
76889W        W48472  12.781  38.601   4.358
76890W        W48473  14.796  35.444   0.732
76891W        W48474   6.634  15.590  11.528
76892W        W48475  18.006  27.437   3.813
76893W        W48476  26.412  13.783   4.992
76894W        W48477  18.604   9.113  11.534
76895W        W48478  34.693  33.661   0.953
76896W        W48479  42.064  34.304   2.813
76897W        W48480  30.086  11.254  13.794
76898W        W48481  30.819  33.260   0.413
76899W        W48482  27.075  22.580   4.169
76900W        W48483  28.330  11.223  11.119
76901W        W48484  15.211  35.642  10.187
76902W        W48485  21.890   4.392  13.522
76903W        W48486  13.307  21.545  11.929
76904W        W48487   5.725  16.605  14.892
76905W        W48488  21.419  10.876  13.548
76906W        W48489  41.563   3.930  12.543
76907W        W48490   4.206  41.270  14.834
76908W        W48491   4.948   4.395  13.467
76909W        W48492  32.928  42.241   4.318
76910W        W48493  42.631  36.337  12.806
76911W        W48494  21.117  23.030  14.958
76912W        W48495  42.456  12.736  14.358
76913W        W48496  26.018   6.964  10.827
76914W        W48497   1.403  22.908   1.971
76915W        W48498  44.773  44.118  10.344
76916W        W48499  16.059  16.497   1.345
76917W        W48500  12.726   7.347  12.800
76918W        W48501  14.347  39.219  10.629
76919W        W48502  19.239  16.113   1.438
76920W        W48503   9.340  28.343   2.637
76921W        W48504  43.570  16.857   1.501
76922W        W48505   3.372   3.689  10.961
76923W        W48506  33.498  26.903   0.877
76924W        W48507  14.197  30.577  14.390
76925W        W48508  40.795   9.644   3.537
76926W        W48509  44.027  21.562   3.306
76927W        W48510  24.702  27.413  14.937
76928W        W48511  17.602  11.813  11.793
76929W        W48512   1.851  14.097  14.766
76930W        W48513  20.885  35.324  14.535
76931W        W48514  44.285  14.424  10.830
76932W        W48515  44.606  19.586  10.323
76933W        W48516  42.931  23.057   1.886
76934W        W48517  27.932  19.839   2.296
76935W        W48518  37.048  32.446  14.901
76936W        W48519  33.895  18.727  14.064
76937W        W48520  15.138  12.734  13.352
76938W        W48521  36.268   4.787   4.442
76939W        W48522  13.211  26.532   2.627
76940W        W48523  44.295  38.004   2.725
76941W        W48524  13.179  17.688   3.756
76942W        W48525  25.112  42.889   1.796
76943W        W48526  14.560  27.580   2.187
76944W        W48527   3.475  42.828  12.268
76945W        W48528  38.358   8.433  11.540
76946W        W48529   0.908  16.724  14.415
76947W        W48530  20.649   6.267   3.106
76948W        W48531  11.769  41.358  11.497
76949W        W48532  36.120   1.327   1.657
76950W        W48533   7.866  26.045   2.271
76951W        W48534  15.502  34.366   4.173
76952W        W48535  13.285  38.289  13.032
76953W        W48536  30.157  35.542   2.854
76954W        W48537  43.483  33.850   1.817
76955W        W48538  17.598  22.604   4.048
76956W        W48539   8.422  26.847  12.247
76957W        W48540  31.090  28.662  11.620
76958W        W48541  40.043   1.401   0.343
76959W        W48542  22.926  21.256  13.915
76960W        W48543  16.032  32.028  12.160
76961W        W48544  40.260  11.655   1.798
76962W        W48545  14.832   4.415  12.766
76963W        W48546  25.607  12.992   4.902
76964W        W48547  20.433  16.319   1.877
76965W        W48548  24.182  17.696  14.239
76966W        W48549  31.380   4.607  13.913
76967W        W48550   9.885  33.588   3.591
76968W        W48551  15.251   1.409   3.030
76969W        W48552  25.592  27.231  12.474
76970W        W48553  39.989   6.053   4.582
76971W        W48554  19.072  27.006  11.560
76972W        W48555  12.632   8.216   1.180
76973W        W48556  39.526  31.409   4.300
76974W        W48557  38.373  28.353  11.108
76975W        W48558   2.879  39.772   0.564
76976W        W48559  12.618  11.160   2.308
76977W        W48560  36.857  16.575  10.704
76978W        W48561  27.906  10.786   1.055
76979W        W48562  18.463  13.828   0.215
76980W        W48563  43.667  31.705  12.195
76981W        W48564  12.872  41.302   1.722
76982W        W48565   9.528  16.098   1.976
76983W        W48566  22.475  10.843  11.484
76984W        W48567   7.886  17.797   1.663
76985W        W48568  40.129  18.595   1.624
76986W        W48569  39.050  31.198  10.959
76987W        W48570  36.880  22.490   0.106
76988W        W48571  20.078   5.386   3.389
76989W        W48572  43.932  28.038   3.102
76990W        W48573  32.566  27.229   1.195
76991W        W48574  14.145  20.450   4.174
76992W        W48575   0.029  32.919   1.487
76993W        W48576  21.269   4.757  12.065
76994W        W48577  24.995   2.384   2.718
76995W        W48578  16.152  39.654   1.634
76996W        W48579  40.840  29.132  13.024
76997W        W48580  26.830  34.880  12.467
76998W        W48581  44.860  43.638  11.007
76999W        W48582  29.521  16.123  10.733
77000W        W48583  19.251   8.170  10.584
77001W        W48584  41.832  21.368   4.138
77002W        W48585  36.604  33.300   0.981
77003W        W48586  10.237  15.779  13.963
77004W        W48587  43.361  44.401   3.371
77005W        W48588  18.779   2.807   1.814
77006W        W48589  15.756  20.746  13.948
77007W        W48590  29.113  28.088  14.046
77008W        W48591  41.312  30.050   4.580
77009W        W48592  44.982  31.205   0.016
77010W        W48593  39.030  44.269   2.630
77011W        W48594  21.676  38.798   0.778
77012W        W48595  30.345  11.280  14.927
77013W        W48596  10.198  38.598  13.116
77014W        W48597  34.910   1.926   0.805
77015W        W48598  34.088   4.345   4.551
77016W        W48599  19.295   6.913   2.657
77017W        W48600   3.160  19.797   4.063
77018W        W48601   5.489  34.286  13.899
77019W        W48602  34.086   9.683  10.332
77020W        W48603  37.243  13.686  12.507
77021W        W48604  20.967  16.328  11.402
77022W        W48605  42.307  25.139  12.463
77023W        W48606  42.860  13.192  13.239
77024W        W48607   1.778  28.938  13.532
77025W        W48608  16.782  44.342  12.930
77026W        W48609   9.268   0.245   0.017
77027W        W48610  33.398  14.934  14.024
77028W        W48611  15.205  41.448  11.171
77029W        W48612   0.306  43.805   0.775
77030W        W48613  30.571  40.784  11.252
77031W        W48614  28.729  41.739   1.162
77032W        W48615   3.179  34.451   2.929
77033W        W48616  37.445  14.492  13.054
77034W        W48617  40.510  28.072   3.307
77035W        W48618  13.620  39.720  10.964
77036W        W48619  22.713  22.211   3.825
77037W        W48620  10.124  43.894  11.602
77038W        W48621  13.310  36.468   2.149
77039W        W48622   1.814  40.898   2.312
77040W        W48623  33.516  18.102  11.907
77041W        W48624  11.858  18.338   2.821
77042W        W48625   9.786  16.218   3.305
77043W        W48626  10.903  19.468  10.723
77044W        W48627  44.061   3.688   2.672
77045W        W48628  41.719  22.098   3.643
77046W        W48629  40.019   4.376   4.108
77047W        W48630   8.346  35.152  10.627
77048W        W48631   4.294  44.735  13.075
77049W        W48632  32.152  10.981  11.114
77050W        W48633  27.484  42.889   2.405
77051W        W48634  10.409  32.136  13.917
77052W        W48635  29.006  44.841  12.323
77053W        W48636  17.083  41.331   1.004
77054W        W48637  43.630  17.774   4.876
77055W        W48638  39.283   4.949   3.848
77056W        W48639  29.063  12.508  13.737
77057W        W48640  10.183  41.393   0.813
77058W        W48641   7.351  33.991   3.661
77059W        W48642  11.206  19.979   3.699
77060W        W48643  14.257  35.878  11.931
77061W        W48644  29.958  14.732   0.652
77062W        W48645  27.698  17.795  14.469
77063W        W48646  29.257  39.848  13.076
77064W        W48647  43.059   5.014  12.586
77065W        W48648  43.967  21.531  13.506
77066W        W48649   3.405  37.841  13.349
77067W        W48650   0.339  39.055  12.709
77068W        W48651  20.806  25.588   3.110
77069W        W48652  44.040  11.630  14.425
77070W        W48653  32.074  43.459  12.434
77071W        W48654   6.208  19.290  13.916
77072W        W48655  27.535  39.420   4.965
77073W        W48656  26.060  16.695   4.770
77074W        W48657  42.740  34.402   4.163
77075W        W48658  44.740  25.951   0.351
77076W        W48659  14.701   9.301  13.783
77077W        W48660  27.760  21.671   1.224
77078W        W48661  31.105   5.501   4.554
77079W        W48662  13.180  29.653  13.641
77080W        W48663  35.141  31.771   3.326
77081W        W48664  34.788  18.875   4.367
77082W        W48665   0.652   0.803   3.670
77083W        W48666  13.419  30.863   4.246
77084W        W48667  44.788  13.223   4.706
77085W        W48668  10.313   6.508  14.077
77086W        W48669   9.719  27.199  13.897
77087W        W48670  18.427  26.650  12.374
77088W        W48671  20.344  33.143   0.593
77089W        W48672  26.541   2.212   4.512
77090W        W48673  23.328  25.807  10.841
77091W        W48674  19.258  42.299  11.086
77092W        W48675  37.051  14.720  14.931
77093W        W48676  22.750   1.991   2.290
77094W        W48677  43.233  28.144  13.655
77095W        W48678  43.328  24.271   0.903
77096W        W48679  12.169  29.757   2.292
77097W        W48680  36.329  16.538   1.696
77098W        W48681  43.235  40.919   2.236
77099W        W48682  31.702  21.189   1.311
77100W        W48683  21.513  40.330   3.448
77101W        W48684   7.445  20.644  10.811
77102W        W48685  13.322  23.740   2.894
77103W        W48686  20.613   7.220  10.144
77104W        W48687  39.881  28.005   0.707
77105W        W48688  22.263  38.931  11.118
77106W        W48689  25.044  44.260   1.258
77107W        W48690  25.209  38.006   3.015
77108W        W48691  37.512  33.933  11.535
77109W        W48692  17.078  41.982  13.492
77110W        W48693  12.646  25.928  11.637
77111W        W48694  44.392   2.730   1.246
77112W        W48695  36.375   7.689  12.145
77113W        W48696  24.625  27.059  11.436
77114W        W48697  27.824   8.255   2.040
77115W        W48698  16.526  14.959   2.770
77116W        W48699   7.074   4.911   4.538
77117W        W48700  12.626  26.628   4.641
77118W        W48701  42.608  28.104   2.416
77119W        W48702   8.233  30.196  14.392
77120W        W48703  37.900  28.117  12.305
77121W        W48704   1.768  18.419   4.072
77122W        W48705  19.980  26.604   2.239
77123W        W48706  36.640  32.898   0.653
77124W        W48707  24.001  34.933   3.364
77125W        W48708  28.574  37.368  10.896
77126W        W48709   3.670   8.244  10.771
77127W        W48710   8.383  19.512  13.906
77128W        W48711  33.954   4.141   4.096
77129W        W48712  39.550  24.444  13.446
77130W        W48713  18.638  13.911  14.323
77131W        W48714  33.901  32.621  11.816
77132W        W48715  36.914  43.847  12.939
77133W        W48716  38.766  35.281  13.515
77134W        W48717  29.190  34.330   5.061
77135W        W48718  42.876   9.134   4.280
77136W        W48719  18.637  39.293   0.797
77137W        W48720  12.329  26.372  14.323
77138W        W48721   1.807   9.045   4.682
77139W        W48722  14.647  10.230   3.890
77140W        W48723  16.982  14.185   1.787
77141W        W48724  28.042  42.110  13.836
77142W        W48725  10.800  10.362  14.906
77143W        W48726  31.006  23.214  10.775
77144W        W48727  24.642  21.823  10.523
77145W        W48728   9.238  42.121  13.005
77146W        W48729  41.165  10.158  14.376
77147W        W48730  16.828   6.741   2.296
77148W        W48731  19.324   6.423   3.618
77149W        W48732  19.810  29.031   4.085
77150W        W48733   8.850  36.342   1.527
77151W        W48734  16.662   0.464   0.960
77152W        W48735   9.621  27.166  12.990
77153W        W48736  25.499  19.705  10.479
77154W        W48737  42.364  23.462   3.039
77155W        W48738  17.648   5.906  14.368
77156W        W48739  24.773  25.578   1.872
77157W        W48740  12.713  25.227   3.678
77158W        W48741  40.144  11.732  13.016
77159W        W48742   6.567   0.388   2.008
77160W        W48743  23.627  14.860   0.388
77161W        W48744  33.023  37.518  13.626
77162W        W48745  27.540  12.123   0.731
77163W        W48746  35.714  38.416  11.560
77164W        W48747  10.741   4.977  10.615
77165W        W48748  20.239  38.924   4.588
77166W        W48749  18.211  15.572   0.248
77167W        W48750  34.356   7.932  12.011
77168W        W48751   2.699  30.102   4.121
77169W        W48752  31.884  20.628   3.850
77170W        W48753  19.604  11.771   5.001
77171W        W48754  39.270  34.854  11.502
77172W        W48755  32.985  18.048  10.638
77173W        W48756   6.226  13.054   0.969
77174W        W48757  34.669  20.224   3.290
77175W        W48758  22.630  11.300  10.780
77176W        W48759  11.262   3.474  14.398
77177W        W48760   3.941   2.660   4.549
77178W        W48761  16.622  25.641   1.663
77179W        W48762  40.947  32.170   2.425
77180W        W48763  16.233   3.657  10.692
77181W        W48764   6.014  20.233   3.525
77182W        W48765   5.917  43.419  14.908
77183W        W48766  11.935  12.556  10.747
77184W        W48767   0.092  32.302  11.542
77185W        W48768   0.195   9.358  12.575
77186W        W48769  29.641  27.572   2.178
77187W        W48770  20.010  32.993   1.945
77188W        W48771  23.579  14.977  13.435
77189W        W48772  28.166  32.772  14.820
77190W        W48773  39.469  14.932   4.149
77191W        W48774  36.608   0.475   1.371
77192W        W48775  28.253  11.835   2.818
77193W        W48776   9.849  23.881  10.391
77194W        W48777  12.217  40.395   0.824
77195W        W48778  37.854  21.095  10.917
77196W        W48779  18.246   6.123  14.808
77197W        W48780  29.041   9.989   0.323
77198W        W48781  20.194  37.865  13.836
77199W        W48782  24.614  18.726   4.689
77200W        W48783  16.248   9.465  12.947
77201W        W48784  28.639  18.005  12.315
77202W        W48785  24.243  37.349  13.301
77203W        W48786   1.733  25.410   0.787
77204W        W48787  10.718   9.336  13.766
77205W        W48788  38.507   8.216  13.585
77206W        W48789  30.751  20.114  13.904
77207W        W48790   5.737   6.421   4.466
77208W        W48791  29.956  21.125   3.275
77209W        W48792  33.774  13.767  13.368
77210W        W48793  23.773  41.947  10.770
77211W        W48794  20.284  34.427  13.514
77212W        W48795   7.273  19.981   4.062
77213W        W48796   6.190   8.835   4.984
77214W        W48797   9.724   2.200  11.865
77215W        W48798  15.730  38.959  14.701
77216W        W48799   3.970  14.029  12.526
77217W        W48800  42.212  33.897   3.313
77218W        W48801  29.535  32.968  11.576
77219W        W48802  33.151  26.485  10.552
77220W        W48803  16.097  21.805  11.175
77221W        W48804  36.393  30.634  13.832
77222W        W48805  15.718   8.144  13.931
77223W        W48806  39.240  31.063  12.463
77224W        W48807  15.042  37.416  12.627
77225W        W48808  39.563   7.287   5.063
77226W        W48809   4.850  21.183   3.378
77227W        W48810  12.475  14.296  11.283
77228W        W48811  17.993  41.222  10.685
77229W        W48812  40.541  39.985   1.004
77230W        W48813  10.808  39.433  13.626
77231W        W48814  15.488  24.018  10.620
77232W        W48815  14.184  10.231  12.000
77233W        W48816  28.478  38.191   1.749
77234W        W48817  13.686  15.246   4.828
77235W        W48818  11.843  21.311   3.674
77236W        W48819   9.445  31.482  12.494
77237W        W48820  17.188  21.163   1.445
77238W        W48821  35.252  23.277  12.941
77239W        W48822  35.567  14.326   1.744
77240W        W48823  25.452  18.595  14.787
77241W        W48824  37.989  12.715  11.520
77242W        W48825  38.321  30.752   3.969
77243W        W48826  37.056   0.439   4.768
77244W        W48827  21.601  38.074   1.647
77245W        W48828  19.092   5.993  11.626
77246W        W48829  21.085  29.666  11.555
77247W        W48830  33.520  32.142  12.528
77248W        W48831  41.789  18.748  13.434
77249W        W48832  16.179  13.353   4.606
77250W        W48833  43.772   9.821  14.500
77251W        W48834  15.554   9.713  11.180
77252W        W48835  42.430  13.841  13.617
77253W        W48836  39.830  37.067   4.182
77254W        W48837  23.583  35.826  10.708
77255W        W48838  34.997   9.959   3.721
77256W        W48839  34.057   3.459  11.498
77257W        W48840   3.925  15.804  11.437
77258W        W48841   8.390  25.088   4.699
77259W        W48842  16.297  43.714  12.081
77260W        W48843  39.391   8.282  10.672
77261W        W48844  34.055  23.167   0.368
77262W        W48845  22.775   3.920   4.521
77263W        W48846  13.142  42.730   1.663
77264W        W48847  19.295   5.160   1.705
77265W        W48848  12.559  20.326   0.817
77266W        W48849  20.053  13.376   0.932
77267W        W48850  29.920  23.625  11.021
77268W        W48851  18.011  20.461   1.423
77269W        W48852  20.812  42.817  14.316
77270W        W48853  16.524   3.997  13.538
77271W        W48854  40.372  14.168  11.634
77272W        W48855  31.857  37.014  12.421
77273W        W48856   0.152  38.792  14.484
77274W        W48857  18.158  33.929  10.741
77275W        W48858   2.767  37.162   0.391
77276W        W48859  14.376   4.992   3.658
77277W        W48860  40.945  17.574  14.621
77278W        W48861  41.029  30.230  13.817
77279W        W48862  35.987   2.269  14.741
77280W        W48863  40.650  28.497   2.590
77281W        W48864  20.557  41.006  14.257
77282W        W48865  33.081   5.265   0.840
77283W        W48866  27.678   2.426  14.446
77284W        W48867  31.953   0.490  12.567
77285W        W48868  16.365   5.716   1.817
77286W        W48869  13.208  41.210   4.088
77287W        W48870  43.848  21.494   0.922
77288W        W48871  11.629  15.780   3.203
77289W        W48872  38.035  25.685  10.688
77290W        W48873  25.019  39.053  11.152
77291W        W48874  10.240  23.613   1.240
77292W        W48875  20.942  21.678   3.768
77293W        W48876   6.938  23.016  11.078
77294W        W48877  17.063  25.728   3.802
77295W        W48878  39.266   3.096  10.254
77296W        W48879  18.772  14.305   0.104
77297W        W48880  39.780  40.515   3.339
77298W        W48881  10.101   0.030   3.114
77299W        W48882  17.842  19.107  14.462
77300W        W48883   3.806   5.358  14.954
77301W        W48884   8.784  26.147  11.570
77302W        W48885  31.104  26.907  12.879
77303W        W48886  43.904   7.669   0.159
77304W        W48887  12.742  19.993   0.449
77305W        W48888  38.589  38.094   2.347
77306W        W48889   8.924  31.035   2.841
77307W        W48890  28.492  10.129   4.772
77308W        W48891  39.052  21.261   0.412
77309W        W48892  20.580  22.481  11.554
77310W        W48893  41.248  15.525   2.391
77311W        W48894  32.398  43.373  14.235
77312W        W48895  36.494   4.258  12.319
77313W        W48896   2.041  21.725   3.018
77314W        W48897  44.007  36.877   3.409
77315W        W48898  35.763  33.613   4.728
77316W        W48899  36.391  22.034   1.821
77317W        W48900  27.411  20.332  10.674
77318W        W48901   6.358  22.030  10.751
77319W        W48902   6.604   2.059  11.056
77320W        W48903  20.000   2.011   0.186
77321W        W48904  34.519  38.339   3.688
77322W        W48905  35.331  26.032   4.165
77323W        W48906  18.727   9.914  13.711
77324W        W48907  39.048  39.045   3.748
77325W        W48908  21.646  33.904  13.401
77326W        W48909  34.424   4.370  13.060
77327W        W48910  13.714  15.739  11.224
77328W        W48911  24.477   9.459   1.971
77329W        W48912  41.346   7.230  10.891
77330W        W48913  17.165   6.919   1.760
77331W        W48914  39.154   6.366  14.487
77332W        W48915  29.293  43.014   4.237
77333W        W48916  19.802   6.321  13.762
77334W        W48917  43.321  12.925  10.467
77335W        W48918  14.365  33.703   1.571
77336W        W48919  17.078  29.571  11.524
77337W        W48920  42.338  43.391   3.201
77338W        W48921   7.032  15.522   9.757
77339W        W48922   0.860  25.637   3.209
77340W        W48923   4.953  19.636  12.434
77341W        W48924   5.796  39.036  11.708
77342W        W48925  14.338   5.657  13.752
77343W        W48926   2.440   9.247   2.130
77344W        W48927  25.625  13.509   1.446
77345W        W48928  35.559  32.807   1.812
77346W        W48929   1.229  35.066  11.180
77347W        W48930   8.288  42.508  13.958
77348W        W48931  28.539   1.853  11.513
77349W        W48932   8.808  19.546  13.535
77350W        W48933  22.634  13.351   4.169
77351W        W48934   4.640  39.514   4.558
77352W        W48935   7.226   6.146   3.751
77353W        W48936  24.338  11.205  13.531
77354W        W48937  30.926  16.383   3.235
77355W        W48938   4.090  13.676  12.154
77356W        W48939  17.260  14.134   2.255
77357W        W48940  42.572  25.185  11.590
77358W        W48941  33.867  25.061  11.072
77359W        W48942  27.658  22.597  12.581
77360W        W48943  20.629  16.783   1.205
77361W        W48944  26.035  11.908  11.643
77362W        W48945  34.853   6.747   0.814
77363W        W48946   5.696  40.382  13.820
77364W        W48947   7.801  24.533   4.947
77365W        W48948  11.961  42.568  10.725
77366W        W48949  13.249   8.101  12.864
77367W        W48950  30.000  30.467   4.307
77368W        W48951  32.876  33.149  14.538
77369W        W48952  21.027  20.563  11.081
77370W        W48953   0.249  10.076   0.505
77371W        W48954  30.085  23.459   0.837
77372W        W48955   3.760  32.606  11.073
77373W        W48956  15.626  32.933   1.774
77374W        W48957  30.081  28.120   1.657
77375W        W48958  28.665  19.768  11.637
77376W        W48959  33.114   5.767  13.813
77377W        W48960  40.879  38.543  11.541
77378W        W48961  29.430  37.441   0.918
77379W        W48962   5.463  26.684   1.264
77380W        W48963  39.923  24.907  10.457
77381W        W48964  40.808   3.675  12.449
77382W        W48965  40.228  42.952  14.418
77383W        W48966   7.924   2.960   0.412
77384W        W48967  18.982  31.143  10.673
77385W        W48968  30.153  19.735   0.073
77386W        W48969  31.316  24.913  10.357
77387W        W48970  22.220  25.074  14.475
77388W        W48971  43.174  25.290   0.868
77389W        W48972  18.054   1.587  13.797
77390W        W48973  15.928  23.656  10.838
77391W        W48974  38.580   7.370   3.753
77392W        W48975  29.707   1.761   0.700
77393W        W48976  31.489  42.595  12.718
77394W        W48977  38.234  34.052  11.321
77395W        W48978  41.004   6.887  12.072
77396W        W48979  38.159  14.626   4.686
77397W        W48980   6.129   3.499   0.765
77398W        W48981  33.133  30.469  14.890
77399W        W48982   4.219  43.015  12.958
77400W        W48983  42.303   3.966   3.300
77401W        W48984  24.603   3.786   2.594
77402W        W48985   2.450  23.438   2.719
77403W        W48986  42.825  20.958   2.617
77404W        W48987   9.681  21.372   3.195
77405W        W48988  18.158  26.620  11.042
77406W        W48989  33.958   0.259   3.276
77407W        W48990  11.116  28.502   1.740
77408W        W48991  16.568  18.579   4.086
77409W        W48992  38.775   6.629   1.925
77410W        W48993  18.275  11.219  13.476
77411W        W48994  20.116  26.927   0.444
77412W        W48995  10.170  26.986   3.635
77413W        W48996  26.463   4.286   0.191
77414W        W48997   4.589  12.359   1.835
77415W        W48998  23.812  43.312  12.104
77416W        W48999  21.945   6.657  11.581
77417W        W49000   8.669   8.391  12.015
77418W        W49001   7.389   6.879   2.487
77419W        W49002  31.114   1.826  10.363
77420W        W49003  16.305   5.933   2.438
77421W        W49004  42.323  44.782  10.963
77422W        W49005  34.969  19.101   3.547
77423W        W49006  21.029  12.160  13.896
77424W        W49007  22.655  33.726  12.030
77425W        W49008  35.488  13.461   2.911
77426W        W49009  24.225  40.545   1.616
77427W        W49010  41.443  39.906  13.923
77428W        W49011  11.045  38.467  12.285
77429W        W49012  19.198  24.483  12.943
77430W        W49013  31.169  44.917  13.997
77431W        W49014  22.337  17.280  11.099
77432W        W49015  39.258  36.010  14.538
77433W        W49016  27.154   2.779  14.878
77434W        W49017  38.864  33.802  14.498
77435W        W49018  19.102  40.224   4.736
77436W        W49019  36.998  19.103  13.814
77437W        W49020  20.228  31.275  13.845
77438W        W49021  27.202  23.505  10.714
77439W        W49022   7.606   8.782   4.259
77440W        W49023  18.504   5.524   4.271
77441W        W49024  10.724  24.156  12.459
77442W        W49025  34.572  28.716  10.958
77443W        W49026   6.196  39.511   4.225
77444W        W49027  34.628  43.550  13.347
77445W        W49028  36.525   4.437   1.171
77446W        W49029  35.831  27.495   2.779
77447W        W49030  29.673  19.631   4.582
77448W        W49031   4.268  37.808   5.169
77449W        W49032  41.416  37.912   3.679
77450W        W49033   6.411  24.738  13.100
77451W        W49034  23.130  18.335   4.236
77452W        W49035  24.237  16.674  11.672
77453W        W49036  27.925  41.992   0.040
77454W        W49037   6.334  23.502  13.806
77455W        W49038  40.207  36.377   3.309
77456W        W49039   0.420  34.867   3.715
77457W        W49040  39.851  39.743  14.053
77458W        W49041  28.673  34.942  13.593
77459W        W49042  25.716  24.153  13.386
77460W        W49043   0.429   7.481   3.689
77461W        W49044  17.779  35.472   0.981
77462W        W49045  15.181  12.343   0.846
77463W        W49046  17.990  36.974   4.561
77464W        W49047   0.453  43.566   1.205
77465W        W49048  44.875  34.051  14.748
77466W        W49049  10.297   1.670   1.132
77467W        W49050  23.203  32.100   3.339
77468W        W49051  35.421  25.626  10.770
77469W        W49052  42.199  10.168   1.269
77470W        W49053  19.778   3.355   2.327
77471W        W49054   4.088  17.522   3.276
77472W        W49055  32.788  42.024  14.934
77473W        W49056  20.406  22.524  13.315
77474W        W49057  12.392  12.916   2.242
77475W        W49058  43.991   0.141  11.622
77476W        W49059   3.469  26.668   0.936
77477W        W49060  27.482  34.496  10.692
77478W        W49061  30.481  39.889   3.359
77479W        W49062  15.766  40.451   0.477
77480W        W49063  14.780  14.592   1.382
77481W        W49064   2.791  16.497   0.427
77482W        W49065  20.254  34.879  13.285
77483W        W49066  30.566  42.801  11.481
77484W        W49067  29.855  21.173   1.416
77485W        W49068  24.024   9.262   4.776
77486W        W49069  19.789  35.822   4.217
77487W        W49070  15.062  22.754   3.665
77488W        W49071  12.272   1.965  12.151
77489W        W49072   5.605  41.456   1.165
77490W        W49073  10.613  13.578   2.901
77491W        W49074  44.487   8.045  14.446
77492W        W49075   9.629  21.664  12.834
77493W        W49076   5.536  44.000   3.235
77494W        W49077  14.332  33.773   4.997
77495W        W49078   7.861  26.748  11.616
77496W        W49079  41.721  17.553  14.378
77497W        W49080  16.588  21.219   3.167
77498W        W49081  40.066  25.446  10.557
77499W        W49082   5.901  13.589   1.948
77500W        W49083  23.625   3.614   0.823
77501W        W49084  35.470  27.048  11.671
77502W        W49085  16.673  28.327  12.617
77503W        W49086  36.849   8.377  12.058
77504W        W49087  39.231  33.062   1.720
77505W        W49088  16.711   9.660  12.940
77506W        W49089  32.657  18.119   3.769
77507W        W49090   7.724  33.795   1.818
77508W        W49091   1.112  37.570   3.236
77509W        W49092  24.086  36.143   3.646
77510W        W49093  10.821  35.515  12.089
77511W        W49094  32.800  25.135  12.913
77512W        W49095  41.816  12.267  14.352
77513W        W49096  31.286  13.258   0.567
77514W        W49097  33.324  24.259   4.191
77515W        W49098   5.262  23.977  13.387
77516W        W49099  22.545  16.381  10.729
77517W        W49100  23.647  43.269   0.803
77518W        W49101  12.406  21.870  11.532
77519W        W49102  27.909   8.273   1.133
77520W        W49103  34.055   2.717  12.515
77521W        W49104  20.775  25.907  13.958
77522W        W49105  32.658   6.321  14.407
77523W        W49106  19.716  34.080  11.287
77524W        W49107   1.826   2.422   0.297
77525W        W49108  33.680  12.510  11.579
77526W        W49109  22.924  24.669   1.769
77527W        W49110  17.745  32.414  13.357
77528W        W49111  20.297  37.472   1.755
77529W        W49112  41.126  31.169   3.223
77530W        W49113  41.396   6.415   1.422
77531W        W49114   4.099  11.160   0.493
77532W        W49115  23.070  19.127  12.616
77533W        W49116  31.908   7.853   2.840
77534W        W49117  28.493  14.569   1.911
77535W        W49118   3.920  10.287   3.349
77536W        W49119  18.357  14.213  13.211
77537W        W49120  42.831  31.175  11.949
77538W        W49121  40.510  30.126  10.591
77539W        W49122  30.874  35.092  14.914
77540W        W49123  44.880  23.194   1.011
77541W        W49124  15.491  17.232  12.035
77542W        W49125  16.544  31.432   1.827
77543W        W49126   7.900  38.416  13.923
77544W        W49127  36.876  15.834   0.809
77545W        W49128  33.453  22.456  10.815
77546W        W49129  21.459  22.504   2.013
77547W        W49130  40.874   3.839  14.737
77548W        W49131  26.466  36.417   3.993
77549W        W49132  13.079  25.411  11.156
77550W        W49133   8.919  41.711   5.053
77551W        W49134  30.576  31.786  13.480
77552W        W49135  13.774  36.138  14.202
77553W        W49136  15.274  29.576  11.161
77554W        W49137   9.806  35.567  13.822
77555W        W49138  35.834  29.836  11.176
77556W        W49139   7.382  27.000  13.308
77557W        W49140  39.037  38.941  14.811
77558W        W49141   0.945   2.557   4.636
77559W        W49142  28.579   0.560  11.402
77560W        W49143  42.112  25.394  10.933
77561W        W49144  13.929   8.861  10.579
77562W        W49145  22.744  19.250   2.882
77563W        W49146  38.402  42.115   4.159
77564W        W49147  26.487   0.269  11.875
77565W        W49148   8.311   8.812   4.611
77566W        W49149  30.373   7.837   2.709
77567W        W49150  15.502  14.474  12.560
77568W        W49151   5.695  12.073   3.613
77569W        W49152  25.134  18.580   1.982
77570W        W49153  43.647  20.730  12.134
77571W        W49154   5.924  12.894  10.665
77572W        W49155  23.429  14.189  12.831
77573W        W49156  24.755  10.788   5.497
77574W        W49157  31.986   6.318   0.860
77575W        W49158  30.935  34.146   0.340
77576W        W49159  20.698  13.556  11.025
77577W        W49160  28.387  27.658   0.293
77578W        W49161  16.373  35.814   2.196
77579W        W49162   6.495  24.337   3.713
77580W        W49163  18.188   9.630   1.833
77581W        W49164  25.393  38.362  12.445
77582W        W49165   8.435   4.744  12.202
77583W        W49166   5.213  12.260   3.539
77584W        W49167  34.324  36.831   3.911
77585W        W49168  40.332  40.984   2.309
77586W        W49169   2.916  10.862  10.597
77587W        W49170  41.442  28.198  11.990
77588W        W49171   0.100  40.854  13.859
77589W        W49172  10.134  17.844  12.731
77590W        W49173  44.466  44.721   2.781
77591W        W49174  25.368  26.484   2.361
77592W        W49175  15.686  22.079   2.734
77593W        W49176  41.833  12.813   3.593
77594W        W49177  31.313   9.901  11.175
77595W        W49178  21.071  12.287   2.689
77596W        W49179  22.765  12.249   1.842
77597W        W49180   2.638  27.635   0.802
77598W        W49181   7.889  43.205   3.647
77599W        W49182  10.831  40.264   2.176
77600W        W49183  25.719   5.295  12.968
77601W        W49184  14.957  17.296  12.031
77602W        W49185   1.909  20.481   1.017
77603W        W49186  44.836  41.250   0.998
77604W        W49187  21.693  25.517   1.010
77605W        W49188  35.640  26.405  13.888
77606W        W49189  40.302  36.503   0.925
77607W        W49190  17.443  11.202   4.366
77608W        W49191  38.355  14.319  13.039
77609W        W49192   7.159   2.581  11.902
77610W        W49193  42.725  17.335  14.310
77611W        W49194   2.290  25.081  14.516
77612W        W49195  24.603   2.213   4.437
77613W        W49196  19.304  33.942  11.580
77614W        W49197  21.975  33.620   4.256
77615W        W49198  43.740  26.967   0.877
77616W        W49199   1.789   2.661   2.500
77617W        W49200  43.959  23.659   1.932
77618W        W49201  27.270  21.834   2.132
77619W        W49202  18.117  42.767   2.302
77620W        W49203   9.378  19.267   2.657
77621W        W49204  32.706   6.292   3.966
77622W        W49205  26.076  32.144  11.636
77623W        W49206   2.475  28.415  14.848
77624W        W49207  41.882  30.448   1.303
77625W        W49208  10.123  21.640  13.577
77626W        W49209  42.455   2.777   2.167
77627W        W49210  18.327  18.589  12.166
77628W        W49211  18.351  26.002  14.362
77629W        W49212  35.436  26.092  11.032
77630W        W49213  16.069  28.422   2.210
77631W        W49214  27.041  15.322  13.853
77632W        W49215  16.130  19.682   1.675
77633W        W49216  23.493  20.748  11.582
77634W        W49217  39.506  30.077   1.678
77635W        W49218   3.889  37.183   4.421
77636W        W49219  43.477  27.620   4.763
77637W        W49220  11.184  22.697   1.537
77638W        W49221   9.797   0.744  12.432
77639W        W49222   0.363   7.274   2.346
77640W        W49223  39.898  43.840   2.822
77641W        W49224  39.424   3.665  11.549
77642W        W49225  17.703  27.428   1.384
77643W        W49226  27.287   8.771   4.584
77644W        W49227   7.855  35.016  10.639
77645W        W49228  12.747  30.381   4.850
77646W        W49229  16.719   4.480  14.984
77647W        W49230  25.033  20.870  13.926
77648W        W49231  38.027  17.189  14.082
77649W        W49232   9.424   4.800  13.167
77650W        W49233   0.843  16.007   0.392
77651W        W49234  28.627  12.086  14.404
77652W        W49235  43.781  36.929  12.675
77653W        W49236  37.910  26.469   0.861
77654W        W49237  11.407  12.723  13.803
77655W        W49238   6.221  41.982  13.359
77656W        W49239  17.660  33.650   0.695
77657W        W49240   3.243   7.260  12.044
77658W        W49241  21.813  21.831  11.930
77659W        W49242  18.424  15.736   3.040
77660W        W49243  25.060  13.244   4.541
77661W        W49244  36.864   0.014   1.276
77662W        W49245  21.508  20.816   3.631
77663W        W49246  40.395  10.785  13.316
77664W        W49247   3.703   6.334  13.877
77665W        W49248   1.959  37.531   0.050
77666W        W49249   5.838  17.589  11.705
77667W        W49250  22.753  40.889  10.422
77668W        W49251  18.901  13.390  11.208
77669W        W49252  21.749  33.996  11.596
77670W        W49253  26.217  20.036   1.757
77671W        W49254  36.018  41.350   1.974
77672W        W49255  13.947   3.903   3.220
77673W        W49256  34.813   6.028  11.586
77674W        W49257  20.322  24.077  11.962
77675W        W49258   8.417  41.927   3.368
77676W        W49259  16.168  11.372   4.217
77677W        W49260  36.887  11.083   3.366
77678W        W49261  18.771  33.831   3.264
77679W        W49262  42.820  14.206  14.217
77680W        W49263  27.100  32.213   9.860
77681W        W49264  33.860  16.707  13.323
77682W        W49265  43.812   9.965   1.833
77683W        W49266   4.336  23.579   0.304
77684W        W49267  43.490  24.495   0.079
77685W        W49268  12.220  16.635   1.529
77686W        W49269  35.236  13.763  13.385
77687W        W49270  11.360  27.104   0.714
77688W        W49271  35.514  15.255   1.321
77689W        W49272  11.134  39.539   3.879
77690W        W49273  18.360  40.288  10.841
77691W        W49274   2.261  10.758   1.154
77692W        W49275  31.353   6.344  12.136
77693W        W49276  28.557  15.214   4.591
77694W        W49277  10.112  32.798   3.781
77695W        W49278  36.507  25.284   0.907
77696W        W49279   7.309  24.762  12.405
77697W        W49280   4.645  43.224  14.818
77698W        W49281  25.553  42.552   5.166
77699W        W49282  22.916   6.664   0.476
77700W        W49283  37.271  22.030  12.686
77701W        W49284  13.818  41.029  12.821
77702W        W49285  43.736  28.242  14.978
77703W        W49286  20.641  19.714   2.363
77704W        W49287  18.228  34.929  12.143
77705W        W49288   3.310  17.095  13.206
77706W        W49289   5.423  40.146  13.375
77707W        W49290  25.187   9.151  13.855
77708W        W49291  43.710  10.248  11.476
77709W        W49292  22.704  27.188   4.676
77710W        W49293  29.332  27.947   1.286
77711W        W49294   2.891   3.967  10.756
77712W        W49295   0.302  32.077   0.477
77713W        W49296  39.283  27.498   0.222
77714W        W49297  38.961  26.891   0.937
77715W        W49298  14.152  22.764   2.164
77716W        W49299  36.806   5.876   4.037
77717W        W49300  31.422  30.981  11.865
77718W        W49301  12.126  11.318   1.519
77719W        W49302  18.250   1.688   3.860
77720W        W49303  13.762  36.680   3.855
77721W        W49304  27.929  40.811   0.912
77722W        W49305  25.458  23.144  13.826
77723W        W49306  27.740  31.384  12.959
77724W        W49307  31.166  38.897   3.658
77725W        W49308   6.884  29.070   0.461
77726W        W49309  32.092  38.881   1.005
77727W        W49310   7.871  20.234  14.397
77728W        W49311  16.314  34.620   3.228
77729W        W49312  28.001  35.606   3.892
77730W        W49313  18.070  35.793  13.014
77731W        W49314  20.738  17.745   2.301
77732W        W49315  28.287   5.845   0.289
77733W        W49316  31.096  11.429   2.260
77734W        W49317  33.230  38.443  13.495
77735W        W49318  16.641  21.159   4.955
77736W        W49319  19.291  39.528  10.627
77737W        W49320  38.405  16.609  10.616
77738W        W49321   8.744  43.666  13.121
77739W        W49322  16.954  16.315  10.821
77740W        W49323  22.800  28.050  14.879
77741W        W49324  11.277  27.065   4.618
77742W        W49325  21.933   8.371  12.051
77743W        W49326  18.671  27.837  13.398
77744W        W49327   5.956   5.513  14.367
77745W        W49328   3.883  28.587   3.595
77746W        W49329  37.980   9.455   1.115
77747W        W49330  32.870  29.301  13.002
77748W        W49331  37.178  34.516  13.401
77749W        W49332  14.693  10.762   3.124
77750W        W49333  39.594   2.405  11.118
77751W        W49334  23.739   0.734   1.390
77752W        W49335  15.874  15.801   0.446
77753W        W49336  18.277  38.972   4.634
77754W        W49337   7.680   2.664  14.932
77755W        W49338  18.259   5.916   1.595
77756W        W49339  13.340  31.502  11.133
77757W        W49340  26.789  22.183  13.070
77758W        W49341  18.530  11.591   1.909
77759W        W49342   2.923  18.095   1.170
77760W        W49343  41.201  44.520  11.581
77761W        W49344  18.458  15.188   4.050
77762W        W49345  33.436  26.510   4.727
77763W        W49346   1.723  24.737   1.596
77764W        W49347  42.100  23.043  11.609
77765W        W49348  22.469  44.385   3.118
77766W        W49349  25.822  29.524  13.781
77767W        W49350  38.053  35.076  12.783
77768W        W49351  40.224  44.754  10.709
77769W        W49352  27.230   7.856   2.840
77770W        W49353  35.157  33.847   0.284
77771W        W49354  37.657  36.078   0.926
77772W        W49355   2.978   4.694  12.419
77773W        W49356  21.642  20.789  14.421
77774W        W49357  30.005  12.844  11.446
77775W        W49358  37.968  12.776   2.121
77776W        W49359  10.005  30.455  12.179
77777W        W49360  33.130  41.751   2.772
77778W        W49361  42.638   2.943  11.914
77779W        W49362   9.292  44.860   1.806
77780W        W49363   8.265  43.776  12.922
77781W        W49364   6.154  27.527  10.570
77782W        W49365  14.593  21.032  14.391
77783W        W49366   2.361  28.769   4.173
77784W        W49367  29.690  20.760  11.078
77785W        W49368  38.115   8.665   2.419
77786W        W49369  29.215  39.068  12.619
77787W        W49370  38.026   0.346   2.693
77788W        W49371  35.067  28.722   3.152
77789W        W49372  26.371   0.906   4.538
77790W        W49373  12.632  21.275   0.800
77791W        W49374  23.437  23.224  12.853
77792W        W49375  29.521  37.391   5.091
77793W        W49376  12.180   7.291   3.159
77794W        W49377   9.676  40.440  10.443
77795W        W49378  13.708  28.957  13.274
77796W        W49379   5.334  39.378  10.703
77797W        W49380  31.623  18.791   4.656
77798W        W49381  36.411  31.507   0.562
77799W        W49382  18.757   4.224   3.744
77800W        W49383  15.994  41.964   4.914
77801W        W49384  24.009  23.110  13.720
77802W        W49385  37.458  25.104  14.836
77803W        W49386   5.181  40.275  12.066
77804W        W49387  35.548  12.107  13.406
77805W        W49388   8.669  24.692   4.935
77806W        W49389  19.974   7.452   4.240
77807W        W49390  15.661  36.331   4.266
77808W        W49391  41.389  17.693   3.105
77809W        W49392  20.943   6.239  11.676
77810W        W49393  29.124  14.794   0.349
77811W        W49394   5.768   8.244   1.197
77812W        W49395   9.000   3.232   3.926
77813W        W49396  40.247  12.276  11.316
77814W        W49397  35.085  44.597   0.508
77815W        W49398  43.462  40.894   4.652
77816W        W49399  27.866   1.786  12.025
77817W        W49400  40.910  37.914  12.148
77818W        W49401   0.804  39.263   1.453
77819W        W49402   8.010  40.525   2.624
77820W        W49403  23.662  10.802   4.155
77821W        W49404  14.677   5.453   0.165
77822W        W49405  33.826  40.607  12.052
77823W        W49406   1.082  28.055  10.784
77824W        W49407  30.184  37.082   2.357
77825W        W49408  25.518  21.568   0.883
77826W        W49409  19.659  23.000   4.740
77827W        W49410  30.872  26.621  10.615
77828W        W49411  11.450  25.217  14.524
77829W        W49412  41.058   1.433  12.547
77830W        W49413  12.334  18.073   1.875
77831W        W49414   4.187   3.531  12.921
77832W        W49415  41.828   0.878  14.887
77833W        W49416  35.968   0.859  11.588
77834W        W49417  17.904  14.895  14.374
77835W        W49418  35.544  15.792   1.174
77836W        W49419  16.153  27.942   4.516
77837W        W49420  11.236  28.429  10.708
77838W        W49421  24.698  21.914  11.420
77839W        W49422   2.470  37.496  11.505
77840W        W49423  11.895  31.227   1.887
77841W        W49424  25.735   2.997  14.890
77842W        W49425   5.943   9.965  11.625
77843W        W49426  20.315  24.594   1.147
77844W        W49427   0.015  12.173   0.868
77845W        W49428  14.335  42.247   3.646
77846W        W49429  34.276  33.967  11.930
77847W        W49430  31.033   7.790  14.925
77848W        W49431   1.730  34.978   0.598
77849W        W49432  21.453  18.960  13.923
77850W        W49433  22.106  26.930  13.483
77851W        W49434  42.817  29.116  12.951
77852W        W49435  13.834  20.579  14.905
77853W        W49436   6.164  40.459   3.180
77854W        W49437   4.399   1.821  14.439
77855W        W49438  17.008  14.898   3.840
77856W        W49439  34.918   1.416   2.570
77857W        W49440  23.582  42.959  14.204
77858W        W49441   8.059  13.541   0.821
77859W        W49442  42.389  21.253  13.460
77860W        W49443   0.001  12.858  11.008
77861W        W49444  30.975   6.401   2.345
77862W        W49445  41.524  17.217   2.913
77863W        W49446   1.750  32.742   2.852
77864W        W49447  36.463  44.869   2.217
77865W        W49448   4.712  18.473  13.467
77866W        W49449  32.279  15.636  13.324
77867W        W49450   2.075  21.134  11.059
77868W        W49451  11.741  30.403   0.866
77869W        W49452  31.517  38.728   0.300
77870W        W49453  29.605   2.346  12.150
77871W        W49454  28.590  13.800   2.315
77872W        W49455  22.250  28.542   9.773
77873W        W49456  11.022  32.728   3.225
77874W        W49457  42.578   5.293  14.697
77875W        W49458   5.868  19.563   3.718
77876W        W49459  30.215  12.891   1.885
77877W        W49460  32.977  21.687   0.047
77878W        W49461  35.662  23.034  14.795
77879W        W49462  32.767  16.274   0.898
77880W        W49463  41.880   8.936   2.139
77881W        W49464  29.669   1.794  13.844
77882W        W49465  42.971  21.981   2.796
77883W        W49466  18.606  13.350  14.975
77884W        W49467   0.248   6.134   0.825
77885W        W49468  21.734  13.845  13.054
77886W        W49469  36.411  34.077   4.842
77887W        W49470  22.252  22.400  14.374
77888W        W49471  21.295  33.763  13.771
77889W        W49472  29.139   0.425   3.225
77890W        W49473  35.839  30.165   2.477
77891W        W49474  27.955  40.914   3.397
77892W        W49475  21.369  12.132  11.103
77893W        W49476  18.916  17.555   4.845
77894W        W49477  39.087  26.610   4.160
77895W        W49478   4.352  25.736  12.117
77896W        W49479  35.156  36.652  12.437
77897W        W49480  17.815  37.375  11.897
77898W        W49481  30.438  44.883   1.352
77899W        W49482  35.393   0.490  12.976
77900W        W49483   8.900  42.419  12.712
77901W        W49484  21.151  27.925  13.585
77902W        W49485  16.321  23.295  10.733
77903W        W49486  31.486   2.918   1.309
77904W        W49487  28.656  43.218  10.995
77905W        W49488  25.601  32.873   4.165
77906W        W49489  27.578  21.987   2.538
77907W        W49490  42.097  15.400  14.874
77908W        W49491  29.677  30.123  11.622
77909W        W49492  22.040  10.024   3.463
77910W        W49493  43.296  12.804  13.779
77911W        W49494  29.536  32.972  14.685
77912W        W49495   3.397  42.605   1.808
77913W        W49496  23.466  17.868   5.096
77914W        W49497  28.983  26.409   1.774
77915W        W49498  15.714   6.482  10.925
77916W        W49499  29.691  20.091  14.804
77917W        W49500   0.773  37.034  13.356
77918W        W49501  13.337  15.337   4.462
77919W        W49502  31.082  19.164  13.096
77920W        W49503  32.205  18.219   2.859
77921W        W49504  11.204  28.096  11.150
77922W        W49505   4.135  34.446   3.576
77923W        W49506   3.864   6.172   0.262
77924W        W49507  33.181  31.060  13.654
77925W        W49508  44.308  14.775   2.265
77926W        W49509  24.970   7.373  11.395
77927W        W49510   7.553   2.308   3.674
77928W        W49511   8.769  29.779   3.623
77929W        W49512  27.514   2.762  12.439
77930W        W49513  23.045  41.794  12.556
77931W        W49514  21.200  40.717   4.795
77932W        W49515  12.481   4.947   4.492
77933W        W49516   4.817   8.211   2.569
77934W        W49517  10.841   0.038   0.012
77935W        W49518  20.685  15.781  14.228
77936W        W49519  43.508  18.438  11.065
77937W        W49520   0.352  12.636  11.299
77938W        W49521  29.145  25.703   3.182
77939W        W49522   7.295  38.166  11.019
77940W        W49523  32.654  25.258  13.892
77941W        W49524   9.536  11.197   1.900
77942W        W49525  38.788   4.797   4.470
77943W        W49526  44.286  29.002  12.110
77944W        W49527   2.419  36.967   3.458
77945W        W49528  27.168  13.723  10.723
77946W        W49529  18.946  44.220  12.169
77947W        W49530  41.448   4.969   4.606
77948W        W49531  38.687  44.684   0.304
77949W        W49532  19.797  12.209  12.945
77950W        W49533   0.754  27.950   1.817
77951W        W49534  13.327  34.961  11.648
77952W        W49535  41.465  23.074   1.843
77953W        W49536  36.489  19.525  11.202
77954W        W49537  20.316  14.184   4.147
77955W        W49538  43.265  33.952  10.524
77956W        W49539   7.314   7.440   3.250
77957W        W49540  35.982  36.384  11.230
77958W        W49541  21.936  27.576   2.870
77959W        W49542   4.463  23.269  13.898
77960W        W49543   9.392   7.332   0.216
77961W        W49544  41.887  35.831  10.207
77962W        W49545  27.520  29.700   1.843
77963W        W49546  18.214  19.638  10.780
77964W        W49547  17.812  11.712  12.259
77965W        W49548  41.236  33.489  12.932
77966W        W49549  19.707   3.920   0.420
77967W        W49550  21.435  34.099   3.314
77968W        W49551  10.928  30.444   2.270
77969W        W49552   9.769  37.800   1.230
77970W        W49553  43.562   6.840   3.099
77971W        W49554  36.257  20.190   2.405
77972W        W49555  29.710   2.498   1.174
77973W        W49556  17.489   7.802  11.975
77974W        W49557  11.680   7.383   2.315
77975W        W49558  18.578  27.512  10.914
77976W        W49559  43.543   7.867   1.394
77977W        W49560  37.436  24.262   0.935
77978W        W49561  10.736   8.952   4.118
77979W        W49562  28.077  39.542  13.989
77980W        W49563   2.458  30.481   2.846
77981W        W49564  37.454  36.629   3.526
77982W        W49565  33.623  31.945   2.474
77983W        W49566   1.362  15.137  11.098
77984W        W49567  41.937   5.862   0.276
77985W        W49568  29.590  12.775   4.755
77986W        W49569  43.325  16.301   3.233
77987W        W49570  30.457  37.529  11.572
77988W        W49571  35.105  17.366   0.873
77989W        W49572  17.087  13.888  10.287
77990W        W49573  37.037   0.343  12.924
77991W        W49574  20.781  43.669  13.729
77992W        W49575  33.371  25.294   1.829
77993W        W49576  39.810  34.770   2.879
77994W        W49577  21.313  26.927   3.268
77995W        W49578  31.458  10.778   1.126
77996W        W49579   5.462  38.281  13.119
77997W        W49580  43.251  34.216   4.091
77998W        W49581  12.157  20.860   1.858
77999W        W49582   2.421  17.088   0.430
78000W        W49583  30.333  31.064  14.815
78001W        W49584  20.539   8.576   0.442
78002W        W49585  43.072  41.096   3.777
78003W        W49586  27.580  13.113  12.935
78004W        W49587  23.023  30.080   3.567
78005W        W49588  18.365   4.856  12.088
78006W        W49589  40.269  10.340  12.562
78007W        W49590  16.849  33.960  14.233
78008W        W49591  29.454   2.200   0.824
78009W        W49592  16.773   1.804   0.954
78010W        W49593  30.171  32.602  13.398
78011W        W49594  38.266  30.153  12.445
78012W        W49595  44.790  13.642   4.326
78013W        W49596   9.526  25.655   1.334
78014W        W49597  12.620  20.769  14.920
78015W        W49598  25.046  43.557  13.977
78016W        W49599  44.780  11.139  14.515
78017W        W49600  18.302  38.533  14.406
78018W        W49601  22.302  21.714   2.238
78019W        W49602  35.442  11.685   2.443
78020W        W49603  43.527   1.855   2.306
78021W        W49604  23.942   1.441   1.853
78022W        W49605  42.500  13.662   3.269
78023W        W49606   9.750   7.159   3.733
78024W        W49607  22.969  35.424  10.980
78025W        W49608  39.452  23.593   2.000
78026W        W49609  44.940  10.349   0.813
78027W        W49610  16.477  12.749   0.071
78028W        W49611  20.311  18.100   0.575
78029W        W49612  25.767  31.402  12.913
78030W        W49613  27.785  38.966   4.052
78031W        W49614  43.959  28.846  12.860
78032W        W49615  12.686  20.230   4.835
78033W        W49616  26.633   3.550  14.843
78034W        W49617  23.135  24.922   1.387
78035W        W49618  40.477  40.082   3.309
78036W        W49619   6.238  17.452  12.631
78037W        W49620   3.446  28.278  11.020
78038W        W49621  30.305  43.335   3.585
78039W        W49622  25.045   4.004   3.386
78040W        W49623  14.735  10.381  11.127
78041W        W49624   8.655  12.674  11.556
78042W        W49625  32.675  14.571  11.595
78043W        W49626   0.333   3.919   4.033
78044W        W49627  22.279  28.535   0.463
78045W        W49628  16.211   9.819   0.281
78046W        W49629  30.914  11.560   0.467
78047W        W49630  32.805  27.496  11.101
78048W        W49631  36.442  38.606  10.233
78049W        W49632  36.919  30.639   4.597
78050W        W49633  29.077  10.692  14.824
78051W        W49634   0.541   4.112  13.371
78052W        W49635  13.255  25.608  10.701
78053W        W49636  12.603  21.253   1.722
78054W        W49637  39.066   0.148  13.536
78055W        W49638  40.282  26.425  10.711
78056W        W49639  12.620  40.364   3.760
78057W        W49640  23.142   3.855   1.344
78058W        W49641  18.901  21.986  14.148
78059W        W49642  37.358  29.115   0.810
78060W        W49643  28.558   1.763   1.635
78061W        W49644  38.956  28.723  11.125
78062W        W49645  14.322  31.512   1.265
78063W        W49646  31.837   7.123  12.936
78064W        W49647  24.618  26.992   4.722
78065W        W49648  30.145  28.198  13.536
78066W        W49649  30.667  36.783   0.246
78067W        W49650   6.775  14.284  10.390
78068W        W49651  12.857  12.115   2.236
78069W        W49652   6.296  11.261  11.450
78070W        W49653  39.982  35.834  11.496
78071W        W49654  17.126  40.995   2.222
78072W        W49655  14.446  38.182  14.383
78073W        W49656  14.570  10.578   4.705
78074W        W49657  29.588  21.153   1.942
78075W        W49658  32.643  13.136  12.453
78076W        W49659  33.729  26.719  14.942
78077W        W49660  26.061  18.264  12.882
78078W        W49661  18.241  34.319   0.156
78079W        W49662  32.675   5.438  13.015
78080W        W49663   8.154  41.895  14.464
78081W        W49664  34.334  24.722   3.118
78082W        W49665  41.052  14.755  10.730
78083W        W49666  11.622  24.465  10.580
78084W        W49667   4.855   1.933   2.305
78085W        W49668  29.336  38.319  11.700
78086W        W49669  19.207  14.165   4.114
78087W        W49670  18.210  19.237  10.456
78088W        W49671  34.484   5.554   3.400
78089W        W49672  15.423   1.279   1.195
78090W        W49673  21.658  10.216   2.290
78091W        W49674  35.497  26.311  13.425
78092W        W49675  44.420  31.797   2.138
78093W        W49676  15.983  12.604   0.167
78094W        W49677  15.936   1.237   5.085
78095W        W49678  17.474  29.123   0.274
78096W        W49679   3.981  39.319  12.855
78097W        W49680  26.909  20.540   0.518
78098W        W49681  34.236   3.891   4.787
78099W        W49682  32.831  28.396  13.581
78100W        W49683  41.417  39.227   4.698
78101W        W49684   5.707  10.873   3.294
78102W        W49685  11.622  26.495   4.551
78103W        W49686   3.432   1.119   1.763
78104W        W49687  23.707  34.184  14.439
78105W        W49688   5.846  42.984   3.872
78106W        W49689  11.215  32.923   2.759
78107W        W49690  15.370  13.100   4.104
78108W        W49691  42.404  27.004   0.788
78109W        W49692  27.000  38.767   0.449
78110W        W49693  34.967   3.243  11.093
78111W        W49694  33.525  42.890   2.007
78112W        W49695  13.876  13.293   3.005
78113W        W49696  17.824  15.178  12.461
78114W        W49697   2.094  32.500   3.152
78115W        W49698  23.974  25.107   0.726
78116W        W49699  19.627  34.939  10.671
78117W        W49700   8.945  13.044  12.026
78118W        W49701   1.189   3.100   1.299
78119W        W49702  28.983  24.009   1.551
78120W        W49703  31.285  29.723  11.773
78121W        W49704  34.338   9.922  10.707
78122W        W49705  38.772  35.050   0.866
78123W        W49706   0.691  28.190   3.794
78124W        W49707  20.669  34.614   3.010
78125W        W49708  27.158  22.975  14.497
78126W        W49709   2.740  18.724   1.776
78127W        W49710  35.930   8.573  13.362
78128W        W49711  26.016  31.134   4.675
78129W        W49712  44.540   6.610   0.221
78130W        W49713  22.531  17.253  14.134
78131W        W49714  18.080  24.529   2.868
78132W        W49715  30.966  12.258  14.773
78133W        W49716  31.123   7.611  13.467
78134W        W49717  36.605  31.937  14.744
78135W        W49718  30.145  29.032   0.024
78136W        W49719  37.840  44.502  11.588
78137W        W49720  14.482   0.339   4.955
78138W        W49721  41.830  41.009   0.840
78139W        W49722  22.987  38.156  11.125
78140W        W49723  36.777  43.572  13.369
78141W        W49724  25.052  36.374   3.887
78142W        W49725   8.342  18.073  14.441
78143W        W49726  42.015  28.979  12.083
78144W        W49727   4.455   0.828   3.410
78145W        W49728   3.034  43.899  12.134
78146W        W49729   8.650  26.623   3.682
78147W        W49730  13.562  11.742   4.777
78148W        W49731   7.883  43.690  14.522
78149W        W49732  22.787   9.435   4.329
78150W        W49733  40.270  36.940   1.749
78151W        W49734  41.956  22.011   2.164
78152W        W49735  34.782  39.815  12.890
78153W        W49736   8.434   7.306  14.472
78154W        W49737   8.451  41.998   0.787
78155W        W49738  15.676  25.530  11.058
78156W        W49739   9.226  13.602  14.290
78157W        W49740  36.018  11.284   0.721
78158W        W49741  23.413  17.331   1.794
78159W        W49742  27.651  44.534   3.705
78160W        W49743   4.238  18.763  12.105
78161W        W49744  37.921  15.767  10.198
78162W        W49745  11.853  31.797   0.757
78163W        W49746   8.690   6.152   1.854
78164W        W49747  24.961  13.106  10.985
78165W        W49748  19.814  27.110  13.314
78166W        W49749  41.376  32.495   1.208
78167W        W49750  27.150  35.068   0.824
78168W        W49751  21.408  19.357  10.175
78169W        W49752   3.023   4.186  12.408
78170W        W49753   0.882  28.945   3.324
78171W        W49754  29.472  28.466  10.602
78172W        W49755  30.162  20.166   5.479
78173W        W49756  13.066  28.715  13.249
78174W        W49757   3.899   3.985  13.460
78175W        W49758  18.896  33.007  11.631
78176W        W49759  11.066  34.409  11.119
78177W        W49760  41.091  21.167  12.584
78178W        W49761  34.607  30.155  12.021
78179W        W49762  23.697  31.973   3.179
78180W        W49763  11.960  18.299   4.101
78181W        W49764  32.906  30.129   2.577
78182W        W49765  29.142   3.170  12.216
78183W        W49766  31.247  36.055   3.302
78184W        W49767  41.693   9.813  11.238
78185W        W49768  16.093  34.843   0.271
78186W        W49769  26.040  31.707   0.908
78187W        W49770  44.233   9.389  13.588
78188W        W49771  18.097   7.224   3.840
78189W        W49772   3.167  35.896   2.352
78190W        W49773  23.988  36.447   4.064
78191W        W49774  40.051  18.771  12.099
78192W        W49775  19.339  16.136   3.343
78193W        W49776  38.302   5.385  13.706
78194W        W49777  39.385   8.763  12.364
78195W        W49778  44.878   3.834   3.764
78196W        W49779  14.609  29.933  13.737
78197W        W49780  30.181  39.592  10.651
78198W        W49781   6.216  39.821   3.769
78199W        W49782  42.740  38.938   1.739
78200W        W49783  30.131  20.135  11.811
78201W        W49784   0.972  38.162  11.950
78202W        W49785  12.789  35.619  14.341
78203W        W49786  27.158  33.595   4.197
78204W        W49787   2.403  34.838   1.924
78205W        W49788  16.972  19.415  13.923
78206W        W49789  44.559  37.086  10.713
78207W        W49790   2.213  13.257  12.132
78208W        W49791  22.312  25.585  11.192
78209W        W49792  29.847  30.913  14.815
78210W        W49793  42.010   5.901  12.004
78211W        W49794  25.203  21.651   3.569
78212W        W49795  13.810  30.546  11.521
78213W        W49796  32.387  28.641  13.060
78214W        W49797  14.328   8.064   4.527
78215W        W49798   2.458  13.797  12.848
78216W        W49799  13.433  25.115  12.023
78217W        W49800   7.826  13.147  12.058
78218W        W49801  16.657   9.962   1.733
78219W        W49802  32.808  41.058  12.849
78220W        W49803   7.614  16.548   2.333
78221W        W49804  30.611  37.802   0.540
78222W        W49805  30.102  15.509  11.764
78223W        W49806  35.463  24.185   1.293
78224W        W49807  24.223  24.665   1.212
78225W        W49808  18.654   0.415   1.783
78226W        W49809  23.522  25.994   0.906
78227W        W49810   1.765   3.202  10.725
78228W        W49811  31.585  19.233  13.858
78229W        W49812  22.777   3.665   0.538
78230W        W49813  39.886  14.682  14.316
78231W        W49814  23.694  13.837  13.608
78232W        W49815   4.499  40.587  11.529
78233W        W49816  28.068  15.049  11.164
78234W        W49817  15.699   1.045   4.640
78235W        W49818  15.855  30.996   4.438
78236W        W49819  24.250  20.115  12.980
78237W        W49820  24.131   3.928   2.767
78238W        W49821   8.643   9.788  14.495
78239W        W49822  16.895   3.312   3.852
78240W        W49823  19.031  36.020   2.771
78241W        W49824   8.672  14.315  14.734
78242W        W49825  30.883  25.639   0.040
78243W        W49826  11.721  44.995   0.839
78244W        W49827  31.208  38.915   0.949
78245W        W49828  40.390  39.245  14.862
78246W        W49829  37.357  30.543   4.898
78247W        W49830  31.017  17.404   5.065
78248W        W49831   5.329  19.658  12.889
78249W        W49832   8.504   6.456  11.775
78250W        W49833   4.440  18.480  12.507
78251W        W49834   0.326  41.102   1.537
78252W        W49835  15.374  20.050   3.781
78253W        W49836  42.333  35.417   4.617
78254W        W49837  17.169  29.615   4.117
78255W        W49838  28.074  36.139   1.354
78256W        W49839  12.019  35.060  12.002
78257W        W49840  12.349  23.076  11.690
78258W        W49841  11.288  13.212   2.582
78259W        W49842  27.576  30.481   4.833
78260W        W49843  41.780  11.615  12.032
78261W        W49844  36.100  41.780  12.109
78262W        W49845   3.902  43.365   4.326
78263W        W49846  18.273  17.838   3.162
78264W        W49847  12.772  23.721  12.069
78265W        W49848  41.091  23.351   1.319
78266W        W49849  30.115  40.035   4.591
78267W        W49850  39.850  20.378  14.477
78268W        W49851  39.784  44.913  11.348
78269W        W49852  22.284  26.660  14.929
78270W        W49853  41.885  17.495   3.220
78271W        W49854  19.674  40.299  10.659
78272W        W49855  13.115  37.473  11.506
78273W        W49856  35.446  38.592   2.258
78274W        W49857  39.374  30.140   4.736
78275W        W49858   6.965  30.491   1.561
78276W        W49859  13.971  36.202  11.595
78277W        W49860  14.047  11.896  14.545
78278W        W49861  24.585  20.059  11.926
78279W        W49862  18.842   7.393   0.721
78280W        W49863  29.533   4.143   4.222
78281W        W49864  12.778  35.323  13.924
78282W        W49865  25.695  42.528   4.210
78283W        W49866  32.228  20.349   4.135
78284W        W49867   8.851  34.820   0.405
78285W        W49868  41.452  36.489   2.591
78286W        W49869  38.193  41.812  13.327
78287W        W49870  14.690   2.988  13.837
78288W        W49871  28.597  22.638   0.899
78289W        W49872   2.572  24.535   3.970
78290W        W49873  26.634   2.816  12.486
78291W        W49874  19.645  25.458  12.960
78292W        W49875  25.862  12.719   4.538
78293W        W49876  24.525   4.169  13.522
78294W        W49877  42.767  18.875   4.168
78295W        W49878  21.520   5.396  12.557
78296W        W49879  37.344  21.160   1.364
78297W        W49880  17.146   9.601   1.288
78298W        W49881  20.905   6.227   1.048
78299W        W49882  13.012  30.035   2.770
78300W        W49883  40.448   2.623  10.784
78301W        W49884  43.796  27.095  11.407
78302W        W49885  28.617   7.162  13.500
78303W        W49886  12.751  39.081  14.540
78304W        W49887   1.842  27.051   0.978
78305W        W49888  44.188  27.898  10.972
78306W        W49889  13.262  15.090  10.339
78307W        W49890   0.594  41.897  10.443
78308W        W49891  42.306  25.552   1.400
78309W        W49892  28.070  24.165  12.176
78310W        W49893  18.612  29.198   4.771
78311W        W49894   9.310  38.613   2.000
78312W        W49895  10.671   6.979  11.145
78313W        W49896  32.318   5.081   1.195
78314W        W49897  26.262   3.683  12.475
78315W        W49898  25.574  16.753   2.716
78316W        W49899  41.091  38.891  11.892
78317W        W49900  26.517  20.283   1.358
78318W        W49901  30.456  20.763   0.910
78319W        W49902  33.751  43.610   2.232
78320W        W49903  21.799  35.139  14.943
78321W        W49904  13.122  42.397  11.343
78322W        W49905  32.514   4.884   0.340
78323W        W49906  15.586   0.299   1.493
78324W        W49907   6.570   1.319  14.568
78325W        W49908  32.070  39.368  14.845
78326W        W49909  30.171  18.107   0.023
78327W        W49910  16.536  14.045   4.259
78328W        W49911  38.850  38.002  12.088
78329W        W49912  18.321   1.732  13.036
78330W        W49913  42.015   7.913   2.186
78331W        W49914   8.147  40.458  11.863
78332W        W49915  11.282  27.129  12.269
78333W        W49916  31.896  22.289  10.286
78334W        W49917  27.461  20.544   0.553
78335W        W49918  25.722  39.775   4.251
78336W        W49919   9.332   2.374   1.485
78337W        W49920   7.753  33.477  12.158
78338W        W49921  41.153  32.054   3.735
78339W        W49922  43.800  12.701  10.609
78340W        W49923  24.489  15.211   3.125
78341W        W49924   7.705  20.588   2.444
78342W        W49925  25.448   8.713   3.780
78343W        W49926  25.428  20.210   4.218
78344W        W49927  41.973  27.017  11.119
78345W        W49928  24.908  15.148  12.999
78346W        W49929  32.239  34.643   2.400
78347W        W49930  22.473  30.477  11.909
78348W        W49931  26.105  25.041   0.353
78349W        W49932  32.358  35.435  12.152
78350W        W49933  19.305  20.305   1.935
78351W        W49934   0.508  10.923  10.660
78352W        W49935  28.021  22.266  14.877
78353W        W49936   7.364  34.874  13.853
78354W        W49937  25.835  24.549   4.568
78355W        W49938  23.732  34.338  13.320
78356W        W49939  38.779  23.739   2.628
78357W        W49940   3.404  21.327  12.926
78358W        W49941   2.898  34.329  12.990
78359W        W49942  24.088  15.722   0.222
78360W        W49943  18.599   5.246  11.582
78361W        W49944  10.969   0.446   2.313
78362W        W49945  41.377  23.777   1.137
78363W        W49946  21.287  34.451   1.839
78364W        W49947  15.392  11.277   0.368
78365W        W49948   0.965  30.329   4.487
78366W        W49949  35.107  14.665   3.999
78367W        W49950  39.001  27.512   3.166
78368W        W49951  16.298  30.650  11.647
78369W        W49952  32.366  23.095  11.507
78370W        W49953  17.021  30.242  12.541
78371W        W49954  10.112  34.955   3.600
78372W        W49955  32.334   1.986  14.218
78373W        W49956  32.286   5.182  12.503
78374W        W49957  40.932  14.690  11.225
78375W        W49958  17.180  44.943  11.133
78376W        W49959  31.375  29.221   4.253
78377W        W49960  33.754  31.829   5.062
78378W        W49961  32.528  22.064   4.190
78379W        W49962  16.306   7.643   3.130
78380W        W49963  36.928  33.384   4.887
78381W        W49964   1.004   8.726   2.632
78382W        W49965   3.840  24.091  12.814
78383W        W49966  16.794  27.069  10.706
78384W        W49967  34.440  30.572  14.527
78385W        W49968  22.759  44.765   0.891
78386W        W49969  19.204  13.158   4.245
78387W        W49970  15.033   2.893  14.599
78388W        W49971   7.310  44.394  12.551
78389W        W49972  15.541  31.236  14.512
78390W        W49973   5.020  37.597  11.410
78391W        W49974   8.857  17.208   2.308
78392W        W49975  13.350  11.188  14.846
78393W        W49976  37.634  41.387  11.205
78394W        W49977  18.113  41.512   0.230
78395W        W49978  30.036  24.645   3.111
78396W        W49979   1.328  37.601   2.750
78397W        W49980  28.465  15.661   3.360
78398W        W49981   6.750   8.244   0.290
78399W        W49982   0.663  16.078  12.221
78400W        W49983  32.487  32.119   1.268
78401W        W49984  18.336   9.588   3.643
78402W        W49985  23.932   0.534   4.561
78403W        W49986   0.781  10.816   1.041
78404W        W49987  18.710  17.358   0.446
78405W        W49988  40.980  20.380  14.058
78406W        W49989  10.727  27.442  11.354
78407W        W49990  36.962  11.413  13.867
78408W        W49991  26.179  13.423   0.737
78409W        W49992  44.457  30.634  14.480
78410W        W49993  41.438   8.546  13.820
78411W        W49994   5.395  38.376  14.069
78412W        W49995  17.082  22.636  12.309
78413W        W49996  41.952  19.031  13.872
78414W        W49997  10.798  31.582   2.810
78415W        W49998   2.646  28.647  11.185
78416W        W49999   3.434  28.116  14.856
78417W        W50000  44.592  37.528   3.757
78418W        W50001  26.900  18.211  12.878
78419W        W50002  31.395  32.898  14.454
78420W        W50003  22.169   4.399  14.002
78421W        W50004  20.546   3.124  11.627
78422W        W50005   0.426  25.479  14.833
78423W        W50006  28.106  30.624   3.690
78424W        W50007  10.895  19.116   4.339
78425W        W50008   1.903  35.482  11.355
78426W        W50009   8.436   0.334  14.782
78427W        W50010  11.220  43.774  10.832
78428W        W50011  15.003  31.530   2.852
78429W        W50012  26.917  11.243  13.760
78430W        W50013  41.274  14.246   0.816
78431W        W50014  29.911  44.371  11.149
78432W        W50015  25.740  39.452  13.876
78433W        W50016  31.962  40.504   2.754
78434W        W50017   9.502  14.769  13.491
78435W        W50018   9.660  15.237   1.451
78436W        W50019  41.838  22.567   1.330
78437W        W50020   1.255  38.022  13.921
78438W        W50021   5.484   0.925  13.296
78439W        W50022   8.897   2.013  13.966
78440W        W50023  22.157  24.527   2.191
78441W        W50024   0.923   9.158  14.882
78442W        W50025   9.282  16.722  11.152
78443W        W50026  35.828  10.244  10.705
78444W        W50027  38.898  30.162   4.975
78445W        W50028  42.418  41.786   1.659
78446W        W50029  25.730  21.962   2.624
78447W        W50030  12.604  35.182   1.944
78448W        W50031  42.992  20.014   0.991
78449W        W50032  31.565  39.449   0.525
78450W        W50033  39.035  19.807  12.451
78451W        W50034  36.921  29.641  11.703
78452W        W50035  27.215  44.783   3.643
78453W        W50036  31.093  39.015  12.691
78454W        W50037  23.205  27.724   1.877
78455W        W50038  23.456  38.295   1.745
78456W        W50039  39.032  19.178  14.485
78457W        W50040  30.960  21.131   4.319
78458W        W50041  13.045  24.214   0.819
78459W        W50042  44.257  27.279   4.421
78460W        W50043  43.465  25.523   3.892
78461W        W50044  44.544  14.168   0.000
78462W        W50045  40.186   5.008  11.690
78463W        W50046  32.333  38.730   0.292
78464W        W50047  14.650  44.337   0.333
78465W        W50048  21.810  23.233  13.424
78466W        W50049  44.908  19.373  14.965
78467W        W50050  15.033  11.368  14.375
78468W        W50051  17.305  24.593   2.341
78469W        W50052  35.810   9.780  12.468
78470W        W50053  36.028  19.327  10.635
78471W        W50054   5.828  27.925   4.838
78472W        W50055  16.738  20.227   1.099
78473W        W50056  17.099  38.871   2.615
78474W        W50057  37.314  14.893  12.022
78475W        W50058  18.112   5.442   0.187
78476W        W50059  21.803   2.936  10.803
78477W        W50060  44.969  33.500  11.848
78478W        W50061  10.437  32.519  12.772
78479W        W50062  29.593  44.602   0.054
78480W        W50063  26.105   2.159  12.413
78481W        W50064   9.408  31.570   3.138
78482W        W50065  26.219  43.633   2.294
78483W        W50066   5.200  26.236  13.905
78484W        W50067   7.681   8.361   1.393
78485W        W50068  32.543  27.481  14.049
78486W        W50069  28.962  33.920   2.211
78487W        W50070  21.623   8.638  10.743
78488W        W50071  34.892  18.379   1.807
78489W        W50072  21.079  22.693   1.708
78490W        W50073  27.836  21.017   0.496
78491W        W50074  21.569  33.602   3.319
78492W        W50075  26.987  32.151   2.761
78493W        W50076  12.761  33.156  12.467
78494W        W50077  16.318  20.550  14.948
78495W        W50078  16.852  40.028  13.915
78496W        W50079  35.480  24.188  14.503
78497W        W50080   4.002  40.097   4.470
78498W        W50081  25.162  43.135  11.841
78499W        W50082   7.341  30.976  11.211
78500W        W50083   3.357  16.670  12.918
78501W        W50084  35.542  20.120   4.359
78502W        W50085  12.750  15.618   4.153
78503W        W50086  20.582  34.419  14.818
78504W        W50087  17.702   7.673  14.000
78505W        W50088  44.769  33.426   2.136
78506W        W50089   7.009  38.055   0.702
78507W        W50090  31.927  16.566   4.096
78508W        W50091   0.276  10.758  13.998
78509W        W50092   1.469   0.786  11.665
78510W        W50093   5.910  29.064   4.092
78511W        W50094   2.466  13.505  14.816
78512W        W50095  19.488  35.320   1.491
78513W        W50096  39.473  29.903   0.168
78514W        W50097  29.059  23.997   1.021
78515W        W50098   3.866  10.611  14.872
78516W        W50099  21.048  17.113   3.466
78517W        W50100  36.542  23.193  14.551
78518W        W50101   6.844  31.164  11.010
78519W        W50102   3.675   8.490  13.872
78520W        W50103  16.205  16.776   1.779
78521W        W50104  30.129   7.207   0.446
78522W        W50105   2.363  43.306   2.750
78523W        W50106  16.796  34.925   2.318
78524W        W50107  44.915   1.195   2.255
78525W        W50108  32.422   8.409  11.141
78526W        W50109  32.092  14.863  10.802
78527W        W50110   8.668  20.302   1.728
78528W        W50111  42.249  11.167   2.304
78529W        W50112  36.596   3.806   0.462
78530W        W50113  25.712  42.418  10.634
78531W        W50114  31.899  23.092  13.297
78532W        W50115  31.597  22.131   2.863
78533W        W50116   4.042  43.590  12.021
78534W        W50117   8.149   2.241   2.043
78535W        W50118  25.150  39.366  13.030
78536W        W50119  39.310  27.219  14.779
78537W        W50120  32.398  15.884  11.147
78538W        W50121   9.888  27.810  10.469
78539W        W50122  25.936  40.419   2.796
78540W        W50123   2.637  27.462   2.881
78541W        W50124  28.590   2.776   1.931
78542W        W50125  36.025  21.038   4.507
78543W        W50126  22.488  19.275  13.893
78544W        W50127  42.958   2.234   5.079
78545W        W50128  40.524  23.460  14.210
78546W        W50129  11.610   8.797   3.857
78547W        W50130  35.055  19.752   2.812
78548W        W50131  42.943  28.996   0.503
78549W        W50132  12.254  34.903   2.245
78550W        W50133  22.790  17.350   3.612
78551W        W50134  21.282  13.772   4.776
78552W        W50135   8.554  22.317   3.291
78553W        W50136   2.763   1.731  10.594
78554W        W50137  40.055  14.795   0.681
78555W        W50138  41.289  42.893  10.801
78556W        W50139  19.646   8.793   3.688
78557W        W50140   1.461  42.813  13.952
78558W        W50141   5.213  28.768  13.442
78559W        W50142  40.884  31.918   2.871
78560W        W50143   6.229  35.147   5.171
78561W        W50144  39.361   4.166  11.561
78562W        W50145  29.951  20.585  14.823
78563W        W50146  32.398  22.585   2.776
78564W        W50147  37.477   8.930  11.547
78565W        W50148   7.639  25.109  11.100
78566W        W50149  26.633  10.772  14.260
78567W        W50150  14.704  35.192  12.865
78568W        W50151  15.544   6.710   1.768
78569W        W50152  24.076  30.682   4.149
78570W        W50153  39.392  40.601  14.689
78571W        W50154  28.660  14.639   3.291
78572W        W50155  15.237  31.226   1.052
78573W        W50156  13.864  13.092  14.030
78574W        W50157   9.963  30.434   2.478
78575W        W50158  28.514  19.274  11.522
78576W        W50159  35.904  10.150   1.848
78577W        W50160  31.534   3.244  12.213
78578W        W50161   8.475  29.183  13.052
78579W        W50162  20.603  25.664   3.598
78580W        W50163  40.529  37.352   1.934
78581W        W50164  15.818  44.475   0.039
78582W        W50165  26.600   5.751  14.475
78583W        W50166  40.399  12.080  14.259
78584W        W50167  43.755  25.934   4.222
78585W        W50168   3.354  18.095   2.359
78586W        W50169  37.465  29.025   2.229
78587W        W50170  18.440  19.358   4.448
78588W        W50171  25.033  35.471   4.411
78589W        W50172  35.527  29.212   0.935
78590W        W50173  28.424  31.361  11.112
78591W        W50174  42.640  10.247   1.729
78592W        W50175  25.215  24.105  13.300
78593W        W50176  33.548   9.986   1.336
78594W        W50177  23.317  14.043  13.310
78595W        W50178  12.298  39.807  14.907
78596W        W50179  44.742   1.200  14.560
78597W        W50180  11.852  31.020   2.899
78598W        W50181   3.488  13.141  12.549
78599W        W50182   5.471  44.812  12.519
78600W        W50183   3.209   4.881   3.626
78601W        W50184  35.476  20.307   1.911
78602W        W50185  18.101  39.031  11.646
78603W        W50186  15.932  12.090  13.347
78604W        W50187  21.621   0.168   0.902
78605W        W50188  10.221  41.201  14.963
78606W        W50189  29.785   7.433  10.097
78607W        W50190  21.328  43.243   2.181
78608W        W50191  23.587   7.870  11.355
78609W        W50192  39.711   6.738   1.659
78610W        W50193  43.844  44.435  10.587
78611W        W50194  39.697  38.300   4.025
78612W        W50195  15.707  43.970  14.839
78613W        W50196  17.588  29.688  10.711
78614W        W50197   2.950  17.336   2.400
78615W        W50198   0.464  41.322   2.494
78616W        W50199  16.695  27.438   4.161
78617W        W50200  38.440  26.175  12.874
78618W        W50201  19.726  31.661   1.398
78619W        W50202   0.358  44.903   4.478
78620W        W50203  23.652  31.906   1.311
78621W        W50204   2.883  26.867  14.235
78622W        W50205  31.877  32.906  12.144
78623W        W50206  17.705  28.485   1.008
78624W        W50207  41.077   9.896   4.511
78625W        W50208  23.668  27.075   2.687
78626W        W50209   2.688  22.197  11.853
78627W        W50210  13.858  27.478   0.945
78628W        W50211  22.786  13.773  13.870
78629W        W50212  31.437  27.935   0.459
78630W        W50213  43.689  13.205  10.725
78631W        W50214  16.698  25.442   3.602
78632W        W50215  34.853  34.713  11.599
78633W        W50216  26.544   8.199  13.361
78634W        W50217  19.799   0.859   2.307
78635W        W50218  24.080  30.046   2.102
78636W        W50219  36.590  44.744  13.364
78637W        W50220   6.186  23.725  13.374
78638W        W50221  15.776  25.170  11.440
78639W        W50222  12.825  13.554   3.848
78640W        W50223  38.005  18.247   3.660
78641W        W50224  17.568  35.831   0.699
78642W        W50225  23.624  33.805   4.445
78643W        W50226  20.309  17.363  13.535
78644W        W50227  28.437   7.937  12.941
78645W        W50228   4.174  42.398   3.624
78646W        W50229   8.613  37.428  14.490
78647W        W50230  33.049   8.132  13.882
78648W        W50231  22.703  15.565   4.849
78649W        W50232  10.279  13.817  11.668
78650W        W50233   2.999  20.117   1.723
78651W        W50234  43.976  23.810   3.021
78652W        W50235  20.771  44.217  11.606
78653W        W50236  33.633  24.967  14.095
78654W        W50237  28.599  34.801   5.109
78655W        W50238  17.219  44.661  12.136
78656W        W50239  24.154  13.775  11.795
78657W        W50240   1.115   6.849  11.897
78658W        W50241  43.409  11.363  13.372
78659W        W50242  24.761  20.399   3.855
78660W        W50243  37.898  11.815   3.196
78661W        W50244  37.603  20.245  10.639
78662W        W50245   3.633  34.430   0.387
78663W        W50246   8.120  10.267   1.866
78664W        W50247  42.902  38.909   3.151
78665W        W50248   2.786  43.997  10.748
78666W        W50249  40.159  36.109  12.319
78667W        W50250   2.144  30.621  11.194
78668W        W50251  44.882   7.892  12.286
78669W        W50252  10.977  34.373  14.471
78670W        W50253  37.002   5.948   3.374
78671W        W50254   9.682  24.146   0.968
78672W        W50255  25.169   3.845   4.477
78673W        W50256  13.939  22.241   4.052
78674W        W50257  41.831  39.168   1.356
78675W        W50258   3.364   0.191   1.162
78676W        W50259  29.237  39.212   4.134
78677W        W50260   0.107  24.165  13.893
78678W        W50261   6.911  24.643   2.461
78679W        W50262  32.537  33.141   1.370
78680W        W50263  37.601   2.467   3.199
78681W        W50264  33.619   3.731  11.528
78682W        W50265  12.895  40.396   4.650
78683W        W50266  14.884  38.303  13.274
78684W        W50267  41.306   3.760  10.757
78685W        W50268  27.428   2.959   1.797
78686W        W50269  34.009  11.188   2.183
78687W        W50270   9.763  27.054   1.788
78688W        W50271  11.169  21.042  13.944
78689W        W50272  34.053  26.824  11.901
78690W        W50273  20.892  35.079  11.223
78691W        W50274   8.075  31.469   1.738
78692W        W50275  37.779   2.880   1.228
78693W        W50276  10.699  37.331  10.476
78694W        W50277  12.771   7.884   2.414
78695W        W50278  23.190  24.257   1.947
78696W        W50279  33.342  14.357   1.381
78697W        W50280  22.800  38.872   3.586
78698W        W50281  10.713   3.436   3.107
78699W        W50282  30.987  40.564   3.791
78700W        W50283  41.858  25.484   1.690
78701W        W50284  42.225  13.882   0.966
78702W        W50285   9.219  38.523  12.547
78703W        W50286  19.229  30.457  11.881
78704W        W50287   5.075  28.944   0.188
78705W        W50288  27.150  28.392  12.881
78706W        W50289  23.209  31.115   5.141
78707W        W50290  15.752   6.285  13.927
78708W        W50291   3.761  19.165  14.593
78709W        W50292   9.145  20.789  13.687
78710W        W50293   2.431  26.242   4.181
78711W        W50294  30.604  42.285   3.399
78712W        W50295  32.073  40.982  14.783
78713W        W50296  18.769  29.456  11.107
78714W        W50297  38.415  26.260   2.854
78715W        W50298   9.965  35.840  11.630
78716W        W50299  34.913  37.842  11.930
78717W        W50300  26.091  13.239  11.845
78718W        W50301  11.195  21.299  10.837
78719W        W50302  42.436  16.541  13.390
78720W        W50303   8.335  43.305   1.331
78721W        W50304  41.787   6.175   1.193
78722W        W50305  43.170  15.567  12.531
78723W        W50306  14.896  25.541   4.263
78724W        W50307  26.984  23.994  13.539
78725W        W50308  28.838  43.947  11.207
78726W        W50309  35.395  17.071  13.903
78727W        W50310  20.581  21.278  13.092
78728W        W50311  41.568   0.263   3.382
78729W        W50312  27.172  27.763  13.272
78730W        W50313  35.832  16.229  11.186
78731W        W50314  29.851  20.705   1.798
78732W        W50315  29.135   5.179  13.820
78733W        W50316   3.407  33.280   5.002
78734W        W50317  18.101  42.802  12.491
78735W        W50318  11.781  15.803  12.932
78736W        W50319  37.969  41.087   0.989
78737W        W50320  12.333  41.268   4.558
78738W        W50321  12.683  27.969  11.566
78739W        W50322  15.363  32.489   2.803
78740W        W50323  33.844   7.991  14.286
78741W        W50324   6.986   0.625  11.198
78742W        W50325  41.717  14.672  13.387
78743W        W50326  35.074   3.903  12.550
78744W        W50327  19.257  12.203  11.601
78745W        W50328   2.412  17.647  10.660
78746W        W50329  15.642  40.471   5.030
78747W        W50330  38.487   4.477   3.802
78748W        W50331  28.463  42.764   3.978
78749W        W50332  39.122   8.236   5.063
78750W        W50333  26.665  35.139   1.073
78751W        W50334  18.418   7.453  12.026
78752W        W50335  40.338  36.066   1.342
78753W        W50336  42.666   4.017  11.137
78754W        W50337  22.793   6.172   2.235
78755W        W50338  15.188  26.118  12.146
78756W        W50339   9.328  17.526   0.804
78757W        W50340  28.998  30.659   4.709
78758W        W50341  15.744  40.830   4.452
78759W        W50342  15.297  13.148  11.399
78760W        W50343  38.479  25.923   3.325
78761W        W50344  27.702   8.922  12.352
78762W        W50345  33.116  38.024  10.959
78763W        W50346   5.843  29.772   1.710
78764W        W50347  24.207  25.169  12.479
78765W        W50348   1.420  15.875  14.521
78766W        W50349   7.405  33.502   2.808
78767W        W50350   8.260  42.829  12.692
78768W        W50351  11.945  39.655   1.135
78769W        W50352  24.451  12.094  14.329
78770W        W50353  12.392   2.280   4.705
78771W        W50354  28.546  12.090   0.300
78772W        W50355  13.394  41.860   1.446
78773W        W50356  17.897  35.952  11.722
78774W        W50357  39.868   8.135   4.990
78775W        W50358   8.181  21.749  14.157
78776W        W50359   6.659  17.214   3.539
78777W        W50360   1.214  23.190   0.086
78778W        W50361  34.659  35.842  14.298
78779W        W50362  43.989  18.934  12.918
78780W        W50363  43.029  28.145  12.715
78781W        W50364  16.477  29.928  11.224
78782W        W50365  20.743  16.808  11.395
78783W        W50366  25.968  32.298  12.105
78784W        W50367  36.108   3.827  12.534
78785W        W50368   8.189  39.885   4.625
78786W        W50369  34.289   3.941   0.669
78787W        W50370  35.950  23.262   0.379
78788W        W50371   9.150  28.605   3.066
78789W        W50372  18.741  23.807  14.065
78790W        W50373   3.916  13.379   2.449
78791W        W50374  40.229  15.337   2.406
78792W        W50375  35.355   4.687   4.196
78793W        W50376  42.470  28.051   2.912
78794W        W50377   6.504  28.594   2.692
78795W        W50378  36.341  41.434   0.279
78796W        W50379   9.911  17.157   3.902
78797W        W50380   2.237   3.774   1.959
78798W        W50381  15.071  44.371   4.185
78799W        W50382  44.987  34.375   1.065
78800W        W50383  24.195   5.676   2.119
78801W        W50384   0.254   3.863  14.061
78802W        W50385   9.303  14.841  14.247
78803W        W50386  31.664  29.043  14.416
78804W        W50387  14.240   8.773   2.132
78805W        W50388  27.745  17.297   4.995
78806W        W50389  10.932  24.647   2.351
78807W        W50390   3.645   0.789   2.784
78808W        W50391  30.479  15.687  11.467
78809W        W50392  17.798   9.158   3.645
78810W        W50393  22.218  29.630   1.403
78811W        W50394  27.037  24.518   0.238
78812W        W50395  35.393   8.450  13.154
78813W        W50396  10.337  12.813   0.265
78814W        W50397  35.517  36.170   3.250
78815W        W50398  15.723  40.463   3.129
78816W        W50399   6.166  28.661  11.591
78817W        W50400  22.499  17.534   5.056
78818W        W50401  15.768  36.267   5.002
78819W        W50402  30.151  18.646   3.901
78820W        W50403  20.625  43.769   4.620
78821W        W50404  40.603  29.452   1.852
78822W        W50405   3.141  18.300  12.350
78823W        W50406  20.074  30.248   4.921
78824W        W50407  34.181   6.522  11.407
78825W        W50408  28.817  18.065   1.940
78826W        W50409  19.286  21.702  10.759
78827W        W50410  42.412   1.853   4.803
78828W        W50411   8.315   1.840   3.809
78829W        W50412  38.999  11.204   2.747
78830W        W50413  10.664   4.991   1.909
78831W        W50414  12.875  42.545   1.247
78832W        W50415  33.050  35.682  14.331
78833W        W50416   2.442   7.734   1.272
78834W        W50417  32.425  21.454   0.695
78835W        W50418  12.890  24.783  14.033
78836W        W50419  23.271  31.978  13.425
78837W        W50420  21.980  22.209  13.044
78838W        W50421  22.590  24.947  14.933
78839W        W50422  11.335  28.399   4.094
78840W        W50423  25.658   9.946   0.512
78841W        W50424   0.755  35.081  14.782
78842W        W50425  13.151  21.245   0.699
78843W        W50426  29.005  18.617   1.829
78844W        W50427   4.230  28.711  12.021
78845W        W50428   8.319  21.868   3.264
78846W        W50429  28.464  32.501  11.130
78847W        W50430   8.383   7.730  10.691
78848W        W50431  16.809  41.505  13.010
78849W        W50432   8.102   9.415   2.754
78850W        W50433   1.996  37.515  13.380
78851W        W50434  29.906  43.611  13.946
78852W        W50435  28.644  42.607   4.434
78853W        W50436  17.135  16.317   1.873
78854W        W50437   6.822  11.829   0.279
78855W        W50438  21.116  42.063  13.807
78856W        W50439  32.053   2.637  11.610
78857W        W50440   5.306  12.346  13.382
78858W        W50441  13.983  28.235  11.142
78859W        W50442  40.322  41.701   2.772
78860W        W50443  21.272  28.488   1.725
78861W        W50444  19.594   0.329   0.247
78862W        W50445  18.314  35.102   2.293
78863W        W50446  17.441  27.552   3.763
78864W        W50447  20.073  32.029   3.765
78865W        W50448  35.936   0.077  12.456
78866W        W50449  30.870   7.526   4.589
78867W        W50450  43.922  38.410  10.476
78868W        W50451  25.526   5.988  13.916
78869W        W50452  32.158   5.459  11.533
78870W        W50453  38.415  26.056   2.351
78871W        W50454   4.733  30.689   2.280
78872W        W50455   5.175  30.089  14.796
78873W        W50456   2.942  40.948  13.608
78874W        W50457  42.538  40.475  10.752
78875W        W50458  23.312   4.955  13.511
78876W        W50459  27.088  22.642  11.335
78877W        W50460  15.839  16.274   0.234
78878W        W50461  18.538   4.857   2.700
78879W        W50462  30.448  35.465  13.720
78880W        W50463  42.851  39.001  14.440
78881W        W50464  12.787  21.114  10.944
78882W        W50465   6.889  26.922  12.030
78883W        W50466  33.609  22.670   3.348
78884W        W50467   0.900   9.501   3.967
78885W        W50468  22.648  24.230   1.066
78886W        W50469  31.905  12.661  10.404
78887W        W50470  23.404  19.040  12.200
78888W        W50471   0.296   7.163  13.842
78889W        W50472   8.929  29.175  12.779
78890W        W50473  16.675   9.212  11.988
78891W        W50474  30.327   9.224  12.853
78892W        W50475  25.550  35.860   0.960
78893W        W50476  25.701  43.430   4.651
78894W        W50477   3.789   3.538   3.538
78895W        W50478  21.085   3.496   0.873
78896W        W50479  30.638  16.807  10.712
78897W        W50480  22.979  21.853  11.238
78898W        W50481  28.642   6.602  11.216
78899W        W50482  24.983  25.507  14.508
78900W        W50483  12.170  22.711  12.604
78901W        W50484  40.923  18.634   3.295
78902W        W50485  18.673  44.444   2.897
78903W        W50486  20.170  21.142   3.499
78904W        W50487  31.586  32.065   1.398
78905W        W50488  42.121  41.421  11.274
78906W        W50489  34.274  10.138  14.969
78907W        W50490  43.501  34.619   2.222
78908W        W50491  43.415  20.004   1.833
78909W        W50492  18.148  42.005   0.374
78910W        W50493  26.519  11.744  11.659
78911W        W50494  19.774   0.710   0.779
78912W        W50495   8.460  20.253   0.374
78913W        W50496  28.882   2.420   1.662
78914W        W50497  39.805  20.720  13.658
78915W        W50498  29.210  42.985  11.221
78916W        W50499  34.600  19.457   3.737
78917W        W50500   9.727   2.498   2.381
78918W        W50501  37.969   3.638  12.607
78919W        W50502   5.261  29.625   3.149
78920W        W50503  11.835  12.594   0.506
78921W        W50504  31.456  43.010  13.974
78922W        W50505  36.544  40.315   2.704
78923W        W50506   9.135  27.063   0.760
78924W        W50507   5.606  25.502   3.762
78925W        W50508  41.480  22.713  14.685
78926W        W50509   0.698  28.918  11.903
78927W        W50510  43.963  32.578   2.627
78928W        W50511  35.372  34.997  13.402
78929W        W50512  10.369  12.575   4.657
78930W        W50513  29.599  37.617   3.690
78931W        W50514  16.378  10.433   0.987
78932W        W50515   6.952   6.708   2.238
78933W        W50516  36.888  39.148   4.160
78934W        W50517  20.052  14.646  12.004
78935W        W50518  15.284  20.300  10.767
78936W        W50519  37.845  40.419   2.743
78937W        W50520  14.317  39.700   2.861
78938W        W50521  12.536   4.982  12.906
78939W        W50522  35.820  11.814   4.172
78940W        W50523  21.097  31.724  13.611
78941W        W50524   1.961   4.907  11.392
78942W        W50525  17.229  32.941  12.279
78943W        W50526  32.889  19.983   0.716
78944W        W50527  26.552   9.918   2.950
78945W        W50528  14.657   3.828  11.997
78946W        W50529   2.985  38.693  11.952
78947W        W50530   8.108  19.606  12.607
78948W        W50531  17.634  44.418  13.527
78949W        W50532  35.540  30.860   3.822
78950W        W50533  39.600  14.037   2.777
78951W        W50534  28.367  22.693  11.079
78952W        W50535  43.284   3.287  14.400
78953W        W50536  23.514  11.682   0.855
78954W        W50537  32.065  24.882  10.424
78955W        W50538  39.530  35.989   4.582
78956W        W50539  16.913  16.506  10.346
78957W        W50540   7.358   9.669  13.963
78958W        W50541  23.994  40.009  13.313
78959W        W50542  17.081  37.575  11.564
78960W        W50543   4.244  24.777  12.324
78961W        W50544  15.610  17.145   1.912
78962W        W50545  18.346  35.303   5.008
78963W        W50546   7.321  26.570  12.999
78964W        W50547   9.298   4.306   3.680
78965W        W50548  35.982   2.436   2.888
78966W        W50549   5.422  34.569   3.225
78967W        W50550   2.766  38.596  10.697
78968W        W50551  29.768  31.637  13.369
78969W        W50552  38.162  28.596  10.690
78970W        W50553  12.743   2.076  14.857
78971W        W50554   9.397   4.785  14.505
78972W        W50555   4.394   7.499  14.685
78973W        W50556  28.693   2.021  13.090
78974W        W50557  15.729  37.369   4.163
78975W        W50558  30.367  21.551  11.059
78976W        W50559  10.360  41.041   1.792
78977W        W50560  38.710  28.740  12.417
78978W        W50561  12.395   7.245  13.752
78979W        W50562  11.287  25.149   3.874
78980W        W50563  34.008  31.405  11.665
78981W        W50564  35.948  13.284   0.835
78982W        W50565  12.057  17.085  12.296
78983W        W50566  12.124  36.172   2.895
78984W        W50567  20.784   3.327  12.029
78985W        W50568   5.494  28.909   1.823
78986W        W50569  37.545  16.574  14.378
78987W        W50570  29.838  38.999  13.008
78988W        W50571   5.785  36.485  11.225
78989W        W50572   5.342  36.569  11.003
78990W        W50573  21.237  20.327   3.537
78991W        W50574  25.183  29.118   1.723
78992W        W50575   5.514  24.306  12.518
78993W        W50576  36.819   2.854  12.930
78994W        W50577  12.079  43.039  14.982
78995W        W50578  32.993   7.618  13.745
78996W        W50579  39.686  25.889  13.556
78997W        W50580  11.395  37.557   4.042
78998W        W50581  15.131   1.266  11.032
78999W        W50582   7.802   5.717  14.270
79000W        W50583   2.745   1.238  13.026
79001W        W50584   2.768  13.776   0.162
79002W        W50585   6.297  25.517  10.670
79003W        W50586  12.588  22.521   0.005
79004W        W50587  40.349  44.860  13.849
79005W        W50588   8.231  42.009  13.078
79006W        W50589   4.027  38.119   2.764
79007W        W50590  26.220   9.772   2.239
79008W        W50591  37.458  18.339  13.878
79009W        W50592  31.993   9.881  13.423
79010W        W50593   7.057  42.472  13.306
79011W        W50594  25.735  40.087   0.430
79012W        W50595  11.279  34.492   1.968
79013W        W50596  24.523  34.114   0.685
79014W        W50597  23.220  35.050  11.294
79015W        W50598  23.290  24.759  12.633
79016W        W50599  15.213  10.757   1.430
79017W        W50600  19.601   9.583   3.299
79018W        W50601  40.102  32.670   2.680
79019W        W50602  13.700   5.949  11.222
79020W        W50603  38.558  43.008   4.624
79021W        W50604  17.630  43.575  10.994
79022W        W50605  23.983   3.653  11.622
79023W        W50606  37.816   1.068   0.832
79024W        W50607  29.234  20.152   1.310
79025W        W50608  27.680  32.566  14.791
79026W        W50609  24.361  25.251   4.134
79027W        W50610  42.865  42.656   4.941
79028W        W50611   4.646  44.870   4.735
79029W        W50612  38.519  13.051   0.861
79030W        W50613   8.278  22.728  13.547
79031W        W50614   3.094   4.126  11.207
79032W        W50615  18.609   3.868   0.262
79033W        W50616   0.212   8.623  12.912
79034W        W50617  20.815  13.812  13.942
79035W        W50618   5.744  34.843  11.135
79036W        W50619  13.250  38.018   3.272
79037W        W50620  23.001  21.678   0.809
79038W        W50621  32.374  38.645  11.107
79039W        W50622   9.177  28.169   2.179
79040W        W50623   2.810  16.323  10.937
79041W        W50624  24.863   7.852  11.121
79042W        W50625  22.014  13.719   4.032
79043W        W50626  31.125  30.123   1.401
79044W        W50627  42.516  23.943  12.902
79045W        W50628   2.434  23.628  11.663
79046W        W50629  15.758  34.384   4.608
79047W        W50630  41.322  11.640  13.829
79048W        W50631  22.203  29.601  14.999
79049W        W50632  36.180   7.647  14.698
79050W        W50633  34.253  25.996  13.909
79051W        W50634  15.086   4.744   2.279
79052W        W50635  40.325  13.845  11.226
79053W        W50636  24.435  35.664  13.173
79054W        W50637  28.076  41.352  14.362
79055W        W50638  27.909  19.523  13.522
79056W        W50639  28.484  40.031  14.298
79057W        W50640  20.823  43.642  12.921
79058W        W50641   6.114  33.510  10.621
79059W        W50642  15.073  23.765  14.425
79060W        W50643   5.951  17.295   4.036
79061W        W50644  35.039  20.170  13.526
79062W        W50645   2.675  31.469  12.502
79063W        W50646  40.930  12.786   4.086
79064W        W50647  18.259  41.890  11.833
79065W        W50648  13.617  17.434  12.067
79066W        W50649  18.860  18.219   4.128
79067W        W50650  15.681   7.256  14.876
79068W        W50651  43.243  13.234   2.176
79069W        W50652  10.450   0.904   3.118
79070W        W50653  14.658  14.889  12.376
79071W        W50654  14.645  42.794   0.541
79072W        W50655   6.343   9.926   4.243
79073W        W50656  40.716  34.143  12.870
79074W        W50657   3.645  19.923   3.881
79075W        W50658  44.028  43.825  10.817
79076W        W50659  30.515  28.207   3.663
79077W        W50660  34.865  36.636  13.617
79078W        W50661  13.356   8.401  14.113
79079W        W50662  30.762   7.413  14.676
79080W        W50663  18.308  20.320   1.813
79081W        W50664  27.690  34.860   3.262
79082W        W50665  18.799   8.216  13.422
79083W        W50666  17.266  43.043  11.127
79084W        W50667  14.290  22.654   2.666
79085W        W50668  17.603   7.131   1.508
79086W        W50669  26.431  16.765   2.394
79087W        W50670  17.526  32.935  10.658
79088W        W50671  41.509  33.277  13.306
79089W        W50672  32.418  13.135   1.907
79090W        W50673   7.749   4.887  10.784
79091W        W50674  11.887  42.571  12.827
79092W        W50675  15.898   1.322  12.525
79093W        W50676   7.850  24.974   1.160
79094W        W50677  34.511  39.776  11.870
79095W        W50678  19.152   5.653   4.565
79096W        W50679  38.362  18.098   2.790
79097W        W50680  10.646   2.297   3.713
79098W        W50681  22.897  34.839  12.139
79099W        W50682  18.628  37.120   1.205
79100W        W50683  44.837  24.122   3.054
79101W        W50684  13.571  22.114  14.315
79102W        W50685   4.417   7.338   4.796
79103W        W50686   9.726  14.075   1.314
79104W        W50687   3.442  38.359  13.984
79105W        W50688  11.308  16.583  12.070
79106W        W50689  40.682  10.924   3.123
79107W        W50690  33.088  31.375  10.735
79108W        W50691   2.681  29.767  14.865
79109W        W50692  12.209  41.846  13.863
79110W        W50693  11.085   5.378  11.897
79111W        W50694  12.366   8.150   2.781
79112W        W50695   7.997  41.504   1.351
79113W        W50696  39.957  20.202  12.082
79114W        W50697  26.021   9.050  12.066
79115W        W50698   8.187  26.471  11.926
79116W        W50699  11.882  12.003  12.888
79117W        W50700  38.482   1.210  12.063
79118W        W50701   7.713  37.707   1.830
79119W        W50702  37.914  37.413   0.833
79120W        W50703  43.094  11.028  13.892
79121W        W50704   9.206   5.255   4.087
79122W        W50705  26.148  17.758  12.895
79123W        W50706  24.046  19.566   3.731
79124W        W50707  36.688   9.702  10.922
79125W        W50708  31.216  42.860   4.649
79126W        W50709  10.395  12.655   2.205
79127W        W50710   7.874  19.679  13.154
79128W        W50711  25.238  15.495   0.504
79129W        W50712  11.905   1.451  12.835
79130W        W50713  21.306  30.049   3.979
79131W        W50714  44.335  16.179   3.532
79132W        W50715  26.973  12.714  14.999
79133W        W50716  29.725   2.788   0.515
79134W        W50717  18.563  10.627   1.768
79135W        W50718  44.758   4.836   4.146
79136W        W50719   4.256  35.450  11.558
79137W        W50720  22.657  30.209   3.912
79138W        W50721  19.320  32.067   0.004
79139W        W50722  18.660   0.236   0.338
79140W        W50723  22.677   1.725  12.878
79141W        W50724  32.428  26.605  11.443
79142W        W50725  38.518  20.489   0.009
79143W        W50726  30.401  24.739   0.947
79144W        W50727  24.736  22.712  14.375
79145W        W50728  10.679  12.276  10.713
79146W        W50729  28.941   8.511   5.051
79147W        W50730  20.154  14.061   5.007
79148W        W50731  20.832  40.360  14.939
79149W        W50732  33.031   7.342  12.348
79150W        W50733  43.132  13.336  11.560
79151W        W50734  38.043  27.433   4.179
79152W        W50735  34.952  26.174   1.828
79153W        W50736  22.830  43.777   0.985
79154W        W50737   9.645   5.325   1.536
79155W        W50738  36.068   8.291   0.923
79156W        W50739   8.121  41.505  12.993
79157W        W50740  26.508   6.256  14.576
79158W        W50741  22.569  20.347   4.374
79159W        W50742  15.013  30.105  10.492
79160W        W50743  29.975  34.877   2.764
79161W        W50744  21.030  31.323   4.624
79162W        W50745  44.761  40.376  11.048
79163W        W50746   5.248  25.754  14.048
79164W        W50747  41.842   5.272  12.438
79165W        W50748   7.162   1.404   3.306
79166W        W50749  26.909   7.913  13.954
79167W        W50750   3.054  44.908   0.370
79168W        W50751  24.232  34.698   1.190
79169W        W50752  25.598  18.526   4.737
79170W        W50753  10.222  10.086   2.284
79171W        W50754  38.460  20.792   4.557
79172W        W50755   5.273   3.711   4.086
79173W        W50756  14.086  11.404  11.210
79174W        W50757   8.131   1.047  11.856
79175W        W50758  37.027  11.208  13.383
79176W        W50759  38.070   6.106   1.941
79177W        W50760  16.226  23.274  13.541
79178W        W50761  24.339  15.393   1.020
79179W        W50762  34.863  35.116  13.380
79180W        W50763  44.251  26.096   0.408
79181W        W50764   7.960  36.006   1.457
79182W        W50765  30.154   7.504   3.388
79183W        W50766  33.653   6.672  13.890
79184W        W50767  21.216  15.903   3.259
79185W        W50768  21.188  33.557  10.923
79186W        W50769  41.561  14.173   3.721
79187W        W50770  37.872  13.483   0.157
79188W        W50771  38.874  26.098   4.313
79189W        W50772  28.120  33.990  13.430
79190W        W50773  29.989  25.198  13.552
79191W        W50774  11.753  23.098   2.700
79192W        W50775  32.335  27.915   0.889
79193W        W50776  27.546  39.856  10.987
79194W        W50777  16.145  38.917   4.311
79195W        W50778  39.475  22.669  14.280
79196W        W50779  30.433   0.970   4.587
79197W        W50780  10.720  42.754   4.131
79198W        W50781   6.139  13.776   1.501
79199W        W50782  43.217  39.343  13.622
79200W        W50783   6.407  28.766   4.065
79201W        W50784  21.733  17.465   4.147
79202W        W50785  12.403  35.906   0.054
79203W        W50786  27.413  34.365   0.901
79204W        W50787  44.543  24.877  12.838
79205W        W50788  34.161  16.633   3.217
79206W        W50789  31.013  13.862  14.047
79207W        W50790  40.106  34.019  11.017
79208W        W50791  26.148  20.531  10.871
79209W        W50792   0.829  34.365  12.899
79210W        W50793   3.008  35.796  10.185
79211W        W50794  27.485  16.623  14.256
79212W        W50795  24.024  29.112   0.318
79213W        W50796  41.981   6.471   0.823
79214W        W50797  24.545  11.357  11.758
79215W        W50798  39.487  22.537  10.790
79216W        W50799   8.712   3.568   0.018
79217W        W50800   4.346   1.661   4.569
79218W        W50801  21.989  41.819  11.144
79219W        W50802  32.433  24.586   1.962
79220W        W50803  16.008  12.319  10.564
79221W        W50804  36.132  10.656   0.080
79222W        W50805  34.539  28.625  12.934
79223W        W50806   6.657  15.317   0.785
79224W        W50807  32.475  16.365  14.160
79225W        W50808  36.629  29.602   0.372
79226W        W50809  19.161  31.847   1.273
79227W        W50810   7.115   7.119   2.870
79228W        W50811  33.664  20.302   3.314
79229W        W50812   5.700  43.185  14.350
79230W        W50813   7.386  36.249   4.891
79231W        W50814  42.887  26.383  12.030
79232W        W50815  13.302  36.135  12.035
79233W        W50816  14.198  33.178   1.686
79234W        W50817  30.263  14.052  13.529
79235W        W50818   7.266  11.269   4.836
79236W        W50819   1.048  27.636  14.688
79237W        W50820  34.046  33.746  10.192
79238W        W50821   6.132  31.679  14.430
79239W        W50822  19.752   4.742   0.858
79240W        W50823  41.529  31.178   0.442
79241W        W50824  18.651  25.738   0.373
79242W        W50825   4.338   6.925  10.566
79243W        W50826  16.325  12.830   4.627
79244W        W50827  30.986  32.360  10.691
79245W        W50828  29.440  41.318  13.437
79246W        W50829  42.839  14.629   2.653
79247W        W50830  28.073   1.739   0.777
79248W        W50831  21.804  33.110   3.211
79249W        W50832   6.792  11.176   2.687
79250W        W50833  39.971  37.424   1.857
79251W        W50834  21.753  26.858   2.338
79252W        W50835  26.512   2.724   1.232
79253W        W50836  19.107  40.946   2.958
79254W        W50837  44.440  11.083   0.672
79255W        W50838  25.806  38.013  12.466
79256W        W50839  24.961  10.219  10.501
79257W        W50840  29.416  37.153  11.177
79258W        W50841  20.861  18.632   4.740
79259W        W50842  26.264  12.606   0.335
79260W        W50843  38.383  32.711   2.431
79261W        W50844  16.063  14.285  12.064
79262W        W50845  25.487   0.243   1.204
79263W        W50846  38.484  32.612  11.625
79264W        W50847  19.101  28.489  14.339
79265W        W50848  32.516  32.073   3.265
79266W        W50849  18.710   4.710  14.921
79267W        W50850   8.115  20.625  13.411
79268W        W50851  31.062   6.838  11.632
79269W        W50852  35.158  18.296  12.589
79270W        W50853  34.638  17.166   0.727
79271W        W50854  34.461  15.695  13.788
79272W        W50855  20.554  19.997  14.792
79273W        W50856  11.082  12.363  12.540
79274W        W50857  18.287  41.036  11.087
79275W        W50858  35.930  25.977   2.448
79276W        W50859  38.018   2.767   4.650
79277W        W50860  30.910  19.173   5.217
79278W        W50861   4.330  14.231  14.943
79279W        W50862  15.423  14.918   3.849
79280W        W50863   5.921  23.258   4.527
79281W        W50864  31.214   3.437  14.762
79282W        W50865  25.217  28.015   4.508
79283W        W50866   5.217  29.137  14.674
79284W        W50867  37.017  39.080  14.147
79285W        W50868  16.276  33.208  10.634
79286W        W50869  39.807  41.290  11.627
79287W        W50870  33.169  27.515   3.208
79288W        W50871  20.238  17.559   1.442
79289W        W50872  36.718  10.832  12.477
79290W        W50873  17.129  27.487  12.801
79291W        W50874   6.525  20.159   3.604
79292W        W50875  42.056  30.120  14.561
79293W        W50876  38.568   7.645   4.196
79294W        W50877  43.029  21.586  12.988
79295W        W50878  29.557  43.408   2.316
79296W        W50879   0.872   1.436   0.021
79297W        W50880   3.138   3.886   3.621
79298W        W50881  42.589  42.104   0.380
79299W        W50882  28.449  28.211   1.477
79300W        W50883   2.317  41.714  10.579
79301W        W50884  41.801   2.260  11.156
79302W        W50885  19.985   5.939   2.731
79303W        W50886  23.473  13.890   0.360
79304W        W50887  19.212  22.173   1.693
79305W        W50888  43.871   3.032   0.383
79306W        W50889   1.243  40.117   1.894
79307W        W50890  29.584  34.057   5.310
79308W        W50891  32.958  26.939  14.445
79309W        W50892  41.882   0.564   2.603
79310W        W50893   1.943   1.193   2.058
79311W        W50894   2.025  42.819   1.014
79312W        W50895  22.931  24.004  10.884
79313W        W50896  11.562  34.154  13.505
79314W        W50897  16.608   5.788   4.637
79315W        W50898   6.682  11.814  11.910
79316W        W50899  15.980  33.345  13.560
79317W        W50900  33.519  18.161   1.969
79318W        W50901   0.308  27.169  11.177
79319W        W50902  17.150  29.752  12.490
79320W        W50903   0.254  16.176   2.517
79321W        W50904   3.019  10.884   2.805
79322W        W50905  21.155  25.533  11.115
79323W        W50906  43.506  41.805   0.280
79324W        W50907  12.718  32.055  13.399
79325W        W50908   3.176  34.395   1.235
79326W        W50909   5.275  30.413   0.216
79327W        W50910  33.097  12.229  12.099
79328W        W50911  43.094  16.754  12.638
79329W        W50912  31.361  37.846  12.396
79330W        W50913  11.405   7.826   0.491
79331W        W50914  18.686  34.117  10.932
79332W        W50915  43.209  11.998  11.583
79333W        W50916   7.777   7.801   4.136
79334W        W50917  17.180  16.265  14.553
79335W        W50918  19.924  36.981  12.921
79336W        W50919   4.436  35.657  12.006
79337W        W50920  30.181  38.874   2.645
79338W        W50921  43.592  33.414  12.426
79339W        W50922   2.445  20.235  11.633
79340W        W50923  29.515  15.862  14.498
79341W        W50924  26.444  40.399  12.565
79342W        W50925  19.687   4.189  12.970
79343W        W50926  37.051  35.094   2.202
79344W        W50927  34.487  42.942  13.971
79345W        W50928  19.178  20.612   0.090
79346W        W50929   4.695  34.643   0.342
79347W        W50930  34.146  14.811   1.292
79348W        W50931  44.870  30.176   1.296
79349W        W50932  42.470  21.496  12.993
79350W        W50933  41.239  18.669  11.173
79351W        W50934  20.329  30.514   2.811
79352W        W50935  38.832  30.141  11.251
79353W        W50936  13.136  13.119  13.512
79354W        W50937  18.303  17.822   0.315
79355W        W50938  39.081  25.808  11.313
79356W        W50939  20.511  14.402  11.991
79357W        W50940  19.666  11.629  11.096
79358W        W50941  37.633  14.367  11.622
79359W        W50942  31.977  20.057  10.514
79360W        W50943   9.235  39.501  13.181
79361W        W50944   8.134  27.698  14.294
79362W        W50945  27.877  24.152   3.793
79363W        W50946  29.943  16.665  13.016
79364W        W50947  37.512  15.827   3.752
79365W        W50948  34.136   1.148   1.896
79366W        W50949  10.300   2.253   1.163
79367W        W50950  19.533  44.436  13.541
79368W        W50951  12.743   1.689   1.850
79369W        W50952   8.714  26.072   4.361
79370W        W50953  15.496  18.010  13.312
79371W        W50954   3.239  15.223   4.624
79372W        W50955  10.763  26.483   0.702
79373W        W50956  25.465  26.365   5.130
79374W        W50957  43.996  12.911   3.612
79375W        W50958  40.335  19.772   1.295
79376W        W50959  17.186   4.487  10.889
79377W        W50960  16.533   2.747  14.395
79378W        W50961  16.223  34.298   4.992
79379W        W50962  13.435  17.243  14.263
79380W        W50963  40.962  11.295   3.422
79381W        W50964   4.059  10.291  14.513
79382W        W50965  23.057  37.997  12.609
79383W        W50966   3.491  11.679   5.267
79384W        W50967  15.635   1.674  12.796
79385W        W50968  23.922  15.047  11.231
79386W        W50969  22.112  19.296   4.537
79387W        W50970  15.287  29.519  14.888
79388W        W50971  18.869  10.551   2.949
79389W        W50972   2.822  25.733   0.469
79390W        W50973   4.887   2.866   1.745
79391W        W50974   1.450   7.881   3.520
79392W        W50975  12.469  31.830   4.370
79393W        W50976   4.515  31.606  13.554
79394W        W50977  26.234  20.715   1.334
79395W        W50978  44.873  42.073   4.602
79396W        W50979  33.562  26.025   3.249
79397W        W50980   1.149  30.563  11.093
79398W        W50981  37.835  18.532   0.695
79399W        W50982  26.972  39.085  14.990
79400W        W50983   8.258  44.366  11.996
79401W        W50984   9.143  11.911   2.406
79402W        W50985  23.746  40.282  12.942
79403W        W50986  10.763  24.517  12.097
79404W        W50987   3.763  33.381   2.273
79405W        W50988  32.580  19.080   2.255
79406W        W50989  24.030  22.196   2.895
79407W        W50990  26.227  39.809  14.914
79408W        W50991  32.001  41.025   2.808
79409W        W50992  21.384  20.330   9.656
79410W        W50993  26.733   2.771   3.772
79411W        W50994  14.735  26.133  13.202
79412W        W50995  39.814   5.459   9.793
79413W        W50996  43.366   7.903   0.904
79414W        W50997  30.477  23.762  14.726
79415W        W50998  23.710  29.921  12.005
79416W        W50999  31.599   3.723   0.374
79417W        W51000  27.401  41.925   3.880
79418W        W51001  36.392  31.577   0.050
79419W        W51002  21.985  25.558   0.061
79420W        W51003  22.228  39.796  11.617
79421W        W51004   4.361  30.454   2.811
79422W        W51005  11.873  38.531  13.390
79423W        W51006  20.104   1.367  13.041
79424W        W51007  31.165  27.426  13.966
79425W        W51008  41.056  12.540  11.129
79426W        W51009  13.998  16.566  12.873
79427W        W51010  22.867   9.062  14.447
79428W        W51011   3.210  16.143   2.657
79429W        W51012   0.261  30.807   1.628
79430W        W51013  42.426  29.566   4.049
79431W        W51014  43.513  16.835  13.590
79432W        W51015  32.263  31.361  11.137
79433W        W51016   3.382   5.263   0.876
79434W        W51017   2.250  23.904   4.615
79435W        W51018  18.878   4.941  12.062
79436W        W51019   4.712  26.653   2.783
79437W        W51020  27.989   7.280  10.687
79438W        W51021   1.390   0.453   1.696
79439W        W51022  10.401  14.638  12.067
79440W        W51023  10.841  30.638  12.394
79441W        W51024  11.195   3.989  14.814
79442W        W51025   6.304   6.424  14.357
79443W        W51026  40.112   8.910   1.857
79444W        W51027   7.362  42.356   4.928
79445W        W51028  27.097  44.330   4.710
79446W        W51029  31.335  22.169   0.453
79447W        W51030  41.633  42.720   2.358
79448W        W51031  22.718  35.323   1.363
79449W        W51032  42.945  10.996   4.040
79450W        W51033  18.427  23.103  11.899
79451W        W51034  22.839   7.408   3.088
79452W        W51035  37.869  30.542   4.210
79453W        W51036  14.370  30.899   4.248
79454W        W51037   7.792   7.281   4.843
79455W        W51038   6.873  40.561  13.408
79456W        W51039  15.166   8.848  12.423
79457W        W51040  42.474  42.299   2.711
79458W        W51041   4.961  30.210   2.334
79459W        W51042  28.031  30.310   4.999
79460W        W51043   3.159  22.187  13.819
79461W        W51044  40.615  28.783  10.115
79462W        W51045   7.586  12.794  14.089
79463W        W51046   5.840  37.855   0.265
79464W        W51047  43.386  24.906   2.156
79465W        W51048  33.215  18.088   4.478
79466W        W51049  20.178  38.418   4.666
79467W        W51050  26.380  37.030  12.941
79468W        W51051  39.286  34.050  14.296
79469W        W51052  26.891  31.379  11.051
79470W        W51053  22.513  36.475   4.089
79471W        W51054  25.103  35.601  12.621
79472W        W51055  22.946   6.162   2.763
79473W        W51056   9.229  14.199   1.921
79474W        W51057   0.421  36.093  11.085
79475W        W51058  34.655  16.624   0.660
79476W        W51059  40.407  33.122  10.810
79477W        W51060  42.836  18.089  12.959
79478W        W51061  19.172   9.715   4.143
79479W        W51062   2.590  40.122  10.120
79480W        W51063  30.635  35.912  12.157
79481W        W51064  11.657   1.961   5.065
79482W        W51065  42.040  31.451   2.392
79483W        W51066  38.096  36.448  12.965
79484W        W51067   0.785  40.399   3.102
79485W        W51068  11.958  28.032  14.424
79486W        W51069  44.001  11.344   1.966
79487W        W51070  37.299  39.080  11.930
79488W        W51071  30.478  17.343  14.676
79489W        W51072  44.520  31.882  14.743
79490W        W51073  10.727  32.481  13.227
79491W        W51074  37.301  23.504   0.309
79492W        W51075  39.602  42.330  14.294
79493W        W51076   3.721  11.915   0.800
79494W        W51077  36.864   3.302  14.635
79495W        W51078  19.429  22.525  12.111
79496W        W51079  23.560  26.986   1.789
79497W        W51080  43.953  18.071   0.332
79498W        W51081   4.788   0.411  13.611
79499W        W51082  14.840  42.022   3.906
79500W        W51083   7.688   0.290   4.157
79501W        W51084  20.436  43.342  13.870
79502W        W51085  20.958  39.310  11.554
79503W        W51086  24.010  37.469   0.055
79504W        W51087  39.909  28.412  14.334
79505W        W51088  35.951  42.716  13.895
79506W        W51089  24.111   5.926  13.830
79507W        W51090  14.771  15.553   0.049
79508W        W51091  15.407   4.775   0.773
79509W        W51092  34.624   3.980   3.231
79510W        W51093  37.023  44.798  11.245
79511W        W51094  20.440  14.671  14.539
79512W        W51095  36.543   8.456   0.927
79513W        W51096  15.855  35.292   3.361
79514W        W51097  27.942  23.643  11.972
79515W        W51098  14.760  43.863  11.978
79516W        W51099  19.861  44.657  13.885
79517W        W51100  27.666  26.504   1.901
79518W        W51101  26.702   3.975   0.546
79519W        W51102   1.342  31.176   4.355
79520W        W51103  18.137   6.305  12.544
79521W        W51104   0.786  23.052  11.398
79522W        W51105  11.260  30.527  12.671
79523W        W51106  15.179  20.592   2.096
79524W        W51107  14.061  26.092  14.906
79525W        W51108  40.323   3.010   3.379
79526W        W51109  10.850  26.905   1.391
79527W        W51110  34.341  31.179  12.164
79528W        W51111  20.245  21.800  14.301
79529W        W51112  22.232  37.056  14.000
79530W        W51113  35.969  22.866   3.999
79531W        W51114  43.586  27.356  13.091
79532W        W51115  20.664  44.253  14.294
79533W        W51116  14.345  40.659   1.909
79534W        W51117  35.158   8.708   0.957
79535W        W51118  35.808  31.620  13.995
79536W        W51119  42.884  17.132   0.307
79537W        W51120  18.773  29.223  13.052
79538W        W51121   6.350  13.746   5.020
79539W        W51122  35.145  44.442  13.525
79540W        W51123  33.586  15.132   3.643
79541W        W51124  43.417  10.932  14.772
79542W        W51125  28.259   8.404  13.036
79543W        W51126  11.652  35.364  12.223
79544W        W51127  22.288   6.176   4.785
79545W        W51128  24.248  33.007  12.171
79546W        W51129  40.402  39.000   1.232
79547W        W51130  33.575  21.407   1.264
79548W        W51131   7.310   6.802   0.428
79549W        W51132   4.871  33.659  11.936
79550W        W51133  34.558  36.481   0.251
79551W        W51134  44.744  13.043   3.305
79552W        W51135   1.857  13.872   0.403
79553W        W51136  36.487  17.532  14.452
79554W        W51137   4.952   9.730   5.029
79555W        W51138  31.308   6.779   4.124
79556W        W51139  24.637  35.872  10.801
79557W        W51140   9.001  38.481  10.299
79558W        W51141  20.885   7.665   2.879
79559W        W51142  21.980   1.510   2.251
79560W        W51143  32.434  18.062   3.313
79561W        W51144   6.196   3.935   3.392
79562W        W51145   3.886  31.860  10.727
79563W        W51146  19.824  10.895   3.735
79564W        W51147  21.803   0.257   1.903
79565W        W51148   0.307  26.554   1.767
79566W        W51149  27.261  29.148  11.666
79567W        W51150  20.179  24.982   2.223
79568W        W51151   7.113  31.436  13.350
79569W        W51152  20.697  27.235   4.540
79570W        W51153  36.949  44.984   4.519
79571W        W51154  34.542  21.158   4.648
79572W        W51155  12.660  36.390  14.802
79573W        W51156  15.375  44.211  14.272
79574W        W51157  10.625  17.267   2.728
79575W        W51158  16.515   3.231   2.644
79576W        W51159  20.779  24.950  13.408
79577W        W51160  30.537  44.906   4.152
79578W        W51161  31.591   4.010   4.032
79579W        W51162  19.488  27.776   0.890
79580W        W51163   3.310  21.959  14.842
79581W        W51164   4.493  20.376  11.260
79582W        W51165   5.691  17.301   1.832
79583W        W51166   5.435  17.598  11.390
79584W        W51167  19.472  14.069  13.984
79585W        W51168  44.499  28.549  12.083
79586W        W51169  13.245  23.952  11.166
79587W        W51170  14.740   9.632  10.652
79588W        W51171  35.129  13.129   2.679
79589W        W51172  25.647   8.144  12.869
79590W        W51173   3.701  17.796   4.061
79591W        W51174   4.433  28.951   3.318
79592W        W51175   1.746  33.366   4.635
79593W        W51176  39.499   7.580  13.423
79594W        W51177  43.017  27.556   3.976
79595W        W51178  34.577  20.319  14.712
79596W        W51179  33.073   8.933  11.537
79597W        W51180  12.143  39.503   3.632
79598W        W51181   4.874  40.014   3.366
79599W        W51182  22.154  16.343  11.960
79600W        W51183   3.188  14.320  13.652
79601W        W51184  21.320  40.725  13.076
79602W        W51185  42.520   4.651   1.794
79603W        W51186   4.764  24.234  13.302
79604W        W51187  43.381   9.403   3.082
79605W        W51188  28.126  15.182  13.522
79606W        W51189  15.454  10.608  12.101
79607W        W51190  33.098   9.039   3.299
79608W        W51191  31.077  10.613  14.926
79609W        W51192   4.549  16.182  12.736
79610W        W51193  13.919  17.662  11.647
79611W        W51194   8.273  31.884  12.878
79612W        W51195   1.530   5.371   0.548
79613W        W51196   8.194  13.102  10.801
79614W        W51197  29.018  31.207   3.959
79615W        W51198  43.222  20.197  13.111
79616W        W51199   0.952  44.008  14.029
79617W        W51200  41.725  32.039  14.425
79618W        W51201  28.553  27.175   3.713
79619W        W51202   6.135  42.992  10.129
79620W        W51203  21.194  21.707   0.804
79621W        W51204   8.424  38.087  12.009
79622W        W51205  18.818  27.492  12.381
79623W        W51206  17.257  35.653   4.511
79624W        W51207  20.478   9.114   4.479
79625W        W51208  32.694  42.649   3.695
79626W        W51209  19.284  44.335  14.567
79627W        W51210  27.601  29.627  14.569
79628W        W51211   6.308  21.944  14.300
79629W        W51212  14.295  28.722   4.720
79630W        W51213  44.994   0.439  12.720
79631W        W51214  17.789  39.843  14.531
79632W        W51215  11.900  36.935  10.713
79633W        W51216  15.160  42.621  12.510
79634W        W51217  15.210  22.478  14.554
79635W        W51218  30.942  11.589   1.047
79636W        W51219  41.960  31.945   4.090
79637W        W51220  43.955  20.563   3.157
79638W        W51221  27.897  41.582  10.833
79639W        W51222  33.127   1.630   3.346
79640W        W51223  26.667  25.446   1.094
79641W        W51224  43.270   5.675  11.710
79642W        W51225   5.750  30.369  11.870
79643W        W51226  25.016  19.838   0.516
79644W        W51227   4.059   2.393  13.356
79645W        W51228  18.611  39.993  12.118
79646W        W51229  11.275  18.630  13.168
79647W        W51230   7.273  15.645  11.095
79648W        W51231  39.470  44.065  11.942
79649W        W51232  24.947  27.878   4.092
79650W        W51233   2.975  21.925   2.452
79651W        W51234   2.725  23.035  12.808
79652W        W51235   0.852  29.404   3.091
79653W        W51236  43.689  32.923   3.726
79654W        W51237  27.761  27.148  14.219
79655W        W51238  39.751   5.117   4.582
79656W        W51239  25.586  32.391   4.431
79657W        W51240  42.434   9.745  10.707
79658W        W51241  28.151   3.474  12.513
79659W        W51242   1.334  40.874  11.941
79660W        W51243  39.616  40.089   4.122
79661W        W51244  29.454  15.830   3.299
79662W        W51245   4.406   7.455   1.659
79663W        W51246   4.532  17.959  13.353
79664W        W51247   3.096   6.655   1.105
79665W        W51248  32.354  43.239   2.145
79666W        W51249  21.785  37.096  10.460
79667W        W51250  40.367  33.921   0.723
79668W        W51251   7.243  27.004   0.048
79669W        W51252  31.462  37.695  13.588
79670W        W51253  36.060   8.416  12.603
79671W        W51254  21.030   0.184   1.556
79672W        W51255  16.492  23.132  10.255
79673W        W51256  17.047  32.028  10.346
79674W        W51257  25.335  37.375   2.680
79675W        W51258  20.704  36.991   1.250
79676W        W51259  16.217  15.208   2.428
79677W        W51260   7.772  14.850   1.253
79678W        W51261  34.904   6.765   2.301
79679W        W51262   6.824  27.415  12.266
79680W        W51263  15.157  20.133  14.052
79681W        W51264  15.092   3.774   0.798
79682W        W51265  19.515  21.585   1.975
79683W        W51266  35.408  14.739  10.751
79684W        W51267   4.299   1.255   3.177
79685W        W51268   3.455  38.056   2.910
79686W        W51269   1.807  26.422  13.857
79687W        W51270   4.734  34.196   4.128
79688W        W51271  39.913   5.979   0.452
79689W        W51272  34.470  41.452   0.969
79690W        W51273  11.717  25.836   3.763
79691W        W51274   7.932  39.438   4.635
79692W        W51275   7.369  24.688   4.677
79693W        W51276   2.820  31.240  14.929
79694W        W51277  42.940  19.722  10.313
79695W        W51278  43.234   7.451   1.411
79696W        W51279  22.071   6.141  11.511
79697W        W51280   0.913   3.899  14.794
79698W        W51281  10.567  23.824   4.868
79699W        W51282  27.108  26.480  12.416
79700W        W51283   5.003  28.573   2.724
79701W        W51284  29.694   7.491   3.653
79702W        W51285  44.560   6.483   1.603
79703W        W51286  42.070   2.291  14.935
79704W        W51287  14.243  44.093   4.629
79705W        W51288   6.314   9.578   3.855
79706W        W51289  27.592  37.215   0.294
79707W        W51290  35.452  25.480   3.405
79708W        W51291  44.866  13.347  14.512
79709W        W51292  33.172  38.893   2.742
79710W        W51293  17.553   2.205  12.388
79711W        W51294  35.848  44.546  12.505
79712W        W51295   9.377   7.869  11.956
79713W        W51296   6.419  15.632   5.213
79714W        W51297  17.459   3.432  12.394
79715W        W51298  17.629  33.657  13.875
79716W        W51299  14.569  16.699  13.989
79717W        W51300  18.264  21.084   3.313
79718W        W51301  25.718  17.133  14.352
79719W        W51302   1.549  32.791  10.787
79720W        W51303  36.039  11.848   5.365
79721W        W51304  24.591  26.763  13.534
79722W        W51305  41.907   5.200   1.385
79723W        W51306  27.476   0.807  13.879
79724W        W51307  34.552  39.269   0.005
79725W        W51308  24.211  14.762  12.526
79726W        W51309  12.768  18.605  13.386
79727W        W51310  44.567  25.499   3.264
79728W        W51311  19.632  40.998  13.395
79729W        W51312  35.782  27.309   4.705
79730W        W51313  15.574  35.639   4.822
79731W        W51314  43.392  22.238   4.608
79732W        W51315  15.488   9.646   4.200
79733W        W51316  40.267  15.260  14.905
79734W        W51317  14.378  34.011  10.766
79735W        W51318  25.003  23.670   0.042
79736W        W51319  18.625  42.396  12.927
79737W        W51320  19.113  38.703  13.422
79738W        W51321  44.463  19.088  13.030
79739W        W51322  11.546   1.472   4.926
79740W        W51323  21.952  44.488  14.975
79741W        W51324  26.687   1.305   4.596
79742W        W51325  23.512  28.266   2.225
79743W        W51326  24.141   4.889   4.945
79744W        W51327   6.823  32.461  14.274
79745W        W51328  22.436  43.118  12.512
79746W        W51329  44.985  12.226   2.259
79747W        W51330  33.572  25.536  11.927
79748W        W51331   7.589  21.100   2.744
79749W        W51332  26.807  11.660  12.075
79750W        W51333  41.971  41.483  14.623
79751W        W51334  15.186  29.640  10.662
79752W        W51335   7.121  31.428   3.650
79753W        W51336  28.881  14.520  14.935
79754W        W51337  27.476  27.648   1.918
79755W        W51338  42.444  40.365   0.459
79756W        W51339   1.086  25.715   1.789
79757W        W51340  36.046  39.132   4.111
79758W        W51341  24.550   6.559  14.425
79759W        W51342   2.736   9.303   3.297
79760W        W51343  22.311  35.227  14.084
79761W        W51344  41.816  12.222   2.433
79762W        W51345  17.338  15.916   0.420
79763W        W51346   2.215   5.846  13.610
79764W        W51347  12.228  42.123  14.442
79765W        W51348  33.842   0.710  10.710
79766W        W51349  18.952  28.527  10.943
79767W        W51350  36.514   6.170  12.060
79768W        W51351  13.723  39.028   4.896
79769W        W51352   3.746  26.785   0.353
79770W        W51353  21.543  23.970  11.510
79771W        W51354  30.901  13.637  12.460
79772W        W51355  31.861  10.549  13.921
79773W        W51356  31.432   9.187  11.600
79774W        W51357  32.972  42.288   4.854
79775W        W51358  11.700  22.211   2.823
79776W        W51359  11.868  14.805   0.348
79777W        W51360  39.031  32.037   0.407
79778W        W51361  25.564   0.984  12.621
79779W        W51362  29.861  44.521   0.518
79780W        W51363  21.987  14.331  13.113
79781W        W51364  22.910  20.148   4.041
79782W        W51365  26.137  40.020   4.485
79783W        W51366  37.559   7.027   4.859
79784W        W51367   8.738   8.148   1.848
79785W        W51368  10.821  43.502  14.979
79786W        W51369  20.026  30.730  13.004
79787W        W51370  26.958   6.547   4.117
79788W        W51371  42.914  12.954  14.509
79789W        W51372  42.699  22.075   3.274
79790W        W51373  31.509   4.985  12.951
79791W        W51374  39.870  38.338  10.705
79792W        W51375  19.763  23.112  11.618
79793W        W51376  25.584  23.288   0.843
79794W        W51377  44.889  42.007  14.954
79795W        W51378  13.180  20.592   4.422
79796W        W51379  34.538  42.388   1.816
79797W        W51380  42.023  24.864   0.410
79798W        W51381  38.137  12.882  12.851
79799W        W51382  35.389  15.684   2.159
79800W        W51383  42.766  15.181   0.761
79801W        W51384  22.597  37.412  13.765
79802W        W51385   3.678   2.702  11.157
79803W        W51386  23.612  17.551  10.556
79804W        W51387  32.745  31.828  13.419
79805W        W51388  35.550  44.427   2.804
79806W        W51389   7.223  22.163  12.962
79807W        W51390  18.222  22.150   0.945
79808W        W51391  19.702  32.490   4.537
79809W        W51392  18.288  42.728   4.442
79810W        W51393  26.160  22.880   3.721
79811W        W51394  28.851   6.038  10.693
79812W        W51395  21.889  10.909   4.969
79813W        W51396  27.465  26.523  12.059
79814W        W51397  26.033  16.694  14.453
79815W        W51398  25.945  16.656  10.539
79816W        W51399  24.153  35.582   3.898
79817W        W51400   6.695   0.878   2.215
79818W        W51401  12.003  35.160  11.123
79819W        W51402  13.450  22.928   9.995
79820W        W51403  44.082  20.211   1.046
79821W        W51404  35.784  12.326   2.805
79822W        W51405  19.138  17.542   2.371
79823W        W51406  26.141  33.154  11.130
79824W        W51407  40.794  36.334  11.618
79825W        W51408  28.717  41.497   2.726
79826W        W51409   2.655  36.944  14.573
79827W        W51410   0.411  16.000   4.428
79828W        W51411  15.874  16.913  14.346
79829W        W51412   9.187  29.884   4.410
79830W        W51413  12.856  43.329  12.083
79831W        W51414   9.834  19.255  14.462
79832W        W51415  30.082  13.481   3.268
79833W        W51416  13.178  34.888   2.183
79834W        W51417   7.656  18.211   2.551
79835W        W51418  21.439  22.669   2.488
79836W        W51419  21.067  30.237   3.206
79837W        W51420  10.392  20.575  12.542
79838W        W51421  42.017  35.810   3.546
79839W        W51422  37.327  27.676   0.372
79840W        W51423  39.774  19.258  12.108
79841W        W51424   5.341  15.878   2.799
79842W        W51425  35.952  15.147  10.650
79843W        W51426  36.997  24.666  11.490
79844W        W51427  31.060  28.732   4.292
79845W        W51428  32.343  29.422  11.970
79846W        W51429  19.598   0.819  10.679
79847W        W51430  42.622  26.127   4.610
79848W        W51431  12.378  32.133  13.911
79849W        W51432  14.428   7.481   0.574
79850W        W51433   8.456  40.052  12.939
79851W        W51434  14.220  43.020   4.548
79852W        W51435  36.748  26.676   1.964
79853W        W51436  22.267  12.506   1.820
79854W        W51437  38.484  10.369   2.387
79855W        W51438   6.168  44.955   0.716
79856W        W51439  23.447   2.335  12.229
79857W        W51440  28.172   7.886   3.275
79858W        W51441  17.827  35.375   4.947
79859W        W51442  31.306  44.947   0.206
79860W        W51443  35.474  29.816  11.733
79861W        W51444  38.735  23.810  14.046
79862W        W51445  39.873  13.335   0.300
79863W        W51446  36.876  17.558  11.635
79864W        W51447   8.181  20.034  14.786
79865W        W51448  37.006  25.939   4.709
79866W        W51449   2.203  10.345   0.383
79867W        W51450   0.603  20.126  13.835
79868W        W51451  20.315  37.847   2.636
79869W        W51452  15.477   4.545  13.539
79870W        W51453  32.025  23.782   2.802
79871W        W51454  23.210  43.922   1.320
79872W        W51455   9.677  32.475  12.373
79873W        W51456  29.191   1.750   0.780
79874W        W51457  24.922   9.319   2.856
79875W        W51458  34.469   3.385  11.177
79876W        W51459  39.457  29.133   1.297
79877W        W51460  31.506  10.772  13.100
79878W        W51461  40.903  23.562  11.967
79879W        W51462  29.029  32.881   2.172
79880W        W51463   6.260  21.239  12.833
79881W        W51464  26.402  31.701  10.398
79882W        W51465  37.597  28.686  13.003
79883W        W51466   1.815  43.466  11.415
79884W        W51467  30.557  28.113  12.073
79885W        W51468  32.895  21.290   0.833
79886W        W51469  22.051  33.459  11.398
79887W        W51470  34.900  10.562  10.981
79888W        W51471  23.471  28.102  10.762
79889W        W51472   7.939  28.214  14.299
79890W        W51473  44.202  44.714  14.978
79891W        W51474   5.710   4.265  10.729
79892W        W51475   0.283  32.574  11.123
79893W        W51476  15.711  22.179  11.120
79894W        W51477   1.867  30.834  11.972
79895W        W51478   4.262  15.647   0.775
79896W        W51479  30.278  24.389   2.735
79897W        W51480   9.184  12.733  12.967
79898W        W51481  27.917  31.115  13.928
79899W        W51482  15.636   6.589   2.663
79900W        W51483  12.553  36.972   1.873
79901W        W51484  23.881  27.936  12.984
79902W        W51485  25.925  26.052   3.658
79903W        W51486  37.476  21.092  11.251
79904W        W51487  37.379  39.587  10.177
79905W        W51488  38.300  39.112   3.282
79906W        W51489  11.905  13.783  10.730
79907W        W51490   8.770  38.081  14.848
79908W        W51491  25.626  11.755   1.998
79909W        W51492   1.454  29.718  10.775
79910W        W51493  21.966  24.230   1.770
79911W        W51494  28.390  10.335  14.028
79912W        W51495  41.924  38.784  11.462
79913W        W51496  28.951  33.824   0.510
79914W        W51497  41.880  17.006  13.794
79915W        W51498   0.727  27.185  13.689
79916W        W51499  36.479  31.494  12.620
79917W        W51500  38.975  21.744  10.578
79918W        W51501  18.218   7.116   3.156
79919W        W51502   4.498  41.941  11.684
79920W        W51503   7.156  18.175   1.154
79921W        W51504  21.860  15.372  11.973
79922W        W51505   2.631  43.179  12.464
79923W        W51506   1.619  30.973  13.425
79924W        W51507  21.356   7.183   2.345
79925W        W51508   4.449  15.608   2.419
79926W        W51509   9.658  38.478   4.181
79927W        W51510  19.656   9.291  14.397
79928W        W51511  30.091  31.538  12.138
79929W        W51512  41.485  32.186   4.134
79930W        W51513  25.536  26.862   5.067
79931W        W51514  11.707  17.688   1.158
79932W        W51515   7.946   9.975   0.074
79933W        W51516  14.756  28.589   4.139
79934W        W51517   9.322   1.920  12.831
79935W        W51518  42.455  17.272   4.358
79936W        W51519  42.706  27.850   3.647
79937W        W51520  42.576  40.372   1.860
79938W        W51521  27.893  25.428   2.357
79939W        W51522  42.006  23.058  12.153
79940W        W51523  15.621  41.989  13.324
79941W        W51524   7.611  13.321  12.479
79942W        W51525  10.777  33.999  11.782
79943W        W51526  21.108   0.453  11.207
79944W        W51527  15.409  13.538  10.766
79945W        W51528  29.071  32.603   2.608
79946W        W51529  17.665  35.073  14.571
79947W        W51530   1.195  13.620  11.009
79948W        W51531  20.116   3.448  10.779
79949W        W51532  23.076  40.742   3.792
79950W        W51533  27.487  17.555   0.391
79951W        W51534  10.261   1.935   0.699
79952W        W51535  11.289  18.813  10.680
79953W        W51536  41.900  12.152  12.166
79954W        W51537   4.701  27.590  14.040
79955W        W51538  11.307  10.300  11.089
79956W        W51539   7.333  13.725  12.583
79957W        W51540  13.731  16.675   2.763
79958W        W51541  38.418  30.595  11.481
79959W        W51542  19.304  24.557   2.765
79960W        W51543  14.378  10.996   4.431
79961W        W51544   3.117  26.116  10.739
79962W        W51545  36.565  38.024  12.528
79963W        W51546   5.535  26.948  11.037
79964W        W51547   0.234   5.327  12.963
79965W        W51548  33.338  12.707  14.392
79966W        W51549   6.917  38.019  14.279
79967W        W51550  42.527  12.379  13.965
79968W        W51551  15.765   7.881   3.531
79969W        W51552  36.002  37.246  14.341
79970W        W51553  40.056   6.876   4.531
79971W        W51554   2.180  19.124   4.180
79972W        W51555  44.348  17.278   3.840
79973W        W51556  36.893  43.799   1.040
79974W        W51557  10.526   3.875  11.223
79975W        W51558  28.971   8.913  11.263
79976W        W51559   4.485   9.649   4.838
79977W        W51560  18.551  17.048   1.837
79978W        W51561   3.396   7.157   1.646
79979W        W51562   9.102  31.452  12.025
79980W        W51563  41.372   9.616   0.353
79981W        W51564   7.725   4.362  14.120
79982W        W51565  36.047  12.417   1.854
79983W        W51566  36.390  40.447  11.960
79984W        W51567  20.613  16.517   4.654
79985W        W51568  29.567  14.714   4.308
79986W        W51569  42.995  38.482   1.602
79987W        W51570  35.813  40.712  13.826
79988W        W51571   7.660  26.522   2.738
79989W        W51572  25.479   7.197  11.460
79990W        W51573  43.571  29.541   2.965
79991W        W51574   5.814  35.947   0.744
79992W        W51575  31.028  44.406  12.650
79993W        W51576   8.803  22.166  10.741
79994W        W51577  18.714   8.821   2.647
79995W        W51578  10.183  40.158  13.955
79996W        W51579  28.630  42.862  13.078
79997W        W51580  29.727  16.313  12.017
79998W        W51581   5.877  21.381  10.568
79999W        W51582  13.940  35.124  10.307
80000W        W51583  35.938  15.955   9.856
80001W        W51584  16.028  38.013   5.433
80002W        W51585  27.989  36.508  13.875
80003W        W51586  36.009  24.561  13.319
80004W        W51587  24.390  36.041   4.118
80005W        W51588  21.783  35.908   2.728
80006W        W51589   6.164  11.224  14.319
80007W        W51590  34.490   3.249   1.895
80008W        W51591   5.589  33.411   3.201
80009W        W51592   7.048   3.006  11.077
80010W        W51593  44.773   7.922   2.111
80011W        W51594  33.115  37.177   4.883
80012W        W51595  17.525   2.882  12.552
80013W        W51596  23.326  37.549  13.431
80014W        W51597  19.806  28.478  10.763
80015W        W51598  23.526  13.432  13.345
80016W        W51599  30.949  25.570   4.669
80017W        W51600  26.619  18.041  11.549
80018W        W51601  39.625  28.678  10.800
80019W        W51602  39.715  14.749   0.271
80020W        W51603  12.791   3.357   1.118
80021W        W51604  37.453  16.902   2.920
80022W        W51605  33.938  33.090   0.301
80023W        W51606   5.958  44.576  11.647
80024W        W51607  37.997  18.075  12.600
80025W        W51608   8.624   2.773   1.286
80026W        W51609  36.152   2.009  13.886
80027W        W51610  22.980   0.235   3.167
80028W        W51611  23.226   6.218   4.343
80029W        W51612  22.993  12.900  14.884
80030W        W51613  18.344   3.849  13.921
80031W        W51614  35.730  34.402   2.668
80032W        W51615  44.282   5.792   0.515
80033W        W51616  29.616  37.871  14.911
80034W        W51617  18.831  10.778   2.187
80035W        W51618  39.418  36.037  10.619
80036W        W51619  44.207   2.290   0.472
80037W        W51620  26.032  37.477   1.876
80038W        W51621  42.271  16.787   4.172
80039W        W51622  25.674  44.739   2.758
80040W        W51623  27.930  18.224  12.764
80041W        W51624  43.420  17.920  10.985
80042W        W51625   9.541   4.291  12.906
80043W        W51626  23.611  22.421  12.427
80044W        W51627  15.113  34.751   4.991
80045W        W51628  23.988  35.529  13.709
80046W        W51629  40.398   4.907  14.329
80047W        W51630   3.374  29.516  13.901
80048W        W51631  32.928  25.499   4.425
80049W        W51632  12.789   6.835  14.846
80050W        W51633   0.524  14.725   4.210
80051W        W51634   3.255  22.121  14.345
80052W        W51635  28.402   6.856  11.619
80053W        W51636  21.138  36.859   4.362
80054W        W51637  31.527  44.346  14.912
80055W        W51638  32.255  35.045   3.258
80056W        W51639  36.992  22.033   0.330
80057W        W51640  16.113  29.291  13.330
80058W        W51641  11.380  17.884   2.834
80059W        W51642  26.871  33.164  10.691
80060W        W51643  42.961   8.527  11.116
80061W        W51644  32.816  25.449   0.523
80062W        W51645  17.678  36.255   0.956
80063W        W51646   4.736   4.837   2.971
80064W        W51647  26.279  31.883  12.042
80065W        W51648  32.184  34.768   0.161
80066W        W51649  23.608  15.132   3.934
80067W        W51650  28.173  25.798  13.976
80068W        W51651  38.676  22.940  14.234
80069W        W51652   8.418  16.065   0.280
80070W        W51653  40.989  37.157   2.173
80071W        W51654  19.653  31.986  14.025
80072W        W51655  27.935  35.003  14.561
80073W        W51656  41.952  28.570  10.444
80074W        W51657   1.517  15.283   4.131
80075W        W51658   4.658   5.783   4.687
80076W        W51659  32.189  22.980  12.854
80077W        W51660   2.957  11.197   4.128
80078W        W51661   2.477  31.575   3.088
80079W        W51662   0.910  19.636  12.016
80080W        W51663  42.500  34.591   2.260
80081W        W51664  23.245  32.942   2.907
80082W        W51665   6.488  27.497   1.363
80083W        W51666  19.272  19.306  10.012
80084W        W51667  41.453  24.266  14.884
80085W        W51668  17.776  44.206   1.241
80086W        W51669  16.252  26.571   0.988
80087W        W51670  38.354  43.728   1.795
80088W        W51671   3.393   3.222  13.467
80089W        W51672  21.889   4.400   2.330
80090W        W51673   7.238  10.221   1.411
80091W        W51674  40.510   7.413   2.664
80092W        W51675  20.917   0.083  12.807
80093W        W51676  31.899  33.793   4.971
80094W        W51677  35.765  29.004  10.551
80095W        W51678  30.090  33.637   9.848
80096W        W51679  35.188  39.448  14.499
80097W        W51680   9.137  32.140   1.887
80098W        W51681  38.364  16.049  10.058
80099W        W51682  29.027  39.496   0.308
80100W        W51683  28.361   7.853   4.167
80101W        W51684   6.919   0.875  12.537
80102W        W51685  36.634   4.263  11.787
80103W        W51686   0.367  17.199   3.785
80104W        W51687  41.880   7.959  11.537
80105W        W51688  32.116  35.836  11.960
80106W        W51689  17.797  12.441   4.725
80107W        W51690  26.272   6.643  13.027
80108W        W51691  41.837   5.005   2.329
80109W        W51692   8.274  29.812   0.364
80110W        W51693  22.296   3.853  14.681
80111W        W51694  22.796  28.004  12.139
80112W        W51695   4.406  20.088  10.433
80113W        W51696  20.790   1.385  12.023
80114W        W51697   1.026  43.390  14.417
80115W        W51698   3.895  28.135  13.975
80116W        W51699  14.481   9.796   3.407
80117W        W51700  44.924  17.554  11.811
80118W        W51701  11.034   2.879   4.686
80119W        W51702  29.452  41.036   3.137
80120W        W51703  34.562  12.168   0.892
80121W        W51704  16.907  38.426  12.992
80122W        W51705  23.561  18.075   3.373
80123W        W51706  38.510  20.927  11.364
80124W        W51707  34.052  34.339  14.794
80125W        W51708  22.041   1.489   3.051
80126W        W51709  20.124  32.409  14.517
80127W        W51710  37.554   9.869  12.966
80128W        W51711   5.978  27.620   1.346
80129W        W51712  13.206  13.219  14.521
80130W        W51713   8.326  10.254   4.144
80131W        W51714  20.081   9.426   1.318
80132W        W51715   0.254  43.092   1.307
80133W        W51716  23.677  32.891  13.899
80134W        W51717   8.086  22.825   0.411
80135W        W51718  27.174  39.029   3.936
80136W        W51719  11.594  16.780   1.307
80137W        W51720  39.915   8.873  10.143
80138W        W51721  10.219  26.528  10.145
80139W        W51722  39.262  21.296   4.216
80140W        W51723  22.358  25.838   3.077
80141W        W51724  32.565   2.429  11.562
80142W        W51725  30.896  32.929  11.966
80143W        W51726   2.424  19.706   1.047
80144W        W51727  18.232  21.497  12.939
80145W        W51728   9.343  11.626  14.376
80146W        W51729  27.195  39.588   4.618
80147W        W51730  39.584   0.381  13.685
80148W        W51731  16.063  43.503   2.325
80149W        W51732  17.619   5.656   4.600
80150W        W51733  12.695  33.412  13.086
80151W        W51734   9.033  18.238  11.441
80152W        W51735  27.983  20.536   0.643
80153W        W51736   0.361  42.383  12.186
80154W        W51737  11.762  43.390   0.966
80155W        W51738  19.287  37.086  11.074
80156W        W51739  22.681  30.407  12.912
80157W        W51740  18.680   0.010  10.961
80158W        W51741  30.651  19.428   2.887
80159W        W51742  25.549  43.835  14.330
80160W        W51743  24.799  15.073   2.197
80161W        W51744   6.969  37.402   2.319
80162W        W51745  17.879  23.208  13.042
80163W        W51746  21.028  40.435  14.469
80164W        W51747  24.502  27.947  10.745
80165W        W51748  33.774  16.138  11.152
80166W        W51749  24.233  22.992  13.261
80167W        W51750  24.066  13.393   0.195
80168W        W51751  40.994  17.851   4.336
80169W        W51752  32.362  35.472   2.374
80170W        W51753   0.779   6.407   0.728
80171W        W51754  25.188  28.095   1.693
80172W        W51755  41.487  14.258  13.860
80173W        W51756   5.173  22.593   3.183
80174W        W51757  39.915  28.140   0.190
80175W        W51758  21.777  21.617  10.695
80176W        W51759  20.496   7.910  13.017
80177W        W51760  43.461  16.418  12.789
80178W        W51761  19.109  19.050   3.739
80179W        W51762   1.253  17.050   2.928
80180W        W51763  44.654  11.661  12.191
80181W        W51764  42.267   6.876  10.642
80182W        W51765  36.425  35.752   2.493
80183W        W51766  41.279  27.727   3.006
80184W        W51767  28.308  24.476   1.683
80185W        W51768  40.853  42.468  14.340
80186W        W51769  30.502  32.877   2.251
80187W        W51770  34.868  27.952   3.642
80188W        W51771  22.640  14.407   4.133
80189W        W51772   3.602   9.308  13.269
80190W        W51773  17.845  41.874  11.464
80191W        W51774   8.277  29.681  14.451
80192W        W51775  35.924  31.332  13.393
80193W        W51776  13.265  33.406  10.310
80194W        W51777   7.183   2.143  13.865
80195W        W51778  23.535  22.072  14.797
80196W        W51779  23.819  18.060   3.830
80197W        W51780  10.827   0.254   0.491
80198W        W51781  18.219  24.015   0.947
80199W        W51782   9.737  16.059   1.221
80200W        W51783  26.893  14.044   0.090
80201W        W51784  38.658  19.753  13.407
80202W        W51785  18.209  25.151  11.423
80203W        W51786   9.076  44.538  11.002
80204W        W51787  43.031  26.704  13.442
80205W        W51788  29.941  14.521   3.246
80206W        W51789  31.147   8.918  12.970
80207W        W51790  16.266   4.182   0.485
80208W        W51791   6.682  21.067  10.926
80209W        W51792   2.359   3.646   4.212
80210W        W51793   4.863   3.826  11.620
80211W        W51794  30.632   0.383   1.457
80212W        W51795   4.266  31.639  14.009
80213W        W51796  31.089  24.947   0.005
80214W        W51797  28.923  40.412   0.784
80215W        W51798  18.047  14.709  12.628
80216W        W51799   7.717  13.131   0.808
80217W        W51800  28.530   2.754  12.414
80218W        W51801  18.481  19.129   3.334
80219W        W51802  31.642  21.672  14.049
80220W        W51803   8.271  13.440  14.301
80221W        W51804  28.048  11.839   3.327
80222W        W51805  21.252   9.142   0.843
80223W        W51806  36.903  25.616   3.661
80224W        W51807  27.272   7.222  11.232
80225W        W51808  11.591  24.498  11.511
80226W        W51809  19.749   5.379   4.622
80227W        W51810   9.422  38.114  10.454
80228W        W51811  30.555   6.480  14.195
80229W        W51812   3.910  35.756  10.228
80230W        W51813  25.204  30.834  13.275
80231W        W51814   2.398  21.008   4.900
80232W        W51815  27.931  16.282   2.347
80233W        W51816  44.794  23.216  12.806
80234W        W51817  27.612  36.190   2.212
80235W        W51818  43.874   2.093  14.237
80236W        W51819   0.024  35.430  12.081
80237W        W51820  18.469  21.060   4.685
80238W        W51821  31.438  35.352   3.282
80239W        W51822  42.316  38.041   2.892
80240W        W51823  40.336  32.835   0.875
80241W        W51824  27.675  36.674   0.349
80242W        W51825  25.218  38.300  10.746
80243W        W51826  25.945   3.879  11.568
80244W        W51827  14.273  36.863  14.315
80245W        W51828  42.928  40.776   1.748
80246W        W51829  26.791   2.296   2.171
80247W        W51830  14.265  39.883   1.368
80248W        W51831  36.755   1.296  14.480
80249W        W51832  32.148  30.440  11.207
80250W        W51833  12.566  35.043   1.424
80251W        W51834  42.449   9.894   0.871
80252W        W51835  32.262  34.899   4.164
80253W        W51836  39.077  34.510   4.281
80254W        W51837  38.077  24.623   2.405
80255W        W51838  17.537  31.933   5.101
80256W        W51839   5.700  31.157   1.779
80257W        W51840  27.405  30.714  10.722
80258W        W51841  40.826   2.674   4.651
80259W        W51842  31.298  38.618  11.954
80260W        W51843  16.148   3.580  11.852
80261W        W51844  18.169   7.187  12.386
80262W        W51845  20.994   1.839   0.278
80263W        W51846  18.535  43.962  14.750
80264W        W51847   1.487  31.397   3.147
80265W        W51848  29.484   7.408   5.056
80266W        W51849   2.939  37.278  14.882
80267W        W51850  42.889  21.077   3.628
80268W        W51851  38.628  40.069   4.069
80269W        W51852  23.954  31.120  11.618
80270W        W51853  22.690  25.110   1.628
80271W        W51854  41.362  27.090  14.301
80272W        W51855  40.758   7.128   4.313
80273W        W51856  29.737  22.464  13.805
80274W        W51857  38.485  30.109   4.685
80275W        W51858  43.526  28.649   1.952
80276W        W51859  21.992  11.581  12.393
80277W        W51860   3.023  38.433   0.252
80278W        W51861  38.944  16.275  14.280
80279W        W51862  28.403  26.208  12.797
80280W        W51863  38.400  20.007  11.107
80281W        W51864  30.556   5.669   3.238
80282W        W51865  15.209  25.254   4.781
80283W        W51866  30.425  25.724  11.184
80284W        W51867  27.616   9.684   2.782
80285W        W51868   2.001  25.085  12.625
80286W        W51869  12.287  44.062  11.610
80287W        W51870  26.622  39.477  14.786
80288W        W51871  14.742   2.732   3.320
80289W        W51872  20.721  40.405  11.903
80290W        W51873  11.380  32.757  12.395
80291W        W51874  28.377   2.422  11.590
80292W        W51875  12.622  37.250   2.323
80293W        W51876  37.022  13.228   2.886
80294W        W51877  32.706  27.968  13.339
80295W        W51878  23.490   9.365  13.067
80296W        W51879  12.389   1.836  11.655
80297W        W51880   7.442   3.182   4.011
80298W        W51881  44.180   3.847  14.987
80299W        W51882  33.388  19.502  13.602
80300W        W51883  29.080  17.986  14.862
80301W        W51884  36.544  13.810   0.277
80302W        W51885  16.095  16.155   3.824
80303W        W51886  28.874   7.822   1.870
80304W        W51887  37.927  18.338  13.049
80305W        W51888  10.399  43.396   2.215
80306W        W51889  13.375   8.285  11.525
80307W        W51890  24.909   7.790   0.830
80308W        W51891  34.135   2.520   4.112
80309W        W51892  21.162  38.333   4.163
80310W        W51893  20.088  29.383  11.556
80311W        W51894  20.695  27.135  12.507
80312W        W51895   0.698  16.529   1.859
80313W        W51896   2.757  28.631  12.524
80314W        W51897  34.777  40.014  13.850
80315W        W51898   7.786  43.458  13.606
80316W        W51899  12.427  38.016   0.379
80317W        W51900  24.284  40.210   5.128
80318W        W51901  41.777  42.960  11.149
80319W        W51902   3.312  39.423   4.617
80320W        W51903  12.755  24.228   3.799
80321W        W51904  31.303  43.611   0.470
80322W        W51905  43.814  39.711   1.669
80323W        W51906  21.345  33.481   1.979
80324W        W51907  30.598  36.355   1.324
80325W        W51908  39.096  36.835   1.262
80326W        W51909  17.830  19.396  11.023
80327W        W51910  21.589   8.041   1.404
80328W        W51911  37.133  30.692   3.609
80329W        W51912  25.475  40.017  14.982
80330W        W51913  37.172  29.322  11.384
80331W        W51914  11.099  29.026  12.491
80332W        W51915  41.992  27.690  13.947
80333W        W51916  29.176  17.687   3.415
80334W        W51917  29.197  34.528  12.976
80335W        W51918  26.681  22.434  13.513
80336W        W51919  38.352  37.035  14.627
80337W        W51920  32.129  36.530  12.453
80338W        W51921  19.496  15.101   0.006
80339W        W51922  33.891  30.076   4.279
80340W        W51923  40.026  19.298   1.332
80341W        W51924  33.415  17.617  13.150
80342W        W51925  33.593  26.848  13.589
80343W        W51926  31.537  20.559  11.747
80344W        W51927  38.900  13.658   2.413
80345W        W51928  39.571  24.598  11.471
80346W        W51929  30.025  34.372  10.517
80347W        W51930   7.490  26.374  11.658
80348W        W51931  33.115  24.707  12.913
80349W        W51932  16.718  28.714  11.431
80350W        W51933  19.595  23.542  12.066
80351W        W51934  17.618  44.349  12.129
80352W        W51935  37.056   8.648   4.309
80353W        W51936  42.079  40.991   1.301
80354W        W51937  31.120   3.779   4.089
80355W        W51938  12.867  28.605  12.633
80356W        W51939  24.503  33.416  11.499
80357W        W51940  17.251   0.885   3.812
80358W        W51941  18.863  29.354  11.977
80359W        W51942  30.478  21.537   0.201
80360W        W51943  28.598   7.359   1.697
80361W        W51944  32.486  17.808  12.666
80362W        W51945  43.972  28.981  13.385
80363W        W51946   9.665  17.530   4.756
80364W        W51947  23.616  35.521   4.143
80365W        W51948  20.908  31.820   4.587
80366W        W51949  40.725  14.550  13.504
80367W        W51950  36.964  11.288  10.885
80368W        W51951  34.805  30.841  11.200
80369W        W51952   7.918  31.407  12.653
80370W        W51953  28.906   2.386  10.723
80371W        W51954  44.975   9.792   3.589
80372W        W51955  14.342  23.669  14.851
80373W        W51956  43.067  22.081   1.380
80374W        W51957  39.773  15.112   2.426
80375W        W51958  44.630  44.900   3.743
80376W        W51959  20.510   9.922   0.683
80377W        W51960  23.854  11.826  11.933
80378W        W51961  19.622  31.591   3.849
80379W        W51962  10.610  11.101   1.497
80380W        W51963   4.982  40.047  13.920
80381W        W51964   6.274  10.950   2.000
80382W        W51965  12.279  12.176   2.792
80383W        W51966  14.324  28.117  10.713
80384W        W51967  27.007  44.549  12.245
80385W        W51968  12.303  24.220   4.074
80386W        W51969  22.203  29.393   4.567
80387W        W51970  29.356   9.434   3.669
80388W        W51971  40.341  20.666   1.210
80389W        W51972  28.987  17.572  11.532
80390W        W51973  12.368  28.847   2.785
80391W        W51974   1.119   7.211  14.764
80392W        W51975  26.747  21.056  12.603
80393W        W51976  17.225  38.731   3.105
80394W        W51977  19.918   5.503  13.929
80395W        W51978   4.331  19.142  14.802
80396W        W51979   2.469  12.886   3.788
80397W        W51980  30.196  44.278  13.526
80398W        W51981   3.719  36.905  11.339
80399W        W51982   5.442   7.597  13.647
80400W        W51983  21.032   4.240  13.284
80401W        W51984  22.888  20.963  11.019
80402W        W51985  31.365  21.597   1.254
80403W        W51986  42.528   3.436   1.646
80404W        W51987  42.244  19.283   2.979
80405W        W51988  21.768   5.369   4.535
80406W        W51989  34.670  41.520  11.473
80407W        W51990   0.328   6.627   0.937
80408W        W51991  13.610  37.266   4.230
80409W        W51992  14.012   6.385   3.802
80410W        W51993  39.797  34.060  11.451
80411W        W51994  21.931  24.755   1.761
80412W        W51995  21.169  29.210  13.049
80413W        W51996  39.326  24.919  13.538
80414W        W51997  14.686   8.981   2.318
80415W        W51998  11.730  34.070  11.655
80416W        W51999  24.932  26.458   2.048
80417W        W52000  34.991  35.867  14.742
80418W        W52001  39.388  28.453   4.067
80419W        W52002   2.421  37.914   4.616
80420W        W52003  14.044   1.484   0.695
80421W        W52004   6.607  16.207   4.010
80422W        W52005  23.611  42.029   2.219
80423W        W52006  14.784  39.042  13.510
80424W        W52007   9.605  19.589  11.075
80425W        W52008   1.799  28.124   4.933
80426W        W52009   8.656  38.442  14.443
80427W        W52010  30.838   5.255  12.071
80428W        W52011  20.817  34.449   4.334
80429W        W52012   6.420  19.016   2.183
80430W        W52013  24.366   4.857   2.533
80431W        W52014  17.571  44.427   1.781
80432W        W52015  39.287  16.305   4.077
80433W        W52016  19.737  41.743  13.980
80434W        W52017   0.115  17.090  11.675
80435W        W52018  16.651  25.715   9.699
80436W        W52019  17.727  17.087  11.218
80437W        W52020  43.327  35.855  11.100
80438W        W52021  18.735  27.725  10.459
80439W        W52022  31.454  35.221   2.331
80440W        W52023   5.840  44.134  11.414
80441W        W52024  21.164  13.834  12.196
80442W        W52025  24.129   8.930  14.827
80443W        W52026  39.793  11.856  11.991
80444W        W52027  14.428  13.759   1.430
80445W        W52028  27.272  35.647   1.765
80446W        W52029  25.108   1.341   3.618
80447W        W52030  41.826   0.300  14.249
80448W        W52031  39.390  19.493   0.370
80449W        W52032  33.837  19.713  12.907
80450W        W52033  18.685  18.564  10.859
80451W        W52034  31.942  15.260  13.359
80452W        W52035  12.363  38.530  12.864
80453W        W52036  31.375  22.491  11.506
80454W        W52037   4.328  24.120  13.006
80455W        W52038  21.082   4.021   0.481
80456W        W52039  23.216  39.066  11.007
80457W        W52040  13.609  17.536  11.050
80458W        W52041  34.083   9.887   2.486
80459W        W52042  28.463  19.644   2.314
80460W        W52043  28.439  42.042   2.052
80461W        W52044  40.327  37.804  13.443
80462W        W52045   0.615  36.981  14.745
80463W        W52046  38.340  11.164  10.587
80464W        W52047  34.420  39.958  14.611
80465W        W52048  38.483  29.006   2.327
80466W        W52049   8.975  19.211  13.866
80467W        W52050  31.455  29.253  11.952
80468W        W52051  31.416   1.976   4.167
80469W        W52052  23.884  10.192  11.568
80470W        W52053   5.065  32.432   1.905
80471W        W52054  38.182  21.438   3.709
80472W        W52055  24.119   4.251  14.205
80473W        W52056   9.850  37.308   3.124
80474W        W52057   2.798  25.480  13.512
80475W        W52058   3.730   7.448  12.023
80476W        W52059   2.354  36.347  13.802
80477W        W52060  33.734   8.696  12.950
80478W        W52061  19.535   6.253   4.066
80479W        W52062   8.382  37.277  12.405
80480W        W52063  28.946  22.625  11.644
80481W        W52064   7.518  21.137   3.811
80482W        W52065  40.945  30.825  11.757
80483W        W52066  25.702  25.173  12.111
80484W        W52067  33.274   9.710  11.013
80485W        W52068  44.905   5.202  11.991
80486W        W52069  24.737  12.769   2.828
80487W        W52070   0.976  18.098  13.466
80488W        W52071  16.783   3.706  13.891
80489W        W52072  44.830  21.739   2.330
80490W        W52073  41.815   9.786   1.927
80491W        W52074  37.430  24.765   0.839
80492W        W52075  14.670   3.731   1.796
80493W        W52076  42.562   3.856  13.286
80494W        W52077  34.343   0.165   1.890
80495W        W52078  39.845  26.099  14.067
80496W        W52079  13.334  30.110  13.379
80497W        W52080  12.736  43.829  11.329
80498W        W52081  37.417  17.589   1.689
80499W        W52082   9.772  31.416   4.589
80500W        W52083  28.551  20.014   4.185
80501W        W52084  22.026   5.461   3.610
80502W        W52085  27.102  29.188   3.356
80503W        W52086  17.861  40.070   3.198
80504W        W52087  16.031  19.623  12.947
80505W        W52088  13.361   1.925   2.387
80506W        W52089  12.656  39.481   1.889
80507W        W52090   8.924  22.115  14.327
80508W        W52091  40.645  28.114  11.115
80509W        W52092   3.270  11.343  13.950
80510W        W52093   5.196  24.194  14.436
80511W        W52094   7.283  18.778   3.697
80512W        W52095  15.273  28.537  13.857
80513W        W52096   6.923  24.753  10.763
80514W        W52097   8.752  10.742  13.622
80515W        W52098  21.039  12.427  12.016
80516W        W52099  25.969  41.396   1.262
80517W        W52100   7.436  23.277  11.074
80518W        W52101  14.646  24.790  13.641
80519W        W52102  34.581   5.393   4.293
80520W        W52103  32.094  42.948   2.894
80521W        W52104  39.022   6.250  13.748
80522W        W52105  35.795  41.032   2.843
80523W        W52106  13.725   5.362   3.402
80524W        W52107   4.295  39.467   4.159
80525W        W52108   2.718  18.344   4.174
80526W        W52109  31.317  35.506   4.609
80527W        W52110  22.620  41.385  10.303
80528W        W52111   9.878  28.522  13.713
80529W        W52112   4.810  23.964   2.247
80530W        W52113  26.062  25.275  14.870
80531W        W52114  16.095  13.912   0.982
80532W        W52115  20.192  35.063  13.759
80533W        W52116   2.492  10.325   0.983
80534W        W52117   5.900   7.758   1.411
80535W        W52118  35.530  33.749   4.109
80536W        W52119  21.239  44.971   4.581
80537W        W52120   3.086   5.902  10.601
80538W        W52121  30.154  31.928   3.327
80539W        W52122  17.270  28.631  12.030
80540W        W52123   2.202  25.561  11.056
80541W        W52124  33.393  41.971   3.473
80542W        W52125   3.565  41.567   3.942
80543W        W52126  37.956   6.462  12.870
80544W        W52127  15.735  35.298  12.037
80545W        W52128   0.525   8.127   0.936
80546W        W52129  16.768  15.830  10.965
80547W        W52130  12.204  19.180  13.980
80548W        W52131  14.766  37.092  12.955
80549W        W52132  38.285  30.572   1.618
80550W        W52133  37.822  38.343   2.384
80551W        W52134  10.408   8.307  11.577
80552W        W52135   5.650  44.503  14.848
80553W        W52136  20.936  27.975   2.123
80554W        W52137  22.966  43.047  13.366
80555W        W52138   0.992  36.936  11.954
80556W        W52139   1.389   7.592  14.489
80557W        W52140   1.399   8.824   3.939
80558W        W52141   3.261  42.927   4.633
80559W        W52142  11.592   7.279  10.819
80560W        W52143   2.321  12.241  12.398
80561W        W52144  16.685  41.554   0.723
80562W        W52145  29.434  44.930   3.335
80563W        W52146  38.095  35.931  13.035
80564W        W52147   0.963  17.192   4.579
80565W        W52148  11.166  33.787   4.194
80566W        W52149  30.143  23.055  13.678
80567W        W52150  11.709   3.347  11.188
80568W        W52151   7.940  15.357   0.537
80569W        W52152  38.317  27.002   3.312
80570W        W52153  43.579  39.307   0.879
80571W        W52154  27.214  22.258  13.378
80572W        W52155  32.032   1.919  12.411
80573W        W52156  36.930  13.592  12.921
80574W        W52157  36.461  33.420  14.768
80575W        W52158   8.667  11.239   3.759
80576W        W52159  42.098  32.954   2.290
80577W        W52160  19.995   3.137  11.584
80578W        W52161  44.639  42.830   0.471
80579W        W52162  43.258  15.458  12.054
80580W        W52163   4.418  44.876   2.205
80581W        W52164  28.488  39.945  11.359
80582W        W52165  22.931  35.688   2.150
80583W        W52166  33.322  15.651   2.787
80584W        W52167  29.581  41.361  13.976
80585W        W52168   0.374  12.029   4.686
80586W        W52169  13.105  16.126  10.659
80587W        W52170  14.265  44.454   1.640
80588W        W52171   1.702  35.634  12.876
80589W        W52172  22.833  28.479   0.522
80590W        W52173  42.478   6.845   1.357
80591W        W52174  16.176  33.133  14.799
80592W        W52175  40.786  21.651  13.397
80593W        W52176   6.622  22.238  12.129
80594W        W52177  39.647  39.315  14.405
80595W        W52178  11.740  15.963  11.572
80596W        W52179  27.976  20.879  11.132
80597W        W52180  14.990  23.938  10.798
80598W        W52181  21.159  29.066   4.150
80599W        W52182  24.015  32.424   1.766
80600W        W52183  40.293  10.595   1.802
80601W        W52184  23.756  13.844  13.086
80602W        W52185  21.681  24.678   3.825
80603W        W52186  15.712  28.792   2.670
80604W        W52187  44.548   1.918   2.308
80605W        W52188  44.278   1.999  11.086
80606W        W52189  29.255   8.762  14.345
80607W        W52190  15.358  22.551  11.167
80608W        W52191  44.952  41.540   2.417
80609W        W52192  27.418   0.239  11.468
80610W        W52193  26.637   1.956  14.965
80611W        W52194  31.338  35.443  14.843
80612W        W52195  10.704  26.192  11.619
80613W        W52196  23.252  21.142   2.845
80614W        W52197   1.710  34.582   4.695
80615W        W52198  23.293   9.120  10.407
80616W        W52199   2.928  38.351   2.156
80617W        W52200  25.455  12.781  12.536
80618W        W52201  16.303  20.048  10.704
80619W        W52202  27.937  26.192   4.541
80620W        W52203  22.534  33.354  12.947
80621W        W52204  21.378  16.372   4.681
80622W        W52205   1.782  32.959  13.519
80623W        W52206  42.497  21.269  12.017
80624W        W52207  28.381   5.279   4.081
80625W        W52208   3.807  14.602  11.877
80626W        W52209  37.474   0.004   4.591
80627W        W52210  21.909  21.119   2.225
80628W        W52211  33.042  13.759  14.706
80629W        W52212  20.651   3.790  12.934
80630W        W52213  28.550  15.545   2.876
80631W        W52214  26.158  14.129  11.008
80632W        W52215  23.091   7.799  14.381
80633W        W52216  14.416   4.303  13.042
80634W        W52217  38.253  34.477   1.846
80635W        W52218  15.832   3.138   1.219
80636W        W52219  25.098  30.503   2.227
80637W        W52220  35.962  28.050   3.871
80638W        W52221  36.265  29.977   2.246
80639W        W52222  34.318  16.134   4.158
80640W        W52223  42.797   8.156  10.769
80641W        W52224  42.532  31.587   0.847
80642W        W52225  27.662  34.847   0.006
80643W        W52226  33.852  37.424  14.038
80644W        W52227  20.899  29.732   3.777
80645W        W52228  18.550   8.529   3.893
80646W        W52229   3.432  12.603   2.444
80647W        W52230  29.437   1.831  11.909
80648W        W52231  36.080  22.516  12.164
80649W        W52232  25.060   3.379   4.241
80650W        W52233  26.169  37.757  13.931
80651W        W52234   7.398  23.033   4.369
80652W        W52235   1.306   8.607  13.557
80653W        W52236  34.546  36.955   2.963
80654W        W52237  38.028  23.913  14.813
80655W        W52238  32.999  21.965  11.882
80656W        W52239  23.267  43.416  12.077
80657W        W52240  25.061  13.749  11.369
80658W        W52241   2.339  19.158  13.694
80659W        W52242   6.321  39.545   2.622
80660W        W52243  28.848  18.614   4.648
80661W        W52244  16.180  24.062   4.018
80662W        W52245  13.413  29.180  12.936
80663W        W52246  38.280  17.755  11.034
80664W        W52247   0.257   0.583  11.003
80665W        W52248  17.093  22.145   0.179
80666W        W52249   8.307  37.297   0.922
80667W        W52250  27.852  44.848   2.360
80668W        W52251   5.177  38.814   4.618
80669W        W52252   8.223   6.174  12.137
80670W        W52253  39.887  22.284  11.689
80671W        W52254  32.889  36.689   1.994
80672W        W52255  44.557  11.252   4.071
80673W        W52256  36.839   4.864  13.057
80674W        W52257  25.991  16.271  10.915
80675W        W52258   7.180   7.924   3.117
80676W        W52259  41.401  40.445  13.820
80677W        W52260  15.402   1.959   4.582
80678W        W52261   7.362  20.042   0.323
80679W        W52262  43.581  37.194  14.242
80680W        W52263  11.575   7.326   3.976
80681W        W52264  20.132  29.480  13.381
80682W        W52265  38.796  29.435  11.878
80683W        W52266  35.583  41.280  11.554
80684W        W52267  24.033  30.184  10.707
80685W        W52268  34.722   6.839  10.805
80686W        W52269  34.533  26.258  11.162
80687W        W52270  33.891   0.120  10.299
80688W        W52271   0.359  16.797  12.047
80689W        W52272  16.696   9.445  12.462
80690W        W52273  35.745  29.873   2.998
80691W        W52274   6.728   6.113  14.330
80692W        W52275  12.650  42.418   1.711
80693W        W52276  31.585  30.060   3.705
80694W        W52277  42.514  14.184   0.674
80695W        W52278  22.669  44.671  14.529
80696W        W52279   3.481  42.862   1.344
80697W        W52280  34.928  32.980   2.562
80698W        W52281  37.040  35.087  13.981
80699W        W52282  19.772  14.760  13.386
80700W        W52283  43.286  12.654  14.290
80701W        W52284  22.133  14.639  13.500
80702W        W52285  30.163  38.606  14.968
80703W        W52286  22.338  28.485   4.564
80704W        W52287  26.386  31.322   4.975
80705W        W52288   0.780  37.247  12.291
80706W        W52289  12.733  29.265   0.253
80707W        W52290  30.391   6.738  11.571
80708W        W52291  43.903  35.444  11.736
80709W        W52292  26.250  37.782   4.172
80710W        W52293  18.763   9.359   0.995
80711W        W52294   8.494  29.901   2.426
80712W        W52295   7.965  21.096   0.453
80713W        W52296  28.620  32.594  10.652
80714W        W52297  31.438  37.186  13.449
80715W        W52298  13.306  44.671   1.308
80716W        W52299  30.517  20.938   2.757
80717W        W52300   2.370  39.250  13.389
80718W        W52301  30.445  14.836   0.828
80719W        W52302  12.766   2.063  11.151
80720W        W52303  18.247  43.187   1.807
80721W        W52304  33.895  35.488   1.978
80722W        W52305  14.472  16.425  12.472
80723W        W52306  37.775  12.273   2.455
80724W        W52307   9.265  21.804  13.999
80725W        W52308  16.043  28.874   0.185
80726W        W52309  17.631  14.559  10.644
80727W        W52310   8.624  22.215  14.768
80728W        W52311  43.958  28.124   1.318
80729W        W52312  28.567  29.126   3.978
80730W        W52313  28.832  32.833  14.023
80731W        W52314   7.253  27.422   0.798
80732W        W52315   5.802  38.432   3.126
80733W        W52316  39.879  28.551  14.845
80734W        W52317  32.589  35.911  13.365
80735W        W52318  16.071  11.738  14.945
80736W        W52319  29.165  44.310   2.692
80737W        W52320  26.046  41.976  14.538
80738W        W52321   7.330  41.868   2.286
80739W        W52322   3.202  24.429   0.456
80740W        W52323  26.622   2.258  13.219
80741W        W52324  19.990   2.223   2.362
80742W        W52325  15.502  33.483   4.158
80743W        W52326   3.843   1.526  12.938
80744W        W52327  13.010  30.399   1.793
80745W        W52328  16.148  15.548  12.025
80746W        W52329  43.411  36.625  12.901
80747W        W52330   4.759  26.767   0.012
80748W        W52331  37.427   3.492   1.893
80749W        W52332  29.169  12.936  14.077
80750W        W52333  19.510  33.019   3.702
80751W        W52334  15.290  10.881   4.429
80752W        W52335  14.202   1.855  13.986
80753W        W52336  31.808   0.814   4.641
80754W        W52337  11.166  23.664   3.182
80755W        W52338  11.909  37.527  13.808
80756W        W52339  42.021  18.015  13.935
80757W        W52340  28.105  21.118   3.182
80758W        W52341  28.935  31.374  13.998
80759W        W52342   9.908   4.219  11.893
80760W        W52343  32.070  40.101   1.232
80761W        W52344  29.491  11.811  11.477
80762W        W52345  34.813  41.476  10.618
80763W        W52346  30.841  40.365  11.155
80764W        W52347  22.459   9.188  13.112
80765W        W52348   1.489  16.802   1.514
80766W        W52349  40.310  41.682  12.897
80767W        W52350  28.130  27.437  14.495
80768W        W52351  30.575   8.722   3.558
80769W        W52352  36.377  18.762  13.865
80770W        W52353   2.822   0.785  10.803
80771W        W52354  36.356  30.402  12.275
80772W        W52355  15.090  28.338  12.141
80773W        W52356  19.697   4.707  13.509
80774W        W52357  25.569  42.837  13.561
80775W        W52358  12.184  30.109   0.954
80776W        W52359  23.392  32.606   0.369
80777W        W52360  44.434  13.266  14.181
80778W        W52361  28.284  28.067   1.947
80779W        W52362  23.154  24.745  11.659
80780W        W52363   6.608  29.600   0.770
80781W        W52364  12.818  15.814  13.408
80782W        W52365  17.065  22.911  14.215
80783W        W52366  33.142  18.870  13.196
80784W        W52367  42.846   0.998   0.521
80785W        W52368  31.655  44.124   0.626
80786W        W52369  25.678  29.478  11.471
80787W        W52370  15.562  17.738  11.564
80788W        W52371  44.416   6.439  10.751
80789W        W52372  23.671  32.600   0.827
80790W        W52373  18.807  14.397  14.602
80791W        W52374  22.892   2.620  14.359
80792W        W52375  28.929  22.047  14.043
80793W        W52376  15.200  14.315   1.934
80794W        W52377  28.748  12.307  11.581
80795W        W52378  37.926  11.105  12.986
80796W        W52379  11.935  41.662  10.230
80797W        W52380  30.512  26.403   0.368
80798W        W52381  22.833  16.786   4.727
80799W        W52382  33.376  21.153  14.208
80800W        W52383   9.890  36.440  13.497
80801W        W52384  19.832  34.498  13.262
80802W        W52385  44.412  42.566   2.102
80803W        W52386  24.128  25.037  11.518
80804W        W52387   1.320   1.415   4.546
80805W        W52388   9.722   8.825  12.863
80806W        W52389  24.964  13.561   2.236
80807W        W52390  23.579  30.158  14.482
80808W        W52391   8.722  26.070   4.927
80809W        W52392  40.944   2.704   2.145
80810W        W52393  38.644  36.051  11.129
80811W        W52394   6.144  39.004   4.451
80812W        W52395  41.273  10.670   0.798
80813W        W52396  19.995  19.142   1.305
80814W        W52397   3.074  27.299  11.206
80815W        W52398  32.008  20.637  12.595
80816W        W52399   4.919  43.660   5.050
80817W        W52400  28.297  41.381  11.093
80818W        W52401  28.139   7.844   1.280
80819W        W52402  39.360  38.413  10.595
80820W        W52403   3.713  14.665  14.367
80821W        W52404   1.823  18.853   3.187
80822W        W52405   9.578  40.917   4.558
80823W        W52406  27.537  41.533   3.175
80824W        W52407  29.502  30.180  10.766
80825W        W52408  19.069  40.341   4.201
80826W        W52409   9.720  33.125   3.777
80827W        W52410   7.933  23.016   2.813
80828W        W52411  38.438  43.629  11.093
80829W        W52412  30.003   4.568   0.360
80830W        W52413  35.322  34.342   0.259
80831W        W52414  35.395  20.524   2.402
80832W        W52415  38.542  16.013   1.744
80833W        W52416  10.926   6.828   1.704
80834W        W52417  16.693  22.876  11.575
80835W        W52418   5.832   1.314  13.828
80836W        W52419  18.846  24.297  14.168
80837W        W52420  18.296   0.355  11.631
80838W        W52421   1.170  17.793  12.483
80839W        W52422   7.431  38.249  11.494
80840W        W52423  26.547  39.106   3.113
80841W        W52424  28.387   9.749  14.286
80842W        W52425  20.812  10.978  11.693
80843W        W52426   4.010  23.722   4.116
80844W        W52427  17.703  37.504  14.411
80845W        W52428  11.363  13.596   1.801
80846W        W52429  15.154  13.733   3.307
80847W        W52430  25.467  33.492  13.888
80848W        W52431   7.374  16.566   3.099
80849W        W52432  14.843  41.451  14.166
80850W        W52433  22.809  35.735  12.286
80851W        W52434  20.629  44.870   1.476
80852W        W52435  30.604  19.726  10.315
80853W        W52436  34.075  24.469   1.852
80854W        W52437  10.035  38.391   0.817
80855W        W52438  24.602  14.079   4.648
80856W        W52439   2.223  19.260   2.384
80857W        W52440  22.771  22.468   1.743
80858W        W52441  15.597  16.830   3.813
80859W        W52442  30.563   5.307   4.538
80860W        W52443  43.819  19.228  13.320
80861W        W52444  33.405  26.401  13.018
80862W        W52445   6.030   2.117  13.129
80863W        W52446  24.380  21.124   0.370
80864W        W52447  37.479  25.939  14.066
80865W        W52448  35.363  24.667  10.642
80866W        W52449  43.975  34.292   1.393
80867W        W52450  37.575   1.151  11.990
80868W        W52451  33.774  37.569   3.028
80869W        W52452  35.603  20.807   1.808
80870W        W52453   7.354  33.194   2.245
80871W        W52454   1.745  36.691   3.287
80872W        W52455  22.566  40.970   1.310
80873W        W52456  14.188  10.792   2.212
80874W        W52457  19.059  17.347  13.031
80875W        W52458   2.417  18.949   1.433
80876W        W52459   4.686  34.625   1.289
80877W        W52460  12.881  15.318  13.574
80878W        W52461  12.794  14.296   4.817
80879W        W52462   6.363  31.113  10.673
80880W        W52463  21.524  41.561  13.367
80881W        W52464  40.508  17.160  12.448
80882W        W52465  38.193  23.627   3.294
80883W        W52466  32.340  15.852  12.042
80884W        W52467  22.281  25.720   0.464
80885W        W52468  17.687  37.328  10.483
80886W        W52469   7.173   6.295   3.124
80887W        W52470   6.801  16.657  12.915
80888W        W52471  14.422   2.280   0.202
80889W        W52472  34.815  40.409  13.095
80890W        W52473   1.940  14.523   2.268
80891W        W52474   6.035  41.334  12.940
80892W        W52475  40.783   8.972  10.605
80893W        W52476  11.757  41.928  13.621
80894W        W52477  36.195  12.760   4.542
80895W        W52478  38.138  17.256  11.242
80896W        W52479  23.980  37.079   0.390
80897W        W52480  22.571  37.639  14.436
80898W        W52481  32.075  23.948  12.958
80899W        W52482  41.769   8.832  14.712
80900W        W52483  39.753  16.867  11.963
80901W        W52484  18.822  29.413   2.784
80902W        W52485  31.013  18.754  14.845
80903W        W52486  26.089  24.485  14.185
80904W        W52487  14.277  21.179  13.965
80905W        W52488  20.238  13.821  13.486
80906W        W52489  15.018   1.850   1.437
80907W        W52490  26.811  16.400   0.948
80908W        W52491  14.118   5.446   3.743
80909W        W52492  24.260  18.748  11.154
80910W        W52493  39.426  31.716  13.085
80911W        W52494  12.310  42.917   0.448
80912W        W52495  11.545  23.109   4.053
80913W        W52496   4.905   5.716   1.973
80914W        W52497  37.870  39.921   3.495
80915W        W52498  29.312  20.664  12.468
80916W        W52499  42.086  29.648   0.403
80917W        W52500  16.380  30.567   4.654
80918W        W52501  26.561  19.087   3.852
80919W        W52502  44.791   4.807  12.536
80920W        W52503  38.376   7.929  11.556
80921W        W52504   0.062  30.860  11.183
80922W        W52505  17.346  28.061   3.676
80923W        W52506  26.460  38.580  12.804
80924W        W52507  42.592  43.334  14.514
80925W        W52508  10.741   9.163  13.283
80926W        W52509  38.254  23.352  11.626
80927W        W52510  29.133  12.297   1.447
80928W        W52511  38.572  37.101   4.752
80929W        W52512   9.218  37.934   3.692
80930W        W52513  36.429  17.570   1.868
80931W        W52514   2.087  13.700  12.518
80932W        W52515  40.432  34.530   1.660
80933W        W52516  23.249  12.570  13.551
80934W        W52517  14.023   1.728  12.013
80935W        W52518  20.082  21.120  12.963
80936W        W52519  22.215  39.314  14.300
80937W        W52520  41.304  34.330   4.719
80938W        W52521  17.671  25.565  13.040
80939W        W52522   6.200   8.558   2.289
80940W        W52523  32.014  39.386   1.647
80941W        W52524  31.182  13.234  12.599
80942W        W52525  35.590   4.211   4.106
80943W        W52526  38.006  39.513  11.982
80944W        W52527  27.611  13.967   4.598
80945W        W52528  43.301   2.812  14.149
80946W        W52529  20.382  20.982  13.873
80947W        W52530  16.363   7.080   3.198
80948W        W52531  22.903   3.549   4.164
80949W        W52532   0.454  30.177  10.715
80950W        W52533  24.575   2.237  11.910
80951W        W52534  23.707   9.051  13.449
80952W        W52535  36.429  39.663  12.525
80953W        W52536  37.590  27.506  13.963
80954W        W52537  42.278  44.741   0.317
80955W        W52538  31.334  23.626  12.050
80956W        W52539  25.016  26.850   2.451
80957W        W52540  32.128  28.848  14.279
80958W        W52541  28.923   2.523   3.213
80959W        W52542   8.239  32.510  11.134
80960W        W52543  34.666   6.637  11.295
80961W        W52544  33.612  22.826   2.328
80962W        W52545  16.806  42.011   2.343
80963W        W52546   1.363  20.131  12.737
80964W        W52547  30.401  22.783   4.935
80965W        W52548  14.991  26.552  13.205
80966W        W52549  13.154  38.811  11.096
80967W        W52550  32.936  12.239   1.676
80968W        W52551  30.151   6.365   2.896
80969W        W52552  32.450  13.094  10.679
80970W        W52553  28.221   5.897  14.495
80971W        W52554  29.142  24.262   1.996
80972W        W52555   6.451  17.915   3.029
80973W        W52556  35.657  19.135  13.635
80974W        W52557  25.530  16.913   4.134
80975W        W52558  25.408  32.448  12.956
80976W        W52559  33.004  36.665  13.383
80977W        W52560  16.655  42.498  14.787
80978W        W52561  24.505   1.122   1.154
80979W        W52562  15.998   0.027   1.666
80980W        W52563  31.964  41.671  11.832
80981W        W52564  37.155  36.373  12.808
80982W        W52565  39.416  37.276   1.704
80983W        W52566  34.194  33.654   1.805
80984W        W52567  27.097  39.415  14.556
80985W        W52568  15.840  24.174  14.456
80986W        W52569  40.726  10.586   0.824
80987W        W52570  24.125  24.806   3.933
80988W        W52571   5.956  16.198   0.841
80989W        W52572  31.544  27.140  13.029
80990W        W52573  11.519  15.976   3.671
80991W        W52574  40.142  42.396   3.213
80992W        W52575  13.699  11.203  12.122
80993W        W52576   3.745  43.396  11.653
80994W        W52577   0.933  23.662  10.668
80995W        W52578  29.906   7.909  10.984
80996W        W52579  39.730  42.371   2.353
80997W        W52580  30.577   5.976   0.499
80998W        W52581  27.788   5.767   2.414
80999W        W52582  28.145  39.556  13.476
81000W        W52583  43.724  42.520  11.445
81001W        W52584  43.394  26.908  13.874
81002W        W52585  36.599   0.909   1.675
81003W        W52586  12.085   0.822   0.022
81004W        W52587  38.032  21.793  14.810
81005W        W52588  21.612  10.242  12.457
81006W        W52589  13.941  40.458   1.646
81007W        W52590  33.004  13.310  11.537
81008W        W52591  12.710  37.560   0.338
81009W        W52592   8.757  16.837   3.859
81010W        W52593   3.822  16.015   3.088
81011W        W52594  17.028  18.701  12.623
81012W        W52595  19.994  40.609   3.813
81013W        W52596  31.825  38.994  13.389
81014W        W52597  38.321  21.341   1.301
81015W        W52598  31.012   7.906  13.886
81016W        W52599  34.369   0.724  10.742
81017W        W52600  36.866  14.585  14.357
81018W        W52601  18.037  40.991   0.185
81019W        W52602   7.804  29.501  14.346
81020W        W52603  26.675  19.410   4.836
81021W        W52604  37.335   0.700  14.747
81022W        W52605  17.286  28.935  12.887
81023W        W52606  44.353  26.782  13.974
81024W        W52607  42.924  36.922   2.586
81025W        W52608   3.667  44.639   2.671
81026W        W52609  15.679  27.723   0.724
81027W        W52610  42.400  38.075  11.089
81028W        W52611  18.662   7.198   2.883
81029W        W52612  30.862   3.518  12.459
81030W        W52613  16.356  23.655  10.396
81031W        W52614  12.788  36.519   1.402
81032W        W52615  43.374  34.079  13.064
81033W        W52616   1.522  22.713  10.764
81034W        W52617  37.443   4.373   1.421
81035W        W52618  39.483   3.473  13.333
81036W        W52619  14.824  43.784  11.125
81037W        W52620   7.713  33.082   4.498
81038W        W52621   2.387  30.496   4.816
81039W        W52622  12.245  12.617  12.123
81040W        W52623  20.060   5.947  11.662
81041W        W52624  31.982   2.224   3.455
81042W        W52625  22.430   3.668   3.922
81043W        W52626  18.301  12.138   1.270
81044W        W52627  12.266  42.638  14.425
81045W        W52628  31.473  35.982   2.620
81046W        W52629  14.801  15.054   1.636
81047W        W52630   2.915  12.464  14.581
81048W        W52631   8.852  35.017  13.708
81049W        W52632  11.370  40.855  14.011
81050W        W52633  11.617  34.499   3.243
81051W        W52634  16.260   3.103  12.040
81052W        W52635   6.884  26.013   2.079
81053W        W52636  26.429  14.011  13.518
81054W        W52637  19.290  30.926  12.064
81055W        W52638  38.383   3.889   2.136
81056W        W52639  19.503  13.816  11.098
81057W        W52640  43.202  35.550  11.894
81058W        W52641  40.975   3.700   1.217
81059W        W52642  16.616   8.345  13.511
81060W        W52643  39.973  39.278  10.578
81061W        W52644  31.624   4.440  12.108
81062W        W52645   8.437   8.406   3.428
81063W        W52646   4.511  31.365   0.464
81064W        W52647   8.135  36.399  14.025
81065W        W52648  13.684   4.374   2.308
81066W        W52649  20.627   2.058   3.245
81067W        W52650   1.016   1.483   3.159
81068W        W52651   4.249  29.725  13.008
81069W        W52652  21.792  18.284  12.225
81070W        W52653   1.612   3.416  13.905
81071W        W52654  30.495   8.822  11.374
81072W        W52655  43.501  38.418  10.839
81073W        W52656  19.549  14.890   3.684
81074W        W52657  13.751  32.681   2.797
81075W        W52658  26.082   0.517  13.393
81076W        W52659  40.689  15.529  11.710
81077W        W52660  30.500  15.450  11.019
81078W        W52661   0.350  20.574  11.027
81079W        W52662  17.154   4.032  10.622
81080W        W52663   4.354  32.371  14.787
81081W        W52664  42.831   2.369   1.317
81082W        W52665  25.516  43.538  12.619
81083W        W52666  28.650   6.706   1.525
81084W        W52667  15.905  36.310   1.784
81085W        W52668  32.133  23.458   4.341
81086W        W52669  30.612   9.211   3.275
81087W        W52670   0.241  11.694  13.038
81088W        W52671  13.586  23.944   2.102
81089W        W52672  25.456  35.609   1.402
81090W        W52673  37.581  27.770   3.119
81091W        W52674  34.900  13.048   4.728
81092W        W52675  18.289   4.481   3.779
81093W        W52676   4.832   3.980   0.896
81094W        W52677  21.317  21.666   0.247
81095W        W52678  16.690   3.837  10.550
81096W        W52679  35.926  33.940   0.993
81097W        W52680   4.575  42.941  13.937
81098W        W52681  44.556   2.937   4.893
81099W        W52682  18.471  15.970   1.771
81100W        W52683  27.991  26.055  14.452
81101W        W52684  28.383   1.812  14.058
81102W        W52685   3.770  18.017  14.947
81103W        W52686  31.391   0.477   1.879
81104W        W52687  37.645  35.585   1.057
81105W        W52688   6.353   5.943  10.477
81106W        W52689  44.922  44.911   4.188
81107W        W52690   2.758  24.548   2.008
81108W        W52691  31.707  28.034  13.549
81109W        W52692  40.304   1.646  11.116
81110W        W52693  23.991  15.857   1.760
81111W        W52694   8.472  32.671  13.314
81112W        W52695  18.165  16.625   2.821
81113W        W52696  28.170   8.798   2.750
81114W        W52697  40.339   7.988  12.436
81115W        W52698  19.032   4.400   4.568
81116W        W52699  20.549  31.455   0.876
81117W        W52700  40.005  40.383  12.449
81118W        W52701  14.748  19.077  10.683
81119W        W52702   9.112   7.237  10.765
81120W        W52703  11.577  30.282  11.412
81121W        W52704  34.164  31.989  14.399
81122W        W52705   3.110  21.471  13.363
81123W        W52706  25.803   9.750   4.253
81124W        W52707  39.908   9.157  11.796
81125W        W52708   3.754  31.008  13.596
81126W        W52709   6.774  19.470  10.727
81127W        W52710   0.178   2.864   3.151
81128W        W52711  27.081   5.927  10.642
81129W        W52712   2.779  23.213   1.176
81130W        W52713  32.845  13.683   4.997
81131W        W52714   8.373  16.644  12.065
81132W        W52715  10.588  40.924   3.131
81133W        W52716   0.216  14.223  13.557
81134W        W52717  27.609  14.941  11.455
81135W        W52718  23.289  24.711   0.798
81136W        W52719  21.467   7.433   3.201
81137W        W52720  18.094  26.467   1.703
81138W        W52721  27.874  25.142  11.538
81139W        W52722  30.627  26.628  14.512
81140W        W52723  12.725   9.867   3.630
81141W        W52724  11.324  23.798  14.091
81142W        W52725  31.901  17.513   1.226
81143W        W52726  21.661  36.058   0.832
81144W        W52727  26.182  12.974   1.730
81145W        W52728   9.696  15.929  12.793
81146W        W52729  21.052  14.643   1.333
81147W        W52730  21.205  17.591   1.643
81148W        W52731   9.440  10.809  11.920
81149W        W52732  31.529  42.238   0.682
81150W        W52733  17.225  19.172   4.412
81151W        W52734  20.544  26.739  11.575
81152W        W52735  18.627  30.186  14.862
81153W        W52736  13.224  24.691  13.324
81154W        W52737  19.789  24.180  14.384
81155W        W52738   5.237  20.049  12.571
81156W        W52739  41.567  30.094  14.749
81157W        W52740  30.637   7.444   1.836
81158W        W52741  21.038  33.949   3.621
81159W        W52742   8.843  18.786   2.406
81160W        W52743  15.358  26.557  12.840
81161W        W52744  30.009  16.237  13.313
81162W        W52745  22.331   8.172  12.669
81163W        W52746  16.614  19.068  13.858
81164W        W52747  19.603  33.918  13.988
81165W        W52748  35.809  40.917  14.788
81166W        W52749   1.869  36.351  13.108
81167W        W52750  17.699  26.062   0.201
81168W        W52751   5.048  41.811   0.919
81169W        W52752  30.338  44.653   0.328
81170W        W52753   5.785  44.814   0.332
81171W        W52754  26.774  19.975  10.385
81172W        W52755  22.808  26.835  13.644
81173W        W52756  17.757  15.146   2.316
81174W        W52757   8.383   4.942  14.374
81175W        W52758  22.595  32.632   3.240
81176W        W52759   0.390  10.152   1.008
81177W        W52760  27.012   5.872   0.219
81178W        W52761   7.272  37.136   4.781
81179W        W52762  26.981  31.191   0.760
81180W        W52763  18.229  13.342   0.338
81181W        W52764  20.878  32.099  11.227
81182W        W52765  28.204  35.676   1.520
81183W        W52766  35.553   6.082  12.106
81184W        W52767  20.025   3.688   4.244
81185W        W52768  17.705   2.699   2.794
81186W        W52769  31.088  21.662  12.051
81187W        W52770  34.682   5.686  11.172
81188W        W52771  31.150  33.070  11.516
81189W        W52772  22.537  39.317  10.457
81190W        W52773  15.342   0.397  10.659
81191W        W52774  40.618   0.371   2.132
81192W        W52775  10.706  35.347  11.553
81193W        W52776  16.116  23.553  14.372
81194W        W52777  44.773  12.658   4.547
81195W        W52778  32.897  29.119   2.668
81196W        W52779   6.730  27.767   0.001
81197W        W52780  25.189  19.823  11.264
81198W        W52781  12.256  43.865   1.409
81199W        W52782  43.995  40.594  11.603
81200W        W52783  37.500  22.081   0.204
81201W        W52784   0.068  10.351   2.882
81202W        W52785  43.989   3.900   0.481
81203W        W52786  10.476  16.362  12.587
81204W        W52787   1.800  43.489  13.339
81205W        W52788  20.687  19.524   3.284
81206W        W52789  30.517   3.881   4.832
81207W        W52790   2.145   8.755  10.549
81208W        W52791  33.559  26.491   1.204
81209W        W52792   1.368   6.318  13.888
81210W        W52793   5.787  20.165  11.687
81211W        W52794  23.262  38.906  10.510
81212W        W52795  16.444  23.729  12.771
81213W        W52796  16.399  43.632   2.926
81214W        W52797  29.562  14.235   1.184
81215W        W52798  37.154   3.676  14.404
81216W        W52799   2.670  38.362   4.575
81217W        W52800   7.264   9.186  12.352
81218W        W52801  36.605  10.655  12.996
81219W        W52802   4.748  29.454  11.225
81220W        W52803  16.875  24.901   0.560
81221W        W52804  19.513   9.838  13.456
81222W        W52805  24.658  24.521  10.922
81223W        W52806   9.862  26.994   1.261
81224W        W52807   8.140  36.603   2.300
81225W        W52808  36.467  13.796  14.736
81226W        W52809   3.212  37.427   4.587
81227W        W52810  11.172  29.527   3.116
81228W        W52811  15.839  20.239   1.224
81229W        W52812  24.954  38.780  11.594
81230W        W52813  28.767  28.454  11.998
81231W        W52814  37.401  21.485  12.953
81232W        W52815  11.421  24.060   4.776
81233W        W52816  22.617  25.381   2.076
81234W        W52817  32.217  18.498  13.443
81235W        W52818  25.890   8.859  13.832
81236W        W52819  34.291  19.933  14.514
81237W        W52820  41.617   6.715   5.052
81238W        W52821  11.508  40.538  10.791
81239W        W52822  41.852  30.101  12.452
81240W        W52823  17.760  19.492  10.527
81241W        W52824   4.612  25.003  11.824
81242W        W52825  31.220  18.346  13.396
81243W        W52826  32.159  39.067   2.836
81244W        W52827  20.057  42.669   0.571
81245W        W52828  29.398  17.215   1.751
81246W        W52829  12.581  40.364  12.947
81247W        W52830  12.047  14.215   0.154
81248W        W52831   4.190  21.113   0.725
81249W        W52832  15.202  41.541   2.341
81250W        W52833   4.395   9.743  12.024
81251W        W52834  20.935  34.852   4.765
81252W        W52835  14.414  19.593  10.784
81253W        W52836  42.957   7.482  14.999
81254W        W52837  13.244  10.826   1.351
81255W        W52838   6.487  42.443   1.397
81256W        W52839  34.630  11.048  10.360
81257W        W52840  36.113  33.424  12.091
81258W        W52841  24.934  15.466  11.214
81259W        W52842  39.635  38.000  11.030
81260W        W52843  44.672  35.353   0.266
81261W        W52844   5.254  16.541  11.019
81262W        W52845  12.214  32.369  14.369
81263W        W52846  37.990  28.049   2.240
81264W        W52847  23.702  12.375   1.693
81265W        W52848   5.596   9.158   4.839
81266W        W52849  20.801  42.867  13.430
81267W        W52850  15.729  20.932  10.279
81268W        W52851  14.773  28.970   2.128
81269W        W52852  20.773  44.022  11.051
81270W        W52853  28.029   4.692   1.320
81271W        W52854  19.641   8.313   2.762
81272W        W52855  29.115  11.888  11.098
81273W        W52856  42.050  19.127   3.652
81274W        W52857   4.257  16.792   4.880
81275W        W52858  41.850  43.813  12.530
81276W        W52859   9.151  17.180  13.541
81277W        W52860  19.747  20.456  12.495
81278W        W52861   5.348  36.877  10.503
81279W        W52862   8.227  36.550  14.976
81280W        W52863  13.511  28.810  10.638
81281W        W52864  27.569  35.775  12.442
81282W        W52865  13.352  15.154   3.163
81283W        W52866  19.446  10.727   3.010
81284W        W52867  32.457  18.608   3.637
81285W        W52868  24.369  11.443  10.809
81286W        W52869  31.496   0.982   3.128
81287W        W52870  40.850   7.384   0.440
81288W        W52871  32.372  10.281  13.962
81289W        W52872  29.934  15.177   0.925
81290W        W52873  38.097  39.921   2.418
81291W        W52874  27.106  27.872  12.746
81292W        W52875  31.098   1.442  12.079
81293W        W52876  13.780  25.447  12.963
81294W        W52877  38.256  14.300  11.186
81295W        W52878  41.746  24.691  14.965
81296W        W52879  41.008  37.565  14.035
81297W        W52880  15.139  36.376  13.404
81298W        W52881   7.457  39.311   4.766
81299W        W52882  32.292   7.382  11.965
81300W        W52883  20.980  36.275  12.526
81301W        W52884  25.218   0.670  11.227
81302W        W52885  25.786  42.402   4.750
81303W        W52886   1.106  12.042  12.916
81304W        W52887   4.862  27.706  12.499
81305W        W52888  39.493   5.293   4.181
81306W        W52889  19.750  28.813   2.597
81307W        W52890  16.789   4.916  10.735
81308W        W52891  13.892  17.751  14.720
81309W        W52892   3.660   0.989  12.105
81310W        W52893  44.941  20.435  10.733
81311W        W52894  18.846  18.093  10.098
81312W        W52895  24.431  22.975   2.710
81313W        W52896  40.065  10.784  12.803
81314W        W52897  23.938  37.948   1.358
81315W        W52898  41.484  22.276  11.386
81316W        W52899  37.050  16.771   4.182
81317W        W52900  28.578  43.915   1.812
81318W        W52901   6.180   6.444  10.689
81319W        W52902   3.977   2.885  11.544
81320W        W52903  40.231  13.662  13.850
81321W        W52904  16.851  41.173  14.446
81322W        W52905   2.114   0.232   2.294
81323W        W52906  23.205  30.437  13.001
81324W        W52907  26.630  20.937   0.371
81325W        W52908  18.561  18.200  11.197
81326W        W52909  33.493   5.178  11.577
81327W        W52910   6.838  21.085   3.287
81328W        W52911  38.827  23.048  11.428
81329W        W52912  15.884  44.932   1.157
81330W        W52913  29.324  21.568   2.186
81331W        W52914  39.033  32.506  12.940
81332W        W52915  28.944  16.820   2.670
81333W        W52916  42.423  30.106  10.681
81334W        W52917   6.196   3.867  13.392
81335W        W52918   9.054  43.778   2.720
81336W        W52919  16.230  34.060   2.471
81337W        W52920   8.633   4.353   0.710
81338W        W52921  29.327  18.758  14.741
81339W        W52922   0.741  29.404  12.028
81340W        W52923  15.294  31.688   1.310
81341W        W52924   7.169  43.884   0.441
81342W        W52925  38.739  35.816   3.272
81343W        W52926  18.755  33.706  13.285
81344W        W52927   1.906  26.567   1.645
81345W        W52928   9.254  10.653  13.512
81346W        W52929  27.072  44.279  14.019
81347W        W52930  30.376  39.600   2.159
81348W        W52931   3.714  26.518  11.068
81349W        W52932  26.905  32.361   4.134
81350W        W52933  29.840  18.938  12.455
81351W        W52934  14.789  15.232  13.188
81352W        W52935   3.284  30.839   2.271
81353W        W52936  29.556  19.034   2.851
81354W        W52937  26.107  14.417   1.674
81355W        W52938  33.508  17.330   0.899
81356W        W52939  32.576  44.818  10.587
81357W        W52940  25.225  25.425  13.019
81358W        W52941  13.380   7.248   2.782
81359W        W52942  33.587  15.535  14.542
81360W        W52943  34.289  17.721   2.189
81361W        W52944  36.799  17.407  12.888
81362W        W52945  24.530  34.391  12.858
81363W        W52946   9.166  22.896   2.949
81364W        W52947  36.028  30.480  11.863
81365W        W52948  11.413   8.323   5.086
81366W        W52949  16.153  14.810   1.111
81367W        W52950  33.459  43.836  13.582
81368W        W52951  22.055  21.473   4.310
81369W        W52952  29.630  31.220  11.550
81370W        W52953   6.619  10.848   4.506
81371W        W52954   8.999  40.789  14.558
81372W        W52955  26.285  31.406   2.083
81373W        W52956  32.012   8.099  11.273
81374W        W52957  18.562  28.693   1.722
81375W        W52958   1.476  23.439   1.908
81376W        W52959  19.190  40.970   1.929
81377W        W52960  34.925  32.621  14.826
81378W        W52961  29.218  24.010  14.614
81379W        W52962  34.893  31.870   1.214
81380W        W52963  35.363  15.301  12.118
81381W        W52964   6.809  29.923   4.726
81382W        W52965  44.470  44.924   3.259
81383W        W52966   1.779   5.355   2.886
81384W        W52967  39.059  17.117  13.299
81385W        W52968   0.988  42.834   3.137
81386W        W52969  34.017  16.632  13.816
81387W        W52970  24.282   8.889  11.764
81388W        W52971  44.687   1.797  14.853
81389W        W52972  21.418  30.248  10.181
81390W        W52973  30.489   5.314  14.871
81391W        W52974   2.334  28.696   1.798
81392W        W52975   8.632  32.111   3.101
81393W        W52976  15.146   6.926   0.574
81394W        W52977  12.364   7.182   2.696
81395W        W52978  22.317  35.480  11.997
81396W        W52979  22.111   2.143  12.079
81397W        W52980  25.231  12.856   2.662
81398W        W52981   3.671  30.643  12.436
81399W        W52982  29.897  12.220   3.327
81400W        W52983  32.602  29.892  13.588
81401W        W52984  13.229   3.879  10.898
81402W        W52985   7.508  17.159   3.797
81403W        W52986  23.917  32.437   4.786
81404W        W52987   2.995  44.965   3.734
81405W        W52988  10.474  18.009  11.235
81406W        W52989  14.990  26.025  13.634
81407W        W52990  33.088   4.948   3.682
81408W        W52991  30.629  35.404  11.960
81409W        W52992  40.758  41.079  13.662
81410W        W52993  27.036  20.621  14.621
81411W        W52994  24.277   6.171   2.273
81412W        W52995  30.615  32.067  11.387
81413W        W52996  39.822   3.665   3.613
81414W        W52997  12.842  29.754  14.024
81415W        W52998   1.721  43.737   3.705
81416W        W52999   1.880  42.097   2.265
81417W        W53000  42.817  11.315   3.196
81418W        W53001  41.806  28.801  11.433
81419W        W53002  31.119  26.567   0.995
81420W        W53003   5.670  24.992   4.432
81421W        W53004  20.552  27.638  10.619
81422W        W53005  23.018  10.688   0.460
81423W        W53006  10.737  38.539   4.683
81424W        W53007   4.515  42.251   1.819
81425W        W53008  32.838  16.339  13.349
81426W        W53009  19.216  26.905   1.677
81427W        W53010  16.176  41.862   3.457
81428W        W53011  33.355  16.355  11.372
81429W        W53012   5.515   8.772   0.488
81430W        W53013   6.621   6.425   3.964
81431W        W53014  24.913  26.709   5.093
81432W        W53015  19.347  19.973   4.633
81433W        W53016  20.265  43.425   0.828
81434W        W53017   7.234  13.632   4.953
81435W        W53018  41.028   8.083   0.952
81436W        W53019   1.347  18.010   0.375
81437W        W53020  34.453  14.106  11.521
81438W        W53021  32.471  27.277   0.312
81439W        W53022  44.000   4.165   3.618
81440W        W53023  31.566  44.240   3.713
81441W        W53024   3.427  14.758   1.340
81442W        W53025  42.822   3.085   1.885
81443W        W53026  16.828   8.683   4.768
81444W        W53027  29.525  22.958  11.071
81445W        W53028  34.422  35.025  11.664
81446W        W53029  34.742   9.715   4.346
81447W        W53030  15.239  11.357   4.603
81448W        W53031  26.516  19.599   1.711
81449W        W53032  30.029  35.379   0.958
81450W        W53033  21.172  43.449   0.614
81451W        W53034   6.505   9.648   0.383
81452W        W53035  20.165  10.321   3.584
81453W        W53036   7.208  13.601   1.386
81454W        W53037  38.076   2.938  11.796
81455W        W53038  15.050  28.833  12.102
81456W        W53039  19.015   6.567   2.266
81457W        W53040  12.690  11.625  10.879
81458W        W53041  25.626  34.506  10.950
81459W        W53042  31.679  12.328  11.407
81460W        W53043   4.461  41.310   2.190
81461W        W53044  31.815  11.649  13.338
81462W        W53045  26.118  36.847  11.998
81463W        W53046  10.108   5.075  11.127
81464W        W53047  35.083  28.489   0.083
81465W        W53048   0.495  16.060  13.895
81466W        W53049  37.378  24.217  12.044
81467W        W53050  28.103  30.026   0.806
81468W        W53051  34.558  36.611  14.751
81469W        W53052  23.752  35.159  14.021
81470W        W53053  18.511  27.991  14.809
81471W        W53054  34.519  31.108   3.733
81472W        W53055   4.335  29.744  11.340
81473W        W53056  30.569  30.717   0.377
81474W        W53057  20.856  15.551   2.846
81475W        W53058  12.218  34.904   4.194
81476W        W53059  28.908   5.677  11.064
81477W        W53060  34.459  37.824  13.669
81478W        W53061  34.224   1.544  12.023
81479W        W53062  30.071  39.554   0.818
81480W        W53063   9.169   3.295   4.822
81481W        W53064  40.350   2.856   0.312
81482W        W53065  15.223  25.670   2.357
81483W        W53066   4.278  18.093   2.168
81484W        W53067  20.097  25.051  14.580
81485W        W53068  29.499   7.959  10.662
81486W        W53069  11.598  21.725  13.978
81487W        W53070  36.383  29.076   5.171
81488W        W53071  21.415  20.184   1.404
81489W        W53072  18.354  18.127   4.121
81490W        W53073  40.907  30.712   2.525
81491W        W53074  37.980  41.765  11.377
81492W        W53075  31.897   1.314   0.808
81493W        W53076  28.605   8.865   4.245
81494W        W53077  12.650  44.278   0.575
81495W        W53078  26.691  12.763   3.697
81496W        W53079  24.521  20.131  13.453
81497W        W53080  42.471   1.727   3.889
81498W        W53081  19.525   4.816  14.404
81499W        W53082  25.236  27.590  10.633
81500W        W53083  38.204   0.539   3.605
81501W        W53084  18.727  15.330  14.371
81502W        W53085  26.161  31.682   0.414
81503W        W53086  14.266  20.632  14.275
81504W        W53087  39.936  23.912   0.827
81505W        W53088  37.746   3.783   2.586
81506W        W53089  35.916  21.134   3.512
81507W        W53090  29.287   9.258  12.939
81508W        W53091   1.854  33.419   4.131
81509W        W53092  15.306  27.925  14.311
81510W        W53093  32.461  24.747   4.212
81511W        W53094  23.740   4.505   0.296
81512W        W53095  15.163  11.855  11.550
81513W        W53096  26.148  30.991  13.476
81514W        W53097   3.512  29.515  14.792
81515W        W53098  24.262  23.546   4.556
81516W        W53099  11.170  34.509   4.671
81517W        W53100  10.729  14.638  11.070
81518W        W53101  11.396  39.001   2.749
81519W        W53102  33.946   7.329   4.721
81520W        W53103  30.067   4.946  13.526
81521W        W53104   5.161  25.110  11.035
81522W        W53105   8.271  26.430   4.365
81523W        W53106   3.019  34.746  11.481
81524W        W53107  36.068  38.492   2.813
81525W        W53108  32.359  33.355   2.676
81526W        W53109  37.530  36.877  13.954
81527W        W53110  44.855   0.274   2.133
81528W        W53111   3.760   0.286   2.848
81529W        W53112  38.961   9.110   0.296
81530W        W53113  37.789   0.869  14.870
81531W        W53114  26.053  42.550  10.997
81532W        W53115  31.941  29.225  11.644
81533W        W53116  21.605  42.264   2.177
81534W        W53117  24.607   0.211  13.443
81535W        W53118  32.038   3.064   2.524
81536W        W53119  13.830  28.702   1.140
81537W        W53120  26.944  19.733  11.545
81538W        W53121  33.865   3.651  12.870
81539W        W53122  31.947  39.044   3.298
81540W        W53123  25.612  31.278   2.527
81541W        W53124  26.565  17.617   1.355
81542W        W53125  16.200  43.202   3.141
81543W        W53126  30.400   1.865   4.639
81544W        W53127  42.527  28.559   4.866
81545W        W53128   7.831  41.778  10.694
81546W        W53129  13.550  36.558  11.492
81547W        W53130   6.596  39.169   4.259
81548W        W53131  33.964  23.005  11.915
81549W        W53132   8.587  25.000   4.211
81550W        W53133  19.788  23.263  12.475
81551W        W53134   4.500  26.645  10.653
81552W        W53135  41.067   8.248  11.026
81553W        W53136  25.186  42.813   3.606
81554W        W53137  14.377  23.741   2.451
81555W        W53138  24.049  18.884  14.764
81556W        W53139  22.585  28.522   0.035
81557W        W53140   7.328  10.345  12.345
81558W        W53141  32.866  43.612   3.873
81559W        W53142  17.315  19.319   2.445
81560W        W53143  41.620  43.435  12.040
81561W        W53144  27.566  42.025   2.487
81562W        W53145   0.924  42.286   3.771
81563W        W53146  11.393  16.032   2.783
81564W        W53147   7.163  15.340  10.705
81565W        W53148  24.363  28.875   3.767
81566W        W53149  33.869  22.780  10.693
81567W        W53150  20.583  21.593  11.403
81568W        W53151   1.223   9.991  11.625
81569W        W53152   4.831  21.737  12.083
81570W        W53153   2.326  33.616   4.251
81571W        W53154  26.099   4.678   1.339
81572W        W53155  34.319   2.961   0.991
81573W        W53156  13.329   4.545   1.480
81574W        W53157  44.376  27.783   0.805
81575W        W53158  39.002  35.470  13.091
81576W        W53159  25.134  42.207  13.043
81577W        W53160  24.063  26.369  11.813
81578W        W53161  39.793   7.968  14.481
81579W        W53162  38.353  40.486   3.015
81580W        W53163  11.289   8.999  13.266
81581W        W53164  37.435   4.326  12.443
81582W        W53165  42.937  31.562   3.177
81583W        W53166  42.417  21.196   2.870
81584W        W53167  32.659  30.854  13.792
81585W        W53168  29.946  37.550  13.831
81586W        W53169  11.565  31.404   4.182
81587W        W53170   2.270  39.868  10.459
81588W        W53171  18.892   6.767   4.385
81589W        W53172  13.940  20.852   4.662
81590W        W53173  22.695  39.161   0.441
81591W        W53174  26.242   9.211  12.494
81592W        W53175  16.790  43.994  13.517
81593W        W53176  32.560  15.692  11.581
81594W        W53177  42.991  31.428   4.055
81595W        W53178  43.611  44.455  11.056
81596W        W53179   3.734   4.907   2.201
81597W        W53180  43.359  12.321   2.529
81598W        W53181  33.341  10.191  14.651
81599W        W53182   1.257   3.268   0.324
81600W        W53183   4.831  33.304   1.715
81601W        W53184  30.909  38.591   1.845
81602W        W53185   6.615  20.493  12.194
81603W        W53186  25.657  19.556  13.871
81604W        W53187  35.048  30.054  12.957
81605W        W53188  16.635  13.214   0.771
81606W        W53189  39.219  25.481   1.342
81607W        W53190  43.888   8.168  12.617
81608W        W53191  41.575  37.405   4.165
81609W        W53192  21.105  31.561  13.084
81610W        W53193  31.213  26.652   2.017
81611W        W53194  10.855   9.863  14.913
81612W        W53195  18.825  10.368   1.372
81613W        W53196  40.909   9.567  11.533
81614W        W53197  22.074  21.676   2.714
81615W        W53198  22.123  11.670  14.828
81616W        W53199  31.908  39.106  11.818
81617W        W53200  15.010  42.705   0.891
81618W        W53201  21.102  28.395  12.619
81619W        W53202  20.083  28.988  14.897
81620W        W53203  39.319  16.570   3.613
81621W        W53204  29.640  21.932   0.292
81622W        W53205  33.397   1.801  10.118
81623W        W53206   6.714   4.854   4.186
81624W        W53207  41.067  16.774   0.019
81625W        W53208   5.587  12.958   1.213
81626W        W53209  32.063  42.418   2.463
81627W        W53210  27.108   1.818  11.531
81628W        W53211   3.141  16.888  14.932
81629W        W53212  34.041  13.600   2.386
81630W        W53213  40.900  43.288   4.493
81631W        W53214  26.697  30.515   1.005
81632W        W53215   7.384  16.593   0.744
81633W        W53216  40.503   3.437  11.127
81634W        W53217  32.114  30.355   4.111
81635W        W53218  28.615  20.512   2.171
81636W        W53219  36.186  24.635   2.731
81637W        W53220  15.418  10.085  12.856
81638W        W53221  15.540  16.351   0.722
81639W        W53222  32.579  24.941   2.982
81640W        W53223  30.658   1.287  14.429
81641W        W53224   6.218  32.511   4.030
81642W        W53225  42.000  10.223   1.758
81643W        W53226  35.645  10.597   4.249
81644W        W53227   5.414  34.914   0.299
81645W        W53228  12.564  44.001  12.804
81646W        W53229  31.631   9.764  11.572
81647W        W53230  20.046   0.831   3.291
81648W        W53231   6.239  26.681   1.723
81649W        W53232  18.112  18.802   3.423
81650W        W53233  43.438   5.293   2.303
81651W        W53234   3.864  39.182   0.963
81652W        W53235   5.659   5.350   2.393
81653W        W53236  34.421  22.981   2.680
81654W        W53237  43.432  12.237  12.955
81655W        W53238  21.231  18.482  12.929
81656W        W53239  20.340  17.535  14.145
81657W        W53240  25.210   3.405   4.763
81658W        W53241  17.396  26.510   2.632
81659W        W53242  25.930  38.516   2.713
81660W        W53243  38.023   7.696   3.321
81661W        W53244  38.502   5.626  14.666
81662W        W53245  12.147  38.616   3.731
81663W        W53246  34.459  41.800  14.043
81664W        W53247   0.522  25.080   1.527
81665W        W53248   7.982  12.371   1.898
81666W        W53249  16.608  27.205   0.766
81667W        W53250  41.358  40.770   0.848
81668W        W53251  36.749  36.035   2.226
81669W        W53252  22.462  34.120   3.319
81670W        W53253  30.287  29.597   3.803
81671W        W53254  24.583  42.843  13.797
81672W        W53255  41.019  38.024  14.333
81673W        W53256  11.117  15.152   3.824
81674W        W53257   4.233  23.991  11.128
81675W        W53258   4.312   3.684  13.398
81676W        W53259  23.785  20.992   3.689
81677W        W53260  40.494  42.193  12.929
81678W        W53261  11.649   4.823   0.204
81679W        W53262  15.353  12.088   0.317
81680W        W53263  43.496  43.429   1.042
81681W        W53264  11.183  40.046  14.376
81682W        W53265  40.359   5.358  12.900
81683W        W53266  27.954  16.093  10.267
81684W        W53267  35.497  10.459   1.772
81685W        W53268  34.517  31.973  10.730
81686W        W53269   3.366  39.050   0.927
81687W        W53270  10.702  24.014  10.765
81688W        W53271  35.884  44.889  14.620
81689W        W53272   4.921  20.961  13.893
81690W        W53273  33.909  22.049  14.792
81691W        W53274  28.127  20.992  12.875
81692W        W53275  34.793  18.112   5.126
81693W        W53276   4.757  14.271  14.654
81694W        W53277  38.624  37.389  14.356
81695W        W53278  21.310  27.633   2.227
81696W        W53279  41.967   5.937   1.994
81697W        W53280   0.082  16.649   0.018
81698W        W53281  21.760   3.677  13.342
81699W        W53282  21.073  19.082  11.137
81700W        W53283  27.322   4.328   0.004
81701W        W53284  37.059  10.121   0.513
81702W        W53285  30.404  41.478  12.386
81703W        W53286  29.040  16.173  12.811
81704W        W53287   0.878  16.525   0.379
81705W        W53288  39.488  18.539   1.158
81706W        W53289  30.371   5.913   4.557
81707W        W53290  18.803  30.624   4.610
81708W        W53291   9.748  31.231   0.299
81709W        W53292  26.272  22.156  12.003
81710W        W53293   9.591  29.662  12.666
81711W        W53294  44.697  22.489  14.299
81712W        W53295  29.497   1.130   3.707
81713W        W53296  33.334   4.326   1.930
81714W        W53297  15.281  36.141   3.361
81715W        W53298  32.876  17.232  11.132
81716W        W53299   8.303   4.911  11.074
81717W        W53300  11.413  11.643  12.407
81718W        W53301   2.394   2.507  14.973
81719W        W53302  30.177  28.940   2.843
81720W        W53303  10.359  37.055  12.018
81721W        W53304  22.251  21.468  10.580
81722W        W53305  33.013  35.094   3.001
81723W        W53306  36.822  27.218   1.960
81724W        W53307  27.438  14.029   1.893
81725W        W53308  32.992  23.211  14.386
81726W        W53309  42.063   4.454   0.016
81727W        W53310  14.631  27.608   5.075
81728W        W53311  18.699  27.506  11.889
81729W        W53312  30.694   5.754   2.321
81730W        W53313  26.438   6.733  14.398
81731W        W53314  38.322   8.120   4.261
81732W        W53315   4.270  15.334   3.217
81733W        W53316  18.315  11.924  14.395
81734W        W53317   5.208  30.477  13.875
81735W        W53318  44.344  18.942  14.397
81736W        W53319  20.184  35.003   0.293
81737W        W53320  26.407  16.548  10.750
81738W        W53321   9.813  23.575  11.959
81739W        W53322  35.497  33.386   3.729
81740W        W53323  10.119  44.905  13.345
81741W        W53324  23.196  21.107   4.694
81742W        W53325  26.965  14.228  11.619
81743W        W53326   1.874  35.145   3.789
81744W        W53327  25.061  25.616   1.406
81745W        W53328  42.513  12.748   0.264
81746W        W53329  31.186  17.831   2.862
81747W        W53330  43.901   5.887  10.486
81748W        W53331  43.748  14.192   4.172
81749W        W53332  14.437  28.725  11.500
81750W        W53333  17.214   0.835  10.641
81751W        W53334  41.463  26.690  13.342
81752W        W53335  26.121  23.827   1.313
81753W        W53336  22.993   2.914   0.900
81754W        W53337  31.981  42.379  13.478
81755W        W53338  40.578  41.005  12.122
81756W        W53339  41.732  12.335   4.532
81757W        W53340  39.882  19.756   3.496
81758W        W53341   1.060  11.767  10.294
81759W        W53342  23.646  27.492  13.494
81760W        W53343  42.756  21.229  13.915
81761W        W53344  33.951  26.542   4.643
81762W        W53345  44.433  36.537   3.676
81763W        W53346  38.884  12.390   4.742
81764W        W53347  36.670  21.133   3.134
81765W        W53348  23.677   2.902   1.428
81766W        W53349  43.134  22.395   9.961
81767W        W53350  14.369   4.607  11.062
81768W        W53351  38.811  41.873   4.858
81769W        W53352  28.439  24.201   2.537
81770W        W53353   5.752   3.018  12.325
81771W        W53354   1.249  10.163   1.388
81772W        W53355   8.200  10.767   1.973
81773W        W53356  37.509  18.796  12.468
81774W        W53357  30.529  24.673  12.077
81775W        W53358   6.635  13.124   3.611
81776W        W53359  40.819  34.612  11.185
81777W        W53360  20.288  29.129   0.811
81778W        W53361  14.198   5.727   0.183
81779W        W53362  14.457  27.591  14.468
81780W        W53363   2.202  44.661   0.836
81781W        W53364  31.583  43.874  12.343
81782W        W53365  43.518  19.523  12.005
81783W        W53366  28.055  39.074   2.083
81784W        W53367   8.205   9.357   3.876
81785W        W53368  15.064   5.584   3.812
81786W        W53369  44.208  38.237  12.502
81787W        W53370  24.502  43.258  14.108
81788W        W53371   4.208  38.586   5.446
81789W        W53372  39.409  31.509   3.394
81790W        W53373  18.122  36.778  13.928
81791W        W53374  39.594  41.942   0.943
81792W        W53375  35.388  37.591  12.068
81793W        W53376  44.208  30.677   2.775
81794W        W53377   7.956  36.324   2.776
81795W        W53378  42.254  16.021  12.941
81796W        W53379  34.861  10.823   1.055
81797W        W53380  44.319  23.176   0.313
81798W        W53381  41.073  38.110  11.720
81799W        W53382  38.943   3.698   0.947
81800W        W53383   3.484   7.601   4.483
81801W        W53384  37.896   1.217  11.569
81802W        W53385   4.766  31.472  10.267
81803W        W53386   0.478  16.571   1.388
81804W        W53387   1.611  43.532  11.883
81805W        W53388   4.390  40.229   5.236
81806W        W53389  15.730  36.285  12.021
81807W        W53390  13.956  38.395  14.390
81808W        W53391  16.171  30.495  14.936
81809W        W53392  12.220  27.959  13.418
81810W        W53393  30.572  19.779   5.481
81811W        W53394  37.057   9.938  11.917
81812W        W53395  42.324  29.621  10.911
81813W        W53396   4.669  30.624   4.961
81814W        W53397  38.416  29.875  13.466
81815W        W53398  44.134  35.428   4.503
81816W        W53399  10.184  36.469   4.224
81817W        W53400  41.642  10.457   0.497
81818W        W53401  22.222   7.368  11.124
81819W        W53402  19.585  24.759   0.366
81820W        W53403   6.939  24.506   3.517
81821W        W53404  35.205  28.934  12.666
81822W        W53405  23.658  22.514  13.362
81823W        W53406  42.367  14.803  13.999
81824W        W53407  43.840  37.408  11.949
81825W        W53408  31.194  14.386  12.497
81826W        W53409   0.490  21.722  11.374
81827W        W53410   7.307  16.225  11.099
81828W        W53411  10.128  17.218   1.726
81829W        W53412  30.527  16.679   3.317
81830W        W53413  28.551  15.834   2.447
81831W        W53414  10.198  44.901  13.868
81832W        W53415  19.658  21.737   2.459
81833W        W53416   5.439  40.468   1.708
81834W        W53417  39.045  19.720   0.687
81835W        W53418  22.214   7.120  13.538
81836W        W53419  14.064  14.988  12.991
81837W        W53420  32.055  16.848  10.412
81838W        W53421  17.325  30.128   1.859
81839W        W53422   1.718  18.076  12.096
81840W        W53423  12.612   9.372  10.898
81841W        W53424   5.739  13.400   0.286
81842W        W53425  28.559  18.008  13.974
81843W        W53426  21.095   5.859   3.960
81844W        W53427   7.345  17.547   3.099
81845W        W53428  37.276   5.820  11.544
81846W        W53429   2.903  43.561   0.587
81847W        W53430  30.374  22.136   1.879
81848W        W53431  19.124  39.806  12.926
81849W        W53432  22.221   9.846  12.857
81850W        W53433   0.337  21.010   0.280
81851W        W53434   2.955   8.845   3.351
81852W        W53435  11.584   3.765  13.358
81853W        W53436   0.689  18.612  12.319
81854W        W53437  11.889  17.821   2.716
81855W        W53438  12.665  42.453  12.159
81856W        W53439  44.828  25.465  13.950
81857W        W53440   4.897  36.519   0.869
81858W        W53441  26.956   8.262   1.017
81859W        W53442  10.039  33.825  12.558
81860W        W53443  28.620  10.199  14.462
81861W        W53444  42.006  30.169   0.874
81862W        W53445  37.024  18.883   1.457
81863W        W53446  15.740   1.600  12.132
81864W        W53447  17.064  20.263  14.041
81865W        W53448  42.305  18.209  10.601
81866W        W53449  19.401  41.338   3.823
81867W        W53450   8.635   5.943   2.386
81868W        W53451   7.281   7.981   4.028
81869W        W53452  32.943  37.668   5.034
81870W        W53453  16.817   6.735  12.673
81871W        W53454   5.708  41.309  13.367
81872W        W53455  43.805  20.337  11.212
81873W        W53456  22.716  14.804  12.786
81874W        W53457  21.544  17.883   0.952
81875W        W53458  39.326  33.225  12.892
81876W        W53459   7.182  11.313  14.063
81877W        W53460  25.145  36.642   1.370
81878W        W53461  30.463  19.663   1.492
81879W        W53462  43.038  10.178  13.706
81880W        W53463  36.510  24.673   4.571
81881W        W53464   0.444  23.648   0.475
81882W        W53465   3.113  40.865   2.892
81883W        W53466  11.361  24.185  13.475
81884W        W53467   0.836  17.361  13.918
81885W        W53468  23.206  17.225   4.664
81886W        W53469  24.552  35.326   2.625
81887W        W53470   0.248  11.632   0.054
81888W        W53471   2.919  39.055  12.512
81889W        W53472  38.939  34.831  12.329
81890W        W53473  23.175  12.171  10.751
81891W        W53474  35.231  32.453  11.774
81892W        W53475  15.392  11.750  11.094
81893W        W53476  16.121   3.575   2.699
81894W        W53477  40.795  41.909   4.605
81895W        W53478  15.619  21.488   1.735
81896W        W53479   5.924  37.973  13.873
81897W        W53480  13.739  29.400  13.880
81898W        W53481  17.865  38.247   3.753
81899W        W53482  38.345  29.741  14.599
81900W        W53483   3.444   7.373  13.434
81901W        W53484   4.421  38.746   3.658
81902W        W53485  34.484   1.407   2.860
81903W        W53486   4.719  42.390  12.545
81904W        W53487  32.218  17.200   1.502
81905W        W53488  24.080  14.024   4.616
81906W        W53489  43.948   8.756  10.580
81907W        W53490  37.472  34.965  11.552
81908W        W53491  13.597  30.862  13.488
81909W        W53492  18.501  25.817   4.332
81910W        W53493   8.159  16.201   1.171
81911W        W53494  40.972   8.359  11.959
81912W        W53495  33.971  41.060   0.911
81913W        W53496  44.477  25.092   4.410
81914W        W53497  14.929   7.040  12.830
81915W        W53498   2.471   9.767   2.238
81916W        W53499  23.317  13.257   3.122
81917W        W53500  18.911  35.645   9.998
81918W        W53501  24.631  14.249   1.714
81919W        W53502  11.415  21.833  12.035
81920W        W53503  23.671  24.431  12.489
81921W        W53504  18.615  41.341  14.470
81922W        W53505  24.061  35.431   0.696
81923W        W53506  17.114  27.062  11.945
81924W        W53507  24.029   0.954   1.013
81925W        W53508   8.212  19.094   4.605
81926W        W53509  30.124  17.102   2.119
81927W        W53510  44.834   3.225  14.466
81928W        W53511   9.797  20.560  11.110
81929W        W53512   7.726  28.642  11.602
81930W        W53513  22.090  14.975   3.674
81931W        W53514   4.224  36.326   5.033
81932W        W53515   8.489  16.997  10.648
81933W        W53516   7.869   3.953   0.611
81934W        W53517  38.943  22.159   1.274
81935W        W53518  23.502   0.897   0.949
81936W        W53519  23.272  33.368  11.141
81937W        W53520  22.678  28.817  11.690
81938W        W53521  30.145  41.437  12.858
81939W        W53522   8.878  21.704   2.431
81940W        W53523  15.294  22.036  10.445
81941W        W53524   2.330   6.392  11.618
81942W        W53525  22.610  35.627   2.588
81943W        W53526  42.377   0.482   4.739
81944W        W53527  38.073  43.390   3.093
81945W        W53528  29.465  40.442   0.919
81946W        W53529  43.794  33.608  10.566
81947W        W53530  10.154  29.696  13.007
81948W        W53531  30.854  35.449  11.501
81949W        W53532  35.482  35.564  12.701
81950W        W53533  21.774   5.747  13.023
81951W        W53534   4.744   4.462   0.667
81952W        W53535  38.071  21.027   3.046
81953W        W53536  30.966  33.446  13.891
81954W        W53537   7.427  20.432   4.231
81955W        W53538  17.043  29.704  13.390
81956W        W53539  26.469  28.539  14.847
81957W        W53540  44.304  15.797   3.906
81958W        W53541  15.539   2.794  14.446
81959W        W53542  11.619  35.838  13.440
81960W        W53543  37.887   6.532  13.780
81961W        W53544  12.935  29.379  10.770
81962W        W53545   2.036   1.645   4.158
81963W        W53546  31.002  22.978   2.323
81964W        W53547  25.524  36.431   1.933
81965W        W53548  22.989  11.316  12.400
81966W        W53549   9.368  38.887  12.181
81967W        W53550  15.364  24.945   1.379
81968W        W53551  39.873  12.183   3.647
81969W        W53552  24.673  24.937  12.494
81970W        W53553  29.593  29.280   4.512
81971W        W53554   0.315   6.299   4.384
81972W        W53555  41.298   8.557  11.395
81973W        W53556  36.660  38.797  10.669
81974W        W53557   7.169  35.352   1.283
81975W        W53558  35.221  13.704   2.183
81976W        W53559  32.856  10.322  12.622
81977W        W53560  35.976  21.860   2.829
81978W        W53561  27.562  25.291   3.240
81979W        W53562  36.574  39.367  12.937
81980W        W53563   6.299  10.692  11.341
81981W        W53564  28.053  13.431  13.105
81982W        W53565  25.670   7.407  13.985
81983W        W53566  19.812  21.922   0.034
81984W        W53567  10.486  31.077   0.834
81985W        W53568  35.724   7.351   2.422
81986W        W53569  10.185  38.996   2.358
81987W        W53570  33.050  42.834   2.319
81988W        W53571  33.166  30.993  14.919
81989W        W53572   7.702  28.599   3.082
81990W        W53573  39.755  25.943  12.619
81991W        W53574  32.152  37.774  14.784
81992W        W53575  19.232  13.768   2.735
81993W        W53576   9.649  33.537   0.240
81994W        W53577  21.679  21.496   0.925
81995W        W53578  26.532  34.721  11.958
81996W        W53579  28.921  40.867   0.514
81997W        W53580  11.937  38.047  11.933
81998W        W53581   0.777  22.127   0.799
81999W        W53582   1.957  32.873   2.387
82000W        W53583   9.163  18.819   2.810
82001W        W53584  15.575   2.742   2.882
82002W        W53585  18.094   7.849  11.905
82003W        W53586  13.207  15.736  10.987
82004W        W53587  26.690  37.116   3.248
82005W        W53588  37.398   6.749  13.050
82006W        W53589  41.529  36.834   1.301
82007W        W53590  34.125   9.260   2.736
82008W        W53591   1.375  13.599   4.046
82009W        W53592  35.593  41.550   3.759
82010W        W53593  23.245  24.898   3.210
82011W        W53594  22.269  42.617  12.482
82012W        W53595  39.075  22.642  13.326
82013W        W53596   1.296  34.115   4.198
82014W        W53597  38.973  29.920   0.026
82015W        W53598  35.562   4.296  12.894
82016W        W53599  12.234  34.371   2.300
82017W        W53600  28.549  34.733   2.339
82018W        W53601  23.823   6.171   1.299
82019W        W53602  17.600  40.290  14.356
82020W        W53603  35.003  12.942  10.389
82021W        W53604  28.683  36.699   0.983
82022W        W53605  16.106  13.827   3.118
82023W        W53606  12.227  25.111   4.302
82024W        W53607  37.334  38.087  12.978
82025W        W53608   2.383  26.954  14.078
82026W        W53609  30.169   9.816  12.121
82027W        W53610  40.384   2.133  10.970
82028W        W53611   4.440  32.804   0.997
82029W        W53612   5.215  28.608  11.623
82030W        W53613   3.606   0.911  11.194
82031W        W53614  14.109  13.807   4.162
82032W        W53615   8.759  44.544  13.957
82033W        W53616  39.422   4.144   1.321
82034W        W53617  20.172  26.488   1.336
82035W        W53618   6.894  17.845   0.359
82036W        W53619  19.812  16.147   0.312
82037W        W53620  38.553   8.741   0.405
82038W        W53621  37.656  24.004  11.680
82039W        W53622  21.053  44.928  12.047
82040W        W53623   0.838  31.379  14.436
82041W        W53624   9.251  31.749  13.875
82042W        W53625  36.371  36.811   0.747
82043W        W53626  27.033  20.572  12.451
82044W        W53627  22.056  44.389  12.404
82045W        W53628  16.139  27.019   0.018
82046W        W53629  12.719  44.984   3.675
82047W        W53630   1.464  35.080  13.109
82048W        W53631   1.393   7.869  14.943
82049W        W53632  24.668   8.275  13.886
82050W        W53633  16.076   0.973  13.408
82051W        W53634  36.120   5.628   4.766
82052W        W53635  16.682  14.605   0.837
82053W        W53636  28.568   8.862   3.256
82054W        W53637  30.590   7.726   3.170
82055W        W53638   0.306  18.132  11.199
82056W        W53639  40.315  11.131  14.170
82057W        W53640  10.284  22.070  10.197
82058W        W53641  15.708  21.030   0.543
82059W        W53642  12.640  28.162  12.487
82060W        W53643  11.166  32.878  14.430
82061W        W53644  31.871  44.005  14.734
82062W        W53645  28.924  34.943  13.135
82063W        W53646   7.722  22.034   3.622
82064W        W53647  27.511  40.022   0.786
82065W        W53648   8.833  17.762  14.916
82066W        W53649  41.434  38.925   3.378
82067W        W53650  21.585  22.426  11.691
82068W        W53651  23.507   1.836  12.560
82069W        W53652  36.479  15.295  13.394
82070W        W53653  26.431  35.990   1.888
82071W        W53654   0.965  36.892   4.647
82072W        W53655  35.646  22.510   3.706
82073W        W53656  28.922  27.433  14.346
82074W        W53657  44.979  31.360  11.202
82075W        W53658  25.196  11.807  10.630
82076W        W53659  19.811  28.433  14.055
82077W        W53660  16.925  24.007   0.303
82078W        W53661   4.270  16.061   3.865
82079W        W53662  43.799  21.118  11.458
82080W        W53663  20.687   3.213   3.733
82081W        W53664  18.606  18.085   1.923
82082W        W53665  28.040  23.069   4.332
82083W        W53666  14.061  26.493   3.161
82084W        W53667  38.175  26.162  14.420
82085W        W53668   1.526  31.566   4.077
82086W        W53669  16.518  13.141   1.288
82087W        W53670  25.591   5.909   4.396
82088W        W53671  27.707   9.781  14.766
82089W        W53672  10.609  34.600  10.957
82090W        W53673   6.779   2.925   1.873
82091W        W53674   7.245  23.045   2.243
82092W        W53675  25.097  41.233   4.047
82093W        W53676  30.706  28.851  14.173
82094W        W53677  30.168  29.071  13.326
82095W        W53678   8.759  39.811   1.173
82096W        W53679  21.034  23.496   3.874
82097W        W53680  17.611   8.661   2.331
82098W        W53681  33.505  13.043   5.201
82099W        W53682  33.571  27.408  10.765
82100W        W53683   2.811   4.180   4.827
82101W        W53684   1.002  16.845  13.924
82102W        W53685  23.705  23.931  12.457
82103W        W53686  39.095  18.282   3.291
82104W        W53687  33.112  39.176  13.874
82105W        W53688  12.603  36.204   3.162
82106W        W53689  13.830  16.542   4.367
82107W        W53690   0.921  12.681   3.666
82108W        W53691  18.073  29.113  13.342
82109W        W53692  31.033  33.912   4.131
82110W        W53693  33.369  31.117  11.091
82111W        W53694  43.388   1.418   4.687
82112W        W53695  17.528  26.577   0.406
82113W        W53696   3.440   4.755  10.792
82114W        W53697  35.397   0.320   4.829
82115W        W53698  34.868  32.444   4.071
82116W        W53699  21.618  21.063  13.753
82117W        W53700  26.437  10.419   1.655
82118W        W53701  20.218  29.553   2.661
82119W        W53702  15.257  30.344  12.987
82120W        W53703  43.853  11.485  12.166
82121W        W53704  15.143  33.331   0.436
82122W        W53705  40.760  39.861  14.449
82123W        W53706  37.023  19.350   4.059
82124W        W53707   9.162   8.209  13.982
82125W        W53708  21.206  18.975   1.835
82126W        W53709  21.135   0.412   0.564
82127W        W53710  28.141  38.836  14.583
82128W        W53711  42.893  19.433  14.006
82129W        W53712  32.908   6.708   0.179
82130W        W53713  20.805  39.405   0.366
82131W        W53714  36.967  18.653  12.120
82132W        W53715  25.252  32.090   0.499
82133W        W53716  15.496  13.795  14.792
82134W        W53717  13.174  16.365   4.616
82135W        W53718  16.679   3.560  10.995
82136W        W53719  20.598   7.243   2.813
82137W        W53720  21.813   5.299  13.350
82138W        W53721  34.338   5.165  11.796
82139W        W53722  20.690   2.819  12.017
82140W        W53723  24.138  13.223   4.674
82141W        W53724  17.021  41.359   4.134
82142W        W53725  14.057  11.779   4.635
82143W        W53726  18.082  11.592   2.210
82144W        W53727  41.032  27.111   0.419
82145W        W53728  31.812  19.275  13.311
82146W        W53729  14.547   7.012  13.606
82147W        W53730  13.809   8.127   0.412
82148W        W53731  24.186  26.382   2.796
82149W        W53732   9.395  21.387   1.153
82150W        W53733  25.222  23.661  12.630
82151W        W53734  35.476  21.798   3.083
82152W        W53735  44.754  16.085  12.594
82153W        W53736  37.636  28.719  14.419
82154W        W53737  43.502  25.036   4.071
82155W        W53738  17.563  30.616  13.524
82156W        W53739  26.304  39.453   0.684
82157W        W53740  28.772  27.130   2.283
82158W        W53741   1.721  44.390   0.626
82159W        W53742  14.978   5.931   2.719
82160W        W53743  35.999  41.558  11.666
82161W        W53744  26.868  23.715   1.230
82162W        W53745  28.687   9.697   1.726
82163W        W53746  23.738   7.757   4.640
82164W        W53747  24.489   3.860  12.544
82165W        W53748  18.953   4.729  13.009
82166W        W53749  23.109   7.254   4.541
82167W        W53750   7.620  41.434   2.186
82168W        W53751   5.712  10.919  14.525
82169W        W53752  44.872  38.494  13.922
82170W        W53753  15.647  10.830   2.690
82171W        W53754  31.690  15.989   3.798
82172W        W53755  20.577  29.295   3.381
82173W        W53756  19.648  22.676   1.176
82174W        W53757  44.339   1.050   4.519
82175W        W53758   2.745   6.431   4.790
82176W        W53759  42.688   7.634   4.682
82177W        W53760  26.654  28.846  14.468
82178W        W53761  12.886  37.035   1.501
82179W        W53762  22.097  40.270   4.988
82180W        W53763  17.357  21.627   3.950
82181W        W53764  13.436  38.531  14.579
82182W        W53765  24.947  13.669   0.908
82183W        W53766  26.167  32.700   4.714
82184W        W53767  33.012   9.912  12.347
82185W        W53768  15.208  25.208   1.802
82186W        W53769  42.893   6.878  13.149
82187W        W53770  36.929  15.788   4.196
82188W        W53771  16.072  40.114   4.000
82189W        W53772   4.148  10.757   1.538
82190W        W53773  39.732  37.895   3.140
82191W        W53774  36.372  16.302  11.106
82192W        W53775  25.248  32.619  11.716
82193W        W53776  28.388  36.501   2.348
82194W        W53777  20.897   5.638   1.383
82195W        W53778  11.200  34.118   3.777
82196W        W53779   7.271  43.272   4.176
82197W        W53780   5.348  20.105   0.501
82198W        W53781  20.073  35.469   4.561
82199W        W53782  29.665  18.673   4.633
82200W        W53783  33.384  13.497  10.093
82201W        W53784   1.973  26.536  13.368
82202W        W53785  27.487   4.634   1.335
82203W        W53786  26.593   1.393   2.655
82204W        W53787  40.821   9.853  11.998
82205W        W53788  32.905  10.616  13.103
82206W        W53789   2.718  34.017   1.853
82207W        W53790  41.836  38.215   3.729
82208W        W53791  26.018  30.459   2.182
82209W        W53792  16.802  37.204  13.987
82210W        W53793  18.224  31.686   4.458
82211W        W53794  22.610  15.186  11.551
82212W        W53795  36.442  37.886  14.046
82213W        W53796  21.021  28.478   2.189
82214W        W53797  31.589   8.957  12.076
82215W        W53798  13.280  15.967  12.018
82216W        W53799   5.910  13.734  14.314
82217W        W53800   8.208  18.098   1.340
82218W        W53801  43.714  17.050   0.210
82219W        W53802  11.716  28.443   0.928
82220W        W53803  12.121  39.697   1.619
82221W        W53804  12.926   0.707   0.504
82222W        W53805   5.839  18.495  14.006
82223W        W53806  16.163  17.481   0.927
82224W        W53807   4.228   0.321   4.127
82225W        W53808  19.205  17.043   3.674
82226W        W53809  23.096  35.550  13.329
82227W        W53810  13.772  15.188  11.949
82228W        W53811  22.773  18.590  14.362
82229W        W53812  24.031  41.064  13.348
82230W        W53813  28.158   0.318   4.580
82231W        W53814  17.058  30.701  13.375
82232W        W53815  43.373  20.153  14.443
82233W        W53816  11.670  18.141   1.409
82234W        W53817  13.791  17.288   4.671
82235W        W53818   2.020  21.235   0.874
82236W        W53819  33.495  20.827   0.435
82237W        W53820  15.948  43.910   3.993
82238W        W53821  31.161  38.358  14.871
82239W        W53822  34.758  38.260   0.284
82240W        W53823  34.420  11.042   4.284
82241W        W53824  42.448  17.402   0.403
82242W        W53825  14.068   2.348   1.688
82243W        W53826   5.435  38.390  12.100
82244W        W53827  31.372  14.513  11.186
82245W        W53828  17.703  18.037   3.838
82246W        W53829  37.697  28.046  11.823
82247W        W53830  11.381  27.934  10.692
82248W        W53831  13.418  42.774  11.518
82249W        W53832  10.649  15.300  13.456
82250W        W53833  25.563  22.773   0.851
82251W        W53834  24.019   4.857   2.928
82252W        W53835  14.232  42.760  12.534
82253W        W53836  25.787  35.353  13.385
82254W        W53837  11.942  25.055  14.515
82255W        W53838  33.794  39.892  11.019
82256W        W53839  29.670   5.560  11.109
82257W        W53840  43.980  31.368  13.084
82258W        W53841  39.874  25.745   2.291
82259W        W53842  22.092  29.168   4.118
82260W        W53843   2.396  32.923  12.626
82261W        W53844  15.153  22.123   2.827
82262W        W53845  30.031  26.206   4.841
82263W        W53846  22.589   5.028  14.991
82264W        W53847  17.697  12.062   0.529
82265W        W53848  21.720   2.771  13.033
82266W        W53849  18.615   2.410  11.119
82267W        W53850   6.215   3.839  14.535
82268W        W53851  14.032  23.468   1.242
82269W        W53852  14.009  15.233   0.498
82270W        W53853   7.744  38.541   4.114
82271W        W53854   4.226   5.903   3.146
82272W        W53855  39.815   1.755   0.669
82273W        W53856   0.505  24.199  14.296
82274W        W53857  27.204  33.457   5.433
82275W        W53858  21.728   3.933   2.464
82276W        W53859  28.436  40.644   0.714
82277W        W53860  29.389  19.998   3.810
82278W        W53861  25.043  31.648   0.334
82279W        W53862  29.503  40.519  14.562
82280W        W53863  41.884   2.280  13.493
82281W        W53864  34.022   9.542  13.197
82282W        W53865   1.736  27.136   2.945
82283W        W53866  39.321   9.273   1.950
82284W        W53867  12.004  15.324  12.093
82285W        W53868  40.461   1.179  14.810
82286W        W53869  43.486  35.940  14.731
82287W        W53870  26.514  27.737  11.604
82288W        W53871  26.727  27.132  14.999
82289W        W53872  27.002   0.212  11.818
82290W        W53873  39.016  31.439   0.802
82291W        W53874  41.498  22.201   2.389
82292W        W53875  24.642  33.160  14.331
82293W        W53876  11.730  29.294   3.338
82294W        W53877  44.507  19.032  11.966
82295W        W53878  22.478  20.826  13.090
82296W        W53879   8.370  23.951   1.356
82297W        W53880  23.909   6.709   4.283
82298W        W53881  24.945  23.753  11.543
82299W        W53882  14.272  12.966  10.985
82300W        W53883  31.073   7.151  14.373
82301W        W53884   6.726  20.058   4.066
82302W        W53885  41.367  39.727   4.577
82303W        W53886   7.202  26.515  14.926
82304W        W53887  44.848  35.074   1.172
82305W        W53888  28.979  43.169  12.769
82306W        W53889  38.719  19.236  11.595
82307W        W53890  20.333  12.141  13.153
82308W        W53891   1.296  10.591  12.363
82309W        W53892   9.911   0.027   0.464
82310W        W53893  16.315  21.174   1.376
82311W        W53894   3.978   8.696   0.931
82312W        W53895  43.250  11.416  10.597
82313W        W53896  15.289  33.026   4.261
82314W        W53897  13.724  24.063   3.120
82315W        W53898  24.685  10.397   4.637
82316W        W53899  20.731  21.183  11.682
82317W        W53900  39.941  20.573   2.366
82318W        W53901  16.180  30.014  14.032
82319W        W53902  13.596  28.125  14.305
82320W        W53903  20.311  14.676   2.769
82321W        W53904  44.923   9.183  10.470
82322W        W53905   7.229  44.257  10.748
82323W        W53906  24.663   0.971  10.816
82324W        W53907  38.274  28.390   4.023
82325W        W53908  20.605  26.773  14.313
82326W        W53909  29.031  41.265   1.377
82327W        W53910  19.631   6.832   3.769
82328W        W53911  23.993  42.984   3.676
82329W        W53912  29.050   0.847   0.743
82330W        W53913  32.635   6.058  11.214
82331W        W53914   7.913  12.289   2.867
82332W        W53915  24.111  37.547   1.040
82333W        W53916  24.837   6.444  11.152
82334W        W53917  44.429  41.734  13.438
82335W        W53918  17.564  13.735   2.456
82336W        W53919  27.259   9.196  10.134
82337W        W53920  14.315  12.632  12.982
82338W        W53921  40.028   1.238  13.582
82339W        W53922  12.233  10.929  11.395
82340W        W53923  36.772  38.605   3.212
82341W        W53924   4.325  31.060  11.417
82342W        W53925  18.940  28.985   9.901
82343W        W53926  13.129  28.217  11.464
82344W        W53927  14.815  28.309  10.689
82345W        W53928   9.415  36.162  14.406
82346W        W53929   5.045  22.251   2.804
82347W        W53930  44.272  36.573   4.994
82348W        W53931  13.895  21.016  13.436
82349W        W53932  39.513  21.692  10.820
82350W        W53933  24.710  15.827  12.033
82351W        W53934  13.860  35.973   1.878
82352W        W53935  23.669   8.015  13.265
82353W        W53936  31.940  28.884  12.889
82354W        W53937   4.511   6.842   0.265
82355W        W53938  34.930  25.334   4.087
82356W        W53939  31.808   2.740  13.303
82357W        W53940  15.859   0.719  14.422
82358W        W53941  37.115  31.045  11.585
82359W        W53942  36.353  44.998   1.405
82360W        W53943  26.870  31.517  10.543
82361W        W53944  10.212  11.821  12.544
82362W        W53945   2.394  17.715  13.326
82363W        W53946  26.588  12.283  13.831
82364W        W53947   7.088  18.997   4.126
82365W        W53948   0.727  36.216  12.473
82366W        W53949  43.607  15.678  13.893
82367W        W53950  16.649  27.260  12.036
82368W        W53951  42.788  13.084   2.391
82369W        W53952  11.389  18.675   3.311
82370W        W53953  25.954  22.778   0.171
82371W        W53954  25.140  39.013   3.179
82372W        W53955   0.506  38.778  11.034
82373W        W53956  34.989  32.869   3.087
82374W        W53957  18.013  19.296   3.162
82375W        W53958   0.989   8.881   3.183
82376W        W53959  13.049  17.089  13.228
82377W        W53960  20.183   8.673   0.815
82378W        W53961  13.220  17.783  12.034
82379W        W53962   0.036  11.814   0.492
82380W        W53963  36.294  33.396  10.400
82381W        W53964  24.998   9.701  14.773
82382W        W53965   2.179  20.109   4.802
82383W        W53966  15.849  14.151   4.658
82384W        W53967  20.267   3.320  12.008
82385W        W53968  33.072  22.588   1.985
82386W        W53969  14.172  33.723   2.816
82387W        W53970  13.827  13.847  13.488
82388W        W53971  10.705  10.322   3.895
82389W        W53972  23.592   9.943   4.339
82390W        W53973  25.975  37.823  12.938
82391W        W53974  24.180   3.206  13.448
82392W        W53975  34.482  28.133   2.125
82393W        W53976  32.442  41.339  13.109
82394W        W53977  28.834  42.812  14.103
82395W        W53978  40.475  42.308  13.877
82396W        W53979   9.195  24.647   3.732
82397W        W53980  40.941   6.217  14.775
82398W        W53981  26.201   1.457  14.060
82399W        W53982  19.128   0.499  13.978
82400W        W53983  23.764  10.704  12.895
82401W        W53984  22.706  36.361  11.237
82402W        W53985  18.393  38.047   3.518
82403W        W53986   9.215  14.655   3.883
82404W        W53987  18.332  30.725  12.028
82405W        W53988  21.666  16.221   5.104
82406W        W53989  22.530  33.598   2.329
82407W        W53990  35.637   6.464  14.006
82408W        W53991  37.873  41.497   4.620
82409W        W53992  42.039   3.001   3.965
82410W        W53993   8.828  37.807   0.321
82411W        W53994  24.331  18.031   3.690
82412W        W53995   9.679   0.224  11.516
82413W        W53996  30.945  31.579   4.534
82414W        W53997  22.521  14.233  13.970
82415W        W53998  22.550  23.099  14.056
82416W        W53999  12.646  16.544  12.362
82417W        W54000   9.535  25.250  13.194
82418W        W54001  23.565   1.418  11.722
82419W        W54002  29.348  33.962   0.827
82420W        W54003  34.737  36.949   0.376
82421W        W54004  27.845   0.448  13.903
82422W        W54005  20.038  42.548   3.615
82423W        W54006  24.158  13.745  13.378
82424W        W54007  13.781  12.618  13.047
82425W        W54008  11.624  23.448  10.780
82426W        W54009  42.430  24.410   3.692
82427W        W54010   6.975  40.855  11.593
82428W        W54011  41.644  25.476   3.703
82429W        W54012  10.727   1.288  14.343
82430W        W54013  44.392  13.476  12.599
82431W        W54014   0.390  37.124   1.816
82432W        W54015  40.721  39.030   0.815
82433W        W54016  34.092  16.602  11.405
82434W        W54017  28.675  24.230   4.246
82435W        W54018  27.492   4.290  12.585
82436W        W54019  12.834  19.028  12.446
82437W        W54020  10.301   4.803  12.199
82438W        W54021   8.861  42.852  12.454
82439W        W54022   7.948  20.751  10.845
82440W        W54023   7.145   9.753   1.186
82441W        W54024  38.492  12.143   1.836
82442W        W54025  12.137   3.733  11.517
82443W        W54026  17.056  23.073   3.273
82444W        W54027  35.397  17.259  12.644
82445W        W54028  37.446  33.443   1.950
82446W        W54029   0.754  39.002  11.433
82447W        W54030   6.222  17.223   1.897
82448W        W54031  16.643  43.267   1.492
82449W        W54032  10.788  31.112  13.854
82450W        W54033  43.933   2.773   2.583
82451W        W54034  24.532  27.469  12.472
82452W        W54035  42.636  32.302  14.285
82453W        W54036  23.558   1.268  14.832
82454W        W54037  20.101   3.188   4.151
82455W        W54038   9.180  11.458   2.170
82456W        W54039  12.841  37.207   3.231
82457W        W54040  42.555  11.263   2.735
82458W        W54041  13.058  16.811  12.508
82459W        W54042  16.546  38.855   1.428
82460W        W54043  35.334  26.931   5.077
82461W        W54044  40.977  22.572  14.516
82462W        W54045  35.804  41.013   1.662
82463W        W54046   4.405   2.105   4.238
82464W        W54047  24.565  12.888   3.285
82465W        W54048  37.454  44.445   3.577
82466W        W54049  43.284   1.378   2.275
82467W        W54050  12.074  14.232  11.586
82468W        W54051   7.165  10.636  11.440
82469W        W54052  29.042  10.343  11.374
82470W        W54053  42.496  42.319   4.798
82471W        W54054   7.662  25.745   0.047
82472W        W54055  27.370  24.466   4.607
82473W        W54056  31.148   0.315   1.421
82474W        W54057  11.048   2.143  13.292
82475W        W54058  26.259  25.546  11.061
82476W        W54059  21.657  21.088  14.870
82477W        W54060  16.542   3.530  12.189
82478W        W54061   9.647  27.618   2.636
82479W        W54062  11.293   5.317   4.003
82480W        W54063  41.404  41.831  13.499
82481W        W54064  26.936   5.798   0.938
82482W        W54065  37.183  24.468   3.033
82483W        W54066  30.623  42.100  14.984
82484W        W54067   4.355  17.998   3.389
82485W        W54068   2.107  27.115   4.867
82486W        W54069  13.750  14.644   0.633
82487W        W54070  25.030   5.959  11.537
82488W        W54071  31.669  31.989   4.593
82489W        W54072  32.119  28.950   3.604
82490W        W54073   9.257   8.070   1.939
82491W        W54074  34.947   3.538   4.100
82492W        W54075  27.084  44.791  12.911
82493W        W54076  11.286   4.954   2.707
82494W        W54077  31.639  38.394  11.591
82495W        W54078  37.586  10.710   3.969
82496W        W54079  40.325  11.858   3.404
82497W        W54080  39.433  26.633  12.055
82498W        W54081  18.956  39.562   4.742
82499W        W54082  32.407  35.499  11.640
82500W        W54083  44.509  14.635   0.285
82501W        W54084  21.633  35.593  11.570
82502W        W54085  25.437  40.066  11.232
82503W        W54086  42.197  10.125  13.237
82504W        W54087  29.550  20.421   4.058
82505W        W54088  13.794  32.042  11.489
82506W        W54089   8.740  11.065  14.846
82507W        W54090   0.882   1.505   1.126
82508W        W54091  39.607  38.850  11.473
82509W        W54092  28.235  27.015  13.246
82510W        W54093  27.161   0.567   3.321
82511W        W54094  10.268  16.796  14.362
82512W        W54095  37.299  32.836  12.061
82513W        W54096  30.187  19.728   1.936
82514W        W54097  25.927  30.592   1.680
82515W        W54098  39.515  23.665  12.282
82516W        W54099  40.072  17.089   2.647
82517W        W54100   3.494   8.725  14.435
82518W        W54101  15.545  11.708   2.751
82519W        W54102  30.728  23.176   5.034
82520W        W54103  31.538  35.508  10.712
82521W        W54104  41.469  14.321   2.835
82522W        W54105  29.864  10.263   1.913
82523W        W54106  20.047  31.921   3.279
82524W        W54107  44.467   1.567   4.469
82525W        W54108  25.438  36.474   2.472
82526W        W54109  22.151  20.753  12.321
82527W        W54110   6.580  40.025   1.938
82528W        W54111  44.043  37.659  14.479
82529W        W54112  34.346  18.503   1.785
82530W        W54113  25.308  27.123  12.926
82531W        W54114   9.362   1.431   1.476
82532W        W54115  38.304  38.859   1.938
82533W        W54116  18.307  29.705  11.205
82534W        W54117  25.647  17.015   1.197
82535W        W54118   8.180  20.089   4.869
82536W        W54119   6.050  35.962   4.968
82537W        W54120  20.060  29.940  12.424
82538W        W54121  19.303  29.613   2.807
82539W        W54122   0.021  38.980   2.434
82540W        W54123  39.289  24.100   1.358
82541W        W54124   3.738   9.868   4.130
82542W        W54125  29.611  43.220  10.988
82543W        W54126   7.108  25.109   4.530
82544W        W54127  35.737   8.834  12.558
82545W        W54128   0.332   2.349  13.507
82546W        W54129  39.204   5.621  13.335
82547W        W54130  41.264  12.073  11.185
82548W        W54131   3.829  35.848  11.122
82549W        W54132  35.579  40.565  12.031
82550W        W54133  27.622  12.623  11.665
82551W        W54134   2.129  20.707   3.175
82552W        W54135  28.148  10.033   3.759
82553W        W54136   1.926  44.489  10.404
82554W        W54137   7.884  20.462  12.479
82555W        W54138  29.628   9.530  14.686
82556W        W54139   4.155   1.756   3.215
82557W        W54140  39.693   7.738   5.491
82558W        W54141  19.722  39.111   4.513
82559W        W54142  18.804  12.728  11.795
82560W        W54143  11.875   8.750  10.609
82561W        W54144  10.668   8.445   3.871
82562W        W54145  26.552  36.909   2.796
82563W        W54146  35.816  19.847  13.331
82564W        W54147   5.806  42.211  10.572
82565W        W54148  38.969  14.607   3.096
82566W        W54149  32.574  32.501  12.836
82567W        W54150  25.367  40.027  14.469
82568W        W54151  28.401  40.341  12.205
82569W        W54152  40.444  28.860   0.787
82570W        W54153  11.603  17.602  12.403
82571W        W54154  41.223  12.561   3.313
82572W        W54155  15.727  30.346   2.275
82573W        W54156  24.595  26.859   2.160
82574W        W54157   7.785  26.870  13.011
82575W        W54158  31.627  41.310  11.467
82576W        W54159  40.885  15.052  13.466
82577W        W54160  40.126  16.130   3.469
82578W        W54161  42.775  37.538   3.309
82579W        W54162  27.533  35.810  13.549
82580W        W54163   4.646  27.940   1.264
82581W        W54164   8.288  26.594  12.895
82582W        W54165  31.254  11.208  10.632
82583W        W54166  32.405  29.135  12.914
82584W        W54167  29.392  33.957  12.427
82585W        W54168  31.890  28.085   0.677
82586W        W54169   9.430  20.915  10.447
82587W        W54170  24.789  34.980  11.084
82588W        W54171  11.750  28.823   4.555
82589W        W54172  32.146  30.718   2.118
82590W        W54173  41.867  36.810   2.628
82591W        W54174  29.229  32.369   3.078
82592W        W54175  42.505  40.633  11.288
82593W        W54176  20.956   0.274  10.736
82594W        W54177  34.201  35.060  12.534
82595W        W54178  35.482  10.159   0.738
82596W        W54179  12.699  38.968  12.043
82597W        W54180  23.377  30.554   5.169
82598W        W54181  29.452  11.938  12.869
82599W        W54182   5.515  20.684   2.126
82600W        W54183  22.070  32.609   0.997
82601W        W54184   9.715   5.306   3.346
82602W        W54185   8.196   4.704  13.967
82603W        W54186   8.457  42.136  11.235
82604W        W54187  35.995  30.850   1.747
82605W        W54188  15.205  16.108   1.423
82606W        W54189  41.753  26.287  12.487
82607W        W54190  38.745  19.139  14.062
82608W        W54191   1.333  30.075  11.758
82609W        W54192  20.911   1.746   4.047
82610W        W54193  38.074  13.289   1.968
82611W        W54194   2.294  43.040   3.786
82612W        W54195  37.589  37.349  14.275
82613W        W54196  37.767  42.408   2.334
82614W        W54197  18.222   3.904   1.730
82615W        W54198   5.917  43.485  13.959
82616W        W54199  25.969  33.026  11.586
82617W        W54200   4.227   7.308  11.988
82618W        W54201  18.192  44.827  10.702
82619W        W54202  42.380  24.197   2.354
82620W        W54203  34.731  11.884   4.327
82621W        W54204   9.255  40.413  13.069
82622W        W54205  31.088   9.224  14.929
82623W        W54206  11.141  40.750   0.271
82624W        W54207  34.026  37.338   4.956
82625W        W54208   0.276  16.196   3.035
82626W        W54209  31.989  19.150  14.260
82627W        W54210  18.801  42.488  13.395
82628W        W54211   5.138   4.769  14.904
82629W        W54212  15.290   5.172   2.433
82630W        W54213  28.493  11.919  10.640
82631W        W54214   5.301  11.940   2.424
82632W        W54215  27.593  25.366   4.254
82633W        W54216  16.877  27.052   1.211
82634W        W54217  15.386  37.874   0.878
82635W        W54218  44.845  18.770   2.180
82636W        W54219   5.165  25.892  12.389
82637W        W54220  27.036  35.822  13.284
82638W        W54221  24.690  14.496  14.505
82639W        W54222  13.193  40.277   2.730
82640W        W54223  26.157   0.774  11.731
82641W        W54224   4.974  40.353  14.929
82642W        W54225   6.167  22.497  12.044
82643W        W54226  29.697   6.094  11.157
82644W        W54227  42.149  29.722  12.601
82645W        W54228   0.733  19.279   2.302
82646W        W54229  12.277  36.982  12.187
82647W        W54230  13.296  15.148   2.637
82648W        W54231  26.996  32.036   1.188
82649W        W54232  12.695  20.185  12.440
82650W        W54233  39.115  42.386  14.006
82651W        W54234  22.000  23.206  11.533
82652W        W54235   0.239  38.034   4.826
82653W        W54236   1.998  24.303   2.665
82654W        W54237  13.392   9.088  11.831
82655W        W54238   5.810  40.490  11.104
82656W        W54239  26.748  35.947   1.428
82657W        W54240   9.296   4.971   2.277
82658W        W54241  12.764  25.116  14.948
82659W        W54242  28.302   0.967   4.183
82660W        W54243  31.570  21.892   4.958
82661W        W54244  43.750  13.634   0.773
82662W        W54245  16.346  41.615   0.311
82663W        W54246   0.935  10.081  14.977
82664W        W54247   4.262   0.727  12.950
82665W        W54248  41.978  25.153  14.986
82666W        W54249  17.482  27.147  12.561
82667W        W54250  31.542  28.555  12.846
82668W        W54251  34.028  21.131  13.129
82669W        W54252  33.219  38.107   4.998
82670W        W54253  44.052  28.818  11.044
82671W        W54254  25.474  44.497  14.709
82672W        W54255   0.193   7.677  13.770
82673W        W54256  19.110  42.252   2.264
82674W        W54257  10.868  38.265   2.413
82675W        W54258   3.771  12.730   5.047
82676W        W54259  40.436  43.226   2.827
82677W        W54260  17.715  31.210   3.299
82678W        W54261  31.535  17.148  11.965
82679W        W54262  14.611  37.601  12.861
82680W        W54263  18.234  38.010  12.579
82681W        W54264  16.159  31.724   4.228
82682W        W54265  27.848  19.196   1.808
82683W        W54266  20.457   2.443   2.253
82684W        W54267  23.249  20.574  12.494
82685W        W54268  27.210  28.486  14.026
82686W        W54269  19.209  44.736  14.948
82687W        W54270   6.009  21.469   3.768
82688W        W54271   3.737  43.045   0.522
82689W        W54272   8.720  14.162   2.173
82690W        W54273  22.493   9.022  12.423
82691W        W54274   0.063  27.451   3.306
82692W        W54275  32.336  13.152  13.907
82693W        W54276  10.892  27.129  12.629
82694W        W54277  19.452  16.161   0.960
82695W        W54278  25.942  20.948  11.028
82696W        W54279  12.829  15.685  12.917
82697W        W54280  43.072  40.323  13.644
82698W        W54281  11.601   1.252  10.653
82699W        W54282  41.038  35.983   3.357
82700W        W54283   4.466  29.616  12.177
82701W        W54284  29.130  23.528   2.772
82702W        W54285  43.935  27.472  13.462
82703W        W54286  22.281  28.084  14.864
82704W        W54287   7.189   7.593   1.865
82705W        W54288  35.442  19.272   3.890
82706W        W54289  12.344   8.711  14.213
82707W        W54290  19.328   0.223   4.589
82708W        W54291   4.517  43.893   1.302
82709W        W54292  17.153  26.957  12.951
82710W        W54293   0.343   9.595  11.758
82711W        W54294  38.639  38.009  14.983
82712W        W54295   2.281  14.225   3.172
82713W        W54296   7.916  16.372  14.791
82714W        W54297  18.640  43.551  10.680
82715W        W54298  11.111  33.086  10.669
82716W        W54299  15.514  23.311   3.182
82717W        W54300   6.419  34.919  14.998
82718W        W54301  14.183  43.427   1.823
82719W        W54302  23.188  38.100   0.957
82720W        W54303  21.991   6.692   1.347
82721W        W54304  43.878  12.147   3.275
82722W        W54305  37.545   2.733  13.594
82723W        W54306  27.020  15.753  12.213
82724W        W54307  11.319  41.344  11.230
82725W        W54308   6.396  38.010   3.756
82726W        W54309  24.093  43.027   0.495
82727W        W54310   6.196   2.549  11.053
82728W        W54311  29.043  11.147   2.241
82729W        W54312  28.471  42.556   2.245
82730W        W54313   9.866  11.726  14.465
82731W        W54314  32.261  21.955   5.430
82732W        W54315  30.047  18.465  12.340
82733W        W54316  33.639  41.732   2.659
82734W        W54317   3.250  43.833  11.447
82735W        W54318  44.485  31.264   2.177
82736W        W54319  21.200  37.964   0.470
82737W        W54320  15.374  37.478  10.253
82738W        W54321  17.742  30.940   0.449
82739W        W54322   9.718  15.729  11.091
82740W        W54323  38.824   9.244  12.982
82741W        W54324   1.643  18.812   2.672
82742W        W54325   6.720   5.468  12.981
82743W        W54326  23.673  10.501   1.060
82744W        W54327   8.275  42.829   0.306
82745W        W54328  24.547   5.956   1.867
82746W        W54329  15.167  38.516  14.600
82747W        W54330  18.535  20.976  10.744
82748W        W54331   1.182  25.225   3.255
82749W        W54332  40.127  36.538   1.418
82750W        W54333  24.312  22.874   1.721
82751W        W54334  32.461  36.879   3.422
82752W        W54335  20.682  29.455  13.089
82753W        W54336  30.677  24.303   0.916
82754W        W54337   5.252   5.727   0.751
82755W        W54338  38.295  35.057  13.464
82756W        W54339   3.289  19.831  13.011
82757W        W54340  17.120  41.744  13.942
82758W        W54341  17.153   1.713  14.476
82759W        W54342  19.742  34.659  10.061
82760W        W54343  32.605  14.703   1.389
82761W        W54344  27.157   3.731   2.664
82762W        W54345  32.107  22.068   3.565
82763W        W54346  33.725   2.751  13.981
82764W        W54347  14.423  40.044  14.529
82765W        W54348  36.548   2.707   3.649
82766W        W54349   4.892  35.030   4.963
82767W        W54350   9.777  34.100  10.806
82768W        W54351  10.093   0.691  13.466
82769W        W54352  16.676   4.927  11.568
82770W        W54353  26.780   9.823  13.796
82771W        W54354  29.504  40.641   4.944
82772W        W54355  25.555  40.492  14.778
82773W        W54356  33.415  21.135   0.851
82774W        W54357  15.561  10.327   2.241
82775W        W54358  39.873  32.679  11.543
82776W        W54359  13.756   1.668  10.767
82777W        W54360  32.224  37.180  11.138
82778W        W54361  42.251   9.383  12.366
82779W        W54362  21.936  17.049  14.963
82780W        W54363  37.154  37.019   3.919
82781W        W54364  34.050   9.503  10.851
82782W        W54365  41.500   5.718  13.740
82783W        W54366  21.186  31.095   9.919
82784W        W54367  42.974  18.148   3.062
82785W        W54368  26.359  25.778  14.564
82786W        W54369  33.332  28.681  11.993
82787W        W54370   2.923   5.413  14.750
82788W        W54371  31.497  31.281   2.936
82789W        W54372  42.535  13.555  14.484
82790W        W54373   6.230   4.703   4.115
82791W        W54374  43.463   0.439  11.633
82792W        W54375   9.709   6.376   3.295
82793W        W54376  21.057  31.421   2.633
82794W        W54377  39.570  10.903   2.416
82795W        W54378   9.642  17.739  11.217
82796W        W54379  19.686   1.219  12.415
82797W        W54380  19.131  40.871   2.450
82798W        W54381  26.021  13.618   0.225
82799W        W54382  37.566  22.580  14.986
82800W        W54383  39.454   1.764   2.867
82801W        W54384  37.978  34.729   2.246
82802W        W54385  31.024  28.904   0.502
82803W        W54386   0.864  11.765   4.532
82804W        W54387  38.344   3.925  13.450
82805W        W54388  43.658  26.049  13.086
82806W        W54389  27.077  10.102  10.687
82807W        W54390   3.930  16.615  12.134
82808W        W54391  37.613  22.463  13.520
82809W        W54392  42.598  19.322   3.351
82810W        W54393  18.861  33.017   0.550
82811W        W54394  20.953   2.554   4.923
82812W        W54395  18.173  28.617  13.104
82813W        W54396  26.399  36.263  11.175
82814W        W54397  43.270  34.441   3.267
82815W        W54398  39.322  26.874   0.215
82816W        W54399   5.452  44.437   4.911
82817W        W54400  17.757  38.725   1.057
82818W        W54401  17.897  42.396  13.556
82819W        W54402  38.060  37.537  12.929
82820W        W54403   1.473   4.154  14.986
82821W        W54404   4.353  29.632  14.313
82822W        W54405   7.632  38.596  14.392
82823W        W54406  21.789   7.135   1.088
82824W        W54407   2.747  15.255  13.480
82825W        W54408  30.583  25.973   1.291
82826W        W54409  39.526   0.035   3.636
82827W        W54410  44.282  44.891  12.419
82828W        W54411  39.899   5.207  11.177
82829W        W54412   3.181  42.205  10.754
82830W        W54413  39.036  42.808   4.636
82831W        W54414   0.414  27.110   3.156
82832W        W54415  33.505   7.829   4.236
82833W        W54416  37.983  32.156   0.123
82834W        W54417   9.785  30.465   1.987
82835W        W54418  30.708  42.337   1.804
82836W        W54419  14.566  26.624   2.244
82837W        W54420  31.686   0.296   4.502
82838W        W54421  36.998  40.436   2.483
82839W        W54422  30.558  13.178   2.173
82840W        W54423  42.845  34.728  11.277
82841W        W54424  12.442  34.052   3.666
82842W        W54425  14.233   3.481   3.276
82843W        W54426  40.459   2.107  13.506
82844W        W54427  20.499  23.406   3.333
82845W        W54428   3.590  30.785   1.447
82846W        W54429  44.204   4.485  11.106
82847W        W54430  29.211  33.544  12.945
82848W        W54431  34.878  10.299  10.106
82849W        W54432  29.363  33.479  11.573
82850W        W54433  36.496  12.940  13.517
82851W        W54434  12.368  43.255  12.325
82852W        W54435  29.991  13.898  13.072
82853W        W54436  15.182  39.754   2.823
82854W        W54437  34.924  25.409   1.272
82855W        W54438  26.572   9.013  13.640
82856W        W54439  26.176  22.037   0.722
82857W        W54440   5.803   3.011   4.753
82858W        W54441  34.531   5.734  13.471
82859W        W54442   9.122  11.819  10.759
82860W        W54443  21.211  30.877  10.913
82861W        W54444  37.035  10.882   4.625
82862W        W54445  44.027   7.835  14.297
82863W        W54446  17.254  20.288  12.920
82864W        W54447  37.282  15.673  12.511
82865W        W54448  30.685   9.984   4.938
82866W        W54449  18.524  42.795  14.056
82867W        W54450  43.497  19.375  11.332
82868W        W54451  19.866  20.301  13.360
82869W        W54452  27.968  22.177   4.379
82870W        W54453  19.987  40.052   0.865
82871W        W54454  15.418  20.369  12.133
82872W        W54455  22.738  28.693   3.698
82873W        W54456  19.638  34.300   2.542
82874W        W54457  17.304  24.971   0.860
82875W        W54458  31.455   9.459  14.365
82876W        W54459  27.881   3.810  13.387
82877W        W54460   3.288  14.682   0.295
82878W        W54461  16.236  33.657  13.931
82879W        W54462  42.656  29.169   4.988
82880W        W54463   5.291  35.990  12.502
82881W        W54464  23.484  28.003  13.458
82882W        W54465  29.653  38.853  13.883
82883W        W54466  34.490   1.431   0.272
82884W        W54467  37.889  15.364   0.801
82885W        W54468  11.848  18.969  14.313
82886W        W54469   0.553  10.541  11.418
82887W        W54470  43.731  28.894  13.876
82888W        W54471  32.842  19.127  13.559
82889W        W54472  41.596  28.555   1.832
82890W        W54473  24.556  43.420   0.020
82891W        W54474  12.550  43.431   1.544
82892W        W54475  37.562  36.962  11.584
82893W        W54476  34.417  20.170  10.729
82894W        W54477  25.058  28.138  14.325
82895W        W54478  28.983  24.602   2.350
82896W        W54479  39.504   2.482  13.417
82897W        W54480   6.306  29.835  10.338
82898W        W54481  25.840  38.239  14.470
82899W        W54482  26.238  33.484   3.230
82900W        W54483   1.003   1.436  13.920
82901W        W54484   2.012   3.264   3.287
82902W        W54485  40.593   0.485   4.198
82903W        W54486  29.912   7.831   1.814
82904W        W54487  38.307  29.887   3.222
82905W        W54488   9.651  15.138  12.605
82906W        W54489  36.381  26.572   4.572
82907W        W54490  21.600  15.144   2.206
82908W        W54491  42.920  30.403  10.604
82909W        W54492  29.418  20.012   4.335
82910W        W54493  42.821   3.876   4.224
82911W        W54494   5.481  35.257  13.822
82912W        W54495   0.668  37.739   4.775
82913W        W54496  42.945  37.569  10.479
82914W        W54497  26.212  24.229  13.498
82915W        W54498   2.405  43.976  11.554
82916W        W54499  37.034  41.089   4.163
82917W        W54500  25.647   5.894   3.848
82918W        W54501   9.115  13.414   4.541
82919W        W54502  42.007   7.765   1.310
82920W        W54503  11.101  44.861  10.569
82921W        W54504  11.382  20.190   2.759
82922W        W54505  31.423  24.436  13.397
82923W        W54506  41.345   7.826   3.924
82924W        W54507   0.291  29.622  12.075
82925W        W54508   9.361  33.486   3.692
82926W        W54509  23.289  39.844  12.681
82927W        W54510   5.364   4.079  11.598
82928W        W54511  22.588  11.029   3.878
82929W        W54512   2.807  38.940   1.513
82930W        W54513  17.590  30.492   4.060
82931W        W54514  23.059  27.218   0.103
82932W        W54515  24.221  15.323   4.425
82933W        W54516  40.043  10.265   4.301
82934W        W54517   2.259  34.637  14.484
82935W        W54518   8.196  39.345   3.148
82936W        W54519  16.807  38.541  14.005
82937W        W54520  39.861  18.389   4.529
82938W        W54521  12.679  16.525   4.493
82939W        W54522  25.922  43.220   0.722
82940W        W54523   9.731  28.696  12.857
82941W        W54524  12.705  17.610  13.865
82942W        W54525  15.057  29.572   1.489
82943W        W54526  30.101  17.119  12.787
82944W        W54527   2.361   4.460   2.161
82945W        W54528  36.526  12.144  11.878
82946W        W54529  12.417  36.370   2.238
82947W        W54530  29.149  14.605  13.032
82948W        W54531  11.367  19.166  13.031
82949W        W54532   1.359  13.075   3.907
82950W        W54533   0.890  41.093  14.816
82951W        W54534  32.484  14.053  11.647
82952W        W54535   1.488  31.051   2.209
82953W        W54536  36.519  28.177   2.287
82954W        W54537  41.022  40.336  11.463
82955W        W54538  33.600   0.937   3.897
82956W        W54539  13.444  43.361  13.059
82957W        W54540  39.467   0.702   4.556
82958W        W54541  28.907   7.364   1.265
82959W        W54542  13.657  22.610   3.412
82960W        W54543   7.399  24.210   0.172
82961W        W54544  37.107   9.830  10.639
82962W        W54545  22.617  31.054  10.106
82963W        W54546  21.714  30.814   0.950
82964W        W54547  36.669  30.528   3.916
82965W        W54548   8.452  27.138  10.886
82966W        W54549  33.975  33.598  13.411
82967W        W54550  15.440  13.100   0.443
82968W        W54551   8.663  36.115   3.732
82969W        W54552   1.692  11.704  11.185
82970W        W54553  10.847  14.353  13.483
82971W        W54554  31.257  23.660  10.699
82972W        W54555   6.248  32.313   1.467
82973W        W54556  13.135  19.812  12.595
82974W        W54557   9.876  12.701   4.582
82975W        W54558  44.758  22.534   4.647
82976W        W54559  29.653  40.633  11.697
82977W        W54560  17.671  43.003  10.775
82978W        W54561  15.807  35.524  10.231
82979W        W54562  21.647  23.060  14.870
82980W        W54563   5.303   2.526  14.928
82981W        W54564   0.891  38.575   3.272
82982W        W54565  34.143  37.163   2.207
82983W        W54566  24.745  41.432  13.955
82984W        W54567  39.230   6.523   2.231
82985W        W54568  44.529  36.518   2.766
82986W        W54569  34.400  40.636   0.346
82987W        W54570   6.655  34.457   2.618
82988W        W54571  29.048  10.767   3.458
82989W        W54572  25.455  22.733   2.953
82990W        W54573  17.363  26.425  13.099
82991W        W54574  19.450  15.012   0.575
82992W        W54575  18.687  38.276   0.981
82993W        W54576  40.861   4.608   2.365
82994W        W54577  42.058  34.298   2.282
82995W        W54578  30.563  17.551   3.218
82996W        W54579   9.910  33.382  11.960
82997W        W54580  40.004   8.289  13.257
82998W        W54581  21.407  27.099  10.860
82999W        W54582  35.734  44.666   1.502
83000W        W54583  37.887  23.164  10.771
83001W        W54584   6.882  36.984  14.289
83002W        W54585  21.537  13.866  14.584
83003W        W54586   0.402  14.348   4.515
83004W        W54587   8.657  15.800  13.559
83005W        W54588  10.695  26.980   0.851
83006W        W54589  37.047  34.586  14.110
83007W        W54590  12.752  19.173   0.910
83008W        W54591  27.841  18.770   4.742
83009W        W54592   8.299  41.410   3.495
83010W        W54593   7.361  26.541   0.912
83011W        W54594  31.677  10.609  11.881
83012W        W54595  27.764  41.818   3.539
83013W        W54596  43.807  29.970   0.933
83014W        W54597  17.711  40.447  14.948
83015W        W54598   7.463  35.606  11.965
83016W        W54599  27.953  22.652   3.565
83017W        W54600  41.960  42.533  10.690
83018W        W54601  29.938  10.461  11.524
83019W        W54602   9.376  39.336  14.546
83020W        W54603   9.278  38.052   0.460
83021W        W54604  33.101  41.616  10.548
83022W        W54605  38.029  18.450   0.201
83023W        W54606  15.486  28.907   2.194
83024W        W54607  23.816  14.729   3.100
83025W        W54608  41.321   1.167   1.242
83026W        W54609  39.298  41.343  12.615
83027W        W54610   6.724  40.475  14.338
83028W        W54611   7.798  36.197   3.818
83029W        W54612  20.945  20.083  10.934
83030W        W54613  11.334  21.785   1.411
83031W        W54614   1.380  28.888   2.653
83032W        W54615   2.899  38.854   1.007
83033W        W54616   1.009  33.367   2.680
83034W        W54617  43.279   6.049  13.462
83035W        W54618  20.910  42.036   0.474
83036W        W54619  20.210   0.060  13.960
83037W        W54620   2.312   5.688  14.476
83038W        W54621   5.300  31.462   1.988
83039W        W54622  34.683  17.692   0.894
83040W        W54623   8.745   1.534   0.915
83041W        W54624  13.182   3.422  14.982
83042W        W54625   3.659  15.046  11.629
83043W        W54626  43.581  13.779  13.165
83044W        W54627  21.095   3.724  11.145
83045W        W54628  38.467   0.227  12.406
83046W        W54629  30.118  12.286  13.363
83047W        W54630  12.560  16.789   3.133
83048W        W54631  44.849   2.955   1.244
83049W        W54632   6.386   1.399  10.943
83050W        W54633   0.081  12.620  13.000
83051W        W54634  25.914  17.739   2.420
83052W        W54635  33.969  38.056   4.066
83053W        W54636  11.081  23.696   4.882
83054W        W54637  17.743  44.385  11.618
83055W        W54638   4.967  35.571  12.074
83056W        W54639  12.614  25.729   3.663
83057W        W54640  41.518  35.376  13.096
83058W        W54641   0.446  37.283   0.410
83059W        W54642  34.391   0.951   0.161
83060W        W54643  43.455  13.101   4.683
83061W        W54644  12.187  19.983  14.947
83062W        W54645  41.826  29.204  14.505
83063W        W54646  24.333  14.902  11.555
83064W        W54647  21.065  44.714   4.167
83065W        W54648  28.107   3.299  10.736
83066W        W54649  23.478  20.220  14.344
83067W        W54650  16.344   6.541   3.161
83068W        W54651   7.709  35.756  12.410
83069W        W54652  21.298  43.263  12.023
83070W        W54653  40.260  17.636  13.319
83071W        W54654   7.379  22.162  14.430
83072W        W54655  34.879  14.114   1.404
83073W        W54656  10.170  10.153   4.186
83074W        W54657  32.517  10.783   1.088
83075W        W54658  13.533  28.019   1.786
83076W        W54659  25.242  42.401  13.525
83077W        W54660  43.268  24.656  13.968
83078W        W54661  39.374  39.740  14.282
83079W        W54662  42.045  37.055  11.774
83080W        W54663  38.744  20.622  13.499
83081W        W54664  35.119  36.993   2.499
83082W        W54665   2.546   2.797   2.980
83083W        W54666  11.011   4.794  11.011
83084W        W54667  16.750  34.473  12.565
83085W        W54668  44.080  38.377  12.010
83086W        W54669  31.405  21.478  12.413
83087W        W54670  25.937  31.514  10.566
83088W        W54671  28.997  24.913   1.917
83089W        W54672  22.753  33.405   1.634
83090W        W54673  31.010  26.594   0.501
83091W        W54674  28.486  13.670   4.582
83092W        W54675  29.836  18.642  14.751
83093W        W54676  44.037  13.667   1.670
83094W        W54677  20.673  27.915  12.946
83095W        W54678  36.887  36.049   3.706
83096W        W54679   6.878   9.362   4.731
83097W        W54680  22.249  38.807   2.386
83098W        W54681   2.131  14.637  11.551
83099W        W54682   2.996   7.098   1.314
83100W        W54683  22.202  43.876  10.682
83101W        W54684  18.092   4.183   4.165
83102W        W54685  26.191   4.670  12.469
83103W        W54686  42.555  25.315  12.899
83104W        W54687  39.309  18.215   4.612
83105W        W54688  19.960  40.593   4.322
83106W        W54689  12.034   3.173  13.911
83107W        W54690  19.155  34.081   4.068
83108W        W54691  12.057  18.706  13.866
83109W        W54692  18.523  37.561   3.723
83110W        W54693  20.778  21.025   0.919
83111W        W54694  13.077  15.163   4.029
83112W        W54695   2.771  13.952  14.144
83113W        W54696  24.729  39.390  14.218
83114W        W54697   9.430  24.151  10.243
83115W        W54698  19.122  20.627  13.490
83116W        W54699  23.047  36.507   3.734
83117W        W54700  35.555  18.163  12.943
83118W        W54701  24.447  43.301  11.495
83119W        W54702  17.718  21.501   0.690
83120W        W54703  41.823  38.415   2.270
83121W        W54704  25.170  19.135  14.751
83122W        W54705  39.930  16.105   1.639
83123W        W54706  21.981  26.842   2.836
83124W        W54707   8.767  34.832  11.879
83125W        W54708   1.799  15.755  14.157
83126W        W54709  12.258  26.694  13.275
83127W        W54710  19.198  30.006  14.231
83128W        W54711   1.495  15.493  12.496
83129W        W54712  25.469  13.150  13.535
83130W        W54713   0.951  25.526   4.614
83131W        W54714  38.272  11.657  14.787
83132W        W54715  15.697   5.932  10.696
83133W        W54716  22.960  21.570  12.527
83134W        W54717  43.959  31.853   2.398
83135W        W54718  25.592  37.608   0.692
83136W        W54719   4.386   0.536  10.493
83137W        W54720  43.041  24.719  13.496
83138W        W54721   6.163   2.072   2.762
83139W        W54722  24.429  27.120  12.922
83140W        W54723   5.359  18.548   0.756
83141W        W54724  19.289  36.421   0.419
83142W        W54725  23.031   6.645   1.330
83143W        W54726  28.654   1.646   3.288
83144W        W54727   3.785  38.008   1.946
83145W        W54728  22.918  41.762  14.328
83146W        W54729  26.202  14.650   4.502
83147W        W54730  21.036  32.086  12.438
83148W        W54731   4.541   2.440  13.544
83149W        W54732   2.188  22.998  14.750
83150W        W54733  22.196  22.284   3.735
83151W        W54734  39.980   9.761  10.433
83152W        W54735  19.846  18.167  13.383
83153W        W54736  39.005  34.522  10.696
83154W        W54737   1.485  41.725   2.219
83155W        W54738  35.389   5.690   3.167
83156W        W54739  11.723  22.725  14.498
83157W        W54740  17.198   8.409  12.967
83158W        W54741  20.588  31.408   4.905
83159W        W54742  14.714  42.009  13.123
83160W        W54743  16.354  11.677   2.214
83161W        W54744  36.336  34.311   0.808
83162W        W54745   0.374  14.580  12.566
83163W        W54746  27.174  31.193   2.803
83164W        W54747  32.017  24.903   2.058
83165W        W54748  16.565  19.653  14.887
83166W        W54749  42.064   7.467  11.536
83167W        W54750  28.098  25.053  13.465
83168W        W54751  22.258   4.903   0.902
83169W        W54752  21.569   3.702   1.492
83170W        W54753  30.899  17.262  14.982
83171W        W54754  27.592  30.525  12.898
83172W        W54755   0.833  37.983  10.663
83173W        W54756  43.438  41.895   3.208
83174W        W54757   8.178  32.243   0.975
83175W        W54758  31.962   4.982   1.543
83176W        W54759  10.504  44.222   3.399
83177W        W54760  25.647   7.453   3.240
83178W        W54761   4.905  15.183  13.862
83179W        W54762  36.862  15.658  14.851
83180W        W54763   2.054  22.298   4.182
83181W        W54764  18.301   0.931  12.923
83182W        W54765  24.126  34.522   3.045
83183W        W54766  23.048  39.544   4.497
83184W        W54767  11.697  19.478  12.495
83185W        W54768   4.729  19.256   0.847
83186W        W54769  35.567  33.340   1.902
83187W        W54770   1.040  17.575   0.356
83188W        W54771  19.558  44.011  12.987
83189W        W54772  34.110   3.639   2.007
83190W        W54773  16.627  23.503   5.474
83191W        W54774  44.543  28.352  10.729
83192W        W54775   0.881   7.435  11.203
83193W        W54776  44.657  12.744   1.662
83194W        W54777  40.185  19.540  10.730
83195W        W54778  35.435  42.348  10.747
83196W        W54779  40.510  18.470  13.886
83197W        W54780  43.333   6.228   0.383
83198W        W54781  31.472  23.022  14.887
83199W        W54782  23.975  40.496   4.602
83200W        W54783   1.265  21.630  13.329
83201W        W54784   4.962  35.305  13.909
83202W        W54785  32.609  28.234  11.267
83203W        W54786   3.787  26.074  13.954
83204W        W54787   3.834   5.476  13.327
83205W        W54788  15.805   5.915  12.379
83206W        W54789  42.995  26.953   3.203
83207W        W54790   6.216   6.162   3.765
83208W        W54791  25.144  11.293   1.417
83209W        W54792   9.971  15.274   1.896
83210W        W54793   4.080  33.289  11.502
83211W        W54794   1.929  19.265   3.757
83212W        W54795   9.238  37.325   4.244
83213W        W54796  26.016  15.040   2.292
83214W        W54797  42.892  42.450   4.455
83215W        W54798  25.564  22.091   1.348
83216W        W54799  26.876   3.386  14.420
83217W        W54800  17.291  16.221  13.207
83218W        W54801  16.014  22.810  14.905
83219W        W54802  18.680  22.548   0.127
83220W        W54803  17.246  39.979  11.069
83221W        W54804  25.266  35.455  14.940
83222W        W54805  32.823  27.675   1.200
83223W        W54806  10.722  11.834  13.230
83224W        W54807  26.247   9.826   9.796
83225W        W54808  17.376  32.044  11.625
83226W        W54809  38.282  39.087   2.388
83227W        W54810  11.051  12.643   1.823
83228W        W54811   6.574   2.918   1.351
83229W        W54812  10.775  42.566   2.784
83230W        W54813  36.111  24.747  11.509
83231W        W54814  19.562  21.079   4.596
83232W        W54815   9.417  14.484   1.508
83233W        W54816   1.859  30.083   0.901
83234W        W54817  39.353   6.783   3.746
83235W        W54818   4.269  38.799   0.969
83236W        W54819  11.846   2.626   0.074
83237W        W54820   8.687   0.380   0.245
83238W        W54821  24.342  42.040   0.205
83239W        W54822  28.705  33.447  11.212
83240W        W54823   3.429  19.226   1.952
83241W        W54824  25.045  14.989   0.476
83242W        W54825  33.934   0.525  13.197
83243W        W54826  31.111  25.721  13.927
83244W        W54827  13.644  42.111   4.114
83245W        W54828  31.056  40.470   1.767
83246W        W54829  16.802   6.345   1.350
83247W        W54830  36.954   2.733   1.438
83248W        W54831  41.520  38.949   2.340
83249W        W54832   4.895  44.843   3.215
83250W        W54833   6.610  25.655   3.684
83251W        W54834   3.947  44.279   1.955
83252W        W54835   7.241  34.367   0.261
83253W        W54836  41.335  28.166  14.384
83254W        W54837  37.664  29.596  13.909
83255W        W54838  19.440  25.224  10.240
83256W        W54839   6.300  39.929   3.173
83257W        W54840  27.334  41.393  13.411
83258W        W54841   0.343  20.527   1.234
83259W        W54842   5.876  29.959  11.612
83260W        W54843  13.160   3.167   3.647
83261W        W54844  42.366  12.271   0.055
83262W        W54845  25.937  26.507   5.009
83263W        W54846  44.892  22.786   3.254
83264W        W54847  16.714  19.314   3.677
83265W        W54848  20.184  10.796   2.394
83266W        W54849   5.158  37.683   3.171
83267W        W54850  10.669  18.364  14.817
83268W        W54851  13.676  10.792   2.062
83269W        W54852   8.274  33.664  14.912
83270W        W54853  21.174  31.071  10.441
83271W        W54854  18.406  22.634  13.487
83272W        W54855   4.000  18.785  12.552
83273W        W54856  29.076  36.046  13.310
83274W        W54857   3.291  13.267  13.402
83275W        W54858  17.303  31.980  12.526
83276W        W54859  37.068   9.179   2.217
83277W        W54860   2.389  36.329   2.137
83278W        W54861  26.571  26.985   1.456
83279W        W54862  13.050  39.576  11.060
83280W        W54863  29.855   0.976  11.320
83281W        W54864   3.365   4.008   3.155
83282W        W54865  25.665  11.632  14.003
83283W        W54866  24.388   5.335   3.352
83284W        W54867   6.847  31.875   3.659
83285W        W54868  10.445   8.756   2.152
83286W        W54869   6.436   9.340  10.718
83287W        W54870  39.822  30.229   0.342
83288W        W54871  42.478   0.335   1.623
83289W        W54872  39.402  42.501   2.750
83290W        W54873  14.058  44.502   0.756
83291W        W54874   6.838  20.674  12.967
83292W        W54875  21.983   0.001  11.146
83293W        W54876  10.576  22.591  14.305
83294W        W54877  38.300  15.041  14.530
83295W        W54878  36.596  30.973   4.850
83296W        W54879  31.361  42.810  10.478
83297W        W54880  24.123  30.619   5.032
83298W        W54881  19.601  40.662   2.628
83299W        W54882   2.913  17.685  14.020
83300W        W54883  30.509  25.737  13.000
83301W        W54884  25.691   0.775   1.741
83302W        W54885  42.698  39.450  13.580
83303W        W54886  39.787   8.804  11.425
83304W        W54887  41.856   6.909  13.434
83305W        W54888  11.272   3.930   1.846
83306W        W54889  36.934   9.450   2.863
83307W        W54890  19.126  26.641  14.218
83308W        W54891  29.748  27.369  12.161
83309W        W54892  43.016  29.438   4.708
83310W        W54893  36.406  37.925   4.607
83311W        W54894  23.129   8.378  12.380
83312W        W54895  37.315  40.322   1.811
83313W        W54896  21.557  14.579   1.476
83314W        W54897  12.632   2.799  14.403
83315W        W54898  29.968  27.776   1.235
83316W        W54899  27.494  26.027  11.869
83317W        W54900  39.827  22.289   3.950
83318W        W54901  10.944  23.830   0.923
83319W        W54902  35.473  21.290   3.252
83320W        W54903   7.487  42.460  13.857
83321W        W54904  13.686  39.092  14.298
83322W        W54905  12.748  17.128  11.539
83323W        W54906  38.038  32.449  14.667
83324W        W54907  33.559  30.110   0.781
83325W        W54908  41.231   3.402   0.350
83326W        W54909  42.900  19.093   4.621
83327W        W54910  43.713  42.735   0.779
83328W        W54911  30.970  22.550   4.108
83329W        W54912   5.947  18.413  14.564
83330W        W54913  30.539  20.486  13.032
83331W        W54914  23.298   8.600  11.957
83332W        W54915   0.168  18.467   3.278
83333W        W54916   7.697  33.492   4.191
83334W        W54917  35.600  15.783   0.332
83335W        W54918   9.770  20.644  12.877
83336W        W54919  41.058  25.436  10.843
83337W        W54920  40.066  26.553   4.133
83338W        W54921  17.388  44.281   4.468
83339W        W54922  11.191   4.210   3.194
83340W        W54923  22.277   3.532  12.147
83341W        W54924  16.710   7.185   0.947
83342W        W54925  28.926  37.230   2.708
83343W        W54926  26.032  23.538   0.889
83344W        W54927   3.819   7.703   2.089
83345W        W54928   8.179  22.601   4.004
83346W        W54929  11.759  30.264   3.439
83347W        W54930  12.496   4.412  14.892
83348W        W54931   6.308  11.919   1.433
83349W        W54932   7.671   1.894  12.251
83350W        W54933   7.938  18.828  10.690
83351W        W54934  18.812  21.606   0.354
83352W        W54935   0.396  35.276   0.412
83353W        W54936  24.050  29.402  13.996
83354W        W54937  22.786  14.873  14.228
83355W        W54938  29.611  14.713  10.819
83356W        W54939  35.381  30.595   3.362
83357W        W54940  20.819  22.426   0.362
83358W        W54941  32.319  12.910  14.368
83359W        W54942  24.667  37.926  10.452
83360W        W54943  33.859   1.479  12.876
83361W        W54944  26.889  10.793   1.015
83362W        W54945  17.151  42.558  11.082
83363W        W54946  39.384   3.925   4.515
83364W        W54947   5.778   3.880   4.220
83365W        W54948  10.978  42.426   1.836
83366W        W54949  36.982   0.919   2.090
83367W        W54950   4.893  16.723  11.328
83368W        W54951   4.943  36.671  11.305
83369W        W54952  22.755  21.254  10.588
83370W        W54953  15.677   4.273  14.532
83371W        W54954  43.451  21.576   4.179
83372W        W54955  20.035  42.006   3.562
83373W        W54956  22.245   0.307  12.080
83374W        W54957  16.555   6.388  11.496
83375W        W54958  13.036  43.368   2.486
83376W        W54959   6.631  36.984   2.352
83377W        W54960  15.918  35.992   4.603
83378W        W54961  31.308   1.869   2.887
83379W        W54962  28.399  19.779  14.341
83380W        W54963   0.226  18.172  10.699
83381W        W54964  44.195  14.581  13.544
83382W        W54965  19.572  23.733   0.944
83383W        W54966  28.486  10.327   2.079
83384W        W54967  16.113   8.170   1.405
83385W        W54968  16.216   3.470   2.197
83386W        W54969  38.974   8.464   1.896
83387W        W54970   8.123  26.489  10.301
83388W        W54971   6.826   8.130  11.089
83389W        W54972  24.495  36.125  11.265
83390W        W54973  37.857  28.118   1.721
83391W        W54974  41.864  16.278   3.630
83392W        W54975  27.731  21.564  13.923
83393W        W54976  40.041  40.639  11.057
83394W        W54977   3.952  27.732   2.309
83395W        W54978  14.038  27.919   1.849
83396W        W54979  16.825   5.796  13.862
83397W        W54980  40.345   2.223   5.104
83398W        W54981  27.253  28.447   0.333
83399W        W54982  21.229  39.138  11.099
83400W        W54983   3.833  38.377  11.764
83401W        W54984  19.433  27.885  14.922
83402W        W54985   3.778  13.691   4.614
83403W        W54986   3.023   2.390  11.890
83404W        W54987   3.398   7.419   2.657
83405W        W54988  34.453   0.993   0.716
83406W        W54989  14.074   4.722   2.201
83407W        W54990  19.491  37.968  11.863
83408W        W54991   6.055   0.386   1.861
83409W        W54992  11.448   8.767   0.333
83410W        W54993  26.708  38.898   4.726
83411W        W54994  23.780  33.053   2.874
83412W        W54995   4.350  42.630  14.450
83413W        W54996  40.928  12.671  14.426
83414W        W54997  15.884  37.759  12.942
83415W        W54998  39.876  15.602   1.531
83416W        W54999  15.933  26.790   4.964
83417W        W55000  26.108  19.418   0.478
83418W        W55001  36.822  14.792   0.393
83419W        W55002  26.064  21.649  12.515
83420W        W55003  35.304  24.019   4.491
83421W        W55004   8.245  34.852  13.973
83422W        W55005  17.230  20.216  11.467
83423W        W55006   3.178  14.575  11.057
83424W        W55007  40.897  12.731   4.591
83425W        W55008   3.765  12.411   4.156
83426W        W55009  19.616  15.532  10.640
83427W        W55010  41.443  19.415   2.530
83428W        W55011  28.570  29.431   0.918
83429W        W55012  25.155   8.704  14.849
83430W        W55013  27.911  33.345   0.579
83431W        W55014  43.876  15.078   2.741
83432W        W55015  19.386  30.365  12.940
83433W        W55016  25.251  19.563  13.546
83434W        W55017  30.499  44.528  11.977
83435W        W55018  31.177  32.100   4.445
83436W        W55019   6.733  43.050   1.935
83437W        W55020  36.814  16.530  14.894
83438W        W55021  33.101   4.362   0.569
83439W        W55022  34.430  33.261   0.408
83440W        W55023   1.518  20.114  11.857
83441W        W55024  33.521  27.282   2.365
83442W        W55025   6.265   0.011   0.161
83443W        W55026   8.728   9.906  13.762
83444W        W55027   8.349  16.514  13.323
83445W        W55028   9.742  26.519   1.001
83446W        W55029  27.515  10.205  13.958
83447W        W55030  17.076  19.417   1.165
83448W        W55031  26.329  34.611   1.917
83449W        W55032   3.041  32.092  10.809
83450W        W55033  35.258  42.392  12.052
83451W        W55034  34.029  27.104   4.543
83452W        W55035  16.107  34.935  14.749
83453W        W55036  30.013  36.681  13.925
83454W        W55037  29.147  28.913  12.011
83455W        W55038  40.170   1.283  12.878
83456W        W55039  32.882  23.773   1.468
83457W        W55040  38.986  33.083   3.414
83458W        W55041  28.401  35.345   3.199
83459W        W55042  39.836  12.235   0.206
83460W        W55043  38.793  18.119  13.987
83461W        W55044  14.713   2.183  14.248
83462W        W55045  39.424  40.067  13.322
83463W        W55046  14.722   3.238  14.302
83464W        W55047  24.111  35.057  10.526
83465W        W55048  10.598  34.833   1.333
83466W        W55049  44.757  43.987   1.484
83467W        W55050   3.125  13.749   3.873
83468W        W55051  39.361  36.934   3.717
83469W        W55052  36.604  30.386   0.708
83470W        W55053  22.712  17.601  13.786
83471W        W55054  29.724  44.268  13.354
83472W        W55055   0.356  42.865  12.378
83473W        W55056  16.012   5.288  12.641
83474W        W55057  35.935  27.443  12.978
83475W        W55058  22.979  39.525  11.098
83476W        W55059  18.020  33.520   2.787
83477W        W55060  22.602  36.093  14.414
83478W        W55061  38.636  30.072   0.425
83479W        W55062   8.130   9.735   1.352
83480W        W55063  32.134  43.765   0.325
83481W        W55064  10.325  24.619   5.091
83482W        W55065  23.303  21.559   2.261
83483W        W55066  38.310  13.788  10.632
83484W        W55067  21.173  18.135   2.325
83485W        W55068   7.807  38.983  12.648
83486W        W55069  34.460  15.693   1.733
83487W        W55070   3.859  18.796   3.574
83488W        W55071   3.709  25.451  11.041
83489W        W55072   5.313  44.865  14.997
83490W        W55073   4.618  13.809  14.840
83491W        W55074  40.814  40.468   3.326
83492W        W55075  16.164  35.576  12.068
83493W        W55076  27.272  32.827  10.760
83494W        W55077  24.002  44.310  14.866
83495W        W55078  36.929  33.400   3.861
83496W        W55079  20.193  28.903  11.675
83497W        W55080  25.865   9.413   2.892
83498W        W55081   8.096  41.160   0.384
83499W        W55082  36.120  12.246   4.144
83500W        W55083  25.992  24.549  10.738
83501W        W55084  32.990  44.308   2.387
83502W        W55085  13.594  18.588  14.706
83503W        W55086  44.638  44.383  11.128
83504W        W55087  28.177  40.425  13.530
83505W        W55088  18.803  16.616   4.837
83506W        W55089   2.171   4.903   2.417
83507W        W55090  11.623   0.053   3.166
83508W        W55091  30.630  16.219  11.621
83509W        W55092  23.437  37.020  14.398
83510W        W55093  11.232  13.294   1.284
83511W        W55094   5.815  36.594   0.880
83512W        W55095  20.113   1.711   2.242
83513W        W55096  43.874  22.347   3.687
83514W        W55097   2.536  15.640   1.226
83515W        W55098  21.796   3.764   0.959
83516W        W55099  16.602  39.126   4.168
83517W        W55100  17.098   6.032   2.910
83518W        W55101  36.572  23.757  10.173
83519W        W55102  18.627  31.407  11.231
83520W        W55103  40.077  23.288  13.945
83521W        W55104  27.475   5.193   0.591
83522W        W55105   9.151  13.323   3.714
83523W        W55106  17.207  19.770  12.386
83524W        W55107   1.781  21.751  11.524
83525W        W55108  38.458   5.131  11.574
83526W        W55109   2.732  22.836  13.937
83527W        W55110  13.133  24.159  14.844
83528W        W55111  25.251  11.197   2.316
83529W        W55112  17.026   2.527   0.582
83530W        W55113  35.524  11.252  14.951
83531W        W55114  26.449   1.711   3.861
83532W        W55115  33.950  36.028   1.238
83533W        W55116  17.616   0.944   4.649
83534W        W55117  20.663  16.089  12.019
83535W        W55118   1.805  30.986   4.028
83536W        W55119   4.864  15.637  12.012
83537W        W55120  43.860  27.941   0.843
83538W        W55121  31.064  11.931   2.368
83539W        W55122  34.852  27.244  13.831
83540W        W55123  21.046  36.344   1.501
83541W        W55124  40.311  28.079  12.860
83542W        W55125  19.668  36.530  13.097
83543W        W55126  34.780  10.938  11.310
83544W        W55127  40.428  12.520  14.557
83545W        W55128  17.052   5.880  14.315
83546W        W55129  17.445  14.666   3.652
83547W        W55130  38.898  29.393  14.970
83548W        W55131  40.371  40.876   0.888
83549W        W55132  10.783   0.925   4.218
83550W        W55133   7.888  35.329   1.194
83551W        W55134  24.757   7.835   3.683
83552W        W55135  30.849   1.777   1.264
83553W        W55136  41.367  43.847   4.529
83554W        W55137  19.971  20.011  10.703
83555W        W55138  16.275  11.276   2.976
83556W        W55139   2.157   1.492   0.641
83557W        W55140  18.928  28.743   5.126
83558W        W55141   0.279  17.729   4.356
83559W        W55142  43.437  32.133   5.136
83560W        W55143  32.037  44.520   0.657
83561W        W55144  37.996  31.143  14.621
83562W        W55145  11.115  27.068  10.791
83563W        W55146  36.968   0.489  13.436
83564W        W55147  10.711   2.725  12.554
83565W        W55148  17.866   1.966   4.660
83566W        W55149  11.933  38.266  14.206
83567W        W55150  16.083  27.866   0.436
83568W        W55151   5.852   4.190  11.486
83569W        W55152  12.844  18.104  14.951
83570W        W55153  12.173  21.473   3.285
83571W        W55154  36.969  38.183   1.400
83572W        W55155  12.981  37.828   3.794
83573W        W55156  44.940  20.568   1.552
83574W        W55157   6.980  15.150  14.046
83575W        W55158   4.991  30.941  12.922
83576W        W55159  17.813  38.042   0.495
83577W        W55160  40.658   0.920   1.882
83578W        W55161   0.205  30.193  12.925
83579W        W55162  15.276  16.306  14.533
83580W        W55163   7.263  14.331  11.442
83581W        W55164   7.771  11.888  10.937
83582W        W55165  13.334  32.341   2.847
83583W        W55166  22.572   7.899   2.525
83584W        W55167  21.624  11.282   2.186
83585W        W55168  13.316  30.067  12.064
83586W        W55169  39.375  32.453   4.455
83587W        W55170  13.536  19.561   0.876
83588W        W55171  31.019   2.574  11.651
83589W        W55172  33.726  24.189  14.742
83590W        W55173  21.259  28.148   0.813
83591W        W55174  14.074  23.733  14.394
83592W        W55175   2.293   0.484  12.779
83593W        W55176  23.576  36.302   2.641
83594W        W55177   6.361  16.269   2.198
83595W        W55178  30.591   3.754  11.911
83596W        W55179  44.543  32.700  13.589
83597W        W55180   1.890  24.734   0.302
83598W        W55181  17.301  35.959  11.122
83599W        W55182  20.513  10.828  12.081
83600W        W55183  29.044  16.356   1.871
83601W        W55184   7.182   9.267   3.425
83602W        W55185  11.147  12.203   3.985
83603W        W55186   7.188  22.119  14.917
83604W        W55187  21.773  37.688  11.315
83605W        W55188  10.830  19.748  13.882
83606W        W55189   4.436  34.084  11.460
83607W        W55190  18.549  39.571  14.790
83608W        W55191  38.186   6.771  14.294
83609W        W55192  32.399  14.501  13.052
83610W        W55193  11.487  29.163   0.323
83611W        W55194  44.820  10.212   3.322
83612W        W55195   7.179  22.011  12.051
83613W        W55196  33.493   1.630   2.100
83614W        W55197  10.286  44.291   1.629
83615W        W55198  16.836  15.939   0.319
83616W        W55199  13.259  13.675   4.139
83617W        W55200  28.026  15.218   4.575
83618W        W55201  14.199  35.531   2.382
83619W        W55202  32.623  25.708  13.050
83620W        W55203  10.772   6.333   0.512
83621W        W55204  44.437   7.370  10.201
83622W        W55205   2.519  20.461  13.025
83623W        W55206   2.311  40.133   0.253
83624W        W55207  15.201  22.986   4.097
83625W        W55208  14.534  11.240  13.569
83626W        W55209  35.608  27.214   3.364
83627W        W55210  43.209  41.948  11.905
83628W        W55211  18.623  35.642   3.615
83629W        W55212  28.588  13.298  10.005
83630W        W55213   1.142  30.428   0.896
83631W        W55214  37.605  37.889   2.247
83632W        W55215  18.719  37.370   1.912
83633W        W55216   7.504   5.184   4.535
83634W        W55217   0.550  12.113  12.925
83635W        W55218  14.204   0.420  12.546
83636W        W55219  19.023  13.225  11.678
83637W        W55220   7.204  19.516   3.163
83638W        W55221   6.311  40.531   0.492
83639W        W55222  23.695  22.940  12.464
83640W        W55223  26.476   0.916  10.524
83641W        W55224   3.775  12.721  14.215
83642W        W55225  26.554  14.096   2.638
83643W        W55226   8.414  33.555  14.424
83644W        W55227   7.128   7.467   0.012
83645W        W55228   6.318  34.861   0.515
83646W        W55229  38.116  28.181  13.850
83647W        W55230  38.195  10.775   2.605
83648W        W55231  43.043   1.204   1.830
83649W        W55232  34.317  19.900   3.691
83650W        W55233  39.429   6.283   4.155
83651W        W55234  15.181   2.600  13.455
83652W        W55235  33.939  39.569  13.971
83653W        W55236  25.979  26.133   0.875
83654W        W55237  15.535  29.630  12.000
83655W        W55238  14.308  15.598   0.293
83656W        W55239  21.217   2.669   4.163
83657W        W55240   6.133   4.571   0.492
83658W        W55241  35.512  13.970   2.780
83659W        W55242  40.007  20.131   2.130
83660W        W55243  31.836  28.391   2.642
83661W        W55244  14.675   1.466   2.338
83662W        W55245  20.158  17.888   4.281
83663W        W55246  18.166  41.917  12.324
83664W        W55247   6.846  43.320   0.669
83665W        W55248  38.800   7.726   0.318
83666W        W55249  41.404  30.173   1.303
83667W        W55250   4.395  20.566  12.628
83668W        W55251  33.936  43.409  11.968
83669W        W55252  24.890  21.676  14.977
83670W        W55253  10.255   4.819  13.210
83671W        W55254  21.960  39.237  14.754
83672W        W55255   1.278   4.674   4.283
83673W        W55256   7.560  37.328   5.217
83674W        W55257  26.518  26.679  12.912
83675W        W55258  30.454  25.841   2.639
83676W        W55259  13.212  24.087   0.345
83677W        W55260  33.157  31.554   3.744
83678W        W55261  18.048   3.568   4.991
83679W        W55262  40.909  44.109  11.756
83680W        W55263  21.693  17.503   2.830
83681W        W55264   6.279   1.864   0.952
83682W        W55265  32.474  28.451   1.694
83683W        W55266  24.208   7.737   0.253
83684W        W55267   6.843   7.617  11.067
83685W        W55268  33.161  20.741   4.164
83686W        W55269  11.900  21.184   0.235
83687W        W55270  42.982  15.724  13.635
83688W        W55271  14.484  26.711  11.767
83689W        W55272  20.079  25.694   2.704
83690W        W55273  10.953  24.034   2.906
83691W        W55274  43.376   9.836  13.462
83692W        W55275  31.567  20.222   3.730
83693W        W55276  28.653  36.935   2.377
83694W        W55277   2.779  27.183  11.616
83695W        W55278  31.461  14.049  11.490
83696W        W55279   2.946  30.266  13.945
83697W        W55280  22.962  18.094  14.439
83698W        W55281  13.647  32.556  11.642
83699W        W55282  35.897  39.613  14.668
83700W        W55283  28.502  23.747   2.305
83701W        W55284  33.455   1.332  10.338
83702W        W55285  44.468  16.875   4.543
83703W        W55286  25.083  22.093   4.390
83704W        W55287  17.266  32.410  14.938
83705W        W55288  12.279  43.103  14.216
83706W        W55289  42.877  33.424   1.281
83707W        W55290  19.644  41.837   1.791
83708W        W55291  13.162  29.879   4.156
83709W        W55292  23.726  12.550   3.615
83710W        W55293  29.334   1.885   2.674
83711W        W55294  10.232  17.844  14.378
83712W        W55295  19.285  27.295   0.787
83713W        W55296  44.731   2.547   3.632
83714W        W55297   3.789  14.765   0.371
83715W        W55298  39.960  42.093  12.904
83716W        W55299   2.475  44.597  14.848
83717W        W55300  11.969  23.951   2.682
83718W        W55301  28.879  44.370   0.226
83719W        W55302  27.208  21.295   2.139
83720W        W55303  11.589  18.583   4.462
83721W        W55304  26.976   2.024   3.199
83722W        W55305   6.205  43.720  11.476
83723W        W55306   1.350  13.489   2.672
83724W        W55307  40.418  42.921   1.354
83725W        W55308   5.670   8.115  14.716
83726W        W55309  17.729  30.854   0.980
83727W        W55310  23.176  22.721  14.989
83728W        W55311  20.215  33.614   0.786
83729W        W55312  41.492  38.279  11.447
83730W        W55313   1.192   7.381  13.872
83731W        W55314   8.694  19.853  10.726
83732W        W55315  11.662   7.772  14.981
83733W        W55316   8.827  44.030   0.981
83734W        W55317  33.380  43.888   2.893
83735W        W55318   2.361  44.194  12.044
83736W        W55319   5.899  38.819   0.802
83737W        W55320  42.028   4.838   1.766
83738W        W55321  30.931   3.864  14.843
83739W        W55322   8.847  22.012  13.407
83740W        W55323  16.573  40.594   3.238
83741W        W55324  16.253  23.732   2.277
83742W        W55325  26.260  27.131   3.464
83743W        W55326  43.266  40.534  14.059
83744W        W55327   1.258   4.861   2.957
83745W        W55328  23.290  28.764   0.674
83746W        W55329  22.143  17.639  11.554
83747W        W55330  40.177  10.977   3.214
83748W        W55331  35.624  23.210  14.316
83749W        W55332  10.991  36.834   1.324
83750W        W55333  26.897   4.914  11.343
83751W        W55334  44.338  17.647   2.401
83752W        W55335  25.009  34.501  13.515
83753W        W55336  38.528  42.710  13.643
83754W        W55337  22.066   6.485   3.326
83755W        W55338   1.487  10.272  13.055
83756W        W55339  37.669   6.732  14.360
83757W        W55340  19.903  42.045   1.232
83758W        W55341  15.591  23.707  14.373
83759W        W55342  29.476   3.465   4.886
83760W        W55343  12.139   6.723  12.897
83761W        W55344  32.630  41.091   4.696
83762W        W55345   2.288  15.126  14.394
83763W        W55346  19.819   9.334  11.039
83764W        W55347  39.457  19.507  12.445
83765W        W55348  30.386  19.670   2.414
83766W        W55349  29.286  43.257   3.708
83767W        W55350  22.501   9.909  14.844
83768W        W55351   2.848  29.322   1.346
83769W        W55352  25.359  26.132  13.079
83770W        W55353  41.855   8.681   2.592
83771W        W55354   8.188   1.185   4.229
83772W        W55355   7.819   0.325  13.445
83773W        W55356  40.430  19.543  12.451
83774W        W55357  18.133  33.390  12.396
83775W        W55358  13.763   6.016   0.927
83776W        W55359  23.388  34.633   0.349
83777W        W55360   9.811  25.822   3.399
83778W        W55361   6.387  37.325  14.942
83779W        W55362  21.560   3.697   2.027
83780W        W55363  24.597   7.334   4.822
83781W        W55364  20.241   1.356   3.635
83782W        W55365  26.294  30.097   2.697
83783W        W55366  34.232  28.399   3.086
83784W        W55367  27.179  43.015  13.428
83785W        W55368   9.841  22.132   0.351
83786W        W55369  34.060  26.635   2.871
83787W        W55370  11.252  28.592   4.586
83788W        W55371   8.208  24.001  11.174
83789W        W55372  30.562  40.042   2.370
83790W        W55373   5.417  25.978   0.764
83791W        W55374  20.774   3.268  12.913
83792W        W55375  16.796  23.212  13.854
83793W        W55376  26.547   9.941  14.250
83794W        W55377  13.226   8.601   3.653
83795W        W55378  43.240  35.920   4.202
83796W        W55379  14.279   8.905  12.396
83797W        W55380   5.967  39.508  13.676
83798W        W55381   8.683  35.079   0.816
83799W        W55382  41.398  19.084   0.948
83800W        W55383  12.798  30.049   1.313
83801W        W55384  39.250  17.131  11.965
83802W        W55385   1.233   9.634  14.246
83803W        W55386  44.762  28.998   1.906
83804W        W55387  15.194  15.089  13.511
83805W        W55388  21.157  10.543   3.437
83806W        W55389  31.667   7.713   0.757
83807W        W55390  37.787  11.409  11.218
83808W        W55391   4.504   4.471  10.833
83809W        W55392  42.820  15.656   4.160
83810W        W55393  42.172  32.487  12.898
83811W        W55394  44.465  43.348   0.252
83812W        W55395  24.476  34.639   4.849
83813W        W55396  24.939  40.039   0.743
83814W        W55397  12.864   7.494  13.846
83815W        W55398  16.233  15.832   0.851
83816W        W55399   6.730  14.200   1.480
83817W        W55400  25.469  19.054  11.077
83818W        W55401  18.394  17.768   0.847
83819W        W55402   4.679   6.964   3.606
83820W        W55403   8.937  40.848   0.897
83821W        W55404   4.292  38.553  10.621
83822W        W55405   8.227   1.196  13.543
83823W        W55406  28.991  26.920   1.823
83824W        W55407  25.995  21.169   1.385
83825W        W55408  11.635  18.157   2.396
83826W        W55409  35.533  14.127  10.708
83827W        W55410   4.829   3.697   3.722
83828W        W55411  44.786  31.669   0.171
83829W        W55412  22.566  31.512   0.910
83830W        W55413  41.529  36.559  11.147
83831W        W55414  11.239   1.030  14.381
83832W        W55415  40.320  35.375  14.552
83833W        W55416   5.747  10.201   3.717
83834W        W55417  14.987  22.487   2.200
83835W        W55418  29.154  31.627   1.029
83836W        W55419   3.989  11.176  12.516
83837W        W55420   7.890  31.486   0.325
83838W        W55421   2.266   8.604  13.913
83839W        W55422   2.720  19.479  13.589
83840W        W55423  15.177   4.624  14.973
83841W        W55424   5.205   9.701  11.595
83842W        W55425  36.858  17.278   1.775
83843W        W55426  30.117   2.902  14.554
83844W        W55427  27.518  31.193  12.068
83845W        W55428  13.730  35.081   0.827
83846W        W55429  19.681   6.010   1.934
83847W        W55430  21.179  15.689   0.996
83848W        W55431   7.116  40.990   0.365
83849W        W55432  32.914  27.012  11.260
83850W        W55433  41.578  18.316  11.304
83851W        W55434   7.409  17.253  13.046
83852W        W55435  28.959  27.725  14.789
83853W        W55436   8.525  36.822  13.318
83854W        W55437  32.800  27.395   4.583
83855W        W55438  36.455  23.700  14.679
83856W        W55439  12.337  15.062   2.706
83857W        W55440  33.623  39.186  14.215
83858W        W55441  28.135   0.122  12.620
83859W        W55442  13.170  13.400   0.022
83860W        W55443  32.086  41.193  11.680
83861W        W55444  17.943   5.400   4.214
83862W        W55445  15.003  22.559   1.355
83863W        W55446  38.164  17.551  13.452
83864W        W55447  41.293  32.885   3.580
83865W        W55448  13.813  29.942   3.355
83866W        W55449  15.302  36.478  10.269
83867W        W55450  38.949  32.952   0.080
83868W        W55451  34.444  21.153  10.669
83869W        W55452  44.384  11.329   3.188
83870W        W55453  10.925  40.844  13.069
83871W        W55454  35.820  11.743   0.914
83872W        W55455  42.520  32.495  11.281
83873W        W55456  18.269  43.148  11.497
83874W        W55457  13.639   3.972  12.408
83875W        W55458  18.166  11.469  13.935
83876W        W55459  39.265  18.323  14.000
83877W        W55460   4.490  43.317  12.198
83878W        W55461  13.909  37.571   4.517
83879W        W55462  10.774   0.473  12.090
83880W        W55463  10.256  36.853   0.863
83881W        W55464  40.352  15.132   2.894
83882W        W55465  14.915   6.700   3.089
83883W        W55466  27.300  13.341   3.270
83884W        W55467  26.551  26.562  14.946
83885W        W55468  23.737  10.397   4.460
83886W        W55469  38.596  10.125   3.277
83887W        W55470   6.496   1.189  12.600
83888W        W55471   4.831  16.623   3.095
83889W        W55472  13.851  24.874   5.059
83890W        W55473  41.447   8.322  13.300
83891W        W55474  20.200  27.068  12.032
83892W        W55475  42.733  44.549   2.080
83893W        W55476  19.118  21.902   3.863
83894W        W55477   7.381   1.743   0.190
83895W        W55478  40.740  11.729   2.631
83896W        W55479  30.933  14.072   1.511
83897W        W55480  24.659   3.775   3.646
83898W        W55481  20.578   3.727  10.975
83899W        W55482  16.249  13.611  11.526
83900W        W55483  29.858   5.218   1.788
83901W        W55484   3.638  23.493  12.071
83902W        W55485  23.108   7.250  10.886
83903W        W55486  23.644   9.713  14.570
83904W        W55487  22.742  24.049   2.858
83905W        W55488  30.243  34.553   4.557
83906W        W55489  33.605  34.629  10.302
83907W        W55490   7.492   2.372   4.680
83908W        W55491   4.854  33.827  13.564
83909W        W55492  22.281   3.529   0.441
83910W        W55493  27.946  40.095  10.724
83911W        W55494  40.890  16.585   4.435
83912W        W55495  28.396  44.282  11.201
83913W        W55496  32.464  39.564  12.584
83914W        W55497  30.640  41.619  10.469
83915W        W55498  24.239  39.996  10.742
83916W        W55499  12.401  21.297   0.190
83917W        W55500   9.542   3.180   3.880
83918W        W55501  29.108  44.776  13.532
83919W        W55502  37.470   0.576  13.148
83920W        W55503  26.510   5.619   2.847
83921W        W55504  19.718   7.856   1.465
83922W        W55505  41.448  31.596  10.837
83923W        W55506  40.783  44.514  12.981
83924W        W55507  21.938  40.801   3.832
83925W        W55508  37.473  15.470  12.947
83926W        W55509   7.608  27.076   0.890
83927W        W55510  38.352   6.322  13.493
83928W        W55511  14.873  26.153   2.247
83929W        W55512  38.457  11.161  12.925
83930W        W55513  13.676  14.597  13.030
83931W        W55514  23.079  25.695   1.985
83932W        W55515   1.376   3.949  14.506
83933W        W55516  43.915  27.938   2.589
83934W        W55517  35.089  23.023   1.281
83935W        W55518  23.711  10.822  10.739
83936W        W55519  13.934  30.330  12.556
83937W        W55520  22.812  44.729  11.424
83938W        W55521  37.983   7.896   2.825
83939W        W55522  18.829  10.203  12.061
83940W        W55523  21.732  32.897  12.576
83941W        W55524  33.623  37.332   1.451
83942W        W55525  43.132   3.366  11.852
83943W        W55526  36.979  21.586   4.552
83944W        W55527  33.469  27.985   3.625
83945W        W55528  32.379  37.114   4.320
83946W        W55529   0.712  40.807   1.337
83947W        W55530   6.670  17.473   4.358
83948W        W55531  26.794  17.639  12.396
83949W        W55532  44.982  29.473   1.869
83950W        W55533   3.175  41.767  13.293
83951W        W55534  11.315  26.678   2.845
83952W        W55535  44.512  14.202  14.060
83953W        W55536  27.138  32.333  10.829
83954W        W55537  29.432  23.070  13.847
83955W        W55538  18.112   4.949  12.542
83956W        W55539   8.712  36.001  12.193
83957W        W55540  40.402  25.196   1.885
83958W        W55541   8.852  24.155  12.779
83959W        W55542  24.035  20.045  12.503
83960W        W55543  37.867  17.954   4.592
83961W        W55544   5.457   7.421   4.536
83962W        W55545  25.203  42.978  11.074
83963W        W55546   0.479   3.958  14.502
83964W        W55547  38.548  14.109  12.087
83965W        W55548  11.860  26.307   3.619
83966W        W55549  27.104  30.604  13.819
83967W        W55550  43.360   0.995  14.354
83968W        W55551  22.677  36.682  10.776
83969W        W55552  24.260  41.264  11.195
83970W        W55553  32.097  31.556  14.123
83971W        W55554  26.973  14.212   2.913
83972W        W55555  15.168  25.627  11.951
83973W        W55556  27.826  12.157  12.036
83974W        W55557  21.775   3.777   4.557
83975W        W55558   7.176  22.755  13.451
83976W        W55559   2.789  15.483   4.636
83977W        W55560  19.622  22.764  12.556
83978W        W55561   7.471  30.505  14.814
83979W        W55562  30.851  27.211  12.534
83980W        W55563  23.064  42.726   2.119
83981W        W55564  10.334  44.426  11.009
83982W        W55565  14.835   3.276  10.366
83983W        W55566  18.161  11.927   0.291
83984W        W55567  25.325  33.495  14.886
83985W        W55568  32.232  22.503  12.656
83986W        W55569   2.088  12.349  13.806
83987W        W55570  11.160  32.556  10.669
83988W        W55571  41.271   1.254  13.855
83989W        W55572  25.604  38.438   4.227
83990W        W55573  15.543  38.027   0.362
83991W        W55574   6.171  15.114  14.231
83992W        W55575  31.937  36.668   3.615
83993W        W55576   2.999   0.341  14.026
83994W        W55577  43.592  30.609   1.808
83995W        W55578  27.140  16.305  13.779
83996W        W55579  37.976  25.133   4.007
83997W        W55580   8.831  38.606  14.892
83998W        W55581  43.694  38.912  10.170
83999W        W55582  39.515  32.765  13.813
84000W        W55583   9.382  12.180   1.476
84001W        W55584  12.397   2.422   0.782
84002W        W55585  31.847  23.354   0.729
84003W        W55586  34.003  12.540  11.163
84004W        W55587  10.922  26.653  12.464
84005W        W55588   4.807   8.946  13.058
84006W        W55589  30.922   5.131   1.382
84007W        W55590  23.525  10.986   2.726
84008W        W55591  14.919  37.318   4.823
84009W        W55592   0.940  15.101   1.885
84010W        W55593  16.929  15.318  13.367
84011W        W55594  11.163  39.453  12.713
84012W        W55595  26.596   5.408   4.272
84013W        W55596  43.468  12.925  12.418
84014W        W55597  27.450  43.497   3.708
84015W        W55598  26.852  25.900   4.295
84016W        W55599  25.992  27.606  11.519
84017W        W55600   7.768  43.571   1.183
84018W        W55601  19.249   8.969  11.198
84019W        W55602   9.704   5.755   0.555
84020W        W55603  26.137   8.155   3.658
84021W        W55604  11.737  34.554  13.116
84022W        W55605  35.993  40.375   3.584
84023W        W55606   5.474  17.692  13.878
84024W        W55607  13.803  32.034   0.901
84025W        W55608   9.981  24.591   3.248
84026W        W55609   8.151  27.252   1.585
84027W        W55610   4.080  31.130   1.464
84028W        W55611  38.049  43.845   3.717
84029W        W55612  32.891  29.182  13.859
84030W        W55613  37.657  36.118  10.290
84031W        W55614  42.909  26.644  14.753
84032W        W55615  21.171  22.230   0.776
84033W        W55616  28.944  31.075   0.003
84034W        W55617  34.922  25.147  10.189
84035W        W55618  16.657  28.661   4.795
84036W        W55619   0.401   4.282  11.535
84037W        W55620  22.403  28.786  13.596
84038W        W55621  21.798  15.157  13.547
84039W        W55622   0.813   8.577   5.027
84040W        W55623   2.728  13.149  12.050
84041W        W55624  11.139  29.481   1.641
84042W        W55625  12.314  38.035  13.925
84043W        W55626  30.002   2.990  12.100
84044W        W55627   9.661  36.580   4.854
84045W        W55628   1.306   8.948   4.968
84046W        W55629  18.479  36.498  11.914
84047W        W55630  18.151  10.885   0.302
84048W        W55631  38.548  32.214  11.320
84049W        W55632   7.258  17.271  11.825
84050W        W55633   7.200  35.389  10.668
84051W        W55634  29.087  17.992   3.819
84052W        W55635  16.567   4.966   2.195
84053W        W55636   0.262   5.853  12.421
84054W        W55637  12.606   4.628   1.720
84055W        W55638  35.275  31.053  14.499
84056W        W55639   9.924  39.884  12.679
84057W        W55640  23.495   3.583  12.517
84058W        W55641   6.151  44.683   3.396
84059W        W55642   9.800  31.560  13.583
84060W        W55643  41.186  24.452  12.164
84061W        W55644  43.836   2.326  10.779
84062W        W55645   8.942  29.497   4.102
84063W        W55646  11.097  41.749   1.158
84064W        W55647  36.861  24.924   3.157
84065W        W55648   4.547  41.354   2.726
84066W        W55649  37.306  20.655  10.481
84067W        W55650  10.133  38.942  12.462
84068W        W55651  24.048   4.298   0.730
84069W        W55652  40.982   7.933  10.608
84070W        W55653  33.896  11.157   4.176
84071W        W55654  32.972  14.089  13.268
84072W        W55655   5.105   1.866   1.387
84073W        W55656   1.811  25.297  14.479
84074W        W55657   5.071  14.181   4.119
84075W        W55658  36.412  30.972  13.390
84076W        W55659  25.158  32.076  13.988
84077W        W55660  39.098  26.567   2.457
84078W        W55661  15.609  42.335   4.496
84079W        W55662  20.837  32.195  13.502
84080W        W55663  12.681   9.852   2.699
84081W        W55664   1.479  38.519  14.079
84082W        W55665  28.282  11.132  13.475
84083W        W55666  16.094  30.947   0.713
84084W        W55667  13.660  19.109  14.859
84085W        W55668  36.326  27.975   1.293
84086W        W55669  19.620  38.574  13.011
84087W        W55670  18.178   3.167   4.194
84088W        W55671  37.507  13.571   4.135
84089W        W55672   2.084  39.313   0.423
84090W        W55673  38.909  34.109   5.045
84091W        W55674   0.532   6.856   1.392
84092W        W55675  12.521  29.022  10.734
84093W        W55676  38.348  20.113   2.648
84094W        W55677   2.542  40.843  10.694
84095W        W55678  20.017  11.769   1.969
84096W        W55679  42.692  31.587   3.650
84097W        W55680  35.558  30.020   0.051
84098W        W55681  44.483   3.682  11.470
84099W        W55682  28.676  16.393   0.787
84100W        W55683  42.313  23.679  11.109
84101W        W55684   2.517  13.533  14.308
84102W        W55685   9.079  33.132  14.497
84103W        W55686  44.758  42.367  12.392
84104W        W55687   7.690  29.996   1.940
84105W        W55688  42.138  13.245   4.555
84106W        W55689  40.721  44.773  12.497
84107W        W55690  39.183  33.068  12.112
84108W        W55691  30.921   3.959   4.520
84109W        W55692   7.270  22.280   1.257
84110W        W55693  37.929  38.367  10.583
84111W        W55694  12.194  28.352   2.089
84112W        W55695  11.645   0.979   2.187
84113W        W55696  38.897   0.777  10.861
84114W        W55697  26.330  31.029  14.811
84115W        W55698  41.696  31.266   0.931
84116W        W55699  31.217  29.970  13.398
84117W        W55700   3.408  36.012  13.003
84118W        W55701  39.281  32.614  10.867
84119W        W55702  16.231   3.651   0.477
84120W        W55703  36.499  21.140   0.347
84121W        W55704   4.909  34.679   3.230
84122W        W55705  18.153   6.269   1.206
84123W        W55706  18.219  35.392   3.433
84124W        W55707  28.527  20.797  14.273
84125W        W55708  31.436   9.195  12.537
84126W        W55709  43.336  25.140   4.940
84127W        W55710  14.169  22.415   3.381
84128W        W55711  12.732  35.006   3.416
84129W        W55712  32.159  20.967   2.280
84130W        W55713  12.594  24.717   2.767
84131W        W55714  40.894  41.456  12.371
84132W        W55715   5.435   9.649   4.849
84133W        W55716  29.432  40.773   0.063
84134W        W55717  18.781  40.049   2.921
84135W        W55718  40.464  31.500  11.689
84136W        W55719   2.984  41.001  10.941
84137W        W55720  35.409  37.949  11.123
84138W        W55721  22.702  18.091   0.562
84139W        W55722  42.453   6.700   0.860
84140W        W55723  21.621  17.322  12.549
84141W        W55724  21.048   0.210   3.952
84142W        W55725   3.726  36.459   2.206
84143W        W55726   0.011  19.434  11.248
84144W        W55727  34.050   8.994  13.354
84145W        W55728   9.606  28.200  14.008
84146W        W55729  44.111   8.969   1.771
84147W        W55730  32.211   2.128   4.355
84148W        W55731  13.177  21.408   3.989
84149W        W55732  38.529  24.978   2.206
84150W        W55733  29.536  23.116   4.656
84151W        W55734  22.089  29.887   1.917
84152W        W55735  32.284  42.316  13.023
84153W        W55736  22.444  32.358   2.808
84154W        W55737  34.630  30.033  10.773
84155W        W55738  38.512  39.818   2.702
84156W        W55739  33.612  35.508  14.985
84157W        W55740  18.174   7.646   2.276
84158W        W55741  28.573  31.092  11.599
84159W        W55742  28.138  20.164   1.259
84160W        W55743  28.590  28.075   2.378
84161W        W55744   9.131  40.143  11.010
84162W        W55745  36.098   6.274  14.965
84163W        W55746  29.742  26.940  11.873
84164W        W55747  24.442  43.883   1.798
84165W        W55748   8.888  12.441  13.873
84166W        W55749   7.902  28.462   1.223
84167W        W55750   8.290  31.443   4.105
84168W        W55751  33.527  37.662  12.035
84169W        W55752  42.367  43.423  11.181
84170W        W55753   3.374  20.214   0.303
84171W        W55754   9.092  17.275   1.847
84172W        W55755  35.585  34.561   1.331
84173W        W55756  12.780  18.831  12.924
84174W        W55757  27.111  24.078   3.305
84175W        W55758  22.148  37.563   0.913
84176W        W55759  12.350  35.065   4.675
84177W        W55760  18.554  18.804   0.871
84178W        W55761  29.473  32.324   1.773
84179W        W55762  35.508  31.962   0.272
84180W        W55763   9.416   0.729  11.623
84181W        W55764   9.823   4.105   0.975
84182W        W55765  41.463   3.669   5.110
84183W        W55766  13.577  22.590  14.078
84184W        W55767  29.570  16.344  13.988
84185W        W55768   8.744  28.690   3.887
84186W        W55769   9.019  44.047  12.568
84187W        W55770  36.572  32.082   4.136
84188W        W55771  33.249  24.761   1.516
84189W        W55772  20.321  41.246  13.024
84190W        W55773  38.282  35.534   3.187
84191W        W55774  19.092   2.295  14.860
84192W        W55775  24.529   9.387  14.931
84193W        W55776  26.602  18.327   0.019
84194W        W55777   5.306  35.448   2.708
84195W        W55778  24.505  26.104   0.711
84196W        W55779  23.450  17.779  11.913
84197W        W55780   9.975   6.828   4.215
84198W        W55781  36.418  19.151   0.695
84199W        W55782  22.037  16.152  14.921
84200W        W55783   3.245  21.082   4.793
84201W        W55784  25.942  40.202  11.294
84202W        W55785   0.550  42.935   4.071
84203W        W55786  18.356  23.062  13.152
84204W        W55787  27.429  16.007   4.125
84205W        W55788  12.268  12.660   1.811
84206W        W55789   6.860   1.274  11.797
84207W        W55790   0.538  34.354   0.496
84208W        W55791  15.488  16.389   5.142
84209W        W55792   6.246  33.104  14.522
84210W        W55793  37.305  24.618  14.978
84211W        W55794  18.262  17.726  10.790
84212W        W55795  32.022  27.668  13.394
84213W        W55796  15.142  14.593   0.275
84214W        W55797   8.706  28.151   1.845
84215W        W55798  27.648  33.768  10.629
84216W        W55799  44.928  38.109  13.184
84217W        W55800  12.142   9.361  10.614
84218W        W55801  39.886  28.462   0.941
84219W        W55802  33.640  14.138  14.355
84220W        W55803  29.992  14.846   3.701
84221W        W55804   2.883  14.284   1.996
84222W        W55805  15.049  29.213   0.903
84223W        W55806  37.456  18.484  12.065
84224W        W55807   2.238  36.654  14.676
84225W        W55808  22.193  13.156   0.496
84226W        W55809   2.485  12.554   4.624
84227W        W55810  26.053  31.648  11.061
84228W        W55811  22.933  23.342  11.951
84229W        W55812  31.741  18.805   9.765
84230W        W55813  29.356  35.484   4.876
84231W        W55814   9.412  11.636   2.753
84232W        W55815   4.788   8.271   3.069
84233W        W55816   1.321  23.687  11.434
84234W        W55817  20.829   6.839  14.351
84235W        W55818  14.736   4.479   0.267
84236W        W55819  25.216  32.947  13.033
84237W        W55820  37.757  15.906   5.017
84238W        W55821  30.375  19.609   3.291
84239W        W55822  40.789  29.642  12.908
84240W        W55823  13.394  36.555  12.517
84241W        W55824   9.121   6.245   4.113
84242W        W55825  21.738  22.142   1.808
84243W        W55826  27.422  36.595   2.582
84244W        W55827  27.645  34.344  14.962
84245W        W55828  41.372   4.169   0.754
84246W        W55829  26.861  37.754   1.270
84247W        W55830   8.612   4.680   2.833
84248W        W55831  40.003   9.918   0.466
84249W        W55832   4.125  40.914   3.730
84250W        W55833  38.778  36.999   0.883
84251W        W55834  33.073  38.758  11.671
84252W        W55835  18.055  41.848   2.846
84253W        W55836  32.635  16.244   3.594
84254W        W55837  33.353  14.740   0.854
84255W        W55838  15.244  32.011   4.665
84256W        W55839   3.749  25.692   1.655
84257W        W55840   1.522  10.728   1.859
84258W        W55841  11.763   1.940   3.180
84259W        W55842  40.602  41.842  11.628
84260W        W55843  24.518  24.321   0.929
84261W        W55844  38.304  11.547   2.956
84262W        W55845  16.339   7.690  14.273
84263W        W55846   5.732  29.985   4.010
84264W        W55847   7.754  43.486  14.979
84265W        W55848  36.330  31.491   2.325
84266W        W55849  27.533  39.779   3.769
84267W        W55850  24.913  25.457   4.162
84268W        W55851   1.991  14.268  12.344
84269W        W55852  14.873  38.481   0.237
84270W        W55853  12.043  28.163   4.218
84271W        W55854  16.643  19.003  11.358
84272W        W55855  43.852  20.021   2.472
84273W        W55856  29.547  27.921  14.900
84274W        W55857  17.616   0.722   1.380
84275W        W55858  38.866   7.825   1.118
84276W        W55859   8.768   9.665   0.642
84277W        W55860  17.242   4.507  14.716
84278W        W55861  21.536  11.536  12.145
84279W        W55862   8.835  22.187   0.262
84280W        W55863  32.045  34.074  10.731
84281W        W55864  42.290  32.049   0.737
84282W        W55865   5.706   8.090  13.874
84283W        W55866  38.401  44.246   1.787
84284W        W55867  31.424   7.967  12.008
84285W        W55868  39.788  12.623   2.307
84286W        W55869   4.366  31.852  14.848
84287W        W55870  30.344  36.926  10.808
84288W        W55871  24.068  39.272   4.021
84289W        W55872   3.118  10.548  13.358
84290W        W55873  11.332  32.258   0.546
84291W        W55874  22.237  42.019  12.950
84292W        W55875  15.232   7.151  12.422
84293W        W55876  26.103   6.742   4.715
84294W        W55877  29.049  11.192   3.776
84295W        W55878  20.578  34.176  13.845
84296W        W55879  33.960  39.909  14.363
84297W        W55880  14.603  21.510   0.821
84298W        W55881   9.128  26.487   0.174
84299W        W55882  14.553  43.396  12.042
84300W        W55883  39.939   2.398   3.413
84301W        W55884  16.762  40.467  14.833
84302W        W55885   8.847  39.926  13.787
84303W        W55886  40.595  40.304   2.857
84304W        W55887  42.919  38.901  12.375
84305W        W55888  33.567  18.191   0.321
84306W        W55889  27.468  30.089  12.665
84307W        W55890  38.135  32.882   4.003
84308W        W55891  37.168  36.632  11.451
84309W        W55892  24.266  22.216  10.555
84310W        W55893  42.844  15.378  11.717
84311W        W55894  28.193  36.305  12.849
84312W        W55895  24.917   8.933  11.245
84313W        W55896   2.748  37.852  11.185
84314W        W55897  18.499   7.358   1.603
84315W        W55898  44.783  44.520  12.946
84316W        W55899  34.363  37.835   3.818
84317W        W55900  29.405  18.274  14.552
84318W        W55901  44.993  11.644   2.779
84319W        W55902  43.940   4.865  12.396
84320W        W55903  19.663  25.467  13.877
84321W        W55904  12.168  12.576  14.370
84322W        W55905  35.919   8.777   2.781
84323W        W55906  19.356  10.179  11.925
84324W        W55907   0.869  29.525   2.140
84325W        W55908  42.004  27.990  10.223
84326W        W55909  39.847   0.874   1.480
84327W        W55910  37.623  12.664  10.608
84328W        W55911   9.917  40.060  13.156
84329W        W55912  20.439  10.648  11.569
84330W        W55913  34.063   2.415  13.076
84331W        W55914   4.726   8.904  10.361
84332W        W55915   0.877  41.403   4.157
84333W        W55916  15.207  36.182   0.522
84334W        W55917   2.943  38.609  10.214
84335W        W55918  30.873  31.595  12.482
84336W        W55919  22.532  17.837  14.239
84337W        W55920  23.587  11.632  14.836
84338W        W55921   0.399   8.371   1.382
84339W        W55922  38.922   9.728   3.498
84340W        W55923  13.175   9.280  13.084
84341W        W55924  41.681  41.696   5.188
84342W        W55925  18.207  39.028   0.050
84343W        W55926   4.066   7.077   0.387
84344W        W55927  43.333   4.014   4.206
84345W        W55928   9.815   4.735  11.976
84346W        W55929  38.521   3.909  11.375
84347W        W55930  26.190  33.543   4.529
84348W        W55931  35.502  28.255  12.959
84349W        W55932  23.460   1.421  12.251
84350W        W55933  36.358  31.664  11.744
84351W        W55934  18.371  31.004   2.752
84352W        W55935  26.534  26.938   4.375
84353W        W55936   3.829  37.814  13.042
84354W        W55937  20.167  12.999   4.279
84355W        W55938   4.043  44.843  11.561
84356W        W55939  34.941  44.345  14.867
84357W        W55940  40.377  17.867   2.271
84358W        W55941  34.422  18.768   2.679
84359W        W55942  23.224  43.063   4.134
84360W        W55943  14.613  22.050   2.827
84361W        W55944   5.873   1.551   0.920
84362W        W55945   5.692   7.242   2.634
84363W        W55946  15.600  29.102  14.494
84364W        W55947  27.565   8.776  10.695
84365W        W55948  25.779  24.471  12.913
84366W        W55949  44.771  43.577  11.502
84367W        W55950  27.730  17.190  11.329
84368W        W55951   4.914   9.611  13.773
84369W        W55952  17.478   5.848   0.239
84370W        W55953  27.658  22.190  14.505
84371W        W55954  27.003   8.109  12.168
84372W        W55955   4.552  38.569   4.155
84373W        W55956  34.481  44.832   4.062
84374W        W55957  26.487  20.494   3.115
84375W        W55958   1.958  34.032  11.504
84376W        W55959  39.187  42.777   0.734
84377W        W55960  25.698  24.881   0.048
84378W        W55961  23.609   0.293   3.608
84379W        W55962  36.381   1.092   0.669
84380W        W55963  11.079  41.400   3.611
84381W        W55964  43.754   4.694  11.166
84382W        W55965  14.524  24.233  13.087
84383W        W55966  29.535   5.684   4.157
84384W        W55967  20.521   0.239   1.823
84385W        W55968  32.724  24.687  11.641
84386W        W55969  29.132   2.674  12.032
84387W        W55970  41.311  37.975  13.418
84388W        W55971  15.424  26.483  10.660
84389W        W55972  21.271  16.648  12.090
84390W        W55973   9.454   5.868  11.404
84391W        W55974  16.305  44.633  14.908
84392W        W55975   5.671  31.960  10.667
84393W        W55976  38.395  44.009  14.953
84394W        W55977  38.334  30.513  12.957
84395W        W55978   4.911  33.245  11.621
84396W        W55979  22.883  18.069  11.105
84397W        W55980  34.087   3.353  13.598
84398W        W55981  17.049  22.948  11.925
84399W        W55982  17.673  33.427  10.739
84400W        W55983  17.617  41.233   0.363
84401W        W55984  39.560   1.038   4.183
84402W        W55985   1.891  37.156  10.783
84403W        W55986  39.504   5.825   1.779
84404W        W55987  42.049  38.768  12.087
84405W        W55988  31.142   6.276   4.120
84406W        W55989  42.410  33.572  10.371
84407W        W55990  40.308   8.743  11.451
84408W        W55991  11.733  34.526   2.247
84409W        W55992  25.629  22.583   2.268
84410W        W55993  31.012  38.414  13.576
84411W        W55994  30.955  40.223   2.711
84412W        W55995  43.441  19.480   4.956
84413W        W55996  39.216  11.616   3.630
84414W        W55997   2.873  26.669  12.536
84415W        W55998  44.715  37.507   1.368
84416W        W55999  32.586  25.799   2.493
84417W        W56000  16.793  27.216   3.421
84418W        W56001  23.672  12.217   3.113
84419W        W56002  26.600  34.857  10.480
84420W        W56003  44.911  38.868  11.512
84421W        W56004  18.639   7.302   3.896
84422W        W56005  26.934  41.943   4.744
84423W        W56006  25.284  24.127   1.550
84424W        W56007   7.525  23.202   3.771
84425W        W56008   0.414  15.735  13.499
84426W        W56009   0.177  11.179   2.760
84427W        W56010  41.456  15.356   2.851
84428W        W56011   6.319  42.202   2.804
84429W        W56012  35.333   3.454  12.650
84430W        W56013  19.679  18.050   4.256
84431W        W56014  13.302  18.850  12.255
84432W        W56015  15.370  32.069   1.893
84433W        W56016  33.942  13.059  11.185
84434W        W56017  22.187  31.940   3.649
84435W        W56018   4.364  14.478   0.413
84436W        W56019  11.768  33.305   0.700
84437W        W56020   0.578  38.219   0.266
84438W        W56021   3.956  30.663  12.910
84439W        W56022  11.336  15.631   0.839
84440W        W56023   3.476  17.155   4.099
84441W        W56024   0.911  19.277  14.754
84442W        W56025   6.630  40.071  12.526
84443W        W56026  41.881  31.918  10.715
84444W        W56027   0.751  19.727  14.508
84445W        W56028   7.493   7.659  10.812
84446W        W56029   9.829  36.540  12.152
84447W        W56030   7.716  32.204   0.707
84448W        W56031   7.974  25.236   0.122
84449W        W56032   2.907  43.389  12.082
84450W        W56033  17.964   2.807   3.228
84451W        W56034  13.238  27.766  13.362
84452W        W56035  14.650  38.966   4.147
84453W        W56036   5.300  32.200   3.224
84454W        W56037  14.736   9.154  12.443
84455W        W56038  14.155  42.272   1.100
84456W        W56039  12.084  28.798   1.801
84457W        W56040  36.096  22.614  14.003
84458W        W56041  12.455  26.637   5.146
84459W        W56042  35.147  27.707   1.717
84460W        W56043  36.039  20.236  11.577
84461W        W56044  34.142  18.176   1.407
84462W        W56045   0.860  34.442   1.166
84463W        W56046  25.563  27.614  14.969
84464W        W56047  33.241  13.462  11.952
84465W        W56048  30.469  10.275  10.915
84466W        W56049  19.008   2.929   2.272
84467W        W56050  23.177  30.174   4.056
84468W        W56051  44.753  16.667  10.375
84469W        W56052  14.685  40.831   2.418
84470W        W56053  16.903  34.542   5.663
84471W        W56054  40.288  21.262  13.021
84472W        W56055  23.487  39.513  11.039
84473W        W56056  39.773  33.880  12.361
84474W        W56057  26.543   3.832   4.620
84475W        W56058  40.050  20.726  12.057
84476W        W56059   5.971  24.130  11.179
84477W        W56060  10.557  10.965  14.280
84478W        W56061  16.245  16.162  13.460
84479W        W56062  16.323  40.042   1.194
84480W        W56063  36.506   7.201  14.706
84481W        W56064  34.613  17.837   2.597
84482W        W56065  12.392  42.484   4.189
84483W        W56066  31.226  17.082   3.551
84484W        W56067  18.591   1.451  12.080
84485W        W56068  30.074  44.493  13.059
84486W        W56069  30.414  34.049  14.471
84487W        W56070   9.648   4.753  14.957
84488W        W56071  39.084  19.222   3.701
84489W        W56072   3.505  15.209   0.326
84490W        W56073   7.021   7.871  10.669
84491W        W56074  31.030  15.256  12.023
84492W        W56075   8.397  37.570   0.478
84493W        W56076  13.182  37.719  14.381
84494W        W56077  16.634  16.428   1.756
84495W        W56078   0.287  32.178   2.768
84496W        W56079  12.668  23.469  11.619
84497W        W56080  12.176   5.489  12.639
84498W        W56081   9.888  42.495  13.990
84499W        W56082  25.165  20.709  12.050
84500W        W56083  14.660  31.072   0.388
84501W        W56084  29.776  26.623   3.712
84502W        W56085   5.657  12.626  13.142
84503W        W56086  44.719   8.795  12.866
84504W        W56087  26.611   2.935  11.988
84505W        W56088  15.799  24.653  12.573
84506W        W56089   6.238  23.991  12.942
84507W        W56090  27.847  42.513   1.698
84508W        W56091  23.979  21.864  14.976
84509W        W56092  24.534  12.062  13.351
84510W        W56093  30.437   1.540  13.705
84511W        W56094  40.502  24.485  14.478
84512W        W56095  17.232  42.692   3.019
84513W        W56096  10.132  33.320  12.504
84514W        W56097   1.008   3.011  11.952
84515W        W56098  25.047  38.886   4.035
84516W        W56099  33.671  39.597   3.277
84517W        W56100  42.717  43.897  11.911
84518W        W56101  39.804  24.101   1.304
84519W        W56102  44.392   5.295   0.301
84520W        W56103  21.611  44.599   0.923
84521W        W56104  27.104  23.055  11.028
84522W        W56105  42.192  32.252  14.553
84523W        W56106   4.272   6.319  12.035
84524W        W56107  41.901  35.911  11.078
84525W        W56108  12.134  30.589   1.171
84526W        W56109  21.788  29.847   0.649
84527W        W56110  30.524  38.814   0.351
84528W        W56111  36.600  34.036   0.428
84529W        W56112  29.570  44.400  10.266
84530W        W56113   4.392  21.932   1.336
84531W        W56114   0.905   0.467  13.002
84532W        W56115  29.147  40.588  11.625
84533W        W56116   3.860  23.020  13.393
84534W        W56117  42.842  27.195   0.993
84535W        W56118  27.799  12.356  13.367
84536W        W56119  41.796  18.031  10.593
84537W        W56120  43.535   3.861   1.387
84538W        W56121   2.846   1.909  14.327
84539W        W56122  34.633   3.437   3.294
84540W        W56123  10.860   8.576  12.170
84541W        W56124  39.801  35.469  13.448
84542W        W56125  30.102  34.603   0.244
84543W        W56126   8.221  34.355   4.191
84544W        W56127  37.994  27.682  12.589
84545W        W56128   9.815  34.500   3.564
84546W        W56129  27.348  19.280   1.814
84547W        W56130  11.590  41.250  14.366
84548W        W56131  11.698   2.776   2.485
84549W        W56132  19.662  42.431  13.320
84550W        W56133   2.708   7.711   0.471
84551W        W56134  11.632  16.759   2.368
84552W        W56135  36.614  40.482   4.631
84553W        W56136   7.257  40.919  13.877
84554W        W56137   2.240   8.234  12.505
84555W        W56138   1.320  36.151   3.264
84556W        W56139   5.739  28.186   2.319
84557W        W56140   5.011   6.223   3.219
84558W        W56141   1.828   6.377   2.177
84559W        W56142  23.223  25.894  11.344
84560W        W56143   0.045   4.852   4.557
84561W        W56144  27.491  34.140  12.977
84562W        W56145  12.372  25.916   0.461
84563W        W56146  31.860   5.847  14.121
84564W        W56147  26.626  18.564   3.711
84565W        W56148   4.368   0.462   2.652
84566W        W56149  13.597   6.912  11.105
84567W        W56150  12.829  35.173   0.844
84568W        W56151  44.272   4.886   4.320
84569W        W56152  22.462  26.638   2.780
84570W        W56153  27.132  17.177  14.060
84571W        W56154  31.586  26.584  14.790
84572W        W56155  27.076   4.813  13.746
84573W        W56156  29.167  36.544  13.511
84574W        W56157   3.573  12.778   0.564
84575W        W56158   8.872  42.262   0.905
84576W        W56159  28.665  11.629  11.975
84577W        W56160   3.202  29.481  12.154
84578W        W56161  24.720  23.091  10.521
84579W        W56162  33.133   5.228  12.895
84580W        W56163  34.436  31.105   2.719
84581W        W56164  17.737  28.694  13.399
84582W        W56165   9.347   0.815  12.994
84583W        W56166  37.519  24.293   1.843
84584W        W56167  26.162  23.534  11.537
84585W        W56168   4.256  26.988  12.492
84586W        W56169  42.356  22.217  11.996
84587W        W56170  26.912   7.796  11.528
84588W        W56171  43.550  21.064   4.424
84589W        W56172  17.598  23.922  14.833
84590W        W56173  31.652  19.473   2.899
84591W        W56174  27.083   6.433  10.607
84592W        W56175   6.923  41.387  14.923
84593W        W56176  32.391  26.653   4.110
84594W        W56177  10.036  36.854  14.424
84595W        W56178   8.309  25.319  10.658
84596W        W56179  26.141  41.771   2.488
84597W        W56180  13.594  24.379  14.892
84598W        W56181  20.291  16.634   0.798
84599W        W56182  24.206  13.708   3.400
84600W        W56183  37.053  12.673   1.611
84601W        W56184  17.892   3.526   3.632
84602W        W56185  34.966   8.482   4.121
84603W        W56186  13.090  25.255   2.841
84604W        W56187  35.521  13.060  12.588
84605W        W56188  17.850  39.515   1.135
84606W        W56189  27.186  20.148   2.646
84607W        W56190  28.714  22.295  14.493
84608W        W56191  37.990  40.779  12.586
84609W        W56192   6.870  10.726  13.350
84610W        W56193   1.427  31.461  13.291
84611W        W56194  26.478   7.530  11.523
84612W        W56195  38.071  31.212   2.628
84613W        W56196  21.540  13.058   1.155
84614W        W56197  36.481  37.920  11.611
84615W        W56198  32.954  32.956   1.051
84616W        W56199  36.441  18.115   0.712
84617W        W56200  16.443  14.274  11.613
84618W        W56201  43.971  14.294   1.382
84619W        W56202  36.568  24.039   0.384
84620W        W56203  35.468  18.733   0.892
84621W        W56204  12.325  37.730   1.313
84622W        W56205  17.770   5.313   1.889
84623W        W56206  20.588  30.404  11.979
84624W        W56207  25.142   5.429   3.268
84625W        W56208  41.757  20.710  14.291
84626W        W56209  26.092  39.025   2.804
84627W        W56210  28.731  20.866   3.809
84628W        W56211  27.237   2.789  12.897
84629W        W56212  18.489  31.918   3.382
84630W        W56213  26.737   4.880   0.021
84631W        W56214  29.045  32.657   4.682
84632W        W56215  19.582  15.372  12.051
84633W        W56216  37.559  12.637   1.466
84634W        W56217  17.765  23.271   0.828
84635W        W56218  15.889   0.272   4.868
84636W        W56219  32.918  41.597  12.004
84637W        W56220  37.472  26.857  14.952
84638W        W56221  23.713  35.053  13.014
84639W        W56222  14.649  38.277   0.700
84640W        W56223   6.826  25.333  14.602
84641W        W56224  37.096   3.034  13.753
84642W        W56225   7.952   5.207   3.612
84643W        W56226  25.677   9.316  11.152
84644W        W56227  28.935  44.387   0.794
84645W        W56228  25.636   7.800   0.351
84646W        W56229  13.234  26.974   3.805
84647W        W56230  25.710   8.795   3.348
84648W        W56231  16.147  12.604  12.334
84649W        W56232   6.120  30.800  12.530
84650W        W56233  17.158   0.420   1.269
84651W        W56234  27.016  10.791   2.333
84652W        W56235  37.896  16.337  13.005
84653W        W56236  14.707  40.545  13.118
84654W        W56237  20.828   7.093  13.448
84655W        W56238  22.702  42.986  10.743
84656W        W56239  18.110   3.004  11.615
84657W        W56240   4.711  40.771   1.464
84658W        W56241  25.764  37.198  11.250
84659W        W56242  42.000  19.432   4.968
84660W        W56243  30.695   1.763  12.049
84661W        W56244  24.197  13.648  14.234
84662W        W56245   1.439  23.760  13.935
84663W        W56246   3.857   3.476  13.593
84664W        W56247  21.395  35.616   0.855
84665W        W56248  34.294  31.255  13.011
84666W        W56249  11.452  14.172  14.262
84667W        W56250  10.516  23.700   1.676
84668W        W56251   9.773  22.747  13.414
84669W        W56252   4.794  40.532  14.022
84670W        W56253  18.333  12.632  11.421
84671W        W56254   9.027   3.900  14.168
84672W        W56255  21.547   1.817   0.253
84673W        W56256   5.422  25.406   1.656
84674W        W56257  32.637  28.675   4.266
84675W        W56258   4.993  18.082  13.637
84676W        W56259   0.401  22.255  13.870
84677W        W56260  30.003  31.378   4.194
84678W        W56261  31.497  36.246   0.427
84679W        W56262  36.073  32.187  12.922
84680W        W56263  19.180  37.841   2.458
84681W        W56264   5.670  42.550  14.984
84682W        W56265  28.454  27.999  11.977
84683W        W56266  18.227   0.998   0.232
84684W        W56267  28.633  13.250   3.214
84685W        W56268   6.626   8.224  12.903
84686W        W56269  34.935  13.368  11.539
84687W        W56270  11.020  25.502   4.239
84688W        W56271  13.161   1.780  14.963
84689W        W56272  28.015  21.683   4.197
84690W        W56273   6.719  36.439  13.414
84691W        W56274   1.579  24.845   3.199
84692W        W56275  39.576  13.075   3.696
84693W        W56276  44.486  42.965  12.445
84694W        W56277   8.427  36.059  13.185
84695W        W56278  43.474  30.488  12.831
84696W        W56279  31.689   3.396  14.936
84697W        W56280  35.828   6.088   4.152
84698W        W56281   9.835  41.054   1.746
84699W        W56282  19.796  27.147   4.201
84700W        W56283  26.748  41.887  11.974
84701W        W56284  39.025  22.550   4.244
84702W        W56285  32.286   1.220   3.299
84703W        W56286  14.687   8.306   4.843
84704W        W56287  26.432   4.220  12.591
84705W        W56288  16.423  29.488  11.964
84706W        W56289   1.918  35.575   1.682
84707W        W56290  25.184  27.191   1.378
84708W        W56291  27.913   8.707  11.361
84709W        W56292  31.437   0.453   4.083
84710W        W56293  21.997  30.487   0.507
84711W        W56294  30.543  19.057   4.611
84712W        W56295  12.714   6.579   4.840
84713W        W56296  41.459  29.184   3.349
84714W        W56297  17.589  22.007   1.950
84715W        W56298   6.760  28.905  11.589
84716W        W56299   9.938  36.824   2.751
84717W        W56300   9.795  34.558   0.187
84718W        W56301  32.174   3.645   1.832
84719W        W56302  41.359  44.656   4.175
84720W        W56303   7.895  14.040  13.706
84721W        W56304  10.780  28.463   2.672
84722W        W56305  17.517  37.502   3.333
84723W        W56306  20.516  42.421  14.116
84724W        W56307  17.221   8.655  11.591
84725W        W56308  13.794   9.734   3.591
84726W        W56309  32.538  44.504   1.819
84727W        W56310  33.343  44.781   2.377
84728W        W56311  15.592   2.296   2.333
84729W        W56312   8.046  30.138  12.523
84730W        W56313   6.407   7.164  12.547
84731W        W56314   8.170  18.938   4.100
84732W        W56315  33.934  16.315   2.841
84733W        W56316  35.346  29.239  13.054
84734W        W56317  28.230  31.473  11.594
84735W        W56318  19.422   5.877   0.314
84736W        W56319  37.356  26.033  10.721
84737W        W56320  24.869   2.893  10.471
84738W        W56321  16.363  34.503   9.703
84739W        W56322   9.746  33.618  10.946
84740W        W56323   2.434  36.965   0.806
84741W        W56324   5.300  21.952  14.300
84742W        W56325  37.641   5.311   1.365
84743W        W56326   9.182  36.290   4.156
84744W        W56327  13.727  15.985  14.913
84745W        W56328  42.944  18.255   3.589
84746W        W56329  12.901  28.066  10.601
84747W        W56330  38.284  43.389   3.580
84748W        W56331  29.658  15.177  11.053
84749W        W56332  25.480  11.647   0.865
84750W        W56333  12.381  27.955  12.063
84751W        W56334  10.001  43.599   9.967
84752W        W56335  14.637  18.079   1.872
84753W        W56336   2.201  31.869  11.169
84754W        W56337  27.660   9.395   2.362
84755W        W56338   4.720  10.760   1.000
84756W        W56339  13.382  20.444   0.865
84757W        W56340   6.331  44.237  11.533
84758W        W56341   2.193  17.147   2.832
84759W        W56342   3.203  37.881   2.277
84760W        W56343   1.349  29.224  12.866
84761W        W56344  31.965  32.586  14.015
84762W        W56345   9.211  34.184   1.833
84763W        W56346   0.199  29.972  13.526
84764W        W56347  32.075  10.695  12.407
84765W        W56348  10.127   6.799  14.476
84766W        W56349  44.296  37.057   1.928
84767W        W56350  44.833   2.311  12.436
84768W        W56351  26.906  25.101   3.585
84769W        W56352  13.914  11.314  10.659
84770W        W56353  25.752  11.220   2.281
84771W        W56354  23.595   2.369  14.850
84772W        W56355  26.152  36.720   3.080
84773W        W56356  31.213  22.408  10.997
84774W        W56357  12.730  18.073  13.390
84775W        W56358   5.526  18.669  14.411
84776W        W56359   9.453  11.000  11.231
84777W        W56360  14.499  12.340   0.726
84778W        W56361  31.451  13.625  11.167
84779W        W56362   5.316  21.727   4.369
84780W        W56363   1.770  14.121   1.934
84781W        W56364  39.067  28.070  13.911
84782W        W56365  14.937   0.200  14.359
84783W        W56366  32.547   8.166  10.642
84784W        W56367  36.567  22.105  13.548
84785W        W56368  13.142  28.371  14.371
84786W        W56369  43.972  42.477  14.852
84787W        W56370  15.806  34.780   3.164
84788W        W56371  40.024  23.610  12.616
84789W        W56372  39.582  29.029  12.049
84790W        W56373  24.659  40.849   2.383
84791W        W56374   6.118  32.304   2.238
84792W        W56375  31.030   7.379  13.922
84793W        W56376  24.461  30.140   4.897
84794W        W56377  12.109  11.263  11.020
84795W        W56378  31.042  12.159  12.620
84796W        W56379  16.510  39.887  10.646
84797W        W56380   0.803   4.692   2.784
84798W        W56381  40.277  22.263  14.837
84799W        W56382  38.863  24.137   4.654
84800W        W56383   0.278  21.233  11.456
84801W        W56384  33.025  24.111  14.952
84802W        W56385   7.403  32.333   1.857
84803W        W56386   1.939   7.652   2.761
84804W        W56387  28.711  12.346   3.663
84805W        W56388  18.209  18.115   2.263
84806W        W56389  33.417   0.732   2.341
84807W        W56390  36.085  20.556  14.004
84808W        W56391   8.994  38.460   1.118
84809W        W56392   2.768  43.060   3.049
84810W        W56393  25.894   0.123   3.007
84811W        W56394  39.143  35.937   2.293
84812W        W56395  30.669   6.796   2.273
84813W        W56396  16.218   9.435   0.948
84814W        W56397   8.408   2.979  10.836
84815W        W56398  14.641  34.362  11.912
84816W        W56399  31.696  10.460  14.462
84817W        W56400  21.478   8.786  11.549
84818W        W56401  26.205   9.870   5.154
84819W        W56402  12.306  44.370  13.085
84820W        W56403  17.160  24.052   3.286
84821W        W56404  32.092  19.802   0.071
84822W        W56405  28.709  38.403  12.412
84823W        W56406  42.894  25.516   2.165
84824W        W56407  35.051  42.902   1.808
84825W        W56408  25.000  36.206   2.321
84826W        W56409  38.463  34.983  12.088
84827W        W56410  18.157   7.259  14.772
84828W        W56411   6.018  41.740   1.263
84829W        W56412  10.684  24.286   0.839
84830W        W56413  17.691  13.921   3.289
84831W        W56414   8.978  11.545  12.672
84832W        W56415  18.557  32.764   3.911
84833W        W56416  17.719  22.705   0.433
84834W        W56417  39.416  38.044   2.263
84835W        W56418  32.750  32.802  10.858
84836W        W56419  25.102  14.080   3.949
84837W        W56420   0.153  39.312   3.377
84838W        W56421  35.034  22.512  13.968
84839W        W56422  42.976  13.675   4.166
84840W        W56423  12.689  32.493  14.125
84841W        W56424  43.416  36.397  11.661
84842W        W56425  30.494  19.300  10.038
84843W        W56426  26.421  20.662  12.572
84844W        W56427  15.735  23.975   3.738
84845W        W56428  30.623   8.046  12.464
84846W        W56429  37.392  23.496  10.433
84847W        W56430   0.957   4.378   4.021
84848W        W56431  35.618  27.950   2.599
84849W        W56432   6.825  35.533   1.750
84850W        W56433  25.834   3.195   3.782
84851W        W56434  25.146  25.927  14.888
84852W        W56435  11.822   7.726  13.434
84853W        W56436  35.924  38.078  13.945
84854W        W56437  44.347  22.763  14.029
84855W        W56438   0.717  18.676  14.420
84856W        W56439  28.844   9.791   5.001
84857W        W56440  38.765  31.548   1.336
84858W        W56441   4.008  18.475   0.833
84859W        W56442  24.925   5.729  10.685
84860W        W56443  41.079   1.884   1.199
84861W        W56444  20.489  38.340   2.437
84862W        W56445  19.630   0.041  11.999
84863W        W56446  28.677  33.111  10.504
84864W        W56447  32.354  32.026  13.685
84865W        W56448  44.305  11.917  13.385
84866W        W56449   8.504  20.097  11.298
84867W        W56450  15.497  34.549  14.444
84868W        W56451  20.747  35.095  14.072
84869W        W56452  32.331  34.870  11.064
84870W        W56453  11.180  21.070   0.721
84871W        W56454  10.417  41.823  13.345
84872W        W56455  34.184  29.199   0.982
84873W        W56456  32.548  42.263   2.408
84874W        W56457  20.270  40.614   2.359
84875W        W56458  40.925  15.600  14.291
84876W        W56459  23.519  37.325   0.488
84877W        W56460  17.137  29.110   3.696
84878W        W56461  18.326   0.811  11.392
84879W        W56462  14.126   6.254   2.869
84880W        W56463  41.360   6.138  13.427
84881W        W56464   1.797  43.304  12.860
84882W        W56465  38.910   0.832  14.075
84883W        W56466   4.371   3.724  11.977
84884W        W56467  39.265  41.954   4.572
84885W        W56468  10.302  27.611  11.082
84886W        W56469  38.509  17.611  12.012
84887W        W56470   6.492  31.757   4.666
84888W        W56471  26.004  38.783   4.263
84889W        W56472  33.604   3.230  11.326
84890W        W56473   7.190  18.766  13.928
84891W        W56474  44.907   2.840   4.479
84892W        W56475  11.215  14.232   3.831
84893W        W56476  26.233  10.428   0.360
84894W        W56477  22.716   3.044  10.719
84895W        W56478  14.368   6.708   2.929
84896W        W56479  26.413  43.910   1.518
84897W        W56480  16.607   8.014  13.938
84898W        W56481  36.134  21.507  14.486
84899W        W56482  22.651   9.924   4.273
84900W        W56483   1.767  17.734   1.726
84901W        W56484  18.216  18.357   3.165
84902W        W56485  30.586   7.369  14.176
84903W        W56486  35.096  21.521  12.851
84904W        W56487  38.567  34.527   0.811
84905W        W56488  29.556  26.718  11.023
84906W        W56489  16.348   6.889  12.867
84907W        W56490  15.180  28.142   3.237
84908W        W56491  17.055   0.477  14.753
84909W        W56492  33.495  44.451  10.891
84910W        W56493  31.233  25.603  11.508
84911W        W56494  37.503  10.359  12.847
84912W        W56495  36.835  12.342   0.316
84913W        W56496  28.901  19.463  11.259
84914W        W56497  18.755  16.252  11.082
84915W        W56498   9.488  19.221  13.067
84916W        W56499   1.925  37.669  10.529
84917W        W56500  29.896  44.502  14.048
84918W        W56501  29.391  22.776  12.474
84919W        W56502  16.000   4.466   1.440
84920W        W56503   4.895  19.550   1.781
84921W        W56504  21.967   3.925   4.080
84922W        W56505  19.558  13.533  12.331
84923W        W56506   3.345  12.313   0.473
84924W        W56507  32.413  21.554  12.518
84925W        W56508  15.308  24.090   2.080
84926W        W56509  40.810  35.409   0.293
84927W        W56510  40.692   4.274   0.355
84928W        W56511   7.810  18.549  11.121
84929W        W56512  26.141   6.295   4.422
84930W        W56513  25.096  23.446   3.300
84931W        W56514  17.555  18.916   0.804
84932W        W56515  21.709   6.265   1.295
84933W        W56516  25.504  29.388   4.833
84934W        W56517  18.602  21.245  12.045
84935W        W56518  31.390  34.584   4.544
84936W        W56519  44.446  36.545   4.508
84937W        W56520  21.756  18.323   4.483
84938W        W56521  27.713  11.858  12.449
84939W        W56522   2.535  34.562  13.829
84940W        W56523  11.221  24.429   2.722
84941W        W56524  39.399  20.245   0.758
84942W        W56525  26.709  32.527  11.586
84943W        W56526  14.448   5.534  14.694
84944W        W56527  36.521  19.247  13.731
84945W        W56528  39.033  35.110   3.693
84946W        W56529  44.521   1.345   0.337
84947W        W56530  28.007   4.330   3.338
84948W        W56531   5.256  29.789  14.379
84949W        W56532   8.420  10.615  11.945
84950W        W56533  43.540  21.598  10.759
84951W        W56534   4.734  38.482   3.270
84952W        W56535  35.841   3.948   2.806
84953W        W56536   6.867  40.820  12.092
84954W        W56537   3.645  20.687   0.283
84955W        W56538  17.157  14.419  10.211
84956W        W56539  34.299  31.944   4.457
84957W        W56540   6.834  24.976   0.940
84958W        W56541  44.400  28.705   2.184
84959W        W56542  43.956   3.536  12.040
84960W        W56543  21.372   5.300  13.070
84961W        W56544   0.929   7.139  10.787
84962W        W56545  34.069  41.808  14.474
84963W        W56546  37.484  34.453  14.357
84964W        W56547  42.869  27.133  11.188
84965W        W56548   4.427  28.864   1.036
84966W        W56549  20.523  33.101  11.127
84967W        W56550  29.130  43.823   1.965
84968W        W56551  25.014  17.839   4.341
84969W        W56552  40.808  11.803   3.156
84970W        W56553  36.881  34.804  14.559
84971W        W56554  22.580  10.153  10.213
84972W        W56555  31.434  23.270   2.342
84973W        W56556  38.428  25.155  12.968
84974W        W56557  20.587  25.121  14.307
84975W        W56558   2.527  18.217   0.827
84976W        W56559   6.436  42.603  14.019
84977W        W56560  37.339  12.558   4.287
84978W        W56561   6.925   8.822  12.433
84979W        W56562   7.088   6.712   1.733
84980W        W56563  14.826  37.525  13.876
84981W        W56564  15.835  32.843  13.446
84982W        W56565  19.833   3.514  14.633
84983W        W56566  20.058  28.971  13.468
84984W        W56567  10.692  17.740   4.163
84985W        W56568  14.323  30.529  11.617
84986W        W56569  27.494  16.557   2.772
84987W        W56570  38.295   1.296   4.600
84988W        W56571  29.668   1.501   4.063
84989W        W56572  27.849  36.047   3.673
84990W        W56573  44.111  39.209  13.852
84991W        W56574  16.640  40.688  14.349
84992W        W56575  14.231   7.421  13.601
84993W        W56576   7.470  40.968  11.674
84994W        W56577  34.045  43.300  10.654
84995W        W56578  24.445  36.345   2.793
84996W        W56579  21.549  23.164  14.363
84997W        W56580  19.097  18.610  14.772
84998W        W56581  21.040  13.324   2.938
84999W        W56582  38.137   4.369  12.910
85000W        W56583  30.950  12.647   1.324
85001W        W56584   8.670  26.580   0.431
85002W        W56585  42.864  40.914   0.790
85003W        W56586  24.523  23.722   1.883
85004W        W56587  33.535  40.733  13.114
85005W        W56588  38.903  41.924  13.867
85006W        W56589  33.856  26.355  11.879
85007W        W56590  38.948  29.617   0.432
85008W        W56591  20.116  22.045  10.622
85009W        W56592  23.279  17.580   3.744
85010W        W56593  13.559  32.862   4.145
85011W        W56594  31.520  18.653   0.925
85012W        W56595  16.603   1.748   1.435
85013W        W56596  27.429  12.629   4.265
85014W        W56597   2.872  15.856  13.248
85015W        W56598  23.538  33.349   4.656
85016W        W56599  44.061  33.992  14.222
85017W        W56600   0.772  28.606  11.035
85018W        W56601  20.703   1.298   1.833
85019W        W56602  23.636  32.007  10.677
85020W        W56603  16.832  21.620   2.766
85021W        W56604  32.755  26.876   4.626
85022W        W56605  32.414  13.806   3.421
85023W        W56606  40.128   1.894  11.555
85024W        W56607  26.752   0.926  13.541
85025W        W56608  41.695  11.795   2.900
85026W        W56609   2.946  14.849  10.593
85027W        W56610   4.237  24.813   2.234
85028W        W56611  12.722   0.731  11.472
85029W        W56612  24.055  41.993   0.971
85030W        W56613  19.548  37.970  14.695
85031W        W56614  17.374   6.703  10.604
85032W        W56615  37.543  31.448  12.607
85033W        W56616  37.359  18.130   2.841
85034W        W56617  12.078  28.497  14.960
85035W        W56618  32.620  39.528  12.105
85036W        W56619   4.341  13.530  11.120
85037W        W56620  27.613   9.631   5.621
85038W        W56621  23.048   2.477  11.022
85039W        W56622   4.141  41.011   2.871
85040W        W56623  20.768  15.422  14.976
85041W        W56624  10.987   1.270  11.559
85042W        W56625   9.713  20.158   1.745
85043W        W56626   1.768  40.048   1.906
85044W        W56627  34.639   8.226   2.305
85045W        W56628  36.361  32.915  14.825
85046W        W56629   3.299  23.199  10.976
85047W        W56630  19.344   9.398   3.706
85048W        W56631  34.595   8.464  14.853
85049W        W56632  34.476  35.412   1.845
85050W        W56633  40.376  40.561   4.183
85051W        W56634  23.550  18.228   2.331
85052W        W56635  13.685  40.269  14.928
85053W        W56636  15.814  31.339   3.114
85054W        W56637  43.511  10.710  10.753
85055W        W56638   0.019   1.980   1.177
85056W        W56639  12.358  44.488  14.857
85057W        W56640  38.483  17.355   4.687
85058W        W56641  25.526  17.600   4.768
85059W        W56642  27.055   2.514  12.506
85060W        W56643  30.866  37.522   0.878
85061W        W56644  11.707   0.921   1.170
85062W        W56645   9.688  25.675   4.313
85063W        W56646  19.269  28.654   2.573
85064W        W56647   6.637  24.492  14.413
85065W        W56648  29.643  30.773   0.263
85066W        W56649  15.583  10.725  13.954
85067W        W56650  20.105  12.781  14.317
85068W        W56651  19.534   7.722  12.519
85069W        W56652  16.520  34.599   5.321
85070W        W56653  23.223  24.513   3.557
85071W        W56654  31.436  40.119  10.319
85072W        W56655  28.988  25.909   2.723
85073W        W56656  27.663  13.588  14.808
85074W        W56657  26.461  10.681   0.741
85075W        W56658  10.130  33.469   2.161
85076W        W56659  34.149  30.878  13.750
85077W        W56660  29.756  15.653   4.137
85078W        W56661  17.222  38.508   0.989
85079W        W56662  38.027  31.804   1.641
85080W        W56663  44.412  26.290   0.852
85081W        W56664  24.057  20.103  10.712
85082W        W56665  21.199  26.113   2.435
85083W        W56666  44.384   3.638  12.429
85084W        W56667   2.777   8.617   3.770
85085W        W56668   1.438   3.714  11.677
85086W        W56669  18.832  25.787  14.536
85087W        W56670  18.100  16.355  13.492
85088W        W56671  27.428  20.556   3.184
85089W        W56672  22.615  40.731  14.391
85090W        W56673  22.611  42.837   0.916
85091W        W56674  13.116  39.610  14.815
85092W        W56675  38.656  27.192   2.848
85093W        W56676  10.137  20.794   0.449
85094W        W56677  28.647   4.850   3.866
85095W        W56678  36.374  13.365   0.517
85096W        W56679  10.721  25.541   0.304
85097W        W56680  22.782  36.594   3.240
85098W        W56681  38.941  37.248   2.309
85099W        W56682  11.818  19.025   0.679
85100W        W56683  43.853  20.270   1.521
85101W        W56684   1.951  41.745   1.722
85102W        W56685  35.664  41.880  14.525
85103W        W56686  20.474  20.755  14.355
85104W        W56687  44.317   6.911  11.951
85105W        W56688  37.359   3.171   4.141
85106W        W56689  22.844  36.565   1.646
85107W        W56690   3.888  39.452   0.514
85108W        W56691  44.561   7.510   1.864
85109W        W56692  35.280  29.057   1.760
85110W        W56693  20.165  16.557   4.976
85111W        W56694  30.997  14.127  13.594
85112W        W56695   4.250  40.507   2.818
85113W        W56696  40.584   9.398   4.240
85114W        W56697  28.783  23.539   0.835
85115W        W56698  18.685  27.587   1.231
85116W        W56699  27.041  42.036   4.229
85117W        W56700   5.966  42.735  14.243
85118W        W56701  25.096  40.310  11.549
85119W        W56702  17.600  27.664   4.244
85120W        W56703  14.606   4.781  14.263
85121W        W56704  36.583   9.953   0.266
85122W        W56705  36.580  36.675   3.471
85123W        W56706  37.595   3.762  11.332
85124W        W56707   7.394  24.952   1.737
85125W        W56708  18.331  12.181  14.856
85126W        W56709  19.895  40.181   2.639
85127W        W56710  36.370  41.243  11.584
85128W        W56711   5.775  30.959   0.692
85129W        W56712   0.337  22.088  12.502
85130W        W56713  20.769  27.689  14.800
85131W        W56714  23.048  33.328  11.611
85132W        W56715  44.387  40.898  10.391
85133W        W56716  11.378   2.414  13.924
85134W        W56717  31.482  28.995  13.808
85135W        W56718  12.428  44.752   1.337
85136W        W56719   3.233  36.397  13.596
85137W        W56720  11.202  32.092  11.570
85138W        W56721  41.888  20.747  13.785
85139W        W56722   6.569  43.698  11.103
85140W        W56723  32.343  31.993   3.738
85141W        W56724  28.155   0.825   0.258
85142W        W56725   8.639  21.899  11.980
85143W        W56726   0.185  33.416   0.338
85144W        W56727  26.739  20.080   1.768
85145W        W56728  21.253   3.052  12.664
85146W        W56729  43.885  13.114  12.039
85147W        W56730  36.049  29.500   3.202
85148W        W56731   7.666  24.289   2.192
85149W        W56732  12.774  27.575  10.710
85150W        W56733   5.490  29.395  11.954
85151W        W56734  21.529  28.026   1.253
85152W        W56735   3.466  39.526   1.153
85153W        W56736   3.569   5.387  11.865
85154W        W56737  42.331   8.906  14.980
85155W        W56738   3.159  22.705  13.616
85156W        W56739  31.541  26.619  14.246
85157W        W56740   4.190  33.366   0.910
85158W        W56741  33.034  29.522   4.993
85159W        W56742  14.222  16.754  11.179
85160W        W56743  14.945  36.619  12.883
85161W        W56744  21.782  27.755   2.084
85162W        W56745  39.072  23.702   1.663
85163W        W56746  24.063  12.060  11.524
85164W        W56747  30.188   2.250  14.421
85165W        W56748  17.033  21.202  14.985
85166W        W56749  20.426  10.443   2.050
85167W        W56750  25.491  27.924  13.376
85168W        W56751  38.088  26.601  10.444
85169W        W56752  13.184  11.829  14.003
85170W        W56753  32.873  37.521  13.140
85171W        W56754  15.123  39.491  13.307
85172W        W56755   9.218   2.405   0.518
85173W        W56756   1.400  37.386  12.780
85174W        W56757  22.695  35.988   1.769
85175W        W56758   2.291  10.991   3.605
85176W        W56759  13.783  42.482  10.795
85177W        W56760  35.183  44.463  10.717
85178W        W56761  40.261  16.871   4.942
85179W        W56762  13.398   9.668  11.199
85180W        W56763  22.415  20.964   0.333
85181W        W56764  34.649   8.629   0.943
85182W        W56765  33.629  32.641  11.254
85183W        W56766  11.912  36.566   1.389
85184W        W56767  28.351  20.686  12.143
85185W        W56768   7.393  33.909  12.969
85186W        W56769  20.716  43.573   1.169
85187W        W56770  12.552  35.894   2.056
85188W        W56771  12.595  24.490   3.238
85189W        W56772   5.916  34.329  11.007
85190W        W56773  13.669   5.311  14.938
85191W        W56774   4.943  36.700  10.206
85192W        W56775  38.983  37.803  12.545
85193W        W56776  38.543   5.873   9.644
85194W        W56777  43.701  40.861  12.578
85195W        W56778   2.179   6.326  13.841
85196W        W56779  35.080  31.880   2.821
85197W        W56780  21.572  18.627   0.531
85198W        W56781  15.691  25.071   2.911
85199W        W56782   9.420  43.843   0.645
85200W        W56783   4.604   4.183   0.189
85201W        W56784   3.703  37.492  11.966
85202W        W56785  25.558  44.274  12.011
85203W        W56786  30.089  44.772   1.758
85204W        W56787  15.215   6.450   0.420
85205W        W56788  19.178   9.877   3.153
85206W        W56789  30.553  30.819  14.378
85207W        W56790  28.633  36.570   3.687
85208W        W56791  25.422  31.385   4.001
85209W        W56792  38.621  27.106   3.773
85210W        W56793  39.912  25.505  14.898
85211W        W56794  37.809  29.694   4.251
85212W        W56795  23.321  33.011  12.552
85213W        W56796  36.493  11.137  12.815
85214W        W56797  24.947   9.818  11.146
85215W        W56798  16.315  28.558  11.711
85216W        W56799   5.528  44.205  14.389
85217W        W56800   2.488  19.174   1.925
85218W        W56801  39.082   8.368   2.408
85219W        W56802   2.494  11.928   0.347
85220W        W56803  41.050   5.875  11.255
85221W        W56804  17.349  30.366   4.535
85222W        W56805  28.662   2.816  10.525
85223W        W56806  24.471   4.927   4.559
85224W        W56807  21.887  26.471  13.496
85225W        W56808  17.103  32.459  11.498
85226W        W56809  10.408  16.302  11.579
85227W        W56810  28.163  25.188  11.098
85228W        W56811   7.033  22.180   0.795
85229W        W56812  13.507  43.162   1.793
85230W        W56813  16.729  25.139  12.419
85231W        W56814  36.862  16.341   0.807
85232W        W56815  15.658  30.878   0.997
85233W        W56816  31.847  35.555  14.829
85234W        W56817  22.944  13.099   4.522
85235W        W56818  39.346  36.984  12.459
85236W        W56819  28.484  20.302   0.411
85237W        W56820   4.301  23.011   1.360
85238W        W56821  17.753  43.777   0.324
85239W        W56822  14.188  25.438   1.695
85240W        W56823  15.724  19.634   9.975
85241W        W56824  18.622  19.772  13.369
85242W        W56825  13.422   7.178   3.680
85243W        W56826  30.479  24.728   4.311
85244W        W56827   2.201  18.545   0.482
85245W        W56828  29.069  13.706  10.956
85246W        W56829  17.445  15.137  14.467
85247W        W56830  22.361   1.674   1.736
85248W        W56831  26.567   0.427   4.565
85249W        W56832  21.536  41.618  12.446
85250W        W56833   3.299  26.061   2.669
85251W        W56834   3.342  23.550   2.973
85252W        W56835  11.898  22.682   0.398
85253W        W56836  14.895  18.748  11.980
85254W        W56837  34.673   2.256   4.103
85255W        W56838  11.556  28.617   3.623
85256W        W56839   4.891  24.633  10.738
85257W        W56840   8.129  28.012   0.270
85258W        W56841  36.077  23.578  12.965
85259W        W56842   6.834   6.231   0.357
85260W        W56843  32.482  31.457  13.172
85261W        W56844  37.793  31.509  12.160
85262W        W56845  35.050   7.294  14.263
85263W        W56846  43.491  14.291  13.040
85264W        W56847  36.433  39.842   1.807
85265W        W56848  27.198  41.437  14.774
85266W        W56849  20.025  22.542  12.855
85267W        W56850  28.932   9.330   2.815
85268W        W56851   0.508  42.942   2.637
85269W        W56852  10.900   2.230  14.009
85270W        W56853   7.016   4.147  13.437
85271W        W56854   6.842  20.278  11.700
85272W        W56855   5.301  24.082  12.093
85273W        W56856  43.870  36.009   0.909
85274W        W56857  20.966  22.955   1.259
85275W        W56858  43.062  18.816  14.378
85276W        W56859   5.161  27.058  14.230
85277W        W56860  26.140  17.311   2.121
85278W        W56861  35.977  18.634   0.303
85279W        W56862  44.405  18.196   0.053
85280W        W56863   6.804  34.418  13.043
85281W        W56864  22.568   1.226  11.050
85282W        W56865  27.164  13.601  12.428
85283W        W56866  17.359  24.175   1.405
85284W        W56867   5.841  33.050   1.963
85285W        W56868  34.452   2.474   3.674
85286W        W56869  10.580  30.142   1.389
85287W        W56870  31.447  14.146   1.356
85288W        W56871  19.338  33.426   2.590
85289W        W56872  26.117  27.068   1.177
85290W        W56873  22.119   9.584   9.707
85291W        W56874  36.325  38.971   4.578
85292W        W56875  26.206  17.282   2.664
85293W        W56876  30.421   4.929  11.381
85294W        W56877  44.361   9.835  11.571
85295W        W56878  20.605  39.902   3.911
85296W        W56879  36.184  15.263  11.088
85297W        W56880  34.176  26.419  14.925
85298W        W56881  18.041  23.307  11.620
85299W        W56882  16.021  11.809   1.823
85300W        W56883   6.204  34.666  11.332
85301W        W56884  43.558   1.241   1.851
85302W        W56885  30.710  24.066  12.623
85303W        W56886  10.106  31.469   2.333
85304W        W56887  13.671  37.923   2.202
85305W        W56888  42.312  37.398  12.055
85306W        W56889  36.597  18.771  12.468
85307W        W56890  26.785  43.992  10.231
85308W        W56891   3.802  24.478   3.098
85309W        W56892  39.090  27.577  10.478
85310W        W56893  11.708  40.769   1.641
85311W        W56894  29.572  14.710   1.440
85312W        W56895  18.224   8.201   3.638
85313W        W56896  11.415  35.430   2.341
85314W        W56897   1.751  41.767   3.896
85315W        W56898  21.680  30.302   0.858
85316W        W56899   8.826  10.446   4.303
85317W        W56900  11.886  11.294  14.772
85318W        W56901  20.247  14.844  11.550
85319W        W56902   3.354   0.925   1.276
85320W        W56903  28.872  40.217  12.997
85321W        W56904  36.358   4.800   2.755
85322W        W56905  26.952  15.243   4.458
85323W        W56906  18.917  26.514  12.459
85324W        W56907  33.938  35.010   1.731
85325W        W56908  15.784  41.296   2.892
85326W        W56909   3.680  11.317   3.124
85327W        W56910  15.787  41.342   1.494
85328W        W56911  12.228  16.645  13.155
85329W        W56912  19.932  36.465   3.186
85330W        W56913  36.854  32.057  12.459
85331W        W56914  44.539  20.771   1.834
85332W        W56915  17.794   3.556  11.114
85333W        W56916  41.077  34.839  11.582
85334W        W56917  33.447  39.962  14.339
85335W        W56918  27.071  16.623  11.220
85336W        W56919  19.037  42.603  14.477
85337W        W56920  18.232  11.671  12.563
85338W        W56921   5.214  13.122  11.243
85339W        W56922  41.826   7.939  12.481
85340W        W56923  27.887  41.140   2.903
85341W        W56924  40.423   3.208   0.974
85342W        W56925  35.620   5.437   2.741
85343W        W56926  21.739   6.424   2.169
85344W        W56927  20.452  18.246   3.564
85345W        W56928   7.669   7.262  10.398
85346W        W56929   1.423  40.262  10.715
85347W        W56930  11.288  38.387   4.682
85348W        W56931  38.031   5.167  13.348
85349W        W56932   8.395  37.591  12.827
85350W        W56933  14.280   1.034   3.248
85351W        W56934  19.407  22.212   0.294
85352W        W56935  28.492  31.366  14.876
85353W        W56936  11.323  40.654  12.001
85354W        W56937   2.183  26.522  10.547
85355W        W56938   7.643  30.714  10.873
85356W        W56939   2.776  17.592   3.670
85357W        W56940  16.359  33.612  14.900
85358W        W56941   1.819  29.517  12.679
85359W        W56942  27.984  44.538  14.072
85360W        W56943  26.375  43.394  12.441
85361W        W56944  24.151  27.775   2.154
85362W        W56945  33.914  41.934   2.265
85363W        W56946  12.975  43.746  11.775
85364W        W56947   4.150  14.932  13.545
85365W        W56948  13.032  19.152  13.310
85366W        W56949  31.290  24.331  10.078
85367W        W56950   7.434  42.321  14.859
85368W        W56951  40.935   6.287   1.223
85369W        W56952   2.501  21.198  12.018
85370W        W56953   7.548  15.623   5.310
85371W        W56954  44.183  28.153   4.739
85372W        W56955  14.795  23.046   2.775
85373W        W56956  33.197  21.369   2.356
85374W        W56957   2.741  29.664  12.228
85375W        W56958  23.582  43.053   0.340
85376W        W56959  27.257  32.337   4.573
85377W        W56960  40.991  39.728  12.107
85378W        W56961  15.108  42.884   2.832
85379W        W56962  39.771  33.114   1.804
85380W        W56963  38.482  21.784   2.194
85381W        W56964   2.317   8.860   3.627
85382W        W56965   7.744  10.927   1.705
85383W        W56966  37.298  43.132  12.376
85384W        W56967  42.540  10.803  10.427
85385W        W56968  27.524  36.756  14.003
85386W        W56969  19.667  42.598  11.091
85387W        W56970  17.581  24.290   3.471
85388W        W56971  27.736  29.021   4.289
85389W        W56972   9.929  12.135  12.916
85390W        W56973  19.599  12.987  10.703
85391W        W56974  18.630   2.416   2.132
85392W        W56975   2.703  30.983  11.172
85393W        W56976  28.490  34.516  13.843
85394W        W56977  29.275  21.917   5.284
85395W        W56978  20.527   8.214  12.573
85396W        W56979  17.090   9.024  14.525
85397W        W56980  31.928  32.887  14.450
85398W        W56981   8.445  44.220   4.955
85399W        W56982  21.248  35.749  14.545
85400W        W56983  25.269  38.654  14.316
85401W        W56984  26.290  32.688   0.878
85402W        W56985  15.323  19.964  12.474
85403W        W56986  10.659   0.647  10.328
85404W        W56987   7.824  29.149  13.795
85405W        W56988  16.712   8.504   2.575
85406W        W56989  23.462  21.181  13.910
85407W        W56990  24.060  33.216   5.291
85408W        W56991  26.233   9.786  14.792
85409W        W56992   1.098  12.226  11.984
85410W        W56993   1.148  44.886  14.046
85411W        W56994  40.920  21.163   0.610
85412W        W56995   0.091  36.880   0.519
85413W        W56996  43.743  44.749  13.733
85414W        W56997  33.584  23.298  14.907
85415W        W56998  17.294  42.582   0.272
85416W        W56999  13.613  26.654   4.590
85417W        W57000  14.879  15.327  13.993
85418W        W57001  37.560   6.873  10.620
85419W        W57002  22.734  19.686   4.113
85420W        W57003  21.530  39.388   2.326
85421W        W57004   3.308   5.683   1.323
85422W        W57005   8.127  30.546   4.153
85423W        W57006   1.027  14.014   5.005
85424W        W57007  28.956  13.227  14.458
85425W        W57008  29.144   4.382  14.838
85426W        W57009  16.761   3.175  12.980
85427W        W57010  11.826  20.540   2.656
85428W        W57011  18.328  31.369   2.241
85429W        W57012  36.314  30.579   0.289
85430W        W57013  37.336  37.808   1.819
85431W        W57014   4.204  39.046   0.529
85432W        W57015  18.771  36.950  14.412
85433W        W57016  31.833   6.762   2.281
85434W        W57017   0.031  24.405  14.342
85435W        W57018   2.902  17.857   2.441
85436W        W57019  15.237  42.627  14.854
85437W        W57020  27.194  38.110   4.087
85438W        W57021   4.975  43.459   2.745
85439W        W57022  28.402  24.271  14.430
85440W        W57023  33.591  21.971   2.538
85441W        W57024  19.507  34.532  12.836
85442W        W57025   8.699  16.104   3.264
85443W        W57026   1.869  16.557  13.463
85444W        W57027   1.397  33.048   3.078
85445W        W57028   0.751  36.730  12.382
85446W        W57029   8.873  31.118  11.102
85447W        W57030   3.567  34.536  14.027
85448W        W57031   3.961  35.253  13.761
85449W        W57032  31.148  31.604  13.115
85450W        W57033  14.541  29.070  12.722
85451W        W57034  10.373  13.173  13.488
85452W        W57035  21.875  37.394  10.893
85453W        W57036  40.656  11.802   5.029
85454W        W57037  42.253  34.965  12.949
85455W        W57038  16.137  10.620  13.982
85456W        W57039  17.494  23.627   4.652
85457W        W57040  29.385  10.477  13.079
85458W        W57041  18.764  30.962   0.349
85459W        W57042  17.606   5.465  12.453
85460W        W57043  42.839   6.234  11.013
85461W        W57044  39.896  18.980  14.833
85462W        W57045  15.357  34.170  11.688
85463W        W57046  36.937  22.178   1.557
85464W        W57047   7.658  23.620   3.461
85465W        W57048  21.117  31.276   1.294
85466W        W57049  34.984  21.903  11.966
85467W        W57050  24.957  27.443  11.554
85468W        W57051  18.185  32.870  14.924
85469W        W57052  44.207   5.181  12.955
85470W        W57053  30.557  18.061  11.029
85471W        W57054  27.172  33.568  12.074
85472W        W57055  23.215  41.351   1.528
85473W        W57056  29.487  21.519  13.351
85474W        W57057   4.420  11.564  11.627
85475W        W57058  16.717  32.061   0.283
85476W        W57059  20.748  13.174  12.508
85477W        W57060  44.485  34.958  10.740
85478W        W57061  30.449  27.027   1.010
85479W        W57062  40.034  26.790   2.244
85480W        W57063  23.077   9.752   0.808
85481W        W57064  23.632  18.538   3.155
85482W        W57065  15.276  35.702   0.662
85483W        W57066  25.356  16.933  11.187
85484W        W57067  44.497  36.791   3.224
85485W        W57068  37.324  37.020  13.453
85486W        W57069   6.437  20.447   1.341
85487W        W57070  30.036  19.427  14.330
85488W        W57071  13.562  38.058  14.378
85489W        W57072  33.791  35.387  10.251
85490W        W57073  39.024   9.280  10.309
85491W        W57074   7.639  31.796  10.305
85492W        W57075  39.304   7.989  11.645
85493W        W57076  33.800  40.381   2.166
85494W        W57077  38.670  39.088  10.715
85495W        W57078  39.144   2.396  10.887
85496W        W57079   6.939  35.329  12.997
85497W        W57080  17.077  35.800  13.787
85498W        W57081   9.347   0.410  13.498
85499W        W57082   8.318   9.150  10.560
85500W        W57083  36.127   5.333  12.870
85501W        W57084  22.289  39.845  12.421
85502W        W57085  25.172  17.202   0.857
85503W        W57086  42.271  42.874  13.175
85504W        W57087  39.771  41.366  10.801
85505W        W57088  31.896   6.078   3.647
85506W        W57089  42.899  33.045  12.051
85507W        W57090  38.074  28.666  13.721
85508W        W57091  35.352  19.167  13.226
85509W        W57092  35.155  22.982  14.898
85510W        W57093  18.183  31.420  13.727
85511W        W57094  33.209  39.245  11.698
85512W        W57095  29.031  19.155  14.226
85513W        W57096  17.505  18.411  14.972
85514W        W57097  26.597   8.808   0.026
85515W        W57098   9.216   5.616   3.089
85516W        W57099   2.203   3.858  11.992
85517W        W57100  21.088  44.418  10.880
85518W        W57101  17.909  13.359  11.020
85519W        W57102  15.062   4.828  14.517
85520W        W57103  22.052  30.478  12.213
85521W        W57104   0.907  38.103   2.348
85522W        W57105  17.970  33.581  14.252
85523W        W57106   5.383  39.156   4.937
85524W        W57107  11.138  18.671   4.230
85525W        W57108   3.682  33.430   3.200
85526W        W57109   1.283  20.642  12.688
85527W        W57110  25.723  29.611   3.152
85528W        W57111  33.912  27.168   0.713
85529W        W57112  30.444  30.517  12.508
85530W        W57113  29.028  31.426   3.355
85531W        W57114   7.470  21.696  14.829
85532W        W57115  16.042  24.027   5.014
85533W        W57116   9.976  38.967  11.579
85534W        W57117   4.367  17.478  12.416
85535W        W57118  33.001   7.749  11.573
85536W        W57119  23.659  33.394   3.615
85537W        W57120  43.418   2.295   3.672
85538W        W57121  30.666  42.300  12.500
85539W        W57122  27.044  25.342  11.782
85540W        W57123  32.407  25.517   1.443
85541W        W57124  17.288  31.398   3.593
85542W        W57125  17.925  37.583  12.700
85543W        W57126  35.056  31.583   3.957
85544W        W57127  12.853  37.879  12.389
85545W        W57128   2.267  38.528   4.204
85546W        W57129  23.240  21.221  14.438
85547W        W57130  27.093   1.989  13.412
85548W        W57131  39.293  22.518  11.538
85549W        W57132  33.978  19.687   4.050
85550W        W57133  29.144  25.540   0.307
85551W        W57134  18.654   6.303  11.625
85552W        W57135  28.915  21.666  10.773
85553W        W57136  13.702  29.897  10.659
85554W        W57137   6.292  20.755  13.599
85555W        W57138   6.307  15.586   2.712
85556W        W57139  30.504  27.038  12.865
85557W        W57140  41.907   7.975  14.939
85558W        W57141  39.564  36.886  11.186
85559W        W57142  21.098  28.040   3.477
85560W        W57143  16.196   1.188  13.915
85561W        W57144  12.550  42.118  14.911
85562W        W57145   6.543  22.371   0.906
85563W        W57146  15.235  36.589  12.382
85564W        W57147   8.336  35.189   2.457
85565W        W57148  19.673  11.690  14.739
85566W        W57149  19.468  37.189   1.526
85567W        W57150   3.539   2.115   3.219
85568W        W57151  37.075  22.910  11.970
85569W        W57152  21.453  36.116  14.939
85570W        W57153  24.505  19.261   2.100
85571W        W57154  16.785  39.960  14.947
85572W        W57155   4.293  15.134   0.910
85573W        W57156  32.597  35.087   0.198
85574W        W57157  30.171   4.958  13.043
85575W        W57158  33.192  35.955   0.861
85576W        W57159   1.737   9.308  11.575
85577W        W57160  10.453  43.340   1.702
85578W        W57161  11.650  21.995  13.514
85579W        W57162   8.783  11.496  12.202
85580W        W57163  10.780  12.863  13.448
85581W        W57164  22.737   8.922   4.331
85582W        W57165  35.675  37.969  13.500
85583W        W57166   7.241   4.212   4.663
85584W        W57167  44.021  14.128  13.946
85585W        W57168  28.571  38.955  12.079
85586W        W57169  20.209   2.690  11.625
85587W        W57170  35.388   7.439   1.224
85588W        W57171  35.578   4.221  14.368
85589W        W57172  12.888  29.681  11.203
85590W        W57173  11.620   1.384   0.969
85591W        W57174  39.760  21.654  13.539
85592W        W57175  32.399   4.381   1.136
85593W        W57176  14.021  40.462  11.513
85594W        W57177  37.323  41.301  13.013
85595W        W57178  39.079  44.049   1.299
85596W        W57179   6.794  41.805  13.024
85597W        W57180  38.354  29.139   4.499
85598W        W57181  14.126  23.773   2.906
85599W        W57182   1.395   4.917  11.220
85600W        W57183  21.592  41.051   4.653
85601W        W57184  34.950  26.533  12.430
85602W        W57185  13.295   2.051   0.700
85603W        W57186  15.244   6.853  13.696
85604W        W57187  16.719   4.241   2.684
85605W        W57188  30.519  26.426  12.391
85606W        W57189  39.791   4.760   3.318
85607W        W57190  10.692   0.770  12.522
85608W        W57191  33.999  36.151  13.548
85609W        W57192  36.637  17.343  10.011
85610W        W57193  22.753   9.915   0.314
85611W        W57194  26.953  38.455  10.336
85612W        W57195  33.700  24.680   0.518
85613W        W57196  18.067   1.648   4.321
85614W        W57197  23.474  13.610   4.077
85615W        W57198  39.931  32.539  14.071
85616W        W57199   9.828  41.420   1.186
85617W        W57200   4.937  24.048  13.777
85618W        W57201  14.717  30.486   4.874
85619W        W57202  43.060  28.703   0.091
85620W        W57203  24.732  42.461  13.469
85621W        W57204  41.400  37.344   3.159
85622W        W57205   3.471  16.172  14.041
85623W        W57206  44.059  10.270  14.587
85624W        W57207  44.961  27.444  14.939
85625W        W57208  38.811  13.150  11.647
85626W        W57209  30.891  35.745   0.908
85627W        W57210   9.528  25.663  14.434
85628W        W57211  17.111  35.138  10.538
85629W        W57212  18.136  35.755   4.742
85630W        W57213  17.013  31.607   2.711
85631W        W57214  25.892  28.121   2.831
85632W        W57215  39.771  35.294   2.793
85633W        W57216  19.753  18.383  14.254
85634W        W57217  20.543  10.479  13.022
85635W        W57218  38.099   9.690  10.468
85636W        W57219  43.327  21.425   0.718
85637W        W57220  22.439   3.864  10.452
85638W        W57221  42.435   7.948   4.354
85639W        W57222   6.415  18.485   4.423
85640W        W57223  38.800  38.549   0.609
85641W        W57224  14.607  25.672  13.374
85642W        W57225   4.683  17.225  11.479
85643W        W57226  32.083  29.894  12.127
85644W        W57227  28.167   6.396  14.273
85645W        W57228   9.392  19.498  10.621
85646W        W57229   4.631  15.026  14.295
85647W        W57230  17.043   0.988   2.560
85648W        W57231  20.679  26.239  11.480
85649W        W57232  14.663  29.975   0.982
85650W        W57233   7.622  36.966  12.044
85651W        W57234  41.486  42.030   4.121
85652W        W57235  15.780  39.901  12.156
85653W        W57236   3.477  24.196  13.141
85654W        W57237  23.736  33.815   3.929
85655W        W57238  17.071  24.275  10.676
85656W        W57239  40.883  41.557  13.884
85657W        W57240  42.954  10.844  13.376
85658W        W57241  30.926  35.551  12.376
85659W        W57242  24.751   1.618  10.770
85660W        W57243  10.608  22.186   0.889
85661W        W57244   6.275   1.695   2.407
85662W        W57245  35.794  39.914   3.707
85663W        W57246  34.827   2.261  14.848
85664W        W57247  24.241  44.548  12.515
85665W        W57248   7.949  19.705   0.808
85666W        W57249  39.539   3.687  12.069
85667W        W57250   6.046   9.592   0.162
85668W        W57251   0.176  14.304   4.068
85669W        W57252  26.687  39.923  13.978
85670W        W57253   5.440  29.137   3.161
85671W        W57254   0.453  32.012   3.297
85672W        W57255  16.006  18.527  11.750
85673W        W57256  30.577  38.613  13.402
85674W        W57257  35.617  36.865   2.430
85675W        W57258  21.131  39.577  10.282
85676W        W57259  28.715  43.759   3.246
85677W        W57260  35.731  22.489  11.720
85678W        W57261  20.622  31.576  12.856
85679W        W57262  34.015  10.813  12.013
85680W        W57263  38.047  31.594  14.894
85681W        W57264  18.937   5.156   0.041
85682W        W57265  29.904   1.854   4.773
85683W        W57266   4.313  13.230   0.759
85684W        W57267  10.387  22.632   2.684
85685W        W57268  40.276  24.293  13.816
85686W        W57269  43.008  30.955   4.675
85687W        W57270  32.013  21.100   4.086
85688W        W57271   9.204  29.167   2.440
85689W        W57272  23.101  36.169   0.027
85690W        W57273  40.139   7.637   1.887
85691W        W57274  31.682  29.129  14.939
85692W        W57275  43.312  37.957   3.817
85693W        W57276  12.086  11.796   4.415
85694W        W57277  21.635  23.679   2.226
85695W        W57278   7.481   5.393   0.440
85696W        W57279  35.180   3.383  12.157
85697W        W57280  42.943  41.967   1.713
85698W        W57281  24.210   2.862  12.446
85699W        W57282  39.300   2.079   1.824
85700W        W57283  19.762  44.080   1.830
85701W        W57284  34.262  37.340  12.947
85702W        W57285  21.998  32.156   2.200
85703W        W57286   5.687  40.103  11.446
85704W        W57287  23.495  35.426  11.484
85705W        W57288  28.564  28.345  12.839
85706W        W57289   0.992  43.918  12.517
85707W        W57290  28.104  34.957  11.052
85708W        W57291  40.442  18.833  14.753
85709W        W57292  30.176  22.018   2.365
85710W        W57293   7.304  13.998   2.742
85711W        W57294  27.584  21.281  13.430
85712W        W57295  16.811  18.547   3.228
85713W        W57296  27.132  24.673   3.804
85714W        W57297  28.858   6.615  10.741
85715W        W57298  12.713  11.927   2.718
85716W        W57299  19.180  38.385  13.869
85717W        W57300  10.538  17.109  10.200
85718W        W57301  42.725  27.591   1.316
85719W        W57302  26.202  13.086   4.646
85720W        W57303  25.020  10.243  14.015
85721W        W57304  34.866  23.730  13.867
85722W        W57305  23.837  31.427   2.344
85723W        W57306  29.199  15.217   1.301
85724W        W57307  12.135  10.325  11.941
85725W        W57308  20.809   8.241  13.448
85726W        W57309  37.425  32.424   1.701
85727W        W57310  35.555  22.171   2.760
85728W        W57311  24.241  25.532  11.976
85729W        W57312  34.364  43.924  13.090
85730W        W57313  40.973  28.978  11.003
85731W        W57314  24.025  28.638  12.170
85732W        W57315  23.169   8.886   2.345
85733W        W57316   6.822  35.470  14.021
85734W        W57317   1.427  33.755   1.950
85735W        W57318  35.831   7.284   3.395
85736W        W57319  37.780  24.132  13.350
85737W        W57320  41.448  28.204   3.287
85738W        W57321  28.180  15.088   2.180
85739W        W57322   6.646  15.686  13.475
85740W        W57323   9.897  26.481  10.580
85741W        W57324  24.102  23.287  11.142
85742W        W57325  19.500   8.041  12.976
85743W        W57326  24.816  17.537  11.648
85744W        W57327   0.722  36.517  13.959
85745W        W57328  36.686  18.922   1.073
85746W        W57329  18.291   1.237  12.480
85747W        W57330  44.729  37.232   4.215
85748W        W57331   2.787   1.974  12.055
85749W        W57332   2.303  11.388  12.595
85750W        W57333  17.625   0.450  13.034
85751W        W57334  10.865  42.495   0.963
85752W        W57335   7.675  13.439  11.651
85753W        W57336  21.845   2.814   3.797
85754W        W57337  28.559  24.614  14.812
85755W        W57338  20.716  30.194  14.466
85756W        W57339   2.461   6.608  10.578
85757W        W57340  33.500   7.228  12.157
85758W        W57341  34.338   7.004  14.947
85759W        W57342  35.551  37.791  12.611
85760W        W57343  38.659  41.370   4.915
85761W        W57344  33.064  11.786   1.940
85762W        W57345  40.339  27.704   3.774
85763W        W57346  17.787   2.505   3.646
85764W        W57347   9.164  31.531   2.600
85765W        W57348  34.421  32.575  14.977
85766W        W57349  19.286  27.713  13.661
85767W        W57350   7.095  26.237   1.244
85768W        W57351  42.213  32.509  10.858
85769W        W57352  19.588  31.081   3.279
85770W        W57353   4.728   0.710   4.248
85771W        W57354   2.681  10.755   0.763
85772W        W57355  42.309  16.349   1.656
85773W        W57356  33.412  15.781   2.297
85774W        W57357  30.973  18.285   4.870
85775W        W57358  19.012  30.953  12.548
85776W        W57359  32.055  16.243  11.026
85777W        W57360  13.367  25.160  13.110
85778W        W57361   5.126  38.528  12.539
85779W        W57362  13.289  27.468  11.981
85780W        W57363   8.105  40.757   4.265
85781W        W57364  23.147  21.073  12.555
85782W        W57365  43.532  25.601  13.526
85783W        W57366  22.635  18.520   4.254
85784W        W57367  39.598  28.090   3.197
85785W        W57368  30.418  42.987  11.930
85786W        W57369  14.845  16.247  13.848
85787W        W57370  33.569  18.639   0.669
85788W        W57371   1.995  43.995   2.376
85789W        W57372   8.425  32.298  10.707
85790W        W57373  19.230  24.232   3.280
85791W        W57374  38.451   8.659   4.268
85792W        W57375  30.012  17.023   4.115
85793W        W57376  17.157  37.676  12.471
85794W        W57377  20.813  37.963  11.489
85795W        W57378  26.946  38.793  11.065
85796W        W57379  25.959  17.690  12.011
85797W        W57380  36.465  28.247  13.009
85798W        W57381   8.514   8.321   1.365
85799W        W57382  19.143  32.362   3.139
85800W        W57383   1.022  19.235   3.590
85801W        W57384  16.575  35.701   1.482
85802W        W57385  33.418  41.078  11.532
85803W        W57386   0.947   5.169  14.425
85804W        W57387  22.723  12.791  14.221
85805W        W57388  37.614  22.097   4.928
85806W        W57389  10.796  35.314   0.008
85807W        W57390  35.500   0.441  13.831
85808W        W57391  25.952  33.659  14.067
85809W        W57392  19.346  32.861  14.032
85810W        W57393  31.152  34.656   0.875
85811W        W57394  40.597  11.025  11.941
85812W        W57395  27.646  42.872  11.479
85813W        W57396  15.720  16.985  12.437
85814W        W57397  35.202  13.108  13.902
85815W        W57398  38.807  31.504  14.282
85816W        W57399  23.736  24.537   4.840
85817W        W57400  37.007  14.057  11.083
85818W        W57401  24.561  29.496  10.482
85819W        W57402  44.323  20.296   1.826
85820W        W57403  13.757  30.539   0.403
85821W        W57404  30.646  43.138   2.640
85822W        W57405  39.397  25.486   2.290
85823W        W57406  19.585  31.898   0.951
85824W        W57407  41.251  24.994   2.185
85825W        W57408  13.750  33.876  13.486
85826W        W57409  22.995  18.001  12.420
85827W        W57410  28.702  29.132  14.285
85828W        W57411  17.845  15.446  13.573
85829W        W57412  28.643  16.281   3.966
85830W        W57413  16.032  42.837   0.255
85831W        W57414  33.599  38.343  14.967
85832W        W57415  13.345   0.957  14.334
85833W        W57416  44.406  36.005  14.296
85834W        W57417   0.692  42.981  13.903
85835W        W57418  36.872  43.771   1.588
85836W        W57419  44.986   0.612  13.926
85837W        W57420  17.531  44.942   0.894
85838W        W57421  20.682   9.317  10.139
85839W        W57422   2.440  30.184  10.481
85840W        W57423   6.323  14.125   1.150
85841W        W57424  44.777  26.451  12.660
85842W        W57425  21.509  32.092   2.286
85843W        W57426  10.739  12.228   3.638
85844W        W57427  13.873   4.781   3.623
85845W        W57428  22.612  28.285  12.525
85846W        W57429  37.493  22.696  11.733
85847W        W57430  19.716  22.052   1.785
85848W        W57431  11.671   0.016  12.512
85849W        W57432  34.441  21.149   1.986
85850W        W57433  44.314   1.846   1.811
85851W        W57434  34.604   5.779  12.459
85852W        W57435  25.698   1.511  11.570
85853W        W57436  15.241  43.955   1.909
85854W        W57437  33.807   6.821  14.742
85855W        W57438  30.590  21.978  12.886
85856W        W57439  29.649  32.686   3.179
85857W        W57440   5.379  24.708  14.433
85858W        W57441  24.015  19.770   2.861
85859W        W57442  44.701   2.389   2.679
85860W        W57443  11.150  35.091  13.623
85861W        W57444  27.171   2.791  14.320
85862W        W57445   8.742  10.165   5.032
85863W        W57446  36.868   0.403   2.243
85864W        W57447  43.994  10.752  10.613
85865W        W57448  26.066  15.279   0.428
85866W        W57449  18.347   8.290   1.218
85867W        W57450  15.995  34.538   5.394
85868W        W57451  43.771  40.237  14.767
85869W        W57452  24.557   6.688  10.667
85870W        W57453   1.509  42.829   3.213
85871W        W57454  10.705   8.618  14.763
85872W        W57455  26.791  30.979   4.991
85873W        W57456  40.981  32.411   4.405
85874W        W57457   0.269  12.236   0.177
85875W        W57458  18.067  27.221  14.935
85876W        W57459  41.929  27.590   2.377
85877W        W57460  24.714  14.449  11.103
85878W        W57461   2.833  15.255  14.742
85879W        W57462   9.174  14.125   2.446
85880W        W57463   5.407  40.375  12.857
85881W        W57464  41.888   7.976  10.756
85882W        W57465  24.214  29.651   4.219
85883W        W57466  42.911  29.579   4.215
85884W        W57467  18.141   6.910   1.765
85885W        W57468  43.056  29.436  12.602
85886W        W57469   9.743  29.422  13.109
85887W        W57470   4.474   8.394  14.417
85888W        W57471  20.227  20.516  11.591
85889W        W57472  19.057  11.686   3.036
85890W        W57473   7.100  23.909  14.830
85891W        W57474  15.464  23.535  11.531
85892W        W57475  10.288  11.702   4.199
85893W        W57476  23.705  36.328   0.440
85894W        W57477  28.241  31.319  13.015
85895W        W57478  42.033  31.569   0.693
85896W        W57479  35.998  40.871   2.175
85897W        W57480  32.740   7.499  13.298
85898W        W57481   9.893  22.458  13.873
85899W        W57482  23.742  17.722  11.486
85900W        W57483  34.062  12.544   0.314
85901W        W57484  29.175  33.673  12.022
85902W        W57485  25.326  42.567   4.604
85903W        W57486  41.530  12.926  11.559
85904W        W57487   9.224  21.624   1.612
85905W        W57488  10.772  12.823  11.985
85906W        W57489  28.537  43.440  10.527
85907W        W57490  12.066  42.526   3.276
85908W        W57491   0.058  16.824  13.655
85909W        W57492  34.639  22.198  13.811
85910W        W57493  29.374  25.575  14.812
85911W        W57494  15.009  24.572   1.291
85912W        W57495  41.597   2.715  11.280
85913W        W57496   3.654  41.081   4.571
85914W        W57497  39.001  29.629  13.496
85915W        W57498  31.396   8.194   2.182
85916W        W57499  23.504   7.243   4.926
85917W        W57500  21.520  25.884  11.082
85918W        W57501  21.689  12.207  11.517
85919W        W57502   7.325  33.394  13.979
85920W        W57503  10.327  20.352  14.412
85921W        W57504   6.668  28.524   1.171
85922W        W57505  31.660  11.635  12.476
85923W        W57506  33.993   6.746  14.263
85924W        W57507  19.624  42.303   3.421
85925W        W57508  39.996   1.911  13.797
85926W        W57509   6.693  42.933   1.439
85927W        W57510  23.612  40.959  11.962
85928W        W57511  15.728  11.475   3.929
85929W        W57512  12.388   8.400  13.808
85930W        W57513  34.986  12.550   1.837
85931W        W57514  43.310  23.016  10.660
85932W        W57515   7.989  10.408  14.755
85933W        W57516   4.813  25.538   4.927
85934W        W57517  32.788  13.614  13.399
85935W        W57518  10.232  38.794  14.876
85936W        W57519  32.021  14.769  13.923
85937W        W57520  38.326  10.356   3.736
85938W        W57521  28.742   3.731  11.009
85939W        W57522  20.621  41.912  13.882
85940W        W57523  40.057  16.119   4.696
85941W        W57524  11.914  27.909   1.573
85942W        W57525  16.504  25.203  11.962
85943W        W57526   6.575  13.375  12.384
85944W        W57527  13.445  24.056  11.630
85945W        W57528  41.370  38.002   4.173
85946W        W57529   4.318  41.763   1.973
85947W        W57530  17.020  39.874  10.622
85948W        W57531  28.765  13.785  11.645
85949W        W57532  10.287  20.944   4.226
85950W        W57533  23.010  26.462   4.514
85951W        W57534  33.965  23.671   0.053
85952W        W57535  21.498  17.862   4.362
85953W        W57536   8.018  43.066  10.326
85954W        W57537   6.660  16.243  14.628
85955W        W57538  25.242   3.928   2.927
85956W        W57539   4.204  27.378   0.836
85957W        W57540  22.509   9.790  12.400
85958W        W57541  44.314  42.035  10.818
85959W        W57542  36.878  40.005   0.758
85960W        W57543   7.777  37.420  13.605
85961W        W57544  19.029  29.589  12.390
85962W        W57545  17.749  37.540   0.343
85963W        W57546  11.849  33.816   0.790
85964W        W57547  16.888  20.608   0.793
85965W        W57548   1.956  22.951  12.993
85966W        W57549  20.615   3.714   0.541
85967W        W57550  42.919  35.578  11.494
85968W        W57551  26.205  23.002  11.563
85969W        W57552  25.697  22.248   0.884
85970W        W57553  15.353  10.810  13.464
85971W        W57554  36.897  36.195   4.220
85972W        W57555  20.574  34.128   4.661
85973W        W57556  18.616  17.053  11.532
85974W        W57557  18.607  31.105   4.725
85975W        W57558  19.283   4.625   1.868
85976W        W57559  41.724  31.191  12.801
85977W        W57560   5.288  34.181   2.569
85978W        W57561  11.653   4.935  11.420
85979W        W57562  40.334   4.855   0.703
85980W        W57563  20.378   4.317  14.254
85981W        W57564  32.978  10.296   2.088
85982W        W57565  34.504   6.975   2.867
85983W        W57566   9.165   9.076  11.269
85984W        W57567   3.202  14.613  14.331
85985W        W57568  36.594  28.374   3.328
85986W        W57569   0.713  32.962  12.320
85987W        W57570  41.193   1.951   2.864
85988W        W57571  13.728  23.955  12.514
85989W        W57572  17.103  13.946  12.056
85990W        W57573   9.633  11.672   4.566
85991W        W57574   8.697  43.579   4.137
85992W        W57575  36.812  28.441   3.801
85993W        W57576   6.088  35.009  13.388
85994W        W57577  41.036  10.827   4.344
85995W        W57578   8.116  13.169  11.653
85996W        W57579  10.394  27.038  12.458
85997W        W57580   3.086  23.501  12.261
85998W        W57581  12.276  34.546   1.815
85999W        W57582  26.499   9.499  13.452
86000W        W57583  43.743  32.817   1.269
86001W        W57584  43.444  13.812   4.021
86002W        W57585  38.806  42.807  14.123
86003W        W57586   5.183   9.365  11.182
86004W        W57587  24.794  21.114   0.679
86005W        W57588  36.359  20.975   1.218
86006W        W57589  37.657   9.801   3.154
86007W        W57590  28.538  25.437  10.769
86008W        W57591  29.122  27.081  14.018
86009W        W57592   0.584  42.482  13.041
86010W        W57593  33.831   3.059  12.836
86011W        W57594  18.324  13.720   0.717
86012W        W57595  12.781   2.573   2.887
86013W        W57596   2.512  16.197   4.279
86014W        W57597  13.785  28.728   1.650
86015W        W57598  44.721  32.670  12.076
86016W        W57599  21.139  17.664  12.466
86017W        W57600   1.184  37.549  11.331
86018W        W57601  15.618   7.053   3.077
86019W        W57602  42.461  20.522  14.953
86020W        W57603  21.729  40.911   2.193
86021W        W57604  42.515   0.852   2.203
86022W        W57605  37.984  20.085  14.333
86023W        W57606   5.621  22.186  14.720
86024W        W57607   8.319  24.710  12.738
86025W        W57608  18.626   0.223  12.656
86026W        W57609   2.979  32.167   1.500
86027W        W57610   9.407  17.291   4.019
86028W        W57611  32.870  21.220  14.353
86029W        W57612  18.646  30.498   4.014
86030W        W57613  21.000  28.367   5.668
86031W        W57614   8.872  24.685   0.825
86032W        W57615  16.119   5.766  13.528
86033W        W57616  20.143  11.656  14.997
86034W        W57617  14.276   8.070  11.069
86035W        W57618  32.886  23.062  13.409
86036W        W57619  32.548  34.504  14.918
86037W        W57620  22.509  10.829   4.340
86038W        W57621  21.500  15.797  12.061
86039W        W57622   7.718  41.984  13.042
86040W        W57623  15.254  34.972   0.300
86041W        W57624  36.365  24.492  11.114
86042W        W57625  18.004  36.563  10.662
86043W        W57626  24.077  21.310  11.901
86044W        W57627  20.299  15.348   3.512
86045W        W57628  24.101  18.546   4.596
86046W        W57629  25.961  27.178  14.310
86047W        W57630  25.112  27.095  10.652
86048W        W57631  25.284  10.292  11.412
86049W        W57632  39.455  44.150   3.605
86050W        W57633  11.162  33.862   1.194
86051W        W57634   6.318  18.085   0.755
86052W        W57635  18.049  39.481  14.797
86053W        W57636   2.245  35.462   4.533
86054W        W57637  33.635   6.903  10.511
86055W        W57638  16.951   7.688  11.092
86056W        W57639  24.530  12.846   2.370
86057W        W57640  42.015  10.279  13.695
86058W        W57641  36.625  38.848   1.140
86059W        W57642  22.172  27.222   1.272
86060W        W57643  38.087  18.877  14.890
86061W        W57644  16.129   7.157  12.330
86062W        W57645  23.433  44.691  12.429
86063W        W57646  35.916  10.420  13.809
86064W        W57647  11.414  13.758   3.632
86065W        W57648  38.870  39.701  13.516
86066W        W57649   9.636  15.101  11.586
86067W        W57650  11.555  41.092   5.011
86068W        W57651  24.745  35.486  13.582
86069W        W57652  16.767  15.856  12.349
86070W        W57653  13.517  13.021   4.291
86071W        W57654  43.793  37.276   2.335
86072W        W57655   4.247  16.832  13.372
86073W        W57656  40.437  41.530   5.361
86074W        W57657   6.931  29.396  11.463
86075W        W57658  14.733  10.630  10.642
86076W        W57659  36.845   7.713  11.447
86077W        W57660  18.756  32.595  14.303
86078W        W57661  36.321  40.885  14.822
86079W        W57662  16.143  20.253  13.788
86080W        W57663  19.147  16.587   3.903
86081W        W57664  38.732  20.479  14.482
86082W        W57665   7.563  15.387   1.905
86083W        W57666  22.579  31.542  13.379
86084W        W57667  32.331  35.024  14.752
86085W        W57668  28.154  28.635  12.863
86086W        W57669  30.507   1.208   2.742
86087W        W57670  37.487  37.048  12.548
86088W        W57671  41.438  38.947  14.090
86089W        W57672  21.048  44.274  12.391
86090W        W57673   0.302  24.358  10.703
86091W        W57674  15.138  37.179  11.438
86092W        W57675  35.248  13.897   1.712
86093W        W57676   1.634   6.689  11.170
86094W        W57677  22.219  22.016  11.694
86095W        W57678  26.567  21.349   1.681
86096W        W57679  10.367  22.621  12.376
86097W        W57680  38.605  38.431   1.965
86098W        W57681  27.605  33.508   3.042
86099W        W57682   1.910   4.905  10.429
86100W        W57683  10.670  29.075   2.310
86101W        W57684  38.432  38.817   0.326
86102W        W57685  15.751   5.460   1.558
86103W        W57686  23.382   8.274   4.450
86104W        W57687  22.064   9.324  11.128
86105W        W57688  20.777  27.144  13.366
86106W        W57689  21.658   5.792  13.940
86107W        W57690  38.115  15.649   1.413
86108W        W57691  24.623  32.817   2.714
86109W        W57692  15.919  11.755  12.099
86110W        W57693  22.185  34.693  12.394
86111W        W57694  40.364  40.283  10.293
86112W        W57695  42.935  26.870   1.926
86113W        W57696  38.076  36.925   4.137
86114W        W57697  34.790  14.073   4.337
86115W        W57698   6.532  20.627  14.432
86116W        W57699  41.792  34.142   1.803
86117W        W57700   3.921   4.489  10.704
86118W        W57701  19.186   9.921  14.866
86119W        W57702  25.664  30.404   9.834
86120W        W57703  29.652   1.408   4.556
86121W        W57704  40.912  11.417  14.064
86122W        W57705  15.847   2.278   1.502
86123W        W57706  39.639  28.247  11.627
86124W        W57707  19.680  35.643  11.937
86125W        W57708  42.533  18.623  13.064
86126W        W57709  13.526   2.325  11.740
86127W        W57710  42.452   9.926   4.868
86128W        W57711  13.614  27.890  13.717
86129W        W57712  25.600   6.756   0.253
86130W        W57713  23.405  22.813   0.775
86131W        W57714  35.812  25.543   3.769
86132W        W57715  10.679   0.470  11.286
86133W        W57716  18.078   1.987   0.393
86134W        W57717   6.759  15.589   1.986
86135W        W57718  19.758  13.666  10.667
86136W        W57719  43.647  26.451  10.879
86137W        W57720  27.452  14.122  11.461
86138W        W57721  28.918   5.245  14.673
86139W        W57722  41.849   8.476  10.530
86140W        W57723   2.384  34.992  14.097
86141W        W57724  44.344  34.172  12.966
86142W        W57725  12.373   7.218   1.239
86143W        W57726  27.515  31.514   9.877
86144W        W57727  20.770  15.192   0.428
86145W        W57728  21.498  12.544  12.208
86146W        W57729  27.730   9.024   4.489
86147W        W57730   8.214  14.666  12.153
86148W        W57731  14.632   1.289  11.211
86149W        W57732  19.142  26.056  12.516
86150W        W57733  43.005  44.327  13.770
86151W        W57734  37.527   4.748  10.652
86152W        W57735  25.499  20.230   4.719
86153W        W57736  33.190  39.904  10.033
86154W        W57737   3.903  19.797  10.339
86155W        W57738  22.598  44.505   4.881
86156W        W57739  18.781  34.035   4.413
86157W        W57740   2.355   5.839  14.963
86158W        W57741   1.373  15.016  12.581
86159W        W57742  32.393   8.784   4.960
86160W        W57743  15.299  30.538  14.813
86161W        W57744  18.728  38.894   1.869
86162W        W57745  29.327  11.469  10.330
86163W        W57746  39.235  14.722   0.508
86164W        W57747  35.885  37.854   1.734
86165W        W57748  40.379  35.010  12.303
86166W        W57749  18.377  31.431   1.441
86167W        W57750   4.528   1.039  13.339
86168W        W57751  15.240   1.249   0.048
86169W        W57752  28.928  36.090  14.896
86170W        W57753  23.161  15.165  10.704
86171W        W57754  12.124  35.573  12.160
86172W        W57755  36.626  36.034   4.665
86173W        W57756  39.030  44.858   1.738
86174W        W57757  33.608  39.124  12.917
86175W        W57758  36.472  30.452   9.909
86176W        W57759   1.107  35.185  14.401
86177W        W57760  27.895  18.208   1.645
86178W        W57761   0.749  37.808  14.821
86179W        W57762   8.437   8.350   2.417
86180W        W57763  42.884   1.399  13.499
86181W        W57764  20.809  13.364  13.019
86182W        W57765  17.165   3.894  12.505
86183W        W57766  21.721  14.077   1.310
86184W        W57767  30.018  24.701   1.303
86185W        W57768   5.817  31.995  12.918
86186W        W57769  10.296  14.593   0.004
86187W        W57770  13.707   1.851  11.634
86188W        W57771  27.524   9.397  13.556
86189W        W57772  13.543  26.547   1.282
86190W        W57773  38.012   5.167   2.166
86191W        W57774  21.625   4.865  12.994
86192W        W57775  28.463  44.274  11.937
86193W        W57776  15.313  32.957  14.516
86194W        W57777  36.266  30.201   3.965
86195W        W57778   9.338  18.543   2.390
86196W        W57779   4.584  25.624  13.550
86197W        W57780   0.780  16.301   3.753
86198W        W57781  29.337  22.626   4.741
86199W        W57782   3.604  13.111  10.884
86200W        W57783   9.669  22.207   0.847
86201W        W57784  38.032  20.587   2.726
86202W        W57785  29.501  26.037   0.167
86203W        W57786  28.186  21.278  13.877
86204W        W57787  42.548  35.839  10.632
86205W        W57788   9.894  31.919   4.593
86206W        W57789  28.967  26.882   3.641
86207W        W57790  31.432  18.720   3.785
86208W        W57791  38.405   7.700  13.455
86209W        W57792  41.851  22.532   2.191
86210W        W57793  21.490   4.405   2.734
86211W        W57794  36.830  43.840   3.938
86212W        W57795  44.971  39.857  14.565
86213W        W57796  26.066   1.642  12.579
86214W        W57797  15.069  32.203   2.311
86215W        W57798  17.582  17.800  12.514
86216W        W57799  11.082  28.516   0.788
86217W        W57800  22.007  32.450   0.028
86218W        W57801  33.478  19.469   3.205
86219W        W57802  30.471   3.705   3.336
86220W        W57803  41.873  17.068  14.300
86221W        W57804  17.544  42.264   1.266
86222W        W57805  31.891  25.840  12.484
86223W        W57806  25.382  11.242  12.477
86224W        W57807  22.574   9.612   1.275
86225W        W57808  17.131  36.420   3.630
86226W        W57809  26.109   4.812  13.817
86227W        W57810  31.957  21.141  12.874
86228W        W57811   0.302  20.063   2.388
86229W        W57812  43.426   9.162  14.385
86230W        W57813  23.261  10.890  14.442
86231W        W57814   0.756   5.804   3.761
86232W        W57815  38.766  24.993  11.484
86233W        W57816  42.226  17.560  14.413
86234W        W57817  22.713  43.852   1.483
86235W        W57818  39.109  16.103   4.570
86236W        W57819  12.815  32.002  14.829
86237W        W57820  13.169  36.500  14.904
86238W        W57821  42.719  16.801  14.352
86239W        W57822  14.528   8.892   4.178
86240W        W57823   1.273  13.919  12.336
86241W        W57824  24.769  43.455  14.498
86242W        W57825   1.794  36.889  13.113
86243W        W57826  14.570  43.778  13.361
86244W        W57827   4.320   7.017   2.964
86245W        W57828  15.904   3.920   2.391
86246W        W57829  40.551  11.769   0.522
86247W        W57830  18.267  37.470   4.362
86248W        W57831  12.297  35.545  10.891
86249W        W57832  29.705  16.481   2.024
86250W        W57833  24.302  30.555  13.223
86251W        W57834  21.216  44.867  13.745
86252W        W57835  36.129  33.508   2.663
86253W        W57836  36.285  11.590   1.777
86254W        W57837   6.276   3.071   1.743
86255W        W57838  28.965  38.524  14.986
86256W        W57839  11.547  42.206   4.048
86257W        W57840  19.312  38.282   3.547
86258W        W57841   9.852   4.841   1.448
86259W        W57842  10.220  15.884   1.391
86260W        W57843  34.372  25.081  11.950
86261W        W57844  42.282  33.334   3.236
86262W        W57845  32.954  30.426  14.413
86263W        W57846   3.995  32.969   3.734
86264W        W57847  30.510  20.407  12.055
86265W        W57848  21.222  37.891   3.870
86266W        W57849  33.373  41.924  10.015
86267W        W57850  25.070  32.100   2.904
86268W        W57851  13.494   3.585  12.710
86269W        W57852  21.194  43.324   1.657
86270W        W57853  32.423   1.457   3.718
86271W        W57854  39.819   6.744   5.014
86272W        W57855  31.397   0.846   0.270
86273W        W57856  32.612   9.178   1.665
86274W        W57857  24.180  10.551   0.878
86275W        W57858  30.148   5.883   0.861
86276W        W57859  15.658  21.714  10.910
86277W        W57860   5.285  20.578   5.122
86278W        W57861   3.032  42.800   2.216
86279W        W57862   5.185  43.079  13.630
86280W        W57863   5.767  29.624   2.239
86281W        W57864   5.515   9.245  12.941
86282W        W57865  35.826  12.284  14.080
86283W        W57866   2.863  20.790   3.180
86284W        W57867  22.787  11.953   1.417
86285W        W57868  44.909  13.881   1.327
86286W        W57869  27.460   0.761  11.374
86287W        W57870  18.279  33.046   1.333
86288W        W57871  28.618   6.094   4.568
86289W        W57872  12.830  20.749   2.742
86290W        W57873  23.769   9.185  14.381
86291W        W57874   6.045  33.514   3.891
86292W        W57875  13.409   5.014   3.593
86293W        W57876  27.886   5.369   1.898
86294W        W57877  40.033   1.499  14.826
86295W        W57878  42.991  26.433   2.298
86296W        W57879   6.469  13.020   0.342
86297W        W57880  13.142  10.101   2.818
86298W        W57881  41.601   6.124  14.032
86299W        W57882  26.483  40.770  13.872
86300W        W57883  35.550  10.315   1.255
86301W        W57884  36.797   3.482   0.111
86302W        W57885  18.634  30.606   1.856
86303W        W57886  17.629  43.135  13.025
86304W        W57887  33.115  34.138  14.323
86305W        W57888  13.959  20.272  14.522
86306W        W57889  23.925   0.212  14.018
86307W        W57890  15.389   1.340  12.417
86308W        W57891  27.654  41.751  11.243
86309W        W57892  10.073  36.967   0.402
86310W        W57893  13.153  18.137  10.667
86311W        W57894  23.302  42.436  11.950
86312W        W57895  36.950   0.757  11.583
86313W        W57896   2.291   8.169   0.370
86314W        W57897  10.240   4.697  11.712
86315W        W57898   4.176  18.545   1.956
86316W        W57899  38.303  27.684   4.554
86317W        W57900  21.719   6.602  14.934
86318W        W57901  36.010  38.742   2.366
86319W        W57902  40.780  38.342  14.995
86320W        W57903  29.131  31.328   9.817
86321W        W57904  34.663   0.954   2.661
86322W        W57905  44.340   4.857  14.884
86323W        W57906  23.694  32.167  13.103
86324W        W57907  41.272   2.818  13.111
86325W        W57908   0.211  43.165  14.042
86326W        W57909  30.244  42.379  12.793
86327W        W57910  38.694  14.055   1.524
86328W        W57911  37.533  36.234   3.109
86329W        W57912  44.731   8.835  14.272
86330W        W57913  15.198  44.746   4.538
86331W        W57914  39.086  25.498  12.628
86332W        W57915  27.663  19.341  12.520
86333W        W57916  30.021  25.521  14.852
86334W        W57917  16.422  22.018  12.601
86335W        W57918  24.218  32.682   4.401
86336W        W57919  37.905   4.846  12.957
86337W        W57920   4.640   7.793   4.665
86338W        W57921  16.082  33.112   1.594
86339W        W57922  16.100   5.465   4.286
86340W        W57923  13.817  33.997  12.491
86341W        W57924   4.298  38.964  11.386
86342W        W57925   7.465  26.233  11.060
86343W        W57926  33.465  30.629  11.246
86344W        W57927  43.868  40.864   1.735
86345W        W57928  34.349  18.111   0.913
86346W        W57929  39.998  12.288  12.167
86347W        W57930  42.813   9.281   2.155
86348W        W57931  15.786  40.095  11.132
86349W        W57932   5.299  24.121   2.213
86350W        W57933  29.353  34.083  11.088
86351W        W57934  43.728  35.132   2.675
86352W        W57935   4.294  36.785   0.362
86353W        W57936  44.028   1.911   3.126
86354W        W57937   5.403  22.785  11.587
86355W        W57938  31.203   2.490  13.153
86356W        W57939  26.560  12.207   0.199
86357W        W57940  26.139  43.484   4.383
86358W        W57941  11.894  31.959  13.807
86359W        W57942  43.193  28.533   1.278
86360W        W57943  21.328   5.591   3.066
86361W        W57944  24.623  26.186   3.034
86362W        W57945  41.740   2.698   4.962
86363W        W57946  34.867   8.227  10.690
86364W        W57947  34.900  35.059   1.911
86365W        W57948  41.478  23.296   3.030
86366W        W57949   3.175  26.527  11.084
86367W        W57950  37.323  40.827   1.936
86368W        W57951  25.589   8.241   3.637
86369W        W57952   1.927  25.444  10.648
86370W        W57953  11.476  18.283  11.063
86371W        W57954  27.111  25.380  10.766
86372W        W57955   0.079  16.392  13.976
86373W        W57956  17.565   4.320  13.819
86374W        W57957  25.745   5.854  11.079
86375W        W57958  11.661  30.898  14.825
86376W        W57959   4.904  19.202  11.618
86377W        W57960  21.688  37.640   4.565
86378W        W57961  16.156   0.461  14.752
86379W        W57962  17.151  25.738  14.457
86380W        W57963  36.931  40.583   4.221
86381W        W57964  10.097   0.430   0.709
86382W        W57965  37.041   6.330   4.689
86383W        W57966  41.327  28.684  14.417
86384W        W57967  37.476   2.970   3.209
86385W        W57968  30.709  15.655  12.772
86386W        W57969  40.013  20.143  10.694
86387W        W57970  21.609  40.428  14.470
86388W        W57971   1.935  24.583  13.937
86389W        W57972  44.944  40.226   1.454
86390W        W57973  11.585  43.372  11.066
86391W        W57974  40.092  15.147   1.469
86392W        W57975  33.527   1.293   2.593
86393W        W57976  21.586  14.651   0.515
86394W        W57977  19.625  25.193  14.320
86395W        W57978  30.694   5.226   2.221
86396W        W57979  12.339   3.992  11.932
86397W        W57980   7.786   2.326  13.103
86398W        W57981   0.229  19.752  13.836
86399W        W57982  20.073  22.798   1.710
86400W        W57983   2.905  38.857   3.295
86401W        W57984  12.869  16.699  13.902
86402W        W57985  27.002  15.728  11.679
86403W        W57986   3.459   2.739   1.802
86404W        W57987   6.261  33.880  12.562
86405W        W57988  34.171  32.405   4.872
86406W        W57989  33.662  30.657   2.738
86407W        W57990  11.858   9.019   4.284
86408W        W57991  21.370  33.897   2.859
86409W        W57992   7.719  11.277  12.417
86410W        W57993  18.301   7.732  14.991
86411W        W57994  33.563  23.321   0.442
86412W        W57995  14.782   1.263  13.454
86413W        W57996  13.784  20.057  14.976
86414W        W57997  22.431  37.630   1.346
86415W        W57998  42.740  18.987  10.870
86416W        W57999   3.779  38.395   3.126
86417W        W58000  12.011  32.152  12.213
86418W        W58001  31.874  10.702   3.742
86419W        W58002   9.350  41.639   1.812
86420W        W58003  12.722   9.350   3.612
86421W        W58004  21.702   0.228  14.335
86422W        W58005  20.971  39.979  12.038
86423W        W58006  44.856  38.605  14.889
86424W        W58007  31.985  30.359   1.131
86425W        W58008   0.813   7.236   3.232
86426W        W58009  24.031  35.491   4.930
86427W        W58010  40.262  25.263   1.137
86428W        W58011  39.121  31.900   3.616
86429W        W58012  41.529   3.478  13.941
86430W        W58013  40.369  14.748   1.631
86431W        W58014  31.814  43.843  10.627
86432W        W58015  29.957  23.857  12.021
86433W        W58016  35.373   4.692  13.137
86434W        W58017  11.174  30.992  10.814
86435W        W58018  16.202  23.837   3.533
86436W        W58019  21.277   7.246   9.647
86437W        W58020   4.800   9.153   3.592
86438W        W58021  26.180  41.253   0.817
86439W        W58022   9.519  28.699   1.514
86440W        W58023   2.470  43.300   4.251
86441W        W58024   2.714   4.330   1.344
86442W        W58025   4.715  18.224   2.461
86443W        W58026   4.232  42.365  10.902
86444W        W58027  15.319  33.493  12.263
86445W        W58028  26.675  37.347  12.544
86446W        W58029  15.285   6.766  11.624
86447W        W58030  12.798  31.678   3.619
86448W        W58031  16.194  15.668   2.689
86449W        W58032  28.146   6.371   0.377
86450W        W58033  27.589  22.181   3.547
86451W        W58034  19.449  36.581   2.978
86452W        W58035  11.417  33.653  13.389
86453W        W58036  12.402  41.947   0.443
86454W        W58037  22.618  30.655   1.783
86455W        W58038  30.150  25.703   3.454
86456W        W58039  21.187  37.030   3.353
86457W        W58040  40.803  38.616  10.642
86458W        W58041  26.040  13.247   2.545
86459W        W58042  18.203  44.014  11.174
86460W        W58043  27.092  11.679   2.882
86461W        W58044  30.940   1.052   4.564
86462W        W58045  34.585   1.738   4.105
86463W        W58046  12.348  31.906  12.546
86464W        W58047  24.062   1.736   3.229
86465W        W58048  21.274   5.892  14.269
86466W        W58049  44.862  17.744  14.081
86467W        W58050  34.383  25.547   3.412
86468W        W58051  43.020  32.555   2.698
86469W        W58052  16.117   8.632  10.673
86470W        W58053   0.745  13.820   1.759
86471W        W58054   8.771  11.405  13.903
86472W        W58055  44.748  31.152   3.147
86473W        W58056  13.957  36.524   0.943
86474W        W58057   3.012  26.658   4.600
86475W        W58058  14.610  41.158   2.856
86476W        W58059  19.253  19.211  14.539
86477W        W58060  20.988   8.724  11.665
86478W        W58061   9.455  28.664   4.566
86479W        W58062  36.670  18.377  13.687
86480W        W58063  21.814  41.244   4.164
86481W        W58064  29.987  23.704  13.969
86482W        W58065  13.312  13.415   1.388
86483W        W58066  35.048  11.188  14.748
86484W        W58067  29.875   0.306  13.818
86485W        W58068  18.511   8.224  13.827
86486W        W58069   3.393  18.879   5.008
86487W        W58070  28.736  21.545  12.936
86488W        W58071  15.637  35.023  11.531
86489W        W58072  25.325   9.973  10.208
86490W        W58073  30.029  20.682  12.918
86491W        W58074  26.184  24.048   0.821
86492W        W58075  25.419  26.617   4.188
86493W        W58076  17.354  24.615   4.674
86494W        W58077   8.745  10.790   3.504
86495W        W58078  14.877  29.518  12.908
86496W        W58079  37.890  33.062  12.789
86497W        W58080  14.731  20.739   3.905
86498W        W58081  18.306   6.291  11.999
86499W        W58082   5.975  19.313   0.968
86500W        W58083  19.532  37.894  10.804
86501W        W58084  11.250  33.493   2.182
86502W        W58085   7.143  41.517   1.944
86503W        W58086  10.690  24.198  14.956
86504W        W58087  18.410  21.975  14.402
86505W        W58088   6.329  14.551   3.664
86506W        W58089  37.819  24.551  12.963
86507W        W58090  43.607  13.253  12.981
86508W        W58091   3.436  28.973  10.513
86509W        W58092  38.654  25.986  14.366
86510W        W58093  25.070  34.887  12.016
86511W        W58094  27.628   0.862  12.299
86512W        W58095  16.427  28.038  10.938
86513W        W58096  28.922  24.054   2.429
86514W        W58097  36.190  40.985   3.144
86515W        W58098   2.877  43.748  14.776
86516W        W58099  31.016   2.798   2.181
86517W        W58100   0.295   2.956   2.119
86518W        W58101  41.461  36.612  13.506
86519W        W58102   9.863   8.710  13.340
86520W        W58103  37.655  16.571  12.604
86521W        W58104  38.969  43.535   1.311
86522W        W58105   1.716  37.444   1.449
86523W        W58106  20.529  32.599  13.356
86524W        W58107   6.210  42.872   1.245
86525W        W58108  24.878  42.874   2.283
86526W        W58109  30.536  23.149  10.607
86527W        W58110   2.516   0.253  13.847
86528W        W58111   5.145  23.157   4.105
86529W        W58112  31.218   3.476  13.437
86530W        W58113  26.421  42.296   3.282
86531W        W58114  19.701  10.842  11.614
86532W        W58115  18.277  11.444   4.540
86533W        W58116  18.783  40.042  14.817
86534W        W58117  10.834  43.714   1.330
86535W        W58118  24.526  42.798   0.708
86536W        W58119  15.549  12.126   1.217
86537W        W58120  23.389  13.364  11.489
86538W        W58121   6.818  40.276  13.865
86539W        W58122   1.671  25.827  14.524
86540W        W58123  43.881  34.314   2.377
86541W        W58124  42.184  41.940  11.187
86542W        W58125  15.310   3.819   3.296
86543W        W58126  42.735   2.483   3.222
86544W        W58127  30.263  14.250  12.564
86545W        W58128  29.062  24.483   1.216
86546W        W58129   4.438  20.655   0.780
86547W        W58130  41.855  28.013  13.558
86548W        W58131  32.113   8.899  13.957
86549W        W58132  30.184  31.429   5.201
86550W        W58133  20.315  29.489   4.598
86551W        W58134  28.450  25.276   1.421
86552W        W58135  13.878  37.965  10.701
86553W        W58136  22.968  43.772   0.423
86554W        W58137  20.563  43.908  10.281
86555W        W58138  34.310  27.990  14.786
86556W        W58139  35.856  19.218   4.581
86557W        W58140  39.929  36.798   3.096
86558W        W58141  28.045  36.131  12.336
86559W        W58142  39.326  31.276  14.040
86560W        W58143   4.563  10.167  14.489
86561W        W58144  19.001  36.836   2.323
86562W        W58145  28.505  17.512   1.511
86563W        W58146  11.818  15.072  11.289
86564W        W58147  38.367  20.139   1.623
86565W        W58148  37.384  21.555   4.169
86566W        W58149  42.764  25.672  11.587
86567W        W58150  38.319  14.712   4.192
86568W        W58151  29.953  32.792   1.436
86569W        W58152   0.457   2.390   3.202
86570W        W58153  17.317  25.196   4.172
86571W        W58154  38.448  10.678   3.363
86572W        W58155  10.685   0.972   3.703
86573W        W58156  37.010   7.614  10.623
86574W        W58157   4.306  31.521   4.863
86575W        W58158  18.348  21.059   2.792
86576W        W58159  24.083   6.824  13.418
86577W        W58160   5.826  40.716   0.462
86578W        W58161  15.402  23.460  13.890
86579W        W58162  22.032  31.784  13.086
86580W        W58163  35.055   1.700  10.242
86581W        W58164  23.599  13.481   1.184
86582W        W58165  10.179  21.222  14.792
86583W        W58166  29.684   5.835  13.578
86584W        W58167  20.515  42.842  13.846
86585W        W58168   7.153  44.262   0.028
86586W        W58169  41.928  34.076  12.448
86587W        W58170  35.672   2.297   3.283
86588W        W58171  22.575   6.237  10.667
86589W        W58172  19.644  31.637   2.365
86590W        W58173  16.131  37.470  10.990
86591W        W58174  22.372  29.569   5.014
86592W        W58175  44.556   5.327   2.723
86593W        W58176  26.070  27.853   4.150
86594W        W58177  16.658  15.855   2.595
86595W        W58178  31.725   7.258   2.250
86596W        W58179  18.051  12.601  12.360
86597W        W58180   5.686   5.257  12.443
86598W        W58181   7.122   6.351   0.790
86599W        W58182  29.909  35.084  12.091
86600W        W58183  17.786   4.640   1.775
86601W        W58184  27.105  36.349   1.354
86602W        W58185  39.354   3.453   3.656
86603W        W58186  24.090  22.470  14.127
86604W        W58187   5.026  14.242  11.967
86605W        W58188  39.928   1.814   2.620
86606W        W58189  29.988  23.100  12.573
86607W        W58190  41.643  43.986   2.413
86608W        W58191  29.234  18.624  12.861
86609W        W58192   5.880  22.656   2.330
86610W        W58193  31.169  28.190   4.293
86611W        W58194  10.069  17.934   3.288
86612W        W58195  39.839  31.334   4.719
86613W        W58196   0.960  18.049   3.243
86614W        W58197   7.395  44.865  10.828
86615W        W58198  11.256   7.279   4.379
86616W        W58199  30.171  43.316   2.754
86617W        W58200  38.045   0.352   4.062
86618W        W58201  35.913  43.907  10.886
86619W        W58202  43.957  19.805  12.068
86620W        W58203  25.938  33.075  12.592
86621W        W58204  37.761   6.956  12.771
86622W        W58205  36.337  12.699   0.872
86623W        W58206   8.897   7.796  13.082
86624W        W58207  32.622  27.987  14.390
86625W        W58208   5.741   1.205   1.874
86626W        W58209  29.369  37.981  12.154
86627W        W58210   5.837  19.597  12.998
86628W        W58211  24.530  15.164   0.366
86629W        W58212   0.054  10.168  14.438
86630W        W58213  42.756  27.087  13.245
86631W        W58214  23.048  25.615   4.164
86632W        W58215  24.096  31.798   1.630
86633W        W58216  42.380   8.677   2.640
86634W        W58217  38.878  18.794  14.779
86635W        W58218  37.294  19.715   5.021
86636W        W58219  26.253  13.991   2.213
86637W        W58220   3.977  19.730   2.353
86638W        W58221  31.103  41.698  11.253
86639W        W58222   3.157  25.561   2.688
86640W        W58223  37.437  40.105  14.096
86641W        W58224  15.675  20.398  13.401
86642W        W58225  10.354   7.497  13.001
86643W        W58226   5.153  22.446  14.329
86644W        W58227   8.299  33.121   0.759
86645W        W58228  17.542   3.719  14.343
86646W        W58229  15.768  40.332  14.981
86647W        W58230   0.987  21.098   1.134
86648W        W58231  12.745  44.031  12.258
86649W        W58232  40.864  29.454  14.310
86650W        W58233  34.067  17.134   0.044
86651W        W58234   3.491  30.042   4.640
86652W        W58235   1.230  33.961  14.958
86653W        W58236  17.568   5.842   2.787
86654W        W58237  16.257  28.504  14.875
86655W        W58238  29.425  26.973   4.617
86656W        W58239  15.545  40.973   4.964
86657W        W58240  42.804  18.005  10.725
86658W        W58241   6.390  22.674   5.088
86659W        W58242  20.976  25.207   1.736
86660W        W58243  24.492  33.171   3.620
86661W        W58244  13.320  37.403  13.077
86662W        W58245  38.123   9.125  10.202
86663W        W58246   1.512  25.020   0.520
86664W        W58247   5.887  14.709  11.604
86665W        W58248  14.875  34.653   5.449
86666W        W58249   0.489  28.511  12.093
86667W        W58250   8.304  11.891  14.524
86668W        W58251  31.406  14.081  14.846
86669W        W58252  39.014   3.967   2.662
86670W        W58253   5.282   1.423  13.905
86671W        W58254   4.789  26.869   4.075
86672W        W58255   1.703  24.215   4.048
86673W        W58256   0.659  34.847   1.813
86674W        W58257   3.409  39.974  14.284
86675W        W58258  18.212   1.502   0.319
86676W        W58259  33.523  30.531  10.226
86677W        W58260  30.967  18.750   3.282
86678W        W58261  36.585  35.320  11.371
86679W        W58262  35.029  36.783  10.619
86680W        W58263   2.945  40.596   2.420
86681W        W58264   3.819  25.573  11.537
86682W        W58265  27.545   7.224  12.393
86683W        W58266  10.577  43.456  11.169
86684W        W58267  28.764  19.435  13.326
86685W        W58268  43.817  36.058  11.122
86686W        W58269  21.121  25.944  14.890
86687W        W58270  30.971   4.871  10.668
86688W        W58271  22.543  25.268  12.160
86689W        W58272  35.797  38.886  12.140
86690W        W58273  41.239  43.436   1.241
86691W        W58274  39.484  10.123  11.907
86692W        W58275  20.739   4.912  13.786
86693W        W58276  38.788   4.819   3.587
86694W        W58277  13.109   3.449  11.723
86695W        W58278  43.702  11.298   4.553
86696W        W58279  12.831  39.760   3.196
86697W        W58280  41.965  11.299   1.839
86698W        W58281  16.996  20.867  13.374
86699W        W58282  20.097  15.744  10.544
86700W        W58283  20.049  33.612   2.289
86701W        W58284  13.402   6.319   2.348
86702W        W58285  37.520   8.169   2.778
86703W        W58286  22.792  18.366   1.421
86704W        W58287  10.776  20.508  10.764
86705W        W58288  29.644  38.045  10.814
86706W        W58289  37.927   8.769   3.670
86707W        W58290  25.376  27.970   4.999
86708W        W58291  11.056  25.216   3.016
86709W        W58292  10.186  17.975   0.535
86710W        W58293  21.147   8.668  13.024
86711W        W58294  37.124  24.081  11.615
86712W        W58295  22.664  39.282   3.860
86713W        W58296  30.899  15.991   2.298
86714W        W58297   3.797  22.899  14.895
86715W        W58298  32.618  27.497   0.755
86716W        W58299  36.318  16.587  14.473
86717W        W58300  28.898  43.331  11.437
86718W        W58301  33.011  38.108   4.476
86719W        W58302   8.187  34.012   1.838
86720W        W58303   1.451   5.880   0.443
86721W        W58304  30.234  16.285  12.054
86722W        W58305  12.268  22.253  12.337
86723W        W58306  30.475  38.628   5.027
86724W        W58307  16.197  11.619   3.777
86725W        W58308  38.534  10.206  12.029
86726W        W58309  33.757  25.507   4.538
86727W        W58310  29.968  27.116   1.688
86728W        W58311   0.247  33.366  14.333
86729W        W58312   8.960  20.698   1.856
86730W        W58313  19.021  39.920  11.794
86731W        W58314  17.977  21.209   0.339
86732W        W58315  14.725  31.056  11.687
86733W        W58316  11.643  17.570  10.662
86734W        W58317   5.809  11.308  12.520
86735W        W58318  44.242  23.183   4.621
86736W        W58319   7.512  29.106  13.043
86737W        W58320  42.546  11.604   3.627
86738W        W58321  21.093  44.350   1.307
86739W        W58322  18.551  29.559   3.193
86740W        W58323  10.654   8.728  11.403
86741W        W58324  32.561  43.830   1.032
86742W        W58325   0.212  14.811   2.924
86743W        W58326   8.958  33.942   0.644
86744W        W58327   0.944  43.980   0.444
86745W        W58328  30.927  43.534   2.349
86746W        W58329   1.908  41.386  14.529
86747W        W58330  28.153  23.470  12.402
86748W        W58331  20.539   0.998  14.772
86749W        W58332  21.146  15.086  10.569
86750W        W58333   2.731  22.400   1.819
86751W        W58334  43.724  36.423   2.347
86752W        W58335   8.572  38.336   2.236
86753W        W58336  24.659  28.740   4.604
86754W        W58337  37.933  20.134   2.345
86755W        W58338  19.114  11.387  14.378
86756W        W58339  39.907  26.138   1.319
86757W        W58340  23.193  36.805  10.650
86758W        W58341  25.479  22.355   1.784
86759W        W58342   1.252   5.426   1.380
86760W        W58343  16.828  24.780   2.256
86761W        W58344  32.453  31.570  11.569
86762W        W58345  32.868   5.791   0.403
86763W        W58346  38.556  10.418   4.198
86764W        W58347  43.512   7.744  14.224
86765W        W58348  18.663  37.556  10.368
86766W        W58349  18.879   4.273   0.452
86767W        W58350  24.795  43.866  12.923
86768W        W58351  31.337  34.635   2.507
86769W        W58352  34.119  24.578  12.864
86770W        W58353   6.914   8.663  12.987
86771W        W58354  30.380  23.364   4.080
86772W        W58355   6.982   9.581   0.207
86773W        W58356  21.436  42.888  14.917
86774W        W58357  29.124  39.881   2.448
86775W        W58358   6.823  13.029  14.250
86776W        W58359  28.618  39.584   0.640
86777W        W58360   3.924  29.053   3.380
86778W        W58361   1.417  24.080   0.463
86779W        W58362  36.553   7.796   4.895
86780W        W58363   7.336  39.816   3.254
86781W        W58364   5.391  43.483  13.908
86782W        W58365   5.503  30.904  13.003
86783W        W58366   3.753  12.288  13.920
86784W        W58367  36.979  40.785  13.896
86785W        W58368  32.025  28.966   0.306
86786W        W58369  15.796   6.243   1.060
86787W        W58370   1.518  18.129  11.630
86788W        W58371   3.913  35.020   2.699
86789W        W58372  23.096  13.120  11.823
86790W        W58373   5.167   5.725   3.190
86791W        W58374   6.713  21.232   2.142
86792W        W58375  32.658  17.667  14.455
86793W        W58376  43.743  15.502  13.003
86794W        W58377  10.928   2.958   1.787
86795W        W58378  17.142  35.692  11.972
86796W        W58379  16.763   7.697   0.023
86797W        W58380   8.781   1.978   3.663
86798W        W58381  41.404  21.062   4.008
86799W        W58382  11.284  37.873  11.565
86800W        W58383  38.019  22.328  11.046
86801W        W58384  22.302  37.098  10.419
86802W        W58385   3.178  32.398   1.926
86803W        W58386  27.759  16.187  14.392
86804W        W58387  11.756  11.334   1.927
86805W        W58388  19.488  25.705  13.416
86806W        W58389  24.086  28.663  10.770
86807W        W58390  28.428  42.374   3.160
86808W        W58391  24.269  44.488  11.618
86809W        W58392   8.215  42.761   4.911
86810W        W58393   1.629  39.103  10.715
86811W        W58394   3.279  30.710   0.448
86812W        W58395  36.849  14.268   2.875
86813W        W58396   0.714  15.335   0.912
86814W        W58397   4.654  23.088  14.682
86815W        W58398   3.370  34.940   5.018
86816W        W58399  26.939   4.788   4.761
86817W        W58400  12.836  34.561   4.435
86818W        W58401  23.214  17.058   3.639
86819W        W58402  34.000  35.551  12.512
86820W        W58403  36.848  33.428   4.375
86821W        W58404  22.484  30.950   1.354
86822W        W58405  21.662  31.135  12.079
86823W        W58406  26.531  12.340   3.364
86824W        W58407  31.106  35.369   0.314
86825W        W58408  14.509  10.032   4.799
86826W        W58409  14.351  37.052  11.066
86827W        W58410   9.084  31.538   0.813
86828W        W58411  37.133  44.854   3.561
86829W        W58412   4.244  30.607  11.131
86830W        W58413  33.014  33.515   1.285
86831W        W58414  17.724  38.776   3.776
86832W        W58415  39.971  28.916  14.458
86833W        W58416  43.317   7.097  11.214
86834W        W58417  10.778  30.176  10.733
86835W        W58418  39.932  34.871   0.288
86836W        W58419  40.927  26.176   2.170
86837W        W58420  34.513  16.217   3.224
86838W        W58421  37.818  22.201   4.079
86839W        W58422   3.464   7.760  12.415
86840W        W58423  35.391  32.497   4.122
86841W        W58424  32.071  36.020  13.382
86842W        W58425  26.350  12.877   5.420
86843W        W58426   9.146  20.112   2.657
86844W        W58427  37.967  11.820   2.662
86845W        W58428  25.709  26.782   4.582
86846W        W58429   5.433  25.996   3.770
86847W        W58430  27.699  33.313   5.271
86848W        W58431   7.305  23.270   4.799
86849W        W58432  14.878   7.296   2.718
86850W        W58433  22.491  35.319  11.525
86851W        W58434  17.689  43.002   3.126
86852W        W58435  10.243  34.524  14.849
86853W        W58436  31.849   2.601  11.105
86854W        W58437  36.953   8.236  11.516
86855W        W58438  21.215  22.177   1.693
86856W        W58439   6.383  16.579  14.350
86857W        W58440   1.073  38.812   9.989
86858W        W58441  23.186  33.558   4.324
86859W        W58442  31.049  28.396  12.061
86860W        W58443  19.626  18.036  10.684
86861W        W58444  40.356  12.712   0.930
86862W        W58445  41.809   7.534   5.040
86863W        W58446  37.529  30.214   2.670
86864W        W58447  33.552  39.778  11.945
86865W        W58448  20.902  25.070  11.183
86866W        W58449  36.328  33.896  12.009
86867W        W58450   4.117   5.861   4.755
86868W        W58451  36.502  30.071   1.733
86869W        W58452  40.184  27.755  12.029
86870W        W58453  38.809  21.391   3.702
86871W        W58454  20.178   9.434  10.107
86872W        W58455  11.285  17.053  11.829
86873W        W58456   7.802  29.396   4.585
86874W        W58457  21.200   8.919  12.569
86875W        W58458  24.535   4.886  11.089
86876W        W58459  22.059  21.876  11.066
86877W        W58460  12.261  39.066  12.760
86878W        W58461  34.895  43.845   3.641
86879W        W58462  40.832  32.155  14.447
86880W        W58463   8.206  14.309   2.967
86881W        W58464   4.476  37.406   2.884
86882W        W58465   7.736  28.900   0.477
86883W        W58466   0.766  42.862   3.614
86884W        W58467  28.030  21.035  12.350
86885W        W58468  26.722  40.344   4.698
86886W        W58469  15.083  34.308  11.271
86887W        W58470   6.948   8.830  14.927
86888W        W58471  11.244  34.064  14.921
86889W        W58472  39.552  43.737   4.592
86890W        W58473  41.575  39.356   3.133
86891W        W58474  10.943  31.254   0.656
86892W        W58475  35.481   7.634  13.483
86893W        W58476   9.724   8.768   0.552
86894W        W58477   7.836  41.667   3.590
86895W        W58478  12.887  22.968  11.613
86896W        W58479  40.244  16.416  13.559
86897W        W58480  19.160   9.166  14.240
86898W        W58481   4.419  22.125  13.366
86899W        W58482  20.203  18.846   0.932
86900W        W58483  21.909  30.169  13.849
86901W        W58484   3.125  35.288   0.313
86902W        W58485   9.576  32.961  14.383
86903W        W58486  37.365   9.979  14.829
86904W        W58487   8.013   5.463   2.880
86905W        W58488   5.859  14.364   0.386
86906W        W58489  16.697  11.137  13.485
86907W        W58490  35.656   4.746  13.570
86908W        W58491   8.942   2.679  12.952
86909W        W58492  10.823   5.974  12.385
86910W        W58493  21.634  15.613   2.416
86911W        W58494  36.574  20.215  10.659
86912W        W58495  34.393  24.794   0.784
86913W        W58496  40.419  37.814  12.036
86914W        W58497  13.628  30.194   0.901
86915W        W58498  28.245  29.828  14.909
86916W        W58499   5.749  22.644   3.159
86917W        W58500  22.712   8.651   4.773
86918W        W58501  34.101   6.973   3.670
86919W        W58502  10.877  36.837  12.181
86920W        W58503  31.654  40.387  11.601
86921W        W58504  44.891   6.638   4.485
86922W        W58505  20.153  35.132  10.740
86923W        W58506  19.020  37.925  10.499
86924W        W58507   7.422  23.653   2.958
86925W        W58508  33.423   9.812   2.738
86926W        W58509  17.687  22.984  11.485
86927W        W58510  19.761  31.320  12.952
86928W        W58511   3.789  21.124   3.538
86929W        W58512  22.439  23.610  12.087
86930W        W58513  43.092  16.619   1.385
86931W        W58514  43.565  28.890   3.467
86932W        W58515  24.191  18.029   4.581
86933W        W58516  44.944  10.618  13.607
86934W        W58517   2.445  25.932   1.290
86935W        W58518  35.022   2.063   0.311
86936W        W58519  19.428  11.004  14.241
86937W        W58520  26.710  41.654   4.217
86938W        W58521  39.299  34.742   2.837
86939W        W58522  41.615  44.284  12.434
86940W        W58523  36.878  26.505  13.437
86941W        W58524  31.382  19.656   1.226
86942W        W58525  40.337  39.964  12.614
86943W        W58526  21.953  23.624  10.676
86944W        W58527  24.706  39.795   2.054
86945W        W58528  42.514  19.860  11.472
86946W        W58529  29.037   8.914  12.277
86947W        W58530  37.148   8.991   1.293
86948W        W58531   6.997  17.052  13.278
86949W        W58532  16.267  24.204   2.071
86950W        W58533  32.558  28.177  12.896
86951W        W58534  11.647  16.482   3.797
86952W        W58535  41.975   0.615   4.114
86953W        W58536  10.584   2.253  12.393
86954W        W58537   3.497   5.596   4.064
86955W        W58538  23.206   3.490  11.028
86956W        W58539  36.080  25.558   0.848
86957W        W58540  18.270  44.027   1.283
86958W        W58541  19.979  20.004   1.219
86959W        W58542  28.521  42.665   1.279
86960W        W58543  10.757  29.685   0.220
86961W        W58544  20.977  12.078   2.208
86962W        W58545  21.775  32.643   3.461
86963W        W58546  19.818  21.052  10.608
86964W        W58547  35.048  15.020   3.637
86965W        W58548  33.591  39.430   2.006
86966W        W58549  37.562   2.722   2.745
86967W        W58550   8.847  17.748   1.947
86968W        W58551  41.595  15.273  14.006
86969W        W58552  14.327  26.736  11.277
86970W        W58553  40.606  29.409  11.562
86971W        W58554  10.785  35.619  14.248
86972W        W58555  30.153   6.756  13.442
86973W        W58556  25.151   8.405  11.560
86974W        W58557  27.351   6.913   3.157
86975W        W58558  32.947  35.487   4.694
86976W        W58559  11.097  27.052   2.320
86977W        W58560  39.307   5.436  10.657
86978W        W58561  29.771  33.155   5.092
86979W        W58562   9.557  11.307   1.229
86980W        W58563   4.521  33.492  14.383
86981W        W58564  21.403  42.010   1.513
86982W        W58565   0.019  14.787   0.354
86983W        W58566   7.302  39.816   4.038
86984W        W58567  12.235  34.612  12.148
86985W        W58568   5.357  39.361   1.897
86986W        W58569  22.900  22.709   0.788
86987W        W58570  12.466   6.900  12.529
86988W        W58571   5.303  21.225  11.013
86989W        W58572  26.551  28.647   3.370
86990W        W58573  35.918  21.111   2.109
86991W        W58574   0.522  37.388  13.052
86992W        W58575  34.851  10.387   2.174
86993W        W58576  28.397   9.263   1.909
86994W        W58577  26.436  37.937   1.524
86995W        W58578  36.826   6.787   2.601
86996W        W58579   4.920  35.401   1.842
86997W        W58580  33.666  13.117  14.415
86998W        W58581  43.313  24.839   2.657
86999W        W58582  35.946  24.285   4.310
87000W        W58583  27.889  35.795  10.705
87001W        W58584   0.861  13.202   3.751
87002W        W58585  24.923  22.943   4.107
87003W        W58586  21.110  13.707   4.275
87004W        W58587   9.368  29.060  13.055
87005W        W58588  16.360  43.179   2.640
87006W        W58589   8.889  10.859   4.011
87007W        W58590   7.208   3.747  13.127
87008W        W58591   4.400   6.849  12.423
87009W        W58592  15.562  27.221   3.647
87010W        W58593   3.741  13.803  11.566
87011W        W58594  16.504  11.187   1.307
87012W        W58595  44.507  12.442  11.130
87013W        W58596  27.679  37.538   1.530
87014W        W58597  20.954   0.855  12.055
87015W        W58598  39.532   9.028   5.103
87016W        W58599  29.946  27.788  13.280
87017W        W58600  28.131  23.981   0.470
87018W        W58601  15.299  23.086  11.761
87019W        W58602  29.065  28.421   3.610
87020W        W58603  10.626  19.142   2.185
87021W        W58604  35.100  35.474  11.730
87022W        W58605  21.930  36.588  11.591
87023W        W58606  16.583  22.545  12.575
87024W        W58607   2.273   4.489   0.413
87025W        W58608  27.122  41.497   3.951
87026W        W58609  29.411  30.824  10.224
87027W        W58610   7.372  42.988  11.502
87028W        W58611   5.670   4.812  12.161
87029W        W58612   0.561  29.145   1.358
87030W        W58613  16.206   1.988  14.526
87031W        W58614  25.743   4.815   1.756
87032W        W58615  10.462   0.394   3.086
87033W        W58616  27.677   4.961  12.443
87034W        W58617   5.030   1.979   4.106
87035W        W58618  21.017   9.348  13.967
87036W        W58619  38.062  14.638  11.537
87037W        W58620  41.066   6.904   4.675
87038W        W58621  25.548  40.074   2.636
87039W        W58622  34.880  29.004  13.079
87040W        W58623   4.561  42.106   3.225
87041W        W58624  10.627  19.978   2.264
87042W        W58625   8.894   3.958   1.457
87043W        W58626  14.550  27.224   3.914
87044W        W58627  16.164  37.319  11.465
87045W        W58628  27.662   5.839   1.457
87046W        W58629   7.875  19.698  14.482
87047W        W58630  27.230  16.021  12.975
87048W        W58631  25.479   3.426  14.690
87049W        W58632  28.135   9.878   0.029
87050W        W58633   7.987  28.168  10.329
87051W        W58634  27.406   8.918  14.774
87052W        W58635   0.321   0.030  12.572
87053W        W58636   3.029  43.140  10.381
87054W        W58637  32.940  44.819  13.734
87055W        W58638  29.018   6.230  14.949
87056W        W58639  22.689  38.396   3.800
87057W        W58640   7.295  13.258  14.023
87058W        W58641  33.964   7.123   3.184
87059W        W58642  33.679  30.603   3.692
87060W        W58643  38.799   5.083  12.591
87061W        W58644   3.199  40.435  12.684
87062W        W58645  40.994  16.024  12.414
87063W        W58646   8.268  19.752   4.026
87064W        W58647  41.248   8.445   3.288
87065W        W58648  28.949  24.415  13.367
87066W        W58649   4.778   0.276  10.740
87067W        W58650  39.339   2.970  13.399
87068W        W58651  29.518  10.126   4.951
87069W        W58652  44.049   6.364  10.389
87070W        W58653  19.585  22.133  10.730
87071W        W58654  28.875  24.875   0.940
87072W        W58655  28.367  30.623  11.571
87073W        W58656  15.276   4.639  13.060
87074W        W58657  21.474  16.057   2.226
87075W        W58658  39.453   4.198  12.074
87076W        W58659  24.216  27.090  14.842
87077W        W58660  20.705   6.220  10.345
87078W        W58661  25.593  30.199   2.311
87079W        W58662  29.215  17.047   0.850
87080W        W58663  32.652  31.709  11.055
87081W        W58664   9.242  31.060   0.947
87082W        W58665  22.542  33.876   1.440
87083W        W58666   7.655   3.929  12.946
87084W        W58667  22.097  32.551  12.441
87085W        W58668  12.121  38.822  10.412
87086W        W58669   8.386   6.226   0.832
87087W        W58670  43.278   0.228   1.675
87088W        W58671  33.360  38.250  10.095
87089W        W58672  14.111   2.801  12.022
87090W        W58673   8.728  13.694   3.745
87091W        W58674   8.581  39.047  12.913
87092W        W58675  39.567  12.691  10.724
87093W        W58676  42.940  38.017   4.609
87094W        W58677  14.911  23.395   1.870
87095W        W58678  30.009  44.363  12.058
87096W        W58679   5.970  35.857  12.538
87097W        W58680  12.719  29.474  11.623
87098W        W58681  28.763  26.401   3.623
87099W        W58682  18.313   4.316   4.618
87100W        W58683  13.316  12.050   4.180
87101W        W58684   4.476  25.082   0.081
87102W        W58685  18.892   8.778   4.182
87103W        W58686  20.775  21.584   2.423
87104W        W58687  42.005  15.297   2.253
87105W        W58688  38.853  39.349   1.552
87106W        W58689  23.037  29.133   0.365
87107W        W58690  23.794  26.527   0.015
87108W        W58691  30.208  41.544  10.775
87109W        W58692  35.049  43.827   4.508
87110W        W58693   0.607  43.342   3.766
87111W        W58694   5.708  15.568  14.711
87112W        W58695  29.519  34.302  14.000
87113W        W58696   0.896  34.978   3.863
87114W        W58697  11.739  22.720   5.167
87115W        W58698  18.328  43.191  13.706
87116W        W58699   5.432  29.522   1.246
87117W        W58700   1.249  11.730  12.094
87118W        W58701  43.576  31.117  14.980
87119W        W58702  20.714  25.129   4.820
87120W        W58703   2.039  27.265  14.300
87121W        W58704  42.996  41.542   3.069
87122W        W58705   0.231  12.159  13.331
87123W        W58706  15.647   5.727  13.781
87124W        W58707  11.466   5.721  11.114
87125W        W58708  18.596  11.744  12.043
87126W        W58709  27.737  13.670  11.428
87127W        W58710  20.345  24.500   2.485
87128W        W58711  18.654  31.093  12.959
87129W        W58712  39.415  25.228  13.051
87130W        W58713  21.724  35.281   3.801
87131W        W58714   5.093  37.528  12.216
87132W        W58715  42.975  21.341  11.191
87133W        W58716   8.977  39.345   3.703
87134W        W58717  23.086  30.646   1.397
87135W        W58718  43.025   0.874   2.230
87136W        W58719  23.402  17.269   0.091
87137W        W58720   9.797  27.929   1.141
87138W        W58721  31.291  33.252   0.200
87139W        W58722   7.874  11.927   4.094
87140W        W58723  26.537  15.336  14.709
87141W        W58724  21.708  19.521   3.174
87142W        W58725   7.840  16.745   0.597
87143W        W58726   5.848  25.936   4.108
87144W        W58727  26.947  30.317  14.249
87145W        W58728  36.493  11.992  12.873
87146W        W58729   3.816  38.023   4.925
87147W        W58730  40.596   8.404  13.629
87148W        W58731  23.283  37.980   3.275
87149W        W58732  33.667   5.647   0.940
87150W        W58733  24.057   7.281  14.503
87151W        W58734   8.427  34.620  13.532
87152W        W58735  12.008   8.108   0.178
87153W        W58736   4.998  28.671  14.741
87154W        W58737  15.984  15.800  13.061
87155W        W58738   5.268   1.864  11.747
87156W        W58739  27.259  37.051  10.573
87157W        W58740  43.562   9.425  14.837
87158W        W58741  30.498   4.216   3.413
87159W        W58742  13.423  23.048   4.218
87160W        W58743  15.132  18.666  11.542
87161W        W58744  10.488   1.886   5.059
87162W        W58745   3.747  31.659  14.853
87163W        W58746  30.344  36.515  10.490
87164W        W58747   2.910  40.532  13.235
87165W        W58748  15.673   7.206  14.351
87166W        W58749  30.252  23.261  12.161
87167W        W58750  26.186   2.809   3.865
87168W        W58751  42.048   3.378   1.956
87169W        W58752  13.245   0.458   0.120
87170W        W58753  14.820  42.434   2.747
87171W        W58754  12.097  30.967  14.530
87172W        W58755   3.171  26.717   1.731
87173W        W58756  11.610  19.701   2.839
87174W        W58757   1.774  36.466  10.198
87175W        W58758  37.560  33.901  10.708
87176W        W58759   6.372   3.392   1.244
87177W        W58760   3.348   9.911   1.291
87178W        W58761  41.820  17.340  13.414
87179W        W58762  23.947   9.195  12.036
87180W        W58763  28.888  26.644  14.866
87181W        W58764   6.590  27.821   4.249
87182W        W58765  32.638   5.781   3.829
87183W        W58766  11.687  43.809   4.240
87184W        W58767   9.531  14.122  13.030
87185W        W58768  34.048   0.242  10.786
87186W        W58769  31.002   2.492  12.175
87187W        W58770   0.014  40.901  11.662
87188W        W58771  19.794   6.657   3.301
87189W        W58772  42.915   8.327  12.891
87190W        W58773  30.535  29.127   3.669
87191W        W58774  35.344  17.594  13.895
87192W        W58775  44.816   8.038   3.999
87193W        W58776  37.297  27.438  13.546
87194W        W58777  25.171  33.510   4.662
87195W        W58778   9.794  20.069  11.004
87196W        W58779  19.798  14.802   1.759
87197W        W58780  15.619  43.664   4.318
87198W        W58781  44.775  24.703  11.534
87199W        W58782  39.504  20.727  11.049
87200W        W58783  28.564  43.268  14.799
87201W        W58784  34.029   0.107  14.822
87202W        W58785   6.893  19.498  12.180
87203W        W58786  11.749  20.620   3.200
87204W        W58787  30.428  19.698   0.968
87205W        W58788  12.858  28.374   1.372
87206W        W58789  38.430  27.393  12.520
87207W        W58790   1.054  18.600   9.659
87208W        W58791  16.561  21.616  12.298
87209W        W58792  26.915  16.912   0.871
87210W        W58793  24.427  24.702   2.241
87211W        W58794   2.471  37.026   4.474
87212W        W58795   3.844  17.959   0.915
87213W        W58796   0.752  10.366   0.733
87214W        W58797   1.518   9.912  11.212
87215W        W58798  43.387  26.983   1.264
87216W        W58799  25.813  14.103  12.730
87217W        W58800   4.628  16.525   2.621
87218W        W58801  28.952   1.149  13.556
87219W        W58802  12.331  29.316   2.509
87220W        W58803  14.425  25.715  12.413
87221W        W58804  11.839  10.101  12.351
87222W        W58805  30.383  27.961  13.067
87223W        W58806  38.488  23.290   0.685
87224W        W58807  30.152  33.560  12.848
87225W        W58808  32.982  15.089   3.233
87226W        W58809  14.665  15.290   1.187
87227W        W58810  20.300   1.664  11.392
87228W        W58811  34.997  12.883  11.633
87229W        W58812  21.478   9.386   1.338
87230W        W58813  34.505  37.727   4.337
87231W        W58814   8.583  28.452   0.799
87232W        W58815  30.348   4.434  11.180
87233W        W58816  43.887  43.287  10.677
87234W        W58817   2.648  36.210  11.885
87235W        W58818  38.189  35.001  14.896
87236W        W58819  39.197  16.595  13.917
87237W        W58820  34.004  32.664   1.239
87238W        W58821   8.366   8.626  10.655
87239W        W58822  19.175  23.513  13.956
87240W        W58823  36.619  43.902   2.068
87241W        W58824  15.844  37.740   1.169
87242W        W58825   2.790  18.863   4.099
87243W        W58826  11.301  41.258   2.698
87244W        W58827  24.174   6.167  14.307
87245W        W58828   8.171   5.316   0.735
87246W        W58829  30.695  37.421   2.729
87247W        W58830  26.204  31.333   1.252
87248W        W58831   6.337  28.316  14.467
87249W        W58832  12.140  23.947   0.949
87250W        W58833   9.331   4.733  12.673
87251W        W58834  23.164  18.787  10.994
87252W        W58835  26.525   8.060   2.684
87253W        W58836  42.748  18.571   4.983
87254W        W58837   8.871   6.697  14.044
87255W        W58838   6.538  12.280  12.081
87256W        W58839   2.975  29.211  14.051
87257W        W58840  43.483  17.122  10.315
87258W        W58841   2.976   7.304  14.332
87259W        W58842   8.356  27.445   2.885
87260W        W58843  32.107  32.416  14.579
87261W        W58844  25.754   4.329  11.386
87262W        W58845  37.328  16.411   2.837
87263W        W58846  14.332  35.010   0.023
87264W        W58847  37.819  14.841   4.311
87265W        W58848  34.569   3.900  12.484
87266W        W58849   8.881  12.003  12.117
87267W        W58850   1.186  14.902  10.683
87268W        W58851  19.056  32.904   3.883
87269W        W58852  39.524  16.926   1.861
87270W        W58853  44.770  16.706   2.796
87271W        W58854  12.199  37.495  14.437
87272W        W58855   1.994  33.688   2.747
87273W        W58856  37.013  12.824   0.178
87274W        W58857  20.481  33.494   4.058
87275W        W58858   8.874  39.829  12.435
87276W        W58859  19.112  27.388  14.032
87277W        W58860  12.320  23.021   1.285
87278W        W58861   5.924  24.673   2.034
87279W        W58862  44.972  20.267   0.533
87280W        W58863  37.061   5.159  10.374
87281W        W58864  43.859  32.855  11.123
87282W        W58865  24.921   7.247  14.980
87283W        W58866  31.231  24.597  11.571
87284W        W58867  44.734  38.459  14.416
87285W        W58868  44.290  32.298  11.400
87286W        W58869  14.795  25.233  13.147
87287W        W58870  29.657  15.676  11.603
87288W        W58871  37.354  24.376   4.511
87289W        W58872   0.803   7.279  12.027
87290W        W58873  23.141  20.690   2.625
87291W        W58874  40.356   6.110  13.502
87292W        W58875  31.797  13.645  10.780
87293W        W58876   0.976  11.616  14.465
87294W        W58877  34.885  24.938   2.128
87295W        W58878  18.622  41.264  11.861
87296W        W58879   1.836  17.061   1.193
87297W        W58880   9.340  23.023  10.988
87298W        W58881  31.448  20.183   0.537
87299W        W58882  34.586  42.220   4.054
87300W        W58883  21.654   3.177   4.544
87301W        W58884   6.420  18.564  13.412
87302W        W58885   4.730  28.431  14.309
87303W        W58886  13.451  36.499   0.829
87304W        W58887  19.797  37.992   3.627
87305W        W58888   6.853  19.123   2.467
87306W        W58889  10.559   7.963   1.808
87307W        W58890  37.298  27.283   3.928
87308W        W58891  17.043  28.453   3.200
87309W        W58892   5.825  36.531   1.405
87310W        W58893  22.828  32.439   1.277
87311W        W58894   8.519  40.026  12.040
87312W        W58895  43.587  11.304   2.771
87313W        W58896   1.618  17.768   4.688
87314W        W58897  35.598  21.484   1.232
87315W        W58898  18.604  34.991  10.640
87316W        W58899  20.660   6.731  11.649
87317W        W58900   8.822  16.037  11.383
87318W        W58901  12.660  12.565  13.023
87319W        W58902  15.173  15.157   4.858
87320W        W58903  18.160  24.804  11.062
87321W        W58904  34.828  39.908   4.443
87322W        W58905  28.708  38.380   4.014
87323W        W58906  25.755  12.424  12.850
87324W        W58907  25.473  38.563   0.977
87325W        W58908  24.608   6.747   2.607
87326W        W58909  13.608   2.516  13.471
87327W        W58910  42.031  32.443   0.361
87328W        W58911  40.070  26.622  10.250
87329W        W58912  42.332  42.506  12.519
87330W        W58913   6.070   0.752   1.440
87331W        W58914  44.805  10.449  14.854
87332W        W58915  22.663  39.513   1.369
87333W        W58916  28.156   1.191  10.988
87334W        W58917  31.987   6.266  13.840
87335W        W58918  26.968  19.685   0.011
87336W        W58919   7.072   6.834   1.014
87337W        W58920  30.852  15.687  12.255
87338W        W58921  26.465   9.345  12.000
87339W        W58922  20.139  28.538   2.892
87340W        W58923  22.367  30.148  12.496
87341W        W58924  40.159  29.146  11.543
87342W        W58925  31.398  15.748  11.138
87343W        W58926  42.471   7.747  13.858
87344W        W58927  33.099  20.684  12.529
87345W        W58928   3.293  44.472  14.446
87346W        W58929   8.576  14.740   0.005
87347W        W58930  14.680  19.498   2.831
87348W        W58931  39.523  35.363  12.235
87349W        W58932  18.262  32.577   2.808
87350W        W58933  38.308   9.171   4.389
87351W        W58934  26.428  35.718  11.100
87352W        W58935   8.034  39.420   3.641
87353W        W58936  18.577  43.037  11.097
87354W        W58937  38.092  13.764   1.107
87355W        W58938  11.596  14.423  10.024
87356W        W58939  30.290   8.965   0.479
87357W        W58940  15.206  24.008  11.513
87358W        W58941  25.315  11.277  13.805
87359W        W58942  14.859  32.274   4.916
87360W        W58943  15.278  41.746   3.900
87361W        W58944  37.389  24.978  11.595
87362W        W58945   8.797  27.803   4.179
87363W        W58946  13.065  24.527   1.249
87364W        W58947  16.964  20.181   2.917
87365W        W58948  27.479   1.274  12.697
87366W        W58949   8.198   5.981  14.510
87367W        W58950  38.885   0.308   2.659
87368W        W58951  10.810  10.189   4.949
87369W        W58952  21.145  22.987  10.597
87370W        W58953  20.050  31.745  13.700
87371W        W58954  15.207  16.524   3.686
87372W        W58955  35.046  38.620   2.756
87373W        W58956  17.696  21.246   3.241
87374W        W58957  23.971  20.045  13.422
87375W        W58958  18.521  23.646   4.699
87376W        W58959  27.389  35.677  10.745
87377W        W58960  33.869   7.577  12.140
87378W        W58961  40.412   4.916   1.209
87379W        W58962   0.363  16.753  13.266
87380W        W58963  15.763   2.836   2.133
87381W        W58964   8.867   6.128   2.801
87382W        W58965  37.588  35.516   1.565
87383W        W58966  28.261  27.151   3.231
87384W        W58967  25.031  29.012   3.411
87385W        W58968  28.907  14.711  14.047
87386W        W58969  41.763  19.235  10.810
87387W        W58970  41.800  40.109  10.226
87388W        W58971  40.930  27.001   4.735
87389W        W58972  37.920  32.040   4.022
87390W        W58973   6.740   9.734   2.049
87391W        W58974  40.370  34.032   3.875
87392W        W58975  12.080   3.875   2.198
87393W        W58976  31.031  34.813  12.260
87394W        W58977  36.166  26.647   2.934
87395W        W58978  11.736  11.941   2.768
87396W        W58979  27.659  13.979   4.052
87397W        W58980  31.938  39.024   0.458
87398W        W58981  34.921  29.440   0.853
87399W        W58982  23.793   7.118   1.390
87400W        W58983  11.921  30.719  11.364
87401W        W58984  19.542   8.761  11.640
87402W        W58985  35.995   7.611   4.895
87403W        W58986   5.457  39.822  13.778
87404W        W58987  25.862  36.389   2.769
87405W        W58988  44.858  42.062   0.483
87406W        W58989  40.813   4.988  10.522
87407W        W58990   3.909  33.013   4.744
87408W        W58991   1.954  25.349  12.180
87409W        W58992   4.688   8.828  11.689
87410W        W58993  43.510  32.052   2.143
87411W        W58994  42.162  11.997   2.800
87412W        W58995  29.829  20.676  12.412
87413W        W58996  18.093  27.942  14.013
87414W        W58997  16.028  12.667  14.614
87415W        W58998  38.418  35.341   2.649
87416W        W58999  17.038  16.635   4.097
87417W        W59000   1.003   6.261   1.685
87418W        W59001   6.398  13.559   2.810
87419W        W59002  28.067  20.513  13.382
87420W        W59003  24.601  26.418   2.467
87421W        W59004  41.240  23.713   2.865
87422W        W59005  39.447  33.235   3.754
87423W        W59006  19.470  37.852   3.278
87424W        W59007  28.078  37.692  13.443
87425W        W59008  13.525  19.263  11.970
87426W        W59009  34.542  38.401   2.738
87427W        W59010   3.300   2.141   2.756
87428W        W59011   4.432   9.801  13.829
87429W        W59012   7.285  30.417   3.241
87430W        W59013   7.439  42.755   1.399
87431W        W59014  21.127  25.020   4.488
87432W        W59015  43.691  23.933   1.198
87433W        W59016  20.750  19.539  14.893
87434W        W59017  19.626  36.029  14.933
87435W        W59018  28.421  10.894  12.381
87436W        W59019  17.518  41.952   1.670
87437W        W59020  13.135  29.047   3.973
87438W        W59021  27.979  33.300  13.071
87439W        W59022   8.238  21.072  11.673
87440W        W59023  40.416  18.791   3.408
87441W        W59024  30.323  38.866  13.043
87442W        W59025  38.097  17.896   3.240
87443W        W59026  18.500  13.315  11.622
87444W        W59027  15.096  31.359  10.591
87445W        W59028  21.637   3.645   3.794
87446W        W59029  17.037  19.182  13.446
87447W        W59030  23.010  34.949   3.193
87448W        W59031  18.304  17.048   0.535
87449W        W59032   9.217   4.965   4.537
87450W        W59033  29.941  27.651  12.571
87451W        W59034   1.850  31.555  13.555
87452W        W59035  37.337  15.587   0.761
87453W        W59036   2.996  34.811  14.311
87454W        W59037   6.439   0.399   1.504
87455W        W59038  34.910  12.263  14.886
87456W        W59039  38.326  34.476   1.324
87457W        W59040  26.608  30.973   1.477
87458W        W59041  35.181  14.582  13.937
87459W        W59042  33.881  17.288   0.508
87460W        W59043   8.604  26.159   2.768
87461W        W59044   2.977  34.922  14.892
87462W        W59045  40.851  33.127  12.052
87463W        W59046   3.700  21.229  13.936
87464W        W59047  36.792  36.605   2.956
87465W        W59048  36.091  24.234  11.510
87466W        W59049  16.686   9.182  14.232
87467W        W59050  16.349  26.965   3.320
87468W        W59051  13.051  41.363   2.217
87469W        W59052  15.891  38.246   1.316
87470W        W59053  29.441  24.243   0.718
87471W        W59054  38.564  13.846  12.980
87472W        W59055  21.008  30.996  11.482
87473W        W59056   9.620  41.002  13.477
87474W        W59057  18.578  19.852   4.561
87475W        W59058   8.791  12.366   0.835
87476W        W59059  23.996  17.977   3.075
87477W        W59060  35.619  16.691   3.623
87478W        W59061  34.623  29.992  11.503
87479W        W59062  42.871  23.833  13.257
87480W        W59063  41.035  30.447   1.045
87481W        W59064  41.126  10.808   3.386
87482W        W59065  16.309  30.898   1.186
87483W        W59066  26.231  27.556  13.722
87484W        W59067  32.959  28.239   4.343
87485W        W59068  11.692  16.022   0.749
87486W        W59069  18.031   3.448   0.790
87487W        W59070  19.747  39.793  10.478
87488W        W59071  39.427  36.005  11.524
87489W        W59072   2.678  38.519  11.570
87490W        W59073  27.611  33.038  10.118
87491W        W59074   3.715  10.284  14.062
87492W        W59075  37.490   3.495   3.192
87493W        W59076  37.086  38.013   4.058
87494W        W59077  28.349  28.348   4.244
87495W        W59078  19.753   0.372   3.347
87496W        W59079  44.152  24.499   1.940
87497W        W59080  13.336  20.805  12.485
87498W        W59081  18.211  18.354   1.672
87499W        W59082  20.094  24.051   2.761
87500W        W59083  32.085  24.228  14.355
87501W        W59084  14.259  10.868  13.258
87502W        W59085  21.286  17.244   3.908
87503W        W59086  31.146   4.371  11.855
87504W        W59087  17.910  15.208   4.112
87505W        W59088  29.478  31.892  10.306
87506W        W59089   5.847  20.131  10.710
87507W        W59090  29.034  31.589  13.508
87508W        W59091  21.792  22.594  13.930
87509W        W59092  11.711  21.280   5.256
87510W        W59093   2.821   7.921   0.952
87511W        W59094  15.134  39.107   1.684
87512W        W59095  39.463   0.096  12.014
87513W        W59096  32.679  43.477   1.809
87514W        W59097  13.813  44.940  11.128
87515W        W59098  32.142  37.588   3.732
87516W        W59099  44.215   6.208   0.226
87517W        W59100  29.623  20.505   5.106
87518W        W59101   7.876   1.544   0.922
87519W        W59102  37.791   9.677   4.033
87520W        W59103  18.389   6.885   0.434
87521W        W59104  23.998   2.251   3.185
87522W        W59105  30.038  38.280   4.362
87523W        W59106   7.623  34.162  14.308
87524W        W59107  16.587  42.753   3.785
87525W        W59108  19.049  43.912   1.431
87526W        W59109  28.603  14.704  14.492
87527W        W59110  25.122  16.605  13.898
87528W        W59111   6.477  20.587   4.303
87529W        W59112  31.737  37.625  12.117
87530W        W59113  37.628  23.780   0.988
87531W        W59114  26.965  29.669  14.749
87532W        W59115   7.702  22.508   0.268
87533W        W59116  20.133  26.790   3.221
87534W        W59117  35.607   4.544   2.408
87535W        W59118  33.908  37.004   1.777
87536W        W59119   7.360  35.469  14.389
87537W        W59120  17.718  36.547   4.294
87538W        W59121  34.494  15.836   3.585
87539W        W59122  11.370   5.604   4.419
87540W        W59123  23.023   8.914  12.404
87541W        W59124  29.151   2.261  14.343
87542W        W59125   9.838   7.263   1.894
87543W        W59126  32.818  44.806   2.383
87544W        W59127  23.905   5.408  10.614
87545W        W59128   2.429  35.658   0.807
87546W        W59129   2.285  44.286  13.315
87547W        W59130  23.245   9.276  13.520
87548W        W59131  16.095  13.586   0.041
87549W        W59132  12.105  36.507  10.440
87550W        W59133  41.410  15.091   0.708
87551W        W59134  34.693  41.739  14.492
87552W        W59135  44.426  36.274  13.757
87553W        W59136   8.413  12.425   2.865
87554W        W59137   6.164  15.361  11.590
87555W        W59138  13.957  21.230  12.956
87556W        W59139  28.366   0.492  13.882
87557W        W59140  22.983  19.531  14.076
87558W        W59141  44.780  17.486   2.167
87559W        W59142  13.278  15.184  12.592
87560W        W59143   8.878  36.623   1.991
87561W        W59144  23.142  11.173  12.874
87562W        W59145   4.457  33.221  10.789
87563W        W59146  19.311  21.143  14.958
87564W        W59147  35.865  18.627   1.597
87565W        W59148  33.346  26.281  12.192
87566W        W59149  12.847  13.451   1.669
87567W        W59150   7.779  38.120   2.745
87568W        W59151  26.404  32.004  14.535
87569W        W59152  16.567   6.479   0.435
87570W        W59153   4.397  13.824   4.660
87571W        W59154  27.601  28.975  13.364
87572W        W59155  32.975  34.174  10.787
87573W        W59156  28.620  41.511   0.459
87574W        W59157  44.531  29.431  11.152
87575W        W59158  17.056  44.427  10.895
87576W        W59159  25.943  20.433  11.907
87577W        W59160  40.940  44.424  14.743
87578W        W59161  17.862  35.938  11.160
87579W        W59162  29.089  11.173   4.794
87580W        W59163  43.237  39.244   3.487
87581W        W59164  16.307  44.374  13.755
87582W        W59165  30.121  31.926  13.667
87583W        W59166  31.443  32.131   0.702
87584W        W59167   0.898  18.670  12.929
87585W        W59168   4.353   2.696  11.841
87586W        W59169   1.701  12.079  14.743
87587W        W59170  19.436  23.100   5.500
87588W        W59171  38.458  11.375   3.444
87589W        W59172  24.265  21.842  11.685
87590W        W59173  15.010  23.498   3.184
87591W        W59174   6.428  16.898   3.168
87592W        W59175  22.991  19.057   2.468
87593W        W59176  21.660  30.567  14.606
87594W        W59177  14.238  13.330  13.778
87595W        W59178   3.651  15.622  14.796
87596W        W59179  20.652  18.103  14.026
87597W        W59180  40.385   3.489  14.575
87598W        W59181  15.595  29.908  11.526
87599W        W59182   8.432  33.549   4.632
87600W        W59183   8.133  15.278  11.465
87601W        W59184  43.525  17.332  12.940
87602W        W59185   5.831   9.447   4.484
87603W        W59186  23.212   7.173   2.810
87604W        W59187  13.875  42.042   1.494
87605W        W59188  23.212  27.504   0.503
87606W        W59189   8.684  11.784   0.268
87607W        W59190   2.918  33.598   2.700
87608W        W59191  22.474   6.633  11.000
87609W        W59192  35.879   9.355   0.551
87610W        W59193  27.850  27.178  12.869
87611W        W59194  14.772   5.326   2.343
87612W        W59195   0.247  32.596  11.965
87613W        W59196   0.569   1.315   1.498
87614W        W59197  44.257  20.321   3.709
87615W        W59198  42.059  12.518   2.747
87616W        W59199  41.015  41.988   1.021
87617W        W59200  20.753   7.811  11.283
87618W        W59201   7.641  10.219  12.939
87619W        W59202   3.208  40.802   4.634
87620W        W59203  20.019  24.918  14.089
87621W        W59204  32.531  38.328  10.711
87622W        W59205  34.536  37.329  11.176
87623W        W59206  14.643  20.534   2.843
87624W        W59207  36.829  17.854  10.624
87625W        W59208  16.898   3.779  11.405
87626W        W59209   6.373  14.353  13.764
87627W        W59210   6.270   5.955   2.205
87628W        W59211   1.917  38.941  10.312
87629W        W59212  33.098  42.044  14.067
87630W        W59213  17.594  39.356  13.863
87631W        W59214  29.139  27.896  13.558
87632W        W59215  37.413  37.061  10.667
87633W        W59216  39.018   5.204  10.229
87634W        W59217  24.640  31.843   1.417
87635W        W59218  32.439  29.535  13.937
87636W        W59219  30.563  10.433  13.360
87637W        W59220  28.481  17.543   2.073
87638W        W59221  43.030  11.200   0.842
87639W        W59222   1.323  13.582  11.487
87640W        W59223  22.984  32.350   4.714
87641W        W59224  37.745  21.614   0.182
87642W        W59225  27.576  33.924   2.731
87643W        W59226  21.992  43.981  14.382
87644W        W59227  41.799  25.126  13.603
87645W        W59228   3.225  33.149   0.827
87646W        W59229  28.931  21.309   9.797
87647W        W59230  34.545  42.061  13.607
87648W        W59231  40.964  36.030  13.886
87649W        W59232   3.634  14.817  14.876
87650W        W59233  35.053  39.407  12.149
87651W        W59234  41.786  11.788   1.687
87652W        W59235  30.907  22.973  11.584
87653W        W59236   3.697  27.235   4.500
87654W        W59237  40.756   2.930  11.049
87655W        W59238  32.140  22.468   5.434
87656W        W59239  26.700  37.858  12.556
87657W        W59240  43.861  43.085   1.151
87658W        W59241  33.428  21.840  11.626
87659W        W59242  34.389  33.521  10.665
87660W        W59243  27.725  18.018  11.920
87661W        W59244   5.118   7.970  13.504
87662W        W59245  28.612  20.709   1.234
87663W        W59246  44.805  40.946   3.282
87664W        W59247  39.920   8.443   1.698
87665W        W59248  32.040   9.390   4.210
87666W        W59249  38.446  22.366   3.613
87667W        W59250  38.456  24.958  10.622
87668W        W59251   0.906  27.601   4.667
87669W        W59252  40.570  34.919   3.305
87670W        W59253  38.755  21.746  12.085
87671W        W59254  35.285   0.850  12.642
87672W        W59255  35.061  13.689   0.771
87673W        W59256  20.016   6.095   4.129
87674W        W59257  36.299  16.290   4.146
87675W        W59258  16.573  34.552   0.373
87676W        W59259  33.878  24.513  13.873
87677W        W59260  13.373  13.121   0.412
87678W        W59261   9.380  32.719  12.034
87679W        W59262   3.251  37.855  11.091
87680W        W59263  38.849   5.672   0.694
87681W        W59264  12.145  13.311  13.886
87682W        W59265  42.674  31.656  12.098
87683W        W59266  16.191  39.140  11.250
87684W        W59267  32.417  44.333   3.961
87685W        W59268   8.524   8.623   9.836
87686W        W59269   7.336  44.494  11.555
87687W        W59270  41.476  16.132  12.516
87688W        W59271  33.405   6.522   5.060
87689W        W59272  30.110  30.670  11.070
87690W        W59273   5.861  44.461  12.488
87691W        W59274  41.160  35.797   2.440
87692W        W59275  13.933  18.078  13.987
87693W        W59276  16.837   6.735   4.606
87694W        W59277  30.287  22.075   0.495
87695W        W59278  35.430  21.322  10.311
87696W        W59279   0.004   5.246  11.158
87697W        W59280  19.975  30.332   4.075
87698W        W59281   9.470  33.510  11.719
87699W        W59282  44.197  13.120  14.955
87700W        W59283   1.326  41.745  11.195
87701W        W59284  35.395  41.786   2.738
87702W        W59285  35.279  10.863  10.845
87703W        W59286  25.631  19.008  12.445
87704W        W59287  40.346   2.025   3.241
87705W        W59288  40.519  23.472  11.627
87706W        W59289  29.133  17.069  10.865
87707W        W59290   6.351  17.428   3.161
87708W        W59291  36.630  18.211  10.986
87709W        W59292   4.108  35.217   1.722
87710W        W59293  31.209   1.838   3.640
87711W        W59294  24.660  30.893  13.411
87712W        W59295  31.532   0.394   0.460
87713W        W59296  15.038  14.340   3.723
87714W        W59297   9.146  27.185  14.851
87715W        W59298   9.335   6.874  13.291
87716W        W59299  25.796  13.738   4.213
87717W        W59300   2.196  11.905  12.044
87718W        W59301  30.425   6.347  13.725
87719W        W59302   5.888  13.542  12.728
87720W        W59303  18.228  19.574   1.106
87721W        W59304  22.891  10.082  10.632
87722W        W59305  43.041  44.801   0.670
87723W        W59306  40.981   5.943  10.763
87724W        W59307  24.466  40.565  12.561
87725W        W59308  30.659  28.099   3.188
87726W        W59309  25.880  44.286   2.727
87727W        W59310  22.503   5.308  13.989
87728W        W59311  37.937   1.967  13.878
87729W        W59312  10.658  11.605  12.781
87730W        W59313   6.337  32.944   3.239
87731W        W59314  40.346  26.928  10.706
87732W        W59315  33.503  33.797  14.465
87733W        W59316  19.461  17.143   4.138
87734W        W59317  37.919  10.734   0.658
87735W        W59318  36.378  21.323   2.228
87736W        W59319  25.037  17.396   2.388
87737W        W59320  23.863  13.373   5.135
87738W        W59321  23.209  26.263  11.698
87739W        W59322   5.345  41.785  11.878
87740W        W59323  20.070  44.782   3.273
87741W        W59324  14.326  17.901   0.018
87742W        W59325   6.905  28.911   2.477
87743W        W59326  17.108  41.757  12.592
87744W        W59327  31.914  29.426  10.746
87745W        W59328  12.824  26.484  10.522
87746W        W59329  13.078  11.532  13.548
87747W        W59330  15.228  10.709   2.410
87748W        W59331  28.552  38.330  14.672
87749W        W59332   7.829   1.484   2.473
87750W        W59333   6.147  16.584   4.638
87751W        W59334  35.022  16.045  10.694
87752W        W59335  28.863  25.598   1.365
87753W        W59336  41.784  42.636   0.712
87754W        W59337  41.535  40.994  13.915
87755W        W59338  14.240  36.590   2.173
87756W        W59339   8.394  38.139  11.094
87757W        W59340  10.275  18.605  10.559
87758W        W59341  14.522   9.154   2.767
87759W        W59342  37.017  16.308  13.034
87760W        W59343  44.506   3.302  14.059
87761W        W59344   1.442  13.588   0.355
87762W        W59345  31.033  24.404   0.029
87763W        W59346  29.002  30.534   2.774
87764W        W59347  42.533   7.614  11.987
87765W        W59348  11.381  34.119   0.809
87766W        W59349  18.601  39.054  12.057
87767W        W59350  28.127  16.051  13.323
87768W        W59351  41.312   3.666   0.790
87769W        W59352  23.376   6.484  11.364
87770W        W59353  24.306  34.247   4.201
87771W        W59354  26.604  15.635  13.895
87772W        W59355  37.564  10.224  11.058
87773W        W59356  16.823  41.805   0.283
87774W        W59357  36.891  22.322  14.519
87775W        W59358  27.603  26.897  11.108
87776W        W59359  11.225  15.551   2.643
87777W        W59360  11.945   8.604   0.279
87778W        W59361  27.344  35.697   0.387
87779W        W59362  31.491  25.349   0.315
87780W        W59363   2.834   5.388   2.728
87781W        W59364  33.520  32.966   2.361
87782W        W59365  37.167  10.415  11.738
87783W        W59366  21.870  15.149   3.204
87784W        W59367   4.431  16.741  11.528
87785W        W59368  12.702  26.014  10.733
87786W        W59369  25.677  13.268   2.922
87787W        W59370  36.955  19.477   3.330
87788W        W59371  38.013  22.645   2.360
87789W        W59372  20.469  18.464   2.675
87790W        W59373   1.867   4.730   1.626
87791W        W59374  33.925   2.273  10.907
87792W        W59375  36.653  34.932  12.966
87793W        W59376  44.002  18.558  12.494
87794W        W59377  17.128  18.357   2.697
87795W        W59378  27.960   0.824  11.899
87796W        W59379  10.429  35.780  11.448
87797W        W59380  29.565   2.852  14.853
87798W        W59381  20.165   5.457   2.796
87799W        W59382  24.552  27.741  11.607
87800W        W59383   5.161   7.956   1.943
87801W        W59384   2.494   5.565   0.407
87802W        W59385   0.256  10.773  12.866
87803W        W59386  20.742  17.403   3.773
87804W        W59387  28.119  29.725  10.914
87805W        W59388  25.780  34.550   1.800
87806W        W59389  40.663  18.790  14.285
87807W        W59390  26.507   0.543  13.809
87808W        W59391  39.298  23.939  13.466
87809W        W59392  17.721  16.238   0.274
87810W        W59393  15.113  33.421  14.590
87811W        W59394   1.919   2.885  13.020
87812W        W59395   2.278  40.946   3.043
87813W        W59396  29.132   5.609  12.445
87814W        W59397  16.737  25.352   0.310
87815W        W59398  35.937   9.668  11.552
87816W        W59399   0.884  40.985   2.288
87817W        W59400   8.664   5.280  10.598
87818W        W59401  11.252  33.103   0.773
87819W        W59402  25.608  37.872   0.251
87820W        W59403  17.305  42.918  13.448
87821W        W59404  38.458  43.378   1.421
87822W        W59405  20.008   3.416  12.443
87823W        W59406   8.780  33.839  11.710
87824W        W59407  27.570  23.158  10.280
87825W        W59408   0.206  32.501  14.339
87826W        W59409  13.423  41.523  11.169
87827W        W59410  32.115  14.813   2.388
87828W        W59411  17.144  22.323   2.151
87829W        W59412  24.626  14.060  14.225
87830W        W59413  32.728  31.343  13.618
87831W        W59414  11.128  13.389  12.618
87832W        W59415  43.472  20.759  12.989
87833W        W59416  41.033  32.791  12.424
87834W        W59417   9.824  11.148  13.025
87835W        W59418  23.677  22.277   1.792
87836W        W59419  41.794  32.060  11.618
87837W        W59420  31.196  39.741  10.598
87838W        W59421  37.810   3.245   3.773
87839W        W59422   5.467  44.656   3.947
87840W        W59423  18.273   2.797  14.924
87841W        W59424  32.938  35.034  11.190
87842W        W59425  38.308  32.606   1.410
87843W        W59426  38.826  32.585  11.101
87844W        W59427   7.153   1.879  12.444
87845W        W59428   7.702  14.715   2.420
87846W        W59429  32.854  26.122  12.354
87847W        W59430  14.030  27.961  14.049
87848W        W59431  39.946  27.876   1.394
87849W        W59432  28.087   5.908   3.652
87850W        W59433  31.591  44.573   1.432
87851W        W59434  35.196   7.967  12.425
87852W        W59435  13.078  35.238  11.235
87853W        W59436  12.028   8.138  11.714
87854W        W59437  42.490  13.394  11.468
87855W        W59438  23.797  20.513  10.860
87856W        W59439   5.714   4.943  13.122
87857W        W59440  23.259  23.184  12.335
87858W        W59441  20.310  44.407   0.827
87859W        W59442  21.010  17.350  10.120
87860W        W59443  16.506  15.172  11.925
87861W        W59444  22.771  18.652   2.229
87862W        W59445  37.100  14.380  10.692
87863W        W59446   4.462  13.733   0.835
87864W        W59447  27.577  36.353  14.955
87865W        W59448  29.966  38.800   2.180
87866W        W59449  37.372  25.914   0.211
87867W        W59450  44.977  25.185  10.646
87868W        W59451  39.231  40.160   0.763
87869W        W59452   9.336  18.870   4.964
87870W        W59453  41.719  18.727   3.620
87871W        W59454  25.728  40.747   1.330
87872W        W59455  40.833  19.815   3.895
87873W        W59456  20.519   4.166  13.295
87874W        W59457   5.555  27.988   2.770
87875W        W59458  44.232  17.590  14.501
87876W        W59459  30.102  41.943   0.851
87877W        W59460  15.390  44.295  11.652
87878W        W59461  11.329  39.891  12.107
87879W        W59462  27.717  27.601  13.926
87880W        W59463  30.573   6.188   3.252
87881W        W59464  21.692  14.932   4.473
87882W        W59465  10.611   9.776   2.135
87883W        W59466  14.819  12.436  13.042
87884W        W59467  14.566  20.418  10.587
87885W        W59468  18.641   9.912   1.159
87886W        W59469   7.110  40.797   4.042
87887W        W59470  32.418  26.285   0.247
87888W        W59471  43.889  10.418  11.006
87889W        W59472  41.307  27.243   2.773
87890W        W59473  17.527  27.886   2.125
87891W        W59474  40.824   4.851   3.236
87892W        W59475  24.499  40.846   3.389
87893W        W59476  12.157  35.045   1.738
87894W        W59477  24.643  37.953   1.748
87895W        W59478  43.853  35.552  12.596
87896W        W59479  43.488   2.402  14.942
87897W        W59480  21.211  17.660   2.131
87898W        W59481  12.755  42.202   0.790
87899W        W59482  23.090  18.402   2.637
87900W        W59483  14.312  25.444  12.909
87901W        W59484   5.447   2.128   0.768
87902W        W59485  40.340  37.071  12.417
87903W        W59486   8.168  33.473   0.379
87904W        W59487  40.858   9.772  11.064
87905W        W59488  33.929  17.268   2.376
87906W        W59489  35.348  26.912   0.480
87907W        W59490  40.068  32.847  11.105
87908W        W59491  13.623   7.339   2.317
87909W        W59492  41.326  33.840   4.880
87910W        W59493  31.041  27.473   3.261
87911W        W59494   4.816  37.582  10.418
87912W        W59495  23.042  22.063  13.863
87913W        W59496   3.558  27.002  13.660
87914W        W59497  20.777  22.989   0.375
87915W        W59498  24.633  36.048   0.468
87916W        W59499  14.648  29.717  10.574
87917W        W59500  11.463  21.693   1.928
87918W        W59501  19.603  42.324  10.665
87919W        W59502   0.513  16.634   3.262
87920W        W59503  30.126  21.227  13.625
87921W        W59504  15.710   7.637  14.042
87922W        W59505  37.292  16.785  14.815
87923W        W59506  21.094   4.427   3.567
87924W        W59507  26.378   5.796   1.789
87925W        W59508  20.917  19.092   3.135
87926W        W59509  43.344   6.767  14.399
87927W        W59510  30.600   1.253   0.325
87928W        W59511  34.616  42.482  11.246
87929W        W59512  32.469  44.666  12.498
87930W        W59513   8.393  14.717  14.532
87931W        W59514  42.081   7.860  11.993
87932W        W59515   2.886  14.118  11.030
87933W        W59516  16.669  30.119  14.812
87934W        W59517  16.149   9.640  10.732
87935W        W59518   7.894  16.997  11.224
87936W        W59519   4.921   6.213   1.396
87937W        W59520   4.770   8.146  14.762
87938W        W59521  17.614  37.839   4.637
87939W        W59522  16.646  10.726  12.001
87940W        W59523  39.642   5.552   0.486
87941W        W59524  41.895  24.056   0.825
87942W        W59525  32.456  32.605  14.266
87943W        W59526  20.853  25.750  11.451
87944W        W59527   8.111  31.681  11.882
87945W        W59528  16.344  36.134  12.479
87946W        W59529   0.067   8.719   3.186
87947W        W59530   0.671  25.120   3.112
87948W        W59531  41.341  16.140  10.674
87949W        W59532  33.963  15.199   0.819
87950W        W59533  40.465  22.277   3.373
87951W        W59534  19.987  10.421  11.529
87952W        W59535  27.543  37.408   3.478
87953W        W59536  36.371  27.045   1.783
87954W        W59537  34.783  35.057   0.341
87955W        W59538   7.811  32.341  14.816
87956W        W59539   5.165   8.342  10.691
87957W        W59540  16.552  29.752   3.360
87958W        W59541   9.483  18.044   2.240
87959W        W59542   1.207  19.524  11.613
87960W        W59543   2.295   1.248   0.226
87961W        W59544  12.211  26.391  12.848
87962W        W59545  22.235   6.895   0.931
87963W        W59546   0.996  16.429  14.864
87964W        W59547   4.989  29.506  14.964
87965W        W59548  33.901  27.225  12.197
87966W        W59549  17.838  23.549  12.659
87967W        W59550  17.493   9.861  11.126
87968W        W59551  38.012  20.688  13.155
87969W        W59552  14.739  22.569  12.464
87970W        W59553  36.580  20.078  14.299
87971W        W59554  36.393   1.732   3.672
87972W        W59555  36.885  36.910   2.198
87973W        W59556  44.548  38.624  12.113
87974W        W59557  30.679  32.043   4.505
87975W        W59558   2.210  26.845  14.840
87976W        W59559  30.629  22.889  13.679
87977W        W59560  27.548   1.093  11.772
87978W        W59561   0.342  13.768   2.301
87979W        W59562  16.882  35.642  11.494
87980W        W59563  24.090  44.082   4.406
87981W        W59564   6.635  19.902  12.688
87982W        W59565  13.386  23.500   3.759
87983W        W59566  34.575  12.405  13.559
87984W        W59567  27.702  21.139  11.920
87985W        W59568  18.155  28.205   2.900
87986W        W59569  24.269  17.718   1.806
87987W        W59570  21.009  38.548   3.167
87988W        W59571  23.973  44.421   2.597
87989W        W59572  36.087   1.644  11.107
87990W        W59573  42.643   1.059  13.785
87991W        W59574  32.104  25.143  14.836
87992W        W59575  14.970  20.712   1.146
87993W        W59576  14.691  11.647  10.472
87994W        W59577  13.582  17.141   2.459
87995W        W59578  38.343  44.792   1.412
87996W        W59579   2.921  33.127   2.422
87997W        W59580  35.657   1.269   0.812
87998W        W59581  25.226  25.505  12.038
87999W        W59582  41.124  18.589   2.803
88000W        W59583  25.889  24.237  11.134
88001W        W59584   6.744  30.147  12.101
88002W        W59585  29.911  21.637   9.935
88003W        W59586  34.366  24.114  12.822
88004W        W59587   7.769  10.577  11.130
88005W        W59588  19.702  22.285   4.023
88006W        W59589  43.982   9.434  11.872
88007W        W59590  15.158   9.736   2.265
88008W        W59591  41.917  35.316   3.865
88009W        W59592  41.836  26.576   3.755
88010W        W59593  33.331  43.421   3.160
88011W        W59594  43.558  24.702  13.504
88012W        W59595  22.589   8.960  10.288
88013W        W59596  37.089   8.341  12.542
88014W        W59597  40.904   0.320   2.585
88015W        W59598  31.345  21.655  13.569
88016W        W59599   1.398   9.245  12.757
88017W        W59600  24.663  44.690   3.282
88018W        W59601   9.309  34.518  12.439
88019W        W59602  28.231   5.611   3.208
88020W        W59603  13.919  41.349  11.067
88021W        W59604  38.932   5.352  11.605
88022W        W59605  33.978  41.563   3.017
88023W        W59606  36.494  13.866  12.970
88024W        W59607   4.863  29.476   4.532
88025W        W59608  17.362  11.223  14.818
88026W        W59609   7.415   6.928   4.131
88027W        W59610  30.849   0.662  10.324
88028W        W59611  30.678  39.064   1.753
88029W        W59612  29.467   8.159  12.903
88030W        W59613  23.628   9.401   0.960
88031W        W59614  15.660  31.629   4.077
88032W        W59615  33.147  14.006  14.261
88033W        W59616  37.327   4.810   0.679
88034W        W59617  43.352  21.400  11.538
88035W        W59618  27.711  12.394  12.458
88036W        W59619  31.330  36.280  10.886
88037W        W59620  10.749  37.095   0.936
88038W        W59621  12.132  25.652   1.633
88039W        W59622   3.904  29.165  10.662
88040W        W59623  21.083  16.236   0.863
88041W        W59624  26.924  35.403   2.315
88042W        W59625  13.383   1.431  12.604
88043W        W59626  35.341  25.729   1.219
88044W        W59627  26.631   8.340  11.101
88045W        W59628  34.513  40.070  10.542
88046W        W59629  35.112  12.728   0.104
88047W        W59630  41.880  12.868  12.901
88048W        W59631  16.340  19.643   3.834
88049W        W59632  33.470  19.338  14.488
88050W        W59633  33.031  15.158   0.785
88051W        W59634  23.265  16.546   3.626
88052W        W59635  44.957  29.533   0.087
88053W        W59636  37.979  28.063  14.765
88054W        W59637   3.152   9.342   4.589
88055W        W59638  10.346  22.154   3.581
88056W        W59639  42.824   0.692   1.790
88057W        W59640  12.275  26.552   3.815
88058W        W59641  18.929  41.169   3.831
88059W        W59642  22.163  12.696   4.780
88060W        W59643  39.980  12.393  13.832
88061W        W59644  42.296  26.571   2.487
88062W        W59645  17.113  35.444  10.095
88063W        W59646  15.332   3.622  13.571
88064W        W59647  23.799  17.105   0.381
88065W        W59648   8.979  20.731  11.675
88066W        W59649  43.026   7.660   2.250
88067W        W59650  26.155  35.687   0.991
88068W        W59651  37.518   0.942   2.862
88069W        W59652  17.415   6.698  14.131
88070W        W59653  27.424  33.695  11.089
88071W        W59654  15.017  19.066  14.854
88072W        W59655  24.299  24.502   4.772
88073W        W59656  16.696  13.179  11.116
88074W        W59657  40.135  14.633  11.679
88075W        W59658  10.273  35.435   4.134
88076W        W59659  42.441   6.320   2.633
88077W        W59660  21.708  13.716   2.771
88078W        W59661  35.731  23.421   2.360
88079W        W59662   9.486  15.324   0.934
88080W        W59663  28.155  30.239  10.911
88081W        W59664  25.936  36.510  10.666
88082W        W59665  28.156  43.357  10.868
88083W        W59666  14.145  22.108   0.299
88084W        W59667  12.748  29.207  12.050
88085W        W59668  15.915  20.515  14.415
88086W        W59669  27.894  20.367   2.303
88087W        W59670  44.252  19.584   2.892
88088W        W59671   6.852   2.004   4.516
88089W        W59672  10.249  20.474  13.021
88090W        W59673  18.808  26.200   3.548
88091W        W59674  13.308  32.726   4.723
88092W        W59675  33.105  43.181   4.736
88093W        W59676  36.922  29.450   1.691
88094W        W59677   3.289  21.414  10.166
88095W        W59678  31.874   7.384  11.678
88096W        W59679  33.583  39.984   0.332
88097W        W59680  13.692   2.047   4.520
88098W        W59681  21.772   8.163   4.219
88099W        W59682  34.313   3.875  12.926
88100W        W59683   4.397  15.135  14.884
88101W        W59684  33.593  15.799   1.287
88102W        W59685   7.223  11.295  12.556
88103W        W59686   1.368   1.560  13.380
88104W        W59687   7.210  19.339  11.015
88105W        W59688  38.771  29.043   3.602
88106W        W59689  43.934  18.508   2.194
88107W        W59690   9.376  39.321  11.183
88108W        W59691  11.700   2.844  14.113
88109W        W59692  31.111   7.980   4.517
88110W        W59693   9.866  15.827  11.930
88111W        W59694  17.106  21.081   3.243
88112W        W59695  38.040  18.942   0.401
88113W        W59696  41.017   5.630   2.247
88114W        W59697  18.006  31.653  10.399
88115W        W59698   7.649  25.824  14.483
88116W        W59699   9.814  39.191  13.415
88117W        W59700  19.095  15.573  12.936
88118W        W59701  13.909   6.329   2.413
88119W        W59702  35.972  28.880   1.065
88120W        W59703  11.618  39.897   1.421
88121W        W59704   6.420  25.227  10.219
88122W        W59705   9.178  23.919   3.239
88123W        W59706  29.912  27.278  14.451
88124W        W59707  42.721  28.593  11.564
88125W        W59708  17.953  15.816  14.334
88126W        W59709   0.891  37.391  14.006
88127W        W59710  30.060   4.479   3.281
88128W        W59711  31.548  13.210  10.868
88129W        W59712  14.187  15.248   0.986
88130W        W59713  15.387  42.394   0.734
88131W        W59714  25.227  28.503  13.987
88132W        W59715  27.669  40.345   4.605
88133W        W59716  36.120  42.873  13.053
88134W        W59717  30.741  36.000   3.265
88135W        W59718   1.369  40.351   4.422
88136W        W59719  27.144  27.725  14.893
88137W        W59720  31.545  36.484   4.208
88138W        W59721   5.675   9.658  14.815
88139W        W59722   1.810  44.141   1.510
88140W        W59723   6.297  25.156   0.938
88141W        W59724  33.586  42.845  13.866
88142W        W59725  41.118  43.721   0.251
88143W        W59726  27.699   7.474  11.093
88144W        W59727  27.907  14.118  10.135
88145W        W59728   0.851  13.471   3.280
88146W        W59729  22.279   9.370  10.165
88147W        W59730  44.506  22.373  10.303
88148W        W59731  23.932  19.726  12.917
88149W        W59732  26.652  18.580   3.198
88150W        W59733  11.859  22.723   4.158
88151W        W59734  18.683  33.200  12.041
88152W        W59735  20.767  10.730   3.068
88153W        W59736  41.013  39.561  14.074
88154W        W59737  33.241  11.349   1.672
88155W        W59738  23.726  26.928   0.873
88156W        W59739  44.073  25.574   3.313
88157W        W59740   3.841  22.665  14.427
88158W        W59741  44.893  43.003   0.050
88159W        W59742  24.168  27.481   3.041
88160W        W59743  40.793  14.806   1.260
88161W        W59744  42.563  44.909  13.090
88162W        W59745  11.347  12.345   0.431
88163W        W59746  11.401  26.537  12.833
88164W        W59747   8.795  24.177   0.785
88165W        W59748  16.553  43.712  11.627
88166W        W59749  21.438  27.327   3.559
88167W        W59750  17.250   7.041  13.342
88168W        W59751  17.114  21.359   2.381
88169W        W59752  44.475  23.240  11.278
88170W        W59753  24.218   0.786  11.978
88171W        W59754  11.743  43.682   2.801
88172W        W59755  39.946  12.490   3.231
88173W        W59756  16.441   5.032  12.777
88174W        W59757  28.688  17.222  11.259
88175W        W59758  24.947   4.731  12.792
88176W        W59759  21.149  36.817   4.878
88177W        W59760   8.202  24.326   3.186
88178W        W59761  34.030  28.376  13.913
88179W        W59762  21.302  34.452   3.677
88180W        W59763  21.017  27.583   4.771
88181W        W59764  10.846   4.111  12.901
88182W        W59765  25.859  12.791  13.528
88183W        W59766  18.543  38.837  10.719
88184W        W59767  30.927  27.712  12.469
88185W        W59768  21.731  39.217   0.406
88186W        W59769  15.695   9.853   4.687
88187W        W59770  24.772  38.036  13.681
88188W        W59771  18.905  22.639  13.510
88189W        W59772   8.814  13.284  14.121
88190W        W59773  22.722  36.385   2.126
88191W        W59774  37.062  36.994  14.851
88192W        W59775   0.285  39.525  12.931
88193W        W59776  37.187   0.323  14.446
88194W        W59777  20.149  39.793   1.311
88195W        W59778  10.698  24.964  14.489
88196W        W59779  31.743   4.718   0.590
88197W        W59780  22.706  44.816  10.586
88198W        W59781  32.938  17.569  14.009
88199W        W59782   9.480  10.099  13.322
88200W        W59783  42.220  38.496  14.454
88201W        W59784  32.101  44.043   4.376
88202W        W59785   6.427  22.565  12.969
88203W        W59786  37.895  22.375  13.056
88204W        W59787  38.474  16.136  14.031
88205W        W59788  21.190  18.641   3.163
88206W        W59789  10.169  18.175   4.661
88207W        W59790  17.040  31.641  13.330
88208W        W59791  27.638  30.948  12.601
88209W        W59792  34.310  13.638   3.710
88210W        W59793  21.537  38.649  11.521
88211W        W59794  24.842  41.781   2.500
88212W        W59795  43.450  14.752  11.666
88213W        W59796   3.107   8.511   1.794
88214W        W59797  32.375  12.848  11.156
88215W        W59798  41.758   6.441  13.657
88216W        W59799   0.521  12.529  12.613
88217W        W59800  14.039  26.099  11.537
88218W        W59801  33.545  24.783  11.365
88219W        W59802  20.244  22.071   1.748
88220W        W59803  29.189  28.891   0.503
88221W        W59804   5.771  14.380  11.185
88222W        W59805  21.765   0.771   1.898
88223W        W59806   4.176   6.608  13.130
88224W        W59807   1.399  10.391   0.936
88225W        W59808  27.722  31.129   0.400
88226W        W59809  14.089  11.767  11.596
88227W        W59810   3.576  23.499  10.300
88228W        W59811  12.658  27.142   4.663
88229W        W59812  29.139  32.740  12.294
88230W        W59813  16.684  10.181   4.305
88231W        W59814   2.929  19.205   1.660
88232W        W59815   7.219  35.581  14.889
88233W        W59816  11.105  19.725   2.766
88234W        W59817  18.734  19.067  14.702
88235W        W59818  26.199   6.384  12.147
88236W        W59819   1.795  37.936   3.730
88237W        W59820   6.744  43.913  14.965
88238W        W59821  37.376  33.930  14.478
88239W        W59822  28.596  19.491   4.131
88240W        W59823  39.331  19.270   3.257
88241W        W59824   8.024  21.027   2.378
88242W        W59825   7.096  41.040  12.521
88243W        W59826  24.240  23.088  10.705
88244W        W59827  12.633   6.704   0.764
88245W        W59828  37.241  11.868   3.251
88246W        W59829  21.130  33.480  14.714
88247W        W59830  33.287  39.996  10.977
88248W        W59831  38.604   1.433   0.817
88249W        W59832  11.616  28.521  11.510
88250W        W59833  10.273  17.655  14.880
88251W        W59834  15.742  12.216   1.704
88252W        W59835  43.471  22.053  12.063
88253W        W59836  33.497  29.521  10.018
88254W        W59837  35.495  20.259  13.322
88255W        W59838  22.949  39.593   0.680
88256W        W59839  42.019  22.614  10.696
88257W        W59840  42.270   4.649  12.111
88258W        W59841  13.278  31.536   3.299
88259W        W59842  26.645  40.890  14.765
88260W        W59843  13.219  26.963  11.946
88261W        W59844  36.302  10.203  12.131
88262W        W59845   2.720  10.783  11.425
88263W        W59846  32.609  43.375  14.749
88264W        W59847  19.582  22.166   1.295
88265W        W59848  25.098  41.884  10.624
88266W        W59849   4.752  32.675  12.059
88267W        W59850  27.253  13.377   0.799
88268W        W59851  22.690  21.208  12.830
88269W        W59852  39.981   5.724  12.855
88270W        W59853  21.747  34.061  14.810
88271W        W59854  40.165  40.442   2.200
88272W        W59855  42.545  33.665   0.313
88273W        W59856  41.793  32.139   0.776
88274W        W59857  10.706  21.007  10.947
88275W        W59858  44.762  44.801   2.338
88276W        W59859  17.984  15.718  12.860
88277W        W59860  43.080   0.785  12.939
88278W        W59861  41.931   3.683   2.380
88279W        W59862   7.185  33.337   4.229
88280W        W59863  15.212  21.574  10.655
88281W        W59864   6.282  38.359  13.884
88282W        W59865   9.450  21.230   4.649
88283W        W59866  10.423   7.459   4.678
88284W        W59867   6.709  19.385  12.660
88285W        W59868  21.945  38.756  13.419
88286W        W59869  28.891  12.336   9.834
88287W        W59870  20.141  25.408  14.213
88288W        W59871  42.741   1.625   1.892
88289W        W59872  28.023   5.771  12.122
88290W        W59873  18.520  26.250  11.248
88291W        W59874  10.917  21.106   9.940
88292W        W59875  20.010  10.002  13.344
88293W        W59876  38.872  19.683   3.670
88294W        W59877  16.383  35.126   0.995
88295W        W59878  40.883   8.009   5.519
88296W        W59879  26.568  39.507   1.896
88297W        W59880  36.484  27.879   3.167
88298W        W59881  36.026  22.675   2.186
88299W        W59882   5.250  33.127   1.460
88300W        W59883  32.999  29.097  12.041
88301W        W59884  25.026  33.154  13.924
88302W        W59885  20.369   7.289  12.191
88303W        W59886  28.926   6.955  14.197
88304W        W59887  32.745  25.718  11.776
88305W        W59888  11.034   3.882   0.889
88306W        W59889  12.061   5.283  12.187
88307W        W59890  31.887  20.690   4.368
88308W        W59891  38.755  35.366   3.035
88309W        W59892  15.554  25.933   2.739
88310W        W59893  35.510   9.805   3.652
88311W        W59894  34.863   0.798  11.934
88312W        W59895  19.247  19.547   2.854
88313W        W59896  25.598   6.301  12.382
88314W        W59897  38.358  13.277   4.298
88315W        W59898   0.083  26.548   4.181
88316W        W59899  22.078  21.485  11.621
88317W        W59900   1.037  25.185   2.289
88318W        W59901   9.752  38.975  11.112
88319W        W59902  23.435  13.230   4.428
88320W        W59903   3.369  23.870   3.394
88321W        W59904  33.944  29.401   0.071
88322W        W59905  16.221   8.672  12.523
88323W        W59906  11.212  21.071   4.918
88324W        W59907  44.621  17.653  13.602
88325W        W59908  33.878  13.496  10.413
88326W        W59909  27.685   9.348  10.978
88327W        W59910  23.676  31.986   0.393
88328W        W59911  15.506  34.414   2.353
88329W        W59912  14.382  44.124  14.097
88330W        W59913  22.066  19.750   0.284
88331W        W59914  41.029  14.292  10.502
88332W        W59915  16.357  42.652  11.255
88333W        W59916  33.486  33.343   1.412
88334W        W59917  34.174  15.866   0.399
88335W        W59918  12.172  12.370  11.188
88336W        W59919  19.696   7.526   1.073
88337W        W59920  12.171  39.974   2.447
88338W        W59921  18.778   5.504   3.742
88339W        W59922  33.690   3.632  13.955
88340W        W59923   2.850   2.380  14.760
88341W        W59924  27.574  21.680  12.096
88342W        W59925  22.681   8.428  10.334
88343W        W59926  13.079  38.470  12.359
88344W        W59927  16.088   4.975   4.132
88345W        W59928  12.270  19.390   5.081
88346W        W59929  35.853  23.448   4.931
88347W        W59930   3.837   8.139   3.423
88348W        W59931  36.818  39.417  13.808
88349W        W59932  43.960   8.886  13.274
88350W        W59933  33.484   4.402  13.052
88351W        W59934  24.931  36.374  10.749
88352W        W59935  10.893   2.031   1.929
88353W        W59936  12.116  11.397   2.418
88354W        W59937   8.196  12.612  10.584
88355W        W59938   4.389  19.095   4.588
88356W        W59939  29.476  34.506   3.340
88357W        W59940  27.641  19.756   4.534
88358W        W59941   6.682  34.601   4.120
88359W        W59942  28.935  39.397   4.668
88360W        W59943   7.707  25.602  13.585
88361W        W59944  34.207  32.064   0.340
88362W        W59945   7.418  20.055   2.303
88363W        W59946  10.942  14.234   2.318
88364W        W59947  23.244   8.264  11.403
88365W        W59948  11.912  33.794  13.562
88366W        W59949  17.287  12.407  13.250
88367W        W59950  41.560  25.281   4.174
88368W        W59951  36.116   1.968  10.705
88369W        W59952   5.934  16.300  10.543
88370W        W59953  40.463  16.113  14.502
88371W        W59954  23.260  27.200   0.953
88372W        W59955  32.527   3.199  11.088
88373W        W59956   7.769   2.378   1.273
88374W        W59957  25.367   2.395   3.365
88375W        W59958  13.105   8.330   4.957
88376W        W59959  27.511  13.535   4.275
88377W        W59960   9.725  34.040   4.390
88378W        W59961   4.767  17.214   3.844
88379W        W59962  16.437  38.340   1.331
88380W        W59963  38.594  18.713   4.668
88381W        W59964   7.891  36.184  12.846
88382W        W59965  14.112   9.660   2.665
88383W        W59966   2.698   0.246   4.081
88384W        W59967  10.033   4.219  12.787
88385W        W59968  21.010   5.894   0.251
88386W        W59969   5.168  17.164  11.404
88387W        W59970   7.232  37.151  13.915
88388W        W59971  12.773   5.596   4.589
88389W        W59972  19.156  42.996  12.597
88390W        W59973  12.041   0.446  14.324
88391W        W59974  38.361  35.377   4.973
88392W        W59975  44.070  20.550  13.826
88393W        W59976  18.120  34.592   1.610
88394W        W59977   7.668   7.653  11.421
88395W        W59978  14.239   9.423  12.404
88396W        W59979   1.953   2.164  10.730
88397W        W59980  35.099   2.271  14.360
88398W        W59981  42.339  43.732  14.768
88399W        W59982   4.443  23.318  11.577
88400W        W59983  23.269  19.701  11.930
88401W        W59984  30.530  36.867  13.822
88402W        W59985  30.555   2.168   0.414
88403W        W59986   3.323  10.172   0.014
88404W        W59987  21.982  40.916   2.782
88405W        W59988  34.875   1.118  11.544
88406W        W59989  14.183  38.939  11.019
88407W        W59990  38.501   6.024   0.938
88408W        W59991   7.274  32.185   1.379
88409W        W59992  41.561  36.002   3.331
88410W        W59993  21.582   0.745   4.623
88411W        W59994   4.773   6.709   3.172
88412W        W59995  17.964  30.489  12.797
88413W        W59996  44.858  26.130  13.343
88414W        W59997  26.154  10.599  10.211
88415W        W59998  16.468  40.925   2.853
88416W        W59999   4.571  14.684   0.898
88417W        W60000  36.069  14.277   4.563
88418W        W60001  36.510  15.112   2.803
88419W        W60002  13.368  18.150  12.485
88420W        W60003   9.634  39.845   4.334
88421W        W60004  26.759  37.027  10.723
88422W        W60005   2.323  32.659   0.871
88423W        W60006  36.857  10.737  14.385
88424W        W60007  18.199   3.361   2.274
88425W        W60008  24.558  33.874  12.950
88426W        W60009  27.956  36.584  11.151
88427W        W60010  32.632  40.803  13.262
88428W        W60011  38.801   6.075  12.350
88429W        W60012  24.030  28.721  12.661
88430W        W60013  28.527   8.993  11.020
88431W        W60014  35.878  31.650   0.065
88432W        W60015  26.540  22.932  13.503
88433W        W60016  38.824  24.037  12.373
88434W        W60017   2.425  30.970  13.749
88435W        W60018  12.167  21.449   0.632
88436W        W60019   5.213  42.345  12.662
88437W        W60020  20.486  40.673   3.656
88438W        W60021  41.819  41.816   2.433
88439W        W60022  14.109  12.169  11.926
88440W        W60023  21.628   9.948   1.691
88441W        W60024  23.927  37.604   2.751
88442W        W60025  33.322  27.158   4.009
88443W        W60026  29.057  43.304   2.271
88444W        W60027   7.324  40.328  12.395
88445W        W60028  30.091  42.376  11.179
88446W        W60029  25.544  32.102   0.070
88447W        W60030  10.215  17.543   2.132
88448W        W60031   5.828  14.554   4.954
88449W        W60032  43.706  32.059   9.621
88450W        W60033  12.869   4.611   4.686
88451W        W60034   3.318  17.872   0.906
88452W        W60035  29.111  31.660   0.002
88453W        W60036  33.301  15.922  11.094
88454W        W60037  24.549  18.302   0.331
88455W        W60038  20.688  35.139   1.543
88456W        W60039  40.242  28.078  10.790
88457W        W60040  21.708  41.540  14.859
88458W        W60041  28.559  10.097  12.069
88459W        W60042  37.051  27.492  14.712
88460W        W60043   8.822  39.757   2.417
88461W        W60044  39.408   8.710  13.490
88462W        W60045  28.919   6.922   1.898
88463W        W60046  42.071  39.290  12.955
88464W        W60047   5.071  35.787   4.632
88465W        W60048  34.473  17.016   2.871
88466W        W60049  11.689  27.542  11.598
88467W        W60050   9.383  21.277  11.258
88468W        W60051  19.658  38.940  14.478
88469W        W60052  43.470  44.230  11.916
88470W        W60053  29.903  38.438  11.018
88471W        W60054   7.738  33.309   1.930
88472W        W60055  35.049  15.046   1.311
88473W        W60056   4.538  26.572  11.656
88474W        W60057  10.752  40.988  10.759
88475W        W60058  33.373  29.228   2.758
88476W        W60059  11.408  30.592   3.635
88477W        W60060  43.386  19.241   4.491
88478W        W60061  35.262  18.574  14.876
88479W        W60062  24.499  37.048   0.402
88480W        W60063  22.825  24.612  12.404
88481W        W60064  32.172   6.151   5.048
88482W        W60065  14.073  12.704  13.468
88483W        W60066  30.332  34.515   2.785
88484W        W60067   1.245  20.234   3.145
88485W        W60068   1.236  24.691  10.678
88486W        W60069   8.254  20.346  12.090
88487W        W60070  26.628  16.087  10.638
88488W        W60071  10.554  14.157  12.220
88489W        W60072  31.890  18.783   1.821
88490W        W60073  14.176  35.375   3.442
88491W        W60074  15.494  13.349  12.540
88492W        W60075   1.836   5.846   2.127
88493W        W60076  17.073  40.853  13.290
88494W        W60077  31.574  26.549   5.158
88495W        W60078  32.122  40.773  12.392
88496W        W60079  39.572  41.723  11.619
88497W        W60080  16.720  30.893  11.852
88498W        W60081  36.721  42.244   2.867
88499W        W60082  24.469  39.676   4.386
88500W        W60083  37.466  37.456   3.740
88501W        W60084  25.473  39.387  13.449
88502W        W60085  30.110  19.657   4.298
88503W        W60086   2.177  34.866  12.502
88504W        W60087  37.297  32.134   2.311
88505W        W60088  41.273  24.416   1.828
88506W        W60089   4.859  27.097   1.683
88507W        W60090  16.637  32.552   4.146
88508W        W60091  13.662   4.892   3.159
88509W        W60092  14.581  24.753  14.543
88510W        W60093  35.888   6.268  12.966
88511W        W60094   2.884  21.958  13.417
88512W        W60095  22.671  36.463  14.808
88513W        W60096  23.588  24.793   2.821
88514W        W60097   2.130  38.360   4.651
88515W        W60098  43.661  12.653  11.990
88516W        W60099  44.380  33.889  11.594
88517W        W60100   0.848   8.763  14.081
88518W        W60101   0.536   5.183  11.139
88519W        W60102  38.130  14.117  11.647
88520W        W60103  14.834  17.738  13.903
88521W        W60104  16.629  18.805  10.494
88522W        W60105  28.639  31.570   1.055
88523W        W60106  42.404  34.958   1.241
88524W        W60107  27.149   9.641  12.452
88525W        W60108  22.619  30.920   0.010
88526W        W60109  24.724  26.972   1.222
88527W        W60110  28.184  20.267  13.941
88528W        W60111   0.853  41.891  11.287
88529W        W60112   0.148  20.663  13.596
88530W        W60113  30.264  44.374   1.487
88531W        W60114  31.754  35.002   4.143
88532W        W60115  29.900   0.002  10.384
88533W        W60116   4.636   9.272  13.463
88534W        W60117   8.736  30.250  13.130
88535W        W60118  14.626  40.512   2.845
88536W        W60119  21.808  36.999   0.733
88537W        W60120  25.988   8.713  11.127
88538W        W60121  31.199  17.219   1.732
88539W        W60122  21.243   7.432  12.509
88540W        W60123  44.638  44.474  14.345
88541W        W60124  28.660  34.984  12.628
88542W        W60125  25.197  36.098   1.311
88543W        W60126  19.561  35.791   1.204
88544W        W60127  15.271  24.155   4.736
88545W        W60128  13.572  30.088  12.911
88546W        W60129   1.810  11.815   3.589
88547W        W60130  37.287  10.915  11.677
88548W        W60131  18.305   9.293   2.331
88549W        W60132   2.489  36.589   2.576
88550W        W60133   8.151  25.060   1.971
88551W        W60134  13.187  11.778  11.078
88552W        W60135  16.560  24.545  14.939
88553W        W60136  24.756  12.683   3.701
88554W        W60137   3.195   7.625   0.760
88555W        W60138   8.799  39.918  14.330
88556W        W60139  15.520  15.243   5.245
88557W        W60140   3.354  27.720   3.233
88558W        W60141  38.583  28.008   3.207
88559W        W60142   8.812  44.955  12.389
88560W        W60143  16.156  27.057   1.001
88561W        W60144  24.060  35.950   1.810
88562W        W60145  35.498  15.674   1.654
88563W        W60146  14.181  13.754   0.522
88564W        W60147  23.309  34.990  14.371
88565W        W60148  10.228  39.521   2.255
88566W        W60149   0.435  29.919  14.352
88567W        W60150  11.442   5.501  14.398
88568W        W60151   5.276  41.443   2.310
88569W        W60152   5.203   7.853   1.439
88570W        W60153  37.871  17.914   2.777
88571W        W60154  37.201  31.933   1.811
88572W        W60155  25.080  38.093   2.024
88573W        W60156   4.893  29.012  13.900
88574W        W60157   8.546  37.346   3.573
88575W        W60158   1.433  33.873  10.546
88576W        W60159  15.844  28.953  13.035
88577W        W60160   6.186  15.621   0.234
88578W        W60161   5.709  16.048   1.266
88579W        W60162  16.534  29.157   2.822
88580W        W60163  35.481  27.997  10.939
88581W        W60164  38.354  28.243   4.504
88582W        W60165  42.070   9.854  12.546
88583W        W60166  43.838   1.542   3.754
88584W        W60167  23.347   9.491   5.480
88585W        W60168  10.776  42.341   2.306
88586W        W60169  14.625  20.044  13.196
88587W        W60170  28.489   3.247   3.165
88588W        W60171  40.363  26.146  14.031
88589W        W60172   7.037   8.655   3.710
88590W        W60173  16.785  25.731   3.170
88591W        W60174  22.130   7.377  13.982
88592W        W60175  24.760  18.072  13.928
88593W        W60176  21.536  39.749   0.739
88594W        W60177  16.743   3.473   2.207
88595W        W60178   2.349  34.185  12.929
88596W        W60179  29.493  33.454   1.678
88597W        W60180  41.280  31.028   2.720
88598W        W60181  11.597  31.966   2.837
88599W        W60182   6.497  25.997  11.279
88600W        W60183  26.740  19.746   4.471
88601W        W60184  44.536   4.394  13.455
88602W        W60185  27.126  31.009  12.634
88603W        W60186  31.073  43.367  10.365
88604W        W60187  29.539  26.648   3.079
88605W        W60188  43.430  32.556   3.464
88606W        W60189  44.282   7.403  11.733
88607W        W60190  34.465  32.177  12.103
88608W        W60191  42.520  43.740   0.246
88609W        W60192  40.276  23.643   3.668
88610W        W60193   2.841  39.015  11.580
88611W        W60194  33.592  44.780  11.959
88612W        W60195  39.213   0.968   3.792
88613W        W60196   0.706  42.430   3.341
88614W        W60197  26.631  30.693  13.059
88615W        W60198  17.145  24.205  14.860
88616W        W60199   5.799   6.353  11.619
88617W        W60200  21.112  12.440  14.355
88618W        W60201  16.055   3.352  14.101
88619W        W60202   8.555  12.736  14.185
88620W        W60203  16.214  10.159  10.712
88621W        W60204  39.533  20.509  12.021
88622W        W60205  31.551  43.389  12.163
88623W        W60206  44.236  28.677  11.638
88624W        W60207  28.738  18.569   3.104
88625W        W60208  27.959   8.292  13.448
88626W        W60209  37.530   5.787  13.716
88627W        W60210   3.700  21.224   0.842
88628W        W60211  21.024  23.937  14.760
88629W        W60212  20.256  30.500  13.397
88630W        W60213  26.199  44.236  11.617
88631W        W60214  43.713  32.017   2.807
88632W        W60215  41.594  37.571  11.066
88633W        W60216  40.363   9.395   5.014
88634W        W60217   2.121   8.161   1.930
88635W        W60218  27.107   3.830   0.899
88636W        W60219  12.197  17.549   4.042
88637W        W60220  26.898  18.747  12.589
88638W        W60221   3.482  20.629   4.604
88639W        W60222   3.730   3.316   0.054
88640W        W60223  11.231  15.837   2.217
88641W        W60224  32.470  27.068  14.344
88642W        W60225  12.956  14.015   0.229
88643W        W60226  11.051  44.732   4.036
88644W        W60227  26.502  39.236  12.444
88645W        W60228  15.186   8.032  11.082
88646W        W60229  34.064  43.280   1.953
88647W        W60230  13.049   9.089   1.932
88648W        W60231   7.127  44.443   2.341
88649W        W60232  33.608  25.620   0.948
88650W        W60233  11.096  34.893  12.742
88651W        W60234  31.594   7.740   3.257
88652W        W60235  21.823  23.461   0.145
88653W        W60236  16.143   0.753  12.047
88654W        W60237  40.760   9.103   2.134
88655W        W60238  31.955  28.874   3.045
88656W        W60239   2.705  31.549   1.961
88657W        W60240  17.780  35.091  11.235
88658W        W60241  11.623  35.324  13.443
88659W        W60242  38.557   5.764  11.966
88660W        W60243  42.385  14.878   2.703
88661W        W60244  36.694   8.853   4.703
88662W        W60245  33.351  42.035  11.454
88663W        W60246  34.735  44.708   2.343
88664W        W60247  29.511   7.640  14.967
88665W        W60248  31.232  37.311   3.652
88666W        W60249  40.962  36.789   2.569
88667W        W60250   5.457  16.179  10.676
88668W        W60251  41.335  31.474  12.294
88669W        W60252  30.954  28.055   2.221
88670W        W60253  17.257  25.137   1.363
88671W        W60254  10.878  41.305   1.382
88672W        W60255  38.513  27.733   1.923
88673W        W60256  11.773  35.797  12.537
88674W        W60257   5.813  25.517   3.199
88675W        W60258  20.564  24.398  11.654
88676W        W60259  33.269  12.866  11.606
88677W        W60260  42.932  29.095  11.420
88678W        W60261  36.152  24.240  13.747
88679W        W60262  16.546  21.386  11.842
88680W        W60263  18.164  31.356   4.873
88681W        W60264  23.176  39.696  14.053
88682W        W60265  24.424  28.411   1.315
88683W        W60266  24.635   4.753  13.561
88684W        W60267  11.679  21.562   4.209
88685W        W60268   1.854   0.457  13.054
88686W        W60269   3.930  38.478   0.341
88687W        W60270   0.792  17.852   2.764
88688W        W60271  28.323  33.821  11.140
88689W        W60272  28.477  36.184   0.123
88690W        W60273  20.556  40.462  14.216
88691W        W60274  28.843  35.463  12.476
88692W        W60275  43.217  11.248  14.353
88693W        W60276   6.223  27.888  13.127
88694W        W60277  15.844   0.431  12.444
88695W        W60278   4.327  14.033  14.460
88696W        W60279  14.726  11.696   1.249
88697W        W60280  25.566  43.912   0.967
88698W        W60281  40.585  41.347   3.644
88699W        W60282  36.052  27.957   2.886
88700W        W60283  30.509  16.308   1.268
88701W        W60284  30.249  23.898   4.079
88702W        W60285  25.196  42.385  10.668
88703W        W60286   3.678  21.631   4.258
88704W        W60287  44.378  21.229   4.210
88705W        W60288  32.144  16.223   3.750
88706W        W60289  26.117  12.756  13.035
88707W        W60290   0.952  19.903  12.961
88708W        W60291   5.714  27.586   4.092
88709W        W60292  21.989  26.409   1.887
88710W        W60293  26.708   8.573   3.391
88711W        W60294  10.768   4.927  13.350
88712W        W60295  32.135  39.842  13.953
88713W        W60296  26.721  41.535  12.729
88714W        W60297   0.020  14.336  14.033
88715W        W60298  16.248  34.040  10.591
88716W        W60299   6.833  36.591   2.619
88717W        W60300  22.950  39.926  13.079
88718W        W60301  42.491  36.439   0.877
88719W        W60302  33.575   1.823  12.452
88720W        W60303   4.824  32.132   1.496
88721W        W60304  35.014  26.410   3.282
88722W        W60305  32.621   0.648  11.150
88723W        W60306  16.017  15.759  14.484
88724W        W60307  14.106  28.760  11.062
88725W        W60308  43.574   6.322  10.645
88726W        W60309  19.716  16.554  10.644
88727W        W60310  25.250  25.085  14.277
88728W        W60311  41.385  17.567  12.515
88729W        W60312  20.627  44.962  14.977
88730W        W60313  30.401  43.475  13.158
88731W        W60314  26.668  44.943  12.571
88732W        W60315  43.911  44.034  11.742
88733W        W60316  30.733   8.190  14.979
88734W        W60317  25.770  25.821  13.997
88735W        W60318  20.755   0.172   0.825
88736W        W60319  11.869  28.410   1.430
88737W        W60320  26.428  33.326   4.116
88738W        W60321  28.382  44.787   3.070
88739W        W60322  15.534  44.670   4.119
88740W        W60323  36.950  16.914  13.080
88741W        W60324  23.194  14.624  12.586
88742W        W60325  28.957  11.661  10.653
88743W        W60326   7.687   0.909  13.981
88744W        W60327  35.785  36.846   1.903
88745W        W60328  33.962   2.539  14.842
88746W        W60329   9.494  43.523  10.908
88747W        W60330  21.376  44.666  11.744
88748W        W60331   3.228  17.898   0.009
88749W        W60332   0.325  35.820   1.175
88750W        W60333  43.889  37.557   0.512
88751W        W60334   9.375  30.964  11.092
88752W        W60335  24.864  14.657  13.741
88753W        W60336   5.100  23.600   2.778
88754W        W60337   8.667  13.164   3.639
88755W        W60338   9.341   0.988  10.691
88756W        W60339  21.050  18.575  11.202
88757W        W60340  27.946  11.000  11.523
88758W        W60341  35.042   6.342  14.990
88759W        W60342  15.051   7.711   4.097
88760W        W60343  41.744  18.068  14.385
88761W        W60344  15.124   6.422   2.678
88762W        W60345  41.390   6.955  13.792
88763W        W60346   9.192   5.747  14.247
88764W        W60347  29.494  24.668   2.206
88765W        W60348  28.353  37.559   4.234
88766W        W60349  13.358  34.305   0.267
88767W        W60350  21.649  10.179  13.872
88768W        W60351  13.196   9.847  10.740
88769W        W60352   0.031  27.588  11.999
88770W        W60353   0.855   9.210  13.130
88771W        W60354   0.416  34.357   3.790
88772W        W60355  32.314  14.271   1.208
88773W        W60356  38.531   9.789  10.744
88774W        W60357  36.721   8.947  12.043
88775W        W60358  20.317   4.433  11.954
88776W        W60359   7.219  10.359  11.009
88777W        W60360  23.186   5.336   4.093
88778W        W60361   0.699  32.030   4.122
88779W        W60362   2.038   0.479  12.211
88780W        W60363  33.144  43.935  14.002
88781W        W60364  27.895  34.852   1.334
88782W        W60365   0.464  31.135  11.031
88783W        W60366  29.048  27.902   0.273
88784W        W60367  32.353  31.790   2.855
88785W        W60368   3.285   7.091   0.837
88786W        W60369  14.696  26.954  13.358
88787W        W60370  16.552  24.420   1.166
88788W        W60371  31.792  15.262   4.550
88789W        W60372  34.990   8.142  14.123
88790W        W60373  36.032  30.340   1.731
88791W        W60374   0.784  24.143   4.058
88792W        W60375   5.308  37.254   1.815
88793W        W60376  31.067  35.571   2.431
88794W        W60377  36.401  21.345  14.882
88795W        W60378   9.768  39.282   0.400
88796W        W60379   0.879  31.058   1.443
88797W        W60380  42.764  11.844  11.808
88798W        W60381  14.660  39.549  13.477
88799W        W60382   5.853   9.681   3.626
88800W        W60383  16.733  43.508  10.854
88801W        W60384  10.731  41.211   4.033
88802W        W60385  25.531   5.188  10.377
88803W        W60386  35.565  34.371  14.361
88804W        W60387   0.885  14.954  12.744
88805W        W60388  21.716  25.126  10.701
88806W        W60389  35.557  18.204   0.721
88807W        W60390  44.308   2.882   3.862
88808W        W60391  35.969  33.091  11.532
88809W        W60392  33.694  26.797   5.081
88810W        W60393  10.692  25.662  12.719
88811W        W60394  31.464  14.110  13.904
88812W        W60395  36.976  37.532   3.911
88813W        W60396  20.825  37.886  10.583
88814W        W60397   2.232  20.772   1.845
88815W        W60398  42.184  20.327  12.028
88816W        W60399  43.911  27.093  13.917
88817W        W60400  35.679   6.188   0.800
88818W        W60401  24.841  35.933  13.814
88819W        W60402  16.573  14.621   1.391
88820W        W60403  40.395  44.951   2.340
88821W        W60404  21.841   6.101  14.999
88822W        W60405  28.558   9.334   0.009
88823W        W60406  15.714  14.698  10.486
88824W        W60407  34.438  16.667   4.090
88825W        W60408  11.902  35.335   3.251
88826W        W60409  20.201  14.801   0.338
88827W        W60410  14.779   1.221  11.709
88828W        W60411  25.692  24.161   2.161
88829W        W60412  21.479  44.239  10.601
88830W        W60413  11.817  12.200   1.475
88831W        W60414  36.946   4.177   1.371
88832W        W60415  41.267  44.006   3.658
88833W        W60416  16.261  12.280   4.651
88834W        W60417  41.681  17.827   1.316
88835W        W60418  37.987  14.047   0.273
88836W        W60419   3.917  38.764   1.342
88837W        W60420   0.461  42.018   3.098
88838W        W60421  32.862  41.923  11.319
88839W        W60422  11.464  38.951  10.273
88840W        W60423  22.282  38.554  14.040
88841W        W60424  31.899  32.412   0.458
88842W        W60425  23.336  28.932  11.166
88843W        W60426  26.839   9.183   2.786
88844W        W60427  16.805  23.435  10.562
88845W        W60428  43.783   9.764  11.571
88846W        W60429  36.949  32.919   3.618
88847W        W60430  13.673  19.828   4.725
88848W        W60431  17.666   0.542   3.078
88849W        W60432  20.087  36.036   2.922
88850W        W60433  21.102  15.098   2.875
88851W        W60434  26.408   7.200   4.632
88852W        W60435  18.841  40.931  12.666
88853W        W60436  26.584  36.540   4.506
88854W        W60437  15.794  44.058   0.382
88855W        W60438   0.758  30.292   2.806
88856W        W60439  17.874  10.896  12.564
88857W        W60440  33.835  36.965  11.390
88858W        W60441  24.143  26.718   2.394
88859W        W60442  29.415  20.137  14.352
88860W        W60443  24.568  10.861  13.861
88861W        W60444  33.319  36.533  13.780
88862W        W60445  40.624  33.649   1.743
88863W        W60446  29.917  39.797  13.545
88864W        W60447  32.234  42.144  14.904
88865W        W60448   4.724   2.201  12.817
88866W        W60449   1.860   7.928   3.210
88867W        W60450  15.543   9.328  12.030
88868W        W60451   4.360  25.666   3.194
88869W        W60452  23.488   3.416   3.040
88870W        W60453  43.774  33.263   0.409
88871W        W60454   1.211  33.125   0.294
88872W        W60455  19.293  39.270   3.811
88873W        W60456  43.671   5.702  12.583
88874W        W60457  28.535  31.526  13.387
88875W        W60458  43.379  35.324  14.138
88876W        W60459  38.274  20.234   3.144
88877W        W60460  16.782  23.036  12.427
88878W        W60461   8.725  18.874  12.968
88879W        W60462  38.531  38.043  12.510
88880W        W60463  24.925   1.700  12.052
88881W        W60464  44.316   2.768   0.330
88882W        W60465  11.783  26.376  14.788
88883W        W60466  33.513  40.289   2.596
88884W        W60467  18.570  29.497  12.608
88885W        W60468  38.361  29.884  11.196
88886W        W60469   3.575  36.053  11.526
88887W        W60470  41.320  37.815   1.240
88888W        W60471  16.791  29.249   1.269
88889W        W60472   4.821  20.696  12.045
88890W        W60473  34.854  41.777   0.778
88891W        W60474  38.794  31.510   3.699
88892W        W60475   7.236  40.896   2.650
88893W        W60476  43.461  20.777   4.869
88894W        W60477  31.599  37.753  11.624
88895W        W60478  28.539  17.141  12.279
88896W        W60479  43.250   1.034  13.583
88897W        W60480  17.338  43.283   4.588
88898W        W60481   3.668  40.877  11.607
88899W        W60482  22.246  18.256  10.218
88900W        W60483  29.223  21.221   4.199
88901W        W60484  37.710  31.070  13.793
88902W        W60485  38.494   6.102  14.878
88903W        W60486  32.661  38.006   2.900
88904W        W60487  18.807  13.607  10.742
88905W        W60488  35.091   4.428   4.981
88906W        W60489  41.868  39.459   4.544
88907W        W60490  39.067  13.258  12.084
88908W        W60491  31.202  21.523  12.898
88909W        W60492  29.042  19.650   3.931
88910W        W60493  13.450  33.259  14.460
88911W        W60494  10.699  42.531  12.521
88912W        W60495  37.469  34.450  11.578
88913W        W60496   3.575  16.492   0.775
88914W        W60497  21.234  26.624  12.028
88915W        W60498  10.401  43.373   0.692
88916W        W60499  19.511   4.801  12.957
88917W        W60500  32.012  33.303   4.821
88918W        W60501  35.007  16.575  10.667
88919W        W60502   9.614   1.755  11.666
88920W        W60503  31.481  28.101   4.699
88921W        W60504  27.919   8.824  14.907
88922W        W60505  21.060  36.773  12.457
88923W        W60506  38.113  15.821   0.914
88924W        W60507   4.092  23.762  14.851
88925W        W60508   3.224   6.149  14.807
88926W        W60509   7.889  36.074  10.611
88927W        W60510  37.490  18.414  11.057
88928W        W60511  28.793  42.433  13.286
88929W        W60512  34.570   5.689   4.770
88930W        W60513  26.463  23.064  14.011
88931W        W60514  44.695  10.287   0.369
88932W        W60515  11.592   5.893   0.473
88933W        W60516  40.084  29.480   1.783
88934W        W60517  21.740  21.336   3.903
88935W        W60518  38.113  25.566  11.476
88936W        W60519  36.635  44.518   2.833
88937W        W60520  40.103  31.502  14.989
88938W        W60521  32.014  43.379  10.713
88939W        W60522  41.879   9.256   4.549
88940W        W60523  20.026  43.389  13.547
88941W        W60524  31.630  42.813   2.600
88942W        W60525  43.261   5.214   3.320
88943W        W60526  36.200  31.891   5.300
88944W        W60527  37.310   4.335   0.103
88945W        W60528  42.010  11.839   1.194
88946W        W60529  25.133  39.768   2.738
88947W        W60530   0.807  11.873   3.067
88948W        W60531  16.209  41.941   4.444
88949W        W60532  28.525  27.076   2.770
88950W        W60533  44.141  44.312  10.988
88951W        W60534  26.682  36.342  11.600
88952W        W60535   8.783   1.048  11.078
88953W        W60536  38.974  39.041  12.871
88954W        W60537  10.593   1.787  12.621
88955W        W60538  31.065  30.549   0.214
88956W        W60539  40.571  37.286  14.168
88957W        W60540  44.268  40.364  14.721
88958W        W60541   9.253  25.982  12.038
88959W        W60542  10.331  17.723   2.599
88960W        W60543   1.417  19.540   1.918
88961W        W60544  26.518  21.744  10.753
88962W        W60545   8.247  17.156  14.531
88963W        W60546  14.840  23.169   4.424
88964W        W60547  11.253  31.194   1.616
88965W        W60548  28.720  26.492  10.930
88966W        W60549   4.795  19.631   3.206
88967W        W60550  19.042   1.579   0.406
88968W        W60551  37.826  22.774   2.827
88969W        W60552  39.506  24.991   3.314
88970W        W60553  27.470  33.030   2.890
88971W        W60554  25.030  43.785   2.755
88972W        W60555  42.677  10.359  13.355
88973W        W60556  27.030  26.980   2.236
88974W        W60557   5.246  39.382   2.386
88975W        W60558  41.518  26.066   3.276
88976W        W60559  17.490  35.705  14.709
88977W        W60560   7.526  36.998  13.472
88978W        W60561  13.084  35.528   4.668
88979W        W60562  28.686  15.575   0.407
88980W        W60563   5.241   6.043   1.767
88981W        W60564   6.936  23.240  13.286
88982W        W60565  30.029  32.995  10.706
88983W        W60566  29.695  23.621  11.638
88984W        W60567  37.861  14.619  11.079
88985W        W60568  18.909  38.377  14.678
88986W        W60569   0.631   9.013  14.470
88987W        W60570  12.908  43.445   1.174
88988W        W60571  15.548  41.351  10.363
88989W        W60572  41.514  41.526  11.910
88990W        W60573  30.984  26.129  10.639
88991W        W60574  37.395  42.051   2.267
88992W        W60575  36.968  26.733   5.243
88993W        W60576  39.295  43.692   1.778
88994W        W60577  37.538   2.369   0.449
88995W        W60578   1.789  41.393   0.964
88996W        W60579  22.522  25.488  14.377
88997W        W60580   7.279  40.829   4.533
88998W        W60581  42.877   1.312  12.509
88999W        W60582   7.415   3.400   3.142
89000W        W60583  44.807   1.799  12.592
89001W        W60584   1.755   5.413   4.501
89002W        W60585  17.666   1.467  11.867
89003W        W60586  20.987   9.618  11.472
89004W        W60587  23.441  34.443   2.356
89005W        W60588  40.460   9.732   0.373
89006W        W60589  41.645   8.190   2.444
89007W        W60590   9.347  15.160   2.319
89008W        W60591  18.017  33.318   0.375
89009W        W60592  16.834  34.753   3.999
89010W        W60593  30.324  30.478   2.429
89011W        W60594  10.745  17.121   3.872
89012W        W60595  33.610  26.615  10.252
89013W        W60596  35.076  25.926   2.290
89014W        W60597  13.972   7.396   0.889
89015W        W60598  36.658  10.717  10.508
89016W        W60599  20.248  21.062   0.932
89017W        W60600  41.956  39.827  12.158
89018W        W60601  39.578  34.166  14.712
89019W        W60602  20.211  31.528  13.186
89020W        W60603  33.352  18.177   3.273
89021W        W60604  12.345  36.561  13.758
89022W        W60605  29.377  26.494  13.760
89023W        W60606  21.061  15.561   1.515
89024W        W60607  11.588   8.204  12.526
89025W        W60608  10.270  26.477  13.935
89026W        W60609  25.059  32.148  11.596
89027W        W60610  35.394  27.232   0.028
89028W        W60611   8.564  36.488  10.577
89029W        W60612  14.147   7.465   1.781
89030W        W60613   8.355  43.871   2.163
89031W        W60614  34.052   7.482   3.581
89032W        W60615  13.763  22.082  12.853
89033W        W60616  22.835   7.671   2.133
89034W        W60617  17.666  19.704   1.791
89035W        W60618  43.909  23.165   1.029
89036W        W60619  42.826  23.241  12.597
89037W        W60620  15.752  17.225  14.753
89038W        W60621  12.211  42.658   3.746
89039W        W60622  43.876  11.461   0.985
89040W        W60623  28.571  12.286  13.917
89041W        W60624  31.621  22.029   9.934
89042W        W60625   7.964  43.968   0.859
89043W        W60626  26.771   1.940  10.995
89044W        W60627  26.082  31.385  12.080
89045W        W60628  38.221  31.212  12.360
89046W        W60629  34.037   5.970  14.334
89047W        W60630  33.397  29.550  11.069
89048W        W60631  29.047   8.832   4.546
89049W        W60632  33.454  37.595   5.091
89050W        W60633  27.654  20.279   2.779
89051W        W60634  21.333  16.869   4.562
89052W        W60635  38.516  24.007   3.270
89053W        W60636  33.036   9.857  13.500
89054W        W60637  29.953  32.358  12.856
89055W        W60638  27.265  39.522  13.588
89056W        W60639  36.601  31.901  12.883
89057W        W60640  19.581   7.824  10.779
89058W        W60641   0.061  37.107  14.004
89059W        W60642  27.945  19.795  14.003
89060W        W60643  16.687  12.333  13.910
89061W        W60644   8.109  44.859   2.451
89062W        W60645   0.468  21.643  14.842
89063W        W60646  36.015  39.953  12.573
89064W        W60647  29.244  28.195  12.349
89065W        W60648  19.289  29.690   4.548
89066W        W60649   5.229  41.065  13.488
89067W        W60650  17.863  31.722  12.877
89068W        W60651  23.467  31.048   4.238
89069W        W60652  32.013  36.158  11.091
89070W        W60653  24.243   4.725  12.418
89071W        W60654  16.988   4.096  12.044
89072W        W60655  13.335   6.818   1.912
89073W        W60656  34.587   2.894  11.027
89074W        W60657  34.008  10.175  12.801
89075W        W60658  25.281  10.968  14.528
89076W        W60659  13.925  34.933   4.649
89077W        W60660  12.669  35.880   3.603
89078W        W60661  33.357  14.108   2.416
89079W        W60662  18.650   2.910  10.968
89080W        W60663   6.657   2.033  13.886
89081W        W60664  40.409  28.342   0.876
89082W        W60665  33.401  41.924  12.398
89083W        W60666  21.540  10.688  14.427
89084W        W60667  25.027  26.919   3.055
89085W        W60668  31.177  44.333  10.863
89086W        W60669  24.294  40.297  12.969
89087W        W60670  36.390  12.365   1.460
89088W        W60671  27.776  38.106   4.111
89089W        W60672  33.072  13.725   2.241
89090W        W60673  39.329   1.328  11.689
89091W        W60674  28.056   9.959   2.960
89092W        W60675  29.407  40.998  12.982
89093W        W60676  44.439  17.565  12.011
89094W        W60677  28.905  32.122  14.851
89095W        W60678  20.177  13.393   2.953
89096W        W60679  40.091  31.110  14.434
89097W        W60680  32.076  42.554  12.609
89098W        W60681  37.374  25.477  14.443
89099W        W60682  31.151  25.873  11.068
89100W        W60683  11.468  36.168  13.917
89101W        W60684  19.023  23.319  11.167
89102W        W60685  17.552  26.008  14.700
89103W        W60686  29.584  26.936   1.390
89104W        W60687  29.017  38.612  10.924
89105W        W60688  26.859  11.392  14.685
89106W        W60689   3.811  22.613   4.956
89107W        W60690  21.042  36.076   3.068
89108W        W60691   7.186  33.472  12.126
89109W        W60692   4.684  12.373   0.747
89110W        W60693  36.489  43.771   4.708
89111W        W60694  17.653  14.723   0.836
89112W        W60695  35.368  18.111  14.698
89113W        W60696  26.789  12.202  14.745
89114W        W60697  24.113  24.565   0.194
89115W        W60698  24.485   0.085  11.147
89116W        W60699  37.250  26.139  13.304
89117W        W60700  22.571   9.351  11.233
89118W        W60701   4.502  13.147   2.934
89119W        W60702  15.402  22.829  14.019
89120W        W60703  32.492   3.525   4.175
89121W        W60704  35.169  35.513   2.693
89122W        W60705  32.698   1.004   3.720
89123W        W60706  22.697  17.091   1.407
89124W        W60707   0.200  32.678  13.709
89125W        W60708   5.898  38.103  12.129
89126W        W60709  33.408  25.111  11.705
89127W        W60710   3.444   4.836   4.123
89128W        W60711  36.369   1.701  13.531
89129W        W60712  24.474  10.786  11.063
89130W        W60713  40.240  32.052   3.061
89131W        W60714  30.177  25.009  14.917
89132W        W60715  35.732  30.193  14.040
89133W        W60716  34.771  19.652  12.502
89134W        W60717  28.103   4.350   4.389
89135W        W60718  31.595  23.543   0.291
89136W        W60719  36.564   1.041  12.844
89137W        W60720  13.901  42.382  13.057
89138W        W60721  27.682  12.383   0.249
89139W        W60722   0.481  24.086   1.236
89140W        W60723  36.949  14.064   1.235
89141W        W60724  22.774  20.704  12.674
89142W        W60725  41.673  18.616   2.767
89143W        W60726   0.387  42.444   2.390
89144W        W60727  23.061  24.573   4.053
89145W        W60728  34.317  16.576  12.967
89146W        W60729  26.930  18.338   1.940
89147W        W60730  35.453  32.620   0.895
89148W        W60731  41.585  39.936   4.971
89149W        W60732  44.882   5.415   2.316
89150W        W60733  16.164  22.685   3.271
89151W        W60734   6.840  31.174  12.086
89152W        W60735  42.578  16.671   3.760
89153W        W60736  15.600  27.065  10.399
89154W        W60737  14.575  11.930   2.616
89155W        W60738  22.675  30.408  10.596
89156W        W60739  24.550  39.109  11.481
89157W        W60740   5.240  43.370  12.816
89158W        W60741  35.535  40.185   4.884
89159W        W60742   7.929  22.498   2.676
89160W        W60743  20.289   2.901   2.859
89161W        W60744  23.586  25.624   0.396
89162W        W60745   3.483   8.809   3.350
89163W        W60746   2.407  16.008  10.747
89164W        W60747  36.765  23.640  12.457
89165W        W60748  40.524  35.385  13.599
89166W        W60749   9.151  35.663  11.547
89167W        W60750   2.378  25.765  13.463
89168W        W60751  22.078  14.070   4.415
89169W        W60752   2.967  16.359   4.087
89170W        W60753  10.238   8.492  12.289
89171W        W60754  11.640  10.282   4.662
89172W        W60755  23.200   1.700  11.510
89173W        W60756  40.728   8.546   4.234
89174W        W60757  15.834  12.533  14.102
89175W        W60758  16.089   1.687   1.297
89176W        W60759   3.837   8.746  10.727
89177W        W60760  41.858  14.392  12.545
89178W        W60761  22.012  31.545  12.108
89179W        W60762  31.366  42.242  14.323
89180W        W60763  38.009  40.408   2.236
89181W        W60764   7.207   2.517  11.120
89182W        W60765  17.548   4.915   2.124
89183W        W60766  44.291   9.296   2.158
89184W        W60767  19.931  19.579   1.755
89185W        W60768  42.481  16.349   2.530
89186W        W60769  32.494   2.996   1.427
89187W        W60770  35.385  29.234  13.905
89188W        W60771  44.127  17.117  12.822
89189W        W60772   3.386  18.801   3.349
89190W        W60773  37.516  39.479   4.648
89191W        W60774  31.645  18.060  10.515
89192W        W60775  37.102   4.713  14.392
89193W        W60776  21.012  38.002   3.235
89194W        W60777   6.290  18.836   3.872
89195W        W60778  40.271  33.941  14.271
89196W        W60779  15.807  13.071   2.352
89197W        W60780   3.306  27.186   1.011
89198W        W60781  17.620  28.113  11.612
89199W        W60782  29.540  13.288   4.795
89200W        W60783  31.145  18.233  10.579
89201W        W60784  18.043  36.914   5.445
89202W        W60785   2.183  30.857  12.390
89203W        W60786  10.507   9.213  10.348
89204W        W60787  14.779   3.917  13.975
89205W        W60788   4.467  17.780  12.874
89206W        W60789   9.685  38.690  13.377
89207W        W60790   6.890   8.803  10.664
89208W        W60791  32.481  38.318   3.271
89209W        W60792  41.057   7.526   9.640
89210W        W60793   5.171   2.287  14.470
89211W        W60794  27.657  14.382  14.402
89212W        W60795  30.380  22.771  12.422
89213W        W60796  41.108  36.877   4.713
89214W        W60797  44.264  21.529  11.227
89215W        W60798   2.394  39.627   0.140
89216W        W60799  21.255  37.949   2.415
89217W        W60800  13.310  33.474  11.952
89218W        W60801  39.396  20.007   0.307
89219W        W60802   4.037  14.181   9.879
89220W        W60803  14.351  14.684  13.373
89221W        W60804   6.877  41.508  13.437
89222W        W60805   5.126  13.661   1.737
89223W        W60806  39.796  17.821   2.823
89224W        W60807  34.526  15.997  14.249
89225W        W60808  18.892  13.458  14.401
89226W        W60809  29.711  17.182   0.744
89227W        W60810   5.158  16.157  12.036
89228W        W60811  20.638  32.675  11.900
89229W        W60812  43.837  35.074   0.792
89230W        W60813  13.822  20.729  12.933
89231W        W60814  12.294  20.737  14.377
89232W        W60815  30.490  28.419  13.855
89233W        W60816  17.617  44.798  12.459
89234W        W60817  40.885  30.189   2.429
89235W        W60818   9.397  25.103   3.758
89236W        W60819   9.656   4.340  14.452
89237W        W60820  35.331   7.605   2.644
89238W        W60821  32.514  20.853  10.939
89239W        W60822   4.466  40.376  14.791
89240W        W60823  27.218  31.379   2.327
89241W        W60824  20.144  17.779   3.239
89242W        W60825  13.341  37.756  11.066
89243W        W60826  19.978  21.521   3.844
89244W        W60827  25.271  33.050  10.645
89245W        W60828   0.844  24.352  12.444
89246W        W60829  10.410  10.577   0.801
89247W        W60830  34.130  29.183  12.521
89248W        W60831  33.451  26.333   0.230
89249W        W60832  17.354   5.009  12.021
89250W        W60833  26.149  14.594   0.765
89251W        W60834  14.082  44.848  10.632
89252W        W60835  11.544  32.036   3.700
89253W        W60836  40.530  11.981  11.622
89254W        W60837  21.216  26.439  12.534
89255W        W60838  28.694  23.939   2.933
89256W        W60839  19.574   2.411   2.063
89257W        W60840   6.203  27.061   1.313
89258W        W60841  22.974  19.209   3.335
89259W        W60842  23.703  22.737  13.869
89260W        W60843  32.116  15.418   0.113
89261W        W60844  32.497  36.029   0.055
89262W        W60845   2.037  38.917   5.327
89263W        W60846  27.582  32.039  11.094
89264W        W60847  18.060   9.107  12.665
89265W        W60848  34.877  16.593  12.951
89266W        W60849  11.586  33.587   0.294
89267W        W60850   5.639  25.058  11.934
89268W        W60851  42.361   1.752   2.877
89269W        W60852  27.695  40.480   0.609
89270W        W60853  22.497   7.929   4.176
89271W        W60854  34.969  34.120   0.709
89272W        W60855  42.286  39.702   2.292
89273W        W60856   3.917  16.080   0.726
89274W        W60857   3.144   2.439   4.627
89275W        W60858  29.379  11.653  14.843
89276W        W60859  20.107   6.710   1.493
89277W        W60860  26.043  21.545   0.905
89278W        W60861   8.314  22.179   2.815
89279W        W60862   4.003  43.810   3.159
89280W        W60863  30.680  16.589  12.554
89281W        W60864   2.332  26.940   3.677
89282W        W60865  39.694  44.511  14.020
89283W        W60866  28.976  15.611   3.210
89284W        W60867  42.941  22.137  13.957
89285W        W60868  34.491   9.305  11.054
89286W        W60869  29.949  19.938  14.358
89287W        W60870  34.896  38.925  11.955
89288W        W60871   5.257  28.473   4.968
89289W        W60872  10.577  19.399  11.121
89290W        W60873  24.991  21.201  14.787
89291W        W60874  20.989   6.654  13.854
89292W        W60875  24.624   0.181  12.924
89293W        W60876  38.626  42.060   2.094
89294W        W60877  40.569  34.388   0.694
89295W        W60878  26.619  40.867  13.395
89296W        W60879   7.405   0.796   0.874
89297W        W60880  29.458  20.047   4.862
89298W        W60881  20.441   9.857   4.660
89299W        W60882   3.634  10.610  11.862
89300W        W60883  36.568  37.150  12.903
89301W        W60884  17.532  34.984   2.802
89302W        W60885  26.109  15.600  14.994
89303W        W60886  26.287  16.271   1.172
89304W        W60887  12.259  40.717  12.105
89305W        W60888  36.666  20.451   4.694
89306W        W60889  12.777  43.172  13.968
89307W        W60890  38.330   3.479  11.548
89308W        W60891  38.094  24.474  12.522
89309W        W60892   7.677  13.128  13.289
89310W        W60893  29.394  36.376  14.411
89311W        W60894  11.864  36.082   1.229
89312W        W60895  12.150  34.122  13.932
89313W        W60896  10.644   2.913   1.349
89314W        W60897  43.310  30.116  11.906
89315W        W60898  16.866  13.622  13.787
89316W        W60899  43.390  11.940  10.673
89317W        W60900   9.188  30.923   4.278
89318W        W60901  26.958  21.096   3.809
89319W        W60902  33.200  24.574   3.711
89320W        W60903  28.502   4.613  10.468
89321W        W60904  26.705  44.279  14.378
89322W        W60905   1.782  27.454  12.549
89323W        W60906  39.454  13.578   0.990
89324W        W60907  18.714  17.785  14.980
89325W        W60908  12.531   3.725   4.968
89326W        W60909  37.573  17.093  14.352
89327W        W60910  31.850  31.152  12.781
89328W        W60911  32.187  42.470  13.925
89329W        W60912  25.374  36.402   3.014
89330W        W60913  19.782  13.767  13.705
89331W        W60914   1.686  34.248  12.180
89332W        W60915  37.600   5.842  14.220
89333W        W60916   1.871  15.453   3.522
89334W        W60917   2.978  40.384   3.271
89335W        W60918  34.494   1.273   2.273
89336W        W60919  38.588  43.461  11.971
89337W        W60920  34.681  40.024   1.348
89338W        W60921   1.549   9.377  11.081
89339W        W60922  14.328  22.269   1.135
89340W        W60923  28.143   6.700  11.168
89341W        W60924  38.885  43.246  14.814
89342W        W60925   8.116  12.144  13.557
89343W        W60926  20.608  13.144   2.729
89344W        W60927  10.477  16.282   2.666
89345W        W60928   3.386  26.163  12.053
89346W        W60929  21.748   9.993  12.008
89347W        W60930   6.345  12.324  10.093
89348W        W60931   1.029  16.309  12.501
89349W        W60932   2.823  25.740   4.744
89350W        W60933  21.229  14.152   1.469
89351W        W60934  11.304   5.102   0.467
89352W        W60935   6.468  26.207   0.821
89353W        W60936  19.139  24.823   5.024
89354W        W60937  35.401  42.382  14.280
89355W        W60938  17.463  16.175  12.453
89356W        W60939   3.553  35.864   1.782
89357W        W60940  22.588  13.921   0.316
89358W        W60941  27.394  31.009  13.060
89359W        W60942  31.079  44.647  11.659
89360W        W60943   1.817  28.881   0.313
89361W        W60944  33.381  36.652   3.929
89362W        W60945  37.578  34.026   3.341
89363W        W60946  36.984   5.196   0.529
89364W        W60947  26.941  19.090  11.984
89365W        W60948  37.441  44.729  14.843
89366W        W60949  36.376  21.045  10.436
89367W        W60950  41.663   7.223  11.733
89368W        W60951  43.917  28.889   2.220
89369W        W60952  33.038   5.437  11.591
89370W        W60953  12.599  37.822  14.907
89371W        W60954   6.195  10.232   4.623
89372W        W60955  20.289  31.140  12.845
89373W        W60956  24.854  40.921  14.235
89374W        W60957  31.469  27.191   4.348
89375W        W60958  38.726  40.546   4.235
89376W        W60959  38.432  26.020  10.660
89377W        W60960   6.437   9.721   2.948
89378W        W60961  21.994   5.323  14.400
89379W        W60962  10.696  39.387   4.829
89380W        W60963  25.771  40.446  13.378
89381W        W60964  14.724   0.766   3.227
89382W        W60965  17.298  29.569   2.722
89383W        W60966  27.533  32.641   0.768
89384W        W60967  36.041  35.750  14.347
89385W        W60968  34.934  42.426  12.465
89386W        W60969  17.316   5.989  11.320
89387W        W60970   5.520   6.901  11.164
89388W        W60971  28.666  44.902   4.101
89389W        W60972  25.119  41.879   0.959
89390W        W60973  23.850   7.353  10.653
89391W        W60974  33.283  43.388   4.079
89392W        W60975  13.319  32.121   0.713
89393W        W60976  41.763  25.757  11.722
89394W        W60977   0.748  36.908   4.155
89395W        W60978  18.722  32.144  14.023
89396W        W60979  13.336  34.847  10.715
89397W        W60980  13.475  38.915  10.494
89398W        W60981  25.493   1.803   2.235
89399W        W60982  41.629  28.089   0.929
89400W        W60983   7.432   5.614  11.966
89401W        W60984  15.780  27.215  14.504
89402W        W60985  28.905  11.164  10.377
89403W        W60986  31.692  12.371  10.874
89404W        W60987  12.778  39.981  10.879
89405W        W60988  30.982  24.898  11.210
89406W        W60989  17.062  38.599  11.428
89407W        W60990  24.090  34.692  13.028
89408W        W60991  36.889  15.595   2.334
89409W        W60992  29.904   7.166   1.354
89410W        W60993   9.766  21.203   2.731
89411W        W60994  43.325  29.247   0.745
89412W        W60995   8.444  24.037  14.366
89413W        W60996  26.945  13.609   1.167
89414W        W60997   3.414  13.067   2.124
89415W        W60998  26.044  14.818  13.846
89416W        W60999  17.101  44.997   0.554
89417W        W61000  13.277  29.572   2.788
89418W        W61001  40.263   7.685  13.885
89419W        W61002  39.268  15.117   2.277
89420W        W61003  37.486  32.941   1.791
89421W        W61004  28.638  38.425   0.374
89422W        W61005  14.071  30.086  11.452
89423W        W61006  33.692  33.706  12.490
89424W        W61007   0.823  43.516   4.208
89425W        W61008  17.225   2.772  14.812
89426W        W61009  38.437  23.096   0.191
89427W        W61010  40.334   9.715   3.764
89428W        W61011  38.320  13.672  14.342
89429W        W61012  11.227  30.104   3.623
89430W        W61013  19.334  18.759   0.870
89431W        W61014  35.018  16.295   3.335
89432W        W61015  26.423  23.736  14.548
89433W        W61016   7.371  41.321   2.901
89434W        W61017   2.773  30.501   1.636
89435W        W61018  27.084  12.313  13.023
89436W        W61019   6.182  33.268   4.759
89437W        W61020  44.431  33.861   2.975
89438W        W61021  30.658  27.203   2.316
89439W        W61022  20.744  25.377  13.140
89440W        W61023  11.347  42.505  14.714
89441W        W61024  18.975   7.367  14.306
89442W        W61025  28.117  36.863  10.682
89443W        W61026   2.526  23.616   1.934
89444W        W61027  11.801   5.205  13.720
89445W        W61028  30.139   7.988   3.155
89446W        W61029  27.217  21.425  13.052
89447W        W61030   3.927  42.347   4.076
89448W        W61031  35.842  23.731  12.479
89449W        W61032  21.284  32.107  11.595
89450W        W61033  15.477  19.486  11.864
89451W        W61034  35.932   2.668   1.362
89452W        W61035  27.534  15.075  10.546
89453W        W61036  29.455  31.406  11.099
89454W        W61037  31.068  22.656  13.469
89455W        W61038  14.693  20.511  12.938
89456W        W61039  40.631  13.713  11.640
89457W        W61040  22.136  20.886  14.291
89458W        W61041  16.316   7.423   1.798
89459W        W61042  31.447  12.121   3.245
89460W        W61043   1.328  12.316   2.527
89461W        W61044   6.281   6.462   2.127
89462W        W61045   4.797   0.128  14.113
89463W        W61046  27.031  14.002  11.146
89464W        W61047   1.324  31.589  11.020
89465W        W61048  14.339  36.960   3.648
89466W        W61049  38.877  32.002  12.494
89467W        W61050  24.769  34.502   1.405
89468W        W61051  24.783  40.845  10.575
89469W        W61052  33.099  18.617   0.905
89470W        W61053  24.452  28.162   0.452
89471W        W61054  14.071  22.755  14.021
89472W        W61055  27.250  11.404  11.932
89473W        W61056  25.126  26.670  10.365
89474W        W61057  11.385  14.979  11.635
89475W        W61058  42.621  36.645   3.283
89476W        W61059  34.531  14.154  14.272
89477W        W61060  24.550  20.164   4.269
89478W        W61061  31.071  22.211   3.714
89479W        W61062  18.839   7.735   3.655
89480W        W61063  11.544  42.248   2.377
89481W        W61064  19.895  25.708  10.703
89482W        W61065  21.595  13.957  11.662
89483W        W61066  39.490   2.550   3.184
89484W        W61067  30.073  37.910   2.593
89485W        W61068  12.429   8.665  12.515
89486W        W61069   8.627  16.643   1.246
89487W        W61070   4.888   1.658   3.693
89488W        W61071  35.402  24.026  12.586
89489W        W61072  25.522  16.913  13.761
89490W        W61073   6.191  10.215  14.525
89491W        W61074  15.582   7.680  13.030
89492W        W61075  13.588  21.175   3.745
89493W        W61076  29.427   6.610  12.881
89494W        W61077  19.400  32.956  11.713
89495W        W61078  24.988  42.302   2.407
89496W        W61079  23.120  29.675   1.103
89497W        W61080   6.499   5.175   2.583
89498W        W61081  16.206  12.370   4.148
89499W        W61082  23.061  41.019   1.162
89500W        W61083  41.927  31.972  10.164
89501W        W61084  29.469  34.944  13.106
89502W        W61085  37.034   8.627   0.879
89503W        W61086   2.255  23.979  10.685
89504W        W61087  24.461  21.962   2.657
89505W        W61088  15.959  18.765  13.154
89506W        W61089   9.862  38.219  13.240
89507W        W61090  35.382  24.469  13.876
89508W        W61091  22.476  20.020   0.546
89509W        W61092   6.576  26.966   2.912
89510W        W61093   0.321   1.196   4.412
89511W        W61094  11.153  37.092   4.031
89512W        W61095  21.173  13.844   3.783
89513W        W61096  36.956  16.649  11.699
89514W        W61097   0.751   4.486  12.869
89515W        W61098   6.404  29.126   0.629
89516W        W61099  44.275  37.967   1.919
89517W        W61100  41.048   4.867   1.909
89518W        W61101  28.278  27.523  13.991
89519W        W61102   5.792  14.856   3.991
89520W        W61103   8.213  20.562   2.266
89521W        W61104   5.230   7.334  11.076
89522W        W61105  18.579  40.560   2.464
89523W        W61106   5.344  18.340   0.265
89524W        W61107   3.225  36.833  11.195
89525W        W61108  13.884  26.427  12.957
89526W        W61109  35.583  11.775  14.288
89527W        W61110  18.042   3.993  10.736
89528W        W61111  42.275   3.737  14.421
89529W        W61112  20.081  15.100   3.086
89530W        W61113   1.014  32.497   0.755
89531W        W61114   8.052  22.841   4.471
89532W        W61115  33.078   4.879   0.475
89533W        W61116   9.543  29.975  11.500
89534W        W61117  28.584  35.392  13.884
89535W        W61118  32.497  44.350  10.787
89536W        W61119  11.293   2.341  11.198
89537W        W61120   5.724  12.325   3.140
89538W        W61121  41.446   1.193  14.750
89539W        W61122  36.387  44.793  13.832
89540W        W61123  26.519  10.447  10.576
89541W        W61124   9.559  32.149   1.321
89542W        W61125  43.851   7.313  11.411
89543W        W61126  21.492   7.378   1.887
89544W        W61127  44.507   7.595  13.417
89545W        W61128  18.511   6.629  12.657
89546W        W61129  26.208   8.676   3.247
89547W        W61130   2.515   5.797   3.021
89548W        W61131  41.944  14.425   0.273
89549W        W61132  44.316   5.550   1.887
89550W        W61133   9.832  37.885  10.658
89551W        W61134  32.921  30.377  10.683
89552W        W61135  17.673   3.878  12.551
89553W        W61136  19.699  34.160  11.803
89554W        W61137   4.432  26.493  12.460
89555W        W61138  22.237  12.809   1.403
89556W        W61139  42.831  12.705  13.037
89557W        W61140  37.984  32.012   4.573
89558W        W61141   8.837  12.714   2.891
89559W        W61142  40.706  19.547  11.645
89560W        W61143   3.425  41.000  14.365
89561W        W61144  16.730  23.331   5.005
89562W        W61145  43.739   1.457  10.397
89563W        W61146   0.416  20.009  12.598
89564W        W61147  22.205  15.765  11.334
89565W        W61148  36.034  29.601   4.566
89566W        W61149  23.937  42.214  12.558
89567W        W61150   2.652  30.038   3.385
89568W        W61151  20.862   7.470  12.130
89569W        W61152  23.618   3.661  11.262
89570W        W61153   8.918   0.512   0.702
89571W        W61154  31.654  11.545  10.610
89572W        W61155   5.121  26.064  14.862
89573W        W61156  37.880  40.891   3.981
89574W        W61157   5.403  22.169  13.356
89575W        W61158  22.404  24.531   1.721
89576W        W61159   6.667  31.399   0.289
89577W        W61160  33.578  13.979   4.607
89578W        W61161   0.835  12.202   1.242
89579W        W61162  34.132  21.207   3.397
89580W        W61163  21.266  34.647   4.170
89581W        W61164  14.150  26.715  12.586
89582W        W61165   8.637   4.312   3.305
89583W        W61166   7.192  24.964  11.960
89584W        W61167  20.055  29.602   0.761
89585W        W61168  41.293   7.600   3.042
89586W        W61169  22.115  34.907  13.704
89587W        W61170   1.663  31.673   1.419
89588W        W61171  11.729  15.515  10.398
89589W        W61172  27.012  35.443  13.845
89590W        W61173  31.851  25.579  14.706
89591W        W61174   3.268  44.243   3.303
89592W        W61175   8.472   3.522  11.695
89593W        W61176  30.244  13.314  13.867
89594W        W61177   5.770  19.788   1.687
89595W        W61178  40.310   3.945   1.427
89596W        W61179   2.365  27.940   2.659
89597W        W61180  35.183  41.828   1.790
89598W        W61181  22.759   9.634   2.549
89599W        W61182  33.897  44.650  14.013
89600W        W61183  11.916  18.653   3.256
89601W        W61184  12.178  39.455   4.739
89602W        W61185  32.123   8.774  12.052
89603W        W61186  32.473  37.782  11.555
89604W        W61187   9.668  36.651  12.634
89605W        W61188  17.041   3.775   4.639
89606W        W61189  29.518  20.017  10.600
89607W        W61190  35.304  40.797  14.860
89608W        W61191  33.140  23.313  13.021
89609W        W61192  36.738  22.577  13.228
89610W        W61193   9.410  12.923   4.674
89611W        W61194   5.383   7.190  13.311
89612W        W61195  34.092   0.115  14.166
89613W        W61196  23.063  38.794   0.491
89614W        W61197  15.691  17.578   0.169
89615W        W61198  17.084  23.413  14.251
89616W        W61199  24.587   7.732  11.553
89617W        W61200  27.106   5.340  11.991
89618W        W61201   8.187  12.210  11.424
89619W        W61202   8.690  25.577  14.114
89620W        W61203   2.329  44.036  11.049
89621W        W61204  39.822  30.659  12.371
89622W        W61205   6.158  24.118   0.684
89623W        W61206  24.049   5.316   4.634
89624W        W61207   5.697  30.972  14.627
89625W        W61208   2.675  13.066  14.759
89626W        W61209  24.897  28.472   2.219
89627W        W61210  35.040  10.121   4.237
89628W        W61211  20.303  42.040  14.916
89629W        W61212  24.492  37.153   1.298
89630W        W61213  13.638   9.554  11.858
89631W        W61214   1.076  37.473   5.440
89632W        W61215  18.723   2.887   4.510
89633W        W61216   9.262  39.517   2.464
89634W        W61217   5.183  36.980   1.012
89635W        W61218  33.352  23.723   2.318
89636W        W61219   6.312  14.313  11.169
89637W        W61220  43.266  28.530  12.450
89638W        W61221   1.046  27.994   2.894
89639W        W61222  32.917  39.821  13.477
89640W        W61223  22.951  10.229   4.594
89641W        W61224  42.905   3.835  10.692
89642W        W61225  12.362  29.533  14.032
89643W        W61226  24.902   5.920   4.564
89644W        W61227  34.399  33.020   1.423
89645W        W61228   6.992  42.491   1.376
89646W        W61229  41.442  24.559   2.877
89647W        W61230   2.905   5.764   0.149
89648W        W61231  38.085  16.632   0.400
89649W        W61232   3.935  10.281   3.892
89650W        W61233  17.167   2.357   0.115
89651W        W61234  35.298  44.228   0.241
89652W        W61235  26.092  22.027   4.371
89653W        W61236  43.747  26.248   0.388
89654W        W61237  10.798  42.007  11.022
89655W        W61238  14.732  36.477  11.358
89656W        W61239   0.848  21.600   0.903
89657W        W61240  24.593  11.358   4.279
89658W        W61241  18.441  16.091   3.411
89659W        W61242  25.010  43.172   1.354
89660W        W61243   2.870  37.606   3.842
89661W        W61244  21.196   7.879   3.248
89662W        W61245   9.246  23.473   1.190
89663W        W61246  23.146  11.807  14.540
89664W        W61247  15.508  39.879  10.679
89665W        W61248  30.355   1.326  10.695
89666W        W61249  11.648   2.250   0.389
89667W        W61250  16.716  30.499  12.846
89668W        W61251  10.424  25.815   4.576
89669W        W61252   6.226  36.350   3.874
89670W        W61253  10.430  24.450   4.616
89671W        W61254  24.710  10.095   1.353
89672W        W61255  12.234  12.918  14.819
89673W        W61256  27.418  24.802   3.332
89674W        W61257  13.085  15.328  11.264
89675W        W61258   7.631  35.302   1.765
89676W        W61259  18.364  31.249  12.117
89677W        W61260   4.729  26.195  10.500
89678W        W61261  40.147   2.884  12.403
89679W        W61262   9.280  29.966   0.782
89680W        W61263  10.312  19.180   1.742
89681W        W61264   0.354  21.470  14.343
89682W        W61265  36.445  27.687  11.883
89683W        W61266  22.643  38.124   2.663
89684W        W61267  13.347  15.066   2.110
89685W        W61268  21.497  28.316   3.583
89686W        W61269  35.929  28.164   4.913
89687W        W61270  29.374  39.364  14.927
89688W        W61271   6.838  14.797   4.234
89689W        W61272  14.252  27.775  13.620
89690W        W61273  23.723  41.284  11.114
89691W        W61274  17.835  39.923   0.046
89692W        W61275  24.403  38.453   3.428
89693W        W61276   3.811   8.219  11.267
89694W        W61277  12.361  23.496  11.118
89695W        W61278   4.286  38.124  11.905
89696W        W61279  29.718  17.787   0.235
89697W        W61280  27.275  41.839  12.067
89698W        W61281  21.063  28.476   9.763
89699W        W61282  43.196  23.564   9.909
89700W        W61283  27.553   8.458  11.112
89701W        W61284  13.098  11.830   0.493
89702W        W61285  18.177   8.769   2.351
89703W        W61286  28.515  18.157   4.403
89704W        W61287   0.915  14.428   1.234
89705W        W61288  19.520   4.721   2.353
89706W        W61289  23.180  10.160  11.056
89707W        W61290  14.574  10.163   1.019
89708W        W61291  10.848  31.533  14.433
89709W        W61292  38.571  33.252   4.597
89710W        W61293  13.565  25.897  14.939
89711W        W61294  12.079  21.437  13.170
89712W        W61295  10.865  20.096   0.270
89713W        W61296  12.818  35.572  10.897
89714W        W61297  13.540  38.924  12.912
89715W        W61298  21.801  27.178   4.147
89716W        W61299  26.785  12.762  11.740
89717W        W61300  17.359  31.272   4.071
89718W        W61301  29.407  19.158  10.581
89719W        W61302  38.718  25.554   1.379
89720W        W61303  27.070  29.475  11.032
89721W        W61304  22.963  44.504  10.965
89722W        W61305  25.524  38.106  12.905
89723W        W61306  32.088  36.127   4.903
89724W        W61307  13.829   8.682  12.488
89725W        W61308  39.340   8.089   4.176
89726W        W61309  28.552  39.014   4.584
89727W        W61310  27.421   5.315   3.850
89728W        W61311   4.880  15.812   3.702
89729W        W61312   3.683  37.955   3.360
89730W        W61313  18.075  41.345   4.398
89731W        W61314  10.187   8.305   2.784
89732W        W61315  27.957  18.172   3.089
89733W        W61316  21.102  20.559  13.557
89734W        W61317  42.327  21.186   1.403
89735W        W61318   6.386   6.284   2.605
89736W        W61319  42.726  40.798  11.823
89737W        W61320  44.326  10.189  13.919
89738W        W61321  15.094   2.960   2.836
89739W        W61322  44.781  27.234   2.251
89740W        W61323  34.988  15.819   0.852
89741W        W61324  28.998  10.184  14.836
89742W        W61325  37.870   9.841   2.654
89743W        W61326  23.225  14.062  12.350
89744W        W61327  21.485  25.585  11.501
89745W        W61328  40.480  27.140  13.315
89746W        W61329  19.705  19.175   5.139
89747W        W61330  43.572  43.525   4.687
89748W        W61331  14.762   1.452   0.489
89749W        W61332  23.693  37.062  14.925
89750W        W61333  30.748   4.356   4.821
89751W        W61334  41.765  31.981   4.574
89752W        W61335  44.308  36.045   2.763
89753W        W61336  24.414  39.175   4.382
89754W        W61337  33.827  35.804   4.653
89755W        W61338  16.523  28.884  14.242
89756W        W61339   0.922  33.877   1.268
89757W        W61340  14.240  29.072   1.032
89758W        W61341  30.633  16.383   1.775
89759W        W61342  35.977  43.148  11.642
89760W        W61343   5.331  23.167   2.443
89761W        W61344  31.956  23.902   2.288
89762W        W61345  16.153  20.066   3.301
89763W        W61346  19.278  32.156  11.368
89764W        W61347   0.172  33.401   1.335
89765W        W61348   9.805  34.523   4.085
89766W        W61349   3.816  10.884   4.911
89767W        W61350  18.403  32.408  11.091
89768W        W61351   1.189  35.531   4.880
89769W        W61352  24.335  36.823  11.451
89770W        W61353  17.762   3.011  13.568
89771W        W61354  24.471  22.214   2.143
89772W        W61355  38.817   9.647   3.985
89773W        W61356  40.065  28.893   3.138
89774W        W61357  42.569  19.719  14.290
89775W        W61358   1.861  18.419  10.665
89776W        W61359  26.084  18.259   1.830
89777W        W61360  37.293  13.462  14.369
89778W        W61361  40.085  13.144  11.978
89779W        W61362  17.517  35.720   4.031
89780W        W61363  22.057  12.730  11.024
89781W        W61364  39.059  33.068   4.402
89782W        W61365  15.678  43.843   2.182
89783W        W61366   7.177   9.783  11.139
89784W        W61367  10.221   6.993  12.919
89785W        W61368  26.133  20.772   4.367
89786W        W61369  19.413  11.833   0.685
89787W        W61370  38.433  35.987  14.493
89788W        W61371  10.797  27.020  12.134
89789W        W61372  29.609  42.908   1.938
89790W        W61373  11.429  36.885  12.895
89791W        W61374  20.482  20.678  12.020
89792W        W61375  42.460  34.126   4.892
89793W        W61376  42.928  19.381   4.177
89794W        W61377  32.099  16.149  14.468
89795W        W61378  16.073  12.137   2.211
89796W        W61379  35.414  33.045  14.523
89797W        W61380  37.611  27.128   4.942
89798W        W61381  15.603  30.115   4.475
89799W        W61382  29.071  12.803  11.461
89800W        W61383  24.227  21.015   1.950
89801W        W61384   4.641  22.976   4.376
89802W        W61385  28.654  14.798   4.289
89803W        W61386  27.645  14.503  11.812
89804W        W61387  17.205  25.279  13.894
89805W        W61388  36.961   4.084  13.499
89806W        W61389   0.948  15.841  13.723
89807W        W61390  31.528   8.930   3.792
89808W        W61391   5.704  41.866   4.341
89809W        W61392  44.255  13.608   0.700
89810W        W61393  33.557   7.883   0.433
89811W        W61394  26.463   4.051  11.457
89812W        W61395  35.932  13.222   3.104
89813W        W61396  15.358  25.107  14.478
89814W        W61397  27.961  41.999  10.476
89815W        W61398  41.622   6.771   4.286
89816W        W61399  18.155  36.563   0.219
89817W        W61400  27.898   6.754  11.667
89818W        W61401  33.377  41.818  11.910
89819W        W61402  12.950   1.734   0.444
89820W        W61403  33.008   8.864  14.825
89821W        W61404  10.980   6.060   2.723
89822W        W61405  23.731  23.533   1.460
89823W        W61406  33.405  23.035  10.678
89824W        W61407   2.541  43.729   0.919
89825W        W61408  19.757  20.551   1.813
89826W        W61409  23.975   9.166  13.012
89827W        W61410  11.142  36.389   1.697
89828W        W61411   2.302  20.637   4.038
89829W        W61412   7.369  17.084   1.395
89830W        W61413  32.351  37.028  12.465
89831W        W61414  10.508  40.292   0.075
89832W        W61415   0.288  31.540   0.293
89833W        W61416   2.446  14.272   2.299
89834W        W61417   9.764   9.797   0.719
89835W        W61418  33.097   9.416   2.676
89836W        W61419  30.968   0.211  12.320
89837W        W61420  22.023   9.236   4.739
89838W        W61421   0.339   3.445  14.434
89839W        W61422   0.088  20.758  11.544
89840W        W61423  34.453  43.462   0.719
89841W        W61424   6.882  22.028  10.788
89842W        W61425  34.651  23.575  14.455
89843W        W61426  29.217  43.384  11.893
89844W        W61427  43.002  36.337   0.010
89845W        W61428  43.088  43.354   4.575
89846W        W61429  17.935  19.517  11.699
89847W        W61430  10.302  15.539   2.358
89848W        W61431  17.737  28.386  12.047
89849W        W61432  12.663   1.045   2.861
89850W        W61433  11.344   1.776   3.423
89851W        W61434  23.449   6.311  12.755
89852W        W61435  28.587  29.149  13.236
89853W        W61436   4.298  18.266  11.991
89854W        W61437  29.446   3.879  14.856
89855W        W61438  40.365   1.262   4.612
89856W        W61439  44.793  13.073  13.030
89857W        W61440  39.198  23.101   4.169
89858W        W61441  39.943  10.509  13.239
89859W        W61442  36.998   4.170  14.514
89860W        W61443  12.327   7.352  11.532
89861W        W61444  29.233  23.521  14.438
89862W        W61445  12.310  42.600  11.099
89863W        W61446  36.319   7.373   0.479
89864W        W61447  26.426   7.254   4.101
89865W        W61448   6.314  37.840   0.007
89866W        W61449   3.709   0.360  11.569
89867W        W61450  40.831  25.893  10.766
89868W        W61451  42.284  12.735  11.941
89869W        W61452   3.756  14.902   2.639
89870W        W61453  27.579  36.602   4.678
89871W        W61454  22.099  11.647  11.545
89872W        W61455   0.955  26.216  13.482
89873W        W61456  19.256  10.241   4.081
89874W        W61457  13.400  44.296  10.619
89875W        W61458  20.560  22.906   3.352
89876W        W61459  43.980  34.872   2.295
89877W        W61460  20.115  36.537  14.304
89878W        W61461  20.555   4.956  11.581
89879W        W61462   4.091  40.758  14.808
89880W        W61463  24.200  40.294   0.249
89881W        W61464  21.425   3.547   4.259
89882W        W61465  38.547   5.293   3.224
89883W        W61466  33.452  23.721  11.898
89884W        W61467   1.870  24.251  11.426
89885W        W61468  14.182  16.628  10.688
89886W        W61469  35.320  27.581   2.815
89887W        W61470  39.099   9.692   9.986
89888W        W61471  33.514  10.625   0.999
89889W        W61472  19.298   6.975   1.304
89890W        W61473  16.440  26.948  13.870
89891W        W61474  23.050  39.437   2.500
89892W        W61475  42.628  34.066  14.249
89893W        W61476  19.442  37.467  12.529
89894W        W61477  15.204   5.456   0.311
89895W        W61478  32.600  19.539   3.304
89896W        W61479   5.651  21.848  12.466
89897W        W61480   1.686  40.768   4.334
89898W        W61481  22.959  36.403  10.426
89899W        W61482   5.421  12.731  14.078
89900W        W61483  37.528  11.193   3.746
89901W        W61484  17.465  41.280  10.767
89902W        W61485  33.139  42.599  12.667
89903W        W61486   4.970  20.995  13.383
89904W        W61487   8.410   9.668  14.951
89905W        W61488  25.864  35.048   3.589
89906W        W61489  22.650  15.226  13.877
89907W        W61490  38.642   1.433  12.544
89908W        W61491   7.780  30.189  13.108
89909W        W61492  13.265  19.693   4.439
89910W        W61493  14.265  31.961   2.865
89911W        W61494  24.547  31.085   4.722
89912W        W61495   1.085  12.127  14.431
89913W        W61496  29.833  21.662  10.955
89914W        W61497  38.508  38.385  10.379
89915W        W61498  42.575   4.441  14.919
89916W        W61499  44.340  23.674  13.896
89917W        W61500  16.117   8.598  11.574
89918W        W61501   0.961  25.613   3.734
89919W        W61502  25.082   7.997   1.391
89920W        W61503  18.079  19.804  12.518
89921W        W61504   6.725  33.410   1.078
89922W        W61505  14.216  24.120  14.065
89923W        W61506  27.430  39.056   0.288
89924W        W61507  30.121  30.592   2.894
89925W        W61508  39.884   9.625  13.120
89926W        W61509  44.219   6.440   1.192
89927W        W61510  10.797  26.400   4.101
89928W        W61511   2.372  43.684   4.635
89929W        W61512   4.146  23.579  11.943
89930W        W61513  29.393   5.994  14.003
89931W        W61514  22.010  23.282  14.557
89932W        W61515  26.257  28.582   0.307
89933W        W61516  37.976  37.113  13.854
89934W        W61517  34.994   0.201   1.341
89935W        W61518  13.934  10.946  11.032
89936W        W61519  36.838  43.504   3.170
89937W        W61520  37.140   3.776   4.946
89938W        W61521   7.920  34.518  13.573
89939W        W61522   8.857  24.594  12.466
89940W        W61523   5.121  42.979   0.592
89941W        W61524   4.491  31.964   4.674
89942W        W61525  22.730  31.558   3.924
89943W        W61526  30.816  10.309   2.163
89944W        W61527  29.054   0.690  11.181
89945W        W61528  13.223  44.681  11.995
89946W        W61529  21.211   1.304   4.021
89947W        W61530  10.828   6.256   1.015
89948W        W61531  23.130   9.637   5.037
89949W        W61532  29.922  27.545   3.900
89950W        W61533  42.138   4.316   1.843
89951W        W61534  40.945  12.141   0.445
89952W        W61535  20.841   5.000   5.099
89953W        W61536  34.048  37.396   0.986
89954W        W61537  26.575  44.727   1.367
89955W        W61538  33.617  36.380   3.556
89956W        W61539  42.555  32.816  12.855
89957W        W61540  44.919  34.038   4.520
89958W        W61541  26.436  28.643   0.992
89959W        W61542  32.451   4.896   4.879
89960W        W61543  20.036  18.077  12.906
89961W        W61544  29.120  32.669  10.718
89962W        W61545  26.393  30.928   4.077
89963W        W61546   1.791  39.059   2.832
89964W        W61547  14.627  29.149  14.355
89965W        W61548  11.241   3.388   0.849
89966W        W61549   8.313  22.583   1.910
89967W        W61550   1.686  38.567   5.527
89968W        W61551  38.438  35.764   1.274
89969W        W61552  16.019   6.884  11.093
89970W        W61553  41.792  37.047   0.911
89971W        W61554  37.219  42.228  11.492
89972W        W61555  43.185  43.779   1.238
89973W        W61556   2.231  12.663  12.649
89974W        W61557  21.144  39.489  12.016
89975W        W61558   0.472  32.483  14.801
89976W        W61559  11.123  38.895   2.315
89977W        W61560  35.955   6.387  13.459
89978W        W61561  35.984  24.754   4.549
89979W        W61562  36.677  10.316  12.521
89980W        W61563  34.572  28.219  13.912
89981W        W61564  11.573   2.176  10.815
89982W        W61565  34.550  18.216  10.369
89983W        W61566  24.816  20.027  14.760
89984W        W61567   3.214   3.269   2.440
89985W        W61568   4.710  24.444   3.084
89986W        W61569  14.570  14.131   0.001
89987W        W61570  29.515  28.066   3.873
89988W        W61571   0.869  11.236   0.794
89989W        W61572  14.649  29.442   1.170
89990W        W61573  42.961  13.082  12.332
89991W        W61574  32.696  37.383   1.270
89992W        W61575   5.466  34.492   1.273
89993W        W61576  14.290  22.789  14.737
89994W        W61577   1.304  29.637   5.005
89995W        W61578  14.016  35.423  11.959
89996W        W61579  17.116  10.569  12.918
89997W        W61580  28.136  27.091  10.448
89998W        W61581  30.469  35.301   2.259
89999W        W61582  35.683  25.664   4.251
90000W        W61583  20.471  25.556   1.339
90001W        W61584  17.750  44.232   2.827
90002W        W61585  41.333  29.409   0.826
90003W        W61586  42.445  18.579   2.426
90004W        W61587  43.036  13.687   3.276
90005W        W61588  35.491  19.521   2.663
90006W        W61589  15.239  10.671  12.968
90007W        W61590  14.010  26.819   0.451
90008W        W61591   7.496  34.980   2.167
90009W        W61592  19.113   3.657  14.333
90010W        W61593   9.300  16.511  14.790
90011W        W61594  31.904  20.988   1.791
90012W        W61595  30.206   2.792  14.043
90013W        W61596  35.183  41.866  12.098
90014W        W61597  18.799  10.890   1.349
90015W        W61598  30.260  26.406   4.402
90016W        W61599   7.390  36.036   0.601
90017W        W61600  28.871  25.480  11.151
90018W        W61601   6.536   1.790   3.008
90019W        W61602  37.868   9.272  14.211
90020W        W61603   5.290   7.513   2.166
90021W        W61604  41.576  28.715   0.285
90022W        W61605   4.152  23.737   3.612
90023W        W61606  40.824  17.470   1.138
90024W        W61607   5.851  38.598  14.017
90025W        W61608  35.393  38.515   3.162
90026W        W61609   3.761   2.067  12.477
90027W        W61610   9.802  31.894  12.314
90028W        W61611  32.119  30.404  12.049
90029W        W61612  13.668  16.162   4.695
90030W        W61613   2.543  31.625   0.898
90031W        W61614  14.389  17.623   4.075
90032W        W61615  28.985  39.464  12.862
90033W        W61616  20.131  44.701  14.339
90034W        W61617  13.203  40.911  14.526
90035W        W61618  38.937   9.248   1.185
90036W        W61619  24.994  33.056  11.628
90037W        W61620   8.192  12.702   0.471
90038W        W61621   5.266   1.286   3.654
90039W        W61622  44.007   8.646  12.409
90040W        W61623  42.411  32.385   3.174
90041W        W61624   5.835   0.586   0.965
90042W        W61625  35.651  34.623   4.077
90043W        W61626   9.668  38.410   4.713
90044W        W61627  13.104  23.074   3.824
90045W        W61628   9.934  29.066   2.862
90046W        W61629  12.556  13.512  11.009
90047W        W61630  39.799   8.422   4.551
90048W        W61631   1.325  31.566  14.286
90049W        W61632   5.153  39.065   0.442
90050W        W61633  40.426  44.764  11.183
90051W        W61634   2.502  18.100  11.567
90052W        W61635   7.623  23.432   0.833
90053W        W61636   3.352   9.287   2.202
90054W        W61637   2.861   4.224  14.331
90055W        W61638  42.048   8.266  11.158
90056W        W61639   4.017  26.571  11.548
90057W        W61640  14.085  25.620  13.371
90058W        W61641   2.234  31.219  14.500
90059W        W61642  44.559  38.252   2.358
90060W        W61643  33.645  43.916  14.072
90061W        W61644   7.122  32.886   0.299
90062W        W61645   1.004  11.364   2.248
90063W        W61646  38.736   1.221  13.041
90064W        W61647  11.568  34.604   1.296
90065W        W61648   1.465  10.781   2.761
90066W        W61649   3.885   0.978  14.841
90067W        W61650   9.032  20.970   3.368
90068W        W61651  18.758  21.590  14.440
90069W        W61652  41.140  28.948  12.168
90070W        W61653  22.995  40.454   3.379
90071W        W61654  10.824  25.093   2.136
90072W        W61655   0.301  28.454   2.493
90073W        W61656   5.042  16.308  12.622
90074W        W61657   1.000  11.598   0.446
90075W        W61658  41.253  42.832  13.550
90076W        W61659  36.634  35.392  13.205
90077W        W61660  32.319  22.016  10.275
90078W        W61661  40.392  14.019  14.286
90079W        W61662  25.018  25.974   3.517
90080W        W61663  40.805   8.326   4.693
90081W        W61664  43.886  20.632   0.205
90082W        W61665  44.412  12.854   2.177
90083W        W61666  40.395  39.720  14.101
90084W        W61667  19.605   6.464  14.245
90085W        W61668  13.496  16.182  10.997
90086W        W61669  43.403   2.823  14.644
90087W        W61670  23.735  40.407   3.716
90088W        W61671  41.448  15.946  12.029
90089W        W61672  18.163  22.498   2.284
90090W        W61673  12.653   7.815  13.018
90091W        W61674  32.395  36.771  10.812
90092W        W61675  34.874  33.173   0.741
90093W        W61676  14.174  26.179  12.539
90094W        W61677  12.742  27.065   3.250
90095W        W61678  35.811  24.527   3.102
90096W        W61679   6.399  41.727   3.071
90097W        W61680  17.299  28.509   0.690
90098W        W61681  22.964  25.524   2.452
90099W        W61682  23.490  22.432  11.646
90100W        W61683  30.965  19.144  10.216
90101W        W61684  33.394  33.302  14.500
90102W        W61685  43.811  26.586  13.806
90103W        W61686  13.700  17.780  10.601
90104W        W61687  26.146  17.881   1.162
90105W        W61688   8.291  39.737  11.653
90106W        W61689   2.694  23.271   0.654
90107W        W61690   3.372  31.268   3.155
90108W        W61691  26.983  18.629  14.086
90109W        W61692  28.628   9.445  13.883
90110W        W61693  23.939  14.450  12.834
90111W        W61694  10.862  43.134   5.014
90112W        W61695  29.585  37.367   1.943
90113W        W61696  39.564  17.717   4.603
90114W        W61697  32.783   8.612   3.281
90115W        W61698   3.641  10.803  12.418
90116W        W61699  42.258   6.742   1.822
90117W        W61700  24.963   8.822   1.043
90118W        W61701  16.776  44.516  13.440
90119W        W61702   8.296  23.653   2.389
90120W        W61703   3.166  39.056  10.673
90121W        W61704  31.428  29.084  12.888
90122W        W61705  15.548  21.037   3.792
90123W        W61706  25.136  20.680   4.256
90124W        W61707  28.046  44.276  11.614
90125W        W61708  40.826   3.515   3.600
90126W        W61709  11.564  26.603   1.818
90127W        W61710  41.411  33.409   1.236
90128W        W61711  12.681   9.311   2.687
90129W        W61712   1.065  13.843  13.320
90130W        W61713  44.912  26.924   3.237
90131W        W61714  13.511  19.158  11.004
90132W        W61715  39.436   5.849  13.735
90133W        W61716  27.522  16.592   4.466
90134W        W61717   7.874   1.652  14.961
90135W        W61718  29.980  11.236  11.898
90136W        W61719  38.029  39.442  13.039
90137W        W61720  13.182  29.263   2.293
90138W        W61721  27.626   7.510  14.793
90139W        W61722  23.123  25.074   4.232
90140W        W61723  39.208  16.689  12.542
90141W        W61724   4.368  41.315  13.976
90142W        W61725   0.886   6.511  13.999
90143W        W61726  12.135  16.647  11.636
90144W        W61727  10.594  42.995  10.950
90145W        W61728  27.668  18.004   4.317
90146W        W61729  11.141  38.051   2.942
90147W        W61730  23.712  43.885   2.250
90148W        W61731  26.709  15.570  10.549
90149W        W61732  14.864  43.227  14.062
90150W        W61733  22.000  37.325   1.402
90151W        W61734   0.459   4.440   4.132
90152W        W61735  38.888  20.145   0.911
90153W        W61736  28.492   6.824  13.105
90154W        W61737  19.045   7.773   2.311
90155W        W61738  43.798  24.119  12.570
90156W        W61739   6.268  21.024   4.114
90157W        W61740   7.867   1.342  12.614
90158W        W61741  10.701  11.430  14.429
90159W        W61742  29.598  24.149  13.893
90160W        W61743  33.360  39.533   0.465
90161W        W61744   0.245  43.334   3.386
90162W        W61745  13.283  28.562  12.312
90163W        W61746  28.178  12.845  10.686
90164W        W61747   0.721  21.548   4.705
90165W        W61748  19.642  43.895  10.637
90166W        W61749  12.799  22.466   0.465
90167W        W61750  26.455  40.372  14.966
90168W        W61751  13.598  14.790  13.917
90169W        W61752  30.085  39.738   4.159
90170W        W61753  41.125  20.034   0.044
90171W        W61754  32.701   4.283  14.740
90172W        W61755  34.620   1.808  13.921
90173W        W61756  21.502  41.271  10.692
90174W        W61757  22.618  39.105  12.064
90175W        W61758  17.803   7.150   2.468
90176W        W61759  34.954  14.238  13.424
90177W        W61760  39.967  21.099   3.660
90178W        W61761   9.556  10.198   1.020
90179W        W61762  20.273  13.438  11.264
90180W        W61763   6.448   9.454  12.906
90181W        W61764  22.919   0.315  10.670
90182W        W61765  17.781  33.949   4.523
90183W        W61766  33.387  25.990   4.794
90184W        W61767  12.041  41.307   0.180
90185W        W61768   4.784  13.139   3.745
90186W        W61769  43.684  41.851  13.937
90187W        W61770  36.733  29.967   2.483
90188W        W61771  20.581   3.339   2.818
90189W        W61772  32.442  42.570  13.454
90190W        W61773   9.409  16.381   4.082
90191W        W61774  43.702   7.536  13.730
90192W        W61775  34.043  19.720   2.749
90193W        W61776   3.278   3.325   0.492
90194W        W61777   4.412  11.573  10.716
90195W        W61778   0.200  22.552  11.015
90196W        W61779  11.032   0.877  10.630
90197W        W61780  15.659  16.381  11.658
90198W        W61781   7.298  43.755   1.394
90199W        W61782  25.328  17.723  14.942
90200W        W61783  13.733  21.889  12.381
90201W        W61784   4.734  32.432   2.318
90202W        W61785  10.821   5.833  11.903
90203W        W61786  16.538  14.782  11.601
90204W        W61787  20.117  29.167  10.202
90205W        W61788  36.878  35.468  12.741
90206W        W61789  29.107  38.102  12.570
90207W        W61790  15.629  34.008  14.932
90208W        W61791  35.111  18.302   0.411
90209W        W61792   5.355  37.169   3.289
90210W        W61793  24.627  30.486   0.922
90211W        W61794  20.870  10.416   5.215
90212W        W61795   1.545  17.784  12.939
90213W        W61796  23.719  28.499   0.820
90214W        W61797  32.095  32.054   2.434
90215W        W61798  36.061   3.024  10.377
90216W        W61799  24.089  27.619  10.730
90217W        W61800  18.711  10.801  14.927
90218W        W61801  25.329  36.325   4.900
90219W        W61802  18.036  43.509   3.313
90220W        W61803  22.544  37.404  11.914
90221W        W61804  30.814  38.122  11.237
90222W        W61805  40.634  10.188  14.457
90223W        W61806  39.345   7.727  14.393
90224W        W61807  10.131   1.474   4.595
90225W        W61808  27.972  12.487   1.830
90226W        W61809  18.234  32.103   0.937
90227W        W61810  19.724   5.189   3.708
90228W        W61811  33.358  19.279  12.005
90229W        W61812  26.888  14.621  13.422
90230W        W61813  24.053  27.187  12.579
90231W        W61814  31.642   6.517  12.885
90232W        W61815  20.593  15.312  10.695
90233W        W61816  33.284  26.098  14.139
90234W        W61817  20.958  28.465   3.785
90235W        W61818   3.974   5.939   0.732
90236W        W61819   1.488   4.545   0.834
90237W        W61820  27.504   3.318   2.628
90238W        W61821  33.362   2.715   1.041
90239W        W61822   4.150  32.981  13.430
90240W        W61823  43.453  40.754   3.733
90241W        W61824  22.617  24.777  12.856
90242W        W61825  42.733  39.814  12.342
90243W        W61826   8.081  22.264  13.860
90244W        W61827  38.339  18.983   1.686
90245W        W61828  24.407  10.969   3.565
90246W        W61829  28.227   8.698  14.354
90247W        W61830   0.448  40.871   4.706
90248W        W61831  33.539  15.108   0.520
90249W        W61832  20.134  31.026  14.285
90250W        W61833  13.511  11.210   1.165
90251W        W61834  11.810   5.531   1.894
90252W        W61835   7.611  14.466  13.538
90253W        W61836   3.321   7.450   3.994
90254W        W61837  32.932  41.308   1.722
90255W        W61838  37.431  28.340   1.544
90256W        W61839  34.958  27.652  14.416
90257W        W61840   0.697  25.121   3.628
90258W        W61841   9.798  24.387  12.647
90259W        W61842  35.023  20.627   1.434
90260W        W61843   0.823  18.643   0.354
90261W        W61844  23.108  35.559   0.727
90262W        W61845  35.073  36.028   4.444
90263W        W61846  35.900  41.893   2.491
90264W        W61847  24.675  20.782   1.355
90265W        W61848   4.655   2.757  14.884
90266W        W61849   0.997  24.079  11.606
90267W        W61850   9.685  14.638  13.967
90268W        W61851  11.095   1.351   3.606
90269W        W61852  37.068  43.281  11.100
90270W        W61853  43.113  14.011  13.252
90271W        W61854  38.445  29.261  14.791
90272W        W61855  44.055  10.314   0.901
90273W        W61856   0.047  31.393   4.085
90274W        W61857   6.059  22.927  14.460
90275W        W61858   4.621  35.809   1.353
90276W        W61859  11.424  40.077  13.570
90277W        W61860  14.371  35.777   9.848
90278W        W61861  22.209   4.210   2.705
90279W        W61862  17.585   8.177   4.784
90280W        W61863  34.772  34.876  10.761
90281W        W61864  17.262  25.498  11.093
90282W        W61865  16.427  23.585  13.959
90283W        W61866  44.129  22.880  11.427
90284W        W61867   5.769  32.197   1.701
90285W        W61868  13.934   4.402  12.469
90286W        W61869   8.351  34.182  12.033
90287W        W61870   5.682  28.106   3.305
90288W        W61871   8.349   4.831   0.758
90289W        W61872  28.419   6.462   4.053
90290W        W61873  23.194  34.555  11.207
90291W        W61874  31.005  19.908   2.363
90292W        W61875  24.955  16.442   2.326
90293W        W61876  42.033  32.910  11.133
90294W        W61877  25.509  31.597  10.859
90295W        W61878  11.977  30.370  13.537
90296W        W61879   1.996   8.166  11.707
90297W        W61880  16.031   5.385  14.040
90298W        W61881  36.091  19.359   4.124
90299W        W61882   8.458  17.524  10.550
90300W        W61883  30.663  10.701  12.893
90301W        W61884   3.020  14.791  13.522
90302W        W61885  19.035   7.823  12.647
90303W        W61886  22.443  29.577  14.204
90304W        W61887  12.651  31.691  13.816
90305W        W61888  25.448  10.704   2.293
90306W        W61889  42.188  22.121  10.802
90307W        W61890  19.100  30.154   4.631
90308W        W61891   1.702  29.082  11.056
90309W        W61892   4.514   6.283   3.382
90310W        W61893  14.374  41.662  11.087
90311W        W61894  18.514  14.770   3.713
90312W        W61895  12.803   6.998   0.348
90313W        W61896  37.396  28.238   2.879
90314W        W61897  39.868   9.925   3.910
90315W        W61898  32.395  14.580   2.744
90316W        W61899  22.932  41.799   1.761
90317W        W61900  23.719  11.553  11.155
90318W        W61901  13.405  28.166   2.871
90319W        W61902  24.014  41.016   0.716
90320W        W61903  27.699   4.484  10.987
90321W        W61904   2.012  10.151   4.675
90322W        W61905  38.564   8.332   3.859
90323W        W61906   6.380  40.946   3.051
90324W        W61907  36.635  26.671   4.123
90325W        W61908  16.129   6.649  12.457
90326W        W61909  36.347   8.936   5.117
90327W        W61910  38.839  20.775   0.325
90328W        W61911   3.874  27.733   4.637
90329W        W61912  14.414  42.433  12.967
90330W        W61913   2.406  24.796  14.945
90331W        W61914  24.708  34.975   1.225
90332W        W61915  18.504  30.013   1.256
90333W        W61916  32.062  39.900   3.928
90334W        W61917  28.664  38.346   3.184
90335W        W61918  21.202  21.494  10.755
90336W        W61919  35.825  12.697  12.850
90337W        W61920   0.411  38.950  13.579
90338W        W61921  43.632  21.041  10.606
90339W        W61922  25.466  27.385  14.474
90340W        W61923  42.039  38.355  14.949
90341W        W61924  41.721  21.163  10.644
90342W        W61925  10.766  44.769   4.545
90343W        W61926  23.380  44.583   4.131
90344W        W61927  35.006  41.116  11.523
90345W        W61928  15.572   6.324  14.968
90346W        W61929  21.680  35.638  14.812
90347W        W61930  27.213  25.620  12.987
90348W        W61931  39.004  26.191   1.618
90349W        W61932  44.383  13.544   3.547
90350W        W61933  23.663  31.448  13.485
90351W        W61934  42.631   9.238  10.597
90352W        W61935  33.526  32.397  12.083
90353W        W61936  40.569   2.825  14.817
90354W        W61937   1.166  44.266  11.524
90355W        W61938  33.169  11.681  12.537
90356W        W61939  13.042  41.819   2.766
90357W        W61940  21.561  41.804  14.139
90358W        W61941  14.084  44.069  11.143
90359W        W61942  28.744  31.589  11.572
90360W        W61943  27.906   4.474  12.350
90361W        W61944  12.194  20.342  10.888
90362W        W61945  40.024  32.839   4.086
90363W        W61946  12.905  38.595  14.597
90364W        W61947   4.774   0.671  14.927
90365W        W61948  16.843  23.312   9.885
90366W        W61949  17.156   2.297  14.551
90367W        W61950  17.621   9.764  12.919
90368W        W61951  41.055  17.640  11.030
90369W        W61952  17.133  29.576   0.333
90370W        W61953  42.937  41.282   2.630
90371W        W61954   4.398  42.779   1.791
90372W        W61955  15.302  15.207  10.560
90373W        W61956  44.210  17.181   0.248
90374W        W61957  15.807   9.996  12.484
90375W        W61958  40.542  40.288  14.160
90376W        W61959  13.581   2.138   1.593
90377W        W61960  26.966  10.620  10.774
90378W        W61961  35.350  12.772  12.019
90379W        W61962   5.380   1.796   3.733
90380W        W61963   1.536  35.980  14.798
90381W        W61964   8.143  43.735   2.608
90382W        W61965  37.078   0.677   1.654
90383W        W61966  41.975  21.365  12.849
90384W        W61967   2.698  34.473  10.747
90385W        W61968  36.096  37.004   0.323
90386W        W61969   8.136   0.990   1.410
90387W        W61970  29.132   5.421   2.313
90388W        W61971   6.065   9.690   0.709
90389W        W61972  27.420  13.923   0.236
90390W        W61973  37.826  17.656  11.306
90391W        W61974  18.361  43.383  12.908
90392W        W61975   7.223   3.879  11.045
90393W        W61976  29.910  35.905   4.535
90394W        W61977   4.857  17.256   2.212
90395W        W61978  23.982  21.284   0.721
90396W        W61979  30.453  36.831   3.878
90397W        W61980  33.447  41.427  10.195
90398W        W61981   4.357  43.459  13.955
90399W        W61982  44.770  42.398   3.047
90400W        W61983  14.826  23.886   1.742
90401W        W61984  30.115   5.674  14.817
90402W        W61985  40.017  41.111   1.876
90403W        W61986  42.007  37.082  14.004
90404W        W61987  34.990  24.369   1.409
90405W        W61988  22.775  31.064  13.371
90406W        W61989  21.348   0.511  12.149
90407W        W61990  18.341   3.360  10.253
90408W        W61991  40.982   7.751   1.375
90409W        W61992   1.911   6.244   3.381
90410W        W61993  14.860  25.149   1.355
90411W        W61994  27.448  42.605  12.160
90412W        W61995  19.088  18.708   4.147
90413W        W61996  26.759  12.614   0.507
90414W        W61997  28.374  32.022   1.453
90415W        W61998  39.240   7.744  13.862
90416W        W61999  13.707  11.827  13.452
90417W        W62000  24.631   1.986   3.879
90418W        W62001  24.039  39.329   3.122
90419W        W62002  28.922   4.460   0.314
90420W        W62003  37.569  38.158  13.460
90421W        W62004  42.243  37.988   0.811
90422W        W62005  32.029  25.359   4.598
90423W        W62006  13.343  34.447   4.026
90424W        W62007   0.809   0.731   1.913
90425W        W62008   0.347   3.193   2.611
90426W        W62009  42.699  22.208  13.506
90427W        W62010  33.100  36.628   1.220
90428W        W62011  18.117  17.211  11.548
90429W        W62012  25.740  44.804  12.893
90430W        W62013   3.467  42.091   4.028
90431W        W62014  19.959  11.595   4.282
90432W        W62015  36.653  21.002   0.808
90433W        W62016  14.264   2.571   4.355
90434W        W62017  30.030  22.600   3.141
90435W        W62018   4.279  11.773  13.322
90436W        W62019  11.830  35.749   4.181
90437W        W62020   6.432  17.201  12.008
90438W        W62021  30.172   7.804   4.073
90439W        W62022  34.027  23.031   3.201
90440W        W62023  23.578  25.105  12.929
90441W        W62024  19.553  38.065  12.909
90442W        W62025  42.793   9.692   2.702
90443W        W62026   1.018   3.211   0.785
90444W        W62027  41.776   6.667  14.109
90445W        W62028  43.012  27.852   2.196
90446W        W62029  22.749  15.852   0.993
90447W        W62030  26.776  28.136  14.887
90448W        W62031  19.573   2.815  14.324
90449W        W62032   6.443  17.587   0.411
90450W        W62033  27.990  25.099   2.731
90451W        W62034  12.783  31.557   3.121
90452W        W62035  30.848   9.361   0.792
90453W        W62036  20.716  28.177  14.915
90454W        W62037  36.491   6.344  10.316
90455W        W62038  31.014  26.655  13.343
90456W        W62039  26.201   6.267   1.995
90457W        W62040   7.680   2.646  13.566
90458W        W62041   6.564   4.803  12.398
90459W        W62042  18.210   4.678  14.783
90460W        W62043  30.698  27.476   0.920
90461W        W62044  32.678  12.158  11.408
90462W        W62045  19.564  29.876  12.989
90463W        W62046   4.613  24.465  12.449
90464W        W62047  21.672  13.318  13.374
90465W        W62048  19.219  18.501  11.075
90466W        W62049  18.867   6.125   0.377
90467W        W62050  13.655   3.745  10.647
90468W        W62051  16.786  13.572  12.980
90469W        W62052  39.623   6.166  14.341
90470W        W62053  13.105  40.139   2.213
90471W        W62054  30.437  33.333   4.490
90472W        W62055  14.748  25.335  12.093
90473W        W62056  44.124  34.617   0.748
90474W        W62057  32.479   8.457   2.110
90475W        W62058   6.776  18.588   3.835
90476W        W62059  25.724  25.338   1.762
90477W        W62060  29.448  29.545   1.856
90478W        W62061  40.253   7.793  14.399
90479W        W62062  31.377   1.233   3.729
90480W        W62063   6.860  23.005   3.653
90481W        W62064  12.746   0.545   2.798
90482W        W62065  44.435  22.389   2.891
90483W        W62066  26.519   5.482  11.961
90484W        W62067   2.076  29.850  12.325
90485W        W62068   2.239  44.026   3.713
90486W        W62069  40.290   5.716  14.698
90487W        W62070  37.462  34.394   2.952
90488W        W62071   8.171  27.823   2.591
90489W        W62072  27.725  14.227   2.282
90490W        W62073   8.879  44.994   4.462
90491W        W62074  11.395  24.096   0.291
90492W        W62075   2.964   7.101  13.413
90493W        W62076  28.713   2.957  11.940
90494W        W62077  33.605  31.501   0.861
90495W        W62078  33.863  33.700   1.375
90496W        W62079   7.179  36.945   2.406
90497W        W62080  39.500  37.149   1.203
90498W        W62081  25.688  31.568   1.236
90499W        W62082  39.611  18.359  14.941
90500W        W62083  41.408  25.327  12.368
90501W        W62084  34.124   7.384   4.128
90502W        W62085  22.984  16.134  11.644
90503W        W62086  23.338   7.800  13.935
90504W        W62087   1.693  13.584  10.866
90505W        W62088   5.837  37.085  14.282
90506W        W62089  31.658  41.785  14.318
90507W        W62090   1.985   5.370   3.896
90508W        W62091  36.113  10.150   0.230
90509W        W62092  30.815  42.671   2.497
90510W        W62093  41.504   5.400   2.366
90511W        W62094  24.297   2.004  13.111
90512W        W62095  42.771  38.021   1.656
90513W        W62096   5.837  35.669  13.851
90514W        W62097  13.167  33.022  11.267
90515W        W62098  17.236  41.773  11.078
90516W        W62099   3.019   1.522  12.111
90517W        W62100  14.795  32.542  11.608
90518W        W62101  19.806   8.227  13.349
90519W        W62102  34.563  17.287   0.204
90520W        W62103   8.510   7.909   0.787
90521W        W62104  39.175  40.959   1.450
90522W        W62105   8.181  42.956   3.176
90523W        W62106  27.226  28.164   1.971
90524W        W62107  34.376  23.635  10.449
90525W        W62108  39.387  18.800  14.832
90526W        W62109  38.135   8.405   0.385
90527W        W62110  27.412   0.263   4.223
90528W        W62111   2.235   8.374  14.884
90529W        W62112  21.795  42.712  14.288
90530W        W62113  18.597  18.314   3.686
90531W        W62114  24.450  44.739  13.288
90532W        W62115  28.697   3.961   0.891
90533W        W62116  44.485  20.941   1.345
90534W        W62117   6.766  10.672   2.065
90535W        W62118  38.789   8.787  14.932
90536W        W62119   4.924  10.255   5.004
90537W        W62120  42.452  24.638   2.679
90538W        W62121  21.172   6.217  11.231
90539W        W62122  40.547  16.629  14.372
90540W        W62123  23.980  24.701   4.423
90541W        W62124  19.433  44.382   0.935
90542W        W62125   5.171  41.017  11.490
90543W        W62126  19.765   3.704   3.782
90544W        W62127  21.948   6.270  12.961
90545W        W62128  39.820  13.308   2.820
90546W        W62129  34.846   8.156   0.653
90547W        W62130  41.203  41.916  14.978
90548W        W62131  26.473  34.795  14.777
90549W        W62132  32.020   6.925   2.836
90550W        W62133  33.626  18.235  12.529
90551W        W62134  21.213  38.355   4.672
90552W        W62135   5.175  42.689  14.926
90553W        W62136  42.197  19.656   3.669
90554W        W62137  36.863   8.640   3.312
90555W        W62138  24.206   9.674  11.716
90556W        W62139  41.750   3.980   4.215
90557W        W62140  44.045  15.091  14.301
90558W        W62141   3.406  17.141  14.551
90559W        W62142   8.400   5.132   3.137
90560W        W62143  17.756  14.896   3.214
90561W        W62144  23.643  13.033   3.988
90562W        W62145  25.570  10.829  12.005
90563W        W62146  32.902  44.122   3.803
90564W        W62147   0.313  29.467  12.624
90565W        W62148  28.036  44.368  12.176
90566W        W62149   0.457  36.583   1.861
90567W        W62150  31.701  15.213   0.335
90568W        W62151  43.016  26.625   4.555
90569W        W62152  21.097  22.400   5.010
90570W        W62153  43.716   6.474   1.317
90571W        W62154  29.222   3.330  13.434
90572W        W62155  30.392   7.226   2.256
90573W        W62156  38.401   8.224  12.021
90574W        W62157  24.740   6.867   3.910
90575W        W62158   7.873  28.182   1.856
90576W        W62159   9.789  32.588  13.569
90577W        W62160  44.624  37.732   3.287
90578W        W62161   7.297  16.164   2.487
90579W        W62162  20.060  35.675   2.270
90580W        W62163  35.679  16.319   3.972
90581W        W62164  23.927  16.810  13.483
90582W        W62165  17.522  19.549  14.486
90583W        W62166   3.883   1.042   2.402
90584W        W62167  21.189  37.923   1.914
90585W        W62168  32.055  25.697   2.690
90586W        W62169  26.760  32.828   4.932
90587W        W62170  43.626  21.205  12.360
90588W        W62171  36.729   4.275   1.829
90589W        W62172   8.332  10.459   0.502
90590W        W62173  14.545  30.607   1.654
90591W        W62174  23.488  42.409   4.151
90592W        W62175  19.031  41.375  12.466
90593W        W62176  11.124  30.388  13.664
90594W        W62177   3.031   2.900  12.624
90595W        W62178  15.025  18.319   2.201
90596W        W62179   7.204  29.453   4.549
90597W        W62180  17.019  39.330  11.010
90598W        W62181  25.643  30.535  13.369
90599W        W62182  29.610  20.853   2.765
90600W        W62183  10.691  29.475   1.886
90601W        W62184  38.793  32.820   1.507
90602W        W62185   3.248  15.728   4.763
90603W        W62186   3.177   0.133  12.420
90604W        W62187  22.117  37.098   1.877
90605W        W62188  20.160  23.521  13.070
90606W        W62189   6.051  15.622  14.327
90607W        W62190   5.732  28.616   1.375
90608W        W62191  40.747  40.007   0.269
90609W        W62192   6.815  27.561   3.819
90610W        W62193  22.180  24.834   1.330
90611W        W62194   5.764   1.828   1.887
90612W        W62195  11.835   5.970  13.900
90613W        W62196   9.182  32.328   4.538
90614W        W62197   3.940  10.749  10.657
90615W        W62198  24.984  37.380  11.653
90616W        W62199  34.152  26.181  13.432
90617W        W62200  19.577  28.695  14.426
90618W        W62201  25.004   2.349   3.712
90619W        W62202  37.866  32.817  11.984
90620W        W62203  21.213  36.295  14.469
90621W        W62204  24.445  39.952  13.979
90622W        W62205  44.192   8.258  11.622
90623W        W62206  26.429  20.553  12.068
90624W        W62207   7.115  19.723  13.969
90625W        W62208  44.356   3.206  12.162
90626W        W62209  36.498   1.951  12.619
90627W        W62210  43.857  41.494   4.777
90628W        W62211   4.172  19.202  14.285
90629W        W62212  29.917  12.644  14.396
90630W        W62213  43.733   0.599  14.437
90631W        W62214   9.593  24.705   1.245
90632W        W62215  41.489   9.191  12.777
90633W        W62216   6.625  22.211   2.204
90634W        W62217  14.558  36.445  10.004
90635W        W62218  33.638   7.911   1.926
90636W        W62219  44.410  35.314  11.095
90637W        W62220  44.778  25.794  11.928
90638W        W62221  14.751  22.871  13.312
90639W        W62222  31.999  22.174  13.463
90640W        W62223  31.925  12.828  10.900
90641W        W62224  12.606  15.102   0.978
90642W        W62225  32.871  10.877   1.851
90643W        W62226  20.490  39.488  11.415
90644W        W62227  14.305  38.440  13.975
90645W        W62228  20.724  34.211  12.958
90646W        W62229  24.190   4.501  13.747
90647W        W62230   2.063  11.923   2.797
90648W        W62231  43.587  26.166   2.651
90649W        W62232  10.241  30.820   1.777
90650W        W62233   1.207  28.041   4.678
90651W        W62234  17.692  13.972   4.196
90652W        W62235  28.530  20.086   1.853
90653W        W62236  41.107  26.179   1.330
90654W        W62237  43.569  23.784  14.419
90655W        W62238  17.975  16.104   2.831
90656W        W62239  13.510  29.629   0.634
90657W        W62240   3.503   8.886  13.536
90658W        W62241  19.676  23.547  10.719
90659W        W62242  42.883  29.874  10.389
90660W        W62243   7.413   4.205   0.448
90661W        W62244  31.247  25.128   0.723
90662W        W62245  31.026  34.352   1.281
90663W        W62246  22.501  44.805  11.046
90664W        W62247   9.577  43.645  11.578
90665W        W62248  42.690  16.661  12.968
90666W        W62249  14.721  44.994  13.129
90667W        W62250  20.162  19.261  11.121
90668W        W62251   2.347   8.892  14.841
90669W        W62252  28.490  13.215   1.725
90670W        W62253  15.498  37.440   5.478
90671W        W62254  17.292  31.911   4.622
90672W        W62255  29.174  22.189  11.412
90673W        W62256  23.319   4.860  14.420
90674W        W62257  34.877  41.045   2.752
90675W        W62258   2.385  22.390  11.288
90676W        W62259   4.084   4.325  13.073
90677W        W62260   6.667  21.480   4.545
90678W        W62261   1.332  35.563   4.375
90679W        W62262  37.527  22.033  13.810
90680W        W62263  42.507  41.633  14.542
90681W        W62264  18.107  44.957   3.308
90682W        W62265  31.228  43.587   1.373
90683W        W62266  11.774  30.565   4.001
90684W        W62267  33.918  10.161  10.471
90685W        W62268  13.457  10.328  10.748
90686W        W62269  39.535  40.456  12.991
90687W        W62270  43.804  19.993  14.673
90688W        W62271  15.461  13.992  11.585
90689W        W62272  43.332  35.898   1.738
90690W        W62273  17.687  37.999   3.229
90691W        W62274  13.564  12.680  12.132
90692W        W62275  42.246  15.163  11.076
90693W        W62276  39.511  33.470  12.490
90694W        W62277  11.939  41.962   4.563
90695W        W62278  34.849  10.929   3.969
90696W        W62279  23.264  35.622  11.909
90697W        W62280  20.848   6.751   0.976
90698W        W62281  33.629  40.235  13.259
90699W        W62282  17.097  25.237   2.252
90700W        W62283  20.741  43.968  13.312
90701W        W62284  37.541  39.860  10.627
90702W        W62285  24.700  30.862   2.291
90703W        W62286   4.688   4.409   1.203
90704W        W62287  13.885   0.733   0.332
90705W        W62288  19.218  32.442   0.434
90706W        W62289   6.500  43.915  10.652
90707W        W62290  15.710  31.844  12.562
90708W        W62291   0.908  24.066  13.349
90709W        W62292  29.943  13.842   0.495
90710W        W62293  15.024  15.215   0.358
90711W        W62294  24.613   9.149  13.526
90712W        W62295  18.896  24.249   2.071
90713W        W62296  32.359  43.679   1.461
90714W        W62297   5.235  29.883   4.071
90715W        W62298  43.518  14.243  11.944
90716W        W62299  18.414  24.078  14.366
90717W        W62300  23.240  35.962  13.052
90718W        W62301  21.111   9.286   0.342
90719W        W62302  11.324  32.856  12.930
90720W        W62303  16.580  36.053  11.647
90721W        W62304  32.163  34.107   0.063
90722W        W62305  24.051   6.908  12.355
90723W        W62306  31.840   7.423  10.227
90724W        W62307  24.679  39.251  12.363
90725W        W62308  19.561  28.178   1.864
90726W        W62309  23.972  17.661  13.772
90727W        W62310  14.013  44.786   0.314
90728W        W62311  27.936  36.639   1.282
90729W        W62312  32.601  43.934   4.230
90730W        W62313  25.985  25.046   4.641
90731W        W62314  24.517  19.761   1.991
90732W        W62315   2.485   5.190  14.438
90733W        W62316  40.737  35.073  11.907
90734W        W62317  15.818   2.304   2.798
90735W        W62318  23.732  28.224   4.654
90736W        W62319   8.322  44.439  10.607
90737W        W62320  13.863  43.045   0.787
90738W        W62321   6.395  43.025  14.422
90739W        W62322  42.360   1.415  11.402
90740W        W62323  18.604   8.371   4.390
90741W        W62324  26.643  39.039   0.720
90742W        W62325  12.160  43.358  13.341
90743W        W62326  44.999  25.432   2.990
90744W        W62327   6.188  13.169   1.874
90745W        W62328  30.400   3.279   0.894
90746W        W62329  42.330  39.301   1.370
90747W        W62330  35.816   0.170  11.137
90748W        W62331  44.868  37.641  12.016
90749W        W62332  23.772  18.219   4.845
90750W        W62333  20.516   7.714  14.296
90751W        W62334   6.674  39.805   4.644
90752W        W62335   1.816  12.789  12.928
90753W        W62336   4.599  24.458  13.743
90754W        W62337  36.037  33.995   2.474
90755W        W62338  10.279  31.639   2.803
90756W        W62339  22.064  37.990  12.839
90757W        W62340  16.700   9.957  11.583
90758W        W62341   6.280  40.220  13.166
90759W        W62342   1.245  30.496  12.569
90760W        W62343  32.963  41.802   3.760
90761W        W62344   2.516  36.634  11.237
90762W        W62345  24.051  10.146  12.107
90763W        W62346   6.127  41.885   2.234
90764W        W62347  34.716  29.650   4.906
90765W        W62348  23.031  38.474  12.371
90766W        W62349  44.759  42.314  12.939
90767W        W62350   8.902   0.051   2.752
90768W        W62351  41.285   3.790  11.745
90769W        W62352   0.981  32.934  13.011
90770W        W62353   0.798  18.950   3.959
90771W        W62354  38.190  13.770  12.033
90772W        W62355  21.909  32.173   3.238
90773W        W62356  30.218  18.778  10.664
90774W        W62357   8.396  41.389   2.631
90775W        W62358  24.438   1.953   0.272
90776W        W62359  23.922  36.609  10.728
90777W        W62360  19.968  18.702  10.348
90778W        W62361   3.740   2.731   0.998
90779W        W62362  35.988   4.237   4.828
90780W        W62363  39.359   1.035  10.745
90781W        W62364  41.321   2.028  10.713
90782W        W62365   2.778  41.217  12.518
90783W        W62366  42.513  23.174  11.193
90784W        W62367  31.086  29.188   2.730
90785W        W62368  22.404  29.918  13.820
90786W        W62369   3.920  34.671  11.901
90787W        W62370  34.870  13.071  11.146
90788W        W62371  14.183  38.290   0.910
90789W        W62372   7.548  28.534  12.523
90790W        W62373  33.921  27.633  13.484
90791W        W62374  39.407   9.456  14.480
90792W        W62375  11.373  22.744   0.510
90793W        W62376  22.286  16.280   2.828
90794W        W62377  29.384  30.727  11.535
90795W        W62378  32.709  41.025   3.779
90796W        W62379  44.947  40.056   4.412
90797W        W62380  34.306  34.827  14.244
90798W        W62381  27.138  10.052   5.090
90799W        W62382  15.765  14.691   4.182
90800W        W62383   5.991   9.866  12.480
90801W        W62384  14.736  23.043  14.524
90802W        W62385   5.258  13.269   3.562
90803W        W62386   2.696   5.487  12.828
90804W        W62387  20.863  30.002   0.890
90805W        W62388  25.113  33.423  14.359
90806W        W62389  23.004  37.137  13.464
90807W        W62390  41.430  16.916  11.912
90808W        W62391  40.420  15.990   0.444
90809W        W62392  21.185  10.275  12.191
90810W        W62393  32.430  15.637  13.831
90811W        W62394  18.270  37.443   0.490
90812W        W62395   8.914  14.714  14.549
90813W        W62396  19.133  27.541  10.764
90814W        W62397  33.604  23.523   1.855
90815W        W62398   3.270  27.792  11.120
90816W        W62399  36.055  32.900  13.491
90817W        W62400  15.127  21.625   1.624
90818W        W62401  14.803  29.420  10.962
90819W        W62402  17.328  17.747   4.653
90820W        W62403  27.603  32.583  11.972
90821W        W62404   9.665  26.203   4.360
90822W        W62405  35.463  11.395   4.625
90823W        W62406  19.546  40.346   4.511
90824W        W62407  12.174  28.850  13.443
90825W        W62408   4.431  27.165  14.974
90826W        W62409  41.952  18.700  11.926
90827W        W62410  13.753  19.462   2.871
90828W        W62411  33.393  30.946   4.790
90829W        W62412  21.156  34.152   4.072
90830W        W62413   6.235   8.525   1.507
90831W        W62414   4.337   7.890   2.437
90832W        W62415  15.078  14.780  12.664
90833W        W62416  26.267  11.188  12.873
90834W        W62417   8.807  27.249  13.997
90835W        W62418   8.376  18.149  14.942
90836W        W62419  15.630   9.709  10.666
90837W        W62420   5.467  42.460   2.255
90838W        W62421  38.920  37.914   4.580
90839W        W62422  42.004  15.760  13.573
90840W        W62423  39.823   5.337  10.687
90841W        W62424  33.290   7.223   3.580
90842W        W62425  27.693  22.166  12.855
90843W        W62426  30.830   3.318   2.247
90844W        W62427  44.864  34.436   2.329
90845W        W62428  35.585  24.408   4.676
90846W        W62429  36.120   2.365   4.363
90847W        W62430  11.810  33.291  13.465
90848W        W62431  23.641  24.644  11.513
90849W        W62432  44.356  22.546   1.860
90850W        W62433   9.646  35.832   3.632
90851W        W62434  27.405  24.011  10.428
90852W        W62435   1.522   4.148  12.469
90853W        W62436   3.036  14.768  14.811
90854W        W62437   9.905  13.772   0.446
90855W        W62438   4.709  37.632   4.000
90856W        W62439  42.780  37.542   3.824
90857W        W62440  41.476  17.145   0.678
90858W        W62441  24.723   8.327   2.858
90859W        W62442   4.012  22.333   3.815
90860W        W62443   3.914   0.888   0.759
90861W        W62444  16.942  44.945   2.705
90862W        W62445  17.033  22.072  11.005
90863W        W62446  42.097   0.434  14.777
90864W        W62447  26.371  37.959   2.062
90865W        W62448  30.726  23.740   4.198
90866W        W62449  20.697   9.877  11.050
90867W        W62450  30.144  44.490   3.600
90868W        W62451  36.535  39.992  12.136
90869W        W62452  23.933   0.441  11.677
90870W        W62453  13.323   5.167   9.917
90871W        W62454  15.776  15.149   1.249
90872W        W62455   8.705   3.908   0.414
90873W        W62456  18.244  36.037   1.851
90874W        W62457   6.468   8.720   0.079
90875W        W62458  34.479  36.365  13.436
90876W        W62459  44.094  20.568   4.136
90877W        W62460  22.049  31.063   5.016
90878W        W62461   9.746  37.899  14.693
90879W        W62462  10.794  25.941   2.146
90880W        W62463  18.589  37.050  12.619
90881W        W62464  16.136  14.138   0.276
90882W        W62465  34.823  25.556  11.508
90883W        W62466   8.925  14.817  10.495
90884W        W62467  15.084  19.194   3.165
90885W        W62468  31.091  36.785   4.318
90886W        W62469   1.314   5.912   1.915
90887W        W62470  22.577   0.340   2.378
90888W        W62471  16.850  12.704  13.505
90889W        W62472  11.244   2.717   4.223
90890W        W62473  16.371  39.290   2.916
90891W        W62474  21.271  32.600  14.613
90892W        W62475  21.524  23.945   2.657
90893W        W62476   1.038  14.334  12.108
90894W        W62477   3.491  44.413   2.216
90895W        W62478   6.027  30.525   9.929
90896W        W62479  34.596   0.973   3.177
90897W        W62480  28.410  24.983  11.872
90898W        W62481  32.867  25.288   1.609
90899W        W62482  26.329   3.634  14.407
90900W        W62483  39.757  15.853   3.942
90901W        W62484   0.189  26.289   3.739
90902W        W62485  11.161  35.074   4.260
90903W        W62486   4.105  34.444   1.706
90904W        W62487  22.705  22.594  14.755
90905W        W62488  12.853  42.092   4.563
90906W        W62489  28.229  42.418  10.710
90907W        W62490  21.122  35.902   1.776
90908W        W62491   5.182  20.559   1.276
90909W        W62492  29.090  31.160  11.565
90910W        W62493   5.285  19.089   3.787
90911W        W62494  44.291  22.078   9.907
90912W        W62495   7.727   1.982   2.259
90913W        W62496  25.469  12.045   1.260
90914W        W62497  40.267  27.678  11.132
90915W        W62498  26.409   1.191  14.473
90916W        W62499  17.607   4.236  10.760
90917W        W62500  33.227  10.941   4.154
90918W        W62501   9.374  11.065  14.401
90919W        W62502  31.482  21.671   0.397
90920W        W62503  21.128  41.227   0.819
90921W        W62504  28.972   3.539   3.213
90922W        W62505   6.434  39.543   0.401
90923W        W62506  17.033  39.349  13.656
90924W        W62507  32.496  16.702  13.195
90925W        W62508  22.532  26.058  12.537
90926W        W62509  21.613  16.858  10.808
90927W        W62510   1.536  17.177  13.208
90928W        W62511  35.826  33.040  14.206
90929W        W62512  11.812  14.122  12.390
90930W        W62513  31.052  40.872   0.857
90931W        W62514  40.898   7.861  10.040
90932W        W62515  41.322  41.283   2.351
90933W        W62516  23.593  17.647   3.088
90934W        W62517  38.900  16.140   3.674
90935W        W62518  24.663   6.383   4.108
90936W        W62519   1.823  15.250   3.032
90937W        W62520   1.752  13.839  12.152
90938W        W62521  19.063  29.440   3.242
90939W        W62522  25.566  31.991  10.521
90940W        W62523  15.611   8.889  10.073
90941W        W62524  16.475  27.864  12.728
90942W        W62525  21.487  27.562   4.015
90943W        W62526   6.499  43.722   2.236
90944W        W62527  25.689  36.800  14.500
90945W        W62528  33.586   5.976  12.507
90946W        W62529  20.123  22.331  11.907
90947W        W62530  34.185  14.705   3.609
90948W        W62531   3.462  33.423  12.216
90949W        W62532  37.553  10.710  10.903
90950W        W62533   4.684  21.879   0.916
90951W        W62534  38.464  16.256  10.985
90952W        W62535  35.529  22.114   0.222
90953W        W62536  32.435   7.714   1.359
90954W        W62537  37.350  39.249  13.758
90955W        W62538  16.883  30.465  10.618
90956W        W62539  36.341  24.321   1.362
90957W        W62540   4.227  34.348   1.199
90958W        W62541  36.781  31.113   4.377
90959W        W62542  24.667  33.904   4.126
90960W        W62543   6.115  36.007  11.609
90961W        W62544  38.062  38.376   0.916
90962W        W62545  33.872  38.620   3.171
90963W        W62546  33.098  43.131   1.871
90964W        W62547  38.932  34.799  14.251
90965W        W62548  30.260   7.352  14.603
90966W        W62549  19.530   8.794  14.324
90967W        W62550   5.417   6.614   3.284
90968W        W62551  39.802  27.206   1.976
90969W        W62552  39.406  30.922   2.674
90970W        W62553  11.228  30.674  14.593
90971W        W62554  21.173  25.984  14.355
90972W        W62555   5.782  24.261  12.105
90973W        W62556  23.150   9.749   4.542
90974W        W62557  28.620  10.618   4.635
90975W        W62558  13.190  38.927   3.173
90976W        W62559  37.584  43.884   0.427
90977W        W62560  11.490  44.451  14.336
90978W        W62561   8.647   6.413  12.271
90979W        W62562   3.261  22.975   1.317
90980W        W62563  39.401   1.994   0.400
90981W        W62564  22.802  30.212   5.008
90982W        W62565  42.607  38.968   0.794
90983W        W62566  30.252  11.217  10.556
90984W        W62567  21.092  38.979  11.923
90985W        W62568  13.140   4.763   3.215
90986W        W62569  38.992  16.203   1.948
90987W        W62570   8.898  28.006   4.669
90988W        W62571  19.620  14.861  12.874
90989W        W62572  12.268  25.971  12.031
90990W        W62573  18.692  14.701  12.799
90991W        W62574  43.085  25.793   0.793
90992W        W62575  29.990  25.145   2.865
90993W        W62576   2.473  12.805   2.437
90994W        W62577  39.356  13.397   2.225
90995W        W62578  19.701  39.944   4.107
90996W        W62579  16.870  44.285   3.705
90997W        W62580   8.639  10.432   1.830
90998W        W62581  21.751  39.761   0.257
90999W        W62582   9.393   5.491   2.182
91000W        W62583  40.352  13.655   0.801
91001W        W62584  19.234  18.629  11.620
91002W        W62585  19.603  34.301   4.201
91003W        W62586  20.199   9.148  11.594
91004W        W62587  36.554  41.939  13.006
91005W        W62588  11.777  35.515   0.382
91006W        W62589  19.630  21.070  11.994
91007W        W62590  22.565  36.680  10.238
91008W        W62591  33.005  16.042  10.618
91009W        W62592  14.501  36.939  10.208
91010W        W62593  30.337   6.329  12.274
91011W        W62594  24.000  32.458  13.439
91012W        W62595  10.782  20.213  12.581
91013W        W62596  28.049  12.326  14.042
91014W        W62597  37.475   4.184   4.408
91015W        W62598  30.936  26.731  12.383
91016W        W62599  23.272  10.356   4.235
91017W        W62600  19.198   8.661   1.044
91018W        W62601  42.697  41.806  14.075
91019W        W62602  41.765   6.986  10.700
91020W        W62603  14.302  43.677  12.856
91021W        W62604  28.441  12.418  10.771
91022W        W62605  43.177  44.404   2.296
91023W        W62606  32.691   8.577  11.649
91024W        W62607  42.707   2.308   2.317
91025W        W62608  36.029  13.895   0.219
91026W        W62609  32.472   8.195   3.205
91027W        W62610  29.989  19.089   2.575
91028W        W62611  17.811  12.693   3.783
91029W        W62612  42.588   2.712  11.405
91030W        W62613  40.554  23.137  14.747
91031W        W62614   8.496  30.430  12.444
91032W        W62615  40.794  16.106   1.320
91033W        W62616  26.444  17.035   3.682
91034W        W62617   6.209  42.709   2.848
91035W        W62618  41.850   1.528   3.473
91036W        W62619  19.205   6.175   4.478
91037W        W62620  28.887  16.004  11.962
91038W        W62621  25.032   1.931  14.457
91039W        W62622  35.083  15.419  14.548
91040W        W62623  27.634  13.845  12.464
91041W        W62624   6.448  44.131   0.760
91042W        W62625  15.212   9.357  12.438
91043W        W62626  42.773  27.664   2.661
91044W        W62627   3.244  28.573  12.660
91045W        W62628  21.847  34.251   4.057
91046W        W62629  18.558   9.271  12.386
91047W        W62630   3.642  36.511  12.009
91048W        W62631  36.140  43.303   2.569
91049W        W62632  28.554  39.456  11.544
91050W        W62633  35.745  22.131  11.351
91051W        W62634  43.959   5.147  10.968
91052W        W62635  31.871  14.674  11.229
91053W        W62636  44.606   1.493   2.680
91054W        W62637  41.146  32.505  13.097
91055W        W62638  20.004  43.401   3.007
91056W        W62639  22.690  25.458   0.667
91057W        W62640  24.894  15.757  10.695
91058W        W62641   5.642   7.331  10.795
91059W        W62642  32.829  11.777  12.124
91060W        W62643  29.532  33.977   1.708
91061W        W62644  30.120   5.801  11.187
91062W        W62645  40.876   9.875  13.049
91063W        W62646  22.971  10.735  13.493
91064W        W62647  42.848  13.259   1.833
91065W        W62648  33.992  27.166  13.724
91066W        W62649  29.075   7.286   2.654
91067W        W62650  25.657  19.215   0.279
91068W        W62651  18.335  27.905   4.677
91069W        W62652  39.324  11.600   4.492
91070W        W62653  33.884  12.801   3.876
91071W        W62654   6.414  42.786  14.931
91072W        W62655  43.713  28.049  10.584
91073W        W62656   6.401   9.847  14.891
91074W        W62657  19.791  20.933   5.008
91075W        W62658  28.348  18.630   4.722
91076W        W62659  16.047  17.181  11.159
91077W        W62660  34.910  21.294  14.510
91078W        W62661  36.237  21.395  11.294
91079W        W62662   3.753   6.335  10.709
91080W        W62663  32.803  16.769   0.785
91081W        W62664   6.203  23.469  14.736
91082W        W62665  28.541   6.694   3.619
91083W        W62666   9.062  20.125   3.729
91084W        W62667  23.489  14.213  10.602
91085W        W62668  43.048  25.134  12.901
91086W        W62669  34.140  24.257   1.367
91087W        W62670  31.696  38.044   1.771
91088W        W62671  35.812  39.433   1.117
91089W        W62672  10.603  44.890   3.171
91090W        W62673  24.705  25.992  12.449
91091W        W62674  15.818  44.345  14.008
91092W        W62675  20.831  33.935  14.673
91093W        W62676  21.539  33.940   3.780
91094W        W62677  29.153   9.404  12.463
91095W        W62678  18.399  22.759   5.502
91096W        W62679  37.665  39.768  11.471
91097W        W62680  25.610  35.317  11.636
91098W        W62681  24.127  31.500  14.259
91099W        W62682  16.285  23.647   0.735
91100W        W62683  29.177  34.987  12.696
91101W        W62684  26.237  20.251   2.654
91102W        W62685  37.836   7.299  10.277
91103W        W62686  35.573  19.747  12.030
91104W        W62687   9.812  24.106  11.809
91105W        W62688  10.860  25.435   4.787
91106W        W62689  16.521   2.147  12.431
91107W        W62690   1.007  10.467   2.380
91108W        W62691  11.895   6.046   1.884
91109W        W62692  25.945   0.046  13.570
91110W        W62693  13.261  22.683  11.386
91111W        W62694   0.636  27.586  11.146
91112W        W62695  39.878  25.469  12.922
91113W        W62696  30.564  30.083  11.507
91114W        W62697  30.613  44.747   1.846
91115W        W62698   5.448  22.702  10.680
91116W        W62699  21.866  27.636   1.140
91117W        W62700   4.650  20.103   1.003
91118W        W62701  15.089  42.748  14.102
91119W        W62702   0.983  26.582   1.829
91120W        W62703  40.000  18.633   3.123
91121W        W62704  32.944  21.598  12.544
91122W        W62705   6.297  11.587   0.560
91123W        W62706  11.651   3.517   1.822
91124W        W62707   0.476  38.893   2.220
91125W        W62708  11.031  21.534  14.028
91126W        W62709  33.047  20.876   2.373
91127W        W62710  39.833   7.509   0.328
91128W        W62711  21.755   5.795   3.270
91129W        W62712   4.282  35.531   3.297
91130W        W62713  39.330  14.852  11.848
91131W        W62714  40.091  30.028  14.939
91132W        W62715  26.085  35.401  14.363
91133W        W62716   8.800   4.726   1.027
91134W        W62717  30.505   5.990  14.089
91135W        W62718   0.227  10.852   2.326
91136W        W62719  25.840  12.322   3.722
91137W        W62720   0.458  44.640   3.493
91138W        W62721  41.550  20.086   2.866
91139W        W62722   4.664  15.487  13.398
91140W        W62723  17.270  19.654   0.756
91141W        W62724  26.479  24.609   3.190
91142W        W62725  14.300  40.991  11.083
91143W        W62726  23.794   6.462  10.255
91144W        W62727  31.397   2.264   0.815
91145W        W62728  42.112   0.113   4.215
91146W        W62729  13.281  42.925  14.320
91147W        W62730  42.320   2.980   1.719
91148W        W62731  31.094  32.492  12.072
91149W        W62732   8.331  20.573   4.701
91150W        W62733  13.832  23.054   0.928
91151W        W62734   3.704  40.605   3.659
91152W        W62735  40.100  38.955  11.581
91153W        W62736  44.382   6.002   0.983
91154W        W62737   1.271   3.488   3.669
91155W        W62738  14.591  23.597  14.408
91156W        W62739  28.916   2.443   2.688
91157W        W62740   2.666   4.853   1.236
91158W        W62741  42.739  15.237  11.189
91159W        W62742   5.111  34.555   1.650
91160W        W62743   7.757  37.200  14.495
91161W        W62744  31.745  37.224   3.649
91162W        W62745  13.100  38.717  10.186
91163W        W62746   1.240  29.398  11.112
91164W        W62747  37.593  37.209   4.698
91165W        W62748  26.862  24.483   4.803
91166W        W62749  14.115   5.028  11.203
91167W        W62750  40.021  16.994  12.443
91168W        W62751  24.337  28.840  14.903
91169W        W62752  38.805  27.287  11.656
91170W        W62753  22.438  10.729   2.298
91171W        W62754  28.176  14.062   4.078
91172W        W62755  43.906   0.876   1.736
91173W        W62756  16.379  14.089  12.470
91174W        W62757  40.058  24.498  13.370
91175W        W62758  34.733  43.252   3.236
91176W        W62759   0.309  12.707  12.171
91177W        W62760  11.860   6.240  12.915
91178W        W62761  36.035  32.524  12.528
91179W        W62762  32.915   7.763  14.241
91180W        W62763  21.471  32.343  10.593
91181W        W62764  36.636   4.471  13.331
91182W        W62765  43.568   2.430   4.155
91183W        W62766   3.897  18.578  14.054
91184W        W62767  14.532  33.706  12.949
91185W        W62768  38.742  31.565   0.335
91186W        W62769  43.317   1.268   3.598
91187W        W62770  29.322  19.007  12.389
91188W        W62771  42.408  36.121   1.903
91189W        W62772  23.560  41.799  13.348
91190W        W62773  12.598  11.725  11.861
91191W        W62774  21.633   5.801   4.831
91192W        W62775  17.707   1.682  12.371
91193W        W62776  31.532  20.016  13.429
91194W        W62777  32.925  39.901  14.430
91195W        W62778  26.030  20.826  12.243
91196W        W62779   6.911  20.077   2.243
91197W        W62780   5.863  18.983   3.598
91198W        W62781  38.325  35.475  13.758
91199W        W62782  38.773  16.637   3.367
91200W        W62783  18.304  17.770   4.500
91201W        W62784   3.728   2.485  12.975
91202W        W62785  36.060  37.763  11.234
91203W        W62786   4.783  40.891  12.176
91204W        W62787  27.521  34.435  12.075
91205W        W62788  11.284   8.144  14.738
91206W        W62789  37.795  21.845   2.982
91207W        W62790  44.274  38.931   3.680
91208W        W62791  30.111  14.677   4.206
91209W        W62792  10.843  44.314   4.283
91210W        W62793   3.811  27.824  13.528
91211W        W62794  22.055  19.796  14.413
91212W        W62795   3.559  28.694   1.520
91213W        W62796   1.239  25.483   4.178
91214W        W62797  18.176   3.966  13.406
91215W        W62798  27.717   3.693  14.780
91216W        W62799  35.000   2.349   2.684
91217W        W62800   9.219  30.153  12.927
91218W        W62801  29.536  42.573   0.416
91219W        W62802   4.826  44.182  14.999
91220W        W62803  22.085  31.566  13.557
91221W        W62804  40.017  30.882  11.948
91222W        W62805   9.696  40.327   2.385
91223W        W62806  12.535  21.726  13.966
91224W        W62807  32.930  39.038   3.182
91225W        W62808  18.299  36.480   2.188
91226W        W62809  34.696  41.904   1.698
91227W        W62810  19.011  39.551   1.755
91228W        W62811  37.050  33.362  12.092
91229W        W62812  24.049  18.250   1.047
91230W        W62813  23.597  30.690   4.624
91231W        W62814  31.397  19.200   0.952
91232W        W62815   7.617   7.298  14.910
91233W        W62816   7.152  18.813  11.103
91234W        W62817  44.106  22.311  12.807
91235W        W62818  26.076  41.026  11.701
91236W        W62819  14.132  16.583   2.005
91237W        W62820  42.422  14.510  14.856
91238W        W62821   4.828  38.144  10.639
91239W        W62822  39.912  20.378  11.146
91240W        W62823  31.982  25.692   4.989
91241W        W62824  24.665  11.914   3.064
91242W        W62825  34.984  40.807   3.208
91243W        W62826   0.049  34.930  12.034
91244W        W62827  38.541   7.925  14.875
91245W        W62828  28.013  44.057  12.585
91246W        W62829  17.728  44.671  12.981
91247W        W62830  36.269  38.049  12.106
91248W        W62831  13.753  35.606   0.630
91249W        W62832  27.257  24.678   1.237
91250W        W62833  31.580  36.106   1.360
91251W        W62834   8.984  35.161   5.027
91252W        W62835  17.362  43.979  12.854
91253W        W62836  16.876  25.266  14.338
91254W        W62837  23.716  30.825  11.961
91255W        W62838  33.996  40.380  11.595
91256W        W62839  22.794  18.854   1.322
91257W        W62840   3.414  42.099   1.731
91258W        W62841  19.292  43.485   0.284
91259W        W62842   5.190   3.317   0.391
91260W        W62843  29.547  27.583  13.511
91261W        W62844  33.367  16.256  10.287
91262W        W62845  22.112  39.472   1.127
91263W        W62846  21.767  22.028  11.449
91264W        W62847   0.457  35.350  10.615
91265W        W62848  30.339  34.933   0.560
91266W        W62849  32.621   0.748   4.198
91267W        W62850  19.814  36.873   1.732
91268W        W62851  14.537  11.792   4.446
91269W        W62852  23.294  21.186  10.742
91270W        W62853  27.159  11.511   4.846
91271W        W62854  18.658   9.698   3.107
91272W        W62855  17.614   3.938  13.437
91273W        W62856  28.349  13.158   5.077
91274W        W62857  20.011  36.399  11.957
91275W        W62858  28.057  24.966   1.565
91276W        W62859   2.988  33.585   1.751
91277W        W62860  26.634   5.349  14.805
91278W        W62861   2.014  34.613  11.213
91279W        W62862  44.061  44.002   3.086
91280W        W62863  12.763  36.702   3.195
91281W        W62864   0.493  36.613   0.744
91282W        W62865  30.155  18.862  11.981
91283W        W62866  26.488  41.312   4.585
91284W        W62867   7.936   8.592   2.724
91285W        W62868   9.828  33.692  14.741
91286W        W62869  10.368  11.375  14.007
91287W        W62870  18.502  16.645  13.065
91288W        W62871  34.370   8.926   0.027
91289W        W62872  24.659   5.196  14.319
91290W        W62873  43.837  23.854   3.538
91291W        W62874  16.085   6.797   5.018
91292W        W62875   1.808  44.116  13.082
91293W        W62876  19.088  30.436   4.227
91294W        W62877   6.128   1.921  11.739
91295W        W62878  17.827   6.300  13.499
91296W        W62879  37.655  30.971   4.946
91297W        W62880  35.585  16.285   4.543
91298W        W62881  35.563  26.494   0.171
91299W        W62882  37.134  14.220   4.641
91300W        W62883   1.074   4.547   9.982
91301W        W62884  17.254  26.518   3.132
91302W        W62885  44.320  25.200  14.340
91303W        W62886  12.226  25.030  12.600
91304W        W62887  20.075  13.619  12.159
91305W        W62888   8.968  43.588   0.556
91306W        W62889  30.370   9.295  11.075
91307W        W62890  21.766   0.704  14.551
91308W        W62891  35.570  39.301  12.938
91309W        W62892  10.709  33.881   1.424
91310W        W62893  39.232  29.817  11.212
91311W        W62894  27.397  10.575  12.088
91312W        W62895  43.255   6.259   2.211
91313W        W62896   1.304   1.222  11.941
91314W        W62897   8.675  11.796  13.035
91315W        W62898  42.527  10.579  11.291
91316W        W62899  33.681  26.362  13.456
91317W        W62900   9.498  19.216  14.008
91318W        W62901  11.881  28.215  12.043
91319W        W62902  19.121  22.447  13.040
91320W        W62903  14.867  10.325   1.635
91321W        W62904  25.818  44.396  14.311
91322W        W62905  11.193   8.692   1.797
91323W        W62906  29.974  42.853   0.391
91324W        W62907   0.060  40.254  13.476
91325W        W62908  35.443  14.683  14.367
91326W        W62909  11.867  26.450  12.466
91327W        W62910  20.580  22.144  12.011
91328W        W62911  17.436   0.843  13.466
91329W        W62912  13.683  42.530   2.791
91330W        W62913  32.051  10.656  11.518
91331W        W62914  40.332  13.607   0.195
91332W        W62915   7.042  31.341   1.788
91333W        W62916   1.111  23.141  12.873
91334W        W62917  20.106  11.604   3.319
91335W        W62918  37.610  38.897  12.306
91336W        W62919  42.296   7.350  14.116
91337W        W62920   4.761   9.148  13.968
91338W        W62921  21.730  20.983   2.915
91339W        W62922  21.632   1.255   3.276
91340W        W62923  16.645  23.538   0.377
91341W        W62924  39.292   5.786  14.243
91342W        W62925  12.046  36.927   1.748
91343W        W62926   9.710  34.340   2.562
91344W        W62927  32.539   3.759   2.877
91345W        W62928  34.862  21.124  12.643
91346W        W62929  24.608   5.178  13.268
91347W        W62930  40.077  27.665   4.263
91348W        W62931  36.133  43.928  14.292
91349W        W62932  41.918   0.959  10.746
91350W        W62933   7.933   2.430   0.309
91351W        W62934   5.741  11.376   2.828
91352W        W62935  33.029  10.120   4.696
91353W        W62936   7.271  19.033  13.356
91354W        W62937  36.189  27.364  11.131
91355W        W62938  15.686  20.083  11.045
91356W        W62939  17.119  44.146   1.818
91357W        W62940  15.309  25.125   2.506
91358W        W62941  35.929  24.013   1.406
91359W        W62942  36.023   6.310   3.736
91360W        W62943  40.068  24.520   0.410
91361W        W62944   6.173  31.155  14.505
91362W        W62945   3.756  27.377  12.479
91363W        W62946  30.693  14.672   4.585
91364W        W62947  26.942  33.474   0.484
91365W        W62948  44.965  44.726   3.351
91366W        W62949  43.072  39.348   1.894
91367W        W62950  11.306  23.533   3.834
91368W        W62951   7.122  36.595  11.209
91369W        W62952  27.786  39.367  12.648
91370W        W62953   1.192  18.489   3.143
91371W        W62954  27.163   6.099   1.705
91372W        W62955  13.466  16.235   2.856
91373W        W62956   5.353   0.144   3.757
91374W        W62957  19.307  15.599  13.840
91375W        W62958  43.585  34.017   3.213
91376W        W62959  42.978  22.034  12.154
91377W        W62960   6.880   3.412  14.547
91378W        W62961  11.703  39.360   2.213
91379W        W62962   3.701   8.233  14.341
91380W        W62963  15.871  26.627  11.599
91381W        W62964   3.778  43.688  13.749
91382W        W62965  23.011  37.339  14.339
91383W        W62966  42.448  18.544  11.767
91384W        W62967   2.727  28.690   2.169
91385W        W62968  27.240  15.540   2.436
91386W        W62969  27.108  43.421  14.036
91387W        W62970  33.862  38.226  14.333
91388W        W62971  21.815  42.910  13.285
91389W        W62972  43.878   7.107  12.464
91390W        W62973   9.342  42.385   2.916
91391W        W62974   5.963  42.922  14.727
91392W        W62975  36.853  15.713  10.698
91393W        W62976  24.165  18.600  12.760
91394W        W62977  35.302   0.648  12.155
91395W        W62978  29.817  21.144   9.752
91396W        W62979  17.081  20.009   4.163
91397W        W62980  44.829  42.763  13.938
91398W        W62981  25.783  42.143   2.299
91399W        W62982   8.821  34.529   2.373
91400W        W62983  40.741  44.185   3.294
91401W        W62984  19.297   2.044  12.830
91402W        W62985  34.351  19.658  12.184
91403W        W62986   5.373  43.047  10.560
91404W        W62987  34.935  17.787  14.416
91405W        W62988   6.413   8.736   0.597
91406W        W62989   3.891   8.009  13.902
91407W        W62990  15.187   3.756  12.055
91408W        W62991  38.526  31.077  14.495
91409W        W62992  18.644   9.231  14.354
91410W        W62993  16.118  41.224  13.855
91411W        W62994  16.140  10.202  13.669
91412W        W62995  41.434   7.949  12.910
91413W        W62996   0.626   1.775  10.827
91414W        W62997   1.809  35.789   4.025
91415W        W62998   2.424  25.739   4.148
91416W        W62999  32.367  40.403  12.134
91417W        W63000  35.488  39.003   3.219
91418W        W63001   0.462   9.938  10.449
91419W        W63002  20.365  36.703  12.944
91420W        W63003  23.436   0.900  12.437
91421W        W63004  14.623  16.541  11.503
91422W        W63005   9.824  33.518  13.419
91423W        W63006  38.966  15.755  13.113
91424W        W63007  14.831  32.990  11.196
91425W        W63008   0.200  15.411  12.792
91426W        W63009   3.497  33.190   3.662
91427W        W63010  37.799  29.852   4.755
91428W        W63011  34.563   1.786  14.908
91429W        W63012  12.829   6.804   1.846
91430W        W63013  43.566   5.165  12.571
91431W        W63014  29.915   3.180   1.821
91432W        W63015  28.920  14.685  13.500
91433W        W63016   1.359   0.924  12.577
91434W        W63017  33.319   0.732  13.484
91435W        W63018  26.532  35.025   2.658
91436W        W63019   8.885  39.401  14.459
91437W        W63020   2.782  11.266   2.155
91438W        W63021  13.334  26.429  11.069
91439W        W63022  21.772  27.662  12.478
91440W        W63023   1.300  34.246   1.375
91441W        W63024  12.110   6.454   0.723
91442W        W63025  19.162  32.441  11.800
91443W        W63026   2.196   4.194   4.549
91444W        W63027  38.584  44.303   3.112
91445W        W63028  10.077  18.454   0.939
91446W        W63029  10.756   0.961   0.725
91447W        W63030  23.172  32.865  11.307
91448W        W63031  39.887   1.373   4.432
91449W        W63032  15.805  36.970  14.107
91450W        W63033   6.560  16.891   0.347
91451W        W63034  29.190  38.590  12.404
91452W        W63035  22.832  32.375   4.217
91453W        W63036  41.036  24.107  10.533
91454W        W63037   3.195   6.338  13.838
91455W        W63038  21.640  35.025  11.379
91456W        W63039  27.687  11.235   1.256
91457W        W63040   4.878  18.201   0.450
91458W        W63041  27.722   4.899   1.718
91459W        W63042  10.224   9.430  10.737
91460W        W63043  18.096  11.342  14.430
91461W        W63044  42.298  10.735   0.953
91462W        W63045  38.857   2.472  12.410
91463W        W63046  33.092  42.738  11.957
91464W        W63047  14.182  31.235   1.777
91465W        W63048  35.782  37.453   4.176
91466W        W63049   3.268  26.588  12.910
91467W        W63050  18.160  25.079  10.624
91468W        W63051  18.747  26.652  11.418
91469W        W63052  12.907  36.187   2.297
91470W        W63053  11.553  41.999  12.078
91471W        W63054  26.537  32.088  14.036
91472W        W63055  22.138  39.441   3.143
91473W        W63056   6.763  36.780  12.982
91474W        W63057  23.487   1.817  14.880
91475W        W63058  40.465  23.976  14.229
91476W        W63059   1.357  11.104   4.654
91477W        W63060  36.113  44.439  14.446
91478W        W63061   3.280   6.257  12.015
91479W        W63062  13.445  25.001  10.354
91480W        W63063  38.906  28.210  11.132
91481W        W63064  15.735  15.411   3.208
91482W        W63065  28.502  33.999   5.383
91483W        W63066  13.147  21.280  14.207
91484W        W63067  25.004  11.680   3.708
91485W        W63068  14.311   5.041  14.598
91486W        W63069  43.056  36.841   2.111
91487W        W63070  33.571  33.987   4.523
91488W        W63071  41.076   8.659   0.965
91489W        W63072  28.600  25.590   4.384
91490W        W63073  36.986  20.674   0.073
91491W        W63074   2.549  12.329   4.122
91492W        W63075  14.873  33.039   0.910
91493W        W63076  20.279  21.594   2.557
91494W        W63077  26.630  20.687   4.501
91495W        W63078  37.385  44.214   5.068
91496W        W63079  33.520  23.158   3.178
91497W        W63080   4.371   7.879   0.015
91498W        W63081  21.593  24.615  10.756
91499W        W63082   2.518  10.273   3.278
91500W        W63083  42.697  38.407   1.179
91501W        W63084  17.831  27.609   0.491
91502W        W63085  21.583  41.137  12.593
91503W        W63086   7.361  38.254   4.920
91504W        W63087   8.278  30.002  14.882
91505W        W63088  42.439  17.148   4.868
91506W        W63089  11.066   9.335  12.906
91507W        W63090  25.395  30.088  14.910
91508W        W63091  39.782  42.995  12.936
91509W        W63092   9.192  34.560  13.979
91510W        W63093  31.093  27.339  12.106
91511W        W63094  35.504  10.906  13.100
91512W        W63095  23.100   2.377  13.128
91513W        W63096   9.464  19.947   4.927
91514W        W63097  43.042  31.937   0.044
91515W        W63098  10.115   9.113  11.133
91516W        W63099  35.660  12.112  10.761
91517W        W63100  40.986  41.308   3.978
91518W        W63101  28.962  35.617   3.661
91519W        W63102   3.735  26.135  11.628
91520W        W63103  37.798  23.646   2.956
91521W        W63104  35.417  13.331   0.896
91522W        W63105  25.179   8.517   2.696
91523W        W63106   8.063  14.773  14.920
91524W        W63107  31.853   8.987  13.520
91525W        W63108  12.385  28.021   2.476
91526W        W63109  38.586  30.585   4.884
91527W        W63110  28.683  22.419  12.069
91528W        W63111  31.283  12.251  14.352
91529W        W63112  18.905  17.742  12.119
91530W        W63113  35.543   9.330  12.503
91531W        W63114   4.204  35.574  13.005
91532W        W63115  11.718  28.633  10.631
91533W        W63116   9.237  14.340  12.611
91534W        W63117   3.327  40.257  13.362
91535W        W63118  35.056  11.921   5.142
91536W        W63119   7.691  42.520  11.552
91537W        W63120  18.756  34.490  10.573
91538W        W63121  22.495  35.859   4.242
91539W        W63122  11.554  18.182   3.224
91540W        W63123   8.626  18.110   4.321
91541W        W63124  22.293  41.497  12.936
91542W        W63125   1.400  40.019   3.269
91543W        W63126  38.375   1.899   4.538
91544W        W63127  26.127  10.910  11.487
91545W        W63128  29.359  31.994  12.033
91546W        W63129  14.270  24.716   3.873
91547W        W63130  39.588  30.567   5.298
91548W        W63131  36.561   7.888  10.720
91549W        W63132   5.187   4.221   1.224
91550W        W63133  10.144  24.150  11.015
91551W        W63134  19.284  18.972  11.221
91552W        W63135   9.750  42.242  13.025
91553W        W63136   5.173  17.282  13.788
91554W        W63137  10.942  26.978   0.388
91555W        W63138  26.165   7.708   3.287
91556W        W63139   2.456  18.490  12.377
91557W        W63140  32.034   9.418  13.792
91558W        W63141   3.470  19.991  14.819
91559W        W63142  16.680  36.412  10.738
91560W        W63143  16.730   4.398   0.489
91561W        W63144  13.270  31.679   2.429
91562W        W63145  30.852  11.794   1.542
91563W        W63146   1.664  22.840  12.189
91564W        W63147   6.965   5.281   0.338
91565W        W63148  11.377   8.226   1.155
91566W        W63149  19.181  22.760  14.387
91567W        W63150  43.093  21.636  13.951
91568W        W63151  14.162   4.035  12.032
91569W        W63152   0.317  19.225   0.907
91570W        W63153  29.609   4.678   3.141
91571W        W63154  41.817  21.588  14.406
91572W        W63155  25.689  36.066   2.287
91573W        W63156  41.811  18.870   1.193
91574W        W63157   8.691  19.108  11.131
91575W        W63158  44.496   2.347  14.848
91576W        W63159  24.952  20.298   1.328
91577W        W63160  13.884  31.856   5.032
91578W        W63161  17.912  32.920  11.560
91579W        W63162  40.039  41.128  11.197
91580W        W63163  15.783  19.091   4.292
91581W        W63164   9.704  44.843  10.645
91582W        W63165  17.056   0.601   4.912
91583W        W63166  17.426  10.622   3.684
91584W        W63167  33.925  39.583   3.826
91585W        W63168   5.368  27.023   0.793
91586W        W63169  37.620  41.852  14.476
91587W        W63170  33.554  33.091  14.954
91588W        W63171  26.519  35.170   0.155
91589W        W63172   1.615  44.002   1.034
91590W        W63173  44.821   6.172  10.587
91591W        W63174  10.153  26.673  12.101
91592W        W63175  37.450   5.614   4.603
91593W        W63176  39.382  14.121  13.099
91594W        W63177   5.190  40.189  11.569
91595W        W63178  14.585  30.725   3.793
91596W        W63179   0.545  26.720  11.111
91597W        W63180  33.952  30.009   2.372
91598W        W63181  37.018  21.103  13.608
91599W        W63182  15.905   0.405   4.192
91600W        W63183  35.578  31.514   3.228
91601W        W63184  26.935  43.386   0.498
91602W        W63185  30.393  15.481   2.429
91603W        W63186  18.164  20.007   4.280
91604W        W63187  27.044  22.247   0.716
91605W        W63188  15.292  26.131  11.191
91606W        W63189  20.019  33.294  12.348
91607W        W63190  32.817  28.055  14.912
91608W        W63191   4.321  12.356   4.562
91609W        W63192  28.457  14.979  14.020
91610W        W63193  17.529  13.587   4.665
91611W        W63194  42.800  28.908  13.565
91612W        W63195  35.965  27.173  11.565
91613W        W63196  21.365   3.957  12.401
91614W        W63197  14.751  25.359   5.047
91615W        W63198   9.790  35.434  14.326
91616W        W63199   1.844  32.499  11.108
91617W        W63200  13.814  40.700   0.329
91618W        W63201  18.729  39.329  14.377
91619W        W63202   7.475  25.127   2.590
91620W        W63203  24.576  29.248   4.889
91621W        W63204  25.496   9.682   3.812
91622W        W63205  31.959  25.162   2.719
91623W        W63206  40.532  21.832  13.877
91624W        W63207  25.994   5.313   3.452
91625W        W63208  22.718   7.842  12.864
91626W        W63209  39.953  22.291  13.413
91627W        W63210  39.660  42.405   4.134
91628W        W63211   3.618   3.926   3.828
91629W        W63212  26.326   6.170  11.224
91630W        W63213  13.290  26.709  10.626
91631W        W63214  15.165  35.134  12.393
91632W        W63215  29.641  39.934   2.459
91633W        W63216  23.773   4.174  13.834
91634W        W63217   8.250   4.888   2.207
91635W        W63218  40.384  44.943   3.285
91636W        W63219   1.873   7.189   1.829
91637W        W63220  14.750   4.928  12.857
91638W        W63221  41.485  19.107  14.697
91639W        W63222  25.328  12.547   4.624
91640W        W63223  16.387  13.545  12.439
91641W        W63224   0.459   5.530   2.750
91642W        W63225  26.839  42.184   1.022
91643W        W63226   7.760  34.902   3.047
91644W        W63227  24.825  26.895   3.881
91645W        W63228   5.322  20.952   3.317
91646W        W63229  34.371  30.930  12.606
91647W        W63230   1.242  14.016   2.674
91648W        W63231  14.058  16.899   2.409
91649W        W63232  17.229  30.533  12.908
91650W        W63233  11.765  39.014  10.727
91651W        W63234  15.750  18.137   4.054
91652W        W63235  33.123  28.696   4.544
91653W        W63236  35.018  31.776   0.209
91654W        W63237  20.771  24.558  13.077
91655W        W63238  12.305  15.572  12.925
91656W        W63239  39.195  39.084  10.004
91657W        W63240  36.458  13.253   2.276
91658W        W63241  23.679   6.735   2.157
91659W        W63242  30.543  40.956  12.242
91660W        W63243  31.876  40.906   3.340
91661W        W63244  16.234  11.706   1.357
91662W        W63245  34.647  29.580   2.779
91663W        W63246  36.992  23.590   4.429
91664W        W63247   4.083  19.886  13.484
91665W        W63248  42.045  40.011   3.255
91666W        W63249  41.935  37.920  10.358
91667W        W63250   5.315   6.863  12.900
91668W        W63251  39.921  26.237  11.759
91669W        W63252  38.379  30.594  14.296
91670W        W63253  28.644  29.588   2.472
91671W        W63254   0.106  13.692  13.428
91672W        W63255  42.134  26.307   1.326
91673W        W63256  10.841   3.432  10.611
91674W        W63257  43.136  21.851  11.682
91675W        W63258   9.025  12.715  14.397
91676W        W63259  24.226  21.898   3.792
91677W        W63260  12.336   8.457  12.047
91678W        W63261  28.238  23.624   0.848
91679W        W63262  37.369  43.931  12.682
91680W        W63263   3.800   1.927  11.975
91681W        W63264  14.750  43.816  14.381
91682W        W63265  22.125  39.300   1.613
91683W        W63266  35.872  12.189  12.544
91684W        W63267   2.895  40.386   4.849
91685W        W63268  42.387   5.639   3.714
91686W        W63269   8.408  35.487  11.099
91687W        W63270   3.868  34.910   0.309
91688W        W63271  35.957  38.438  12.412
91689W        W63272  19.116  10.851   0.825
91690W        W63273  31.992  30.660  13.438
91691W        W63274  40.147  43.508   3.164
91692W        W63275  30.491  14.642   2.587
91693W        W63276  41.636  30.679   0.441
91694W        W63277  42.337  38.511   0.793
91695W        W63278  31.918   0.538  14.924
91696W        W63279   9.219  29.026   4.934
91697W        W63280  28.289   0.184  11.237
91698W        W63281  29.169   4.875  12.849
91699W        W63282   9.863  33.420   1.189
91700W        W63283  36.321  32.104  12.472
91701W        W63284  40.332  23.250  12.353
91702W        W63285  20.503  41.584  13.435
91703W        W63286   2.447  13.375   3.191
91704W        W63287  44.988  22.678  11.475
91705W        W63288  33.818  15.911   4.272
91706W        W63289   6.671   0.731   2.835
91707W        W63290  38.557   2.818   4.344
91708W        W63291   5.943  27.185   3.776
91709W        W63292  43.761  17.085  11.697
91710W        W63293  17.123  30.999  13.929
91711W        W63294  18.323  23.160   4.581
91712W        W63295  16.203  11.819  10.724
91713W        W63296   0.739  16.516   4.231
91714W        W63297  28.433  16.341   2.562
91715W        W63298   8.725  13.736   1.361
91716W        W63299   3.048  36.612  12.448
91717W        W63300  15.533  25.119   3.381
91718W        W63301  27.114  36.946  11.094
91719W        W63302  35.329  23.934  11.162
91720W        W63303  30.491  20.178   0.249
91721W        W63304  40.045  20.517  14.937
91722W        W63305  40.874  38.075  10.738
91723W        W63306  23.637  18.049  14.838
91724W        W63307  44.220  33.637   0.888
91725W        W63308  41.347  17.684   4.666
91726W        W63309   5.250  43.013  14.143
91727W        W63310  12.238  30.561  10.539
91728W        W63311  35.124   5.583  10.845
91729W        W63312  21.301  33.041  11.586
91730W        W63313   2.629  17.225  14.040
91731W        W63314  22.790  20.955  13.489
91732W        W63315   7.373  41.960  10.518
91733W        W63316  33.332  43.826   3.801
91734W        W63317   2.361  14.057  14.442
91735W        W63318  10.851  38.734  10.595
91736W        W63319  24.313  34.039   3.743
91737W        W63320  42.493  19.768   1.760
91738W        W63321   1.349  10.247  10.868
91739W        W63322  10.275  31.070   3.128
91740W        W63323   9.715  16.788   4.200
91741W        W63324  27.210   5.158  11.013
91742W        W63325  37.035   8.374   1.772
91743W        W63326  35.797  25.678  11.614
91744W        W63327  21.762  27.253  11.702
91745W        W63328  41.269  44.501  13.510
91746W        W63329  12.869  11.437  14.011
91747W        W63330  38.032  44.354  10.643
91748W        W63331   8.675  39.331  12.407
91749W        W63332  38.290  22.759   4.559
91750W        W63333  19.087  21.002  13.154
91751W        W63334  16.246  15.692   3.214
91752W        W63335   5.859  37.861  13.375
91753W        W63336  22.798  32.423  11.137
91754W        W63337   4.969  34.381   4.574
91755W        W63338  43.560  26.693   2.661
91756W        W63339  19.682  30.095  10.288
91757W        W63340   7.009  28.146   1.344
91758W        W63341  30.594  31.856   1.223
91759W        W63342  32.672  38.745  14.437
91760W        W63343  17.584  19.929   3.678
91761W        W63344  15.420  38.500   3.300
91762W        W63345  42.252   7.275   2.365
91763W        W63346   4.199  40.477  12.384
91764W        W63347  40.309  31.849   1.714
91765W        W63348   7.684   1.426   3.358
91766W        W63349  11.214  33.892  13.832
91767W        W63350  35.350  36.930  11.261
91768W        W63351  10.405  20.210   1.368
91769W        W63352  18.497   0.869  11.962
91770W        W63353   6.679   3.405   1.704
91771W        W63354  17.513  33.916  12.059
91772W        W63355  26.200   4.879   3.227
91773W        W63356  44.106  35.107   4.922
91774W        W63357  35.174  20.101  12.010
91775W        W63358  29.075  40.325   1.261
91776W        W63359  42.681  31.171   5.012
91777W        W63360   3.244  20.086   4.733
91778W        W63361  28.673  23.226   1.291
91779W        W63362  15.051   7.587   4.819
91780W        W63363  35.599   4.855  14.477
91781W        W63364  23.609  29.500  10.758
91782W        W63365   7.955   8.303   3.282
91783W        W63366  41.416  26.469   0.003
91784W        W63367  26.357  11.410   3.766
91785W        W63368  32.987   2.443   0.777
91786W        W63369  18.242  37.244   3.223
91787W        W63370  30.878  38.272   4.304
91788W        W63371  10.068   8.748   0.931
91789W        W63372  26.359   3.173   2.465
91790W        W63373  26.266  23.738  13.658
91791W        W63374  19.653  41.596   1.319
91792W        W63375  34.487   9.595   0.729
91793W        W63376  13.346  30.359   4.101
91794W        W63377  22.253   3.011  12.343
91795W        W63378  21.221  18.175  13.334
91796W        W63379  25.733  37.984  14.016
91797W        W63380   5.699  13.967  10.834
91798W        W63381  35.579   5.628  11.255
91799W        W63382   9.073  12.920   2.469
91800W        W63383  12.950  34.207   3.746
91801W        W63384  38.262  19.484  12.818
91802W        W63385  19.047  28.048   4.185
91803W        W63386  40.144   4.357   0.832
91804W        W63387  14.277   6.737   0.350
91805W        W63388  41.316   5.971  11.685
91806W        W63389  35.486  41.253   4.632
91807W        W63390  32.241  38.834   4.620
91808W        W63391  29.217  17.142  11.854
91809W        W63392  40.387  41.762   1.731
91810W        W63393  40.371  42.575  10.467
91811W        W63394   5.157  31.381  10.600
91812W        W63395  34.482  33.592  14.985
91813W        W63396   5.381  12.501  11.930
91814W        W63397  40.495  32.466  14.809
91815W        W63398   9.333  30.975  11.994
91816W        W63399  29.098  18.304  12.068
91817W        W63400   2.376   2.849   4.603
91818W        W63401   4.191  12.815  10.094
91819W        W63402  23.033  33.736   1.300
91820W        W63403  27.565   3.781  12.430
91821W        W63404  11.717  12.262   0.087
91822W        W63405  11.209  27.826  13.391
91823W        W63406  35.414  25.610  12.553
91824W        W63407  36.732  14.676  11.568
91825W        W63408  15.998  27.720  11.458
91826W        W63409  23.129  22.043   2.962
91827W        W63410  25.021  40.209   4.076
91828W        W63411  16.887   9.274   4.027
91829W        W63412   4.351   6.563  11.452
91830W        W63413  34.326   7.523  14.837
91831W        W63414  40.025  43.889   1.624
91832W        W63415  38.783   2.420  14.917
91833W        W63416  12.075  18.513   4.614
91834W        W63417  14.289   4.280   2.359
91835W        W63418  26.285  27.461   2.374
91836W        W63419  20.771  37.796   4.161
91837W        W63420  31.561  32.014  13.087
91838W        W63421   4.276  41.333   0.742
91839W        W63422  18.616   4.390   4.206
91840W        W63423   7.006  16.161  12.151
91841W        W63424   4.608  39.718  13.748
91842W        W63425   1.929   5.309   3.376
91843W        W63426   1.434  30.726  14.555
91844W        W63427  15.048  44.577  13.060
91845W        W63428   6.678  29.868  12.559
91846W        W63429  30.701  11.646  14.796
91847W        W63430  25.719  23.210  11.533
91848W        W63431   9.938   0.259  12.357
91849W        W63432  36.951  37.679   4.435
91850W        W63433   9.296  16.881  12.956
91851W        W63434  39.429   3.946  12.559
91852W        W63435   9.360   7.448   4.987
91853W        W63436  41.358  27.359   3.423
91854W        W63437  20.852  30.049  10.800
91855W        W63438  30.678  20.858  14.443
91856W        W63439  28.546  23.686  14.821
91857W        W63440  22.745  14.333  12.589
91858W        W63441  33.923  37.897   0.397
91859W        W63442   4.390  21.470   3.354
91860W        W63443  34.127  22.498   1.863
91861W        W63444  17.928  22.543  10.114
91862W        W63445  20.146   9.094   1.727
91863W        W63446  12.124  42.438   2.377
91864W        W63447  14.362  24.148   1.113
91865W        W63448   9.202  18.232  14.340
91866W        W63449   3.061   4.265  13.323
91867W        W63450  44.762   2.785  11.035
91868W        W63451  10.682  14.317   4.700
91869W        W63452  20.710  42.494   1.341
91870W        W63453  19.548  33.263   4.161
91871W        W63454   1.275   5.699   3.661
91872W        W63455  38.586  27.402   4.195
91873W        W63456  11.402  40.742   3.398
91874W        W63457  18.245  22.947  14.860
91875W        W63458  19.544  26.226  13.478
91876W        W63459   6.675   3.988   4.555
91877W        W63460   6.799   8.917   0.894
91878W        W63461   0.477  43.454  13.067
91879W        W63462  42.307  39.400  14.999
91880W        W63463  20.147  19.163  12.128
91881W        W63464  15.284  38.039  12.533
91882W        W63465   0.831  37.002   0.650
91883W        W63466  35.979  33.880   2.980
91884W        W63467  14.633   1.021  14.768
91885W        W63468  41.033  10.893  13.057
91886W        W63469  39.839  41.894  10.761
91887W        W63470  43.308  41.484  12.906
91888W        W63471  41.293  34.058   3.827
91889W        W63472  38.529  13.754   9.871
91890W        W63473  17.856  21.546  13.366
91891W        W63474  25.724  10.303  10.200
91892W        W63475   8.678  35.068   3.102
91893W        W63476  43.333  18.144  13.112
91894W        W63477  31.604  39.856  13.995
91895W        W63478  33.989  32.434  12.360
91896W        W63479  43.059  22.463   4.070
91897W        W63480  13.874  25.017   3.292
91898W        W63481  16.162   4.442   0.940
91899W        W63482   6.739  16.104  14.134
91900W        W63483   4.425  28.255  11.902
91901W        W63484  21.426  10.108   9.663
91902W        W63485  10.151  44.980  11.520
91903W        W63486  16.537  28.180   0.450
91904W        W63487  30.352  15.975  13.614
91905W        W63488  29.600  16.767   1.043
91906W        W63489  18.148  18.541   3.865
91907W        W63490  17.151  31.592  11.549
91908W        W63491  31.824  27.752  14.655
91909W        W63492  43.526  30.269   2.227
91910W        W63493  37.835  40.389  13.986
91911W        W63494  20.574  20.305   0.232
91912W        W63495  22.005  28.459  13.535
91913W        W63496  44.072  20.144   0.536
91914W        W63497  19.092  40.417  11.466
91915W        W63498   9.815  15.311   4.329
91916W        W63499  43.375   9.358   1.270
91917W        W63500  23.177  27.207  11.652
91918W        W63501   3.477  36.971   0.833
91919W        W63502  30.115  24.398   4.118
91920W        W63503  30.991  16.672   4.252
91921W        W63504  28.686  35.375  12.978
91922W        W63505  37.110  31.999  13.901
91923W        W63506   1.763   8.430  12.143
91924W        W63507  16.736  44.495  14.008
91925W        W63508  20.851  18.365  12.594
91926W        W63509  19.166  10.650  13.411
91927W        W63510  37.312  20.644   3.679
91928W        W63511  10.184  30.912   2.307
91929W        W63512  39.929   9.609  10.954
91930W        W63513  14.793  30.639   2.183
91931W        W63514  44.523  17.813  11.570
91932W        W63515  24.734   9.650  13.017
91933W        W63516  32.935   9.241  11.922
91934W        W63517  21.211  34.539   3.169
91935W        W63518  28.445  20.822  10.910
91936W        W63519  22.924   7.524  10.513
91937W        W63520  29.349  44.150   4.992
91938W        W63521  27.051  13.156   3.682
91939W        W63522  42.007   2.384   0.825
91940W        W63523  19.292   7.286  13.893
91941W        W63524  36.299  23.461  13.803
91942W        W63525   5.945   3.078   0.461
91943W        W63526   3.046  19.127  11.516
91944W        W63527  40.472  17.635  14.781
91945W        W63528   2.504  18.749   0.933
91946W        W63529  24.640  33.830   2.687
91947W        W63530  21.803  25.428  11.126
91948W        W63531  33.185   3.819   1.926
91949W        W63532  17.721  23.767   0.958
91950W        W63533  25.234  29.346   2.226
91951W        W63534   3.245  44.907   2.805
91952W        W63535  21.273  14.499  14.542
91953W        W63536  24.438  39.412  11.916
91954W        W63537   2.239  16.743   3.674
91955W        W63538  34.988  35.561   1.923
91956W        W63539  30.517  15.487  13.764
91957W        W63540  33.508  25.829  14.495
91958W        W63541  33.384  13.786   4.134
91959W        W63542  38.624  15.755  11.458
91960W        W63543  24.126  16.679   0.339
91961W        W63544  34.939  28.176  14.305
91962W        W63545  21.940   0.770  13.274
91963W        W63546  16.064   0.900  10.521
91964W        W63547   7.249   9.010   2.928
91965W        W63548   4.462  12.700  12.780
91966W        W63549  14.962  42.348   0.436
91967W        W63550  31.582  39.884   3.731
91968W        W63551  16.487  36.637   0.340
91969W        W63552   9.220  15.734   2.772
91970W        W63553   4.736  33.186   4.152
91971W        W63554  15.972   7.703   1.546
91972W        W63555  32.501  44.551  13.010
91973W        W63556  43.322  40.264   3.629
91974W        W63557   3.120  41.363   2.720
91975W        W63558  24.115   2.514   2.738
91976W        W63559  13.417  25.874   2.191
91977W        W63560  41.773  22.307   4.090
91978W        W63561  36.230  30.072  10.536
91979W        W63562  43.004  32.426   3.761
91980W        W63563   2.230  31.859  12.428
91981W        W63564  27.113  29.665   3.122
91982W        W63565  36.078  41.886  11.267
91983W        W63566  32.044  29.322   4.123
91984W        W63567  25.942  15.814  11.236
91985W        W63568  20.187  28.414  12.284
91986W        W63569  13.873   1.008  14.494
91987W        W63570  44.783  38.023  13.699
91988W        W63571  38.112  30.644   5.069
91989W        W63572  26.936  27.661   3.358
91990W        W63573  23.570  36.329   3.648
91991W        W63574  34.533  23.462  10.901
91992W        W63575  28.524  24.777  13.478
91993W        W63576  43.239  22.946  12.498
91994W        W63577  25.771   7.750   3.641
91995W        W63578  39.065  22.837   1.804
91996W        W63579  14.192  41.690  12.448
91997W        W63580  24.748  22.501  11.173
91998W        W63581  20.570  36.602  12.455
91999W        W63582  17.358  30.671  10.651
92000W        W63583  16.396  39.378   1.998
92001W        W63584  26.580  25.782   1.792
92002W        W63585  29.662  39.781   0.028
92003W        W63586  15.255   6.769   0.004
92004W        W63587  17.386   5.157   3.386
92005W        W63588  14.793  38.673   1.669
92006W        W63589  18.787  10.064   4.304
92007W        W63590  35.039   6.779   1.773
92008W        W63591  10.209  13.066   0.715
92009W        W63592  32.989  34.380  12.386
92010W        W63593  38.842  22.185   3.902
92011W        W63594  41.490  16.720  14.718
92012W        W63595  14.633   4.346   1.147
92013W        W63596  29.054  39.920  12.609
92014W        W63597  43.443  10.372   0.347
92015W        W63598  22.135  28.162   4.150
92016W        W63599   4.788  24.949   4.361
92017W        W63600  33.093  17.346  13.484
92018W        W63601  15.732  37.100   2.212
92019W        W63602  17.807  23.186   4.588
92020W        W63603   2.391  17.963  12.431
92021W        W63604  27.020   6.756  10.198
92022W        W63605   4.421  37.864  10.582
92023W        W63606  10.090  30.969  13.391
92024W        W63607  26.136  18.228   2.380
92025W        W63608  43.826   2.084   2.696
92026W        W63609  32.922  13.726   2.745
92027W        W63610  41.499  31.391   2.395
92028W        W63611  12.787   1.007  11.036
92029W        W63612  34.526  33.525  12.912
92030W        W63613  29.913  30.469  12.522
92031W        W63614  22.320   5.714  14.488
92032W        W63615  33.579  24.108  10.672
92033W        W63616  18.768  17.137   4.540
92034W        W63617  36.906  33.071  14.350
92035W        W63618  19.278  39.627  14.278
92036W        W63619  22.359   7.897  14.738
92037W        W63620  37.484  22.549   0.934
92038W        W63621  28.423  30.148  12.452
92039W        W63622   0.932  29.380  11.549
92040W        W63623  15.307  37.662  12.183
92041W        W63624  44.941   1.320   0.028
92042W        W63625   2.243  10.792   4.062
92043W        W63626  27.077  20.504   1.741
92044W        W63627  17.132  44.837   1.860
92045W        W63628   2.497  28.440  13.925
92046W        W63629  11.901  32.971   2.078
92047W        W63630  27.429   3.547   0.362
92048W        W63631   2.940  16.386  12.830
92049W        W63632  36.056  36.395  13.450
92050W        W63633  15.050  28.516   2.193
92051W        W63634  42.520  35.389  13.141
92052W        W63635  36.905  38.520   4.032
92053W        W63636   6.128   7.220   4.459
92054W        W63637  36.074  29.422   3.698
92055W        W63638   8.127   4.781   2.717
92056W        W63639  19.757  41.223  14.000
92057W        W63640  43.995   5.797  14.977
92058W        W63641   7.602  19.578  12.666
92059W        W63642   2.007   0.413  11.017
92060W        W63643   0.764  32.180  13.428
92061W        W63644  23.487  23.242   1.851
92062W        W63645   8.031  44.950   1.216
92063W        W63646   1.630   2.047   0.017
92064W        W63647   9.921  20.404  12.447
92065W        W63648  27.684  29.955  10.753
92066W        W63649  16.583  12.903   3.422
92067W        W63650   3.138  31.258  11.572
92068W        W63651  37.568  30.612  12.599
92069W        W63652  16.671  24.031  14.843
92070W        W63653  13.847  12.164   4.912
92071W        W63654  15.758  29.691   3.589
92072W        W63655  31.172  39.053   1.906
92073W        W63656  17.791  28.708  13.923
92074W        W63657  44.889  34.433  11.990
92075W        W63658  21.431  13.384   0.774
92076W        W63659  25.098   7.653   4.037
92077W        W63660  42.616  10.312   5.191
92078W        W63661  38.109  21.521  11.596
92079W        W63662  22.542  16.671  11.168
92080W        W63663  35.064  41.996   0.371
92081W        W63664   1.345  43.408  14.825
92082W        W63665  16.007  29.594   1.614
92083W        W63666  18.643  26.177   5.371
92084W        W63667  26.102  41.252  10.904
92085W        W63668   5.871  11.618  14.100
92086W        W63669  35.812   9.978   4.987
92087W        W63670  32.721  10.649  14.015
92088W        W63671  25.655  26.504   3.740
92089W        W63672  12.557   0.392  14.214
92090W        W63673   4.265   7.291   1.197
92091W        W63674  12.070  17.541   0.174
92092W        W63675  40.121  10.867  11.950
92093W        W63676  39.352  25.544  11.678
92094W        W63677  41.810  10.911   2.169
92095W        W63678  18.755   9.111  13.354
92096W        W63679  30.114   1.919   2.503
92097W        W63680  34.094  36.261   1.961
92098W        W63681  44.856  38.541   2.647
92099W        W63682  14.083  40.933  13.482
92100W        W63683  32.124  24.085  13.850
92101W        W63684  38.308  26.562  11.906
92102W        W63685   5.866  31.774  11.793
92103W        W63686  12.989   7.863  11.579
92104W        W63687   1.421  32.491  14.482
92105W        W63688  42.936  29.923   0.485
92106W        W63689  40.507  20.610   1.688
92107W        W63690  25.783  38.722  14.259
92108W        W63691   1.329  22.298   3.304
92109W        W63692   7.182  19.792  14.897
92110W        W63693  17.528  23.091  13.392
92111W        W63694  41.809  13.716   3.718
92112W        W63695   2.229  11.947   3.306
92113W        W63696   2.864  18.235  13.203
92114W        W63697   0.711  30.575   4.094
92115W        W63698  19.177  24.447   0.362
92116W        W63699  34.974   6.977   3.801
92117W        W63700  20.711  26.408   2.824
92118W        W63701  20.321  23.791   1.484
92119W        W63702  43.899   6.188  12.415
92120W        W63703   9.358  37.680  11.900
92121W        W63704  27.721  21.720   3.746
92122W        W63705   0.814   5.308  10.706
92123W        W63706  24.825  12.732  10.634
92124W        W63707  30.736  19.280   1.798
92125W        W63708   7.427  39.927   2.364
92126W        W63709   1.220  25.947   4.750
92127W        W63710   9.151  29.873  14.943
92128W        W63711   2.159  30.037  11.868
92129W        W63712  26.989   0.679  14.002
92130W        W63713  22.631  18.013   1.084
92131W        W63714  25.977  19.715   0.882
92132W        W63715   0.418  25.283  13.412
92133W        W63716   1.236  39.065  13.954
92134W        W63717   3.317   2.214   1.841
92135W        W63718  22.427   2.822  14.350
92136W        W63719  21.275   5.978   3.432
92137W        W63720  32.225  16.033  14.984
92138W        W63721   7.876   6.764   2.662
92139W        W63722  31.761  33.087  10.747
92140W        W63723  28.904  36.946  11.793
92141W        W63724   8.105  36.463   0.483
92142W        W63725   4.220   4.906   4.606
92143W        W63726  31.748  36.234   2.271
92144W        W63727  31.052  18.569  10.950
92145W        W63728  41.059  17.763  11.942
92146W        W63729  15.555  39.380  14.965
92147W        W63730   0.214  26.657  11.495
92148W        W63731  31.009  37.425  13.360
92149W        W63732  39.319  38.300  12.773
92150W        W63733  15.217  20.906  12.872
92151W        W63734   3.908  27.004   1.767
92152W        W63735  44.286   8.137   0.808
92153W        W63736   5.128  35.048  13.451
92154W        W63737  41.975  38.127   4.220
92155W        W63738   6.301  19.530   5.459
92156W        W63739  30.562  31.555  11.572
92157W        W63740  30.020  14.833   0.150
92158W        W63741  20.431   6.463  12.859
92159W        W63742  30.471  37.282  14.447
92160W        W63743  42.754  42.965   3.570
92161W        W63744  23.611  18.139  10.416
92162W        W63745  38.407  21.733  14.471
92163W        W63746  10.799  30.629   2.751
92164W        W63747   2.780  41.861  10.759
92165W        W63748  26.218   6.910  10.365
92166W        W63749  31.493   3.685   2.331
92167W        W63750  27.472  37.065   2.372
92168W        W63751  25.574  11.211   3.235
92169W        W63752   3.291  21.551   2.291
92170W        W63753  21.184  27.019   0.876
92171W        W63754   7.464  29.632   2.796
92172W        W63755  35.110  24.629  13.000
92173W        W63756  19.771   3.179   3.702
92174W        W63757  11.821   6.904   0.406
92175W        W63758  44.324   3.031  10.979
92176W        W63759  14.999  27.024  12.136
92177W        W63760  20.013  12.451  11.211
92178W        W63761  40.570  27.496   4.196
92179W        W63762  18.798  41.605  14.006
92180W        W63763  22.491  11.389   4.270
92181W        W63764  21.824  30.371   2.797
92182W        W63765  27.381  18.080  11.051
92183W        W63766  31.496  34.003  11.257
92184W        W63767   4.248  13.803  10.696
92185W        W63768  16.841  17.142   4.192
92186W        W63769  12.366  37.997   3.241
92187W        W63770  10.774  30.467  12.875
92188W        W63771  23.094  38.401  10.365
92189W        W63772   2.990  40.086   2.405
92190W        W63773  37.315  23.225  11.633
92191W        W63774  26.054  17.984   0.487
92192W        W63775  14.764  39.936   3.679
92193W        W63776  23.561  42.764   0.778
92194W        W63777  24.987  44.996   3.036
92195W        W63778   6.756   0.420  14.499
92196W        W63779  40.911   3.190   1.194
92197W        W63780   5.154  37.039  10.956
92198W        W63781  16.614  17.582   0.675
92199W        W63782   9.474   3.359   1.262
92200W        W63783  18.250  29.605  14.481
92201W        W63784  26.959  37.311   4.364
92202W        W63785  40.072  25.541  12.437
92203W        W63786  32.553  14.769   4.483
92204W        W63787   2.082  42.998   2.238
92205W        W63788  30.596  34.303   4.279
92206W        W63789   8.513   4.198   1.193
92207W        W63790   1.364  28.163   0.752
92208W        W63791   0.819  16.846   2.700
92209W        W63792  32.277  29.408   2.162
92210W        W63793  26.442   8.388   2.271
92211W        W63794  11.141  13.468  11.185
92212W        W63795   6.395  44.619   4.616
92213W        W63796  32.968  30.108   0.236
92214W        W63797  11.428  44.046   4.650
92215W        W63798  16.546   4.229   4.153
92216W        W63799  27.438  39.434  10.720
92217W        W63800  40.616   3.115   4.908
92218W        W63801  29.498  32.394   4.694
92219W        W63802  40.360  30.472  14.986
92220W        W63803  24.053   7.271   4.147
92221W        W63804  24.019   3.548  13.007
92222W        W63805   8.035  40.804   4.890
92223W        W63806  34.525  36.806  11.145
92224W        W63807  21.066  41.879   1.912
92225W        W63808   9.184  12.865  11.589
92226W        W63809   9.815   7.405   0.930
92227W        W63810  44.070  16.018  13.878
92228W        W63811  40.303  39.823   1.978
92229W        W63812  22.753  37.670  12.312
92230W        W63813  27.892   1.940   3.158
92231W        W63814  31.660  42.260   3.358
92232W        W63815  32.489  30.493  11.604
92233W        W63816  10.152  37.344  14.278
92234W        W63817  14.280  26.318   4.480
92235W        W63818  16.221  36.619  12.682
92236W        W63819   6.813  25.540   2.306
92237W        W63820  38.565  19.069  10.997
92238W        W63821   1.379  35.103   1.395
92239W        W63822   6.440  30.565   1.633
92240W        W63823  14.228  12.826  14.860
92241W        W63824  42.287   3.212  14.520
92242W        W63825  26.738  31.371   1.178
92243W        W63826  35.352   3.039   1.116
92244W        W63827  29.333  23.781   1.887
92245W        W63828   4.798  27.452   3.505
92246W        W63829  33.013  39.868   3.862
92247W        W63830  19.997  24.616  11.300
92248W        W63831  41.041  10.507  12.637
92249W        W63832  20.555  44.984  11.924
92250W        W63833  12.626  23.241   3.945
92251W        W63834  35.971  16.192   3.242
92252W        W63835  32.934  42.099  11.789
92253W        W63836   4.919  22.931   2.222
92254W        W63837   8.133  32.125  11.589
92255W        W63838  17.588  22.957   1.740
92256W        W63839   9.577   9.235   1.491
92257W        W63840  34.950  31.012   2.768
92258W        W63841  36.622  16.505  12.474
92259W        W63842  15.140  35.787   3.718
92260W        W63843  43.186  42.324   4.039
92261W        W63844   7.697  22.550   3.629
92262W        W63845  26.146  36.910   4.561
92263W        W63846   5.287  17.014   0.779
92264W        W63847  33.813  33.439   4.603
92265W        W63848  42.366  15.902   2.773
92266W        W63849   9.189  40.621  11.740
92267W        W63850  44.438  17.206  14.782
92268W        W63851  35.594  38.769   2.757
92269W        W63852  40.897  24.463   4.215
92270W        W63853  28.019   4.834   4.596
92271W        W63854  26.767  24.619   1.225
92272W        W63855   7.391  35.424  12.767
92273W        W63856  13.390   1.470  13.844
92274W        W63857  16.638  34.092  14.692
92275W        W63858  20.965   2.375   1.444
92276W        W63859  29.083   3.036   0.543
92277W        W63860  15.180  18.356   3.620
92278W        W63861   3.525   0.435  14.108
92279W        W63862  39.050  29.914   1.864
92280W        W63863  16.358  26.326  10.471
92281W        W63864  33.513   1.278  11.510
92282W        W63865  32.513  30.059   4.369
92283W        W63866   9.915   3.672  12.003
92284W        W63867  38.956  13.841   0.838
92285W        W63868  31.995  12.350   2.376
92286W        W63869  18.068   1.678   1.820
92287W        W63870  19.825  11.294   1.807
92288W        W63871  12.221  39.810   4.351
92289W        W63872  10.412  28.890  13.309
92290W        W63873  18.648  27.721   4.150
92291W        W63874   1.523   3.264   2.171
92292W        W63875  31.388  11.274   3.148
92293W        W63876  30.408  30.419   0.817
92294W        W63877  12.230  10.341  13.887
92295W        W63878  33.559  11.792  10.386
92296W        W63879  24.448   8.113  14.318
92297W        W63880  25.960  26.918  10.878
92298W        W63881  40.845  17.827   1.840
92299W        W63882   4.687  41.891   2.780
92300W        W63883  30.951  30.838   3.429
92301W        W63884   9.198  26.880   2.866
92302W        W63885  27.487  29.140   4.728
92303W        W63886  35.408  18.191   4.706
92304W        W63887  16.097  41.691   1.881
92305W        W63888  14.590  12.727  14.426
92306W        W63889  42.487  30.808   3.347
92307W        W63890  25.054  38.496   1.689
92308W        W63891  28.279  34.487  13.344
92309W        W63892  15.129  11.442  11.899
92310W        W63893  12.068   2.426  13.411
92311W        W63894  12.687  32.536  13.618
92312W        W63895  12.878  41.419  13.121
92313W        W63896  13.378  21.743   2.481
92314W        W63897   8.772  22.666  12.624
92315W        W63898  29.199  43.776   2.466
92316W        W63899  13.697  14.154  11.893
92317W        W63900  24.709  17.975  12.959
92318W        W63901  13.911  19.226   0.707
92319W        W63902  40.497  13.559  13.409
92320W        W63903   4.759  21.672   4.128
92321W        W63904  39.131  14.270   2.741
92322W        W63905  19.956  42.422  11.504
92323W        W63906  44.402  31.266  13.370
92324W        W63907  22.975  43.891  12.140
92325W        W63908   1.909  33.885   1.202
92326W        W63909  23.664  27.663  13.995
92327W        W63910  31.375  35.450  13.895
92328W        W63911  44.572  19.197  14.010
92329W        W63912  26.047  43.672   0.915
92330W        W63913  20.266  37.447   3.156
92331W        W63914  27.967  10.214  13.748
92332W        W63915   0.421  15.797   3.345
92333W        W63916  16.877  32.586   0.258
92334W        W63917   9.330  26.468   0.659
92335W        W63918   6.902  20.319   0.360
92336W        W63919  22.591  15.785  10.942
92337W        W63920  25.089  33.172  12.568
92338W        W63921  41.251   9.519   2.826
92339W        W63922  25.911  32.048   1.877
92340W        W63923   6.754  28.020   4.712
92341W        W63924  16.867  26.430   5.051
92342W        W63925   7.940   4.738  12.029
92343W        W63926   2.429  11.609   5.113
92344W        W63927  44.315  40.873  10.906
92345W        W63928  34.534  33.792   4.141
92346W        W63929  29.536  27.376  11.653
92347W        W63930  35.310   6.985  12.983
92348W        W63931  39.469  20.765  14.601
92349W        W63932   0.712  33.460  10.228
92350W        W63933  22.448   0.808   2.530
92351W        W63934  24.020  35.686   1.284
92352W        W63935   8.098  18.988   0.797
92353W        W63936  21.963  33.994   3.192
92354W        W63937  13.559  40.267  11.694
92355W        W63938  31.380  23.585  14.335
92356W        W63939  12.710  22.176  11.838
92357W        W63940   3.684   8.408  14.851
92358W        W63941  12.232  25.737   0.005
92359W        W63942  14.788  22.135  10.659
92360W        W63943  35.310   7.241   3.423
92361W        W63944  40.963  37.413   0.079
92362W        W63945  41.960   1.430  10.511
92363W        W63946  18.387  11.208  14.834
92364W        W63947  33.566  44.491  12.837
92365W        W63948  21.403   8.880   2.702
92366W        W63949  40.739  28.041  12.517
92367W        W63950  13.666  30.450   3.324
92368W        W63951  30.929  23.901  14.950
92369W        W63952  19.418  35.035  13.005
92370W        W63953  44.881   6.547   0.617
92371W        W63954  32.333  24.206   0.257
92372W        W63955  41.423  34.525   1.707
92373W        W63956   7.801   5.282  14.739
92374W        W63957   4.774   5.365   2.938
92375W        W63958  21.474   2.389  13.806
92376W        W63959  16.808  23.083   1.217
92377W        W63960  25.474   9.704   1.367
92378W        W63961   8.766  16.453   0.254
92379W        W63962  41.472   2.836   2.376
92380W        W63963  33.108  13.327  14.403
92381W        W63964  44.454  24.156  11.032
92382W        W63965   2.899  43.308  13.967
92383W        W63966  17.786  16.629  14.042
92384W        W63967  32.127  10.839   4.168
92385W        W63968   5.083  15.208   1.504
92386W        W63969  28.621   8.857   0.746
92387W        W63970  43.968  17.850  14.869
92388W        W63971   5.618  37.079   0.744
92389W        W63972   2.510   8.368   2.835
92390W        W63973  28.925  43.973  12.529
92391W        W63974   9.876  25.639   0.843
92392W        W63975  20.168  21.102  12.066
92393W        W63976  33.955  38.488  13.846
92394W        W63977  19.806  16.399  12.056
92395W        W63978  31.514  34.102   4.774
92396W        W63979  38.464  24.895   1.703
92397W        W63980   6.424  32.464  11.487
92398W        W63981  10.492  11.780   3.700
92399W        W63982  37.523  30.980   3.342
92400W        W63983   1.838  19.855  11.103
92401W        W63984  16.413  42.869   4.625
92402W        W63985  19.068  30.841  11.584
92403W        W63986  40.043   2.671  14.340
92404W        W63987  26.613  26.567  12.416
92405W        W63988   7.451  30.682   0.304
92406W        W63989  40.869   1.957  10.949
92407W        W63990  40.809  37.248   0.996
92408W        W63991   8.220   9.689  10.548
92409W        W63992  19.648  32.663  13.399
92410W        W63993  31.987  17.304   3.310
92411W        W63994  11.749   0.102   3.664
92412W        W63995  38.163  44.900  11.747
92413W        W63996  36.243   8.566   4.733
92414W        W63997  20.900  40.461  12.906
92415W        W63998  16.063  39.003   4.821
92416W        W63999  44.200  23.912   1.390
92417W        W64000  20.310  35.442   2.714
92418W        W64001  43.878   6.676  12.134
92419W        W64002  17.329   7.663  12.476
92420W        W64003  23.082  29.955   0.655
92421W        W64004  19.232  25.705   0.892
92422W        W64005   7.313  12.896   0.007
92423W        W64006   8.943   3.411   2.358
92424W        W64007  18.180  13.218  13.757
92425W        W64008  21.051   9.332   2.120
92426W        W64009  13.574  16.101   4.161
92427W        W64010   2.034  15.085  14.847
92428W        W64011  11.170  20.062   2.291
92429W        W64012  36.195  28.194  10.217
92430W        W64013  40.423  22.401   4.946
92431W        W64014  27.726  34.276   0.485
92432W        W64015  41.550  38.010  14.367
92433W        W64016  25.596  30.956   3.757
92434W        W64017  28.380  30.182   1.231
92435W        W64018  30.068  11.147  11.028
92436W        W64019  35.422  26.476   2.786
92437W        W64020   5.296  36.826   9.807
92438W        W64021   8.874  12.902   0.876
92439W        W64022  20.071  29.163  10.706
92440W        W64023  38.038  24.362  11.529
92441W        W64024  34.422  19.060   4.704
92442W        W64025  17.026  10.924   1.953
92443W        W64026  36.371  27.212  12.855
92444W        W64027  23.903  25.714  14.995
92445W        W64028  41.524  28.598  12.871
92446W        W64029  20.609  26.349   4.455
92447W        W64030  12.624  24.407  10.665
92448W        W64031  34.154  28.651  10.686
92449W        W64032  39.148  38.075  14.916
92450W        W64033  10.225  21.660   0.097
92451W        W64034  25.455  31.700  14.222
92452W        W64035  44.770  44.906  10.691
92453W        W64036  14.094   3.741   0.726
92454W        W64037  18.581  25.942  13.368
92455W        W64038   6.772  23.087  11.552
92456W        W64039   5.832  13.156   2.271
92457W        W64040   2.722  43.594   1.410
92458W        W64041   4.595  23.622   2.653
92459W        W64042  16.123  41.822   2.457
92460W        W64043  28.927  27.162  12.327
92461W        W64044  34.949  26.140   4.536
92462W        W64045  29.083  26.153  11.675
92463W        W64046  25.523   0.172  14.535
92464W        W64047  29.032  18.628  14.319
92465W        W64048  35.885  31.964   4.894
92466W        W64049   0.470  37.283  14.319
92467W        W64050  35.187   1.751  11.951
92468W        W64051  32.446   0.002   1.748
92469W        W64052  25.132  33.091   4.311
92470W        W64053   8.404  20.791   1.788
92471W        W64054   5.417  27.133  11.934
92472W        W64055  29.395  33.488   2.793
92473W        W64056  44.939  43.190  12.341
92474W        W64057  11.999  34.285   1.441
92475W        W64058  38.494  43.185  13.859
92476W        W64059   5.866  23.556  11.683
92477W        W64060  19.152  42.051  10.658
92478W        W64061  16.664   8.920  12.419
92479W        W64062  12.178  16.366   3.779
92480W        W64063   1.573  10.811  14.304
92481W        W64064  11.667  37.255   2.840
92482W        W64065  44.177  17.010  11.396
92483W        W64066  29.389  13.178  14.751
92484W        W64067  25.444   9.942  12.545
92485W        W64068   6.734  39.912   3.781
92486W        W64069   7.359   6.746  10.747
92487W        W64070  22.928  16.847   0.935
92488W        W64071  35.896  22.013   3.334
92489W        W64072  24.699  29.535   1.319
92490W        W64073  26.725  16.622   0.458
92491W        W64074  21.380  25.586   1.602
92492W        W64075  38.652  14.742   4.592
92493W        W64076  19.128  27.839  12.148
92494W        W64077  24.397   5.381  12.349
92495W        W64078  10.879  33.426   4.426
92496W        W64079  27.320  31.204  10.864
92497W        W64080   6.757   8.394   0.838
92498W        W64081  40.484  38.605  12.264
92499W        W64082  17.252  33.292   0.004
92500W        W64083  31.637   4.333   2.748
92501W        W64084   3.416  23.562   2.424
92502W        W64085  19.271  39.146  11.029
92503W        W64086  42.623  28.493  14.902
92504W        W64087   0.721  27.061  13.176
92505W        W64088  19.702  26.644   1.061
92506W        W64089  39.892  24.436   0.892
92507W        W64090  29.043   3.627  12.481
92508W        W64091  27.795  33.203  13.992
92509W        W64092  41.021  32.170   1.886
92510W        W64093  40.953  36.872   3.096
92511W        W64094  27.171  19.557   4.674
92512W        W64095  12.237  38.778  10.929
92513W        W64096  24.631  11.677  12.797
92514W        W64097   8.799   0.530  11.127
92515W        W64098   7.355   2.139   1.888
92516W        W64099   3.489  11.580  14.349
92517W        W64100  19.842  39.639   3.661
92518W        W64101  15.310   8.629   0.281
92519W        W64102  33.472   8.617  11.570
92520W        W64103  21.304  35.970  14.061
92521W        W64104  27.720  41.389  14.814
92522W        W64105  15.288  17.722  11.140
92523W        W64106  11.498  31.386   0.764
92524W        W64107  16.697  11.665   2.620
92525W        W64108  32.098  37.971   4.543
92526W        W64109  10.283  35.128  14.994
92527W        W64110   5.291  36.526  12.518
92528W        W64111  27.648  14.186   0.636
92529W        W64112  24.719  23.024  14.885
92530W        W64113  31.574   1.211  13.479
92531W        W64114   8.222   7.794   0.242
92532W        W64115  27.081   5.644  11.113
92533W        W64116   4.867  36.159  11.216
92534W        W64117  37.546  13.828   2.842
92535W        W64118  17.749  25.725  10.197
92536W        W64119   3.907  34.019  12.550
92537W        W64120  36.023   8.294   0.023
92538W        W64121  34.905  15.248   0.011
92539W        W64122  44.517  20.248   4.141
92540W        W64123   2.599   6.760   1.169
92541W        W64124  30.392  40.505  12.009
92542W        W64125  18.690  41.609   2.574
92543W        W64126  12.683   2.312   3.317
92544W        W64127  32.010  36.521  13.322
92545W        W64128  39.532  10.382   1.335
92546W        W64129   4.586  20.008  13.309
92547W        W64130  39.466  43.885  13.406
92548W        W64131  29.458  15.596  14.944
92549W        W64132  42.015   5.282  14.054
92550W        W64133  28.098  33.714   3.726
92551W        W64134   7.410  21.731   2.150
92552W        W64135   2.313  41.081   4.074
92553W        W64136  24.920  17.854  12.052
92554W        W64137  22.451  21.189   2.222
92555W        W64138  19.696  15.654   0.165
92556W        W64139  34.137   0.171  13.586
92557W        W64140  36.910  24.535   4.264
92558W        W64141  44.863  14.801  11.932
92559W        W64142  13.134  14.386  10.163
92560W        W64143  10.621  43.881  12.494
92561W        W64144  19.540   0.729   2.962
92562W        W64145  24.125  35.131  11.964
92563W        W64146  32.595  31.714  14.000
92564W        W64147  11.873  12.317  13.312
92565W        W64148  44.857  26.537  14.033
92566W        W64149  34.005  11.929  12.503
92567W        W64150   0.128  21.216  14.807
92568W        W64151  41.017   8.657   1.482
92569W        W64152  39.893  25.268   2.586
92570W        W64153  12.027  41.379   3.606
92571W        W64154  39.940  44.344  11.982
92572W        W64155  16.826  18.237  12.434
92573W        W64156  25.788  37.646  14.400
92574W        W64157  44.319  19.323  13.485
92575W        W64158  28.212   8.449  13.887
92576W        W64159   1.117   1.878   4.450
92577W        W64160  28.078  19.591  10.783
92578W        W64161  13.795  16.634  12.232
92579W        W64162   2.941  13.646   1.189
92580W        W64163  20.612  19.329  12.361
92581W        W64164  44.024  28.426   2.748
92582W        W64165  41.981  43.570   3.859
92583W        W64166  37.431  36.850   2.281
92584W        W64167   1.296  35.082   4.158
92585W        W64168  22.620   9.705   9.888
92586W        W64169   7.387  10.786   0.851
92587W        W64170   8.636  32.452  14.630
92588W        W64171  14.259  27.419  12.869
92589W        W64172  12.733  37.917   0.964
92590W        W64173  25.108  12.802  13.970
92591W        W64174  40.554  12.238   0.778
92592W        W64175  17.729   0.702  10.778
92593W        W64176  15.574  44.343  11.047
92594W        W64177   9.681  31.019   1.225
92595W        W64178   4.301  16.567  11.066
92596W        W64179  14.078  43.783  10.715
92597W        W64180  28.033  13.814  12.132
92598W        W64181   1.841  29.701   1.286
92599W        W64182  29.653  29.639  11.396
92600W        W64183  32.701  21.510   1.548
92601W        W64184  25.921  24.790   0.981
92602W        W64185  19.310  35.876   1.652
92603W        W64186  14.505  24.552   2.778
92604W        W64187   9.734  35.136   0.323
92605W        W64188  17.530  39.861  10.608
92606W        W64189  11.818  34.849   0.898
92607W        W64190  22.526  35.617  12.684
92608W        W64191  15.828  12.795  13.659
92609W        W64192  33.790   2.252   2.388
92610W        W64193  33.564  25.005   4.595
92611W        W64194  22.803   7.836   4.933
92612W        W64195  35.430  28.710   1.321
92613W        W64196  30.184  42.889  11.104
92614W        W64197  10.276  27.170  11.398
92615W        W64198  34.065   4.426   1.215
92616W        W64199  23.628   0.182  11.084
92617W        W64200  28.588  25.080   4.678
92618W        W64201  25.485  32.911  13.873
92619W        W64202   1.401  29.617  11.539
92620W        W64203  26.412  38.329   2.468
92621W        W64204  34.421  25.926   3.764
92622W        W64205  22.284  40.986  11.600
92623W        W64206  26.714  11.589   4.116
92624W        W64207  20.745  43.104  10.630
92625W        W64208  37.917  12.528   4.373
92626W        W64209  19.576   9.132  10.646
92627W        W64210   1.469  11.256   3.421
92628W        W64211  28.521  23.898  11.116
92629W        W64212  27.499  30.842  11.220
92630W        W64213  30.900  23.470   2.438
92631W        W64214   9.537  16.150   2.869
92632W        W64215  26.545  40.306   2.390
92633W        W64216   7.328  41.512  12.462
92634W        W64217  22.568  32.935   1.850
92635W        W64218  20.620  24.238  14.632
92636W        W64219  30.310  14.661  14.766
92637W        W64220   4.716  37.504  11.832
92638W        W64221  30.351  26.173  11.962
92639W        W64222  42.816   0.523   2.947
92640W        W64223  14.762   6.775   2.601
92641W        W64224   4.318  34.039  14.432
92642W        W64225  13.774   9.949  10.997
92643W        W64226  22.149   4.274   1.863
92644W        W64227  27.058  44.770  11.542
92645W        W64228   5.228  36.368   0.218
92646W        W64229  34.031  20.683   1.276
92647W        W64230  23.962  17.749   4.983
92648W        W64231   4.416  14.821  10.646
92649W        W64232  12.671  35.367   3.783
92650W        W64233   9.866  42.011   0.322
92651W        W64234  37.062  25.123  12.429
92652W        W64235  18.999  26.681  14.940
92653W        W64236  14.210  18.356  13.633
92654W        W64237  43.986  44.944  13.334
92655W        W64238  43.784  37.396   3.216
92656W        W64239  10.527  17.613   0.329
92657W        W64240  27.734  20.512   1.441
92658W        W64241   7.760  36.989  12.945
92659W        W64242   9.280  37.129   1.485
92660W        W64243  36.470  38.758   2.623
92661W        W64244  19.423  13.375   5.034
92662W        W64245  34.815   6.483   3.296
92663W        W64246  29.899  31.582  10.192
92664W        W64247  35.276  24.447  14.907
92665W        W64248   5.654  23.638  11.246
92666W        W64249  35.181  25.206  12.306
92667W        W64250   7.322  31.048   3.982
92668W        W64251   9.116   7.441   1.214
92669W        W64252  26.254  26.114   3.260
92670W        W64253   2.396  15.591  11.770
92671W        W64254  20.302  39.439   4.536
92672W        W64255  40.077  42.748   4.014
92673W        W64256  32.580  16.208  14.645
92674W        W64257   1.423  17.340   4.390
92675W        W64258  29.958  19.397   0.463
92676W        W64259   3.246   1.289  11.208
92677W        W64260  44.448  36.909  14.400
92678W        W64261  33.903  23.594  12.150
92679W        W64262   4.842  25.449  12.418
92680W        W64263  17.902  24.237   0.099
92681W        W64264  11.307   9.579   2.813
92682W        W64265  13.731  15.302  10.451
92683W        W64266   3.348  27.644   4.553
92684W        W64267  40.555   2.805  11.519
92685W        W64268  27.749  10.168  11.383
92686W        W64269   5.435   8.434  11.940
92687W        W64270   9.771   1.195  10.461
92688W        W64271   6.708  11.915  12.745
92689W        W64272  33.136  16.678   1.205
92690W        W64273  16.987  29.596  14.573
92691W        W64274  27.794  27.889  11.151
92692W        W64275  41.566  25.096   2.783
92693W        W64276  38.648   0.163  11.935
92694W        W64277  36.624  43.307   2.361
92695W        W64278  33.958  15.463  11.619
92696W        W64279  39.972  31.998   3.783
92697W        W64280   7.411  44.538   1.877
92698W        W64281  31.036  10.629  13.269
92699W        W64282   4.593  35.553   0.286
92700W        W64283  26.271   2.936  12.816
92701W        W64284   7.116  13.826   2.291
92702W        W64285  39.450  38.365  13.254
92703W        W64286  43.698  13.870  14.895
92704W        W64287  18.758   3.508  12.000
92705W        W64288  14.347  39.871   0.392
92706W        W64289   3.968  19.728   2.880
92707W        W64290  25.959   8.872   1.433
92708W        W64291  34.452   2.699  14.750
92709W        W64292  30.944  12.312   1.726
92710W        W64293  28.131   1.490  11.624
92711W        W64294   9.301   6.528   1.351
92712W        W64295   2.987  24.424  12.011
92713W        W64296  27.069   8.887   5.079
92714W        W64297  18.362  24.490   3.682
92715W        W64298  28.912  30.496  14.285
92716W        W64299  12.435  39.857  14.114
92717W        W64300  13.696  35.043   1.880
92718W        W64301  39.216   7.445   2.431
92719W        W64302   5.725  11.416  14.563
92720W        W64303  25.907  33.960  13.238
92721W        W64304  31.910  12.878  14.046
92722W        W64305  26.958  16.841   3.635
92723W        W64306  23.045   0.927   4.364
92724W        W64307  23.695  39.938   2.135
92725W        W64308   5.336  37.533   2.271
92726W        W64309   8.611  36.037  12.698
92727W        W64310  16.598  36.505   4.597
92728W        W64311  16.763  16.607   4.533
92729W        W64312  11.223  13.239   4.318
92730W        W64313  20.751  36.473   4.893
92731W        W64314  43.718  11.560   2.351
92732W        W64315  31.698  36.756   2.236
92733W        W64316  27.578   8.920   3.212
92734W        W64317  44.736   8.400  13.577
92735W        W64318   9.449  31.131   2.802
92736W        W64319  11.165   1.784   0.986
92737W        W64320  39.883  11.291  12.895
92738W        W64321  10.217   3.251  14.954
92739W        W64322  10.981   0.135  11.024
92740W        W64323  37.298  26.148   1.455
92741W        W64324  31.503  25.744  12.133
92742W        W64325  21.596  32.056   0.345
92743W        W64326  31.881  34.540   4.346
92744W        W64327  40.958  43.345  12.833
92745W        W64328  17.198  13.754   3.299
92746W        W64329  30.088  38.500  12.394
92747W        W64330  13.092  14.663  10.604
92748W        W64331  10.610  32.094   1.412
92749W        W64332  16.339  35.053  10.942
92750W        W64333  40.360  20.692   2.654
92751W        W64334  25.581  11.066  13.419
92752W        W64335  11.201   6.693  13.795
92753W        W64336   3.172  43.856   1.532
92754W        W64337  20.810  31.246   3.792
92755W        W64338  10.137  16.733  12.432
92756W        W64339  21.890  32.340   2.723
92757W        W64340  42.966  36.524   2.885
92758W        W64341  15.276  37.138   1.628
92759W        W64342  33.190  10.848   0.326
92760W        W64343  37.824  33.098  14.788
92761W        W64344  21.769   8.807   4.549
92762W        W64345  42.989  26.399   1.728
92763W        W64346  21.124   7.317   5.115
92764W        W64347  11.871  35.017  14.116
92765W        W64348   5.710  31.680   1.748
92766W        W64349  11.752   1.469   3.466
92767W        W64350  15.257   1.069  13.739
92768W        W64351  11.835  43.752  11.464
92769W        W64352  22.043  17.116  11.541
92770W        W64353  32.675  39.349  13.545
92771W        W64354  31.496  34.089   3.273
92772W        W64355  10.799  12.913  14.996
92773W        W64356  37.141  25.077  13.303
92774W        W64357  25.173  40.211   2.967
92775W        W64358   3.238   9.937  12.397
92776W        W64359  18.765  23.135  12.797
92777W        W64360  43.219  36.846  13.337
92778W        W64361  36.954  35.818  10.509
92779W        W64362  15.699  18.787  10.692
92780W        W64363  38.991  19.104  12.998
92781W        W64364  37.414   0.991  10.712
92782W        W64365  17.259  30.475  13.910
92783W        W64366   8.273  34.351  13.079
92784W        W64367  28.178  16.371  12.899
92785W        W64368  26.025  30.650   0.239
92786W        W64369  17.651  35.727   2.317
92787W        W64370  15.052  42.219  10.812
92788W        W64371  14.071  19.047   4.509
92789W        W64372  24.903  40.836  14.741
92790W        W64373   1.932  35.916   4.504
92791W        W64374  40.877  10.326   2.964
92792W        W64375  32.599  35.848   2.125
92793W        W64376  12.673  37.577   4.155
92794W        W64377  32.924   7.916  14.749
92795W        W64378  20.478  14.014  11.139
92796W        W64379   0.464  42.507   4.348
92797W        W64380  24.115  23.544  13.499
92798W        W64381  27.183  33.266  14.379
92799W        W64382  35.347  23.618   0.402
92800W        W64383  25.276   6.132  11.981
92801W        W64384  11.798  20.639  10.690
92802W        W64385  29.163  20.254  14.824
92803W        W64386  25.581  23.851  12.312
92804W        W64387  31.625   2.200   0.366
92805W        W64388  37.065  36.914   3.263
92806W        W64389  22.036   8.185   2.929
92807W        W64390   4.461  35.094   0.521
92808W        W64391  34.741  16.101  12.897
92809W        W64392  22.203   1.220  14.902
92810W        W64393  25.158  27.482   4.499
92811W        W64394  17.756  37.121  13.063
92812W        W64395   2.919  42.744  12.438
92813W        W64396  39.505  24.530   1.612
92814W        W64397   0.320  18.979   2.285
92815W        W64398   9.422  16.894  13.854
92816W        W64399  21.588   1.740   2.921
92817W        W64400  14.568  43.211   3.263
92818W        W64401  37.457  10.785  10.386
92819W        W64402  12.021  13.052   4.178
92820W        W64403  40.952   6.680   3.735
92821W        W64404  24.420  35.067   0.799
92822W        W64405  21.989  11.039  12.374
92823W        W64406   7.562  22.203  11.192
92824W        W64407  10.134  31.455   0.956
92825W        W64408  16.480  28.290   2.618
92826W        W64409  38.274  13.798   3.186
92827W        W64410  38.020   5.616   0.509
92828W        W64411  11.258   7.190  11.970
92829W        W64412  43.506   9.622  12.059
92830W        W64413  28.854  37.975   1.040
92831W        W64414  23.658  12.331  12.248
92832W        W64415  20.732  25.347  10.439
92833W        W64416  15.821   9.468   3.216
92834W        W64417  43.270  12.545   0.680
92835W        W64418  44.903  19.040  10.937
92836W        W64419  36.009   8.769  14.797
92837W        W64420   0.574  24.247  13.708
92838W        W64421  30.194  17.710  14.372
92839W        W64422  32.570  19.215   2.764
92840W        W64423   6.593   8.236   2.382
92841W        W64424  36.916  14.581   2.259
92842W        W64425  18.647  33.033  14.570
92843W        W64426   7.171  38.058  13.813
92844W        W64427   7.611   0.791  14.836
92845W        W64428  37.587   8.724  12.000
92846W        W64429  10.926  30.910  11.959
92847W        W64430  26.634  42.669  13.503
92848W        W64431  12.890   3.165   2.119
92849W        W64432  17.082  18.309   4.614
92850W        W64433  35.924  15.368  11.542
92851W        W64434   4.260  37.376   2.313
92852W        W64435   5.627  41.478   2.661
92853W        W64436  22.602  41.786   0.898
92854W        W64437  44.811   7.053  11.933
92855W        W64438  28.623  30.184  11.646
92856W        W64439  33.004  30.369   0.733
92857W        W64440   5.597  22.351  12.535
92858W        W64441  29.122  29.615  14.742
92859W        W64442  11.958  33.585   4.837
92860W        W64443  31.052  25.890  11.918
92861W        W64444  44.218  40.463  12.042
92862W        W64445  26.110  12.827   2.228
92863W        W64446  25.510  16.124   4.134
92864W        W64447   7.495   5.798  10.627
92865W        W64448  12.325  33.539   3.790
92866W        W64449   6.115  22.203   2.188
92867W        W64450   5.838  40.838  14.133
92868W        W64451  41.094  16.418   3.687
92869W        W64452  16.523  42.493   4.252
92870W        W64453   0.829  16.553  12.038
92871W        W64454  14.252  37.033   1.311
92872W        W64455  32.165  19.608   9.795
92873W        W64456  23.107  26.305  14.951
92874W        W64457  43.402  36.388  11.148
92875W        W64458  34.514  27.366  14.225
92876W        W64459  28.751   6.372  12.399
92877W        W64460  31.837  12.884   3.076
92878W        W64461  24.156   6.038  11.787
92879W        W64462  25.529  35.497   2.736
92880W        W64463  26.539  39.754   2.418
92881W        W64464  21.776   7.783  11.152
92882W        W64465  16.090  14.303   4.220
92883W        W64466  22.119   6.175  12.455
92884W        W64467  15.868  39.385   5.119
92885W        W64468   5.710   5.003   1.126
92886W        W64469   6.759  18.189   1.698
92887W        W64470  10.967  36.940   4.676
92888W        W64471  38.883   3.602   4.062
92889W        W64472  24.111  30.451   1.253
92890W        W64473  40.072   2.201  12.876
92891W        W64474  41.644  15.837  11.513
92892W        W64475   0.046  38.103   2.388
92893W        W64476   8.835  29.849   0.517
92894W        W64477  16.751  32.595  11.958
92895W        W64478  18.563  29.451  13.500
92896W        W64479  44.718  10.791   2.212
92897W        W64480  22.172   7.039  10.637
92898W        W64481  39.350  12.864   2.176
92899W        W64482  13.853  13.878  12.355
92900W        W64483  41.011   9.608   2.145
92901W        W64484  38.820  23.175  10.421
92902W        W64485  32.603  29.951   2.951
92903W        W64486  31.345   0.927   1.191
92904W        W64487   7.799  29.436  11.092
92905W        W64488  43.878  26.200  11.540
92906W        W64489  27.445   7.276  10.711
92907W        W64490  24.480  10.439   3.587
92908W        W64491  17.816  41.828   1.233
92909W        W64492   8.738  15.632  14.917
92910W        W64493   6.154   7.335  11.565
92911W        W64494  35.484  13.671  12.847
92912W        W64495  32.232   8.964   0.447
92913W        W64496  26.275   6.316   4.922
92914W        W64497  40.844  35.787  13.401
92915W        W64498  44.454  41.047  14.604
92916W        W64499  40.275  18.350  13.075
92917W        W64500   0.914   5.816   4.738
92918W        W64501   1.901  27.166  11.613
92919W        W64502  44.242  29.571  10.693
92920W        W64503  23.509   7.646  12.298
92921W        W64504   6.195  15.216  12.396
92922W        W64505  35.687  44.336  10.673
92923W        W64506  44.972   4.502   1.351
92924W        W64507  40.823  21.227   3.783
92925W        W64508   0.542  27.638   3.151
92926W        W64509   6.814  33.691   0.092
92927W        W64510  24.964   4.894  11.459
92928W        W64511  35.242  12.832   5.053
92929W        W64512   2.985  11.400  13.525
92930W        W64513   9.954  43.236  13.064
92931W        W64514  34.544   2.521   1.182
92932W        W64515  19.315  30.590   2.693
92933W        W64516  43.659  25.932   4.746
92934W        W64517  12.687  38.956  13.022
92935W        W64518   8.839   0.019   0.887
92936W        W64519   6.278  16.131  13.314
92937W        W64520  21.175   2.175   4.100
92938W        W64521  33.515  15.889   3.202
92939W        W64522  42.249  39.104   4.424
92940W        W64523  30.429   1.708   2.867
92941W        W64524  26.294  35.352   3.330
92942W        W64525  19.291  32.950   2.372
92943W        W64526   1.465  39.450   3.972
92944W        W64527   1.345  37.309  13.760
92945W        W64528  20.473  37.130  11.706
92946W        W64529  31.887   3.601  11.058
92947W        W64530  41.032  17.211  10.730
92948W        W64531  26.140   9.942   0.301
92949W        W64532  11.255  33.460   2.827
92950W        W64533  31.875  41.177  11.055
92951W        W64534  34.436   5.737   3.878
92952W        W64535  16.765  32.429  12.846
92953W        W64536   9.643  27.754   3.693
92954W        W64537  39.240  24.453  10.899
92955W        W64538  30.478  24.792  14.499
92956W        W64539  14.735  29.472  13.968
92957W        W64540  22.507  13.159   2.799
92958W        W64541  30.247  16.171  14.852
92959W        W64542  43.242  30.139   1.810
92960W        W64543   6.623  17.548  10.493
92961W        W64544   4.800  12.284   3.206
92962W        W64545   3.442  33.936   1.203
92963W        W64546  39.110  13.247  13.460
92964W        W64547  10.601  33.401  12.830
92965W        W64548   8.487  15.580  14.466
92966W        W64549  42.234  17.124   0.010
92967W        W64550  12.116   8.664  11.636
92968W        W64551  30.440  24.121  10.690
92969W        W64552  44.705  41.784  12.993
92970W        W64553  37.450   7.906  13.446
92971W        W64554  26.528  38.780   2.699
92972W        W64555   2.497  39.663   4.220
92973W        W64556   4.397  19.613  10.163
92974W        W64557  10.916  26.537  12.970
92975W        W64558  40.830  38.014   2.693
92976W        W64559  24.045  28.665  11.287
92977W        W64560  25.441  38.015  12.075
92978W        W64561  27.073  36.616   3.636
92979W        W64562   9.250  44.447  11.964
92980W        W64563  14.291   2.995   3.154
92981W        W64564  11.195   3.415  13.307
92982W        W64565  20.012   9.789   0.900
92983W        W64566  22.103  43.498  12.640
92984W        W64567   4.471  38.974   2.729
92985W        W64568  31.952   8.305   3.157
92986W        W64569  15.640  44.656   1.519
92987W        W64570  16.800  24.073   4.635
92988W        W64571  26.654  29.723  11.608
92989W        W64572  42.140   6.773   0.406
92990W        W64573  44.272  27.035  11.604
92991W        W64574   6.878  32.200  12.117
92992W        W64575  33.628   2.967   4.669
92993W        W64576  18.305  29.443   2.763
92994W        W64577  36.304  40.182  11.544
92995W        W64578  18.680   1.467  14.418
92996W        W64579  20.991  38.383   1.691
92997W        W64580  44.725  31.437  10.744
92998W        W64581  28.297  41.038  10.717
92999W        W64582  29.148  14.554  11.096
93000W        W64583  12.759  11.241  11.695
93001W        W64584  24.861  42.224  12.261
93002W        W64585  39.055  42.893  10.262
93003W        W64586  29.652  44.138  10.712
93004W        W64587  17.695  28.082  10.705
93005W        W64588  19.705  27.757   3.558
93006W        W64589   4.176  25.295  10.836
93007W        W64590  35.993  17.872   0.801
93008W        W64591  37.105   2.692   4.334
93009W        W64592  43.972  42.302  13.844
93010W        W64593  14.209  43.775  11.983
93011W        W64594  24.207  10.947  10.653
93012W        W64595  44.933  23.305   4.114
93013W        W64596  34.075  18.182   0.442
93014W        W64597   3.080  36.806  10.254
93015W        W64598   0.304  17.652  11.011
93016W        W64599  15.716  15.250  12.132
93017W        W64600  15.736  25.234  10.555
93018W        W64601  36.554  15.559  14.414
93019W        W64602  20.122  40.832  13.344
93020W        W64603  37.424   2.261   3.626
93021W        W64604  16.745  16.200  11.308
93022W        W64605  41.548  10.305   3.892
93023W        W64606  42.549  18.697   1.672
93024W        W64607  25.639  32.143  13.318
93025W        W64608  36.419   9.264   0.676
93026W        W64609  22.560  44.058   2.737
93027W        W64610  31.430  20.067  10.354
93028W        W64611  37.422  17.529   1.154
93029W        W64612  43.242  32.946   1.778
93030W        W64613  42.932  11.530  14.005
93031W        W64614   2.696  37.909   2.296
93032W        W64615  13.246   9.802  12.557
93033W        W64616  31.993  22.641   4.667
93034W        W64617   0.428   2.050  11.225
93035W        W64618  15.161  28.365   0.378
93036W        W64619   6.373  19.603  14.506
93037W        W64620  32.156   2.891   0.066
93038W        W64621   8.263  39.922  12.487
93039W        W64622  28.736  16.881   0.930
93040W        W64623  27.022  22.004   4.371
93041W        W64624  10.223  14.846  14.099
93042W        W64625  44.710  19.566   0.753
93043W        W64626   3.329  13.839   1.473
93044W        W64627  10.458  37.989   2.202
93045W        W64628  44.798  33.825  12.820
93046W        W64629  42.500   4.684  14.426
93047W        W64630   8.184  31.710  14.332
93048W        W64631  27.975  10.069  14.241
93049W        W64632  42.483   9.672  14.092
93050W        W64633  37.507  26.344  14.986
93051W        W64634   5.254   8.005   0.037
93052W        W64635  38.619  43.737  13.069
93053W        W64636  12.275   0.971   4.690
93054W        W64637  35.414  24.976  13.980
93055W        W64638  14.902  13.189   0.511
93056W        W64639  26.126  37.362  11.970
93057W        W64640   2.341  26.113  11.722
93058W        W64641  16.706  30.678   3.248
93059W        W64642  14.276  20.217  14.963
93060W        W64643  10.272  30.990  14.755
93061W        W64644  30.682  32.855   1.720
93062W        W64645  23.531  36.560  13.874
93063W        W64646  11.764  40.960   2.634
93064W        W64647  17.669  31.677   2.774
93065W        W64648  21.430   6.165  12.132
93066W        W64649  43.283  44.443  11.465
93067W        W64650   5.403   9.798   3.844
93068W        W64651  40.371  38.532  12.761
93069W        W64652   0.418   2.512   2.334
93070W        W64653  37.898   4.329   4.697
93071W        W64654   3.939  38.806  14.319
93072W        W64655  34.601  11.808   3.829
93073W        W64656   9.511  12.548  14.331
93074W        W64657  18.798   0.518  13.526
93075W        W64658   1.987  27.967   1.348
93076W        W64659   8.239  37.737   3.430
93077W        W64660   6.747  23.864   2.226
93078W        W64661   1.469  27.673  13.868
93079W        W64662  33.932  18.736   0.259
93080W        W64663  20.347   3.528   5.133
93081W        W64664  29.130  26.085   2.257
93082W        W64665   3.292   6.755  13.275
93083W        W64666   8.345  28.459  12.576
93084W        W64667  14.397  20.994  13.480
93085W        W64668  35.045  44.485   2.685
93086W        W64669  12.879  32.433   1.484
93087W        W64670  40.934  43.654  11.549
93088W        W64671  36.683   5.425   1.397
93089W        W64672  40.906  22.070   3.205
93090W        W64673  30.664  38.604   3.699
93091W        W64674  34.845   7.001   3.296
93092W        W64675   7.912  21.992  12.450
93093W        W64676  15.788  23.067  13.747
93094W        W64677  28.651  20.032  13.979
93095W        W64678  25.492  16.360  14.995
93096W        W64679  39.402  29.216   0.767
93097W        W64680  25.710   3.852   2.724
93098W        W64681   6.849  23.020   4.864
93099W        W64682  16.752  31.669   4.614
93100W        W64683  31.696  14.279  12.427
93101W        W64684   8.484  34.675   1.121
93102W        W64685  38.836  24.544   0.821
93103W        W64686  16.161  39.427   4.248
93104W        W64687  33.668  42.028  14.802
93105W        W64688  36.908  43.950  11.871
93106W        W64689  38.155  15.988  11.456
93107W        W64690   3.913  14.669  10.626
93108W        W64691  44.393  11.884   4.517
93109W        W64692  39.789  19.511  14.463
93110W        W64693   2.382   3.792  10.829
93111W        W64694  28.592  18.686  10.678
93112W        W64695   9.776  20.990   2.126
93113W        W64696  26.880   7.282   1.019
93114W        W64697   1.920   4.527   4.867
93115W        W64698   5.240  22.704  12.501
93116W        W64699   9.144  28.145   0.003
93117W        W64700   2.952   6.668   3.615
93118W        W64701   8.732   5.239   0.848
93119W        W64702   0.348  35.197  11.269
93120W        W64703  31.214   0.937  10.658
93121W        W64704  19.973  30.210  12.893
93122W        W64705  29.501  21.379   3.426
93123W        W64706  15.643  10.698  11.027
93124W        W64707  24.081  33.599   4.253
93125W        W64708  31.085  34.869   1.444
93126W        W64709   1.015  15.782   0.897
93127W        W64710  36.178  35.647  13.869
93128W        W64711   0.019   8.384   3.605
93129W        W64712  44.708  36.577  10.837
93130W        W64713  40.081   0.230  12.121
93131W        W64714   4.190   2.973   1.029
93132W        W64715  28.565  20.378   3.731
93133W        W64716  35.140  24.550   1.851
93134W        W64717  42.380  37.178  12.501
93135W        W64718  22.030  25.834   2.676
93136W        W64719  21.247  15.581  10.195
93137W        W64720  25.940  11.911  13.495
93138W        W64721  17.153  11.520  12.523
93139W        W64722  43.793  16.155  13.467
93140W        W64723   1.877   9.176  14.847
93141W        W64724  25.530  41.068   0.465
93142W        W64725  35.872  25.807   3.305
93143W        W64726  35.143  29.412   2.703
93144W        W64727  38.377  41.183  10.774
93145W        W64728  37.899   0.723  12.880
93146W        W64729  30.147  31.791   0.983
93147W        W64730  37.307  11.073   4.207
93148W        W64731  19.095   9.056  13.737
93149W        W64732  15.244  17.343  11.605
93150W        W64733  11.369  28.622  13.940
93151W        W64734  25.137  36.412  11.222
93152W        W64735  40.301  25.924   4.023
93153W        W64736  21.667   8.723  12.936
93154W        W64737  10.615   8.833   2.616
93155W        W64738   2.785  25.915  13.828
93156W        W64739  14.248  30.997  10.323
93157W        W64740  39.588  14.578   2.776
93158W        W64741  43.701  19.197   0.854
93159W        W64742  20.295  16.817   2.169
93160W        W64743  18.612  15.901  12.225
93161W        W64744  19.279   9.636   5.072
93162W        W64745   9.678  22.988   4.202
93163W        W64746   4.316  35.402   1.302
93164W        W64747  43.675   8.549  13.917
93165W        W64748  29.497  40.349   1.604
93166W        W64749  13.614  20.358   0.360
93167W        W64750   6.518   4.333   0.219
93168W        W64751  32.894  31.982  14.895
93169W        W64752   5.476  36.099  14.376
93170W        W64753  26.514  11.704   2.137
93171W        W64754  37.800  18.970   4.606
93172W        W64755  30.394  39.899  14.414
93173W        W64756  38.832  16.241  13.216
93174W        W64757  17.292  12.906  13.127
93175W        W64758  34.982   3.897  13.411
93176W        W64759  28.096  15.903   2.654
93177W        W64760  44.753   6.025   1.475
93178W        W64761  34.120  44.341   0.329
93179W        W64762  39.022  33.419  11.617
93180W        W64763  30.032  11.359   2.804
93181W        W64764  22.026  40.759   4.537
93182W        W64765  11.881  36.376  12.567
93183W        W64766  41.597  41.553  11.138
93184W        W64767  27.589  28.452  12.009
93185W        W64768   8.372  43.874  11.916
93186W        W64769  38.102  35.829   0.888
93187W        W64770   3.910   5.041  12.089
93188W        W64771  23.471  41.478  10.695
93189W        W64772   5.322  27.992   4.782
93190W        W64773   5.231  28.741   3.445
93191W        W64774  33.250   4.972   1.446
93192W        W64775  40.784  26.176   4.522
93193W        W64776  38.529   7.129   1.020
93194W        W64777  18.119   4.757   4.787
93195W        W64778  33.816   9.307  12.287
93196W        W64779  31.022  15.490   4.677
93197W        W64780  30.883  33.668  14.978
93198W        W64781  38.736  18.403  13.519
93199W        W64782  19.266  20.781  14.603
93200W        W64783  11.351   9.817   3.310
93201W        W64784   0.799  26.593  12.377
93202W        W64785  18.019  23.253   1.653
93203W        W64786  29.949  15.510   2.201
93204W        W64787  43.349  41.811  12.399
93205W        W64788  28.375  26.160  11.790
93206W        W64789  44.221   4.359  11.968
93207W        W64790  40.293   3.869   3.176
93208W        W64791   5.435   1.310  11.402
93209W        W64792   7.425   1.281  14.941
93210W        W64793  21.170   5.208   2.680
93211W        W64794  23.712   4.221  12.060
93212W        W64795  34.868  16.355  12.468
93213W        W64796  13.479  25.331  11.514
93214W        W64797  10.779  32.651  14.989
93215W        W64798  17.464  25.658  12.436
93216W        W64799  42.527  13.899  10.687
93217W        W64800  30.463  15.166   3.347
93218W        W64801  30.126  17.367  10.676
93219W        W64802  44.991  10.359  11.098
93220W        W64803  30.617  34.421  12.924
93221W        W64804  33.023  28.915   3.140
93222W        W64805  32.958  36.030   4.697
93223W        W64806  29.135  30.955  14.289
93224W        W64807  34.204  38.544  13.349
93225W        W64808  45.000  27.899   0.442
93226W        W64809  13.196  17.457   0.983
93227W        W64810  24.603  42.382   4.136
93228W        W64811  35.840  28.398   1.274
93229W        W64812  35.977   1.797   1.394
93230W        W64813  30.745  19.815   0.561
93231W        W64814  27.136   5.088   2.506
93232W        W64815  38.854   1.333   3.740
93233W        W64816  42.700  14.174  12.357
93234W        W64817  22.245   4.267   4.340
93235W        W64818  44.423   2.773  11.426
93236W        W64819  19.669  27.427   2.722
93237W        W64820  39.131  44.405  11.744
93238W        W64821  23.598  37.810   4.581
93239W        W64822  37.906   1.852  12.342
93240W        W64823  33.774  38.109   3.147
93241W        W64824   0.879  12.780   2.108
93242W        W64825  31.882   4.867  13.785
93243W        W64826  35.849  10.837  12.258
93244W        W64827  10.600  31.074  13.306
93245W        W64828   1.487  37.409  10.503
93246W        W64829   3.786  16.634  12.625
93247W        W64830   0.815  21.586  13.079
93248W        W64831  36.860  39.252  11.568
93249W        W64832  23.188   9.763   3.057
93250W        W64833  14.249   2.411   3.860
93251W        W64834  10.108  10.912  13.380
93252W        W64835  44.080  10.383   4.171
93253W        W64836  41.307  31.054   4.602
93254W        W64837  16.312  19.740  13.386
93255W        W64838  18.021  41.725   0.773
93256W        W64839   3.666  34.345   2.778
93257W        W64840   1.377  37.554   5.020
93258W        W64841  20.664  23.347  14.298
93259W        W64842  31.327  17.833   3.737
93260W        W64843  13.609  19.335   1.671
93261W        W64844  15.611  21.525  12.111
93262W        W64845  31.999  18.009   1.399
93263W        W64846  14.255  29.638  11.637
93264W        W64847  11.672   0.779  14.655
93265W        W64848  38.591  29.402  14.270
93266W        W64849  10.607  27.984   1.898
93267W        W64850  39.575   5.305  10.215
93268W        W64851  36.129  39.943   3.327
93269W        W64852  40.958  41.208   1.416
93270W        W64853  42.960  19.668   3.223
93271W        W64854  38.000  38.135  13.838
93272W        W64855  33.633   9.303   3.660
93273W        W64856  40.615  38.024  11.438
93274W        W64857   4.259  44.460  10.621
93275W        W64858   9.709  40.396  12.779
93276W        W64859  39.083   6.184   1.885
93277W        W64860  29.389  31.557  14.172
93278W        W64861  42.044  18.492  13.026
93279W        W64862  30.535  33.182   3.170
93280W        W64863  20.285  28.429   3.394
93281W        W64864  40.312  37.261   4.614
93282W        W64865  20.688  16.844  12.327
93283W        W64866   9.286   9.321   0.818
93284W        W64867  32.685  32.452   3.701
93285W        W64868  34.543   5.436   2.880
93286W        W64869  23.490  31.691  13.041
93287W        W64870  25.854   6.386  11.124
93288W        W64871   3.990  36.349   0.316
93289W        W64872   2.216   5.562   4.759
93290W        W64873   5.380  25.441   0.812
93291W        W64874  24.898  35.172  12.418
93292W        W64875  17.264  23.633   2.620
93293W        W64876  38.075  40.520  11.949
93294W        W64877  22.261  44.101  14.826
93295W        W64878  33.518   5.562   2.392
93296W        W64879   1.682   1.263   4.173
93297W        W64880  39.465  37.472  10.258
93298W        W64881   6.368   7.378  12.080
93299W        W64882   9.024   7.782  14.870
93300W        W64883  38.552   9.702  12.155
93301W        W64884  40.346  35.249   1.083
93302W        W64885  38.522  24.881  12.542
93303W        W64886  19.029  40.056   0.985
93304W        W64887  40.743   4.753  12.952
93305W        W64888  27.462  41.294  13.917
93306W        W64889  12.817  35.983  10.539
93307W        W64890  41.594  25.588   0.812
93308W        W64891   8.753  26.642   4.179
93309W        W64892   4.309  32.116   0.309
93310W        W64893  25.677   4.510   3.736
93311W        W64894  25.235  24.661   3.730
93312W        W64895   2.622  36.610  10.125
93313W        W64896  13.568  39.456   2.295
93314W        W64897  25.281  25.162   0.173
93315W        W64898  25.212  20.535   2.807
93316W        W64899  21.513   6.390  11.606
93317W        W64900  36.970  40.329  14.475
93318W        W64901   3.740   3.349  13.108
93319W        W64902  29.772  41.886   1.243
93320W        W64903  42.439  16.200  10.569
93321W        W64904   6.741  41.564   1.134
93322W        W64905  35.407  42.894   3.634
93323W        W64906   7.343  38.669  11.140
93324W        W64907  39.218  29.733   5.009
93325W        W64908   9.071  16.193  10.430
93326W        W64909  36.811   8.583   1.350
93327W        W64910  22.075  34.860   3.626
93328W        W64911  12.220   6.341   1.631
93329W        W64912  19.982  37.265   1.391
93330W        W64913  29.886  36.550   4.097
93331W        W64914  15.358  31.202   1.544
93332W        W64915  13.638  36.589   1.364
93333W        W64916  34.142  33.106   3.705
93334W        W64917  20.067  14.410   3.756
93335W        W64918  37.374  24.509  13.837
93336W        W64919  24.403  37.482  11.141
93337W        W64920  28.363  35.250   5.179
93338W        W64921   7.044  36.287  10.785
93339W        W64922  36.953  20.761   1.466
93340W        W64923   7.903  22.989   0.883
93341W        W64924  12.247   1.893  14.942
93342W        W64925  15.938   0.016  14.947
93343W        W64926  28.410  36.781  13.730
93344W        W64927   0.411  11.953  11.715
93345W        W64928  17.565   1.871  14.050
93346W        W64929  44.321  34.945  14.986
93347W        W64930  24.685  43.044  11.056
93348W        W64931   5.777  10.408  10.488
93349W        W64932   2.481  18.049   3.387
93350W        W64933  39.589  13.222  12.069
93351W        W64934  43.492  39.274  14.498
93352W        W64935  42.955  16.017  10.598
93353W        W64936  20.686   0.568   4.185
93354W        W64937  35.993  40.158   4.110
93355W        W64938  21.354   1.079  14.796
93356W        W64939  28.122  40.584  14.022
93357W        W64940   2.779  43.445   3.396
93358W        W64941  18.837  26.920  13.284
93359W        W64942  44.413  18.480   2.396
93360W        W64943  34.796  33.718   4.628
93361W        W64944  18.682   9.420   1.951
93362W        W64945  23.551   3.033   3.365
93363W        W64946  21.561   5.277   2.174
93364W        W64947  35.094  20.266   2.749
93365W        W64948  39.375   2.987   3.426
93366W        W64949  34.156  14.459  10.741
93367W        W64950  32.289  14.220   3.107
93368W        W64951  11.081  31.431  13.006
93369W        W64952  18.423   4.349   0.182
93370W        W64953  37.548  22.997  11.164
93371W        W64954  30.571  19.805   4.096
93372W        W64955  32.629   1.722   3.197
93373W        W64956  42.883  21.575   4.362
93374W        W64957  23.256   5.282   1.313
93375W        W64958  18.672  38.611  13.705
93376W        W64959  39.917   3.222  13.186
93377W        W64960   5.236   6.375  11.128
93378W        W64961  25.609  32.307  12.456
93379W        W64962  36.796  26.399  12.956
93380W        W64963   6.275  17.911  10.352
93381W        W64964  38.371  22.959  10.703
93382W        W64965  33.967  44.295  11.100
93383W        W64966  20.266  26.826  12.486
93384W        W64967  37.225  41.062   1.492
93385W        W64968  20.783  12.239   0.381
93386W        W64969  34.879   0.376  10.130
93387W        W64970  10.741  25.048   1.129
93388W        W64971   7.278  26.972  13.815
93389W        W64972  31.032  38.581  12.381
93390W        W64973  37.813  35.032  10.470
93391W        W64974  21.077  14.739   4.612
93392W        W64975   5.741  13.081   4.841
93393W        W64976   7.173  34.150  13.361
93394W        W64977  43.341   2.518  13.288
93395W        W64978  16.348  12.560  14.217
93396W        W64979  24.582   8.064  10.457
93397W        W64980  29.600  23.677  14.812
93398W        W64981   2.044  34.915   1.026
93399W        W64982   1.085  42.396  12.959
93400W        W64983   4.942  20.123   1.445
93401W        W64984  20.093  18.156  10.447
93402W        W64985  14.047  27.049   3.970
93403W        W64986  13.821  18.262   4.260
93404W        W64987  20.483  20.108   2.055
93405W        W64988   7.992  13.414  11.230
93406W        W64989   5.201  41.059   4.461
93407W        W64990  35.860  19.140  14.502
93408W        W64991  17.104  38.513  10.711
93409W        W64992  27.249   4.390  13.113
93410W        W64993  14.963  33.958  13.898
93411W        W64994  28.308  43.250  12.968
93412W        W64995  17.841  21.460  11.580
93413W        W64996  44.389  24.896   1.294
93414W        W64997  36.143   9.226   2.596
93415W        W64998  34.910   0.785   0.885
93416W        W64999  24.958  36.410   0.953
93417W        W65000  41.860  41.584  13.640
93418W        W65001  32.614  40.371  13.565
93419W        W65002  37.647  14.543   4.706
93420W        W65003  24.781  18.056   0.749
93421W        W65004  28.975  34.110   4.603
93422W        W65005  29.160  38.439  13.347
93423W        W65006  41.002   5.792   4.591
93424W        W65007  35.556  37.975   4.426
93425W        W65008  31.919   5.259   4.158
93426W        W65009  11.387  31.965  13.874
93427W        W65010  38.547  25.722   2.817
93428W        W65011  13.138  19.249   1.848
93429W        W65012  36.666  17.905  12.998
93430W        W65013  12.074  21.488  13.965
93431W        W65014  23.737  38.870   3.388
93432W        W65015   9.427   0.924   1.676
93433W        W65016  23.263  21.577   4.096
93434W        W65017  10.272  15.395   4.048
93435W        W65018  18.630  17.688  14.475
93436W        W65019  13.350  44.647   4.658
93437W        W65020  40.291  39.142   5.007
93438W        W65021  38.876  26.258  11.575
93439W        W65022  41.367   3.184  11.387
93440W        W65023  21.009   6.059  14.717
93441W        W65024  11.116  27.452   4.947
93442W        W65025  28.443  38.585  14.236
93443W        W65026  41.211   4.325   0.302
93444W        W65027   0.166  38.537   0.756
93445W        W65028  19.566   6.666  12.069
93446W        W65029  20.123  40.546  10.608
93447W        W65030  12.163  19.485   0.807
93448W        W65031  23.884   2.267   1.284
93449W        W65032  36.960  24.654  10.474
93450W        W65033  29.036  41.452   4.085
93451W        W65034   2.314   7.884   0.803
93452W        W65035  13.169  31.549   1.947
93453W        W65036  16.598  34.097   1.518
93454W        W65037  11.042  13.956  12.869
93455W        W65038  40.045  23.630   1.271
93456W        W65039  37.824  36.919   0.970
93457W        W65040  20.728  10.781   3.582
93458W        W65041  29.520  20.515   0.069
93459W        W65042  32.046  15.288  12.017
93460W        W65043  18.242  41.816   1.852
93461W        W65044  16.511  10.185  11.155
93462W        W65045   4.289  20.356   1.928
93463W        W65046   2.188  34.387  10.735
93464W        W65047  16.253  19.071   4.051
93465W        W65048  23.935  29.135  14.416
93466W        W65049  20.515  40.882  12.012
93467W        W65050  41.165  19.828   2.646
93468W        W65051  15.791  20.596  11.128
93469W        W65052  43.033  41.687  13.298
93470W        W65053  15.537  23.575   2.683
93471W        W65054  16.015  17.604  13.252
93472W        W65055  31.640  35.991   0.868
93473W        W65056  35.677  33.795   0.224
93474W        W65057  17.556  16.695   0.072
93475W        W65058   3.829  14.098  11.999
93476W        W65059  28.844  38.782  14.556
93477W        W65060  11.814  35.227   4.286
93478W        W65061  22.606  36.061  10.267
93479W        W65062  26.105  33.294  14.388
93480W        W65063  31.436  10.336  12.268
93481W        W65064  35.891  32.609   3.793
93482W        W65065  20.819  29.624  11.120
93483W        W65066  39.309  26.002   2.434
93484W        W65067  30.668  23.284   3.286
93485W        W65068  33.328  23.175  12.576
93486W        W65069  44.355  15.783   1.207
93487W        W65070  22.218   8.227  14.386
93488W        W65071  21.259  28.538   5.260
93489W        W65072  15.016   3.418  13.921
93490W        W65073  24.365  25.575  10.818
93491W        W65074  12.258  30.661  12.983
93492W        W65075  34.107  42.924  12.118
93493W        W65076   3.952  23.099   1.751
93494W        W65077  15.347   7.615   3.281
93495W        W65078  28.080  22.850   1.660
93496W        W65079  31.133  39.083   0.393
93497W        W65080   6.485  23.675  10.850
93498W        W65081  37.285  44.865  12.141
93499W        W65082  43.028  19.668  11.965
93500W        W65083  41.310  13.782   0.477
93501W        W65084   9.324  40.400  12.395
93502W        W65085  41.954  14.617   2.932
93503W        W65086  32.488   8.363  13.108
93504W        W65087  34.016   4.443   3.681
93505W        W65088  24.967  36.299   3.363
93506W        W65089   1.554   0.874  10.803
93507W        W65090  37.086  30.183  14.355
93508W        W65091  26.836  22.532   0.342
93509W        W65092   7.859  33.616  13.119
93510W        W65093  21.218  10.472   2.954
93511W        W65094  10.897  14.735  11.582
93512W        W65095  11.439  30.063   0.439
93513W        W65096  34.815  35.578   4.626
93514W        W65097  20.539  27.153  10.779
93515W        W65098  31.274   3.617  13.943
93516W        W65099  38.857  15.650  11.908
93517W        W65100  38.991  28.622  13.240
93518W        W65101   4.348   1.266  13.813
93519W        W65102  37.316   4.213  11.131
93520W        W65103  15.358  36.406   1.771
93521W        W65104  21.328  35.854  12.511
93522W        W65105  14.917  20.521   0.670
93523W        W65106   9.609  42.916   0.769
93524W        W65107  35.683  12.644  10.818
93525W        W65108   9.861  30.713   3.810
93526W        W65109  21.111  33.993  11.245
93527W        W65110  23.959  43.048  14.553
93528W        W65111  41.949  12.317   1.371
93529W        W65112  13.090  13.378  12.213
93530W        W65113  30.375  13.624   0.312
93531W        W65114   5.951  10.697   3.755
93532W        W65115   8.630  17.984   2.925
93533W        W65116  15.752   2.381  11.648
93534W        W65117   6.685   8.751   2.338
93535W        W65118  18.411  26.280  12.007
93536W        W65119  39.054  15.212  12.081
93537W        W65120  30.483  20.905  10.967
93538W        W65121  32.539  11.750  14.015
93539W        W65122  30.600   0.963  14.824
93540W        W65123   1.891  37.125   2.333
93541W        W65124  14.713  15.886   0.436
93542W        W65125  10.839  36.903  10.749
93543W        W65126  44.014  35.907   2.187
93544W        W65127   7.314  44.218  14.007
93545W        W65128  24.649  40.291   2.248
93546W        W65129  14.565  36.610  10.854
93547W        W65130  38.467   0.340   2.943
93548W        W65131  15.896  32.040  13.961
93549W        W65132  44.985  23.734  11.609
93550W        W65133   3.948  33.506   4.513
93551W        W65134  12.823  13.384  12.678
93552W        W65135  15.678  17.390  14.267
93553W        W65136   7.285  33.414   5.104
93554W        W65137   1.889  37.803   1.075
93555W        W65138  31.594   0.538  12.960
93556W        W65139  42.718  16.217  14.955
93557W        W65140  30.976  19.694   1.557
93558W        W65141  26.985  14.669   1.263
93559W        W65142  37.369  23.784  13.316
93560W        W65143  37.827  32.511   3.811
93561W        W65144  22.667  32.641  14.268
93562W        W65145  37.885  21.615  13.793
93563W        W65146  35.413   9.948   1.679
93564W        W65147  24.865  21.348  13.854
93565W        W65148  33.568  43.973  11.084
93566W        W65149   0.678   7.505  13.861
93567W        W65150  31.885  34.465  12.453
93568W        W65151  21.974  17.636   5.075
93569W        W65152  39.963  33.545  13.810
93570W        W65153  19.054  38.579   0.722
93571W        W65154  43.259  11.890   4.084
93572W        W65155  11.304  41.961  13.903
93573W        W65156  28.452  17.036   4.308
93574W        W65157  31.384  26.259  12.094
93575W        W65158  28.103   1.285   1.035
93576W        W65159  28.083  43.924   4.711
93577W        W65160   6.652  34.153   4.722
93578W        W65161  13.651  16.702  10.746
93579W        W65162  15.801  43.155  12.133
93580W        W65163  24.368  15.356  11.234
93581W        W65164  28.892  28.215   1.196
93582W        W65165  13.370  16.059  13.626
93583W        W65166  16.580   6.612   4.161
93584W        W65167   2.911  12.681  11.994
93585W        W65168   2.345  29.443  12.460
93586W        W65169  33.346  20.141  14.906
93587W        W65170   0.376  40.682  14.262
93588W        W65171  28.119  31.812  12.954
93589W        W65172   3.545  36.787  12.428
93590W        W65173  43.913  21.711   1.390
93591W        W65174  16.897   0.407  11.584
93592W        W65175  25.703  15.604   1.273
93593W        W65176  14.791  15.850   0.967
93594W        W65177   0.314  39.499   1.458
93595W        W65178  13.165  10.593   0.887
93596W        W65179   6.167   1.975   4.143
93597W        W65180   3.305  21.952   3.131
93598W        W65181  10.295  29.991   3.930
93599W        W65182  32.523  30.435   2.368
93600W        W65183  37.474   5.166   4.319
93601W        W65184  37.065  40.522  11.247
93602W        W65185  38.307  42.778  10.969
93603W        W65186   2.372  39.717   0.644
93604W        W65187   7.681   0.634  10.546
93605W        W65188  10.409  24.736   0.844
93606W        W65189  27.112  33.621  10.641
93607W        W65190   2.879  42.581   2.866
93608W        W65191  32.154  21.596  10.611
93609W        W65192   4.821   7.429   3.768
93610W        W65193   5.360  23.243  13.857
93611W        W65194  23.105  17.481   2.334
93612W        W65195  41.887   3.144  11.291
93613W        W65196  31.904   6.795  11.055
93614W        W65197  29.641  41.390   0.496
93615W        W65198  23.281  40.125   1.309
93616W        W65199   2.038   9.492   2.381
93617W        W65200  26.292  38.448  14.230
93618W        W65201  15.026  16.622   1.395
93619W        W65202  10.097  31.858   9.879
93620W        W65203  29.472  23.759  10.767
93621W        W65204   4.699  34.816   4.475
93622W        W65205  43.068  19.157   3.129
93623W        W65206  23.038  28.741   4.143
93624W        W65207  31.214   2.821   2.672
93625W        W65208   1.816   5.782   3.637
93626W        W65209  34.686  30.596   1.975
93627W        W65210  32.944   3.747   3.231
93628W        W65211   5.313  37.893  14.935
93629W        W65212  29.248   3.295   3.642
93630W        W65213   2.237  13.706  11.536
93631W        W65214   3.901  25.578  13.910
93632W        W65215  24.251   7.353  12.662
93633W        W65216  10.081  26.418   4.607
93634W        W65217   8.567  23.490   3.260
93635W        W65218  22.631   2.639   4.209
93636W        W65219  17.349   0.390  12.609
93637W        W65220  17.609  24.389  12.971
93638W        W65221  43.714  17.685   3.200
93639W        W65222  27.027  43.778   3.845
93640W        W65223  15.875  18.742   4.707
93641W        W65224   6.851  38.314  11.870
93642W        W65225  20.235  15.789   1.890
93643W        W65226  17.616  42.445   1.804
93644W        W65227   2.926  28.695  14.871
93645W        W65228   9.177  39.640   3.123
93646W        W65229  40.367  21.453   3.923
93647W        W65230  11.306  13.691   4.624
93648W        W65231  19.115  43.411  10.507
93649W        W65232  18.350  12.606   2.215
93650W        W65233  19.224  28.883  11.265
93651W        W65234  12.700   5.229  13.339
93652W        W65235  18.724  10.642  13.087
93653W        W65236  33.136  44.233  13.564
93654W        W65237  31.559  22.033  11.050
93655W        W65238  24.471  41.090   1.925
93656W        W65239  33.789  42.985   2.887
93657W        W65240  38.974   2.890   4.668
93658W        W65241  44.356  41.042  12.852
93659W        W65242  19.945   6.349   2.248
93660W        W65243  21.508  23.752  10.360
93661W        W65244  29.229  15.283  14.565
93662W        W65245  12.760   8.762  14.973
93663W        W65246   5.916  23.510  13.003
93664W        W65247  37.505  29.436  14.836
93665W        W65248  29.440  27.226   1.821
93666W        W65249  43.828  41.107   3.637
93667W        W65250  16.963  24.291  13.330
93668W        W65251  12.948  14.325   0.669
93669W        W65252  36.444   5.842  10.469
93670W        W65253  32.191  31.108  12.379
93671W        W65254  36.463  43.263  11.456
93672W        W65255  33.298   5.463   1.281
93673W        W65256  32.122  22.139   2.857
93674W        W65257  38.978   8.563   1.234
93675W        W65258  35.976  23.760  10.693
93676W        W65259   0.903  44.869  11.758
93677W        W65260  36.555  27.696   2.019
93678W        W65261  10.110  30.120   0.801
93679W        W65262  15.077   2.753  11.083
93680W        W65263  33.406  40.905  13.995
93681W        W65264  11.362  14.748   0.442
93682W        W65265  37.026   5.983   1.861
93683W        W65266  17.114  37.720  13.220
93684W        W65267  23.071   1.486   0.437
93685W        W65268  12.290  20.282   0.376
93686W        W65269  44.480  16.530   2.374
93687W        W65270  30.584  33.612  11.125
93688W        W65271  15.046  41.142   3.269
93689W        W65272  13.668  20.703   1.195
93690W        W65273  33.779  41.334   3.448
93691W        W65274  19.038  25.541  10.327
93692W        W65275   5.375  36.104  11.202
93693W        W65276  43.341   7.859   4.346
93694W        W65277   7.136  24.423  14.523
93695W        W65278  31.082   4.814  11.525
93696W        W65279  35.923  43.402   0.794
93697W        W65280   5.658  39.282   0.658
93698W        W65281  10.577   0.492   0.907
93699W        W65282  14.607   2.804   0.495
93700W        W65283   7.787  14.460  14.033
93701W        W65284  13.696   2.837  13.892
93702W        W65285  20.101  40.970  14.789
93703W        W65286  23.441   0.274  13.834
93704W        W65287  24.602  12.082   1.143
93705W        W65288   8.557  30.711  11.025
93706W        W65289  34.893  41.497  14.011
93707W        W65290  11.230  40.335  11.179
93708W        W65291  27.575  11.842   3.566
93709W        W65292   9.834   5.668   0.050
93710W        W65293  15.148  22.379   0.075
93711W        W65294  25.363  17.416  11.639
93712W        W65295  43.508  10.352   0.876
93713W        W65296  31.624   3.994   3.322
93714W        W65297  25.034  23.267  12.883
93715W        W65298  24.712  39.565   0.232
93716W        W65299  32.378  39.078  10.098
93717W        W65300  42.059  21.738  13.979
93718W        W65301  25.481  35.399  14.344
93719W        W65302  44.974   5.327   4.186
93720W        W65303  37.451  14.530   3.360
93721W        W65304   1.199  18.817  14.240
93722W        W65305  39.479   7.279   2.866
93723W        W65306  24.057   6.212   1.807
93724W        W65307  25.515  30.035  13.100
93725W        W65308  36.559  43.785  13.919
93726W        W65309  41.349  30.458   0.071
93727W        W65310  29.832   3.332  11.664
93728W        W65311   3.480  11.436   1.288
93729W        W65312  33.828  32.074   4.609
93730W        W65313  31.263   3.241  12.634
93731W        W65314  16.055   6.833   2.854
93732W        W65315  20.785  22.924  11.167
93733W        W65316  15.628  36.104   3.797
93734W        W65317  14.661  14.614   3.296
93735W        W65318  18.485  29.032  12.373
93736W        W65319  13.685   4.056   0.788
93737W        W65320  20.144  38.944   1.979
93738W        W65321  41.854  40.089   0.985
93739W        W65322  18.762  26.251   4.530
93740W        W65323  18.511  28.242  11.664
93741W        W65324  43.725  36.881  14.919
93742W        W65325  17.277  15.378   0.422
93743W        W65326  37.736  27.534   4.654
93744W        W65327  20.722   4.201   3.864
93745W        W65328   5.879  26.067   3.132
93746W        W65329  16.477  35.835   5.006
93747W        W65330   6.222   2.722  13.090
93748W        W65331  28.964  32.146   1.665
93749W        W65332   2.775  34.851   3.717
93750W        W65333  12.221  10.722   4.592
93751W        W65334   9.865  29.520   2.378
93752W        W65335  36.851   9.612   4.179
93753W        W65336   6.747  20.630   3.517
93754W        W65337  29.986  29.568   1.774
93755W        W65338  36.297  26.804   2.252
93756W        W65339  42.944  16.325  11.439
93757W        W65340  40.502   0.453  11.682
93758W        W65341  43.414  21.712   2.064
93759W        W65342  26.768  16.795  12.030
93760W        W65343  15.582  30.923   2.905
93761W        W65344  10.115  16.399   1.423
93762W        W65345   3.782   8.831   4.634
93763W        W65346  32.058   2.812   2.081
93764W        W65347  25.143   2.885   2.780
93765W        W65348   9.185   3.476   0.817
93766W        W65349  40.079   2.196  12.031
93767W        W65350  30.299  13.804  11.765
93768W        W65351   4.968  38.514   2.460
93769W        W65352  13.325  35.417   4.225
93770W        W65353   4.133  43.967   4.924
93771W        W65354  25.185  12.250   5.053
93772W        W65355  32.623  19.862   9.698
93773W        W65356  44.778  35.174  13.971
93774W        W65357  29.081  17.166  12.945
93775W        W65358  19.061  33.752  14.102
93776W        W65359  28.956   3.309   2.758
93777W        W65360  24.110  40.063  12.523
93778W        W65361  25.470  20.185   1.251
93779W        W65362  34.403   5.674  11.649
93780W        W65363  26.986   6.757   1.835
93781W        W65364  34.757  21.692   4.072
93782W        W65365  28.960  28.591  12.525
93783W        W65366   4.673  43.942  11.274
93784W        W65367  30.041  44.823  13.658
93785W        W65368  29.398  30.597   2.458
93786W        W65369  38.911  37.659  14.718
93787W        W65370  36.786   9.657   0.637
93788W        W65371   4.790  21.108   2.440
93789W        W65372  18.602  41.002  13.513
93790W        W65373  22.467  11.295  14.209
93791W        W65374  20.054   3.817   3.327
93792W        W65375  36.362  28.080   0.774
93793W        W65376  39.624  19.598   2.636
93794W        W65377  37.997  39.086   4.232
93795W        W65378  11.262  44.444   2.351
93796W        W65379  40.774  22.226   0.886
93797W        W65380   0.763   2.194   3.649
93798W        W65381  23.661  34.355  11.159
93799W        W65382  32.151   0.849   2.640
93800W        W65383   1.329  20.127   2.621
93801W        W65384  20.116  20.754  13.424
93802W        W65385  11.755  39.023  12.642
93803W        W65386   1.192  40.375  14.419
93804W        W65387  20.676   2.693   3.650
93805W        W65388  14.298   5.089   1.407
93806W        W65389  27.159  14.752  12.977
93807W        W65390   5.104   5.050   2.698
93808W        W65391  14.875  13.116  11.679
93809W        W65392  32.741  34.588  10.992
93810W        W65393  28.071  21.502  14.361
93811W        W65394  27.130   3.893   4.498
93812W        W65395  19.966  25.519   1.407
93813W        W65396   0.370  19.529   1.373
93814W        W65397   0.003  18.634   4.769
93815W        W65398  42.380   8.981   3.628
93816W        W65399  29.146   4.941   2.108
93817W        W65400   8.931  34.549  13.501
93818W        W65401  44.946  21.991   3.569
93819W        W65402   6.787   2.938  13.765
93820W        W65403   7.400  22.995   0.063
93821W        W65404  44.937  22.527  13.807
93822W        W65405  25.582  22.098   4.585
93823W        W65406  44.769  43.858  13.558
93824W        W65407   9.325  22.502   0.288
93825W        W65408  29.564  41.939   1.706
93826W        W65409   1.896   9.777  12.620
93827W        W65410  28.853  23.117   3.685
93828W        W65411  21.678   1.243   2.762
93829W        W65412  41.247  17.429  14.250
93830W        W65413  36.406   3.234  14.885
93831W        W65414  14.218  19.359  14.249
93832W        W65415   2.720  19.277   1.183
93833W        W65416  25.428  35.542  13.014
93834W        W65417  27.631  16.495   3.976
93835W        W65418  32.857  41.847   2.363
93836W        W65419  17.284  40.378   1.236
93837W        W65420  14.013  32.371   4.089
93838W        W65421  11.308  36.655  14.055
93839W        W65422  24.472  20.232   2.239
93840W        W65423  37.626  13.328   1.694
93841W        W65424  40.087  15.592  10.745
93842W        W65425  20.781   7.702  13.408
93843W        W65426  42.993  33.668  14.996
93844W        W65427   1.407  44.985   1.926
93845W        W65428  12.379  15.226  10.653
93846W        W65429  36.974  26.166  13.812
93847W        W65430  25.479  11.385  10.290
93848W        W65431   7.697  37.521  10.828
93849W        W65432  32.691   9.669  13.975
93850W        W65433  35.877  36.385   2.129
93851W        W65434   0.243  15.168  11.141
93852W        W65435  18.324   2.367  14.408
93853W        W65436  20.524  10.984  13.175
93854W        W65437  34.650   0.805  13.677
93855W        W65438   1.686   2.417  12.837
93856W        W65439   1.244  18.266  12.114
93857W        W65440  43.002  40.031   3.188
93858W        W65441   3.715   6.819   0.722
93859W        W65442  22.110  13.689  10.581
93860W        W65443   8.907  14.622   1.915
93861W        W65444   0.802  32.868   0.477
93862W        W65445   5.798  36.627   3.852
93863W        W65446  29.109  32.876   0.508
93864W        W65447  33.600  10.630   4.325
93865W        W65448  17.794  42.967   4.558
93866W        W65449  38.049  37.623  13.836
93867W        W65450  29.259   8.836   0.309
93868W        W65451  21.104  30.424  12.060
93869W        W65452  11.165   3.694   3.153
93870W        W65453  29.176  17.041   3.581
93871W        W65454  16.621  27.794  12.155
93872W        W65455   8.306   8.411   3.916
93873W        W65456  43.025  33.969   1.525
93874W        W65457   1.677  42.448  11.514
93875W        W65458  37.600  29.067  11.148
93876W        W65459  26.708  32.116   3.227
93877W        W65460  32.953   6.659  13.036
93878W        W65461  28.422  21.570  11.525
93879W        W65462   2.608  17.855  11.106
93880W        W65463  22.832   2.039  11.547
93881W        W65464  31.178  15.333  14.378
93882W        W65465  17.149  37.209  13.271
93883W        W65466  22.596   3.240   0.814
93884W        W65467  23.896   5.888   4.549
93885W        W65468   3.302  10.636   1.844
93886W        W65469  31.610   5.676   3.500
93887W        W65470  35.403   5.149  13.374
93888W        W65471  42.861  40.262  11.096
93889W        W65472   9.303   9.537   2.844
93890W        W65473  39.830  40.796  11.542
93891W        W65474  30.077  24.616   4.633
93892W        W65475  10.218  20.287  13.491
93893W        W65476  41.578  38.421  13.231
93894W        W65477  43.706  17.675  14.462
93895W        W65478  43.108  32.205   1.861
93896W        W65479  10.201  25.211   1.724
93897W        W65480  13.860  30.219   3.785
93898W        W65481  35.392   1.786  10.681
93899W        W65482  34.854  23.240   2.590
93900W        W65483  24.000  44.796  11.083
93901W        W65484  21.867   8.470   1.281
93902W        W65485  39.248  40.761  12.680
93903W        W65486  10.632   9.144  10.858
93904W        W65487   5.249   3.410  12.469
93905W        W65488  19.641  26.811   3.392
93906W        W65489  24.649  20.583  14.780
93907W        W65490  11.938  40.935   4.687
93908W        W65491  29.357  43.371   1.832
93909W        W65492  40.487  24.815   5.050
93910W        W65493  23.603  30.419   3.140
93911W        W65494  21.077  38.867   0.825
93912W        W65495  42.872   2.303  11.629
93913W        W65496   1.767  37.645  11.007
93914W        W65497  44.687  25.109   2.106
93915W        W65498   1.927  25.680   4.276
93916W        W65499  42.207  28.619  11.754
93917W        W65500  10.387  43.364  11.641
93918W        W65501  40.245  24.101   2.572
93919W        W65502   0.767  43.922   1.407
93920W        W65503  21.265  12.620   1.143
93921W        W65504  27.892  35.138  11.484
93922W        W65505  18.625  28.911  11.076
93923W        W65506  14.744  41.358   4.640
93924W        W65507  22.076  21.813   0.838
93925W        W65508  37.754  26.027   3.698
93926W        W65509  13.779  22.030  11.426
93927W        W65510  15.480  40.072  13.481
93928W        W65511   5.760  37.206  10.549
93929W        W65512  23.707  10.768   0.188
93930W        W65513  29.025   3.968   0.120
93931W        W65514  15.339  20.163   1.862
93932W        W65515  16.060   7.224   2.216
93933W        W65516  25.227   5.973   3.250
93934W        W65517   0.448  34.132   1.911
93935W        W65518   2.824  39.266   4.252
93936W        W65519  16.641   1.755  14.281
93937W        W65520   0.267  19.960  14.363
93938W        W65521  19.584  29.411  10.622
93939W        W65522  28.534  12.768  11.557
93940W        W65523  35.054  33.638   3.741
93941W        W65524  39.834  21.067  14.788
93942W        W65525  32.135  29.602  13.449
93943W        W65526  26.127  37.617   0.409
93944W        W65527   3.348  37.856  14.953
93945W        W65528  28.533  13.717  10.675
93946W        W65529  42.339  11.117  12.964
93947W        W65530  13.126   6.346   1.889
93948W        W65531  43.185  12.788   3.254
93949W        W65532  11.329  18.390   2.754
93950W        W65533  21.628   0.289   3.308
93951W        W65534  31.521  18.307  10.953
93952W        W65535  36.438  13.224   1.356
93953W        W65536   0.365  37.660  11.598
93954W        W65537  29.582   0.988  10.531
93955W        W65538  36.654  22.541  11.419
93956W        W65539   6.627   2.271   4.138
93957W        W65540   5.368  28.063  13.676
93958W        W65541  21.497  32.667  12.193
93959W        W65542   2.376  30.132   0.744
93960W        W65543   6.788  33.046  14.444
93961W        W65544  25.058  11.785  13.539
93962W        W65545  12.171   7.195   2.219
93963W        W65546  28.118  41.495   0.303
93964W        W65547  41.592  29.665  13.364
93965W        W65548   6.881  10.806   3.081
93966W        W65549   2.863  27.233   2.467
93967W        W65550  13.274  40.598  11.311
93968W        W65551  32.492  39.820  10.467
93969W        W65552   2.696   3.341  11.566
93970W        W65553  20.053  27.755  10.748
93971W        W65554   8.388  38.096   0.517
93972W        W65555  39.431  40.066   0.274
93973W        W65556  43.340  13.181   1.654
93974W        W65557  30.169  27.529   4.905
93975W        W65558  27.192  42.397   3.878
93976W        W65559  29.639  25.571  12.825
93977W        W65560  15.715  38.184   4.591
93978W        W65561   3.955  15.513  13.903
93979W        W65562  15.879  19.964  14.753
93980W        W65563  41.519  11.625   3.856
93981W        W65564  10.207  44.926  14.391
93982W        W65565   2.683  40.900   4.688
93983W        W65566  32.082  30.372   0.224
93984W        W65567   2.680  38.050   0.321
93985W        W65568  33.470   9.734   3.879
93986W        W65569  26.844  18.207  11.000
93987W        W65570  40.989  17.058  13.857
93988W        W65571   7.218  10.431   2.832
93989W        W65572  39.079  12.266  13.370
93990W        W65573   1.943   7.976   1.457
93991W        W65574  14.005   1.952   0.267
93992W        W65575  19.676  41.364   4.888
93993W        W65576  43.062   6.516  14.043
93994W        W65577  34.425  36.196   1.156
93995W        W65578  12.328  36.454   3.773
93996W        W65579  38.911  39.948   0.431
93997W        W65580  31.945  26.602   2.790
93998W        W65581  23.172  12.043   0.983
93999W        W65582  28.653  21.064   3.042
94000W        W65583  36.196  33.010   4.131
94001W        W65584  13.581  41.184   0.440
94002W        W65585   0.495  31.656  14.158
94003W        W65586  24.729  13.590   4.710
94004W        W65587  31.919  17.532  11.111
94005W        W65588  39.350  14.064   4.528
94006W        W65589  17.250  24.009  12.971
94007W        W65590  29.835  13.825   1.695
94008W        W65591   8.596  16.212   4.457
94009W        W65592  35.464  15.110  11.641
94010W        W65593   8.370  11.763   3.923
94011W        W65594  44.571  39.825   2.877
94012W        W65595   5.403   6.782  13.877
94013W        W65596   6.145  31.631  10.615
94014W        W65597  30.640   3.543   4.321
94015W        W65598  29.083  22.214   3.308
94016W        W65599   1.733  16.431   1.812
94017W        W65600  12.269  19.013   0.938
94018W        W65601  22.861  16.190   3.666
94019W        W65602   9.490  15.288   2.808
94020W        W65603  32.655  34.692   3.235
94021W        W65604   0.037  31.664  14.710
94022W        W65605  33.032  24.206  10.728
94023W        W65606  18.111  44.979   1.004
94024W        W65607   0.551  17.494   0.218
94025W        W65608  31.008  31.042   0.381
94026W        W65609   0.623   1.322   2.834
94027W        W65610   2.446  19.517  14.056
94028W        W65611  37.542  24.746  13.381
94029W        W65612   3.406  16.687  13.976
94030W        W65613  20.089   4.861   0.438
94031W        W65614  22.613  12.040  12.930
94032W        W65615  31.573  10.380   1.436
94033W        W65616  16.871  36.876   3.693
94034W        W65617  19.776  27.100   0.830
94035W        W65618  35.347  19.950   2.390
94036W        W65619  26.472   9.120   0.764
94037W        W65620  18.831  12.714  14.046
94038W        W65621  33.529  36.587   4.917
94039W        W65622  22.841  16.259   0.374
94040W        W65623   0.850  24.870   2.674
94041W        W65624  16.145  44.849  10.670
94042W        W65625   0.799   1.021  12.078
94043W        W65626  25.331  12.858  10.654
94044W        W65627  18.547  15.344   2.722
94045W        W65628  23.172  25.616   0.856
94046W        W65629  29.002   1.066   2.650
94047W        W65630  37.120  33.137  11.634
94048W        W65631  39.063  11.517   2.234
94049W        W65632  10.642  39.846  13.899
94050W        W65633  26.698  42.396   0.269
94051W        W65634  10.193   5.903  14.013
94052W        W65635   9.344  18.548  10.654
94053W        W65636   9.239  27.417   3.891
94054W        W65637  38.834  41.442  10.814
94055W        W65638  33.269  11.963   2.382
94056W        W65639  37.396  11.804   4.607
94057W        W65640  25.986  31.026   2.788
94058W        W65641  23.125  29.567  10.654
94059W        W65642  36.201  28.162  11.540
94060W        W65643  41.784  23.714  13.316
94061W        W65644   5.098  12.576   1.792
94062W        W65645  16.823  20.163  11.763
94063W        W65646  31.433   1.694  11.209
94064W        W65647  13.752  22.528  13.109
94065W        W65648  43.497  32.451   2.468
94066W        W65649   0.476  16.349  12.971
94067W        W65650  32.615  38.359   3.782
94068W        W65651  30.656  21.700  14.732
94069W        W65652  26.166   2.474   4.812
94070W        W65653  24.435  10.667   1.321
94071W        W65654  28.687  41.301   1.821
94072W        W65655   0.980  16.833  12.471
94073W        W65656   0.372  11.159   0.961
94074W        W65657  11.478  12.606  11.641
94075W        W65658  37.046  24.214   0.262
94076W        W65659  32.505   0.424  12.338
94077W        W65660  25.991  34.049  11.411
94078W        W65661  44.733   0.833  14.926
94079W        W65662  30.122  26.176   3.667
94080W        W65663  38.305  16.729  14.881
94081W        W65664  17.246  28.615  13.276
94082W        W65665  14.705  19.886  11.268
94083W        W65666  18.480   8.785   5.165
94084W        W65667   6.709  40.058  13.411
94085W        W65668  40.907  29.467   1.224
94086W        W65669  12.657   1.566  14.959
94087W        W65670  17.209  11.514   1.228
94088W        W65671  28.282  39.803   0.973
94089W        W65672  29.247   0.530  13.017
94090W        W65673   1.045  44.689   1.707
94091W        W65674  17.108  16.739  14.782
94092W        W65675  17.697   7.659  12.915
94093W        W65676  18.106  29.758  10.744
94094W        W65677  35.073  21.978  13.980
94095W        W65678   8.227   1.799   2.344
94096W        W65679  16.045  13.896  11.127
94097W        W65680  26.097  38.273  13.780
94098W        W65681  38.285  44.875   4.211
94099W        W65682   3.438  32.917  13.039
94100W        W65683  21.520  28.275  10.257
94101W        W65684  28.202  26.023  14.939
94102W        W65685  34.013  27.239   2.145
94103W        W65686  30.922  43.820   0.179
94104W        W65687  21.109  29.013   2.958
94105W        W65688  21.007   2.260  10.672
94106W        W65689  15.254   6.962   3.999
94107W        W65690  23.200  15.635   0.217
94108W        W65691   5.347  41.037   0.383
94109W        W65692  39.735  11.276  10.765
94110W        W65693   6.252  33.026  10.771
94111W        W65694  43.411  19.535   4.074
94112W        W65695  33.506  17.159  11.891
94113W        W65696  17.014  30.921  10.978
94114W        W65697  38.285  28.428   3.325
94115W        W65698   8.676  38.856   0.318
94116W        W65699   0.279  12.643   1.035
94117W        W65700  19.316  24.828  13.371
94118W        W65701  37.078  28.157   0.243
94119W        W65702  39.382  34.896  12.020
94120W        W65703   3.079   0.801  14.281
94121W        W65704  27.620  23.541   2.294
94122W        W65705  29.168  31.409   2.365
94123W        W65706   4.768  41.461   0.676
94124W        W65707  21.732  21.319   1.775
94125W        W65708  21.862  14.670  12.730
94126W        W65709  33.115   3.448   1.054
94127W        W65710  27.285  35.690  11.257
94128W        W65711  38.002  34.560  12.829
94129W        W65712  38.407  11.659  10.682
94130W        W65713  17.174  17.225   4.617
94131W        W65714  43.717  14.747   1.447
94132W        W65715  21.609  39.908   2.231
94133W        W65716  31.870  30.617  10.811
94134W        W65717  25.260  19.785   4.507
94135W        W65718  29.480  27.299   2.574
94136W        W65719  16.186   2.849  14.024
94137W        W65720  12.357  18.962   3.311
94138W        W65721  30.367  43.219   0.358
94139W        W65722  19.658  17.553   3.320
94140W        W65723  42.274  28.533  14.533
94141W        W65724  39.373  24.909  14.461
94142W        W65725  13.677  37.586   3.318
94143W        W65726  15.493  15.663   1.306
94144W        W65727   6.921   7.593   2.827
94145W        W65728  15.468  33.558  12.772
94146W        W65729  17.274   4.895  10.578
94147W        W65730  15.605  34.599   3.728
94148W        W65731  22.701  40.451  10.975
94149W        W65732  21.042   3.764   1.381
94150W        W65733   2.910  36.632  11.570
94151W        W65734   6.258   4.626   1.736
94152W        W65735  40.049  28.524   4.530
94153W        W65736  16.294  28.670  12.935
94154W        W65737  17.816  36.924  12.164
94155W        W65738  41.276  32.432  11.237
94156W        W65739  15.616  20.595   1.774
94157W        W65740  28.979  22.814   0.012
94158W        W65741  41.490  25.006   4.610
94159W        W65742  43.064  27.444  13.042
94160W        W65743  13.137  17.706  13.556
94161W        W65744   5.477   3.786  14.504
94162W        W65745   3.217  16.190   0.480
94163W        W65746   0.986   3.077   1.781
94164W        W65747  14.376  42.840  10.362
94165W        W65748  39.023  24.698  10.014
94166W        W65749   6.872  34.592  14.022
94167W        W65750  33.948  19.146   2.121
94168W        W65751  11.135  22.628  10.941
94169W        W65752   3.950   5.961  11.029
94170W        W65753  13.230  38.375   4.451
94171W        W65754  31.126  37.073   0.722
94172W        W65755  43.225   2.285   2.346
94173W        W65756   7.904  20.991  12.543
94174W        W65757  17.709  28.440   3.699
94175W        W65758  24.949  19.701   4.915
94176W        W65759  27.552   0.501  13.463
94177W        W65760   5.590  28.426   1.883
94178W        W65761   8.145  27.688  12.047
94179W        W65762  40.774  39.057   1.614
94180W        W65763  15.653  24.076   2.797
94181W        W65764  13.230  17.936   2.809
94182W        W65765  15.223   7.022  14.179
94183W        W65766  13.757   1.453  14.813
94184W        W65767  34.088  16.215  14.552
94185W        W65768  31.557  41.356  11.973
94186W        W65769  12.167  21.594   2.437
94187W        W65770  27.309  11.125  14.723
94188W        W65771  21.862  43.198   2.285
94189W        W65772  25.824  19.940  12.146
94190W        W65773  10.882  36.949   2.905
94191W        W65774  20.036   7.903   1.063
94192W        W65775  41.993  17.134   4.601
94193W        W65776  19.296  35.907   3.243
94194W        W65777  15.248  34.302   4.788
94195W        W65778  24.588   1.876   3.361
94196W        W65779  40.029  23.679  11.587
94197W        W65780  41.946   6.912   4.665
94198W        W65781  40.588  39.601   0.633
94199W        W65782  36.361   7.443  12.595
94200W        W65783  34.530  27.765   4.216
94201W        W65784  30.111  24.205  13.913
94202W        W65785   4.275  35.659  13.519
94203W        W65786   6.204  30.449   2.621
94204W        W65787  28.044  14.773   0.324
94205W        W65788  12.241   6.127  12.010
94206W        W65789  31.065  39.895  14.881
94207W        W65790  33.571  21.580  13.131
94208W        W65791  10.682  44.916  14.103
94209W        W65792  37.982   8.760  12.904
94210W        W65793  12.718  22.670   4.707
94211W        W65794   9.669   8.212  14.094
94212W        W65795  27.029  40.290   2.224
94213W        W65796   1.481   2.605  14.837
94214W        W65797  27.075  19.711   2.408
94215W        W65798  32.197  26.581  10.983
94216W        W65799  44.949  23.516   0.599
94217W        W65800  30.340  20.681  12.475
94218W        W65801  37.078  18.129   1.422
94219W        W65802  43.269  24.882  14.819
94220W        W65803  16.622  30.601  11.035
94221W        W65804  22.896  44.413   4.086
94222W        W65805  22.051  35.389  14.509
94223W        W65806   8.067   8.122   1.153
94224W        W65807  11.276   0.894   1.465
94225W        W65808  17.396  21.570  14.342
94226W        W65809  25.173   5.302   2.747
94227W        W65810   9.527  23.457  12.921
94228W        W65811  11.243  11.778  13.271
94229W        W65812   6.175  44.342  14.873
94230W        W65813  36.104  24.153   1.864
94231W        W65814   8.740   1.300   3.351
94232W        W65815  41.356  35.657  13.510
94233W        W65816  12.660   6.872  13.018
94234W        W65817   2.438   5.061  11.326
94235W        W65818  42.917  27.129   1.497
94236W        W65819   6.139  24.923   1.379
94237W        W65820  22.548  38.135   1.329
94238W        W65821  23.710  23.431  12.462
94239W        W65822  17.591  10.747  14.824
94240W        W65823   8.778  31.137   0.677
94241W        W65824  43.101  25.108  11.970
94242W        W65825  22.471  32.050  12.352
94243W        W65826  14.994  37.854   5.345
94244W        W65827  38.935  19.547   2.188
94245W        W65828  19.107   2.492  13.015
94246W        W65829  23.634  21.580  11.931
94247W        W65830  37.249   4.203   2.703
94248W        W65831  32.164  28.475   3.368
94249W        W65832  38.069  20.013  10.709
94250W        W65833  18.526  27.983  14.295
94251W        W65834  38.995   5.987  12.883
94252W        W65835  24.017  17.573   0.499
94253W        W65836  15.087  40.802   3.672
94254W        W65837  12.873  31.843  12.462
94255W        W65838  12.181  26.257   0.092
94256W        W65839  22.011  43.532   3.152
94257W        W65840  38.578  34.967  13.905
94258W        W65841  31.758  16.412   1.225
94259W        W65842  20.581  30.390   2.302
94260W        W65843  14.402  31.436   2.199
94261W        W65844  30.127  30.063   3.962
94262W        W65845  44.984  43.976   4.106
94263W        W65846   8.375  24.803  10.774
94264W        W65847   6.672  40.784   0.217
94265W        W65848   8.897  19.656   3.293
94266W        W65849  12.944  17.461   4.952
94267W        W65850  23.416  11.200   3.954
94268W        W65851  44.251  14.740   1.381
94269W        W65852  44.822  29.836  11.925
94270W        W65853   0.760   9.661   3.002
94271W        W65854   1.485  25.204   0.026
94272W        W65855   5.295  29.556  11.103
94273W        W65856  43.900  42.757  10.549
94274W        W65857  23.998  24.917  13.283
94275W        W65858  21.832  23.274   1.024
94276W        W65859  44.001  34.271   3.636
94277W        W65860  15.302  18.711  14.540
94278W        W65861   4.915  36.045   2.915
94279W        W65862   9.470  25.551  11.332
94280W        W65863  19.394  30.053   0.350
94281W        W65864  12.646   7.943  11.078
94282W        W65865   0.272  26.982  14.922
94283W        W65866   7.578  41.130  10.182
94284W        W65867   9.390  13.755   2.144
94285W        W65868  13.870  23.761  13.848
94286W        W65869  32.872  40.091  12.995
94287W        W65870  41.028   1.162   2.484
94288W        W65871   0.556  43.303  11.182
94289W        W65872  43.741  37.530   4.087
94290W        W65873  20.379  36.111   5.022
94291W        W65874  29.195  20.261  12.166
94292W        W65875  25.531  24.470  11.512
94293W        W65876  21.632  35.567   4.382
94294W        W65877  32.556  20.730  13.895
94295W        W65878   8.818  40.304   1.317
94296W        W65879  23.669  14.749   3.600
94297W        W65880  27.055  23.717   2.917
94298W        W65881  11.525   9.291   4.624
94299W        W65882  36.882  10.349   4.596
94300W        W65883  24.143  22.653   2.154
94301W        W65884  12.090   1.416   4.898
94302W        W65885   7.603  16.040  11.511
94303W        W65886  30.450  27.046  13.553
94304W        W65887  11.715   6.916   4.847
94305W        W65888  25.528  13.258   2.413
94306W        W65889  26.914  44.036  10.983
94307W        W65890  27.526  25.226  12.962
94308W        W65891  31.444  19.002   4.207
94309W        W65892  26.270   0.997  13.298
94310W        W65893  26.772  19.227  10.722
94311W        W65894  10.739  37.321  13.013
94312W        W65895  35.919   4.158   1.524
94313W        W65896  11.647  29.849  14.772
94314W        W65897  35.959  18.874   0.774
94315W        W65898  42.461  14.566   2.229
94316W        W65899  14.221  36.091  13.461
94317W        W65900  38.997  35.615   3.841
94318W        W65901   6.178  39.975   9.927
94319W        W65902  30.968  21.063   4.830
94320W        W65903  18.212  10.118   0.906
94321W        W65904  13.129   9.566   2.799
94322W        W65905  32.548  13.591  14.805
94323W        W65906  20.484  13.857   0.785
94324W        W65907  13.558  37.132   3.719
94325W        W65908  37.020  30.561  10.728
94326W        W65909  30.320  13.776   1.487
94327W        W65910   0.277   9.770  13.627
94328W        W65911  36.362  21.828   0.052
94329W        W65912   6.456  36.114   0.390
94330W        W65913  43.731  26.979  13.430
94331W        W65914   5.305   9.007   3.684
94332W        W65915   6.008   9.909   3.184
94333W        W65916  24.996  14.127  12.961
94334W        W65917  20.157  16.079  11.867
94335W        W65918  10.242   4.769   0.448
94336W        W65919  21.271  44.804   3.706
94337W        W65920  35.444  27.703   3.322
94338W        W65921  24.657  38.911   2.887
94339W        W65922  16.161  24.201  14.894
94340W        W65923   9.868  35.890   2.584
94341W        W65924   6.881  24.353   4.092
94342W        W65925  44.659   5.646  11.865
94343W        W65926  13.760   2.402   3.275
94344W        W65927  23.268   6.712  13.054
94345W        W65928  30.651   3.300   1.362
94346W        W65929  25.095  10.720  10.707
94347W        W65930  11.400  16.353  13.526
94348W        W65931  40.853  39.086  10.916
94349W        W65932  32.992   8.903  10.692
94350W        W65933  14.956   7.876  14.539
94351W        W65934  21.443  25.421   2.790
94352W        W65935  29.857  11.211   3.289
94353W        W65936  22.019  26.488   3.715
94354W        W65937   8.814  31.139  12.890
94355W        W65938   7.236  15.402  11.560
94356W        W65939   6.489  22.072   3.290
94357W        W65940   0.942  37.409  14.524
94358W        W65941  25.687  31.466   4.437
94359W        W65942  36.989   5.111  12.393
94360W        W65943  15.867  35.436  14.825
94361W        W65944  11.484  24.036  12.379
94362W        W65945  40.036   5.202   2.351
94363W        W65946  19.317   6.407  13.571
94364W        W65947  42.012  29.218  12.553
94365W        W65948  27.440  26.701   0.887
94366W        W65949   5.773  34.159  11.920
94367W        W65950  38.975  39.492  13.981
94368W        W65951  10.338   2.645   0.229
94369W        W65952  14.194   6.761  14.830
94370W        W65953  34.583   8.747  12.074
94371W        W65954  17.256   5.898   1.987
94372W        W65955  16.069  43.562  13.486
94373W        W65956  25.712  33.056   0.192
94374W        W65957  34.477  36.353   4.024
94375W        W65958   6.281  18.534   4.915
94376W        W65959  29.899   9.375   3.825
94377W        W65960  38.451  15.085   0.300
94378W        W65961  30.296  33.779  14.969
94379W        W65962  35.157   9.705  13.580
94380W        W65963  23.640  41.290  14.466
94381W        W65964  32.377  29.525  12.523
94382W        W65965   9.337  12.658   2.979
94383W        W65966  43.140  21.990   4.217
94384W        W65967  18.758  28.860  11.963
94385W        W65968   4.463  25.290   4.590
94386W        W65969   4.199  11.528   4.153
94387W        W65970   2.938  33.222   0.374
94388W        W65971  27.978  10.395   2.361
94389W        W65972  21.245   1.836  10.481
94390W        W65973  42.216  27.820   3.773
94391W        W65974  44.841   1.320  10.964
94392W        W65975  37.098  31.565   4.322
94393W        W65976  39.599  14.392   1.397
94394W        W65977  33.187  11.840  10.757
94395W        W65978  34.163  39.130   2.684
94396W        W65979  14.515  21.558  14.919
94397W        W65980   9.709  38.052   3.875
94398W        W65981  40.510  35.460   4.907
94399W        W65982  16.185  32.120   3.105
94400W        W65983   6.412  24.127   0.223
94401W        W65984   4.681  41.482  10.431
94402W        W65985  16.536   6.297   4.643
94403W        W65986  41.886  41.826   4.370
94404W        W65987  19.080  43.499   0.767
94405W        W65988  34.906   4.429  14.956
94406W        W65989  41.136   4.634   0.708
94407W        W65990  14.058   4.803   0.419
94408W        W65991  36.403  41.735  14.467
94409W        W65992  26.479   2.367   4.004
94410W        W65993  14.695   6.988  14.830
94411W        W65994  35.375  13.239   1.417
94412W        W65995  17.791  34.183   3.181
94413W        W65996  15.938  25.065  10.986
94414W        W65997   0.793  26.946  14.982
94415W        W65998   1.929  32.434   1.644
94416W        W65999  31.706  44.414  13.484
94417W        W66000  14.705  11.480   9.914
94418W        W66001  11.778  32.418  14.019
94419W        W66002   6.617  13.175  11.583
94420W        W66003   9.191  42.121   1.728
94421W        W66004   3.301  44.348  12.068
94422W        W66005  29.485  25.942  11.423
94423W        W66006   7.614   3.887   3.414
94424W        W66007  23.023  25.264  14.865
94425W        W66008  26.976   9.835  11.108
94426W        W66009  35.704   3.297  10.624
94427W        W66010  17.578   8.088   2.860
94428W        W66011   7.153  16.238   3.426
94429W        W66012  20.230  21.262  13.456
94430W        W66013  36.916   3.918   3.868
94431W        W66014   7.943  30.038   0.951
94432W        W66015  36.854  10.846   1.274
94433W        W66016   9.280  42.451   0.086
94434W        W66017  41.148   4.476  14.416
94435W        W66018  17.393  17.375   0.487
94436W        W66019  36.348  20.553   2.043
94437W        W66020  35.816  11.015   4.504
94438W        W66021   1.701  11.378  10.457
94439W        W66022  40.924   6.352   5.454
94440W        W66023   2.935  20.760  13.899
94441W        W66024   5.457  12.207   0.334
94442W        W66025  36.792  41.487  12.892
94443W        W66026  26.118  32.829   1.416
94444W        W66027  42.072  24.391  11.793
94445W        W66028  21.562  16.707   1.479
94446W        W66029   9.447  13.569   1.140
94447W        W66030  28.433  41.521   2.308
94448W        W66031  30.667  23.569   3.715
94449W        W66032  11.141   5.603   0.509
94450W        W66033   6.630  33.142   1.733
94451W        W66034  33.044  21.860   4.217
94452W        W66035  14.349   4.726   0.009
94453W        W66036  21.085  13.053   3.361
94454W        W66037  17.210   3.287   4.662
94455W        W66038  42.062  38.836  10.470
94456W        W66039  14.041  21.945   3.639
94457W        W66040  28.170  28.950  12.100
94458W        W66041  23.563  18.535   4.496
94459W        W66042  12.625  11.579   1.345
94460W        W66043   9.676  22.894   2.046
94461W        W66044  32.688  26.015  14.865
94462W        W66045  44.254   1.270   3.591
94463W        W66046  41.957  17.170   0.448
94464W        W66047  23.899  36.089  12.502
94465W        W66048  25.816   4.322  10.873
94466W        W66049   4.264  12.324   2.813
94467W        W66050  20.905  44.869   1.942
94468W        W66051   2.943  21.028  10.223
94469W        W66052  11.650  10.387  14.743
94470W        W66053  26.092  25.602   4.505
94471W        W66054  23.880  44.949  12.479
94472W        W66055   2.956  36.067  13.253
94473W        W66056  39.098  38.826  12.418
94474W        W66057   4.725   1.725  12.569
94475W        W66058  13.804  31.861  10.534
94476W        W66059  41.577   8.391  14.960
94477W        W66060  39.266  33.440   1.334
94478W        W66061  12.476  12.460  11.622
94479W        W66062  10.417  42.942  14.451
94480W        W66063  12.195  14.732  11.429
94481W        W66064  27.706  39.369   1.810
94482W        W66065  19.203   9.392  14.950
94483W        W66066  10.234  22.247  11.970
94484W        W66067  41.023  38.668   3.939
94485W        W66068   8.775  15.532  14.027
94486W        W66069   4.105  32.703   1.703
94487W        W66070   5.241  39.837  14.833
94488W        W66071  40.820  22.640  11.643
94489W        W66072   4.964  30.014   4.497
94490W        W66073  32.885  33.031   0.539
94491W        W66074  15.441   9.881   9.962
94492W        W66075   0.966  25.199   1.778
94493W        W66076  37.366  16.024   3.206
94494W        W66077  43.569  29.515  12.589
94495W        W66078  32.429  25.452  13.462
94496W        W66079   8.714  35.452   4.372
94497W        W66080  19.570  23.174   4.280
94498W        W66081  30.029  26.704  11.246
94499W        W66082  16.204  31.886   0.287
94500W        W66083  32.319   2.799  12.387
94501W        W66084   2.658  13.070  12.871
94502W        W66085  25.986   1.244  10.253
94503W        W66086  18.491  19.159   2.843
94504W        W66087  36.476  27.499   4.362
94505W        W66088  31.907  18.776  13.116
94506W        W66089  13.242  40.074   3.240
94507W        W66090   7.645  35.038   0.806
94508W        W66091  19.705   1.759   1.394
94509W        W66092  11.626   6.317  11.361
94510W        W66093  18.917  41.557   5.043
94511W        W66094   0.846  36.924  11.452
94512W        W66095  22.242  18.562   3.303
94513W        W66096  17.862  40.447  13.930
94514W        W66097  14.120  15.717  10.488
94515W        W66098  17.103   5.222  14.034
94516W        W66099  35.859   3.440   2.728
94517W        W66100  36.613  42.541  12.498
94518W        W66101   3.057   3.271  11.934
94519W        W66102  28.472  38.806  13.783
94520W        W66103   1.390  29.607   3.774
94521W        W66104  24.096  10.088  13.963
94522W        W66105  12.168  37.297  10.465
94523W        W66106  43.278  38.968   4.325
94524W        W66107  21.620  26.151  13.771
94525W        W66108  17.090  22.166  14.675
94526W        W66109   6.924  44.398   1.746
94527W        W66110  35.373  38.243  10.684
94528W        W66111  38.969  17.126  12.395
94529W        W66112  21.805   3.222   1.314
94530W        W66113  42.556  13.444   4.352
94531W        W66114  20.179  24.224  13.437
94532W        W66115  16.677  21.612  13.899
94533W        W66116  41.565  42.985  13.963
94534W        W66117   2.876   4.938  11.549
94535W        W66118  19.057  26.561   3.862
94536W        W66119  40.457   9.272  13.098
94537W        W66120  29.798  18.665   0.311
94538W        W66121   2.039  12.298   4.055
94539W        W66122  10.013  43.541   1.157
94540W        W66123  10.402   5.825   1.831
94541W        W66124   7.740   6.461  12.896
94542W        W66125  10.932  14.335  12.548
94543W        W66126  37.037  34.311  14.579
94544W        W66127  34.864  36.558  13.079
94545W        W66128  41.805  41.479   0.615
94546W        W66129   4.918  13.345  13.065
94547W        W66130  11.994   7.618  11.796
94548W        W66131   8.703   0.893   1.325
94549W        W66132  19.244  23.243   1.767
94550W        W66133  32.051   1.805  10.503
94551W        W66134   9.690  33.071  12.339
94552W        W66135  29.370  33.623  10.670
94553W        W66136  29.404  40.247   2.111
94554W        W66137  33.273   5.924   0.112
94555W        W66138   6.513  44.063   1.839
94556W        W66139  39.545   1.971  13.524
94557W        W66140   6.130  43.208   4.636
94558W        W66141  31.674  20.030   0.991
94559W        W66142  27.071  14.798  10.730
94560W        W66143   7.299  35.356  11.540
94561W        W66144   6.076  14.618  13.355
94562W        W66145  18.302  21.993  12.994
94563W        W66146   5.283  26.410  12.401
94564W        W66147  43.965  33.624   1.795
94565W        W66148  17.796  11.744   3.691
94566W        W66149  44.989  21.948   4.086
94567W        W66150   1.610  17.330  11.925
94568W        W66151  36.470  36.354  10.483
94569W        W66152   5.400  13.772  14.454
94570W        W66153  22.924  13.199   3.489
94571W        W66154  39.412  41.098  14.877
94572W        W66155  39.921  39.448   2.487
94573W        W66156  41.043  24.581  13.614
94574W        W66157   1.329  40.970   3.116
94575W        W66158  13.310  30.687  10.772
94576W        W66159  37.360  35.427  13.692
94577W        W66160  18.118   9.552  12.408
94578W        W66161  13.250  20.148   4.186
94579W        W66162   8.222  20.705  11.268
94580W        W66163  38.313  43.403  11.547
94581W        W66164   0.891   4.894   1.756
94582W        W66165   1.303  13.377  12.843
94583W        W66166  39.546  39.107  12.443
94584W        W66167  18.706   1.887  14.042
94585W        W66168   4.321  35.465  10.331
94586W        W66169  32.163  26.733  13.485
94587W        W66170  10.439   8.727  11.886
94588W        W66171  22.630  40.874  13.901
94589W        W66172  11.367  14.671   2.901
94590W        W66173  17.392  27.731  14.238
94591W        W66174  24.718  32.995  12.907
94592W        W66175  31.592  36.677  12.101
94593W        W66176  37.286  25.703   0.671
94594W        W66177   8.762   2.412   3.367
94595W        W66178  25.963   7.884  14.100
94596W        W66179  41.241  21.960  11.069
94597W        W66180   3.502   9.781   2.255
94598W        W66181  38.294  36.695   0.967
94599W        W66182  20.433   7.188  14.256
94600W        W66183  31.001  40.353   0.849
94601W        W66184   0.369  21.050  12.479
94602W        W66185   2.773  19.875   2.833
94603W        W66186  42.777  41.268  10.710
94604W        W66187  18.707  34.089   2.720
94605W        W66188  27.062  39.957   3.617
94606W        W66189  39.730   3.948  13.336
94607W        W66190   1.487  11.400   2.417
94608W        W66191  37.678   4.603  11.208
94609W        W66192   6.230   5.187  12.989
94610W        W66193   1.781  24.157   4.559
94611W        W66194  24.580  38.843  11.029
94612W        W66195  17.049  14.206   0.762
94613W        W66196  35.606   2.104  12.953
94614W        W66197  15.320  31.448  11.085
94615W        W66198  26.362   2.055  11.968
94616W        W66199   4.411  25.182   3.382
94617W        W66200  28.608  23.991   0.255
94618W        W66201   9.102  25.954   2.767
94619W        W66202  29.499   5.727   1.134
94620W        W66203  21.309  14.109  10.760
94621W        W66204  44.484  38.438   1.884
94622W        W66205  14.317   7.973   1.816
94623W        W66206  22.277  27.406  10.253
94624W        W66207  10.297  35.395  10.551
94625W        W66208  28.941  24.008   4.637
94626W        W66209   4.649   7.286  10.787
94627W        W66210   6.178  23.502  12.077
94628W        W66211  20.263  19.593   1.333
94629W        W66212  13.335  14.177   2.698
94630W        W66213  34.619  12.076  13.044
94631W        W66214  34.647   1.123   1.705
94632W        W66215  34.914  44.745  11.093
94633W        W66216  29.601  11.795  12.397
94634W        W66217  10.194  33.975   4.149
94635W        W66218  22.752  43.692   2.365
94636W        W66219  40.339  29.578   2.370
94637W        W66220  11.888   5.417  11.379
94638W        W66221   1.807   4.824   1.122
94639W        W66222   3.421  16.241  12.624
94640W        W66223  36.965   4.139  12.556
94641W        W66224  37.812  39.061  11.853
94642W        W66225  40.425  29.672   0.388
94643W        W66226   9.478  35.116   1.765
94644W        W66227   2.699  21.161   0.023
94645W        W66228  10.740  30.174  14.965
94646W        W66229   4.526  34.082   3.284
94647W        W66230   2.182  42.957   1.733
94648W        W66231  15.497  11.858   4.168
94649W        W66232  39.530  26.975  11.060
94650W        W66233  44.753  29.896   0.880
94651W        W66234   2.280   7.805  11.436
94652W        W66235  42.286   2.225   0.414
94653W        W66236  37.175  42.791  13.077
94654W        W66237  21.517  21.541  11.569
94655W        W66238  38.320  31.457  13.037
94656W        W66239  37.460  16.780   3.416
94657W        W66240   3.715  20.053  12.788
94658W        W66241  40.552  29.442  12.487
94659W        W66242  17.780  21.222  12.467
94660W        W66243  15.164   6.702   1.402
94661W        W66244  42.850  12.394   4.747
94662W        W66245  16.726   9.147  12.887
94663W        W66246  33.062  35.361  13.857
94664W        W66247   2.982   5.693   3.983
94665W        W66248  10.483   3.985   3.798
94666W        W66249  15.380  25.587  10.631
94667W        W66250   5.323   5.498   2.751
94668W        W66251  11.735   5.723  10.682
94669W        W66252   7.623  36.568   4.153
94670W        W66253  41.172  13.699   2.020
94671W        W66254  30.350   1.415  14.862
94672W        W66255   6.890   5.749  14.010
94673W        W66256  40.313  31.705  13.053
94674W        W66257  15.786  37.312  12.089
94675W        W66258  12.787  28.700   3.730
94676W        W66259  24.082  35.657   9.906
94677W        W66260  41.716  20.500   2.554
94678W        W66261   2.644  10.686  13.577
94679W        W66262  23.073  38.817   1.688
94680W        W66263   1.291   2.656  11.087
94681W        W66264  12.304  24.430   0.292
94682W        W66265  18.996   4.760   4.204
94683W        W66266  17.784   2.529   1.815
94684W        W66267  33.865  23.968   1.945
94685W        W66268  17.638  22.781   2.713
94686W        W66269   6.563  27.052  13.852
94687W        W66270  25.656  22.342  10.308
94688W        W66271  12.182  17.156   4.891
94689W        W66272  15.334  40.446  11.970
94690W        W66273   9.186  30.222   0.341
94691W        W66274  37.424  32.100  10.041
94692W        W66275  31.061  17.498   0.906
94693W        W66276   8.116  12.400  14.413
94694W        W66277  33.350  41.248   2.682
94695W        W66278  24.216  30.601  14.127
94696W        W66279   6.161   4.017  11.115
94697W        W66280  13.827  19.205   1.213
94698W        W66281  32.108   8.582  13.369
94699W        W66282  34.148  10.452  12.376
94700W        W66283  29.794  40.057   2.938
94701W        W66284   1.273  22.211  13.821
94702W        W66285  28.407   8.506   0.406
94703W        W66286  41.478  27.623   3.844
94704W        W66287  15.355  29.080  14.016
94705W        W66288  37.352  24.712  11.136
94706W        W66289  44.327  24.188  12.019
94707W        W66290   2.942  34.905  12.909
94708W        W66291  10.735  11.077  12.042
94709W        W66292   8.222  21.375   3.360
94710W        W66293  35.068   0.106   0.458
94711W        W66294  18.278  29.109  12.854
94712W        W66295  33.109  40.446   3.070
94713W        W66296   6.558  41.304  12.978
94714W        W66297  26.421  35.949   4.198
94715W        W66298  12.211  18.732   4.168
94716W        W66299   6.888  25.605   3.249
94717W        W66300  44.419  44.930  14.508
94718W        W66301   5.910  13.519  13.304
94719W        W66302   6.783  25.865  14.837
94720W        W66303  25.716  24.325   0.803
94721W        W66304  35.922   1.871   1.913
94722W        W66305   2.670  31.358   1.362
94723W        W66306   6.169  10.725   4.717
94724W        W66307  15.640  40.574  13.356
94725W        W66308  12.257  25.253  14.894
94726W        W66309  11.339  14.280  12.221
94727W        W66310  12.135  43.719   1.879
94728W        W66311  37.436  28.530   1.069
94729W        W66312  41.979  28.871   1.477
94730W        W66313   8.601  33.315  13.500
94731W        W66314  31.145  23.240   9.932
94732W        W66315  25.103   3.468   2.760
94733W        W66316  37.878  43.120  14.296
94734W        W66317  31.916   5.839  14.633
94735W        W66318  37.372   6.636   1.740
94736W        W66319  31.136   4.376  12.921
94737W        W66320  29.009  23.275   4.158
94738W        W66321  28.552   9.872   4.039
94739W        W66322  34.626  19.118   0.013
94740W        W66323  38.494   0.891   4.923
94741W        W66324  15.554  39.625  11.111
94742W        W66325  40.301  39.359  13.423
94743W        W66326  39.767   8.165   3.253
94744W        W66327  34.942  24.226   2.790
94745W        W66328  35.622  17.523   2.777
94746W        W66329  32.436  29.391   1.674
94747W        W66330  32.426  38.226   0.362
94748W        W66331  11.972  25.457   3.072
94749W        W66332  37.042   3.511  11.926
94750W        W66333  20.731   1.104  12.466
94751W        W66334  19.875  31.910   2.807
94752W        W66335  33.061   0.012  10.550
94753W        W66336  24.478  18.486   0.838
94754W        W66337  21.013  31.027  14.489
94755W        W66338   5.449  18.482  11.423
94756W        W66339  42.402   5.854  10.684
94757W        W66340  41.534  35.967  14.766
94758W        W66341  41.286  14.045   3.281
94759W        W66342   6.776  21.082  13.922
94760W        W66343  20.261  23.674  11.267
94761W        W66344  44.452  23.041   1.958
94762W        W66345   0.287  41.900  11.978
94763W        W66346   2.427  33.123  14.021
94764W        W66347  42.794   1.213  10.747
94765W        W66348  12.186  37.162   2.653
94766W        W66349  44.624  17.371   4.709
94767W        W66350   1.769  34.614   2.606
94768W        W66351   9.248  23.597  12.338
94769W        W66352   1.033  28.599  12.149
94770W        W66353  34.022  35.962  10.632
94771W        W66354  44.687  25.929  12.847
94772W        W66355  21.980  23.685   1.818
94773W        W66356  38.600  43.390   2.340
94774W        W66357  39.653   6.409  10.439
94775W        W66358   6.903  41.688  12.038
94776W        W66359   7.575  39.467  12.634
94777W        W66360   3.912  32.141  14.959
94778W        W66361  33.058  44.483  10.600
94779W        W66362  38.990  10.735  11.403
94780W        W66363  12.107  32.497   2.445
94781W        W66364   6.378  16.058  10.710
94782W        W66365   8.687  38.336   4.621
94783W        W66366  27.030  33.732  10.161
94784W        W66367  15.648  22.812   3.066
94785W        W66368  38.623  44.625   2.639
94786W        W66369  21.026  43.248   2.770
94787W        W66370  23.163   6.382   4.849
94788W        W66371  20.167  19.522  12.583
94789W        W66372  13.721  22.063  13.360
94790W        W66373  27.276  39.561   0.922
94791W        W66374  36.931   2.259   1.255
94792W        W66375   0.019  28.643  14.836
94793W        W66376  29.384   3.989  14.038
94794W        W66377  18.657   6.960   1.932
94795W        W66378  36.828  39.898  14.748
94796W        W66379   3.272  16.231   4.532
94797W        W66380   5.917  11.803  12.561
94798W        W66381   9.836  21.247  11.525
94799W        W66382   4.664  26.498   3.725
94800W        W66383  35.956  22.237  10.881
94801W        W66384  17.165   9.995   1.922
94802W        W66385  32.917  16.927   0.286
94803W        W66386   9.821  13.097   4.939
94804W        W66387  24.629  34.927   2.215
94805W        W66388  37.627  28.889  13.492
94806W        W66389  26.002  23.041   2.067
94807W        W66390  34.664  29.708   0.476
94808W        W66391  34.946  42.534   0.390
94809W        W66392  23.721   6.940   3.853
94810W        W66393   3.577  37.010  10.873
94811W        W66394  16.802  21.868  11.889
94812W        W66395  14.696  31.635  13.100
94813W        W66396  11.028  37.900   3.974
94814W        W66397   2.775  33.336   4.154
94815W        W66398  17.182  18.419  13.049
94816W        W66399  14.252  10.325  14.531
94817W        W66400  40.075  36.591  12.112
94818W        W66401  31.488   2.485   4.195
94819W        W66402  44.391  29.979   2.909
94820W        W66403   2.022  41.540  14.034
94821W        W66404   8.693  35.042  10.994
94822W        W66405   4.934  33.444  10.891
94823W        W66406  10.731  10.776  11.595
94824W        W66407  29.496  37.234  12.639
94825W        W66408   8.830  15.047   3.237
94826W        W66409  43.259  37.928   3.316
94827W        W66410  36.072  42.404   2.611
94828W        W66411  29.099  22.182  10.910
94829W        W66412   8.055   7.150  11.188
94830W        W66413   7.698   9.321  12.118
94831W        W66414  17.457  13.871   0.546
94832W        W66415  16.145  38.153  10.271
94833W        W66416  18.038   4.935  14.337
94834W        W66417  30.111  19.272  10.897
94835W        W66418  36.110  20.908  11.187
94836W        W66419   1.147  25.058  14.635
94837W        W66420  26.143  16.054  14.739
94838W        W66421  20.055  40.916   2.014
94839W        W66422  28.033   5.348  11.385
94840W        W66423  43.055  39.325   3.998
94841W        W66424   7.660   4.666  12.455
94842W        W66425  21.365  20.982  10.596
94843W        W66426  29.707  15.815  13.023
94844W        W66427  27.609  13.311  12.470
94845W        W66428  41.376  13.208   1.233
94846W        W66429  19.701   0.338  12.428
94847W        W66430  44.735   8.944   4.146
94848W        W66431  36.573  41.877   5.140
94849W        W66432   5.220  14.699   2.854
94850W        W66433  31.440  10.697  13.604
94851W        W66434   3.168  43.065   1.789
94852W        W66435  14.496   2.472  12.098
94853W        W66436   9.649  12.049   4.951
94854W        W66437  19.667  35.430  10.860
94855W        W66438  17.418   4.702  12.903
94856W        W66439  36.541  21.018   1.810
94857W        W66440  12.626  18.801   1.668
94858W        W66441   8.791  10.658  12.518
94859W        W66442  33.008  28.009   3.324
94860W        W66443  40.690  30.608  13.840
94861W        W66444  16.785   1.153   4.240
94862W        W66445  37.059  33.287  13.418
94863W        W66446  16.100  33.870  13.413
94864W        W66447  18.728  10.436  13.583
94865W        W66448  44.649  23.114  10.578
94866W        W66449  22.960  10.059  11.495
94867W        W66450   9.428  14.844  10.608
94868W        W66451  40.924  18.115  13.805
94869W        W66452   7.762  16.302  10.666
94870W        W66453  40.374  32.499  11.607
94871W        W66454  26.678   7.437  13.920
94872W        W66455   7.361  14.528  12.434
94873W        W66456  13.217  27.413   3.513
94874W        W66457   2.287  31.271   1.930
94875W        W66458   2.800  39.993   1.040
94876W        W66459  14.237  25.991   3.173
94877W        W66460  44.716  18.550   4.351
94878W        W66461  36.867  38.253   2.358
94879W        W66462  32.591  12.178  11.906
94880W        W66463  25.002  42.783  11.524
94881W        W66464  20.564   9.815  10.159
94882W        W66465   5.623  15.351   0.695
94883W        W66466  15.228  10.333  10.568
94884W        W66467   4.731  15.079  12.493
94885W        W66468  25.015   5.765  12.815
94886W        W66469  16.500   4.456   1.409
94887W        W66470   6.753  27.399  14.603
94888W        W66471  43.305   0.872   0.350
94889W        W66472  40.380  44.146  13.554
94890W        W66473  16.686  14.477  10.729
94891W        W66474   9.179  21.455  13.037
94892W        W66475  44.259  38.306  13.894
94893W        W66476  28.030  13.269   0.505
94894W        W66477  32.527   7.658   0.422
94895W        W66478  14.652  22.941  12.807
94896W        W66479   7.425   4.865   0.880
94897W        W66480  27.501  25.636  12.575
94898W        W66481  25.024  30.455   1.702
94899W        W66482  15.344  38.314  13.027
94900W        W66483  22.177  26.346  11.423
94901W        W66484   8.046  20.992   4.658
94902W        W66485  28.032  33.370  10.022
94903W        W66486  25.570  23.122   2.322
94904W        W66487  20.475   3.929   4.219
94905W        W66488  35.443  45.000  11.421
94906W        W66489  42.715   2.197  14.004
94907W        W66490  33.579   4.734  10.716
94908W        W66491  19.789  29.418  12.905
94909W        W66492   9.378  26.411   2.055
94910W        W66493   0.806  19.210  11.714
94911W        W66494  39.627  15.855   4.558
94912W        W66495  33.962  17.572  14.280
94913W        W66496  41.758   2.997   1.127
94914W        W66497   0.421  34.214   2.800
94915W        W66498  14.677  26.042   1.771
94916W        W66499  10.252  37.551  10.604
94917W        W66500  10.880  23.295  12.466
94918W        W66501  32.150  12.116   3.807
94919W        W66502  40.806   4.471   3.621
94920W        W66503   9.666  25.663   0.382
94921W        W66504  44.500  44.359   1.217
94922W        W66505  21.828   9.229  14.522
94923W        W66506  10.208  42.390   0.298
94924W        W66507  15.249  19.195  14.370
94925W        W66508   4.181  21.191   2.023
94926W        W66509  42.964   3.756   1.451
94927W        W66510   6.787  32.011   5.038
94928W        W66511  40.719   6.846   1.718
94929W        W66512  17.692  28.439  12.896
94930W        W66513  16.026   9.655   4.364
94931W        W66514   7.306  30.545  13.875
94932W        W66515   0.143  44.490   2.544
94933W        W66516  24.631   1.130  13.261
94934W        W66517  16.612  12.676   2.014
94935W        W66518   3.895  12.372   3.236
94936W        W66519  25.454  39.658   0.459
94937W        W66520  38.925  25.183  10.687
94938W        W66521  22.888  20.684   4.669
94939W        W66522  35.271   4.307  13.444
94940W        W66523  30.462  19.002   3.667
94941W        W66524  17.195  42.954   1.973
94942W        W66525   6.819   6.371   3.503
94943W        W66526  32.983  22.084   3.754
94944W        W66527  42.961   3.313  14.823
94945W        W66528  36.571   8.015  11.793
94946W        W66529  30.880  17.709   2.451
94947W        W66530  22.622  13.282  12.451
94948W        W66531  28.417  34.919  13.075
94949W        W66532  33.095  23.462   0.679
94950W        W66533  21.715  34.606   4.394
94951W        W66534  17.072  13.708  14.811
94952W        W66535  31.511  13.640   1.223
94953W        W66536  11.700  14.242   3.586
94954W        W66537  16.264  34.881  13.276
94955W        W66538   9.211  23.972   1.009
94956W        W66539   0.220  34.609   1.911
94957W        W66540  15.827   3.956   0.341
94958W        W66541  10.476  37.533   1.905
94959W        W66542  28.625  44.976  10.754
94960W        W66543   1.420   6.201  12.465
94961W        W66544   2.406  20.715  11.811
94962W        W66545   1.265   6.164  10.581
94963W        W66546  19.376  34.561   3.760
94964W        W66547  39.111  35.566  11.885
94965W        W66548  27.002   0.031   0.327
94966W        W66549  28.964   0.969  12.150
94967W        W66550  16.570  38.908   4.631
94968W        W66551  29.643   1.399  14.595
94969W        W66552  20.807   7.441   9.704
94970W        W66553  28.722   2.401   3.737
94971W        W66554  25.090  21.197  10.188
94972W        W66555  22.684  20.717   2.400
94973W        W66556  38.450  25.658  12.889
94974W        W66557  10.344  33.739   1.764
94975W        W66558  26.949  16.532  14.205
94976W        W66559   9.746  37.664  12.414
94977W        W66560  32.486   0.042  12.866
94978W        W66561   8.347  37.042   1.640
94979W        W66562  31.113  43.986   3.660
94980W        W66563  36.026  16.135  10.725
94981W        W66564  18.638  26.769   4.660
94982W        W66565  21.590  28.649  13.791
94983W        W66566  35.979  36.649   4.517
94984W        W66567  14.937   5.734   9.920
94985W        W66568  35.026  13.319   3.128
94986W        W66569  38.588  28.713   4.270
94987W        W66570   6.611   7.793  13.452
94988W        W66571  37.940  14.055   3.744
94989W        W66572  24.535  26.431  11.072
94990W        W66573  33.069  19.308  12.870
94991W        W66574  29.664  43.407   0.923
94992W        W66575  28.169  14.465   0.713
94993W        W66576  18.040  24.683  14.755
94994W        W66577  37.750   4.245   0.972
94995W        W66578  23.126  30.860   2.915
94996W        W66579   1.618  27.722   0.854
94997W        W66580  29.840  42.788   4.173
94998W        W66581  18.933  17.324   2.786
94999W        W66582   2.273  18.695  13.414
95000W        W66583  27.325  19.349   2.746
95001W        W66584  30.062  10.338  14.668
95002W        W66585  12.675   8.268  14.231
95003W        W66586  12.669   5.319   4.162
95004W        W66587  24.699  40.836   2.915
95005W        W66588  18.799  17.869   0.515
95006W        W66589  29.135  37.588  12.517
95007W        W66590  43.013  22.532  10.658
95008W        W66591  31.403   4.992   4.213
95009W        W66592  14.336   1.201   1.438
95010W        W66593  28.122  30.133  14.520
95011W        W66594  42.817   5.240   2.952
95012W        W66595  25.993  37.279  14.010
95013W        W66596  25.572   7.669  14.436
95014W        W66597   9.450  37.515  10.554
95015W        W66598   8.236   6.873  11.577
95016W        W66599   4.369  39.830  11.385
95017W        W66600  18.182  30.975   4.473
95018W        W66601  30.960  10.765   0.951
95019W        W66602  26.542  31.037   3.595
95020W        W66603   9.525  26.636   3.171
95021W        W66604   6.393  40.254   3.580
95022W        W66605   7.359  43.953   2.323
95023W        W66606   7.680  34.206   0.463
95024W        W66607   1.288  25.503  11.028
95025W        W66608  40.118   7.814  10.497
95026W        W66609  26.669  22.737  10.632
95027W        W66610  19.919  44.558   4.538
95028W        W66611  32.423  34.364  11.613
95029W        W66612  44.863  33.604   3.634
95030W        W66613  16.214  14.391  11.176
95031W        W66614  41.199  26.438   3.063
95032W        W66615  42.718  18.136   2.217
95033W        W66616  32.215  37.946   0.798
95034W        W66617  10.996  32.262   0.988
95035W        W66618  12.261  16.758  10.664
95036W        W66619   9.282   7.668   3.118
95037W        W66620  25.934  18.203  14.338
95038W        W66621  25.682  27.785   4.595
95039W        W66622  30.013  14.227   1.927
95040W        W66623  38.345  17.578   1.687
95041W        W66624  16.546  13.733   4.665
95042W        W66625  20.268  19.667   4.667
95043W        W66626  30.034  25.130   4.707
95044W        W66627  19.208   7.659   4.608
95045W        W66628  12.860   6.898  11.592
95046W        W66629   6.175  25.073   3.142
95047W        W66630   8.188  13.185  13.408
95048W        W66631  32.631   0.518  13.318
95049W        W66632   7.253  29.341  12.170
95050W        W66633  31.307  39.377  11.564
95051W        W66634  25.939  42.034  12.427
95052W        W66635  32.965  17.825  11.977
95053W        W66636   8.641   3.505   0.747
95054W        W66637  38.892   8.416  11.942
95055W        W66638  16.628   4.229   0.957
95056W        W66639   5.413  31.913   1.364
95057W        W66640  12.602   4.378  12.134
95058W        W66641  27.603  12.643   1.470
95059W        W66642  12.399  30.262   0.237
95060W        W66643   9.917  29.373  13.874
95061W        W66644  22.670   9.161   0.967
95062W        W66645   8.830   7.418   3.245
95063W        W66646  44.435  16.370   4.582
95064W        W66647  19.090  44.310   4.716
95065W        W66648  23.169   7.880  13.136
95066W        W66649  39.564  11.679  13.901
95067W        W66650   9.696  44.830  12.458
95068W        W66651  19.480  30.401  10.668
95069W        W66652  22.636  13.055  12.920
95070W        W66653  12.719  23.806   1.707
95071W        W66654  35.571  30.656  12.277
95072W        W66655  28.615  14.066   4.892
95073W        W66656  41.172  14.703   4.632
95074W        W66657  11.083  20.186  11.116
95075W        W66658   9.119  25.975  14.300
95076W        W66659  36.524  11.105   0.946
95077W        W66660  42.048  15.214   4.616
95078W        W66661  37.535  12.283  14.870
95079W        W66662  39.320  20.501  13.733
95080W        W66663  24.036  33.472  12.472
95081W        W66664  35.791  18.041   3.775
95082W        W66665  38.296  23.606  13.838
95083W        W66666  39.948  30.272   2.790
95084W        W66667  12.537  38.464  11.465
95085W        W66668  12.644  17.950  10.692
95086W        W66669  23.058   7.742  12.110
95087W        W66670   6.910  31.673   2.185
95088W        W66671  31.842  38.435   1.473
95089W        W66672  41.281  31.566   3.743
95090W        W66673   1.507  39.310   3.479
95091W        W66674  16.572   3.900  11.834
95092W        W66675   0.558  32.459  11.545
95093W        W66676   0.733  17.331  11.149
95094W        W66677  30.273   3.800  11.006
95095W        W66678   1.047  41.524  13.012
95096W        W66679  42.991  39.417  13.144
95097W        W66680  41.862  31.565  14.712
95098W        W66681  18.629  36.638  14.022
95099W        W66682  18.182   4.016  11.549
95100W        W66683  22.046   0.631   3.249
95101W        W66684  17.586  20.765   1.214
95102W        W66685  40.332   2.358  11.602
95103W        W66686   8.869  24.576   1.676
95104W        W66687  39.941   6.213   4.074
95105W        W66688  34.611  42.648   5.021
95106W        W66689   5.952   6.563  11.161
95107W        W66690  10.423  31.817  11.189
95108W        W66691   3.939  10.268   4.425
95109W        W66692  13.393  19.667   2.022
95110W        W66693  25.756  25.476   2.953
95111W        W66694  14.049   5.774  12.032
95112W        W66695  36.099   7.912  11.091
95113W        W66696  25.917  44.806   4.706
95114W        W66697  12.194  32.428   0.318
95115W        W66698   2.403  37.919  10.591
95116W        W66699  43.994  27.589  14.895
95117W        W66700  23.286  20.672   0.628
95118W        W66701  21.736   2.189  12.856
95119W        W66702  36.470  10.751   1.862
95120W        W66703  40.041  36.021  12.806
95121W        W66704  12.585  23.625  13.416
95122W        W66705   5.966   1.418  12.583
95123W        W66706  37.471  17.641   2.917
95124W        W66707  35.843  26.430  12.878
95125W        W66708  29.732  40.271  13.677
95126W        W66709  13.250  31.334   4.347
95127W        W66710   7.787  42.931  12.876
95128W        W66711  21.529   0.878   3.652
95129W        W66712   3.044  12.142   0.910
95130W        W66713  41.024  21.050  13.472
95131W        W66714   3.303  29.568  11.218
95132W        W66715  11.081  36.901   3.553
95133W        W66716  24.635  44.430   3.723
95134W        W66717  28.520  37.158   0.784
95135W        W66718  29.876  39.058  11.579
95136W        W66719   2.946  19.206  12.339
95137W        W66720  20.659  28.868  11.448
95138W        W66721  34.560   7.551  12.898
95139W        W66722  34.878   9.174   1.307
95140W        W66723  15.036  16.097   3.908
95141W        W66724  36.791  25.471   4.821
95142W        W66725  14.721  34.429  10.938
95143W        W66726  44.370   7.860   4.839
95144W        W66727  16.657  28.139   3.069
95145W        W66728  12.360  15.574   0.896
95146W        W66729  28.694  33.116   0.320
95147W        W66730  26.522  31.841   1.048
95148W        W66731   2.636   4.695  14.405
95149W        W66732  29.173  31.613  10.679
95150W        W66733   1.241  42.277   0.943
95151W        W66734  18.581  33.451  11.608
95152W        W66735  39.430  21.009  11.981
95153W        W66736  13.440   4.860   4.099
95154W        W66737  36.128  32.025   3.708
95155W        W66738  24.018  18.348   3.432
95156W        W66739  44.277  19.265   1.983
95157W        W66740  11.828   1.706  12.257
95158W        W66741  33.396  37.663  13.082
95159W        W66742   7.196  30.557   3.764
95160W        W66743  19.041   6.914   5.335
95161W        W66744   7.789  31.753  13.006
95162W        W66745  32.098  16.749   2.493
95163W        W66746  19.398  34.631   2.847
95164W        W66747  20.578  26.197   3.652
95165W        W66748  21.221  25.537   2.096
95166W        W66749   7.406  40.511   1.824
95167W        W66750  15.077   3.831  11.062
95168W        W66751   6.693  28.841   4.519
95169W        W66752  19.485  37.548   3.670
95170W        W66753  20.458  38.575  13.414
95171W        W66754  15.838  44.365   3.732
95172W        W66755  10.853  37.273   2.179
95173W        W66756  29.706   0.507  10.399
95174W        W66757  15.222  12.869   3.670
95175W        W66758  34.606   3.693  10.771
95176W        W66759  19.691  29.983   5.271
95177W        W66760   2.342  37.995   0.865
95178W        W66761  26.553   5.881   2.284
95179W        W66762  19.180  19.323   4.290
95180W        W66763  25.484  26.055   1.736
95181W        W66764   2.021  18.687  14.561
95182W        W66765   4.280  19.998  11.528
95183W        W66766  24.979  21.086  11.234
95184W        W66767  23.196  19.645  11.055
95185W        W66768  41.007  23.195  11.573
95186W        W66769  13.036  29.920  14.498
95187W        W66770  39.989  20.569   1.829
95188W        W66771  43.046  10.923  10.664
95189W        W66772  13.931   4.149  11.591
95190W        W66773   9.690  24.732  14.484
95191W        W66774  19.500  36.810  12.701
95192W        W66775  16.579  14.824  11.095
95193W        W66776  36.045  42.417   1.658
95194W        W66777  43.615   9.282   4.466
95195W        W66778  20.479  14.878   3.321
95196W        W66779  10.253  39.522   0.369
95197W        W66780  21.312  26.981   4.325
95198W        W66781   9.609  44.910   3.148
95199W        W66782  26.974  10.286   2.181
95200W        W66783   1.013  24.284  14.351
95201W        W66784  26.937  10.659   1.502
95202W        W66785   3.361  13.689   4.940
95203W        W66786  20.049  13.215  14.569
95204W        W66787  41.416   1.895  12.943
95205W        W66788  39.584  15.527   0.780
95206W        W66789  33.425  20.400   3.808
95207W        W66790  40.959  32.656   0.967
95208W        W66791  32.329   6.285  13.440
95209W        W66792  11.638   3.799  14.201
95210W        W66793   7.646   4.287  12.016
95211W        W66794   8.677   1.952   2.135
95212W        W66795  40.537   3.772   2.723
95213W        W66796  18.668   6.244   1.248
95214W        W66797   8.240  31.613  14.931
95215W        W66798  12.090  32.933   0.240
95216W        W66799  22.026  22.765  13.481
95217W        W66800  12.296  40.924   5.039
95218W        W66801  40.607  41.402  14.651
95219W        W66802  33.057  28.177   1.810
95220W        W66803  24.202   9.307  12.584
95221W        W66804  11.889  17.224   2.454
95222W        W66805  29.011  28.400  13.612
95223W        W66806  21.778  25.695   3.098
95224W        W66807  19.806   0.925  14.422
95225W        W66808   8.254  14.174  12.400
95226W        W66809   5.106   0.193  12.930
95227W        W66810  28.041  37.366   0.753
95228W        W66811   6.721  33.893  11.048
95229W        W66812  24.918  12.875  12.393
95230W        W66813  28.215   6.364  12.515
95231W        W66814  15.264  39.338  10.644
95232W        W66815   4.623  32.652  12.552
95233W        W66816   5.897  40.515   1.426
95234W        W66817   2.835  20.653  14.873
95235W        W66818  32.015  19.884  12.431
95236W        W66819  44.107  30.192   3.327
95237W        W66820  29.649  16.795   1.556
95238W        W66821   9.677   8.227   2.749
95239W        W66822   0.975  17.123   5.111
95240W        W66823  37.058  26.985  13.439
95241W        W66824  21.860  13.858  14.990
95242W        W66825  35.517   7.165   0.784
95243W        W66826  25.571  43.846  10.826
95244W        W66827  36.106  24.253  10.752
95245W        W66828  13.447   1.022   2.022
95246W        W66829  14.331  33.341  11.798
95247W        W66830   0.737  13.080  14.152
95248W        W66831   4.417  35.576   4.846
95249W        W66832  24.096  17.477   3.193
95250W        W66833  34.028  29.002   4.334
95251W        W66834   7.839  25.638   4.164
95252W        W66835  38.583  29.626   3.618
95253W        W66836  10.380   0.108  11.052
95254W        W66837  10.392  19.421   0.797
95255W        W66838  42.491  32.594   1.157
95256W        W66839  28.892  31.319   4.472
95257W        W66840  20.247  43.429  12.139
95258W        W66841   3.306  43.948  13.817
95259W        W66842  18.732   2.851  11.957
95260W        W66843  24.300  23.789   5.053
95261W        W66844  23.985  21.753  10.769
95262W        W66845  37.838  12.814  13.410
95263W        W66846  32.292  44.695   3.206
95264W        W66847   7.549  44.526   3.705
95265W        W66848  38.533  25.391   1.864
95266W        W66849  13.329  44.379  10.112
95267W        W66850  43.320  12.848  11.589
95268W        W66851  30.113  14.715  14.296
95269W        W66852  38.730  12.133  13.738
95270W        W66853   1.351  17.657  11.474
95271W        W66854  27.577   6.260  10.473
95272W        W66855  39.382   3.959   3.616
95273W        W66856  39.551  32.661   2.752
95274W        W66857  10.389  35.675  13.271
95275W        W66858  30.962   7.771  11.762
95276W        W66859  40.362  41.386  12.432
95277W        W66860  11.379  21.322   1.163
95278W        W66861  13.741   7.857  13.841
95279W        W66862   1.950  10.582  13.938
95280W        W66863  29.039   1.423  13.975
95281W        W66864   9.195  30.170   1.321
95282W        W66865  13.717  24.106  11.212
95283W        W66866  29.552  14.059  11.932
95284W        W66867  33.238  42.601   1.068
95285W        W66868  20.263  42.319   1.527
95286W        W66869  33.343  23.004   0.775
95287W        W66870   6.654  10.401   4.764
95288W        W66871  21.589  11.812  12.642
95289W        W66872  21.186   9.855   1.392
95290W        W66873   5.745  28.752   2.252
95291W        W66874   5.658  21.823   3.567
95292W        W66875  13.199  37.526   3.016
95293W        W66876  38.457   0.619  11.074
95294W        W66877  13.742  31.529   4.524
95295W        W66878  37.928  31.133   3.632
95296W        W66879  35.626  18.767   4.093
95297W        W66880  36.068  42.603  12.600
95298W        W66881   7.574  33.577   1.001
95299W        W66882  26.237  41.990  14.055
95300W        W66883  24.216  25.480   2.799
95301W        W66884  18.539  40.536  12.996
95302W        W66885  22.444  14.180   3.199
95303W        W66886  25.968  40.591  12.564
95304W        W66887  27.691  11.172   4.020
95305W        W66888  38.786   8.726  11.529
95306W        W66889  18.989  32.101   3.564
95307W        W66890  38.749   1.219   2.280
95308W        W66891  44.550  37.750   2.333
95309W        W66892   9.376  18.216   4.086
95310W        W66893  37.303  38.794   4.211
95311W        W66894  31.064  22.055  14.058
95312W        W66895  27.734   4.390   4.760
95313W        W66896   9.147   7.185  13.945
95314W        W66897   7.960  27.494  11.149
95315W        W66898  14.681   0.795   4.826
95316W        W66899  38.375   1.949  12.580
95317W        W66900   8.738  20.617  11.217
95318W        W66901   8.496  40.907  14.477
95319W        W66902   9.350  22.138  13.504
95320W        W66903  32.615  14.884  11.988
95321W        W66904  13.860  42.459   3.670
95322W        W66905   8.180  26.606   4.885
95323W        W66906  24.322  37.792  14.295
95324W        W66907  18.012  21.567   4.009
95325W        W66908  16.182  13.789  12.023
95326W        W66909  14.356  10.345   1.469
95327W        W66910   8.213  23.092   2.376
95328W        W66911  41.304  18.686   1.501
95329W        W66912  41.948  36.142   2.146
95330W        W66913  10.776  24.169   2.437
95331W        W66914  14.334   4.783  13.215
95332W        W66915   2.415   6.811   2.696
95333W        W66916  41.948  21.316  11.085
95334W        W66917  14.589   9.634   2.917
95335W        W66918   0.756   9.355   0.360
95336W        W66919  36.793  15.304   4.053
95337W        W66920  29.785  44.022   0.695
95338W        W66921  17.031   3.450   0.908
95339W        W66922  38.341  22.117  13.271
95340W        W66923   9.708  20.644   0.184
95341W        W66924  35.628  25.963  14.811
95342W        W66925  16.178  28.473   4.675
95343W        W66926   8.518  22.100   1.934
95344W        W66927  31.884   8.306   0.743
95345W        W66928  15.164   2.830   0.504
95346W        W66929  11.417  29.673  13.918
95347W        W66930   3.403  40.416   4.920
95348W        W66931  24.613  24.014  10.709
95349W        W66932   7.435  23.217  13.383
95350W        W66933   9.187   4.948  11.204
95351W        W66934  41.580  14.310   4.595
95352W        W66935  31.968  25.578   0.194
95353W        W66936  26.129  21.041  14.477
95354W        W66937  15.615  38.810  12.058
95355W        W66938  42.278  27.548   2.760
95356W        W66939   0.773  29.139  11.099
95357W        W66940  36.528   7.936   2.376
95358W        W66941   6.575  35.018  14.228
95359W        W66942   3.097   4.633  11.899
95360W        W66943   9.509  39.415   3.455
95361W        W66944  15.888   7.896  12.692
95362W        W66945  39.528  44.441  12.610
95363W        W66946  29.231  10.594   4.847
95364W        W66947  15.117   9.123   1.512
95365W        W66948  28.625   0.963  13.925
95366W        W66949  35.170  39.573   4.210
95367W        W66950  26.687  26.023  13.530
95368W        W66951  13.430  33.595  13.881
95369W        W66952  36.332  28.164  12.045
95370W        W66953  16.640  25.701   2.157
95371W        W66954  31.332   0.504   2.817
95372W        W66955  17.957  30.488  11.782
95373W        W66956   1.005  23.406  11.095
95374W        W66957  38.373   7.648   5.066
95375W        W66958  33.421   9.399   3.097
95376W        W66959   5.389  40.640  13.280
95377W        W66960  40.073   9.046   5.258
95378W        W66961  18.754  44.734   0.230
95379W        W66962  17.856   7.010  11.986
95380W        W66963   8.980  15.758  14.471
95381W        W66964  30.148  26.217  11.081
95382W        W66965  36.464  15.188  10.601
95383W        W66966  19.351  19.814  11.928
95384W        W66967  10.375  10.318   1.359
95385W        W66968  19.047  30.976   4.977
95386W        W66969   7.856   4.012   0.103
95387W        W66970   2.628   6.963  11.326
95388W        W66971  22.173   1.842   1.287
95389W        W66972  14.853   3.359  11.945
95390W        W66973   9.844  40.494  12.276
95391W        W66974  41.076   5.319   4.315
95392W        W66975  23.729  38.396  14.466
95393W        W66976  13.087  23.464   1.561
95394W        W66977  23.261  17.019  11.867
95395W        W66978  17.189  14.068  11.195
95396W        W66979  17.756   3.505   2.508
95397W        W66980  36.022  21.547  13.990
95398W        W66981  21.110  22.646  11.542
95399W        W66982  13.527  15.786  14.067
95400W        W66983  28.142  44.951   0.931
95401W        W66984   9.287  37.356  13.282
95402W        W66985  31.299  34.527  14.411
95403W        W66986  26.012  37.995  14.933
95404W        W66987  34.646  39.945   2.686
95405W        W66988   2.867  14.351   1.488
95406W        W66989  29.194  33.581   5.123
95407W        W66990  21.056  32.534  13.152
95408W        W66991  44.954  27.967  13.075
95409W        W66992  32.873   4.298   3.139
95410W        W66993  13.402  44.356   2.331
95411W        W66994  43.325  22.320  11.628
95412W        W66995  30.214  41.543   4.290
95413W        W66996   5.122  28.472   0.523
95414W        W66997  26.200   4.292  13.043
95415W        W66998  11.676  44.492   4.747
95416W        W66999  22.736  20.095   3.582
95417W        W67000   3.691  31.106   2.754
95418W        W67001  35.073  19.320   0.680
95419W        W67002  13.093  40.015  12.096
95420W        W67003  12.695   8.732   0.468
95421W        W67004  43.995  42.444   2.461
95422W        W67005  42.574   9.167  11.420
95423W        W67006  13.811  24.424  11.598
95424W        W67007  34.768  38.521  10.672
95425W        W67008  40.381  32.556  13.782
95426W        W67009   0.734  17.855  13.864
95427W        W67010  12.819   4.249  11.120
95428W        W67011  43.602  18.954  11.065
95429W        W67012   9.787  40.656   2.876
95430W        W67013  39.990   2.315   1.049
95431W        W67014   8.373  36.043  10.392
95432W        W67015   5.237   5.733  11.282
95433W        W67016   6.402  10.874  13.148
95434W        W67017  14.651   9.184   3.728
95435W        W67018  29.606  43.388  14.346
95436W        W67019  36.408  28.415  14.380
95437W        W67020   2.203  41.040   1.227
95438W        W67021   3.501   2.330  12.095
95439W        W67022   0.772   7.787  14.557
95440W        W67023   3.405  25.702  13.782
95441W        W67024  18.555   9.504   1.465
95442W        W67025  25.522  27.361  11.016
95443W        W67026  32.172  35.799  10.736
95444W        W67027   1.695  23.191   4.173
95445W        W67028  35.501  34.069  13.047
95446W        W67029  32.034  16.939  13.169
95447W        W67030   0.116   0.564   2.896
95448W        W67031   2.353  17.659   4.190
95449W        W67032  34.059  14.223   1.882
95450W        W67033   9.273  36.242   1.230
95451W        W67034  18.982  22.109   2.146
95452W        W67035  22.468  23.761  10.866
95453W        W67036  41.121  17.739   3.839
95454W        W67037  26.404  33.011  13.956
95455W        W67038  42.440  25.435   4.213
95456W        W67039  24.513  33.352  13.857
95457W        W67040  26.251  12.814   2.740
95458W        W67041   2.075  27.038   1.443
95459W        W67042  18.548  34.467   1.898
95460W        W67043  41.475  27.381   0.663
95461W        W67044  37.433  37.972   1.356
95462W        W67045   7.792  18.664   3.303
95463W        W67046  26.187  44.935  13.107
95464W        W67047  30.192  26.638   3.421
95465W        W67048  39.037  20.212  10.434
95466W        W67049  22.170  19.847  12.012
95467W        W67050  29.241  31.229   1.344
95468W        W67051   2.189  21.491   4.260
95469W        W67052  27.724   7.773  10.672
95470W        W67053  10.212  43.802   1.955
95471W        W67054  35.066  30.842  13.494
95472W        W67055  35.456   3.987   1.283
95473W        W67056  23.500  26.747   3.678
95474W        W67057  15.208  42.542  13.425
95475W        W67058  32.438  42.285  11.098
95476W        W67059  14.307  21.809   2.352
95477W        W67060  43.377  40.559  12.872
95478W        W67061  19.088  36.961  12.447
95479W        W67062  22.227  10.460   1.006
95480W        W67063   2.263   3.346   4.613
95481W        W67064  15.253  30.673  13.926
95482W        W67065   5.974  37.131   3.838
95483W        W67066  20.559  11.728   0.333
95484W        W67067  32.548  12.790   0.666
95485W        W67068  10.824   1.000  12.962
95486W        W67069  22.552  28.611  14.494
95487W        W67070  40.879  23.407  12.966
95488W        W67071  21.068  31.650  11.499
95489W        W67072  15.214   2.721   4.228
95490W        W67073  12.252  37.356  12.523
95491W        W67074  33.722  32.596  13.838
95492W        W67075  33.530  26.948   1.458
95493W        W67076  44.923   6.627   3.681
95494W        W67077   6.668   8.359  11.535
95495W        W67078  13.407   5.862   2.642
95496W        W67079  34.845  40.920  12.854
95497W        W67080   5.715  30.409  14.331
95498W        W67081  31.936  26.587  10.533
95499W        W67082  42.498  33.994  11.053
95500W        W67083   9.457  18.123  12.396
95501W        W67084  40.444  25.684  10.276
95502W        W67085  34.234  40.046  13.816
95503W        W67086  14.394  24.027  10.796
95504W        W67087  24.818  37.170   1.732
95505W        W67088  38.150  43.021  13.478
95506W        W67089   1.754  11.581  14.853
95507W        W67090   1.993  39.100   3.295
95508W        W67091  19.190  21.432  12.894
95509W        W67092  36.339  42.413  13.011
95510W        W67093   0.358  17.604   1.481
95511W        W67094   0.912   4.213  11.530
95512W        W67095   9.756  14.878   2.169
95513W        W67096  13.823  42.331  14.617
95514W        W67097  16.132  38.841   2.819
95515W        W67098   7.764  31.487  12.184
95516W        W67099  12.652  16.248   4.947
95517W        W67100   2.711   7.719  14.562
95518W        W67101  25.276  14.725   4.685
95519W        W67102  29.620  28.059   2.926
95520W        W67103   2.902  36.141  14.300
95521W        W67104  24.521  15.351  13.323
95522W        W67105  27.035  36.544   1.826
95523W        W67106  14.294  30.721   2.106
95524W        W67107  32.783  12.741  10.867
95525W        W67108   1.214  19.554   2.409
95526W        W67109  17.091  42.169  10.760
95527W        W67110   0.951  44.219  12.025
95528W        W67111  14.594  40.697   0.429
95529W        W67112   6.418  12.284  11.390
95530W        W67113  21.734  36.546  14.807
95531W        W67114  23.641  15.818   0.493
95532W        W67115  25.588  43.865   2.946
95533W        W67116   0.361  29.521  14.698
95534W        W67117  32.526  23.997  14.256
95535W        W67118  38.943   4.967  13.080
95536W        W67119  42.458   8.781   0.854
95537W        W67120  21.634  19.456  14.362
95538W        W67121  25.528  10.188  13.982
95539W        W67122  12.956  38.420   1.784
95540W        W67123  27.089  13.297  12.869
95541W        W67124   5.940  32.905  13.402
95542W        W67125  24.220  27.224   2.210
95543W        W67126  12.360   2.969   1.652
95544W        W67127  21.937   4.433   1.420
95545W        W67128  23.946  40.894   1.845
95546W        W67129  14.054   9.625   3.163
95547W        W67130  33.899   2.734   3.280
95548W        W67131   8.429  35.527   0.809
95549W        W67132  26.992  29.920   2.314
95550W        W67133  44.552  13.644   1.626
95551W        W67134  16.692   0.514   3.213
95552W        W67135  25.727  42.366   0.474
95553W        W67136   3.504  15.730  12.587
95554W        W67137   2.773  32.014  14.353
95555W        W67138  18.577  27.872   0.302
95556W        W67139   3.017  44.695  11.649
95557W        W67140  29.263  29.229   2.899
95558W        W67141  15.067  36.114  11.512
95559W        W67142  30.347   0.729   2.697
95560W        W67143  34.407  43.059  13.482
95561W        W67144  33.374   4.854  11.167
95562W        W67145  27.765  43.503   1.662
95563W        W67146  15.741   8.588   2.902
95564W        W67147  30.441   4.043   4.358
95565W        W67148  22.686  39.515  11.518
95566W        W67149  10.050   1.918   1.519
95567W        W67150  24.427  11.329   1.869
95568W        W67151  14.112  16.409  11.552
95569W        W67152  17.670  28.401  11.180
95570W        W67153  42.740  33.998  10.573
95571W        W67154  30.876  33.492  11.554
95572W        W67155  28.153  34.472   0.278
95573W        W67156  38.923   2.517   2.920
95574W        W67157   4.887  34.152  12.162
95575W        W67158  26.571   7.615   4.945
95576W        W67159  30.673  36.228   0.803
95577W        W67160  12.620  36.722  11.583
95578W        W67161  26.030  24.426  11.621
95579W        W67162   9.212  31.352  14.967
95580W        W67163  10.093   9.076   2.354
95581W        W67164  12.299  14.771  13.323
95582W        W67165  20.173  32.105   2.430
95583W        W67166  42.566  15.397   1.329
95584W        W67167  23.111  31.936  11.357
95585W        W67168   2.863  30.511  10.543
95586W        W67169  43.750  42.927   3.737
95587W        W67170   6.605  30.021   0.122
95588W        W67171  41.531  39.667  10.319
95589W        W67172  17.794  13.247   2.667
95590W        W67173   5.964  12.347   0.477
95591W        W67174  19.742  25.571   3.075
95592W        W67175  12.546  38.318  12.353
95593W        W67176  19.184  30.052  12.195
95594W        W67177   3.474   7.299   3.176
95595W        W67178   1.278  32.180   3.540
95596W        W67179   6.483   5.347  11.202
95597W        W67180  21.751  18.416  10.460
95598W        W67181  12.056  43.943  12.856
95599W        W67182  10.415   2.981   1.825
95600W        W67183  28.914  13.695   3.657
95601W        W67184  19.509   4.354  14.757
95602W        W67185  39.018   4.828   2.603
95603W        W67186  27.170  26.213   1.223
95604W        W67187  40.905  21.745  11.534
95605W        W67188  44.546  32.188  13.493
95606W        W67189  35.856   8.295   4.502
95607W        W67190  30.504  38.862  10.794
95608W        W67191  36.904  36.121   1.229
95609W        W67192  25.646  39.105   3.301
95610W        W67193   7.927   6.823   3.180
95611W        W67194   7.698  28.132   3.732
95612W        W67195  39.497  42.031  14.999
95613W        W67196  43.894  11.045   2.391
95614W        W67197   4.462  24.320   0.798
95615W        W67198  14.842   3.849   1.274
95616W        W67199  35.010  32.119  10.669
95617W        W67200  43.394   0.900  12.537
95618W        W67201   9.344  30.364  14.856
95619W        W67202  27.672   3.186  11.570
95620W        W67203  39.053  28.946   3.177
95621W        W67204  10.871  32.766   0.904
95622W        W67205   7.198  13.149   4.062
95623W        W67206  33.781  33.536   3.255
95624W        W67207   4.777   8.747  12.205
95625W        W67208  19.234  15.688  10.292
95626W        W67209   3.734  13.825   1.861
95627W        W67210   4.343  36.041  12.384
95628W        W67211  42.139  23.309   0.865
95629W        W67212  24.750   9.370  12.533
95630W        W67213  40.778  14.128   3.243
95631W        W67214   6.368  37.850  12.019
95632W        W67215  29.186  20.957  11.128
95633W        W67216  20.441  33.689  13.963
95634W        W67217  12.075  42.164   3.944
95635W        W67218  15.344  32.689  13.366
95636W        W67219  18.756  32.867   1.488
95637W        W67220   9.235  42.384  13.614
95638W        W67221  21.466  37.569  14.695
95639W        W67222  23.796  14.657   4.094
95640W        W67223  41.996   3.186  12.577
95641W        W67224  32.045  44.759  12.841
95642W        W67225   5.114  41.602   2.808
95643W        W67226  28.417  27.211  12.309
95644W        W67227   0.896  22.627  12.788
95645W        W67228  26.927   9.167  13.314
95646W        W67229  40.622  38.417  11.081
95647W        W67230  41.258   4.677  12.964
95648W        W67231   8.869  18.962  12.470
95649W        W67232  37.411   8.189  12.919
95650W        W67233  10.120  29.977   2.291
95651W        W67234  19.904   6.711  12.850
95652W        W67235  30.546  31.727   3.612
95653W        W67236  44.933  12.177   3.825
95654W        W67237  38.008  30.191  13.294
95655W        W67238  36.786   7.249  12.355
95656W        W67239  20.126  22.349   4.519
95657W        W67240  27.191  24.500  11.414
95658W        W67241   4.173  27.161  14.513
95659W        W67242  37.117  23.289  14.894
95660W        W67243  26.155  24.316   2.361
95661W        W67244  22.683  15.405   4.353
95662W        W67245  19.732  29.336   2.701
95663W        W67246  15.147   4.304  14.481
95664W        W67247  33.270  17.534   3.593
95665W        W67248  44.735  27.069  13.267
95666W        W67249  20.263   2.068  12.337
95667W        W67250   2.366  11.608  10.733
95668W        W67251  17.580  22.811   0.927
95669W        W67252   8.639  41.512  12.976
95670W        W67253  35.099  16.412  11.579
95671W        W67254  34.003   7.777   4.453
95672W        W67255  26.938   3.688  13.198
95673W        W67256  42.947  26.176  11.536
95674W        W67257  43.818  36.146   1.776
95675W        W67258  33.637  28.583  10.693
95676W        W67259  42.273  33.057  14.953
95677W        W67260  23.487  28.490   4.058
95678W        W67261  13.711   9.636  13.508
95679W        W67262  27.184   2.940   2.906
95680W        W67263  31.026   6.627  11.171
95681W        W67264   9.679  29.160  12.633
95682W        W67265  20.292  35.308   4.125
95683W        W67266  16.338   2.125   3.678
95684W        W67267  30.065  26.751   1.240
95685W        W67268   0.478  17.214   0.665
95686W        W67269  36.600   6.300  14.858
95687W        W67270  23.141   7.908   9.671
95688W        W67271  29.938  30.913  12.882
95689W        W67272   9.288  17.251  11.201
95690W        W67273  30.950   4.273   3.132
95691W        W67274  43.701  36.044  12.448
95692W        W67275  32.006   9.142   3.759
95693W        W67276  21.543  30.485   1.319
95694W        W67277  22.882  14.795  11.758
95695W        W67278  20.545  33.676   3.186
95696W        W67279  15.710  23.406   1.543
95697W        W67280  39.506  29.523   1.756
95698W        W67281   4.190  30.690  13.832
95699W        W67282  26.884  16.976  11.559
95700W        W67283  41.961   4.175   4.683
95701W        W67284  27.351   1.500   0.512
95702W        W67285  29.394  37.842   1.759
95703W        W67286   0.519  31.255   2.145
95704W        W67287   7.265  12.237   2.281
95705W        W67288  41.571  22.349   4.568
95706W        W67289  16.509  13.667   2.841
95707W        W67290  17.880   6.796   0.364
95708W        W67291  28.608   8.575  12.016
95709W        W67292  27.391   2.476   2.725
95710W        W67293  32.130  12.848   0.996
95711W        W67294  40.929   5.683   0.379
95712W        W67295  30.856  43.368   0.421
95713W        W67296  37.099  33.658   0.992
95714W        W67297  35.124  28.994   0.681
95715W        W67298  12.456  16.661   2.014
95716W        W67299  32.144  15.090  14.719
95717W        W67300  19.087  17.826  13.218
95718W        W67301  31.004  29.428  12.929
95719W        W67302  14.225  19.528   3.601
95720W        W67303   7.815  25.903  11.217
95721W        W67304  32.154  42.043   2.859
95722W        W67305   6.650   5.911   1.459
95723W        W67306  22.431  35.767   1.318
95724W        W67307  35.921  29.560  13.599
95725W        W67308  36.968  23.178   1.215
95726W        W67309  21.199  34.134  12.638
95727W        W67310  30.170   9.815   2.671
95728W        W67311  32.539  24.454   2.871
95729W        W67312  35.123  31.598  10.740
95730W        W67313  12.611  42.081   2.694
95731W        W67314  34.558  19.653   2.737
95732W        W67315  13.791  27.438  10.753
95733W        W67316   3.991  35.006  10.629
95734W        W67317  23.617  33.385  13.373
95735W        W67318  22.153   3.049  12.885
95736W        W67319   2.395  16.845   4.663
95737W        W67320   8.691  25.588   0.031
95738W        W67321  31.731  32.033  10.687
95739W        W67322   0.937  19.343  11.207
95740W        W67323  15.213  28.798  13.061
95741W        W67324  30.065  21.576  14.858
95742W        W67325  23.040  38.505  13.801
95743W        W67326   0.316   4.783  12.558
95744W        W67327  27.744  20.046  11.640
95745W        W67328   3.420  11.181   0.825
95746W        W67329  21.791  40.004  13.924
95747W        W67330  30.454  24.130  12.174
95748W        W67331  25.043  42.302   1.226
95749W        W67332  33.528  13.342  11.428
95750W        W67333  27.874  30.823  12.162
95751W        W67334  31.558  22.241   2.346
95752W        W67335  24.277  42.466   1.850
95753W        W67336  18.933  17.856   2.789
95754W        W67337  23.924  20.578   4.666
95755W        W67338  27.865  29.432  12.819
95756W        W67339   1.845  23.682   4.924
95757W        W67340  30.136   7.560  11.920
95758W        W67341  42.766  39.795  11.668
95759W        W67342  19.345  43.777  13.818
95760W        W67343   6.965  23.700   2.662
95761W        W67344  42.738  38.156   0.726
95762W        W67345  42.070  42.013  12.917
95763W        W67346  16.224  32.616   2.847
95764W        W67347  31.902  27.175  11.148
95765W        W67348  38.841   4.725  12.230
95766W        W67349   0.476  37.825   2.354
95767W        W67350  12.425  42.636  14.921
95768W        W67351  22.972  38.852  14.516
95769W        W67352  35.514  37.524   1.870
95770W        W67353  33.974   9.682   1.481
95771W        W67354   5.640  13.290  14.401
95772W        W67355  12.608   0.304  12.480
95773W        W67356  38.683  33.074  12.242
95774W        W67357  21.715  35.642  12.839
95775W        W67358   4.429  43.796  13.556
95776W        W67359   5.959  18.425   0.954
95777W        W67360   5.241  12.603   3.125
95778W        W67361  24.019  10.243   1.826
95779W        W67362  19.251  43.989   3.205
95780W        W67363  16.816  41.065   3.219
95781W        W67364   4.411   4.253   2.307
95782W        W67365  14.071  25.589  14.884
95783W        W67366  40.755  40.472   0.912
95784W        W67367  42.351  36.149   0.426
95785W        W67368  21.146   6.460   3.312
95786W        W67369  41.981  21.251  11.983
95787W        W67370   2.786  13.865  11.508
95788W        W67371  24.539  38.808  14.327
95789W        W67372  28.350  42.418   0.340
95790W        W67373  39.315   9.310   4.725
95791W        W67374  44.976  29.098  11.342
95792W        W67375  44.958   8.366  12.088
95793W        W67376  43.787  16.494   0.893
95794W        W67377   6.692   5.471   3.527
95795W        W67378   1.039  26.166   2.185
95796W        W67379  39.530  19.973  14.417
95797W        W67380  23.681  13.108  14.916
95798W        W67381   3.253   2.363   0.435
95799W        W67382  14.312   4.481   3.577
95800W        W67383  33.197  26.678  14.914
95801W        W67384  43.732  32.589  10.679
95802W        W67385  33.027  22.577   0.060
95803W        W67386  16.633  29.051  10.583
95804W        W67387  33.438   7.422  12.658
95805W        W67388  10.386  36.293  11.511
95806W        W67389  22.619  16.024  12.034
95807W        W67390  20.119  43.382  14.267
95808W        W67391  23.681  19.975  12.109
95809W        W67392  20.685  35.425  11.557
95810W        W67393   0.763  14.335   1.746
95811W        W67394  36.844  38.936  11.125
95812W        W67395   9.149   9.180  14.363
95813W        W67396  22.616   5.526  12.620
95814W        W67397  28.710  43.676   2.262
95815W        W67398  32.383  21.378  11.652
95816W        W67399  24.602  38.383   1.460
95817W        W67400  32.327  27.617   3.803
95818W        W67401  15.132   9.247  14.533
95819W        W67402   9.927  28.028  13.435
95820W        W67403   3.666  39.054  10.619
95821W        W67404   9.748   8.591  12.421
95822W        W67405  18.771  22.510   4.303
95823W        W67406  26.542  17.124   0.535
95824W        W67407  10.657   7.231  14.316
95825W        W67408  30.419  23.677  12.448
95826W        W67409  38.577  24.239   3.720
95827W        W67410  11.753  25.929   0.054
95828W        W67411  26.219  32.644  12.428
95829W        W67412  14.102   6.576  11.135
95830W        W67413  39.839  13.092  12.519
95831W        W67414  34.204  28.957   1.459
95832W        W67415  31.125   7.366   1.749
95833W        W67416  18.283  12.365   2.698
95834W        W67417  18.831   4.210  13.248
95835W        W67418  30.011  39.714   3.257
95836W        W67419  11.978  27.315   3.371
95837W        W67420  15.657   6.781  14.031
95838W        W67421  15.830   3.814  11.481
95839W        W67422  11.079  26.434   1.430
95840W        W67423   5.348  19.207   4.360
95841W        W67424  33.596   0.516   4.966
95842W        W67425  28.316   9.132   4.574
95843W        W67426   6.339  25.737   2.393
95844W        W67427  42.339  41.995   4.160
95845W        W67428  26.200  12.428   1.877
95846W        W67429   9.688  24.239   4.590
95847W        W67430  41.446  35.446  14.015
95848W        W67431  27.641  43.270   4.252
95849W        W67432  10.366  44.003   2.908
95850W        W67433  15.332  11.896  13.470
95851W        W67434  41.077   8.845  14.071
95852W        W67435  15.175   5.691  13.037
95853W        W67436  14.321  24.057   1.622
95854W        W67437  26.760  15.475  13.418
95855W        W67438  16.198  41.734   0.878
95856W        W67439  27.554  19.211   4.613
95857W        W67440  29.463  29.268  11.674
95858W        W67441  27.916   4.404   0.903
95859W        W67442   7.789  32.102   4.152
95860W        W67443  29.627  30.439   1.485
95861W        W67444  32.599  29.086  11.103
95862W        W67445  12.588  22.567   1.308
95863W        W67446  22.462  27.593   2.851
95864W        W67447  12.035  34.361  10.728
95865W        W67448   8.966  29.696   2.875
95866W        W67449   6.490  34.990  12.428
95867W        W67450   5.235  10.262   3.742
95868W        W67451  28.571  28.648   3.736
95869W        W67452  14.981  25.711   0.052
95870W        W67453  39.595  36.782  12.064
95871W        W67454  20.633  35.816   0.233
95872W        W67455  42.966  37.696   0.810
95873W        W67456  21.042  23.520  11.749
95874W        W67457  12.435  40.853  11.656
95875W        W67458   8.727  20.180  12.323
95876W        W67459  43.985   0.305   0.398
95877W        W67460  36.867   3.223  10.662
95878W        W67461  28.500  31.429   1.518
95879W        W67462   7.752  34.802   1.732
95880W        W67463   7.211  20.166   4.612
95881W        W67464  18.000  22.855   4.244
95882W        W67465  27.968   5.874   4.538
95883W        W67466   6.637  21.815  13.497
95884W        W67467  10.931  16.154  12.474
95885W        W67468  24.935  27.206  14.503
95886W        W67469   1.365   1.274  14.864
95887W        W67470  39.012  21.041  11.589
95888W        W67471  40.414  26.696   3.711
95889W        W67472   4.339  12.080  11.612
95890W        W67473  28.808  23.152  13.127
95891W        W67474  20.326  38.338  11.479
95892W        W67475  28.942  19.945   4.544
95893W        W67476   0.173  36.538  11.027
95894W        W67477  35.331  25.477  11.765
95895W        W67478  32.730  10.831   4.102
95896W        W67479  33.644  35.880   9.920
95897W        W67480   1.382  32.190  10.117
95898W        W67481  37.559  23.066   1.680
95899W        W67482  10.705   1.998   0.987
95900W        W67483  38.005   3.880  11.615
95901W        W67484  13.429   7.847  12.414
95902W        W67485   8.430  41.765  12.104
95903W        W67486  21.376   3.264  13.394
95904W        W67487   6.343  26.719   0.926
95905W        W67488  29.102  36.838  14.441
95906W        W67489  20.195  31.448  14.571
95907W        W67490  43.492  22.062   2.808
95908W        W67491  34.751  33.006  12.019
95909W        W67492  41.936   6.861   2.349
95910W        W67493  25.440  27.700   4.132
95911W        W67494  40.998  31.457  11.018
95912W        W67495   0.411  29.274  11.657
95913W        W67496  20.580  14.532   3.704
95914W        W67497  24.638   3.244   2.528
95915W        W67498  42.103  10.306  11.069
95916W        W67499  32.085  42.302   4.663
95917W        W67500  35.969  32.321  13.449
95918W        W67501  13.389   0.143   4.810
95919W        W67502  40.570  34.901  13.846
95920W        W67503  20.658  39.022   3.669
95921W        W67504  41.934  26.019   1.721
95922W        W67505  14.847  40.311   3.310
95923W        W67506   0.458  33.965  13.543
95924W        W67507  18.630  43.949  11.494
95925W        W67508  37.316   9.134   4.344
95926W        W67509  28.945  44.340  12.148
95927W        W67510  26.231  22.127   2.732
95928W        W67511  10.622  10.801   2.184
95929W        W67512  42.290  18.367   1.984
95930W        W67513   9.771   5.405   4.239
95931W        W67514  33.581  11.114  11.226
95932W        W67515  24.328  31.461  11.595
95933W        W67516  29.608   4.627  10.804
95934W        W67517  13.869  10.288  14.913
95935W        W67518  42.809  18.956  11.698
95936W        W67519  42.558  22.725   2.069
95937W        W67520  17.290  26.249  14.322
95938W        W67521  12.831  18.120  12.427
95939W        W67522  38.231  31.384   0.424
95940W        W67523  25.677   9.825   4.892
95941W        W67524  39.716  39.279  11.725
95942W        W67525  40.965  34.339  11.624
95943W        W67526  43.426   0.828  14.840
95944W        W67527  41.921   6.908  12.431
95945W        W67528  34.322  39.981  11.421
95946W        W67529  15.189   3.461   2.948
95947W        W67530   4.521  10.329   0.800
95948W        W67531  40.015  37.023   1.256
95949W        W67532  16.506  38.875   1.938
95950W        W67533  13.633   6.755   4.604
95951W        W67534  33.066  11.660  13.941
95952W        W67535  28.148  40.342   0.377
95953W        W67536  20.240  23.022  13.366
95954W        W67537  34.488  32.487   1.417
95955W        W67538   0.882  28.967   3.850
95956W        W67539  25.765  36.967  14.989
95957W        W67540  13.516   1.396  13.359
95958W        W67541  26.361  40.301  14.068
95959W        W67542  44.419  37.060   3.682
95960W        W67543   5.228  42.291   0.812
95961W        W67544  18.692  21.142   5.168
95962W        W67545   8.215  26.419   3.864
95963W        W67546  29.419  29.977  13.929
95964W        W67547  39.970   2.234  13.370
95965W        W67548  33.499  16.813   4.510
95966W        W67549   5.024  19.211   1.405
95967W        W67550  34.922   0.275  12.090
95968W        W67551  41.065   0.786   0.940
95969W        W67552  42.666  28.106   0.682
95970W        W67553  11.219  43.583   4.582
95971W        W67554  22.638   6.571  12.482
95972W        W67555  34.124  25.196  12.428
95973W        W67556  33.117  22.579   4.688
95974W        W67557   7.518  26.020   1.027
95975W        W67558  36.113   1.279   4.623
95976W        W67559  37.324  26.084   2.343
95977W        W67560  27.662  33.536  11.912
95978W        W67561  11.794   9.542   3.370
95979W        W67562  11.200  29.910   0.866
95980W        W67563  39.918   6.982   1.241
95981W        W67564   1.170  33.625   0.323
95982W        W67565  21.484  15.745   3.835
95983W        W67566  18.250   5.262   1.031
95984W        W67567  30.984   0.135  11.759
95985W        W67568  41.846  20.862   4.194
95986W        W67569  10.261  31.903   5.022
95987W        W67570  42.511  14.286  11.907
95988W        W67571   3.368  31.804  10.522
95989W        W67572  14.192   9.414  13.277
95990W        W67573  34.914  11.553   1.899
95991W        W67574  37.162  30.253  13.412
95992W        W67575  20.584   2.411   0.744
95993W        W67576  31.058  10.897   2.238
95994W        W67577  17.129  27.047   2.022
95995W        W67578  32.036  15.518   1.215
95996W        W67579   6.892  20.050   2.759
95997W        W67580   3.695  42.266   0.023
95998W        W67581   5.525  31.594   2.439
95999W        W67582  13.799   1.954   0.737
96000W        W67583   6.176  33.373  12.457
96001W        W67584  14.602  27.206   4.589
96002W        W67585  36.987  39.488  12.004
96003W        W67586   6.981  33.177   3.762
96004W        W67587  22.020  44.504  12.907
96005W        W67588  30.729   4.325  12.596
96006W        W67589  21.652  30.563  10.938
96007W        W67590  32.375   0.961   1.246
96008W        W67591  11.591  10.901   3.754
96009W        W67592   9.178  42.632   0.767
96010W        W67593  28.315  19.028  14.762
96011W        W67594  19.798   0.005   3.752
96012W        W67595  42.268   8.614   0.404
96013W        W67596  32.182   0.468  10.310
96014W        W67597  35.904  32.667  14.893
96015W        W67598  21.722   7.863   3.392
96016W        W67599  29.169  41.647  13.812
96017W        W67600  35.895   4.979   1.840
96018W        W67601  33.983   5.149   0.379
96019W        W67602   2.737  35.652   0.343
96020W        W67603  42.228  25.194  11.973
96021W        W67604   4.664  14.103  13.336
96022W        W67605  26.620  27.597   2.758
96023W        W67606  15.278   4.149   3.680
96024W        W67607  19.046   2.818  10.654
96025W        W67608  38.923   4.475   1.401
96026W        W67609  13.179  36.803   2.839
96027W        W67610  11.815  44.442  14.974
96028W        W67611  14.765  27.672   4.082
96029W        W67612  29.078  10.544   1.581
96030W        W67613   0.243  23.899  13.466
96031W        W67614  37.827   7.639   2.421
96032W        W67615  13.632  36.523   4.884
96033W        W67616  15.978   7.481  11.967
96034W        W67617  42.445  18.108   3.699
96035W        W67618  41.568   0.236  11.975
96036W        W67619  14.445   1.259   3.710
96037W        W67620  27.972  42.078  10.996
96038W        W67621  30.892  42.953  10.612
96039W        W67622  24.391  28.632   2.177
96040W        W67623  42.412  38.318  13.982
96041W        W67624  36.323  23.541   3.578
96042W        W67625   0.451  40.806   2.505
96043W        W67626  26.258   6.540   1.455
96044W        W67627  24.995  11.773   0.635
96045W        W67628  43.096  33.506   1.754
96046W        W67629  20.994  16.310  14.934
96047W        W67630  32.374  23.879  13.374
96048W        W67631  22.026   3.773   1.849
96049W        W67632   5.144  25.541  10.657
96050W        W67633  30.408   4.500   1.712
96051W        W67634  38.545  30.083   2.735
96052W        W67635  12.239  17.020   0.343
96053W        W67636   0.458  15.215   2.737
96054W        W67637  15.180   4.723  12.564
96055W        W67638  39.397  26.402   0.469
96056W        W67639  14.001  36.836  11.473
96057W        W67640  40.415  20.076   4.866
96058W        W67641  37.553  31.401  10.610
96059W        W67642  13.386  40.610  13.465
96060W        W67643  11.138   4.398  10.690
96061W        W67644  18.723  38.090   2.364
96062W        W67645   6.817   0.311  13.479
96063W        W67646  39.118  34.925   0.467
96064W        W67647  23.694  44.956   3.231
96065W        W67648   9.578  28.600   0.951
96066W        W67649  33.853  23.097   3.684
96067W        W67650  43.205  40.852  14.860
96068W        W67651  10.342  37.502   2.382
96069W        W67652  27.277  19.066  10.691
96070W        W67653  24.631  24.540   0.445
96071W        W67654  15.840  43.019  14.204
96072W        W67655   6.948  36.210   0.423
96073W        W67656   4.768  16.690   3.681
96074W        W67657  31.128  11.761  14.525
96075W        W67658  43.332  38.955  11.596
96076W        W67659   9.086  40.987   2.361
96077W        W67660  10.509   9.364   4.383
96078W        W67661  26.732  11.002  12.727
96079W        W67662  15.564  29.967   3.185
96080W        W67663  29.678  13.610   4.062
96081W        W67664  44.714  26.835  12.309
96082W        W67665  21.931   6.189   0.778
96083W        W67666  35.385  28.240   1.068
96084W        W67667  40.290  37.948   2.721
96085W        W67668  37.242  26.637  13.048
96086W        W67669   7.875   8.859  12.975
96087W        W67670   2.892  29.384  11.722
96088W        W67671   9.702   4.209   3.346
96089W        W67672  27.967  15.327  10.713
96090W        W67673  41.430   7.190  13.324
96091W        W67674  17.347  39.982   3.308
96092W        W67675  32.801  31.928  11.699
96093W        W67676  21.005  37.843   1.435
96094W        W67677  39.835  29.581  14.861
96095W        W67678   6.350  15.881  14.814
96096W        W67679  19.228  36.513   0.981
96097W        W67680  39.282   5.343  14.524
96098W        W67681  27.726  18.607  13.031
96099W        W67682  16.587  43.917  12.600
96100W        W67683  13.330   0.231  13.053
96101W        W67684  30.125  20.651  10.162
96102W        W67685  14.376  31.971   4.126
96103W        W67686  24.057  27.460   4.092
96104W        W67687  24.179  21.538   4.146
96105W        W67688  24.011  40.531  13.332
96106W        W67689   7.154  41.361   3.370
96107W        W67690  28.512  17.526   4.130
96108W        W67691  11.206  26.663  13.732
96109W        W67692  35.752  42.861   4.314
96110W        W67693   5.359  12.264  14.807
96111W        W67694  33.650  42.784  11.027
96112W        W67695  12.200  30.092  10.787
96113W        W67696  12.668  26.943  11.338
96114W        W67697  10.125  15.116   3.627
96115W        W67698  15.240  13.565  13.441
96116W        W67699   5.354   5.535   1.781
96117W        W67700  36.883  21.160  14.961
96118W        W67701   4.776   7.286  11.285
96119W        W67702  33.848  22.187  14.299
96120W        W67703  24.933  11.284   1.893
96121W        W67704  25.966  24.013  10.670
96122W        W67705  20.294  37.041  14.291
96123W        W67706  42.444  36.772  14.464
96124W        W67707   8.991  26.023  13.455
96125W        W67708  11.164  19.779  14.301
96126W        W67709   2.835  20.156  11.286
96127W        W67710  44.331  24.024   1.894
96128W        W67711  11.760  17.774  14.791
96129W        W67712  43.572  31.829  14.956
96130W        W67713  23.167  15.388   3.159
96131W        W67714  35.892  27.128   2.111
96132W        W67715  27.768   7.975   2.922
96133W        W67716  32.394  36.287  12.022
96134W        W67717  30.354  17.592  11.167
96135W        W67718  44.785  41.506   0.020
96136W        W67719   7.616  27.983   4.231
96137W        W67720  23.093   2.956  11.942
96138W        W67721  41.841   1.525   1.882
96139W        W67722   2.463  40.479   3.337
96140W        W67723   4.465  33.001  11.666
96141W        W67724  42.819  24.236  14.103
96142W        W67725  26.755  39.444  13.743
96143W        W67726  24.041  43.934  13.399
96144W        W67727  20.513  17.286   2.280
96145W        W67728  39.828  26.094   4.763
96146W        W67729  41.980  26.721   4.567
96147W        W67730  39.022   0.787   0.991
96148W        W67731  14.542  10.329   2.030
96149W        W67732  15.359   7.273  11.550
96150W        W67733  41.063   3.815   2.647
96151W        W67734  31.350  44.694  13.246
96152W        W67735  29.335  21.114   1.493
96153W        W67736   7.359  19.102   4.564
96154W        W67737   2.892  10.996  13.246
96155W        W67738  41.649  27.068   3.123
96156W        W67739   9.813  20.343   4.982
96157W        W67740  43.015  44.906   2.339
96158W        W67741   9.936   1.877   3.401
96159W        W67742   5.959  19.331  13.431
96160W        W67743  34.479  17.025  14.756
96161W        W67744  38.071   1.949   3.773
96162W        W67745  12.542  18.800   3.768
96163W        W67746   1.808  13.648   3.792
96164W        W67747  12.852  42.734   0.754
96165W        W67748  10.093  28.669   1.721
96166W        W67749  11.835  27.258  12.882
96167W        W67750  21.256  21.581  14.734
96168W        W67751   2.849  20.662   4.800
96169W        W67752  37.072  15.817   1.731
96170W        W67753  14.512  44.624  11.606
96171W        W67754  36.016  22.352   2.969
96172W        W67755  33.868  41.124  12.043
96173W        W67756  14.198  26.179   0.851
96174W        W67757  26.223  23.520  14.108
96175W        W67758  14.745  12.846  11.122
96176W        W67759   1.519  40.737  10.943
96177W        W67760   8.423  36.990  10.723
96178W        W67761  40.576  32.952   1.324
96179W        W67762  11.060  11.086  14.610
96180W        W67763  35.072  14.171   0.934
96181W        W67764  35.823  12.673  11.866
96182W        W67765  13.690  40.229   4.114
96183W        W67766  23.646  29.159   4.723
96184W        W67767  18.512  19.692   4.057
96185W        W67768  40.292   5.358   1.933
96186W        W67769  31.803  27.993  12.493
96187W        W67770   7.359  36.978  12.495
96188W        W67771  10.287  22.603   0.260
96189W        W67772   5.584  32.098  11.528
96190W        W67773  27.680  26.626   0.430
96191W        W67774   9.650  33.975  14.325
96192W        W67775  19.809  28.573   3.281
96193W        W67776   7.346  25.440  11.525
96194W        W67777  36.879   9.139  14.517
96195W        W67778  32.571  40.224   1.197
96196W        W67779  14.511  15.770   1.418
96197W        W67780  20.061  17.042   2.777
96198W        W67781   6.457   4.573  14.253
96199W        W67782  15.571  27.671  14.692
96200W        W67783  18.064  29.441   2.279
96201W        W67784  32.826   9.403   2.187
96202W        W67785   0.064  38.596  11.949
96203W        W67786  40.625  10.225   5.375
96204W        W67787  24.431  18.506  14.715
96205W        W67788  36.526  35.560  14.242
96206W        W67789   6.407  37.919  14.129
96207W        W67790  14.623   5.989   0.078
96208W        W67791  20.795  17.975   0.495
96209W        W67792   2.158   6.199   2.908
96210W        W67793   4.264  26.212  14.501
96211W        W67794  41.006  40.329  14.416
96212W        W67795  37.487   0.960   4.911
96213W        W67796   0.297   5.668   1.717
96214W        W67797  41.837  15.987   4.058
96215W        W67798  40.151  28.253  11.798
96216W        W67799  27.098   3.037   3.470
96217W        W67800  41.412  44.743  11.082
96218W        W67801   7.314  30.651   4.804
96219W        W67802   2.426   3.478  14.934
96220W        W67803  32.683  33.612  12.028
96221W        W67804   6.939  36.058   4.685
96222W        W67805   3.739  37.448  13.407
96223W        W67806  24.696  28.947   1.878
96224W        W67807  25.158   3.997   5.002
96225W        W67808  27.517  40.713   3.588
96226W        W67809  35.642  34.363  12.632
96227W        W67810   1.265   2.490  13.747
96228W        W67811  22.870  17.656  10.248
96229W        W67812  24.729  19.952  12.992
96230W        W67813   8.808  35.015   2.574
96231W        W67814   3.191  33.443  11.766
96232W        W67815  43.489  38.837   0.688
96233W        W67816   5.247  38.996  13.954
96234W        W67817  40.681  23.077   1.134
96235W        W67818  25.664  38.046   3.320
96236W        W67819   4.782  33.692   5.024
96237W        W67820  11.906  12.711   1.427
96238W        W67821  23.030   6.967   3.260
96239W        W67822   7.792  26.428   4.584
96240W        W67823  25.756   0.884   2.270
96241W        W67824  12.509  16.799   3.668
96242W        W67825   1.026  38.583  12.269
96243W        W67826  20.029  39.736  12.008
96244W        W67827  39.269  25.023  11.588
96245W        W67828  37.923  33.604   3.811
96246W        W67829   9.397   7.813  12.863
96247W        W67830   8.124   7.491  14.828
96248W        W67831   3.000  37.562  11.522
96249W        W67832  24.963  39.334  10.694
96250W        W67833   7.902  43.722   3.580
96251W        W67834  31.578  35.483   4.163
96252W        W67835  31.760  40.504   1.215
96253W        W67836  32.555  29.887  11.945
96254W        W67837   3.991  43.324  10.634
96255W        W67838   6.834  41.105   4.358
96256W        W67839  35.515  20.059   0.402
96257W        W67840  24.639  24.440   1.427
96258W        W67841  17.803  20.970  14.891
96259W        W67842  24.825  32.234  11.117
96260W        W67843  27.082  32.021  12.973
96261W        W67844  15.864   3.255   1.856
96262W        W67845  44.760  34.812   0.246
96263W        W67846   8.887  17.816  10.661
96264W        W67847  11.885   8.285  11.258
96265W        W67848  38.376  22.075  12.245
96266W        W67849   2.338   3.308   2.881
96267W        W67850   0.927  31.387  13.024
96268W        W67851  36.875  19.374   1.268
96269W        W67852  33.617  26.926   2.740
96270W        W67853  10.095  14.332   1.645
96271W        W67854  23.693  15.724   0.998
96272W        W67855   6.823  41.785   2.249
96273W        W67856  20.361   4.728  14.557
96274W        W67857  22.947  10.856   2.337
96275W        W67858  25.501  42.564  11.082
96276W        W67859  19.166  40.808  11.923
96277W        W67860   6.597  39.070   9.748
96278W        W67861  36.939   4.167   2.288
96279W        W67862  30.476  34.581  14.735
96280W        W67863  12.944   7.807  12.585
96281W        W67864  16.101   7.554  13.320
96282W        W67865   2.349  16.174   1.015
96283W        W67866  22.524  15.250  12.977
96284W        W67867  26.581  18.480  12.296
96285W        W67868  44.915  39.403  13.803
96286W        W67869  32.507  33.120   0.183
96287W        W67870   6.795  17.504  11.825
96288W        W67871  24.794  41.320  12.201
96289W        W67872  40.472  31.606   2.928
96290W        W67873  11.893  18.466  14.300
96291W        W67874   4.236  17.336  14.225
96292W        W67875   9.442  20.136   2.226
96293W        W67876  17.847  39.323   4.513
96294W        W67877   8.249  30.706  11.616
96295W        W67878  34.340  21.272   0.853
96296W        W67879  26.991   3.780  10.787
96297W        W67880   3.459  30.600   2.702
96298W        W67881   9.552  11.671  14.868
96299W        W67882   1.861  37.212  11.302
96300W        W67883  27.478  33.372  12.941
96301W        W67884   2.951  32.145  11.593
96302W        W67885   3.423  36.571  14.059
96303W        W67886   4.769  17.759   0.780
96304W        W67887  42.370  40.096  11.920
96305W        W67888  33.047  43.547   0.490
96306W        W67889  23.769  33.689   1.821
96307W        W67890  22.050  20.255  12.441
96308W        W67891  31.548  43.293   4.064
96309W        W67892  16.507  30.149   0.318
96310W        W67893  35.873  15.777  14.861
96311W        W67894  26.677  19.059  11.548
96312W        W67895  40.990   8.386   0.522
96313W        W67896  21.171   7.100  11.176
96314W        W67897   3.949  27.322  13.572
96315W        W67898  17.780  26.926   1.745
96316W        W67899  31.674  44.053   3.226
96317W        W67900  28.436  32.117  10.737
96318W        W67901  13.540   6.871  13.385
96319W        W67902  29.007  29.220   2.461
96320W        W67903  39.570  35.619   4.137
96321W        W67904  17.059  39.263   4.365
96322W        W67905  37.836   3.438  10.718
96323W        W67906  23.481   2.844   4.907
96324W        W67907  21.298  11.110  10.734
96325W        W67908  25.432  26.051   2.652
96326W        W67909   8.418  30.229   4.979
96327W        W67910  38.983  27.449   3.677
96328W        W67911  22.481   5.238   3.467
96329W        W67912  32.260  33.015  12.466
96330W        W67913  12.351  24.763  14.872
96331W        W67914  26.079  27.927   2.341
96332W        W67915  15.165   1.956   2.427
96333W        W67916  28.998  20.939  13.428
96334W        W67917   7.378   5.241   2.295
96335W        W67918  20.143  33.853  14.908
96336W        W67919  29.938  42.325   4.432
96337W        W67920  34.141   8.295   3.794
96338W        W67921  23.158  19.628  12.433
96339W        W67922  41.829   1.722   0.708
96340W        W67923  33.261   8.846  10.250
96341W        W67924  16.567   9.346  13.360
96342W        W67925  37.132  24.604  12.394
96343W        W67926  21.243  34.446   4.633
96344W        W67927  44.788  12.310   0.397
96345W        W67928  30.278  11.928   3.599
96346W        W67929  29.070  13.543   0.017
96347W        W67930  23.227  35.435   4.549
96348W        W67931   4.359   0.873   2.226
96349W        W67932  22.647  28.907   5.460
96350W        W67933  31.016  33.973  11.469
96351W        W67934  21.594  41.911   2.854
96352W        W67935  23.485  25.169   1.122
96353W        W67936  24.285   2.918   1.811
96354W        W67937   0.543  32.510   2.317
96355W        W67938  30.517  12.611  11.185
96356W        W67939  31.352  27.596   2.868
96357W        W67940   9.809  18.503   1.376
96358W        W67941  42.362  15.170  13.604
96359W        W67942  33.559  36.796   1.469
96360W        W67943  10.464  43.222  13.075
96361W        W67944  38.709  24.020   4.175
96362W        W67945  20.488  41.246   2.379
96363W        W67946  17.218  15.486  13.847
96364W        W67947  24.077  19.523   0.989
96365W        W67948  19.606  40.412   0.260
96366W        W67949  33.921  31.059   2.472
96367W        W67950   1.441  11.680  11.625
96368W        W67951   2.160  19.243   3.304
96369W        W67952  15.971   7.854   0.509
96370W        W67953  32.037   8.621   2.295
96371W        W67954  23.045  12.672  11.580
96372W        W67955  12.251  34.388  12.994
96373W        W67956   3.404  41.117  13.850
96374W        W67957   4.183  34.481   0.359
96375W        W67958   5.167   9.283  13.362
96376W        W67959  15.317  11.379  13.408
96377W        W67960  39.001  42.166  13.063
96378W        W67961   1.454  22.657  11.765
96379W        W67962  29.877   5.326   3.745
96380W        W67963  15.190  21.590   4.545
96381W        W67964  18.373  41.850  14.931
96382W        W67965   8.332  30.821   0.428
96383W        W67966  20.086  29.576   4.120
96384W        W67967  22.149  14.743   4.141
96385W        W67968   4.294  19.488   3.197
96386W        W67969   8.552  31.597   0.817
96387W        W67970  11.027  40.039   4.092
96388W        W67971  16.506  14.745  12.562
96389W        W67972  16.789  21.637   4.789
96390W        W67973  17.300  17.594   2.215
96391W        W67974  25.696  17.046   4.624
96392W        W67975  22.523  24.054  14.971
96393W        W67976   9.772  36.330   1.367
96394W        W67977   1.190  17.166  13.579
96395W        W67978  31.340  42.277   4.281
96396W        W67979   1.987  10.265  11.886
96397W        W67980   2.918  23.989   0.012
96398W        W67981  20.161  32.048  10.546
96399W        W67982  22.854  12.697  12.078
96400W        W67983   1.887  31.459  11.214
96401W        W67984  37.588  15.647   1.751
96402W        W67985  36.057  42.658  11.755
96403W        W67986  33.122  23.105  13.884
96404W        W67987  40.744  24.531   3.711
96405W        W67988   5.808  13.062  14.900
96406W        W67989  24.242  33.967   1.750
96407W        W67990  29.237   6.014   3.442
96408W        W67991  21.975  13.823  12.588
96409W        W67992  21.183  17.696  14.730
96410W        W67993  43.364  15.024   1.931
96411W        W67994   4.725   2.945   0.832
96412W        W67995  26.038   9.371  12.946
96413W        W67996  36.551  11.226  10.567
96414W        W67997  28.086   0.930  13.872
96415W        W67998  15.106   2.216   4.244
96416W        W67999   0.283  37.169   4.184
96417W        W68000   8.357  20.770   2.739
96418W        W68001  41.452  29.699  10.530
96419W        W68002  25.437  23.904   0.233
96420W        W68003   3.003   1.824   0.186
96421W        W68004  15.133  16.703   4.166
96422W        W68005  25.693  16.489  11.360
96423W        W68006  12.102  11.622   4.905
96424W        W68007  14.044   3.545  13.561
96425W        W68008   2.428  27.680  13.435
96426W        W68009  12.965  31.129   3.373
96427W        W68010  16.310  42.733   2.934
96428W        W68011  35.575  16.723  11.227
96429W        W68012  10.661   2.507   0.864
96430W        W68013  27.552  42.379  14.766
96431W        W68014  30.187  14.078   3.312
96432W        W68015   0.697  43.303   2.252
96433W        W68016   5.874  37.058   1.721
96434W        W68017  26.639  36.048   4.661
96435W        W68018  13.502  12.471  12.644
96436W        W68019  33.954  19.479  11.398
96437W        W68020  33.412  27.270  12.015
96438W        W68021   6.329  23.080   3.306
96439W        W68022  37.805  28.243  13.436
96440W        W68023  37.083  23.200   2.590
96441W        W68024   7.943   1.642  13.502
96442W        W68025  32.099   7.423  14.795
96443W        W68026   9.673  22.076  14.768
96444W        W68027  19.122   5.974  12.510
96445W        W68028  15.179  34.328   0.367
96446W        W68029   4.275  21.215   3.789
96447W        W68030  35.568  24.632   4.205
96448W        W68031   3.341  41.999   2.773
96449W        W68032  25.485   5.982  12.967
96450W        W68033   5.491  39.391   2.839
96451W        W68034  12.877  30.993   4.267
96452W        W68035  13.249  19.687  13.444
96453W        W68036   9.792  18.790  10.497
96454W        W68037   7.683   8.558  10.829
96455W        W68038  21.716  40.778   3.274
96456W        W68039   3.721  15.412   4.666
96457W        W68040  33.459  44.598   5.118
96458W        W68041   2.364  39.209  11.188
96459W        W68042  36.743  31.560  12.183
96460W        W68043  18.666  12.227  11.875
96461W        W68044  20.649   7.794  14.813
96462W        W68045  34.812  23.622   2.220
96463W        W68046  14.856  43.825   0.346
96464W        W68047  25.563  12.878  11.129
96465W        W68048  29.745   9.348   3.333
96466W        W68049  33.024   9.384  14.896
96467W        W68050  15.676  10.693   4.125
96468W        W68051   4.301  30.509   0.595
96469W        W68052  40.956  36.290  14.335
96470W        W68053  19.093  44.250   1.810
96471W        W68054   9.773  13.461  11.103
96472W        W68055   1.243  12.939  14.911
96473W        W68056  33.914  25.723  14.206
96474W        W68057   8.832  16.581  13.029
96475W        W68058   9.445  25.166  12.148
96476W        W68059  25.646  13.650  12.571
96477W        W68060  27.125   5.266  14.028
96478W        W68061  12.757   5.009  13.808
96479W        W68062  40.299  20.453  11.551
96480W        W68063  21.663   1.762   1.445
96481W        W68064  23.667  34.907   2.325
96482W        W68065  29.528  31.412   4.514
96483W        W68066  40.367   7.943   5.084
96484W        W68067  37.034  41.893   1.864
96485W        W68068  40.458  43.120   2.291
96486W        W68069  35.839  28.156  11.892
96487W        W68070   8.863  16.994  11.009
96488W        W68071  30.390  15.004  12.330
96489W        W68072  17.035  36.875  14.789
96490W        W68073  13.711   9.211  13.177
96491W        W68074  40.444  43.199  13.314
96492W        W68075   7.144   0.859  11.639
96493W        W68076   4.780  27.502  13.003
96494W        W68077  28.883  37.796   3.213
96495W        W68078  33.539  31.998  11.132
96496W        W68079  23.663  40.464  12.044
96497W        W68080  42.422  31.405   4.611
96498W        W68081  23.204   9.074   4.198
96499W        W68082  15.294  20.513  14.824
96500W        W68083  18.073  14.518   1.240
96501W        W68084  42.006  37.034   2.191
96502W        W68085  41.975  29.953   3.335
96503W        W68086  33.421   8.894   5.036
96504W        W68087  13.905  23.205   4.155
96505W        W68088   1.945  16.687  12.490
96506W        W68089  11.258   6.686   2.115
96507W        W68090  37.115  18.227   3.294
96508W        W68091  36.706  14.295  14.793
96509W        W68092  32.460  16.649   0.408
96510W        W68093  16.347   7.640   2.265
96511W        W68094  22.778  39.062  11.268
96512W        W68095  26.760  39.501   0.921
96513W        W68096  21.544  23.460  11.566
96514W        W68097  42.979  32.291  11.136
96515W        W68098   4.493   2.707   0.401
96516W        W68099   1.826  18.775  12.529
96517W        W68100   4.452  23.843  12.566
96518W        W68101  23.095   9.285  14.860
96519W        W68102  12.199  37.437   4.341
96520W        W68103   4.843  10.944   1.853
96521W        W68104  44.032  34.849   4.482
96522W        W68105  20.171   8.212   2.786
96523W        W68106  28.083  12.958   0.939
96524W        W68107  35.706  24.500   2.595
96525W        W68108  14.161  28.573  12.115
96526W        W68109  24.077  36.942   4.530
96527W        W68110  11.998  41.138   1.925
96528W        W68111   2.889  43.036   0.535
96529W        W68112  38.073  13.263  11.095
96530W        W68113  24.046  15.322   0.576
96531W        W68114  39.284  41.415   3.618
96532W        W68115  40.276  16.315  13.035
96533W        W68116   9.210  13.225   0.077
96534W        W68117  32.384   6.167   3.586
96535W        W68118  43.836  41.343  12.023
96536W        W68119  21.859  30.951  11.656
96537W        W68120  35.862  30.033   0.980
96538W        W68121  15.879  18.528  10.285
96539W        W68122   5.187  17.635   2.260
96540W        W68123  23.022  18.347  10.688
96541W        W68124  14.816  13.375   2.579
96542W        W68125  23.473  30.912  12.928
96543W        W68126  32.535   3.943  10.369
96544W        W68127  17.238   7.701  11.532
96545W        W68128  41.717   6.275   9.661
96546W        W68129  19.165   6.934   0.427
96547W        W68130  38.529   2.233   1.295
96548W        W68131   5.566   2.776   3.040
96549W        W68132  18.587  36.282   0.958
96550W        W68133  22.103  44.982   2.619
96551W        W68134  20.553   4.732   2.641
96552W        W68135  32.176   1.374  10.755
96553W        W68136  32.376  44.318  13.869
96554W        W68137   2.113  26.037  12.666
96555W        W68138  34.614  19.902  12.916
96556W        W68139  27.047  43.896   0.264
96557W        W68140  30.862  21.526   1.264
96558W        W68141   4.156  44.975   0.806
96559W        W68142  41.260   1.701   0.736
96560W        W68143  28.021  33.864   4.448
96561W        W68144  41.890  32.327   2.957
96562W        W68145  30.259  34.447  10.963
96563W        W68146  34.968   7.523  11.462
96564W        W68147  28.197  38.576  13.432
96565W        W68148   9.443  43.376   0.411
96566W        W68149  19.355  18.306   3.966
96567W        W68150  43.224  35.305  12.338
96568W        W68151  17.462  15.666   3.458
96569W        W68152  25.588  27.557   0.510
96570W        W68153   9.464  11.082   3.385
96571W        W68154  19.281  30.528  12.406
96572W        W68155   5.356   1.902   4.511
96573W        W68156  37.118   9.454  11.056
96574W        W68157  18.939  25.176   3.338
96575W        W68158  14.671  22.243   3.322
96576W        W68159  43.442  14.850   2.936
96577W        W68160   8.878  22.171   1.116
96578W        W68161  38.459  44.143  11.036
96579W        W68162  43.508   5.991  12.991
96580W        W68163   9.798  22.532   0.016
96581W        W68164  33.343   6.991  13.010
96582W        W68165  38.842  34.057   0.842
96583W        W68166  37.640   7.115  11.077
96584W        W68167   7.736  21.738  14.397
96585W        W68168   0.308  30.657   3.732
96586W        W68169  22.132  23.727  14.317
96587W        W68170  21.798  44.828  12.484
96588W        W68171  38.840  28.027  10.645
96589W        W68172  22.482  43.473   1.213
96590W        W68173  40.582  26.700  10.313
96591W        W68174  30.918   2.919   4.144
96592W        W68175  23.535  24.511   2.376
96593W        W68176  27.647  25.103   1.862
96594W        W68177  26.034  44.452  14.928
96595W        W68178  39.895  37.364  12.419
96596W        W68179   3.004  21.591   1.567
96597W        W68180   6.161  24.775  13.545
96598W        W68181  16.728  16.008  10.476
96599W        W68182  37.026  41.994  14.331
96600W        W68183  32.176  13.159   0.569
96601W        W68184  35.518  30.686  11.770
96602W        W68185  20.439  24.020  13.829
96603W        W68186   9.753  37.488  10.972
96604W        W68187  34.728  10.505  11.597
96605W        W68188  30.420  22.282  10.159
96606W        W68189   1.602  37.319   5.419
96607W        W68190  33.761  22.776  14.679
96608W        W68191  44.850  18.320  14.100
96609W        W68192  37.536  34.371   2.449
96610W        W68193  38.056  39.284   3.700
96611W        W68194  37.020  34.944   0.687
96612W        W68195  21.099  19.424   4.965
96613W        W68196   8.956   2.383   4.271
96614W        W68197  43.579   8.349  14.931
96615W        W68198  30.711   6.242  12.827
96616W        W68199   0.871   7.736   3.688
96617W        W68200  31.939  42.590   4.250
96618W        W68201  43.227  32.673  10.728
96619W        W68202  38.356  14.186   4.179
96620W        W68203  15.304   4.722   1.797
96621W        W68204  44.306  18.258  11.455
96622W        W68205  31.231  27.446  14.496
96623W        W68206  40.441  19.596  11.185
96624W        W68207  10.752  10.680  13.876
96625W        W68208  24.660   3.005  11.727
96626W        W68209  32.432  12.180   2.045
96627W        W68210   7.724  22.477   4.694
96628W        W68211   5.992  17.096  11.035
96629W        W68212  10.857  32.642  11.114
96630W        W68213  24.132  44.723  13.855
96631W        W68214  24.257  42.516   0.361
96632W        W68215  33.603  44.322   3.132
96633W        W68216   0.702  16.832  12.900
96634W        W68217  12.788  41.543   4.004
96635W        W68218  39.931  38.908  14.275
96636W        W68219  19.039  26.459   1.879
96637W        W68220  20.483  41.397   3.206
96638W        W68221  34.460  18.512   3.224
96639W        W68222   8.080   2.679  13.930
96640W        W68223  35.804  17.303  14.864
96641W        W68224   6.379  19.083   1.198
96642W        W68225   5.459   7.280   0.422
96643W        W68226  13.381  16.684   0.838
96644W        W68227   2.662  13.357  10.712
96645W        W68228   6.993   1.374  12.639
96646W        W68229  16.754  44.821   2.245
96647W        W68230  43.928   0.392   2.446
96648W        W68231  16.884   1.276  12.475
96649W        W68232  26.999  36.890  13.995
96650W        W68233  31.657  19.591   9.632
96651W        W68234  36.065  29.098  11.854
96652W        W68235  19.996  37.439   3.703
96653W        W68236  31.982   9.255  12.249
96654W        W68237   0.220  24.093  14.778
96655W        W68238  37.470  25.755  13.583
96656W        W68239   7.957  44.779  12.029
96657W        W68240  38.330  31.434   3.375
96658W        W68241  28.103  21.683  12.173
96659W        W68242  26.807  14.639   3.156
96660W        W68243  40.686  14.395  10.891
96661W        W68244  19.638  14.327  11.976
96662W        W68245  33.517  43.422  12.571
96663W        W68246  19.208  16.892   2.914
96664W        W68247   3.967  26.544  10.611
96665W        W68248   8.179  41.609   3.964
96666W        W68249   2.980   0.287  11.067
96667W        W68250  31.003  37.392   1.751
96668W        W68251   9.711  30.702   0.427
96669W        W68252  40.426  23.239   0.722
96670W        W68253  43.954  30.608   4.142
96671W        W68254  39.575  15.638  10.665
96672W        W68255  39.882  20.683   4.869
96673W        W68256  29.082  15.488  12.036
96674W        W68257  37.777  21.505  11.218
96675W        W68258   1.895  41.025  11.701
96676W        W68259  13.606  28.468  11.544
96677W        W68260   7.859   8.538   4.638
96678W        W68261  25.661  33.656   4.811
96679W        W68262  40.287  37.066  11.536
96680W        W68263   7.384  12.569  13.444
96681W        W68264  24.243   4.863  14.482
96682W        W68265  44.970  30.700  13.041
96683W        W68266  35.094  26.095  14.481
96684W        W68267  20.230  29.795   0.296
96685W        W68268  23.997   9.517   2.622
96686W        W68269  34.209  13.691   1.891
96687W        W68270  19.163  38.080   2.957
96688W        W68271   3.220  29.208  14.502
96689W        W68272  24.512   5.873   4.206
96690W        W68273  42.816  22.494  13.105
96691W        W68274  14.721  23.252   4.929
96692W        W68275  43.830  17.179  12.230
96693W        W68276  31.984  18.076  11.993
96694W        W68277  21.345  33.912  14.469
96695W        W68278  25.959  22.539   1.829
96696W        W68279  42.762   5.186   4.581
96697W        W68280  20.452   0.848   1.217
96698W        W68281   2.965  44.256  14.835
96699W        W68282  10.324  18.688   4.868
96700W        W68283  17.673  25.427  14.050
96701W        W68284  15.728  36.411   3.142
96702W        W68285  14.276  37.176  12.848
96703W        W68286  43.768  38.412   4.879
96704W        W68287   2.030  36.764  11.134
96705W        W68288   1.794   7.156  11.119
96706W        W68289  15.818  22.385   1.744
96707W        W68290  30.109  13.814   4.223
96708W        W68291  17.080  39.708   9.909
96709W        W68292  16.996  11.112   1.465
96710W        W68293  16.823  31.840  13.971
96711W        W68294  22.526   3.184   4.137
96712W        W68295   7.283  18.837  12.881
96713W        W68296  22.262  29.756  11.033
96714W        W68297   8.280  25.974   3.168
96715W        W68298  26.635  39.006   3.669
96716W        W68299  40.921   9.835  14.706
96717W        W68300  33.410  38.436   1.847
96718W        W68301  15.102  13.574  12.893
96719W        W68302  19.628  10.617   4.171
96720W        W68303  22.624  25.282  13.021
96721W        W68304   8.329   2.841   3.834
96722W        W68305  22.995  28.895  14.408
96723W        W68306  23.790  24.732   1.541
96724W        W68307  24.953  35.951  11.198
96725W        W68308   5.502   6.126   3.111
96726W        W68309  34.588  35.503  11.725
96727W        W68310  34.024  10.296   4.413
96728W        W68311  28.096   2.752  13.707
96729W        W68312  32.483  11.238   3.293
96730W        W68313  27.188   3.050  13.359
96731W        W68314  15.186  38.149   1.894
96732W        W68315  29.919  13.371   0.283
96733W        W68316  28.470  29.108   2.450
96734W        W68317   3.378  18.631   2.382
96735W        W68318  43.405  25.903   1.333
96736W        W68319  18.283  11.863   3.736
96737W        W68320  41.995   2.946   3.450
96738W        W68321  35.320  14.398   5.164
96739W        W68322  12.710  17.978   4.628
96740W        W68323  13.949  38.457  13.617
96741W        W68324  12.212  10.018  14.820
96742W        W68325  10.851  25.782  14.854
96743W        W68326  24.830  28.978  12.376
96744W        W68327  38.170  43.948  13.202
96745W        W68328  28.235   7.828  12.468
96746W        W68329   7.312  23.022   1.005
96747W        W68330  17.265   2.044  10.777
96748W        W68331   4.471  35.598   3.812
96749W        W68332   5.192  26.617   1.741
96750W        W68333  13.797   2.911   3.022
96751W        W68334  10.850  24.547   4.967
96752W        W68335  35.562  13.682  13.974
96753W        W68336   0.718   6.359   1.240
96754W        W68337  44.286  12.792   0.740
96755W        W68338  15.717   8.294   3.891
96756W        W68339  33.063  41.068   1.230
96757W        W68340  32.142  22.888   0.446
96758W        W68341  38.728  11.177  11.534
96759W        W68342  43.334  35.383   1.786
96760W        W68343  18.453  10.500   3.602
96761W        W68344  16.573   9.681   4.422
96762W        W68345   9.149  40.314  14.931
96763W        W68346  12.095   5.417  10.382
96764W        W68347  28.712  12.131   2.276
96765W        W68348  44.277  35.110  11.535
96766W        W68349  28.730   1.522  12.906
96767W        W68350  18.341  27.409  12.576
96768W        W68351  33.328  11.768   0.314
96769W        W68352   4.704  21.735   1.732
96770W        W68353  17.210  39.403  14.208
96771W        W68354  31.463  10.923   0.394
96772W        W68355  28.406  40.023  13.287
96773W        W68356   8.702  40.586  14.953
96774W        W68357  16.376  25.233   9.723
96775W        W68358  40.924  27.363  14.360
96776W        W68359  20.211  30.081   2.528
96777W        W68360  21.993  29.052  12.670
96778W        W68361  31.028  39.355  14.923
96779W        W68362   8.163  26.936   2.052
96780W        W68363   0.427   6.205  14.871
96781W        W68364  22.940  12.329  14.517
96782W        W68365  10.164  20.198  14.949
96783W        W68366  12.538  11.151   3.694
96784W        W68367  24.806  18.179   3.530
96785W        W68368  26.976  16.257   4.138
96786W        W68369   5.424   3.673   3.069
96787W        W68370  20.077  31.141   2.246
96788W        W68371  30.579  43.211  12.348
96789W        W68372  31.318   4.619   1.946
96790W        W68373  10.211   2.255  12.030
96791W        W68374  18.686  34.035   0.053
96792W        W68375  18.510   8.656  13.496
96793W        W68376  41.136  22.561   0.028
96794W        W68377  21.608   7.931  14.582
96795W        W68378  35.128  20.731   1.944
96796W        W68379   8.168  38.553   3.820
96797W        W68380  13.208  20.945   1.132
96798W        W68381   5.639  35.991   3.523
96799W        W68382  31.487  31.474   4.548
96800W        W68383  11.808   8.488   1.098
96801W        W68384  11.410  37.673  11.112
96802W        W68385  19.324  29.367  11.106
96803W        W68386  36.039   5.955   1.811
96804W        W68387  19.296  36.010  13.981
96805W        W68388  43.504  34.614   0.463
96806W        W68389   7.427  33.519   1.495
96807W        W68390  35.615  36.087  10.672
96808W        W68391  43.076  35.937   1.300
96809W        W68392  32.349  11.127  14.241
96810W        W68393  34.906  34.655  14.996
96811W        W68394   6.258  41.481  14.484
96812W        W68395  26.302   9.124   3.771
96813W        W68396  14.581  34.409   4.116
96814W        W68397   4.032   2.998  13.816
96815W        W68398  10.860  32.020   2.282
96816W        W68399   5.257  16.702   3.436
96817W        W68400  25.220  42.481  12.585
96818W        W68401  14.654  19.090   2.377
96819W        W68402   1.413  31.224  13.849
96820W        W68403  38.249  21.245   4.197
96821W        W68404  41.275  10.756  13.860
96822W        W68405   0.804  26.215   4.560
96823W        W68406  27.528   2.811   2.344
96824W        W68407  25.643  23.986   1.188
96825W        W68408  19.698  39.963  12.428
96826W        W68409   1.406  31.731  13.768
96827W        W68410  10.596  25.215   3.255
96828W        W68411  37.133  37.065   0.357
96829W        W68412  22.670  43.871  10.434
96830W        W68413   5.395  19.052  10.785
96831W        W68414   8.493  16.265   2.792
96832W        W68415  12.779  38.910  13.529
96833W        W68416   6.628  38.506   3.773
96834W        W68417  31.045  40.696  13.888
96835W        W68418  27.186  41.255   0.714
96836W        W68419  43.547  34.865  11.077
96837W        W68420   6.214  10.761  14.634
96838W        W68421  23.488  33.387   3.128
96839W        W68422  12.452  22.039   2.115
96840W        W68423   2.633  43.509  12.997
96841W        W68424  25.567  40.922  12.549
96842W        W68425   8.671  40.531  12.958
96843W        W68426   7.693  31.960   1.602
96844W        W68427  23.302  30.401   0.763
96845W        W68428  44.463  43.454  13.438
96846W        W68429   5.341  24.203   1.310
96847W        W68430  11.227  43.591   3.265
96848W        W68431  23.262  38.491  14.263
96849W        W68432  16.720   9.388   3.082
96850W        W68433  32.547  41.660  13.494
96851W        W68434   8.167  17.506  13.837
96852W        W68435  14.789  39.886  12.373
96853W        W68436   4.322  16.982   1.159
96854W        W68437  29.258  23.025  13.331
96855W        W68438  16.920  25.631  12.449
96856W        W68439  23.922   5.490   0.018
96857W        W68440   3.861  34.915  12.357
96858W        W68441  13.202  39.029  11.923
96859W        W68442  13.777  28.466  12.484
96860W        W68443  43.762  20.046  12.485
96861W        W68444  36.260  10.397   3.702
96862W        W68445  37.099  20.478   2.398
96863W        W68446  38.861  23.208   1.439
96864W        W68447  33.967  44.823   1.712
96865W        W68448  14.787  16.369  11.984
96866W        W68449  22.354   3.985  11.935
96867W        W68450  30.535  19.262  11.594
96868W        W68451  43.946  42.365   1.907
96869W        W68452  19.254  13.829   3.692
96870W        W68453   6.234  20.413  14.067
96871W        W68454  27.166  44.999  12.442
96872W        W68455  18.662   7.415   2.267
96873W        W68456  33.415  17.709  12.643
96874W        W68457  21.016  27.273   2.789
96875W        W68458  44.023  35.941  13.932
96876W        W68459  17.123  39.841  11.929
96877W        W68460  10.826  38.726  10.062
96878W        W68461   3.300  26.554  14.358
96879W        W68462  29.400  15.283  12.493
96880W        W68463  37.624  40.461   4.728
96881W        W68464   9.861   5.519  12.516
96882W        W68465  27.477   0.483  10.548
96883W        W68466  21.936   1.860   3.856
96884W        W68467  15.672  10.193  10.845
96885W        W68468  11.720  18.863   4.864
96886W        W68469  15.726  11.133  11.485
96887W        W68470  20.288  19.513  10.694
96888W        W68471  43.945   8.200  13.141
96889W        W68472   7.626  41.770  13.861
96890W        W68473  31.341  20.003   9.801
96891W        W68474  23.614  33.932  13.994
96892W        W68475   5.252  24.479  14.901
96893W        W68476  33.917   5.686  13.915
96894W        W68477  14.898  27.848  14.931
96895W        W68478  37.805  42.833   5.041
96896W        W68479  35.247   0.364  11.709
96897W        W68480   0.361  40.501   0.730
96898W        W68481   8.902  32.599   1.724
96899W        W68482   8.803  23.413  11.146
96900W        W68483  27.171   1.264  10.747
96901W        W68484  31.647  10.335   4.048
96902W        W68485   3.617   4.501   1.384
96903W        W68486   5.217  27.905  10.833
96904W        W68487   6.343  32.161  14.431
96905W        W68488  17.233   7.899  12.937
96906W        W68489  12.165   2.259   0.317
96907W        W68490  43.609   9.351   2.610
96908W        W68491   1.485  26.293   0.749
96909W        W68492  40.414  27.165  11.167
96910W        W68493  17.659   4.930   0.925
96911W        W68494   4.413  31.333  11.933
96912W        W68495   5.905  44.369   4.520
96913W        W68496   8.294  33.838   1.278
96914W        W68497  20.800  25.484  12.138
96915W        W68498  17.713   6.300   0.923
96916W        W68499  20.986   2.339   1.973
96917W        W68500  18.034  44.891   4.159
96918W        W68501  28.005   7.862   3.786
96919W        W68502  32.191   6.196   4.067
96920W        W68503  37.348  18.166   4.699
96921W        W68504  20.639   6.756   4.037
96922W        W68505   5.839  38.335   4.873
96923W        W68506   5.942  24.209  14.971
96924W        W68507  21.069  31.078  12.373
96925W        W68508  36.906  24.768   3.800
96926W        W68509  36.524  21.198  10.928
96927W        W68510  22.444  43.057  13.359
96928W        W68511  32.163  43.829  10.005
96929W        W68512   3.195  39.481   2.817
96930W        W68513  30.775  42.089  11.167
96931W        W68514   5.196  41.112  12.423
96932W        W68515  19.476  32.093   2.554
96933W        W68516   3.798  18.269   4.260
96934W        W68517  24.531  27.148  14.026
96935W        W68518  25.357  28.575  11.548
96936W        W68519  24.985  19.933   4.082
96937W        W68520  21.692  26.350  11.098
96938W        W68521  26.189   5.372  14.521
96939W        W68522  14.722   8.839  11.173
96940W        W68523  12.208  35.151   2.721
96941W        W68524  27.395   9.348   1.909
96942W        W68525   9.311  25.157  11.637
96943W        W68526  21.980  39.770  14.480
96944W        W68527  19.533  24.083   1.398
96945W        W68528  33.412  16.705   2.449
96946W        W68529  23.496  30.028  13.049
96947W        W68530  28.071   5.281  11.959
96948W        W68531  22.941  31.151  11.643
96949W        W68532  42.890   3.674  12.841
96950W        W68533  15.872  11.268  12.365
96951W        W68534   5.444  11.318   3.277
96952W        W68535  42.619  29.742  13.523
96953W        W68536   0.008  32.522   2.258
96954W        W68537  27.553   5.906   1.978
96955W        W68538   1.639  26.700  11.637
96956W        W68539   2.981   8.168   2.890
96957W        W68540  15.265  13.577   0.385
96958W        W68541  38.608  38.127   0.822
96959W        W68542  10.252  28.388  12.443
96960W        W68543   5.115  42.238   1.878
96961W        W68544  26.825   9.745   4.277
96962W        W68545   9.837   2.172  12.925
96963W        W68546   3.689  24.057   2.447
96964W        W68547  12.950   5.285  12.790
96965W        W68548  22.127  10.693   2.787
96966W        W68549  34.307  12.973  13.078
96967W        W68550  28.934   3.188   4.054
96968W        W68551  20.589   9.334  14.848
96969W        W68552  36.706  15.857  14.015
96970W        W68553  30.520  15.826   1.047
96971W        W68554  10.742  21.547  10.848
96972W        W68555  36.282   1.438  14.389
96973W        W68556  19.560  29.528   4.997
96974W        W68557  36.393  23.418  11.571
96975W        W68558  12.835  44.191   4.104
96976W        W68559   3.901  32.100  12.959
96977W        W68560   8.147  37.637   4.574
96978W        W68561  26.898  35.611  10.903
96979W        W68562  19.192  31.401   3.111
96980W        W68563  38.487   0.024  11.346
96981W        W68564  13.245   3.486  10.199
96982W        W68565  38.101  22.756   3.286
96983W        W68566  43.902  33.375  11.992
96984W        W68567   0.963  26.256  12.011
96985W        W68568  31.145  22.007  11.322
96986W        W68569  27.618  25.880   1.222
96987W        W68570  12.519  13.215   4.172
96988W        W68571  37.842   8.169  14.738
96989W        W68572  10.852  20.230   2.671
96990W        W68573   7.957  42.666  11.971
96991W        W68574  10.381  18.441  11.490
96992W        W68575  37.034  41.155  12.579
96993W        W68576   9.427  44.905  11.133
96994W        W68577  38.068  22.747   1.848
96995W        W68578  10.693  34.691   3.232
96996W        W68579   8.368   6.173   4.503
96997W        W68580  28.037  41.427   3.310
96998W        W68581  20.258  19.005  12.598
96999W        W68582  14.295  28.064  14.495
97000W        W68583   7.393   1.353   3.781
97001W        W68584  40.163  25.000   4.093
97002W        W68585  12.214   8.816   4.831
97003W        W68586  25.477   6.390   3.802
97004W        W68587   0.314  31.332   2.920
97005W        W68588  11.343  38.674  11.934
97006W        W68589  25.668  39.543  14.368
97007W        W68590  21.150   3.251  14.017
97008W        W68591   8.354  44.700  12.383
97009W        W68592  17.118   3.557   5.103
97010W        W68593  18.251  11.763  11.074
97011W        W68594  44.301   9.080   3.907
97012W        W68595  35.588  41.027  13.379
97013W        W68596  11.174  44.533   1.250
97014W        W68597  31.447  33.785  12.067
97015W        W68598  41.104  26.668  10.361
97016W        W68599  41.579  21.307   3.245
97017W        W68600   4.959   0.354   1.292
97018W        W68601   6.105  24.541   0.337
97019W        W68602   9.924  21.238  14.338
97020W        W68603  16.652  10.383  12.772
97021W        W68604  44.590  25.672  13.348
97022W        W68605  44.237  11.342   4.489
97023W        W68606  10.702  18.658   4.498
97024W        W68607  42.515  29.418   4.538
97025W        W68608   1.364  14.521  13.966
97026W        W68609   6.810  32.678  13.799
97027W        W68610  43.070   9.639  12.377
97028W        W68611   4.889  20.354   3.669
97029W        W68612   8.163   9.963  14.591
97030W        W68613   1.238  32.003   4.015
97031W        W68614   5.467  21.127  13.525
97032W        W68615  30.025  23.236   4.815
97033W        W68616  19.863  33.338  11.009
97034W        W68617  23.070  36.630  13.576
97035W        W68618  23.303  22.471  14.003
97036W        W68619  21.061   1.259  10.817
97037W        W68620   2.486  28.955  13.964
97038W        W68621  25.072  29.106   0.204
97039W        W68622  40.576   8.874   5.102
97040W        W68623  10.359  16.809   2.650
97041W        W68624  10.743  15.010  10.601
97042W        W68625  26.521   9.473  14.479
97043W        W68626  29.219  16.063  11.140
97044W        W68627   0.518  26.072   2.298
97045W        W68628  30.198  36.849   0.483
97046W        W68629  34.112  21.685  14.443
97047W        W68630   6.925  38.424   4.710
97048W        W68631  40.397  32.181   3.586
97049W        W68632  26.503  26.780   0.965
97050W        W68633  17.687  14.869   1.344
97051W        W68634   3.347  31.601   4.396
97052W        W68635  27.146   8.437   4.005
97053W        W68636  10.755  43.795   3.327
97054W        W68637   2.533   4.406  12.468
97055W        W68638  16.727  44.024  14.542
97056W        W68639  39.485  12.111   2.794
97057W        W68640  22.480  41.614   4.656
97058W        W68641  37.489   7.662   0.426
97059W        W68642  17.948   6.703  14.011
97060W        W68643   3.912  20.246  10.607
97061W        W68644  39.086  16.882  11.541
97062W        W68645  13.500   2.024   3.034
97063W        W68646  35.941  29.909  12.859
97064W        W68647   6.585  11.745  14.826
97065W        W68648  22.684  44.348  11.736
97066W        W68649  39.995  21.222  14.325
97067W        W68650  32.598  40.581  12.564
97068W        W68651   1.773   8.936  14.304
97069W        W68652  27.088   7.147  12.620
97070W        W68653  25.156  20.643  10.965
97071W        W68654  15.371  32.008  14.988
97072W        W68655   1.677  22.535  13.950
97073W        W68656  16.389  19.571   3.323
97074W        W68657   2.733  42.351   3.297
97075W        W68658  19.176  30.280  10.281
97076W        W68659   6.694  42.772   5.155
97077W        W68660  32.448  12.848   3.801
97078W        W68661  12.209  18.285  10.656
97079W        W68662  44.985  27.955  11.585
97080W        W68663   6.908   2.431   1.063
97081W        W68664  14.456   7.849  12.471
97082W        W68665  16.523  31.876   0.736
97083W        W68666  20.288  37.565  11.139
97084W        W68667   9.161  30.973   2.397
97085W        W68668   8.578  17.297   1.856
97086W        W68669  20.483  16.191  13.047
97087W        W68670  27.645  26.402   1.304
97088W        W68671  37.453  18.029  11.405
97089W        W68672   3.258  28.449   0.246
97090W        W68673  41.031   5.988  12.107
97091W        W68674  41.893  33.370  13.621
97092W        W68675   0.530  43.815  10.983
97093W        W68676  42.808  20.027  10.713
97094W        W68677   5.377  30.771  14.272
97095W        W68678  31.118  35.859  10.710
97096W        W68679  33.564  22.428   1.132
97097W        W68680  31.683   1.005  14.877
97098W        W68681  24.928  32.700  11.280
97099W        W68682  16.762   0.085   1.359
97100W        W68683  12.334  12.799   3.550
97101W        W68684  17.170  24.903   1.841
97102W        W68685  11.541   3.341  13.980
97103W        W68686   0.467  35.526  13.863
97104W        W68687  41.804  44.661  13.351
97105W        W68688  31.972  17.756  12.988
97106W        W68689  26.457  40.919   3.203
97107W        W68690  10.967   9.642   1.239
97108W        W68691  23.119  15.913   3.179
97109W        W68692  24.625  34.312   2.873
97110W        W68693  27.399  25.531  14.941
97111W        W68694  36.315  26.615   3.719
97112W        W68695   4.802  44.787  12.907
97113W        W68696  33.839  16.729  12.783
97114W        W68697  23.254   6.768   3.670
97115W        W68698  20.065  43.912  12.043
97116W        W68699  44.279  37.287   3.209
97117W        W68700  41.928  28.518  10.995
97118W        W68701  35.413   5.278  12.467
97119W        W68702  18.801  29.929  13.523
97120W        W68703  32.539  15.843  14.291
97121W        W68704  14.677  32.874   1.782
97122W        W68705   2.232  16.184  11.632
97123W        W68706  26.942  19.806  14.482
97124W        W68707   5.303  43.595   2.379
97125W        W68708  12.888  32.057   3.290
97126W        W68709  39.328   2.211  13.911
97127W        W68710  38.370  17.597  10.533
97128W        W68711  29.368  24.774   0.850
97129W        W68712   3.963  25.123   4.557
97130W        W68713  39.067  43.007  10.761
97131W        W68714   9.513  32.880  11.133
97132W        W68715  20.252  24.043   2.219
97133W        W68716   2.444  28.585  10.726
97134W        W68717  16.322  19.168  14.353
97135W        W68718  18.035  33.008   2.630
97136W        W68719  43.334  11.353   4.129
97137W        W68720   5.971  36.157   4.485
97138W        W68721   5.389  43.468  13.331
97139W        W68722  25.769  20.183   0.803
97140W        W68723  32.651  43.466  11.561
97141W        W68724   0.499  23.285   1.838
97142W        W68725  23.559  13.375   0.342
97143W        W68726  27.204  31.887   2.290
97144W        W68727  28.978   1.553   2.884
97145W        W68728  20.167   2.787   4.461
97146W        W68729   1.280  39.391  11.060
97147W        W68730  20.985  26.488   3.702
97148W        W68731  26.449  14.260   3.654
97149W        W68732  19.173  12.774  14.463
97150W        W68733  17.246  21.081  11.126
97151W        W68734  38.080  36.114   4.578
97152W        W68735  21.626   3.026  14.708
97153W        W68736   8.974  32.943   0.545
97154W        W68737  23.443  23.777   1.848
97155W        W68738  14.535  31.002   2.487
97156W        W68739  24.570   8.095  13.418
97157W        W68740  15.103  20.791  12.209
97158W        W68741  44.804  36.414  14.545
97159W        W68742  21.955  29.631  14.059
97160W        W68743  30.164   5.704   2.360
97161W        W68744  34.053   5.235   3.123
97162W        W68745  28.689  31.898   4.693
97163W        W68746   6.831   1.759   3.603
97164W        W68747   8.951  39.104  11.974
97165W        W68748   8.640  19.720  12.580
97166W        W68749   8.210  23.308  13.674
97167W        W68750   7.383  31.936   4.415
97168W        W68751   6.554  38.642  12.425
97169W        W68752   6.965  32.206   4.582
97170W        W68753  10.129  41.875  14.869
97171W        W68754  34.318   4.357  12.518
97172W        W68755   1.288  40.398   2.903
97173W        W68756  36.336  10.341  10.645
97174W        W68757  37.498   4.489  14.634
97175W        W68758  26.390   5.125  10.701
97176W        W68759  36.056  40.497  11.200
97177W        W68760  31.942  42.572  11.182
97178W        W68761   1.277  28.813   4.480
97179W        W68762  37.350   9.168  14.263
97180W        W68763  10.356  32.799  11.103
97181W        W68764  22.665  21.225   4.616
97182W        W68765  43.224  17.569  14.350
97183W        W68766   2.376   7.439   1.848
97184W        W68767  16.633   9.727   1.208
97185W        W68768   1.809  33.826   2.281
97186W        W68769   9.104  32.371   4.017
97187W        W68770  33.999  27.881   1.329
97188W        W68771  15.058  14.087  11.919
97189W        W68772  15.181  39.813   4.106
97190W        W68773  14.921  23.321  12.007
97191W        W68774   1.412  20.516  11.544
97192W        W68775  16.169  44.750  14.089
97193W        W68776  16.826  35.896   2.473
97194W        W68777  28.877   1.504  10.752
97195W        W68778  12.287  26.665  13.843
97196W        W68779   7.694  41.218  13.919
97197W        W68780  15.391   4.739   2.757
97198W        W68781  41.467  37.804  10.572
97199W        W68782  28.968  19.066  12.747
97200W        W68783  30.119  39.319   2.909
97201W        W68784   9.866  24.430  14.879
97202W        W68785  40.577  30.579   1.375
97203W        W68786  11.743   2.499   3.932
97204W        W68787  40.333  18.300   3.667
97205W        W68788  24.680  44.682  12.839
97206W        W68789  22.611  33.114   4.575
97207W        W68790  20.426  39.939  11.148
97208W        W68791  30.518  42.592   4.895
97209W        W68792  37.889  39.104  11.181
97210W        W68793  28.437  31.875  14.929
97211W        W68794  37.326  14.221   2.116
97212W        W68795   5.641   5.910  14.223
97213W        W68796   2.340   5.132  12.944
97214W        W68797  33.382  25.500   0.457
97215W        W68798  29.998  18.004  13.941
97216W        W68799  26.741  24.997   0.859
97217W        W68800  36.544  40.494  13.849
97218W        W68801  11.034   0.531   2.905
97219W        W68802   9.885  25.800  12.596
97220W        W68803  34.562   3.016   4.606
97221W        W68804  38.425  21.256  14.291
97222W        W68805   2.059  41.380  12.923
97223W        W68806  37.399  33.086  11.160
97224W        W68807  29.599  35.087   5.137
97225W        W68808  42.472  29.033  11.624
97226W        W68809  33.347   1.939  14.459
97227W        W68810  42.067  40.249  14.844
97228W        W68811  13.905  31.906   3.240
97229W        W68812  12.806   0.876  14.272
97230W        W68813   3.341  33.617  10.838
97231W        W68814  18.123   0.226   3.778
97232W        W68815  44.563  11.947  11.126
97233W        W68816   2.195   7.156  13.853
97234W        W68817  15.080  27.488   1.336
97235W        W68818  44.507  34.669  13.035
97236W        W68819  34.966   7.810   4.369
97237W        W68820  44.762  39.805   1.221
97238W        W68821  25.833  16.527  11.846
97239W        W68822  26.737  36.888   4.167
97240W        W68823  24.449  25.508  14.495
97241W        W68824  39.020  24.212   1.785
97242W        W68825  36.885   1.880   0.909
97243W        W68826  40.357  30.953   4.155
97244W        W68827   2.792  10.733   4.675
97245W        W68828  31.015   5.335  14.799
97246W        W68829  29.746  30.434  13.929
97247W        W68830  28.043  22.135   3.852
97248W        W68831  13.469  36.338   4.115
97249W        W68832  41.902  37.418   4.827
97250W        W68833  11.156  18.316  10.671
97251W        W68834  12.676  13.236  13.799
97252W        W68835   9.891  29.593  14.864
97253W        W68836  18.112  28.044   0.477
97254W        W68837   7.830  44.752  13.982
97255W        W68838  43.520  37.691   2.459
97256W        W68839  42.203  43.879  10.985
97257W        W68840  22.653  38.895  13.913
97258W        W68841  33.946  36.070  11.643
97259W        W68842  12.689   6.465   0.214
97260W        W68843  44.362  13.738   4.042
97261W        W68844  31.096  22.483   2.223
97262W        W68845  20.211  32.714  14.113
97263W        W68846  23.504   7.155  12.974
97264W        W68847  16.023  33.951   4.659
97265W        W68848   8.122  34.029  14.381
97266W        W68849  25.495  28.871   4.736
97267W        W68850  43.926   9.073   0.518
97268W        W68851  44.760  33.434   1.632
97269W        W68852  12.240  32.670  14.814
97270W        W68853  44.201  27.624   1.276
97271W        W68854  16.247   0.964  11.006
97272W        W68855   0.713  22.830   0.279
97273W        W68856  34.545   6.220   0.191
97274W        W68857  34.065  19.667  13.853
97275W        W68858  12.151  24.981  11.031
97276W        W68859  18.486  31.904   0.311
97277W        W68860  26.471  14.952   0.543
97278W        W68861  44.998   8.020  11.709
97279W        W68862  25.050  40.590  13.892
97280W        W68863   6.257  24.277  11.606
97281W        W68864  38.849  40.542  13.963
97282W        W68865   0.013  35.904   2.225
97283W        W68866  33.489  15.044  12.563
97284W        W68867  12.135  23.269   0.376
97285W        W68868  40.816   1.047   4.835
97286W        W68869   6.306  37.826  13.128
97287W        W68870  23.762  34.936  11.136
97288W        W68871  16.716  34.542   4.730
97289W        W68872  15.310   4.311   2.460
97290W        W68873  35.825   9.785   0.927
97291W        W68874   2.176   5.192   4.325
97292W        W68875  17.675  34.164  12.478
97293W        W68876  16.195  16.147  11.316
97294W        W68877  29.066  35.450   0.952
97295W        W68878  38.901  14.828   1.129
97296W        W68879   3.288   4.007  12.884
97297W        W68880  26.856   3.767  11.284
97298W        W68881   0.048  22.207  12.977
97299W        W68882  24.011  41.460   0.977
97300W        W68883  10.272  28.982   4.675
97301W        W68884   3.153   5.546  12.570
97302W        W68885  28.680  24.538   3.823
97303W        W68886  41.281  15.219   4.730
97304W        W68887  22.181  44.836  10.659
97305W        W68888  30.096  31.579   1.454
97306W        W68889  18.346  15.599   3.613
97307W        W68890  44.107  21.539  12.200
97308W        W68891  40.952  23.883   4.089
97309W        W68892  26.665  37.099  14.367
97310W        W68893  21.083  34.827   2.775
97311W        W68894  22.695  10.718   0.933
97312W        W68895  42.350  17.134  11.935
97313W        W68896  44.801  39.332   1.448
97314W        W68897  35.918  32.892   1.178
97315W        W68898  10.921  38.298  14.512
97316W        W68899  24.165   8.817  13.363
97317W        W68900   7.320  30.608  11.563
97318W        W68901   6.786   9.460  14.738
97319W        W68902  34.641  26.214  13.292
97320W        W68903  30.959   5.341  11.578
97321W        W68904  11.402   5.344   0.919
97322W        W68905   9.183  16.709   0.661
97323W        W68906  22.476  43.745   1.940
97324W        W68907  19.076  41.104  14.425
97325W        W68908  39.411  15.295  11.021
97326W        W68909  13.577  11.313  11.042
97327W        W68910  13.584  38.818   0.180
97328W        W68911   5.811   9.615   2.174
97329W        W68912  31.665  21.535  14.918
97330W        W68913  37.926  11.416  13.892
97331W        W68914  15.360  40.092   3.173
97332W        W68915  23.280   6.183   1.346
97333W        W68916   9.853  26.034   1.176
97334W        W68917  39.888  23.948  12.012
97335W        W68918  23.562  35.808  13.430
97336W        W68919   9.244   3.732  12.488
97337W        W68920   6.400   4.392   2.168
97338W        W68921  29.109  37.351  14.444
97339W        W68922   5.243   6.507   4.615
97340W        W68923  12.735   8.392   2.433
97341W        W68924  36.464  41.977  13.937
97342W        W68925  40.382  24.631   2.641
97343W        W68926  17.500  15.198   2.799
97344W        W68927  25.171  35.916  10.743
97345W        W68928  44.000  28.455  12.053
97346W        W68929  38.776  18.705   0.878
97347W        W68930   4.316  22.369   2.294
97348W        W68931  15.341  12.186   2.870
97349W        W68932  16.713   4.165   3.655
97350W        W68933  15.896  20.382  10.672
97351W        W68934  37.859  17.742   1.920
97352W        W68935   7.447  41.436   0.856
97353W        W68936  37.360  36.424  14.749
97354W        W68937  24.747   0.694   1.319
97355W        W68938   5.152  40.509   1.281
97356W        W68939  14.166  29.416  13.174
97357W        W68940  34.428  19.003   1.905
97358W        W68941  12.907  10.923  13.957
97359W        W68942  37.373  27.838   1.400
97360W        W68943  22.580  29.995   5.423
97361W        W68944  10.634  35.340   4.838
97362W        W68945  14.663  25.680  14.381
97363W        W68946  26.570  14.470   0.338
97364W        W68947   9.690  14.642   4.061
97365W        W68948  14.608   5.343   4.461
97366W        W68949  22.644   7.202  10.229
97367W        W68950  29.429  32.979   1.439
97368W        W68951   8.150  33.996   0.418
97369W        W68952  25.021  25.497   3.255
97370W        W68953  21.056  39.455  14.902
97371W        W68954  33.863  26.464   3.336
97372W        W68955  13.187  30.316  14.835
97373W        W68956  27.531  24.037   2.130
97374W        W68957  25.641  44.846   0.892
97375W        W68958  36.932   7.785   3.580
97376W        W68959   4.290  38.542  11.636
97377W        W68960  34.572  37.377   3.697
97378W        W68961  34.295  42.068  11.890
97379W        W68962   5.590   2.748   1.378
97380W        W68963  23.459  31.455  11.282
97381W        W68964  11.992  31.482  12.556
97382W        W68965  29.526  31.650  14.661
97383W        W68966  23.704   7.200   2.422
97384W        W68967  11.098  15.543  10.969
97385W        W68968  44.290  25.512  11.181
97386W        W68969  30.221  40.869   1.774
97387W        W68970  27.056  40.316  11.773
97388W        W68971  40.592  32.043   0.451
97389W        W68972   2.042  14.161  12.837
97390W        W68973  31.538  33.365   0.654
97391W        W68974  18.832  28.077  12.548
97392W        W68975  42.850  31.349  11.270
97393W        W68976  13.573  38.480  12.631
97394W        W68977  11.154  16.600  12.555
97395W        W68978  34.554  17.766  11.166
97396W        W68979  14.230  35.893  12.951
97397W        W68980  10.550   3.989  13.496
97398W        W68981  44.188   7.673  13.832
97399W        W68982  10.311   6.679   1.330
97400W        W68983  20.809  22.966  13.423
97401W        W68984  16.740  13.112   1.755
97402W        W68985  30.018   6.383   1.057
97403W        W68986  19.447  19.408   1.739
97404W        W68987  26.007  19.579   1.819
97405W        W68988   0.810  19.709   3.633
97406W        W68989   3.177   2.778  11.212
97407W        W68990  11.121  16.767  13.446
97408W        W68991  16.687  42.042  10.456
97409W        W68992   0.561  29.507   4.536
97410W        W68993  44.864  38.775   0.393
97411W        W68994  35.640  20.281  11.944
97412W        W68995  26.926   4.354   0.830
97413W        W68996   4.877  30.714   1.463
97414W        W68997  37.549  31.082   2.760
97415W        W68998  26.718  40.480   3.210
97416W        W68999  18.388  12.099  11.470
97417W        W69000  28.906  22.646   3.053
97418W        W69001  38.906  18.679  13.913
97419W        W69002   6.206  36.407  10.903
97420W        W69003  17.538   7.879  13.370
97421W        W69004  36.313  39.833   3.863
97422W        W69005  26.642  13.388  12.599
97423W        W69006  31.182  20.570   4.945
97424W        W69007  24.721  23.721  14.185
97425W        W69008  29.587  15.124   2.300
97426W        W69009  17.229   2.310   1.865
97427W        W69010  13.255  13.399   4.594
97428W        W69011  35.927  42.013  13.344
97429W        W69012  18.648  44.473   4.977
97430W        W69013  41.696  38.013   3.264
97431W        W69014  42.594   0.528  13.880
97432W        W69015  16.798  34.423  11.504
97433W        W69016  36.485  25.048   4.928
97434W        W69017   5.109  37.142   0.519
97435W        W69018  20.324   4.799  14.059
97436W        W69019  24.197   5.345   2.870
97437W        W69020  31.830  42.609   0.936
97438W        W69021  33.142   1.757  11.988
97439W        W69022  36.014  21.762   4.226
97440W        W69023  36.389  10.189   4.598
97441W        W69024  25.373  21.623  14.807
97442W        W69025  23.632  27.787   0.415
97443W        W69026  19.757   6.422   2.744
97444W        W69027  42.412   0.819   3.889
97445W        W69028  26.547  40.445  11.618
97446W        W69029  29.709   5.691   0.619
97447W        W69030  18.867  11.292   3.445
97448W        W69031  20.263  16.857  13.561
97449W        W69032  15.451  30.529   3.674
97450W        W69033  34.047  39.963  13.353
97451W        W69034  24.788   3.442  12.513
97452W        W69035  39.284   8.495   0.817
97453W        W69036  44.116  28.685   4.893
97454W        W69037  22.597  41.820   0.018
97455W        W69038  23.982  42.116  13.195
97456W        W69039  12.238  37.327   3.840
97457W        W69040  33.303   5.729  10.728
97458W        W69041  30.501  14.681   3.590
97459W        W69042  40.988  15.853   3.780
97460W        W69043  23.552  38.335  11.476
97461W        W69044  13.346  44.510   1.812
97462W        W69045  40.347  29.115   3.691
97463W        W69046  40.511  27.028   1.288
97464W        W69047  30.119   5.850  12.155
97465W        W69048   2.296  14.650   4.484
97466W        W69049  34.504  31.420  11.546
97467W        W69050  10.802  11.338   2.718
97468W        W69051  18.750  13.630   1.826
97469W        W69052  33.988  17.111  10.683
97470W        W69053  10.893  44.072   3.773
97471W        W69054  12.847  18.744  12.021
97472W        W69055  15.591   0.280  13.053
97473W        W69056  39.326   7.398  12.060
97474W        W69057  16.565  10.806  12.502
97475W        W69058   0.345  40.460   1.242
97476W        W69059  41.490  37.070   2.298
97477W        W69060  24.253  19.068  11.592
97478W        W69061  10.294   9.011  13.877
97479W        W69062  28.368   2.857  10.973
97480W        W69063  43.716   7.285   1.466
97481W        W69064  37.821  21.504  13.272
97482W        W69065  29.058  36.951   1.740
97483W        W69066  13.395  18.355  10.063
97484W        W69067  39.780  18.253  14.068
97485W        W69068   4.410  20.825  14.870
97486W        W69069  44.616  33.548   2.622
97487W        W69070   6.416  22.896   4.611
97488W        W69071  39.479   5.892   5.439
97489W        W69072  31.070  29.573  13.974
97490W        W69073  44.214  38.240  11.450
97491W        W69074   4.322  40.468   4.656
97492W        W69075  30.750   2.207  12.988
97493W        W69076  35.886   9.855   1.429
97494W        W69077   2.432   9.526  11.173
97495W        W69078  18.101  40.025  11.830
97496W        W69079  24.712  17.635  13.329
97497W        W69080  39.009  23.226   3.493
97498W        W69081  13.743   3.931  13.760
97499W        W69082  21.449  25.567   0.120
97500W        W69083   3.460   6.354   3.262
97501W        W69084  20.765  27.455   1.230
97502W        W69085  14.192  28.483  14.780
97503W        W69086  13.642  35.819   4.100
97504W        W69087  37.453  10.192   2.771
97505W        W69088   9.858   3.775   3.107
97506W        W69089  33.614  16.396   1.184
97507W        W69090  30.923  41.980   0.395
97508W        W69091  27.804  17.735   3.350
97509W        W69092   1.169  12.622  10.284
97510W        W69093  11.212   2.641  10.775
97511W        W69094  29.089  21.004   4.673
97512W        W69095   3.809  37.093  14.822
97513W        W69096  20.061  32.413  13.147
97514W        W69097   3.680  35.572  12.903
97515W        W69098  34.885  29.105  11.709
97516W        W69099  22.259  19.495   4.096
97517W        W69100  28.073  29.718   4.672
97518W        W69101  41.380   7.778  13.389
97519W        W69102  38.099  19.211   2.577
97520W        W69103  40.962  11.150  14.515
97521W        W69104  41.102  43.745  13.640
97522W        W69105   6.730   2.537  14.142
97523W        W69106  15.449  32.537   2.248
97524W        W69107  44.941   4.750  13.557
97525W        W69108   8.751  34.594   2.883
97526W        W69109   3.749   6.854  14.608
97527W        W69110  10.833   1.508  12.008
97528W        W69111   7.362  29.583  12.592
97529W        W69112  21.176  33.942  13.130
97530W        W69113  11.915  23.573  14.936
97531W        W69114  20.911  42.851   2.393
97532W        W69115   8.847  16.716  14.676
97533W        W69116  40.371  26.444  11.539
97534W        W69117  36.471  36.006  14.532
97535W        W69118  44.527  41.962  14.527
97536W        W69119  27.941  16.533   1.213
97537W        W69120  15.901  16.129   4.285
97538W        W69121  30.085  43.114   0.815
97539W        W69122  18.109  14.096  13.906
97540W        W69123   2.952  44.319  13.934
97541W        W69124  13.577  43.274  14.539
97542W        W69125  20.138  40.396  12.506
97543W        W69126  25.560  40.764   4.253
97544W        W69127  30.900  19.527   1.059
97545W        W69128  22.446  21.536  12.504
97546W        W69129  19.515  36.092   3.876
97547W        W69130  19.788  17.535   4.213
97548W        W69131  30.270   1.516   1.934
97549W        W69132  13.757  14.555  14.366
97550W        W69133  19.269  27.611  12.608
97551W        W69134   4.159  17.163  13.744
97552W        W69135  35.922  43.748   3.317
97553W        W69136   5.622  10.737   4.189
97554W        W69137   9.202  33.303  12.605
97555W        W69138  32.214  37.086   3.800
97556W        W69139  36.006  34.168  13.043
97557W        W69140  18.354  12.761  13.905
97558W        W69141  21.975  21.778   3.639
97559W        W69142   9.857  38.860   0.704
97560W        W69143  24.679  10.895  11.537
97561W        W69144  16.281  25.235  10.629
97562W        W69145  42.299   0.055  13.979
97563W        W69146  43.995   6.846   3.363
97564W        W69147  29.798  21.558   5.205
97565W        W69148  44.805  23.023  13.712
97566W        W69149  10.301  15.222   0.718
97567W        W69150  23.992  40.832  11.058
97568W        W69151  14.725   0.760  12.595
97569W        W69152  31.361  31.048   0.825
97570W        W69153  21.583  15.315   4.129
97571W        W69154  11.335  24.051   1.204
97572W        W69155  17.333  15.278  11.547
97573W        W69156  30.921   2.978   4.673
97574W        W69157  44.412  23.469   1.254
97575W        W69158  41.860  41.724  11.567
97576W        W69159  26.149  11.070   4.091
97577W        W69160   0.811  35.156   0.765
97578W        W69161  25.118   1.014   5.220
97579W        W69162  24.610  37.564  12.861
97580W        W69163  21.737  23.784   4.467
97581W        W69164  44.041   9.293  10.745
97582W        W69165  14.059  41.690   4.147
97583W        W69166   7.347  30.102   1.438
97584W        W69167  20.297  12.577   1.421
97585W        W69168   4.269   7.391   3.794
97586W        W69169   9.090  12.117  13.459
97587W        W69170  34.018  33.628   3.720
97588W        W69171  27.694  38.428  12.445
97589W        W69172  14.788   2.039  12.852
97590W        W69173  37.083   6.282   3.780
97591W        W69174   7.379  31.263   2.259
97592W        W69175  35.606  41.938   0.424
97593W        W69176  33.855   3.572  14.440
97594W        W69177   0.425  10.766  12.386
97595W        W69178  25.197  25.965  13.523
97596W        W69179  29.579  27.681   0.907
97597W        W69180  21.160  37.528  11.968
97598W        W69181  31.670  42.370   3.865
97599W        W69182  25.341  20.102  14.817
97600W        W69183   5.291   8.754   4.157
97601W        W69184  27.472  26.055   1.687
97602W        W69185  11.165  40.321  12.349
97603W        W69186  14.204  15.799  14.830
97604W        W69187  18.967   5.310   4.199
97605W        W69188  42.454  25.281   2.763
97606W        W69189  28.101   1.317  14.197
97607W        W69190   9.864   7.702  11.939
97608W        W69191  31.022  20.236   0.247
97609W        W69192  17.047   4.361  13.753
97610W        W69193   1.890   7.240  12.537
97611W        W69194   5.949   1.659  12.142
97612W        W69195  39.313   7.644   1.355
97613W        W69196  32.431  19.758  14.392
97614W        W69197   6.754  41.064   1.241
97615W        W69198   9.152  32.800   4.325
97616W        W69199   8.634  12.199   3.698
97617W        W69200  15.080  40.215  13.840
97618W        W69201  26.189  39.517   2.711
97619W        W69202  38.802  31.426  11.362
97620W        W69203   1.913  23.290   3.721
97621W        W69204   7.283  31.394   0.955
97622W        W69205  33.331  32.052   3.759
97623W        W69206  27.870   0.387   1.006
97624W        W69207  39.260  30.980   1.757
97625W        W69208  22.535  39.451   2.320
97626W        W69209  38.979  21.229  10.658
97627W        W69210  35.191   8.396  13.712
97628W        W69211  32.538  37.877   1.211
97629W        W69212  42.857   2.005   0.395
97630W        W69213  33.021   9.604   3.336
97631W        W69214  25.040   3.083  12.858
97632W        W69215  20.270  25.098   1.286
97633W        W69216   7.773  19.469   2.684
97634W        W69217  17.044  31.543   1.766
97635W        W69218  17.677  32.700  12.900
97636W        W69219  33.646  38.451   4.125
97637W        W69220  19.842  10.499   1.525
97638W        W69221  44.849  14.649  12.923
97639W        W69222  11.371  13.835  12.478
97640W        W69223  33.012  19.908   5.604
97641W        W69224   3.204  42.430  14.954
97642W        W69225  26.549   8.970  14.528
97643W        W69226  25.163  14.664  11.237
97644W        W69227  16.545  14.487  14.393
97645W        W69228  41.519  35.390  10.525
97646W        W69229  31.399  33.893  12.955
97647W        W69230  37.436  38.717  13.521
97648W        W69231  17.765  16.585  10.448
97649W        W69232  43.278  34.290  12.588
97650W        W69233  11.656  26.781  11.947
97651W        W69234  44.549  22.503  12.413
97652W        W69235  28.749  12.393  12.505
97653W        W69236  22.244  35.130   1.245
97654W        W69237  25.754  18.716  14.372
97655W        W69238  36.472   2.513   1.327
97656W        W69239  17.256  39.070  12.530
97657W        W69240  42.513  28.849  12.129
97658W        W69241   6.106  31.586  13.583
97659W        W69242   2.827  16.517   4.577
97660W        W69243  35.474  42.910  13.843
97661W        W69244  33.607  38.698   0.895
97662W        W69245  21.983  10.280  13.018
97663W        W69246  32.115   7.593   2.157
97664W        W69247  22.721  37.107   3.256
97665W        W69248  28.446  36.892   3.327
97666W        W69249  32.498  19.802   3.725
97667W        W69250  26.935  10.361  11.966
97668W        W69251  11.789  17.385  12.857
97669W        W69252  31.381  13.724   0.338
97670W        W69253  39.065  32.433  13.841
97671W        W69254  12.170  31.868  14.363
97672W        W69255  17.616   6.356  12.635
97673W        W69256  37.623  20.595   0.936
97674W        W69257  21.500  26.483   3.652
97675W        W69258  11.221  16.726   4.303
97676W        W69259  13.327  27.235  10.674
97677W        W69260  37.022   7.824   4.558
97678W        W69261  23.320   4.367   1.270
97679W        W69262  37.900  24.192   2.167
97680W        W69263   9.147   1.437   4.427
97681W        W69264  16.201  34.401  10.198
97682W        W69265  36.401  44.043  11.734
97683W        W69266  25.168  28.568   0.966
97684W        W69267  21.287  31.990  14.915
97685W        W69268  22.214   8.273   4.464
97686W        W69269  22.131   2.787  14.784
97687W        W69270  38.952   1.661  12.912
97688W        W69271   4.516  35.137   4.068
97689W        W69272  39.069  37.020  11.219
97690W        W69273  15.827  18.156  11.474
97691W        W69274   1.941  27.740  14.107
97692W        W69275  21.479   3.846  10.512
97693W        W69276  11.082  44.000   2.126
97694W        W69277  35.564  14.843   3.755
97695W        W69278   9.300   1.741   4.825
97696W        W69279  44.304  44.800  13.762
97697W        W69280  29.721  38.741   1.730
97698W        W69281  34.636  21.979   0.314
97699W        W69282  19.177   9.967   1.237
97700W        W69283  25.917  33.988  12.388
97701W        W69284  23.510  33.477  12.397
97702W        W69285  43.838   6.667   4.365
97703W        W69286  31.015  44.670   4.061
97704W        W69287  19.709  15.776   1.643
97705W        W69288  44.404  23.131   4.103
97706W        W69289  31.896  36.398   1.797
97707W        W69290  31.863  33.617   1.826
97708W        W69291  16.691  10.402  14.799
97709W        W69292  35.886  43.707   3.946
97710W        W69293  36.328  29.928   0.777
97711W        W69294  44.532  24.394  12.641
97712W        W69295  17.937  24.045  14.060
97713W        W69296   4.259   8.262  13.531
97714W        W69297  11.165  15.609   4.955
97715W        W69298  28.211  24.523   3.615
97716W        W69299  42.601  12.689  10.979
97717W        W69300   0.947  11.180   3.597
97718W        W69301   1.525  43.103  14.374
97719W        W69302  30.112  20.613   2.743
97720W        W69303  33.587   5.761  13.518
97721W        W69304  28.944   5.458  11.981
97722W        W69305  25.708  27.826  11.132
97723W        W69306   1.690  29.793  12.000
97724W        W69307  37.067  29.239  12.617
97725W        W69308  12.741  22.219  11.312
97726W        W69309  37.467  36.870   4.330
97727W        W69310  34.830  39.361  10.616
97728W        W69311  15.644  40.391  10.701
97729W        W69312  20.745  44.049   3.342
97730W        W69313  44.406   4.414   2.831
97731W        W69314   3.680  20.922   1.743
97732W        W69315  29.484  35.099  14.397
97733W        W69316  23.411  20.242   4.091
97734W        W69317  17.878  22.749  13.827
97735W        W69318   5.493   5.857  12.458
97736W        W69319   6.247  38.796  14.846
97737W        W69320  28.749  33.797   4.974
97738W        W69321   4.735  29.973  14.497
97739W        W69322  20.611  40.782   0.208
97740W        W69323  20.441  31.051   4.114
97741W        W69324   8.262  18.352   3.174
97742W        W69325  41.010  28.495  12.652
97743W        W69326  27.523  10.845  14.265
97744W        W69327  10.599  40.959  11.248
97745W        W69328  13.529  39.676   0.819
97746W        W69329  26.257  12.119  14.196
97747W        W69330  15.062  18.062   3.193
97748W        W69331  19.842  14.226   1.493
97749W        W69332  21.013  28.605   0.771
97750W        W69333  41.795   7.423  10.276
97751W        W69334  38.833  15.650   3.400
97752W        W69335  42.893  32.583  11.654
97753W        W69336  21.331  38.822   0.366
97754W        W69337   4.486  12.466  11.922
97755W        W69338  21.726  15.940  11.122
97756W        W69339  21.992   0.848   2.789
97757W        W69340  24.177  39.787  11.660
97758W        W69341  15.204   9.788  14.306
97759W        W69342  18.160  22.946  10.306
97760W        W69343  31.970   5.255   1.985
97761W        W69344  22.486  26.404  14.521
97762W        W69345   1.931   3.803  11.564
97763W        W69346   1.529  27.021   2.229
97764W        W69347  37.997  44.851  11.269
97765W        W69348  21.014  21.959  12.167
97766W        W69349  12.952   9.722  12.965
97767W        W69350  37.605  41.484  14.808
97768W        W69351   8.561  19.010  14.244
97769W        W69352  11.179  13.198  13.916
97770W        W69353  27.948  41.381  11.508
97771W        W69354   8.389   9.690  11.831
97772W        W69355   0.297  14.382  13.054
97773W        W69356  17.103   7.971   4.838
97774W        W69357  34.618  32.114  10.245
97775W        W69358  30.961  28.166   1.197
97776W        W69359  15.870  22.522  13.132
97777W        W69360  12.783  16.077  12.131
97778W        W69361  37.034  31.045   2.698
97779W        W69362  40.563  26.405   4.119
97780W        W69363  40.247  20.067   0.354
97781W        W69364   2.312  32.333  12.613
97782W        W69365   9.711   2.934  13.380
97783W        W69366  42.411  21.060   0.795
97784W        W69367  32.401  21.719  11.048
97785W        W69368  21.754  28.507   1.352
97786W        W69369  13.350  36.988  14.824
97787W        W69370  16.643   5.250   4.653
97788W        W69371  31.910   8.615  14.376
97789W        W69372  20.890   5.976   2.238
97790W        W69373   7.887  22.573  11.635
97791W        W69374  35.752  11.833  11.920
97792W        W69375  43.882  14.088   4.680
97793W        W69376  35.646  23.722  14.404
97794W        W69377  26.404  28.415  11.180
97795W        W69378  19.853   6.515  11.193
97796W        W69379  37.378  25.943  14.677
97797W        W69380  31.398  41.656  14.757
97798W        W69381  26.578  27.873   3.689
97799W        W69382  10.354  22.916  11.734
97800W        W69383  35.974  15.814  13.427
97801W        W69384  11.225   4.372   1.019
97802W        W69385  23.550   2.896  11.673
97803W        W69386  43.538  44.608   0.993
97804W        W69387   7.425   1.022  12.678
97805W        W69388   9.064  29.697  12.597
97806W        W69389  10.410  15.720  10.371
97807W        W69390  36.269  42.458   2.146
97808W        W69391  35.599  35.895   4.580
97809W        W69392  37.325  41.520  11.602
97810W        W69393  38.853  12.806  13.372
97811W        W69394   4.124  34.135  14.923
97812W        W69395   9.356  16.017  14.718
97813W        W69396   2.139  40.398   3.725
97814W        W69397  20.113  20.257  11.132
97815W        W69398  23.304   3.254   1.549
97816W        W69399  41.348  18.653   4.280
97817W        W69400   4.370  27.533   3.222
97818W        W69401  31.292  17.715   0.478
97819W        W69402  35.998  16.034   1.266
97820W        W69403  19.746  31.748  10.650
97821W        W69404  19.451  11.512   1.368
97822W        W69405  23.238   6.324  14.771
97823W        W69406   3.864  36.223  14.115
97824W        W69407   8.220  18.848  11.109
97825W        W69408  17.456  13.383   1.381
97826W        W69409  37.782  16.224   1.870
97827W        W69410  24.692  26.174  11.578
97828W        W69411   5.406  14.097   0.256
97829W        W69412   3.283  33.215  12.651
97830W        W69413   9.380  44.444  10.600
97831W        W69414   8.275  40.393  13.275
97832W        W69415  33.360   6.496  13.293
97833W        W69416  34.008  13.854   4.879
97834W        W69417  11.937  24.024   4.962
97835W        W69418  42.498  24.937   3.753
97836W        W69419  44.921  41.792   0.940
97837W        W69420  32.434  33.888   3.758
97838W        W69421  11.925  32.789  14.371
97839W        W69422  41.484  26.549   4.632
97840W        W69423  16.759  42.896  11.019
97841W        W69424  44.854  34.331  14.287
97842W        W69425  26.500  23.552  12.000
97843W        W69426  34.445  18.839  12.883
97844W        W69427   7.899   3.458  10.685
97845W        W69428  12.100  40.586  14.395
97846W        W69429  19.298  35.101  13.693
97847W        W69430  25.952  38.331   2.203
97848W        W69431  10.882   1.502  11.115
97849W        W69432  38.006  30.009  13.782
97850W        W69433  33.059  28.161  11.883
97851W        W69434  29.691  32.155   3.213
97852W        W69435   7.975   4.210   2.128
97853W        W69436  25.122  32.441  12.197
97854W        W69437  12.251  19.131   2.293
97855W        W69438  44.700  18.714  10.607
97856W        W69439  18.008  37.640   3.477
97857W        W69440  25.281   1.875   5.104
97858W        W69441   2.408   4.703  14.915
97859W        W69442   1.024  10.771   0.579
97860W        W69443   5.642  27.235  12.669
97861W        W69444   7.433  39.921  13.038
97862W        W69445  20.743  37.945   0.115
97863W        W69446  32.153   4.465   0.398
97864W        W69447  38.926  26.011   4.819
97865W        W69448  23.098  27.467  14.238
97866W        W69449  10.361  25.966   1.305
97867W        W69450   8.908  24.015   1.415
97868W        W69451  21.063  44.423  10.330
97869W        W69452  10.825  29.567  11.715
97870W        W69453  15.633  42.848  10.213
97871W        W69454  42.918  11.366  13.521
97872W        W69455  32.902   4.263   1.054
97873W        W69456  31.427  26.855   0.257
97874W        W69457  26.557  35.074   1.729
97875W        W69458   8.885  30.611  12.755
97876W        W69459   6.147  40.377  12.041
97877W        W69460  25.000  39.246   3.655
97878W        W69461  37.039  25.105   0.181
97879W        W69462   3.886  21.083  12.124
97880W        W69463  22.483   4.380  14.439
97881W        W69464   7.875  42.690   3.727
97882W        W69465  18.729  35.591  11.924
97883W        W69466  34.015   2.045   0.063
97884W        W69467  19.294  25.739  12.122
97885W        W69468  38.971  38.124  10.408
97886W        W69469  12.684  19.837  12.824
97887W        W69470  43.759  44.897  10.820
97888W        W69471  40.355  30.573   2.838
97889W        W69472  38.328   8.111   3.144
97890W        W69473  11.843   5.751   2.832
97891W        W69474  35.349   9.855   1.166
97892W        W69475  25.242  27.010  13.566
97893W        W69476  38.543  44.384  10.571
97894W        W69477  14.248  38.406   2.358
97895W        W69478  24.518  28.188   3.107
97896W        W69479  35.720   4.483   3.685
97897W        W69480   1.390  44.749  13.613
97898W        W69481  42.973  19.141  14.824
97899W        W69482  42.709   0.690  10.586
97900W        W69483  13.586  15.876  12.460
97901W        W69484  23.754  23.674   0.599
97902W        W69485  22.986  43.797   2.804
97903W        W69486  21.335  19.757  11.543
97904W        W69487  34.797  19.750  13.364
97905W        W69488  22.241  11.683   2.378
97906W        W69489  15.866  37.496  14.314
97907W        W69490   7.955  42.026   3.191
97908W        W69491  23.665  24.485   3.853
97909W        W69492  20.819   6.752   2.883
97910W        W69493   8.699   2.679  13.418
97911W        W69494  43.331  19.096  11.756
97912W        W69495  38.785  43.227   0.809
97913W        W69496  29.751  44.248   1.370
97914W        W69497  30.492  20.985  10.315
97915W        W69498   2.151  13.168  12.638
97916W        W69499  15.012  10.910  12.569
97917W        W69500  30.698  36.467  12.512
97918W        W69501  30.830  31.196  14.860
97919W        W69502  18.882  12.108   3.301
97920W        W69503  24.683  30.656  12.051
97921W        W69504  19.267  26.210   2.281
97922W        W69505  26.040  44.191   0.921
97923W        W69506  19.579  20.460   0.394
97924W        W69507  26.940  14.542   5.018
97925W        W69508   4.693  42.132  11.163
97926W        W69509  39.910   2.241   0.547
97927W        W69510  11.790  40.075  12.352
97928W        W69511  36.490  34.850   3.697
97929W        W69512  27.101   8.722   9.931
97930W        W69513  37.249  43.797   3.268
97931W        W69514  36.827   5.577   2.346
97932W        W69515  28.658  32.980  11.008
97933W        W69516   6.135  28.408  13.422
97934W        W69517  21.202  16.996  14.421
97935W        W69518  30.574  44.816  11.549
97936W        W69519  23.539   5.449   4.651
97937W        W69520  27.545  22.489   4.926
97938W        W69521  19.271  18.682  13.373
97939W        W69522  31.724  16.781  13.596
97940W        W69523  24.076  27.706  14.311
97941W        W69524  17.062  26.154  13.866
97942W        W69525   1.287  39.016  12.150
97943W        W69526  14.884  36.872   4.569
97944W        W69527  30.380  13.643  10.917
97945W        W69528  31.303  28.019  12.669
97946W        W69529  35.986  38.404  12.909
97947W        W69530  29.358  37.845  11.221
97948W        W69531   1.943  32.486   1.150
97949W        W69532  41.773  13.125   0.873
97950W        W69533   9.635  33.019   2.890
97951W        W69534  33.617  26.935   1.976
97952W        W69535  11.167  10.146  14.574
97953W        W69536  35.495  36.529   1.577
97954W        W69537  21.297   4.808   3.279
97955W        W69538  14.191  12.896   3.646
97956W        W69539   0.538  12.815  13.089
97957W        W69540  23.503  35.597   2.285
97958W        W69541  20.333  33.022  13.668
97959W        W69542   7.998   8.609   0.465
97960W        W69543  15.202  24.667   1.805
97961W        W69544  40.194  32.173   4.528
97962W        W69545  17.086  35.307  14.013
97963W        W69546  36.088  43.671   1.224
97964W        W69547  40.297  40.784   0.019
97965W        W69548  19.875  33.623   1.218
97966W        W69549  39.586   6.305   1.936
97967W        W69550  40.002   3.865  11.938
97968W        W69551  11.269  11.635   2.753
97969W        W69552  12.540   6.723  13.512
97970W        W69553  44.926  24.737   0.913
97971W        W69554  30.168  18.886  12.894
97972W        W69555   0.179  15.337   2.308
97973W        W69556  19.958  39.866   1.779
97974W        W69557   6.335   4.300   4.794
97975W        W69558  17.285  35.817   2.726
97976W        W69559  27.160  22.052   2.837
97977W        W69560  24.481  42.565  10.970
97978W        W69561  36.032   5.363  11.193
97979W        W69562  31.058  13.719  11.495
97980W        W69563  37.901  17.531   1.388
97981W        W69564  23.257  11.403  11.390
97982W        W69565  43.919  33.673   0.058
97983W        W69566  13.800  15.265  11.448
97984W        W69567  37.318  11.829   1.805
97985W        W69568   5.166   3.160  13.427
97986W        W69569  25.765  41.107  13.001
97987W        W69570  25.513  38.948   4.286
97988W        W69571  40.233  24.448   2.189
97989W        W69572   4.488  22.804  11.639
97990W        W69573  28.023  13.257  11.306
97991W        W69574  31.788   1.765  13.435
97992W        W69575  36.273  30.936   4.398
97993W        W69576   7.554   4.192   4.254
97994W        W69577  38.481  24.206   0.532
97995W        W69578  44.403  37.444   0.466
97996W        W69579  29.539   3.735  12.560
97997W        W69580  20.814  38.009   2.684
97998W        W69581  13.995  19.245  11.098
97999W        W69582  12.689  11.131  13.101
98000W        W69583  37.338   5.727   1.200
98001W        W69584  41.818  34.017  11.603
98002W        W69585  31.599   9.111  10.673
98003W        W69586  41.270  38.702  12.871
98004W        W69587   7.438  11.783  12.364
98005W        W69588   4.433  30.385   0.119
98006W        W69589  28.701   6.773  12.079
98007W        W69590   5.499  24.792  13.929
98008W        W69591  19.388  30.969   1.836
98009W        W69592  22.080  14.919   2.101
98010W        W69593   4.138  41.526   1.255
98011W        W69594  29.215   0.296  14.884
98012W        W69595  19.699   1.355   3.623
98013W        W69596   0.286  15.869  13.025
98014W        W69597   0.527  12.902   2.814
98015W        W69598   5.197  26.477   3.672
98016W        W69599  42.395  37.924  14.918
98017W        W69600  19.109  10.882  13.861
98018W        W69601  40.991  10.819  10.675
98019W        W69602   9.873  16.139  12.339
98020W        W69603   6.410  26.959   3.842
98021W        W69604   3.777  40.821   4.120
98022W        W69605  30.986  28.927  12.049
98023W        W69606  21.822  18.763  13.637
98024W        W69607  28.222   2.752  11.989
98025W        W69608  36.923   9.413  14.071
98026W        W69609  13.679  19.726   1.346
98027W        W69610  27.106  44.110   2.936
98028W        W69611   9.509  10.730   2.843
98029W        W69612  38.923   1.935  14.673
98030W        W69613  31.558  11.162  11.041
98031W        W69614  30.810  10.682   1.813
98032W        W69615  28.160   1.507   3.224
98033W        W69616  41.836   1.525   1.352
98034W        W69617   4.448  17.165   3.119
98035W        W69618  26.922  42.565  14.843
98036W        W69619  36.871  24.958   2.262
98037W        W69620  44.851  10.109  13.526
98038W        W69621  14.286  14.822   2.312
98039W        W69622   1.248   6.903  13.026
98040W        W69623  16.639  31.479  11.610
98041W        W69624  14.832  30.985  13.934
98042W        W69625  15.104  43.362  14.514
98043W        W69626  29.699  11.840   4.876
98044W        W69627  33.004   9.374   0.738
98045W        W69628  27.442  30.772   2.015
98046W        W69629  34.115  12.806  12.494
98047W        W69630   5.382   6.752   0.534
98048W        W69631  38.027  42.158   1.960
98049W        W69632  23.221  10.357  12.297
98050W        W69633  13.108  31.694  11.625
98051W        W69634  25.642  25.660  12.315
98052W        W69635  37.547  44.084  11.311
98053W        W69636   8.478   0.310   4.622
98054W        W69637  26.484  26.167  11.047
98055W        W69638  34.680   2.242   3.252
98056W        W69639   0.300  28.434  11.098
98057W        W69640  13.374  32.576   3.772
98058W        W69641  25.547   3.239  12.050
98059W        W69642  10.126   7.650  13.944
98060W        W69643  37.775  35.982   2.329
98061W        W69644  29.018   8.673   1.432
98062W        W69645  27.113   8.773   2.611
98063W        W69646  12.147  14.516  14.761
98064W        W69647  27.536  37.250  13.852
98065W        W69648  29.429  36.559   1.447
98066W        W69649   5.385   9.622  12.573
98067W        W69650  32.913  30.670   0.318
98068W        W69651  30.880  18.699   2.748
98069W        W69652  15.573  11.720   0.041
98070W        W69653  21.107   6.674   4.280
98071W        W69654  25.591  42.067   2.970
98072W        W69655  44.362  43.716  13.875
98073W        W69656   8.751   9.384  13.591
98074W        W69657  44.240  40.444  11.175
98075W        W69658   6.363  34.192  11.237
98076W        W69659  14.032   5.032   0.901
98077W        W69660  26.261  40.046   0.384
98078W        W69661  34.139  29.062  13.457
98079W        W69662  35.868  25.923  12.917
98080W        W69663  29.197  18.663   1.300
98081W        W69664  14.113  17.887   2.316
98082W        W69665  15.534  19.750  14.034
98083W        W69666  27.752  28.284  14.601
98084W        W69667  12.321   6.794   0.379
98085W        W69668  15.150  18.161   1.731
98086W        W69669   6.187  10.398  13.003
98087W        W69670  32.909  25.472   2.218
98088W        W69671   2.304  43.967  13.943
98089W        W69672  20.257  37.010   0.989
98090W        W69673  20.222  35.528   0.412
98091W        W69674  19.223  29.582  13.308
98092W        W69675   7.898  33.670   3.739
98093W        W69676  44.522  21.983  11.147
98094W        W69677   7.757  40.104   4.838
98095W        W69678  40.057  32.354   0.912
98096W        W69679  27.099  31.393  14.859
98097W        W69680   5.158  10.744  11.014
98098W        W69681  44.687  41.814   2.784
98099W        W69682  11.840  32.333  14.763
98100W        W69683  35.057  34.588  13.434
98101W        W69684  24.367  25.980  14.154
98102W        W69685  27.338  21.068   0.669
98103W        W69686   2.923  34.460   0.751
98104W        W69687  13.679  39.397   1.782
98105W        W69688  40.225  32.325  11.147
98106W        W69689  12.750  31.306   0.677
98107W        W69690  11.627  16.107  11.074
98108W        W69691  38.838  38.911   1.245
98109W        W69692  26.483  40.829   0.747
98110W        W69693  19.872  12.637  10.389
98111W        W69694  20.595  16.815   5.085
98112W        W69695  22.979  22.513   2.233
98113W        W69696  39.623  17.864  14.917
98114W        W69697  31.943  14.993   3.333
98115W        W69698  29.575  11.685   0.854
98116W        W69699  20.946   3.026   2.130
98117W        W69700  15.215  17.637  14.379
98118W        W69701  33.007  22.165  14.286
98119W        W69702   1.309  12.671   1.771
98120W        W69703  24.071   8.815  12.388
98121W        W69704  25.212  35.432   1.841
98122W        W69705   4.043  28.107  13.094
98123W        W69706  14.418  31.921  13.979
98124W        W69707  23.262   4.881  12.499
98125W        W69708  20.141  35.901  11.893
98126W        W69709  20.075  25.162   2.716
98127W        W69710   3.933  11.360  13.439
98128W        W69711   9.355  36.101   3.165
98129W        W69712  29.629  31.847  13.826
98130W        W69713  10.352  22.074  12.426
98131W        W69714  41.013  38.096  13.830
98132W        W69715   6.792  29.109  12.076
98133W        W69716  36.761  10.338  12.020
98134W        W69717  38.543  18.131  10.403
98135W        W69718   4.788  12.881   3.297
98136W        W69719   5.536  37.189  10.076
98137W        W69720  39.576  40.351  11.077
98138W        W69721  15.699   8.107   2.719
98139W        W69722  42.473  35.884   3.787
98140W        W69723  20.287  34.598   0.997
98141W        W69724  42.127  14.525   0.769
98142W        W69725  11.750  11.692  11.265
98143W        W69726   0.017   4.642   0.442
98144W        W69727  15.078  24.736  14.776
98145W        W69728  35.258  31.981   4.208
98146W        W69729   5.804   4.410   4.053
98147W        W69730  33.582  35.071   2.287
98148W        W69731   0.098   2.829  12.239
98149W        W69732  42.292  44.331   1.899
98150W        W69733  14.731  21.798   0.358
98151W        W69734  39.348  21.279  14.575
98152W        W69735  30.874   1.436  14.890
98153W        W69736  21.671  16.703  14.312
98154W        W69737  32.409   3.243   2.849
98155W        W69738  39.166  26.631   3.301
98156W        W69739  18.987  19.085  11.610
98157W        W69740  26.494  31.429   0.724
98158W        W69741  28.913  44.694   1.338
98159W        W69742  38.276  27.693   0.660
98160W        W69743  43.454  32.606  12.835
98161W        W69744  29.990  30.458   0.493
98162W        W69745  37.549  11.012  13.384
98163W        W69746  13.608  18.159   0.670
98164W        W69747  32.664  35.824   0.837
98165W        W69748  20.201   4.635   4.851
98166W        W69749  44.888   2.311   4.518
98167W        W69750  37.902  38.784   3.140
98168W        W69751   0.874  13.808  14.913
98169W        W69752  23.364  23.495   3.560
98170W        W69753   6.192  18.681  14.946
98171W        W69754   2.564  31.882   1.372
98172W        W69755  29.719  16.198   4.517
98173W        W69756  11.970  22.611   2.631
98174W        W69757  31.331  10.269  10.436
98175W        W69758  22.541   7.496  11.511
98176W        W69759  31.474  12.757  11.154
98177W        W69760  20.564  24.178   4.010
98178W        W69761  32.400   3.018   4.842
98179W        W69762   1.372   8.881   4.444
98180W        W69763  18.408  27.168   2.216
98181W        W69764  33.738   1.896   3.742
98182W        W69765  40.895  23.795  10.944
98183W        W69766  14.343  36.174   1.830
98184W        W69767  33.772  18.256  10.137
98185W        W69768   7.700  11.852   0.224
98186W        W69769  24.153   1.985   2.752
98187W        W69770  14.337  25.945   0.353
98188W        W69771  21.776  29.117  14.903
98189W        W69772  13.471  22.185   4.226
98190W        W69773  14.749  17.865  14.397
98191W        W69774  24.430  39.907  12.100
98192W        W69775  13.780  41.638   0.670
98193W        W69776  36.889  27.241  13.857
98194W        W69777   7.450   3.910   0.911
98195W        W69778  22.335  27.135  13.914
98196W        W69779  37.668   0.695  11.120
98197W        W69780  36.059  21.423   0.289
98198W        W69781  10.281  37.479   3.377
98199W        W69782   9.010  17.928  10.170
98200W        W69783  31.100  14.870  12.806
98201W        W69784  33.110  23.538   0.163
98202W        W69785  18.773  43.947   4.099
98203W        W69786  21.276  31.617   0.385
98204W        W69787  38.499  30.338  12.026
98205W        W69788   6.759  11.913  11.396
98206W        W69789  19.548   8.690  13.433
98207W        W69790   5.254   3.837  13.512
98208W        W69791  13.158   7.060   2.330
98209W        W69792  22.693   8.778   3.249
98210W        W69793  23.682   1.905  11.552
98211W        W69794  39.951  38.514   0.130
98212W        W69795  42.784  29.842   3.765
98213W        W69796  10.131  30.210  12.919
98214W        W69797  39.494  25.435   1.764
98215W        W69798   6.874  27.048  12.937
98216W        W69799  37.424  33.044  14.451
98217W        W69800  44.324   7.453  11.219
98218W        W69801  14.631  18.334  12.174
98219W        W69802  32.545   1.947  12.475
98220W        W69803  38.955  18.111   1.726
98221W        W69804  11.723  39.382   1.611
98222W        W69805  18.862  21.801  13.582
98223W        W69806  25.651   7.795   1.365
98224W        W69807   5.812   4.979   0.618
98225W        W69808  20.556  44.378   2.251
98226W        W69809   0.212  35.424   2.324
98227W        W69810  30.606  31.427  12.063
98228W        W69811  18.285  28.552   0.415
98229W        W69812   0.970  21.346   2.138
98230W        W69813  20.043  30.318   1.520
98231W        W69814  18.130  10.871  13.015
98232W        W69815  40.456  11.192  14.663
98233W        W69816  20.188  22.969   0.389
98234W        W69817   8.379   6.167   3.188
98235W        W69818  21.952  12.211   4.025
98236W        W69819  16.569  24.476  10.670
98237W        W69820  31.994  24.730  12.551
98238W        W69821  44.087  14.774   0.551
98239W        W69822  37.068  38.059  12.533
98240W        W69823  18.681   4.445  12.034
98241W        W69824  35.486  22.456   2.351
98242W        W69825  44.034  14.233   0.002
98243W        W69826   0.891  34.455   4.689
98244W        W69827   2.471  43.810   0.352
98245W        W69828   1.954  15.296  13.978
98246W        W69829  13.325  32.247  12.575
98247W        W69830   4.620   0.412   3.121
98248W        W69831  23.713   5.267  11.967
98249W        W69832   8.820  31.064   0.167
98250W        W69833   7.334   9.373   2.034
98251W        W69834  43.289  12.877  13.277
98252W        W69835  41.902   9.743  14.988
98253W        W69836  39.413  27.914  10.723
98254W        W69837   7.821  17.332   1.412
98255W        W69838   9.381  15.893  14.167
98256W        W69839  28.918  16.282   1.267
98257W        W69840  18.851  20.288   3.231
98258W        W69841   7.187  28.575  11.652
98259W        W69842   1.762   7.391   3.197
98260W        W69843   4.962   5.235  14.469
98261W        W69844   2.906  17.591   4.746
98262W        W69845  41.462  25.635   4.535
98263W        W69846  36.172  35.126  12.974
98264W        W69847  40.801  13.749   3.585
98265W        W69848  32.366  23.601  10.807
98266W        W69849  23.030  17.336  13.359
98267W        W69850  43.063   4.305  14.714
98268W        W69851   6.222  28.455   1.440
98269W        W69852  43.085  18.539   0.688
98270W        W69853  10.384  16.635  10.360
98271W        W69854  26.491  24.576   4.127
98272W        W69855  12.952  25.143  14.451
98273W        W69856  43.784  44.300  13.060
98274W        W69857  43.278  18.537  12.003
98275W        W69858  23.990  36.700   3.617
98276W        W69859  25.069  25.133   1.181
98277W        W69860  16.220  18.552  10.706
98278W        W69861   8.447  15.550   4.100
98279W        W69862  18.915  25.554  13.335
98280W        W69863  37.336   2.184  11.226
98281W        W69864   2.854   0.449  10.417
98282W        W69865  44.435  39.266   4.055
98283W        W69866  42.764   8.868  12.015
98284W        W69867   1.413  42.441   2.787
98285W        W69868  13.879  15.860   0.430
98286W        W69869  19.962  16.418  14.897
98287W        W69870   9.483  22.972  13.053
98288W        W69871  10.157  22.031   1.831
98289W        W69872  27.557  42.907   2.925
98290W        W69873  30.135   1.308  14.413
98291W        W69874  29.426  20.871   5.484
98292W        W69875  18.694  27.080   0.155
98293W        W69876  27.967  32.529   0.257
98294W        W69877  35.956   9.309  12.991
98295W        W69878   9.162  15.791   1.789
98296W        W69879   6.158   4.199   0.846
98297W        W69880  31.244  35.054   4.233
98298W        W69881  16.102  17.824  14.418
98299W        W69882  18.774   1.843  10.410
98300W        W69883  38.001  13.240   0.929
98301W        W69884  23.040  10.429   2.031
98302W        W69885   3.249   9.410  12.392
98303W        W69886  37.987  37.338   1.887
98304W        W69887   5.377   0.276   4.717
98305W        W69888  30.144   3.643   1.686
98306W        W69889   7.559  11.410   3.203
98307W        W69890  17.486  39.685   0.379
98308W        W69891  24.254  16.382  14.397
98309W        W69892  15.627  40.406   4.136
98310W        W69893   3.327  25.562   3.560
98311W        W69894  28.751  42.486   1.793
98312W        W69895   8.913  13.940  12.578
98313W        W69896  12.862  29.031  14.804
98314W        W69897  31.816   7.371   3.619
98315W        W69898   0.722  37.379  11.247
98316W        W69899  21.457  23.075   1.365
98317W        W69900  30.523  36.537  11.617
98318W        W69901  37.725  14.198   2.422
98319W        W69902  41.552  17.464   0.232
98320W        W69903  16.455  31.110   3.137
98321W        W69904  24.067  38.591  13.877
98322W        W69905  19.267  12.432   1.426
98323W        W69906  14.663   8.273  12.101
98324W        W69907   6.452  22.561   4.228
98325W        W69908  39.575  25.475  12.496
98326W        W69909  37.826  37.345  10.510
98327W        W69910  11.198  30.398   1.817
98328W        W69911  13.204  31.829  13.505
98329W        W69912  29.130  38.285   0.404
98330W        W69913  42.439  19.640   0.239
98331W        W69914  30.358  12.787  13.676
98332W        W69915  30.872  16.850  12.153
98333W        W69916   5.693  36.390  13.418
98334W        W69917  10.684  12.168  14.070
98335W        W69918   4.400  40.333   2.344
98336W        W69919  38.429  12.393  12.016
98337W        W69920   6.279  37.371   1.835
98338W        W69921  20.246  38.826   0.154
98339W        W69922  21.516  40.608  11.607
98340W        W69923  33.849  20.657   3.645
98341W        W69924  39.809  25.119  13.567
98342W        W69925  23.047  11.811   1.878
98343W        W69926  30.105  28.516   0.646
98344W        W69927  39.446  30.330  12.413
98345W        W69928  26.623  27.915   2.326
98346W        W69929  12.294  23.517  11.963
98347W        W69930   4.415   4.959  11.895
98348W        W69931   1.902  22.086  10.704
98349W        W69932  22.831   9.419  12.221
98350W        W69933  20.525  18.062  10.710
98351W        W69934  18.272  32.322  13.518
98352W        W69935  36.016  36.308   3.201
98353W        W69936  21.787  24.537   0.857
98354W        W69937  21.169  35.446   4.616
98355W        W69938   6.841  33.690  14.079
98356W        W69939  34.032   7.372   2.286
98357W        W69940  15.057  36.006   1.974
98358W        W69941  30.426  36.145  11.324
98359W        W69942  28.198  37.887  11.573
98360W        W69943  26.959   0.805  13.062
98361W        W69944  27.678   2.512   1.837
98362W        W69945  25.486  33.108  11.750
98363W        W69946  17.771  34.460   3.621
98364W        W69947  40.263  17.852  11.415
98365W        W69948  25.597   3.090   5.098
98366W        W69949   1.836  28.657  10.778
98367W        W69950  43.673  21.943  11.574
98368W        W69951  43.039  36.016  10.669
98369W        W69952  35.377  17.873   0.368
98370W        W69953  10.894   2.717   3.832
98371W        W69954   1.535  37.318  13.275
98372W        W69955  19.674  23.766   3.695
98373W        W69956  23.305   6.767   1.794
98374W        W69957  31.121  24.955   2.244
98375W        W69958   3.972  41.742   0.811
98376W        W69959  33.433  13.722   0.672
98377W        W69960   9.157  12.299  10.460
98378W        W69961  28.745  43.075   3.653
98379W        W69962  39.369  22.638   0.494
98380W        W69963  26.012  13.132   1.231
98381W        W69964  36.915  29.354   3.464
98382W        W69965  19.677  43.541  11.357
98383W        W69966  40.786  39.165  13.349
98384W        W69967   0.088   9.420  10.914
98385W        W69968  13.042  13.726  14.355
98386W        W69969  21.864  30.617  10.155
98387W        W69970   1.060  24.958   0.232
98388W        W69971  29.261  24.761   4.145
98389W        W69972  41.056  24.114   4.559
98390W        W69973  17.225  23.524   5.067
98391W        W69974  34.422  32.724   0.945
98392W        W69975   0.343  39.134  11.742
98393W        W69976  41.394  43.340   4.653
98394W        W69977  27.565  26.354  14.465
98395W        W69978  36.452  44.906   0.885
98396W        W69979  17.528  26.765  13.450
98397W        W69980  10.632  11.739   2.209
98398W        W69981  34.941  29.521  12.975
98399W        W69982  22.282  33.067   1.147
98400W        W69983  39.817  37.510   1.362
98401W        W69984  27.688  34.371   1.358
98402W        W69985  22.638  38.496  10.592
98403W        W69986   9.620  16.565  11.531
98404W        W69987  11.339   2.204   4.080
98405W        W69988  44.520  12.963  11.191
98406W        W69989  11.733  22.351   3.823
98407W        W69990   3.223  19.943   1.271
98408W        W69991  42.073  25.647  14.984
98409W        W69992  23.211  33.164   3.497
98410W        W69993  15.367  30.024  13.409
98411W        W69994  44.965  11.939   1.364
98412W        W69995   3.892  34.968  14.201
98413W        W69996   6.929  35.840  12.872
98414W        W69997  26.489  13.868   1.300
98415W        W69998  28.018  14.345   1.609
98416W        W69999   5.358  29.402   1.742
98417W        W70000  33.887  27.610   2.580
98418W        W70001  27.138  40.022  12.201
98419W        W70002  28.408  17.306  13.685
98420W        W70003   5.319   9.219   4.401
98421W        W70004  20.187  44.532  12.728
98422W        W70005  19.648   8.467   4.555
98423W        W70006  24.537  31.726   0.188
98424W        W70007  44.745  43.356  13.884
98425W        W70008  16.296  43.475  12.558
98426W        W70009  41.119   2.841   5.036
98427W        W70010   1.604   9.866   1.686
98428W        W70011   8.975  42.210  14.332
98429W        W70012  14.211  35.530  13.995
98430W        W70013  16.581  41.469  14.790
98431W        W70014  40.055  10.088  11.059
98432W        W70015  34.868  41.419   1.897
98433W        W70016  25.303  12.027   4.603
98434W        W70017  16.863   9.432  13.804
98435W        W70018  16.706  22.218  12.993
98436W        W70019  44.582  39.004   2.718
98437W        W70020  43.451  30.022   2.702
98438W        W70021  40.874  24.331  14.945
98439W        W70022  14.320  21.149  12.508
98440W        W70023  15.725   1.470   1.968
98441W        W70024  29.250   1.264   4.232
98442W        W70025   8.279   9.595   0.873
98443W        W70026  30.758  21.200   0.883
98444W        W70027   0.770  22.180  11.536
98445W        W70028  23.711  33.647  14.435
98446W        W70029  44.316  11.667  13.852
98447W        W70030  37.059  27.033  14.344
98448W        W70031  35.077   3.007  12.501
98449W        W70032  28.699  11.294  13.233
98450W        W70033  18.560  16.763  11.058
98451W        W70034   2.872  10.956   1.751
98452W        W70035  35.572  39.417   0.549
98453W        W70036   7.684   9.807   2.469
98454W        W70037   1.741  26.209  10.562
98455W        W70038  24.431  32.535   3.090
98456W        W70039  19.798  37.156  10.406
98457W        W70040  16.499  38.059   3.559
98458W        W70041  37.169   9.644   3.294
98459W        W70042  44.497  18.658   3.848
98460W        W70043  15.101  42.849  10.917
98461W        W70044  37.803  16.608  14.833
98462W        W70045  12.089  39.733  12.124
98463W        W70046   6.694  35.505   4.059
98464W        W70047  24.679  41.925   4.380
98465W        W70048   6.112   5.720   4.634
98466W        W70049  21.069   9.297   2.646
98467W        W70050  37.456  23.589  12.846
98468W        W70051  25.009  13.262  13.731
98469W        W70052  42.322  23.048  10.723
98470W        W70053  34.627  25.461  13.029
98471W        W70054   2.343   6.731  13.528
98472W        W70055  27.080  30.511  12.843
98473W        W70056   7.784   6.296   1.486
98474W        W70057  27.982  25.089  10.623
98475W        W70058  43.711  18.810  12.000
98476W        W70059  19.103  40.926   1.410
98477W        W70060  25.374   7.981   0.958
98478W        W70061  42.409  26.049  11.524
98479W        W70062  20.497  11.890   2.128
98480W        W70063  36.461  23.039  14.055
98481W        W70064  14.714   9.119  11.592
98482W        W70065   1.725  26.221   2.791
98483W        W70066   5.695   1.766   4.141
98484W        W70067   8.295  11.017   0.753
98485W        W70068  38.818  43.482  11.511
98486W        W70069  23.061  30.246   1.737
98487W        W70070  32.209   9.708  12.955
98488W        W70071  16.298   4.778   3.314
98489W        W70072  13.662  29.971   4.194
98490W        W70073   5.736   0.646  12.936
98491W        W70074  12.277  28.545  14.062
98492W        W70075  18.022  25.438   3.648
98493W        W70076  38.198  15.305   2.291
98494W        W70077  39.941  11.737  10.668
98495W        W70078  16.268   6.302  13.713
98496W        W70079  24.974  31.849   0.901
98497W        W70080   5.313   2.282   2.317
98498W        W70081   1.828  44.996   0.774
98499W        W70082  17.642  24.599   1.941
98500W        W70083  22.192  34.160  12.599
98501W        W70084  27.023   8.746  11.942
98502W        W70085  37.489   0.066  12.969
98503W        W70086   1.780   1.188  11.676
98504W        W70087  44.972  12.879  14.808
98505W        W70088  36.518  42.359   4.277
98506W        W70089  11.232   0.215  13.779
98507W        W70090  27.028  42.321  12.084
98508W        W70091  26.536   4.018   1.566
98509W        W70092  29.910   8.966   4.712
98510W        W70093  39.020  21.876   4.874
98511W        W70094  42.466  26.444  10.706
98512W        W70095  42.965   8.969   1.302
98513W        W70096   5.303  18.329   1.220
98514W        W70097   5.324  18.839   0.327
98515W        W70098  34.214   8.426  11.932
98516W        W70099   1.779  26.548   1.148
98517W        W70100  27.978  24.761   0.285
98518W        W70101  25.073   4.116  11.943
98519W        W70102  11.784  21.241  11.080
98520W        W70103  19.897  37.546   2.762
98521W        W70104   5.931   8.136  11.104
98522W        W70105  35.072  16.576   0.368
98523W        W70106  35.375  30.543  10.483
98524W        W70107   4.821  10.588  14.360
98525W        W70108   4.900  33.144   0.217
98526W        W70109  25.042   5.873  13.777
98527W        W70110  44.528  28.158  12.837
98528W        W70111  27.823   9.898   4.160
98529W        W70112  15.408  21.639   1.180
98530W        W70113   3.051   2.296   3.193
98531W        W70114   1.702   9.928  14.351
98532W        W70115  13.771  31.047   0.625
98533W        W70116  35.106  33.561   1.994
98534W        W70117  20.952   7.820   5.034
98535W        W70118  23.294  37.738  11.163
98536W        W70119  34.573  17.150   4.322
98537W        W70120  44.987  33.049   0.024
98538W        W70121  21.220  32.743  10.795
98539W        W70122  21.027   3.158  14.940
98540W        W70123  15.782  23.118   0.252
98541W        W70124  34.432  10.873   0.580
98542W        W70125  32.542   6.798   2.832
98543W        W70126  40.820  13.104   0.407
98544W        W70127  26.362  32.562   2.270
98545W        W70128  11.120  18.766   0.771
98546W        W70129   7.282  29.177  13.828
98547W        W70130  33.082  32.122  12.113
98548W        W70131  17.179  31.184  13.050
98549W        W70132  39.274  36.571   3.312
98550W        W70133   0.734  42.816  11.043
98551W        W70134   0.043  33.093   2.970
98552W        W70135   6.677   6.455   4.471
98553W        W70136  37.418  42.810   1.738
98554W        W70137  41.209  13.840  13.991
98555W        W70138  29.829  10.818   4.187
98556W        W70139   8.991  20.465  13.278
98557W        W70140  26.703  22.426  12.625
98558W        W70141  41.783   2.691  12.619
98559W        W70142  24.615  27.645   0.408
98560W        W70143   2.924  37.662   2.757
98561W        W70144  25.929  22.548  11.527
98562W        W70145  44.929  15.232   2.758
98563W        W70146  24.032  30.431   4.582
98564W        W70147  34.040  38.058  14.797
98565W        W70148   4.328   3.283   0.647
98566W        W70149  27.242   6.324   3.268
98567W        W70150  38.265  17.218  11.743
98568W        W70151  39.331  43.261   0.789
98569W        W70152   2.805  36.782   0.020
98570W        W70153   7.310   8.877  10.990
98571W        W70154  26.645   2.424  11.214
98572W        W70155   0.888  20.210   0.213
98573W        W70156   6.846  20.477   1.048
98574W        W70157  31.670  30.054   0.207
98575W        W70158  36.971  16.665   0.397
98576W        W70159  21.307   7.538  14.728
98577W        W70160  13.192  26.986   4.693
98578W        W70161  31.646  21.041  14.762
98579W        W70162  27.562   7.612   3.826
98580W        W70163  28.031  30.692   4.605
98581W        W70164  42.530  14.355   4.568
98582W        W70165  24.023   9.729   4.550
98583W        W70166   6.403  44.923   1.268
98584W        W70167  12.309  10.676   1.193
98585W        W70168  21.296  28.390  11.134
98586W        W70169  42.885  42.575   0.238
98587W        W70170  32.387   2.025   5.089
98588W        W70171  19.011   6.769   0.920
98589W        W70172  28.189  43.917   3.272
98590W        W70173   0.747  28.037  13.424
98591W        W70174  25.189   2.660   1.456
98592W        W70175  17.817  43.489   4.490
98593W        W70176  38.687  11.907  12.057
98594W        W70177   4.825  39.127   4.849
98595W        W70178  44.373  13.416   4.949
98596W        W70179  23.496  37.537   4.087
98597W        W70180  38.373  10.234   0.557
98598W        W70181   2.023  27.343  13.458
98599W        W70182  29.468  25.078  11.469
98600W        W70183  13.359  37.243  11.102
98601W        W70184  32.450  30.185  12.934
98602W        W70185  17.731  12.319   0.970
98603W        W70186  13.062  20.597  12.091
98604W        W70187  26.095  29.579  10.671
98605W        W70188  42.720  35.398  14.913
98606W        W70189  27.783  32.064  13.313
98607W        W70190  44.342  42.694  13.717
98608W        W70191  25.067  40.003   1.268
98609W        W70192  14.046  29.186   3.799
98610W        W70193  22.775  32.869   4.151
98611W        W70194   3.758  29.044  14.747
98612W        W70195  42.859  16.515   3.336
98613W        W70196   6.684   3.811  13.275
98614W        W70197   9.712  17.802  13.035
98615W        W70198  35.571  23.969   1.781
98616W        W70199  32.749  18.762   0.105
98617W        W70200   9.508  30.462  11.290
98618W        W70201  42.530   8.791  12.499
98619W        W70202  42.404   1.264  12.779
98620W        W70203  27.931  32.927   1.539
98621W        W70204  31.952  24.183   3.684
98622W        W70205  35.375  27.451   4.383
98623W        W70206   2.368  38.672   3.261
98624W        W70207  20.289  18.467  13.343
98625W        W70208   1.179  36.588  14.256
98626W        W70209  23.755  18.674   1.133
98627W        W70210  23.686  42.386  11.048
98628W        W70211  24.681  15.312   1.748
98629W        W70212  39.792   6.764   3.510
98630W        W70213  11.891  19.970   1.513
98631W        W70214  15.120  42.024  13.483
98632W        W70215  42.101   1.828  11.799
98633W        W70216  22.716  30.901  12.015
98634W        W70217   0.206  11.150  11.518
98635W        W70218   7.299  31.882   3.393
98636W        W70219  22.911   8.828   3.713
98637W        W70220  13.730   3.775   0.358
98638W        W70221  38.853   9.511  11.293
98639W        W70222  27.206  29.038  13.969
98640W        W70223  31.741  24.503  11.570
98641W        W70224  20.767  26.552  11.093
98642W        W70225  44.988   2.485  14.920
98643W        W70226  29.019  28.215  11.178
98644W        W70227  35.095  15.278  12.887
98645W        W70228  33.853  11.667   4.246
98646W        W70229  26.491  24.109   4.361
98647W        W70230  29.923  32.946   0.032
98648W        W70231   9.598  28.996   4.204
98649W        W70232  33.820  44.378   4.515
98650W        W70233  19.084   1.544  13.984
98651W        W70234   2.915  28.140  14.898
98652W        W70235   4.224  13.923  11.708
98653W        W70236   3.515  37.600  11.465
98654W        W70237  24.197  37.700   3.678
98655W        W70238   7.489  27.992  14.456
98656W        W70239  35.826   5.624   1.400
98657W        W70240  44.536  10.059  14.398
98658W        W70241  18.776  44.260   0.417
98659W        W70242  18.077   2.880  12.583
98660W        W70243   7.277   4.584  13.960
98661W        W70244  40.611  25.761   2.782
98662W        W70245  27.024   9.930   3.814
98663W        W70246   0.867  43.010  11.496
98664W        W70247   4.670  40.860   4.519
98665W        W70248  16.307  40.208  12.049
98666W        W70249  23.469   3.419   5.051
98667W        W70250  21.100  25.266  11.597
98668W        W70251  38.354   5.364  12.523
98669W        W70252   6.930  38.871   0.818
98670W        W70253  40.076  19.037  14.364
98671W        W70254  35.403  33.460   2.420
98672W        W70255  27.245  12.265  14.983
98673W        W70256  26.486   9.362   9.809
98674W        W70257   5.419  19.048   2.353
98675W        W70258  34.552  13.663  14.536
98676W        W70259  10.745  28.472   4.079
98677W        W70260  36.071  40.422  14.955
98678W        W70261  44.485  20.251  10.508
98679W        W70262   5.781  24.064  11.642
98680W        W70263  34.485  39.559   4.663
98681W        W70264   1.359   7.318  11.644
98682W        W70265  19.798   5.412  11.043
98683W        W70266   9.338  15.048   4.204
98684W        W70267  13.223  40.041  11.196
98685W        W70268  21.457   4.919   4.148
98686W        W70269  29.438   0.875   3.220
98687W        W70270  24.009  19.564   4.575
98688W        W70271   4.941  15.124   2.898
98689W        W70272  13.760  10.776  13.406
98690W        W70273  42.919  29.963  13.894
98691W        W70274   9.299  21.286  10.767
98692W        W70275  26.636  24.492  14.926
98693W        W70276  26.216  15.132  14.283
98694W        W70277  25.601  20.681   4.063
98695W        W70278  36.819  10.324  13.483
98696W        W70279   9.095  41.019  13.562
98697W        W70280  14.107  10.418   0.980
98698W        W70281  28.922   0.912   3.130
98699W        W70282  11.820  31.090  13.822
98700W        W70283   5.855  41.425   1.630
98701W        W70284  21.068  16.589  10.597
98702W        W70285  13.674  30.203   0.017
98703W        W70286  42.495  31.844   3.221
98704W        W70287  34.018  25.218   4.184
98705W        W70288  17.761   5.307   2.401
98706W        W70289  27.203  38.980  10.658
98707W        W70290   2.660  19.310   3.293
98708W        W70291  27.961  24.678   1.989
98709W        W70292   0.991   8.244  10.775
98710W        W70293   6.121  33.148   4.260
98711W        W70294  28.717  24.657  11.449
98712W        W70295  23.586  26.567   0.502
98713W        W70296  11.888  30.530  10.907
98714W        W70297  16.384  27.420   0.321
98715W        W70298   5.920  23.877  14.583
98716W        W70299  34.685   8.460  13.838
98717W        W70300   4.849  44.480  12.489
98718W        W70301  12.942  32.618  12.490
98719W        W70302  20.545  13.306   0.752
98720W        W70303  34.103  34.844  14.762
98721W        W70304  35.773  36.462  14.690
98722W        W70305   3.964  15.019  14.045
98723W        W70306  15.071   5.749  14.921
98724W        W70307  25.951  31.696  12.470
98725W        W70308  10.106  23.561  13.395
98726W        W70309  27.435   6.003  14.900
98727W        W70310  18.687  33.465   9.985
98728W        W70311  29.235   9.895  12.604
98729W        W70312  25.177   3.797   3.866
98730W        W70313  23.744  38.407   4.111
98731W        W70314  20.252  12.009   4.275
98732W        W70315   0.449  25.088  11.830
98733W        W70316  25.434  44.666  11.191
98734W        W70317  14.416  21.986   0.724
98735W        W70318   4.165  23.988  10.617
98736W        W70319   2.076  34.188   2.605
98737W        W70320  29.464  22.642  11.473
98738W        W70321  39.591  41.784  14.239
98739W        W70322   1.401  15.667  12.022
98740W        W70323  22.903   4.697   3.674
98741W        W70324  37.183  18.602  14.471
98742W        W70325  38.709  27.699  13.230
98743W        W70326   1.673  33.816  13.597
98744W        W70327  37.353  39.553   1.269
98745W        W70328  39.056  23.263  12.952
98746W        W70329  23.760  32.167  12.161
98747W        W70330  14.798   5.272  14.379
98748W        W70331  22.191  10.268   1.501
98749W        W70332  23.535   8.317   3.955
98750W        W70333  13.832  14.854  13.449
98751W        W70334   9.713  15.569  14.405
98752W        W70335  44.725  34.382   3.166
98753W        W70336  11.654  20.097  14.075
98754W        W70337  11.433   6.922   1.673
98755W        W70338  32.926  35.889  12.969
98756W        W70339  32.290  13.857  12.115
98757W        W70340  34.858  33.358  12.483
98758W        W70341  38.168  35.837  11.091
98759W        W70342   6.972  37.489   4.480
98760W        W70343  21.978  22.320  12.048
98761W        W70344   3.520   1.292  10.769
98762W        W70345   2.148  34.344  12.479
98763W        W70346  28.409   4.415  12.540
98764W        W70347  20.473  42.828   3.676
98765W        W70348  44.395  30.749  11.454
98766W        W70349  33.597  27.731  14.592
98767W        W70350  35.955  16.510  12.018
98768W        W70351  41.542  37.951  11.930
98769W        W70352  19.288  23.633   1.393
98770W        W70353  41.897  16.750  13.335
98771W        W70354   6.886  37.085  10.729
98772W        W70355  14.223  36.332  12.653
98773W        W70356  21.532  39.551  11.150
98774W        W70357  11.674  21.776  14.964
98775W        W70358  18.547  15.602   2.267
98776W        W70359  18.704  13.063   4.146
98777W        W70360  43.319  29.931  14.244
98778W        W70361   3.768  39.977   0.156
98779W        W70362   5.679  30.607   1.134
98780W        W70363  37.838  37.013  12.067
98781W        W70364  21.967  28.434   3.708
98782W        W70365  28.763  28.609   3.231
98783W        W70366  29.921  31.123   3.738
98784W        W70367  32.990  28.992   2.182
98785W        W70368   5.148  28.043   1.309
98786W        W70369  33.739  15.623  10.995
98787W        W70370  28.070  22.196   3.318
98788W        W70371  21.973   1.318   1.321
98789W        W70372  15.440  30.666  12.559
98790W        W70373  41.563  21.687  12.996
98791W        W70374  31.484  34.953  13.027
98792W        W70375   8.122   7.260  10.687
98793W        W70376  39.850  29.065   2.684
98794W        W70377   4.708  27.106   1.164
98795W        W70378  11.837  20.542  11.556
98796W        W70379   3.811  13.196  12.158
98797W        W70380  27.010  11.293   1.001
98798W        W70381   5.360  41.588   0.421
98799W        W70382  30.929   4.752   4.039
98800W        W70383  28.928  19.837  12.064
98801W        W70384  40.543  26.679   4.558
98802W        W70385   8.755  21.790  12.939
98803W        W70386  38.807  16.632  11.200
98804W        W70387  11.793  44.211  11.895
98805W        W70388   5.176  31.631  12.428
98806W        W70389  31.925  38.368   0.970
98807W        W70390   6.854   6.251  13.434
98808W        W70391  15.587  13.600  13.050
98809W        W70392  25.970   8.400  10.676
98810W        W70393  36.380  13.379  13.219
98811W        W70394  27.884  10.359  11.998
98812W        W70395   3.685  16.250  13.536
98813W        W70396  31.206  34.874   3.248
98814W        W70397  24.064  22.815   4.026
98815W        W70398  21.994  31.639   3.263
98816W        W70399   8.707   9.766  12.785
98817W        W70400  34.905  25.914  12.999
98818W        W70401   3.337   6.328  10.421
98819W        W70402  34.173  42.450   4.724
98820W        W70403  36.169  18.249  13.757
98821W        W70404  32.526  31.912  12.824
98822W        W70405  14.548  35.465   0.256
98823W        W70406  29.928  33.717  12.396
98824W        W70407   7.853  31.175   3.092
98825W        W70408  12.417  33.262  13.925
98826W        W70409  17.250  15.036   2.344
98827W        W70410  18.731  30.402  14.398
98828W        W70411   7.922  12.282   0.406
98829W        W70412  36.926  26.221   2.804
98830W        W70413  28.954  29.452  12.051
98831W        W70414   4.305  41.777   2.482
98832W        W70415  33.238   8.793  13.019
98833W        W70416  14.167  12.105   1.618
98834W        W70417  37.950   7.415   0.338
98835W        W70418   9.806  34.323   1.169
98836W        W70419   4.939  22.536  11.593
98837W        W70420  37.188  24.858   1.307
98838W        W70421   6.355  37.311   2.784
98839W        W70422   2.483  33.555   0.426
98840W        W70423  17.766  22.970   3.681
98841W        W70424   2.889  39.131  10.256
98842W        W70425  14.853  32.538   2.695
98843W        W70426  20.022  28.716   3.733
98844W        W70427  44.073  31.014  11.134
98845W        W70428  29.695  39.320  12.614
98846W        W70429  25.738   0.935  13.418
98847W        W70430  11.801  23.433  13.001
98848W        W70431  25.590  39.976   4.706
98849W        W70432  29.872  35.175   3.783
98850W        W70433  11.825  20.373   1.199
98851W        W70434  11.292  35.492  11.891
98852W        W70435  12.026   0.293  11.089
98853W        W70436  32.805   9.382  13.548
98854W        W70437  38.023  26.972  12.008
98855W        W70438   1.379  28.596   0.253
98856W        W70439  44.401   2.493   4.631
98857W        W70440  32.618   1.208  10.567
98858W        W70441   6.266  42.002  14.331
98859W        W70442  31.505   6.162   3.313
98860W        W70443  20.134  22.573   4.015
98861W        W70444  39.016  30.683   0.428
98862W        W70445   2.321  10.422  14.876
98863W        W70446  19.050  23.609   9.810
98864W        W70447  27.981  40.333   2.644
98865W        W70448  43.400  13.173  11.164
98866W        W70449   5.608  24.790  12.699
98867W        W70450   8.603  20.660  13.567
98868W        W70451   4.286  36.267   9.857
98869W        W70452  43.026  10.323  11.220
98870W        W70453  40.495   7.285  13.519
98871W        W70454  39.099   4.301  14.393
98872W        W70455  24.711  33.729  11.894
98873W        W70456   8.355  30.217  11.036
98874W        W70457  16.314  19.860  11.179
98875W        W70458  37.675   4.915  10.171
98876W        W70459  20.768  33.314  10.728
98877W        W70460  10.240   6.930   3.771
98878W        W70461  42.733  15.887  11.674
98879W        W70462   7.353  19.205  12.031
98880W        W70463  32.793  37.140   1.761
98881W        W70464   2.275  38.923   3.682
98882W        W70465  26.930  29.101   1.736
98883W        W70466  15.538  43.939  12.478
98884W        W70467  38.973  25.533  13.121
98885W        W70468  38.288  13.727  13.418
98886W        W70469  42.904  31.555  12.595
98887W        W70470   9.848  38.426  10.860
98888W        W70471  38.412   2.929  13.149
98889W        W70472   7.450  28.619   3.605
98890W        W70473  40.366  10.214   4.718
98891W        W70474   6.714   5.946   3.772
98892W        W70475  35.859  42.464   3.073
98893W        W70476   3.634  35.568   5.174
98894W        W70477   6.701   0.932  10.849
98895W        W70478  35.432  22.780  12.978
98896W        W70479  12.115   9.862  10.667
98897W        W70480  23.260   8.818  14.214
98898W        W70481   9.318  19.755  13.849
98899W        W70482  43.574  43.471   0.433
98900W        W70483  37.074  21.080   4.594
98901W        W70484  43.941  13.104   4.954
98902W        W70485   5.196  40.297   3.038
98903W        W70486  44.175  22.330  14.298
98904W        W70487   6.044   0.067  11.572
98905W        W70488  14.676  37.164  14.471
98906W        W70489  16.788  14.090  12.972
98907W        W70490  26.428   4.028  14.743
98908W        W70491  39.008  12.025   3.374
98909W        W70492  19.850   7.424  12.163
98910W        W70493   3.312  16.624   2.777
98911W        W70494  44.345  19.649   4.716
98912W        W70495  33.633  41.022  13.532
98913W        W70496   1.966  39.736   4.092
98914W        W70497  31.091  35.881   4.286
98915W        W70498  16.905  19.582   3.278
98916W        W70499  11.807  36.404   2.545
98917W        W70500  12.144   3.437  14.810
98918W        W70501  22.813  28.974  14.893
98919W        W70502  28.769  26.105   4.083
98920W        W70503  34.051  39.613   2.906
98921W        W70504  36.367  13.107  14.492
98922W        W70505  29.611  21.363  11.919
98923W        W70506  44.749  35.021   2.821
98924W        W70507  40.070  17.644   0.398
98925W        W70508   1.927  22.101   0.539
98926W        W70509  13.924  37.944   3.618
98927W        W70510  11.553   0.010  11.566
98928W        W70511  17.472   1.205   2.300
98929W        W70512  13.406  39.189   1.399
98930W        W70513  19.071  21.794  12.540
98931W        W70514  16.784   2.382  11.573
98932W        W70515  29.984  29.635  14.547
98933W        W70516  32.566   1.254  11.098
98934W        W70517  42.920  24.519   3.618
98935W        W70518   3.401  17.193   4.617
98936W        W70519   4.872   0.538  10.258
98937W        W70520  11.481  36.279  12.253
98938W        W70521  23.242  15.120   1.302
98939W        W70522  34.391  43.461  13.843
98940W        W70523  32.309   8.672   3.072
98941W        W70524  17.018  32.841  14.808
98942W        W70525   6.148  40.322  10.772
98943W        W70526   0.588  25.045  13.961
98944W        W70527  12.137  17.125   4.365
98945W        W70528  30.453  14.269  11.619
98946W        W70529  25.023  12.780   1.311
98947W        W70530  37.981   9.201   2.400
98948W        W70531  23.957  35.469  13.216
98949W        W70532  17.608  43.651  14.830
98950W        W70533  12.118  26.096   1.920
98951W        W70534  30.552  14.104   1.161
98952W        W70535  16.343  38.755  14.160
98953W        W70536  43.262  35.507   4.693
98954W        W70537  23.468  14.385   3.295
98955W        W70538   3.871  31.612   4.580
98956W        W70539  43.512  35.152  11.911
98957W        W70540  34.865   5.024   3.631
98958W        W70541   5.686  22.055  12.951
98959W        W70542  38.117  43.834   0.441
98960W        W70543  44.483  32.375  14.890
98961W        W70544  22.892  18.136   9.727
98962W        W70545  19.716   0.192  13.869
98963W        W70546  18.361   4.249  11.116
98964W        W70547  15.038  23.637   2.689
98965W        W70548  11.193  35.835  12.283
98966W        W70549   4.878   9.695   2.690
98967W        W70550  19.630  11.170  12.969
98968W        W70551  27.657  37.219  11.751
98969W        W70552  28.049  10.107   1.915
98970W        W70553  17.624  22.494  10.611
98971W        W70554   1.325  41.495   3.896
98972W        W70555  35.899  14.252  11.625
98973W        W70556   7.425  43.540   1.887
98974W        W70557  11.305  41.745   2.523
98975W        W70558   4.830  18.289  12.110
98976W        W70559  33.445  42.310  11.017
98977W        W70560  28.475  33.375   2.826
98978W        W70561   3.248  41.796   3.616
98979W        W70562  40.488  25.718   1.860
98980W        W70563  12.855  25.494   3.231
98981W        W70564  30.910  39.966  14.388
98982W        W70565  15.575  26.647   2.426
98983W        W70566  15.318  33.244  11.510
98984W        W70567  31.140  23.221  12.675
98985W        W70568  11.916  24.108   0.368
98986W        W70569  14.214  24.734  11.520
98987W        W70570   2.665  15.032   0.588
98988W        W70571  44.834  25.196  12.505
98989W        W70572  38.086  26.538  12.816
98990W        W70573   3.355  41.842   2.280
98991W        W70574  39.812  23.152  12.505
98992W        W70575  35.292  40.032  12.943
98993W        W70576  31.760   5.229  12.562
98994W        W70577  14.109  13.354   3.916
98995W        W70578  25.250  21.643   1.330
98996W        W70579   7.615  30.441   0.848
98997W        W70580  34.976   8.918  13.787
98998W        W70581   3.147  35.746   3.708
98999W        W70582  13.792  30.721   2.768
99000W        W70583  39.409  13.230   3.168
99001W        W70584  18.578  36.667  14.915
99002W        W70585  13.279   5.847  11.535
99003W        W70586  24.126  34.453   1.633
99004W        W70587   7.890  16.774  13.397
99005W        W70588  36.642  20.562   1.046
99006W        W70589  18.710   8.749   3.482
99007W        W70590  32.195  20.004   0.839
99008W        W70591  43.765  23.051  12.376
99009W        W70592  16.300   6.313   1.168
99010W        W70593  31.063  31.555  10.370
99011W        W70594   9.309   9.708   4.461
99012W        W70595  41.892  22.868   0.925
99013W        W70596  31.043  13.144  14.404
99014W        W70597   8.777  21.647   1.935
99015W        W70598  44.000  10.911  12.932
99016W        W70599   8.208  12.234  12.448
99017W        W70600  27.051  21.551  11.983
99018W        W70601  29.569  16.933  11.097
99019W        W70602   1.512  23.520  14.768
99020W        W70603  24.435   1.372   2.094
99021W        W70604  23.036  35.973  11.579
99022W        W70605  23.473  33.893  13.492
99023W        W70606  24.164  31.400   0.319
99024W        W70607  14.273  15.707   1.893
99025W        W70608  12.563  24.459   1.214
99026W        W70609   4.672  42.306   3.723
99027W        W70610  28.936  17.319   2.817
99028W        W70611  29.187  16.371   2.749
99029W        W70612  36.720   9.849  12.323
99030W        W70613   7.390  36.653  13.923
99031W        W70614  17.377   0.076  14.653
99032W        W70615  15.744  38.973   3.994
99033W        W70616   0.819  35.356  13.147
99034W        W70617   3.630  39.717  12.901
99035W        W70618  19.841   7.815   2.805
99036W        W70619  43.419   8.432   0.907
99037W        W70620  44.940   5.614   4.623
99038W        W70621  43.304   4.670   0.383
99039W        W70622  11.605   7.374   0.347
99040W        W70623  26.222   9.254   1.204
99041W        W70624  44.257   3.800  12.899
99042W        W70625  20.645  24.783   1.510
99043W        W70626  10.147  24.448  14.427
99044W        W70627  43.464   0.392   0.359
99045W        W70628   2.030  19.266  11.604
99046W        W70629  37.528   9.944   2.292
99047W        W70630  29.736  36.966   1.389
99048W        W70631   3.268  20.983   2.855
99049W        W70632  15.164   5.407   4.302
99050W        W70633  10.764   2.911  14.524
99051W        W70634  22.899  13.327   0.944
99052W        W70635  17.271   5.848  10.844
99053W        W70636  23.181  12.282  11.869
99054W        W70637  12.228  26.982   3.068
99055W        W70638  39.867  27.734   2.283
99056W        W70639   4.804  14.254  11.207
99057W        W70640  33.493  39.761  10.551
99058W        W70641  37.528  10.976  14.904
99059W        W70642  32.748  37.112  13.435
99060W        W70643  34.609  44.366  13.435
99061W        W70644  42.994   8.963   5.017
99062W        W70645  25.109  36.779   3.221
99063W        W70646  18.252  30.573  14.237
99064W        W70647  37.362  26.665   1.834
99065W        W70648   4.031   2.256   3.252
99066W        W70649  29.594  31.332   5.540
99067W        W70650  33.557  20.298   0.374
99068W        W70651  22.621  34.171   0.468
99069W        W70652  22.739  12.898   1.231
99070W        W70653  18.486  34.615  11.017
99071W        W70654   0.447  22.040   4.315
99072W        W70655  26.374  43.934   0.636
99073W        W70656  27.925   6.836  14.429
99074W        W70657  18.881  20.584   1.882
99075W        W70658  26.683  37.644  14.417
99076W        W70659  44.683   5.758   4.174
99077W        W70660  42.401  40.841   4.687
99078W        W70661  33.133  38.103  14.969
99079W        W70662  30.146  33.372  12.036
99080W        W70663  44.235  28.557   1.312
99081W        W70664  44.043  32.677  14.920
99082W        W70665   1.977  25.416   3.768
99083W        W70666  16.264  25.206   3.750
99084W        W70667  37.977   6.757  10.291
99085W        W70668  10.951  15.897   1.751
99086W        W70669  36.849  27.152   4.160
99087W        W70670  11.893   0.920  12.788
99088W        W70671   0.700   3.810  12.394
99089W        W70672  20.587  28.024  11.183
99090W        W70673  28.595  39.067  11.198
99091W        W70674   7.701  37.406   4.707
99092W        W70675  36.291  34.386   2.731
99093W        W70676  31.408  22.793  12.522
99094W        W70677  16.180  36.677   3.258
99095W        W70678   7.174  10.780  13.942
99096W        W70679  31.021  24.001   4.835
99097W        W70680  12.945  18.317   0.843
99098W        W70681  38.218   2.701  11.200
99099W        W70682  18.185  27.999  13.505
99100W        W70683  19.674  33.284   2.211
99101W        W70684  16.203   3.725   3.275
99102W        W70685  33.941  18.811  13.538
99103W        W70686  30.238  25.477  13.931
99104W        W70687  27.574  43.069   1.383
99105W        W70688  30.131  22.500   2.176
99106W        W70689   6.767  27.676   2.955
99107W        W70690  33.092  27.629  10.694
99108W        W70691  19.271  16.661   0.809
99109W        W70692   3.861  22.242   1.470
99110W        W70693   5.920  19.648  10.530
99111W        W70694  34.365  27.742  10.838
99112W        W70695  34.826  42.293   3.197
99113W        W70696  37.960  14.802   1.690
99114W        W70697  42.773  37.086  14.766
99115W        W70698  28.527   1.853   4.564
99116W        W70699  14.278  17.897  12.506
99117W        W70700  12.413   7.761  14.322
99118W        W70701  30.512  15.575   4.657
99119W        W70702  11.127  13.636   2.807
99120W        W70703  36.496  26.111   4.800
99121W        W70704   3.681  19.236   3.388
99122W        W70705  15.334  32.639  11.911
99123W        W70706  12.126   5.685   1.486
99124W        W70707  13.330  22.163   4.842
99125W        W70708   1.259  39.906  11.474
99126W        W70709  29.571  41.523  11.643
99127W        W70710   0.969  11.313  11.947
99128W        W70711   6.908  41.379  11.598
99129W        W70712  13.207   6.603  12.904
99130W        W70713  15.355   2.264   1.376
99131W        W70714  14.885  37.363  12.040
99132W        W70715  37.432   1.515  10.711
99133W        W70716  33.757  23.619  13.407
99134W        W70717  27.771  17.422  13.577
99135W        W70718   3.519  41.837  11.408
99136W        W70719  16.249  21.532   3.905
99137W        W70720  33.164  21.706  14.052
99138W        W70721  29.976   4.699   1.908
99139W        W70722  31.891  14.259  14.739
99140W        W70723  26.967  24.862  13.789
99141W        W70724  12.621  18.747  14.754
99142W        W70725   2.915  29.990   1.902
99143W        W70726   3.321   6.895   3.934
99144W        W70727  37.512   3.380   2.375
99145W        W70728  26.248   0.316  11.054
99146W        W70729  38.376  43.675  13.979
99147W        W70730  43.306  34.967  13.295
99148W        W70731   7.571  35.694   1.224
99149W        W70732  41.289  19.214   1.426
99150W        W70733   2.410  40.209   0.767
99151W        W70734  34.616  25.404   2.034
99152W        W70735  32.172  37.822  11.977
99153W        W70736  11.109  29.983  11.582
99154W        W70737   2.873   4.906  14.825
99155W        W70738  37.564  29.039  12.610
99156W        W70739  35.532  27.325  12.127
99157W        W70740  32.953  42.361  11.071
99158W        W70741  27.711  18.527   0.434
99159W        W70742  28.232  13.147   2.925
99160W        W70743   8.640  11.940  10.812
99161W        W70744   1.044  44.375  10.556
99162W        W70745   0.595   2.982  14.839
99163W        W70746   0.446  40.449   4.375
99164W        W70747  10.863  20.707  11.686
99165W        W70748  10.543  26.394  11.173
99166W        W70749  43.524  12.389   2.048
99167W        W70750  32.424  28.949   0.900
99168W        W70751  36.003  10.987  11.788
99169W        W70752  14.197  24.425   0.356
99170W        W70753   8.960  38.866  14.434
99171W        W70754  24.410  25.011  11.080
99172W        W70755   1.095  38.001  11.116
99173W        W70756   7.793  11.881   4.602
99174W        W70757  11.741  20.255  14.958
99175W        W70758   9.823  16.813   2.641
99176W        W70759  28.452   2.228   1.885
99177W        W70760   3.984  44.753  12.325
99178W        W70761   9.909  42.519   0.893
99179W        W70762   3.598  35.329  14.451
99180W        W70763   1.065  39.463   0.336
99181W        W70764  40.463   7.704   0.273
99182W        W70765  31.464  14.375  14.416
99183W        W70766  25.391  18.441   4.249
99184W        W70767  28.026  22.322   1.670
99185W        W70768  32.438  23.319   3.564
99186W        W70769   5.371  10.178  12.562
99187W        W70770  16.016  40.940   2.607
99188W        W70771  24.691   3.420   4.608
99189W        W70772  23.711  16.633  13.895
99190W        W70773   2.800  10.664  12.388
99191W        W70774  33.425  39.589   4.636
99192W        W70775  43.001  42.783  13.859
99193W        W70776  21.092   6.894   3.801
99194W        W70777  27.438  20.255  14.518
99195W        W70778   8.981   1.144  12.845
99196W        W70779  29.528  23.132  11.602
99197W        W70780  41.189  38.671   0.117
99198W        W70781  12.774  13.179   4.628
99199W        W70782  31.333   6.252  13.499
99200W        W70783   5.375  31.674   3.244
99201W        W70784  12.665  10.685  10.483
99202W        W70785  41.358  29.215  10.709
99203W        W70786  43.017  31.082  12.422
99204W        W70787  30.523  33.474  14.622
99205W        W70788  28.235  21.470  13.044
99206W        W70789   5.579  23.429   2.833
99207W        W70790  39.803   8.705  12.641
99208W        W70791  10.931  16.224   2.903
99209W        W70792  42.389  20.191  14.393
99210W        W70793  30.983  32.017  13.683
99211W        W70794  36.391  33.519   4.110
99212W        W70795  29.560  38.349   3.184
99213W        W70796  15.607  27.103  13.457
99214W        W70797   0.525   4.795  10.726
99215W        W70798   9.388   1.815  13.762
99216W        W70799  24.592  27.483  11.160
99217W        W70800  24.280  36.126  12.943
99218W        W70801   0.221  31.489  13.326
99219W        W70802  22.733  33.845   1.932
99220W        W70803   2.705  23.117  14.806
99221W        W70804   0.800  13.905   1.251
99222W        W70805  26.737  38.669  13.269
99223W        W70806  34.581  15.124   2.935
99224W        W70807  41.580  10.264  11.053
99225W        W70808  23.523  30.039   4.439
99226W        W70809  31.130  33.320   1.392
99227W        W70810  42.368   4.979   4.878
99228W        W70811  38.090  29.475   0.503
99229W        W70812  27.935  22.113  10.608
99230W        W70813  42.795  18.090   4.100
99231W        W70814   6.724  28.088   0.831
99232W        W70815  20.185  25.583  11.119
99233W        W70816  21.724  26.747  14.454
99234W        W70817  37.047  43.434  12.004
99235W        W70818  21.188  14.302   4.357
99236W        W70819  36.919  37.889  13.192
99237W        W70820  38.173   2.934   0.274
99238W        W70821  37.270  13.587   3.211
99239W        W70822  30.888   8.806   4.557
99240W        W70823  44.316  40.913  13.391
99241W        W70824  18.866  44.351  14.852
99242W        W70825  15.320  44.318   3.736
99243W        W70826  44.529  19.577  12.928
99244W        W70827   3.391  11.779  12.930
99245W        W70828  26.610  11.851   3.639
99246W        W70829   5.742   0.710  10.560
99247W        W70830  10.259   0.372   1.770
99248W        W70831  35.640  13.027   2.671
99249W        W70832  22.706  22.607  14.242
99250W        W70833  19.586  24.751  11.009
99251W        W70834  35.567   8.160   1.790
99252W        W70835   5.686  31.580  12.249
99253W        W70836   7.235  32.116  12.503
99254W        W70837  43.460  24.889   1.241
99255W        W70838  29.367  27.115  13.178
99256W        W70839  15.645  17.194  13.797
99257W        W70840  17.678  29.699  12.503
99258W        W70841  19.259  30.922   0.263
99259W        W70842   5.134   6.917   1.534
99260W        W70843  41.873  17.851  13.380
99261W        W70844  42.687   0.757   0.110
99262W        W70845  32.713  10.393   0.767
99263W        W70846  38.981  42.085   3.333
99264W        W70847  30.561  15.420  13.234
99265W        W70848   1.365   7.122  14.292
99266W        W70849  26.235   5.474  13.503
99267W        W70850  14.619  31.450  14.024
99268W        W70851  10.866  41.060   1.836
99269W        W70852   6.647   3.865   3.184
99270W        W70853   5.258  38.852  14.949
99271W        W70854  26.184  11.687  13.886
99272W        W70855  22.492  20.049   0.028
99273W        W70856  38.493  28.653   2.759
99274W        W70857  20.996  25.977   3.461
99275W        W70858  31.478  28.491   1.265
99276W        W70859   7.827   8.029   4.607
99277W        W70860   7.925  28.185  12.506
99278W        W70861  23.555  44.658   2.818
99279W        W70862   3.811  23.199   3.630
99280W        W70863   9.959  16.585   4.634
99281W        W70864  13.865   3.453   4.257
99282W        W70865   2.999  15.111   0.221
99283W        W70866   2.908  14.757   3.731
99284W        W70867   1.708  34.452  11.669
99285W        W70868   9.114  20.336  12.022
99286W        W70869  34.875   0.639  12.440
99287W        W70870  44.451  32.988   3.362
99288W        W70871   1.237  13.625   1.384
99289W        W70872  15.200  13.769   4.632
99290W        W70873  35.985  21.486  12.027
99291W        W70874  28.374  15.561  13.225
99292W        W70875  30.062   9.851   0.458
99293W        W70876  27.994  18.402   5.045
99294W        W70877  26.936  20.497  11.957
99295W        W70878   3.874  25.677   1.163
99296W        W70879  14.299  31.520   3.173
99297W        W70880  38.081  27.730   1.476
99298W        W70881  23.251  11.198   4.701
99299W        W70882  10.469  15.110   3.244
99300W        W70883   3.800  32.570   1.295
99301W        W70884  22.579  39.392  12.478
99302W        W70885   9.273   0.930   4.532
99303W        W70886  28.212  11.850  14.071
99304W        W70887  22.231  26.844  14.419
99305W        W70888  11.676  15.766  14.098
99306W        W70889   7.763  32.962   2.428
99307W        W70890  24.734  41.991  14.851
99308W        W70891  16.623  22.934  13.435
99309W        W70892  10.889   5.755   4.536
99310W        W70893  22.566   7.254  12.830
99311W        W70894  12.237   4.153   4.183
99312W        W70895  43.979  18.041  12.478
99313W        W70896  18.872  37.345   0.219
99314W        W70897  15.793  42.844   1.210
99315W        W70898  31.031  14.764  14.398
99316W        W70899  20.511  28.559  11.895
99317W        W70900  44.028  43.292   4.900
99318W        W70901   3.969  12.723   0.249
99319W        W70902  33.904  41.992   4.661
99320W        W70903  15.620  35.330  13.920
99321W        W70904  28.873   8.260   2.175
99322W        W70905   7.854   9.792  13.929
99323W        W70906  20.683  28.966  13.986
99324W        W70907  10.886   5.871  13.810
99325W        W70908  40.419  43.553   4.403
99326W        W70909  41.456  21.804   3.324
99327W        W70910  25.637  36.937  10.783
99328W        W70911  34.998  22.798   0.373
99329W        W70912  34.984   7.814  11.942
99330W        W70913   6.556  33.583  13.630
99331W        W70914  30.431  39.056   2.215
99332W        W70915  39.575  23.068   0.223
99333W        W70916   0.486  19.577  11.105
99334W        W70917  16.682   5.322  14.943
99335W        W70918  23.802  37.017  14.005
99336W        W70919  25.871  31.646   3.984
99337W        W70920  41.348  29.700   3.343
99338W        W70921  36.471  30.745  11.907
99339W        W70922  12.660  32.584  11.443
99340W        W70923   2.428   0.596   0.868
99341W        W70924  44.390   3.975   4.495
99342W        W70925  23.499   0.792   3.671
99343W        W70926   6.391  19.003   0.306
99344W        W70927  28.442   6.421   2.768
99345W        W70928   8.207  37.194  14.235
99346W        W70929  32.153  41.842  14.472
99347W        W70930  11.037  17.555   1.455
99348W        W70931  43.230  38.856   3.811
99349W        W70932  11.040  17.660   0.328
99350W        W70933  24.733  18.855   1.189
99351W        W70934  18.605  12.650  14.904
99352W        W70935  44.746   2.287  11.433
99353W        W70936  36.074  16.090   0.220
99354W        W70937  16.601  19.167  10.871
99355W        W70938  43.019  10.852   3.378
99356W        W70939   5.638  17.487  12.185
99357W        W70940   4.020  30.529  12.061
99358W        W70941  25.942  42.633   2.196
99359W        W70942  40.266  11.240  11.545
99360W        W70943  16.746   9.441  11.524
99361W        W70944  23.670  12.279  11.754
99362W        W70945  27.727  22.714   1.290
99363W        W70946  44.036   7.248   3.695
99364W        W70947  40.347  23.966  13.402
99365W        W70948  39.246   0.970   0.361
99366W        W70949  35.573  18.288   0.152
99367W        W70950  42.298  33.309   4.560
99368W        W70951  28.086   2.664  14.228
99369W        W70952  25.526  37.873   1.802
99370W        W70953   3.412   9.504   2.696
99371W        W70954  42.947  25.233   0.006
99372W        W70955  43.984  40.104   4.158
99373W        W70956   1.381  15.129   0.349
99374W        W70957   4.936  32.512  10.424
99375W        W70958  34.392  14.524   0.864
99376W        W70959  34.305  26.429   3.661
99377W        W70960  30.853   2.373  14.922
99378W        W70961  11.815  17.941   3.656
99379W        W70962  36.809  11.067   0.290
99380W        W70963  11.766  20.552   4.203
99381W        W70964  12.395  20.985  13.182
99382W        W70965  32.176   2.809   3.798
99383W        W70966  44.836   9.932   2.662
99384W        W70967  17.718   8.606  13.995
99385W        W70968  18.036  41.238   0.649
99386W        W70969  36.787  28.611   2.255
99387W        W70970  34.132  30.772  14.986
99388W        W70971  19.194  34.135   3.038
99389W        W70972   3.068   3.537   0.936
99390W        W70973  44.465  38.179   4.519
99391W        W70974  18.534  12.310   0.348
99392W        W70975  25.283  24.470   1.929
99393W        W70976  28.675  12.847  10.562
99394W        W70977  22.757   8.855  12.867
99395W        W70978  43.216  33.672  12.208
99396W        W70979  34.194  14.633  13.760
99397W        W70980  31.410  27.976   1.984
99398W        W70981  44.347  18.747   1.954
99399W        W70982  33.042  23.982   0.989
99400W        W70983  15.433   9.608  14.770
99401W        W70984  32.898  20.297  13.822
99402W        W70985  32.863   6.145  12.988
99403W        W70986  31.105   8.888   1.786
99404W        W70987  26.575  42.453  11.381
99405W        W70988   5.425  26.738   2.192
99406W        W70989  27.538  17.080   2.721
99407W        W70990  19.552  19.545   2.225
99408W        W70991  18.313  10.690  13.467
99409W        W70992  13.840   0.802  12.541
99410W        W70993  15.814  19.281  11.548
99411W        W70994  13.519  11.253  13.429
99412W        W70995   4.424  19.777  12.148
99413W        W70996  25.188   3.849   0.793
99414W        W70997  33.990   6.151  12.049
99415W        W70998  29.234  26.831  14.508
99416W        W70999   6.503  11.280   3.138
99417W        W71000  22.605  25.128  13.522
99418W        W71001  32.193  44.901   4.183
99419W        W71002  41.589  25.802  12.458
99420W        W71003  23.305   3.715   0.423
99421W        W71004  23.189  31.114  13.866
99422W        W71005  28.112   2.993  14.825
99423W        W71006  33.547  42.504   1.616
99424W        W71007  27.761  21.702  13.079
99425W        W71008  40.345  22.215   3.878
99426W        W71009  28.005  20.415  11.885
99427W        W71010  39.977  20.033   0.800
99428W        W71011  26.215  31.387   4.266
99429W        W71012  12.740   4.428   2.285
99430W        W71013   1.146  27.426  11.151
99431W        W71014  17.019  29.098  11.273
99432W        W71015  21.246  41.066  11.298
99433W        W71016  21.243  42.398  11.030
99434W        W71017  21.622  30.597  11.987
99435W        W71018   3.333   1.806   3.632
99436W        W71019  15.915  20.420  11.987
99437W        W71020  28.160  37.983  10.685
99438W        W71021  21.065  15.492   5.142
99439W        W71022  22.442  35.932   4.740
99440W        W71023  12.269  38.583  14.510
99441W        W71024  18.101  13.992   1.145
99442W        W71025  19.119  12.716  13.334
99443W        W71026  24.043  30.014   0.283
99444W        W71027  19.175  24.024   0.075
99445W        W71028   0.296   4.280   4.590
99446W        W71029  23.405  11.562  12.637
99447W        W71030   6.200  18.952   3.193
99448W        W71031  26.203  40.483   4.760
99449W        W71032  19.221  10.424  14.788
99450W        W71033   0.090  20.134   4.794
99451W        W71034  29.075   6.834   3.301
99452W        W71035  26.573  37.635  12.103
99453W        W71036  15.144   0.829  14.763
99454W        W71037  22.320  16.047   1.230
99455W        W71038  35.124  15.547   0.386
99456W        W71039   0.392  18.374  13.588
99457W        W71040  40.231  15.681   3.690
99458W        W71041  35.663   3.259  10.100
99459W        W71042   9.382  34.983  13.783
99460W        W71043  29.084  22.666  11.137
99461W        W71044  29.920  24.558  12.743
99462W        W71045  42.510  44.962   2.361
99463W        W71046  36.431   0.703   3.795
99464W        W71047  44.807  40.036   1.908
99465W        W71048  32.630  44.373   2.946
99466W        W71049  44.901  29.125  10.729
99467W        W71050  13.345   1.028   3.263
99468W        W71051  20.245  27.599  14.501
99469W        W71052   5.357  38.245   1.438
99470W        W71053  41.330   4.319  13.505
99471W        W71054  22.603  25.057  10.068
99472W        W71055   2.300  24.091   0.767
99473W        W71056   3.904  25.967  12.921
99474W        W71057  38.132  25.424   0.023
99475W        W71058  44.910  25.980   2.247
99476W        W71059   5.403  16.045  12.977
99477W        W71060  44.829   7.494  11.059
99478W        W71061   4.704   7.161  10.269
99479W        W71062   2.880  17.813  13.503
99480W        W71063  31.391  36.374  14.082
99481W        W71064  32.035  26.268   1.849
99482W        W71065  33.231  32.411  10.940
99483W        W71066  37.262  10.336   3.784
99484W        W71067  34.437  12.935   3.034
99485W        W71068  27.754  11.575  13.920
99486W        W71069  16.830  32.630   1.293
99487W        W71070  30.912  44.217   3.206
99488W        W71071  18.594  34.881   1.294
99489W        W71072  37.430  34.969  13.441
99490W        W71073  41.562  34.877  11.767
99491W        W71074   5.796   0.031   4.125
99492W        W71075  40.630   4.450  14.427
99493W        W71076  44.330   2.693  13.526
99494W        W71077   6.369  36.855  14.019
99495W        W71078   0.360   3.441   3.062
99496W        W71079   7.299  14.266  13.984
99497W        W71080   3.381  17.593   2.164
99498W        W71081  28.443  42.892  10.522
99499W        W71082  13.849  32.364  10.662
99500W        W71083   8.378  25.720   0.945
99501W        W71084  18.411  31.837  13.380
99502W        W71085   4.000  10.343   0.822
99503W        W71086  17.272  14.733   4.566
99504W        W71087   3.426  40.401   1.571
99505W        W71088   1.667   4.931   2.617
99506W        W71089  20.084  10.672   0.829
99507W        W71090  30.982  24.698  10.697
99508W        W71091   4.395  19.522   2.125
99509W        W71092   0.805  17.238  14.403
99510W        W71093  38.134   5.421   1.306
99511W        W71094  19.293   6.701   3.187
99512W        W71095  35.345  38.154  13.836
99513W        W71096   5.228   9.098  12.536
99514W        W71097  17.102  11.799  14.924
99515W        W71098  15.328  34.485   1.486
99516W        W71099  34.959  10.126  12.827
99517W        W71100  38.675   5.448   3.684
99518W        W71101  11.789  39.361   0.288
99519W        W71102  39.607  19.207   0.797
99520W        W71103  41.880  43.682  14.474
99521W        W71104  11.783  26.979   1.547
99522W        W71105  37.542   5.134  12.061
99523W        W71106  14.763  12.710  12.603
99524W        W71107  11.724  32.201  11.394
99525W        W71108   1.422   8.779   2.325
99526W        W71109  34.319   5.902  10.819
99527W        W71110  28.902  24.585   0.198
99528W        W71111  37.666  35.081  14.849
99529W        W71112  40.903  37.860  14.804
99530W        W71113  22.685  34.350   0.962
99531W        W71114   8.909   3.287  11.994
99532W        W71115  43.813  34.407  11.096
99533W        W71116  13.579  26.246  13.993
99534W        W71117  24.685   3.237  13.418
99535W        W71118  23.694  34.827   2.917
99536W        W71119  25.972  24.670  13.355
99537W        W71120  21.255   2.704  14.958
99538W        W71121  43.308  33.108   1.251
99539W        W71122  17.675  31.452  11.635
99540W        W71123  40.096   6.707   3.987
99541W        W71124  33.048  28.304  13.085
99542W        W71125  28.587  11.489   5.604
99543W        W71126  40.509   5.635  13.320
99544W        W71127  21.529  28.646  14.859
99545W        W71128  40.443   2.572   4.145
99546W        W71129  14.698  43.457  11.531
99547W        W71130  15.269  15.252  12.971
99548W        W71131  13.789  14.288   2.993
99549W        W71132  40.464  36.679   3.746
99550W        W71133   2.368  23.137   3.469
99551W        W71134  39.972  11.375  11.956
99552W        W71135  29.167   7.765  12.107
99553W        W71136  11.465   6.932  14.159
99554W        W71137  26.942  41.594   0.401
99555W        W71138  12.675   3.931  13.021
99556W        W71139  28.501   3.491   1.745
99557W        W71140  27.738  27.143   3.224
99558W        W71141  19.174  29.365  14.100
99559W        W71142  42.350  13.147  11.025
99560W        W71143   4.931  38.498  10.241
99561W        W71144  22.631  23.762   3.279
99562W        W71145  24.638   3.183   1.445
99563W        W71146  15.328  28.141   0.808
99564W        W71147  36.569  41.933   1.544
99565W        W71148  36.171  41.380   4.351
99566W        W71149  17.738  14.206   0.824
99567W        W71150  40.908  28.043   0.288
99568W        W71151   9.776  18.317  11.991
99569W        W71152  40.894  37.411  12.229
99570W        W71153   1.715  18.939   4.110
99571W        W71154  35.473  16.824  10.735
99572W        W71155   7.900  22.020  13.398
99573W        W71156   3.299  12.946   1.568
99574W        W71157  36.486  26.863  13.402
99575W        W71158  16.242  34.380  13.449
99576W        W71159   4.011  44.325  11.515
99577W        W71160   4.031   1.388  10.783
99578W        W71161  18.632  30.147   4.382
99579W        W71162  44.783   1.645  14.349
99580W        W71163   8.945  15.277   1.825
99581W        W71164  35.372   4.684   1.949
99582W        W71165  41.212  37.065  13.616
99583W        W71166  32.482  16.078  10.297
99584W        W71167  22.624   9.734  10.905
99585W        W71168   6.189  38.559  11.546
99586W        W71169  30.495  34.469   1.207
99587W        W71170  25.296  24.764  13.833
99588W        W71171   1.533  27.399   2.561
99589W        W71172  13.223   9.886  14.497
99590W        W71173  30.017  13.203   2.300
99591W        W71174  14.183  31.797   4.564
99592W        W71175  14.663  43.812   4.555
99593W        W71176   2.311  11.441  13.978
99594W        W71177  26.579  31.443   5.427
99595W        W71178  15.090  43.137  12.610
99596W        W71179  34.322  17.533  14.734
99597W        W71180  27.732  19.039   2.651
99598W        W71181  30.959  17.015  11.059
99599W        W71182  34.328  41.555   1.471
99600W        W71183  20.456   7.008   1.246
99601W        W71184  22.445  14.362   1.970
99602W        W71185  34.536  37.028  10.684
99603W        W71186  35.598  19.273  14.983
99604W        W71187  33.409  25.516  13.445
99605W        W71188   8.871  37.262   2.453
99606W        W71189  30.095  19.359   1.172
99607W        W71190   8.965   2.852  10.716
99608W        W71191   9.952   9.351   3.732
99609W        W71192  14.813  38.247   4.632
99610W        W71193  10.214   5.466   3.772
99611W        W71194  33.499   5.899  14.126
99612W        W71195  20.213  14.340  11.557
99613W        W71196   0.486  33.544   4.083
99614W        W71197  29.840  17.757  10.471
99615W        W71198  29.202   4.915   0.518
99616W        W71199  22.971  36.378  13.141
99617W        W71200  14.877  37.818  10.210
99618W        W71201  39.429  18.756  11.453
99619W        W71202  13.842  18.358   3.729
99620W        W71203  31.846  31.897  13.806
99621W        W71204  28.829   4.169   1.341
99622W        W71205  10.927  32.489  11.743
99623W        W71206  41.540  26.103  11.124
99624W        W71207  10.900   4.723   1.384
99625W        W71208  40.299  39.047  12.099
99626W        W71209  31.585  26.428   1.156
99627W        W71210  43.862  22.473   4.561
99628W        W71211  16.752   8.928  11.557
99629W        W71212  38.829  16.563   2.315
99630W        W71213   2.400  17.579  11.513
99631W        W71214  31.476   1.381   2.790
99632W        W71215  36.088  18.843  12.440
99633W        W71216  41.902  29.243  13.987
99634W        W71217  42.016  20.585   3.717
99635W        W71218  33.554  27.094  14.049
99636W        W71219  42.447  32.601   2.692
99637W        W71220   1.787   6.710   3.150
99638W        W71221   5.700  33.788  13.779
99639W        W71222  41.541  35.048  14.934
99640W        W71223  10.286  39.837  10.606
99641W        W71224  35.666   8.612   0.904
99642W        W71225   9.774  20.012  13.576
99643W        W71226  19.701   6.489   1.785
99644W        W71227  12.388   5.843  13.968
99645W        W71228  30.956  10.595   2.651
99646W        W71229  26.866  33.213  11.854
99647W        W71230  36.542   6.477   2.885
99648W        W71231  30.705   1.994  12.520
99649W        W71232   7.490  15.034  12.448
99650W        W71233   2.946  34.037   4.659
99651W        W71234   7.835  18.253  14.320
99652W        W71235  32.982  11.623  13.035
99653W        W71236  18.068   9.385   0.411
99654W        W71237  18.132  15.129   3.657
99655W        W71238  35.142  12.332   1.392
99656W        W71239  24.617  13.274  12.907
99657W        W71240  18.839   6.885  10.571
99658W        W71241   4.735  26.074  11.013
99659W        W71242  27.549   3.284  12.587
99660W        W71243   2.316  24.513  10.711
99661W        W71244  28.733  21.060   4.304
99662W        W71245  39.269  43.540  14.997
99663W        W71246  43.868  20.096  11.654
99664W        W71247  22.543  26.304  12.975
99665W        W71248  15.919  14.235  10.351
99666W        W71249   9.432   4.201  13.993
99667W        W71250  17.970  11.092   2.340
99668W        W71251   2.780  31.653  11.611
99669W        W71252  41.723  24.053  14.482
99670W        W71253  14.165  22.704  12.819
99671W        W71254   9.804  34.567  12.578
99672W        W71255   3.744  31.110  13.088
99673W        W71256  12.309   5.462   0.455
99674W        W71257  32.072  35.421   1.611
99675W        W71258  34.913  32.648   0.776
99676W        W71259  19.561   9.394  12.404
99677W        W71260  38.929   7.976   2.080
99678W        W71261  37.435  14.211   3.800
99679W        W71262  15.602  35.564  14.386
99680W        W71263  34.447   6.408   0.735
99681W        W71264  23.881  34.264   1.194
99682W        W71265  16.622   8.561   2.024
99683W        W71266  26.953  12.249  10.611
99684W        W71267  43.528  32.473  14.532
99685W        W71268  12.121  20.527  13.301
99686W        W71269  39.633   4.393   0.921
99687W        W71270   6.882  19.767  14.463
99688W        W71271  27.428  27.485  12.889
99689W        W71272  40.543  17.111   4.037
99690W        W71273  17.285  10.142   1.427
99691W        W71274   2.168   7.684  11.929
99692W        W71275  26.111  42.002   0.464
99693W        W71276  38.910  34.340  12.503
99694W        W71277  33.832  15.790   2.800
99695W        W71278  44.064  24.094  13.984
99696W        W71279  33.149   1.486  12.415
99697W        W71280   0.453  16.682  11.530
99698W        W71281   7.334  38.493   4.406
99699W        W71282   5.483   9.292   1.840
99700W        W71283  23.597  13.027  11.108
99701W        W71284  13.467   2.981  14.930
99702W        W71285   8.270  20.584   3.715
99703W        W71286  30.378  14.240   4.145
99704W        W71287   8.949  14.813  13.345
99705W        W71288  37.788  22.920  12.465
99706W        W71289  22.424  32.712  12.045
99707W        W71290  31.717  21.367   3.167
99708W        W71291   2.486  19.502  10.607
99709W        W71292  19.510   7.671   4.189
99710W        W71293  24.179  22.367   1.676
99711W        W71294  42.875  26.006  12.414
99712W        W71295  23.990  23.262   2.670
99713W        W71296   0.240  33.995   4.111
99714W        W71297  20.786  36.012   1.133
99715W        W71298  41.031  14.092   1.342
99716W        W71299  26.087  10.622   3.188
99717W        W71300   8.355  36.610  11.048
99718W        W71301  32.320  23.708   1.491
99719W        W71302  39.847  14.446  13.837
99720W        W71303  13.585   9.223   1.894
99721W        W71304  33.815   4.519  11.150
99722W        W71305   0.461  22.264   3.229
99723W        W71306  41.822   8.024   3.781
99724W        W71307  37.410   2.999  14.997
99725W        W71308  29.042   9.754   3.105
99726W        W71309  26.924  15.115  10.343
99727W        W71310  43.453   3.949  10.706
99728W        W71311  25.584  38.635  12.826
99729W        W71312   3.012  13.409  14.291
99730W        W71313  26.789  18.061  12.071
99731W        W71314   0.476  27.486   1.818
99732W        W71315  22.196  43.021   3.277
99733W        W71316  23.627  33.358   4.138
99734W        W71317   5.755  36.846  12.502
99735W        W71318  19.305   9.403   0.900
99736W        W71319  17.646  27.935  14.662
99737W        W71320  11.772  20.109  10.651
99738W        W71321  35.340  15.523  14.043
99739W        W71322  34.667  15.252   1.892
99740W        W71323  17.331  34.134   1.921
99741W        W71324  39.863  11.690  13.441
99742W        W71325  43.330  16.849   0.487
99743W        W71326  37.159   1.293   4.101
99744W        W71327  28.123  22.528  12.806
99745W        W71328  37.020  21.058   0.461
99746W        W71329  21.165   4.474   4.072
99747W        W71330  30.994  20.417   2.294
99748W        W71331  42.916  13.628  13.508
99749W        W71332  13.438   6.736  12.429
99750W        W71333  35.479  19.958  14.373
99751W        W71334   3.957  39.023  11.021
99752W        W71335  12.230  28.962   4.780
99753W        W71336   5.461   7.821  11.925
99754W        W71337  32.674  36.415  11.626
99755W        W71338   4.848  33.860   1.699
99756W        W71339  11.211   4.794   3.880
99757W        W71340  26.008  30.114  10.662
99758W        W71341  36.526  42.760   4.651
99759W        W71342   3.805  20.353  13.782
99760W        W71343  28.299  11.725   4.653
99761W        W71344  42.890   8.307  12.376
99762W        W71345  25.286  15.808  13.418
99763W        W71346  30.330  29.694  12.028
99764W        W71347  39.903   2.881   3.085
99765W        W71348  36.951   7.204  11.473
99766W        W71349   8.472  14.656   3.249
99767W        W71350  38.085  15.578  12.126
99768W        W71351  21.312  31.559  12.551
99769W        W71352  27.550   5.925  11.975
99770W        W71353   8.831   1.299  10.638
99771W        W71354  38.471  29.162  12.626
99772W        W71355   3.207  22.083   3.617
99773W        W71356   9.401   4.132  14.840
99774W        W71357  18.698  39.584   2.659
99775W        W71358  44.415  24.539   0.898
99776W        W71359  35.389  22.144   0.710
99777W        W71360  21.073  19.445   3.632
99778W        W71361  44.738   7.963   2.643
99779W        W71362  43.495  29.175   2.114
99780W        W71363  12.352  40.790   3.794
99781W        W71364  18.129  16.769   4.122
99782W        W71365  26.937  42.348   3.424
99783W        W71366   6.952   6.363   1.270
99784W        W71367  12.270   9.319   3.339
99785W        W71368  36.007  15.038   1.322
99786W        W71369   4.843  12.288  11.606
99787W        W71370   2.685  23.168  11.921
99788W        W71371  12.818   5.836  10.758
99789W        W71372  37.034  37.433  13.580
99790W        W71373  43.400  27.096   0.221
99791W        W71374  31.128  31.278  13.506
99792W        W71375  30.556  36.862   3.375
99793W        W71376   7.633  16.547  11.577
99794W        W71377  14.226  36.049  13.969
99795W        W71378  41.781   1.354  11.487
99796W        W71379  18.045   5.705   2.623
99797W        W71380  22.266  18.321   4.639
99798W        W71381  37.737  24.967   2.619
99799W        W71382  37.365  10.132   4.666
99800W        W71383  33.627   9.779   3.382
99801W        W71384  43.695  40.018   2.645
99802W        W71385   1.624  28.489  14.225
99803W        W71386  42.846  40.063   4.577
99804W        W71387  37.148  38.758  13.080
99805W        W71388  39.369  13.695  12.117
99806W        W71389  20.997   9.855   0.815
99807W        W71390   6.387  35.797   2.149
99808W        W71391  33.945  31.685   2.155
99809W        W71392  39.861   6.906   2.639
99810W        W71393  40.813  12.236   3.444
99811W        W71394  33.093  34.142   2.285
99812W        W71395  29.147  21.115  12.057
99813W        W71396  21.198  14.915  11.601
99814W        W71397  22.727  42.438   3.727
99815W        W71398  28.628  34.933  14.149
99816W        W71399  16.828  17.483  13.025
99817W        W71400  29.387  15.282  10.637
99818W        W71401   9.348   8.664  13.162
99819W        W71402  28.062   0.423  12.210
99820W        W71403  26.105  40.340   2.138
99821W        W71404  29.450   7.128  14.933
99822W        W71405  23.758   1.904  10.730
99823W        W71406  11.927  13.875   0.518
99824W        W71407  35.981  26.528   0.999
99825W        W71408  11.189  38.045  10.791
99826W        W71409  27.448   3.686   2.231
99827W        W71410  10.039  37.065  11.128
99828W        W71411  17.386  32.808   0.219
99829W        W71412  30.971  22.014   4.175
99830W        W71413  43.285   1.619  10.185
99831W        W71414   7.691  41.351  11.163
99832W        W71415   5.788  10.174  12.095
99833W        W71416  15.535  44.727  14.290
99834W        W71417  38.359  28.808   0.025
99835W        W71418  15.700  29.817  12.460
99836W        W71419  44.561  32.565  14.414
99837W        W71420  12.311  32.474  11.861
99838W        W71421  24.327   1.965  14.768
99839W        W71422  12.689  31.004   1.311
99840W        W71423  18.183  37.269  14.445
99841W        W71424   3.427   5.772  12.188
99842W        W71425   1.911  42.835  13.045
99843W        W71426  35.673   2.230  10.663
99844W        W71427  30.429  41.237   3.373
99845W        W71428  18.729  13.237   5.021
99846W        W71429  18.036  44.194   1.691
99847W        W71430  39.951  22.432  12.208
99848W        W71431  34.881   5.276  12.539
99849W        W71432  17.724  39.857   0.787
99850W        W71433  15.428   7.779   0.346
99851W        W71434  23.398   4.797   3.707
99852W        W71435  41.375   4.738   2.345
99853W        W71436   9.467  38.858  14.360
99854W        W71437  25.454  38.036   0.950
99855W        W71438  14.684  35.611  13.743
99856W        W71439   2.366  19.156   4.656
99857W        W71440  24.377  20.135   2.854
99858W        W71441  24.601  22.034   0.279
99859W        W71442  37.358  19.358  14.087
99860W        W71443   2.090  21.532   9.864
99861W        W71444  32.930   8.991  12.641
99862W        W71445  22.821  34.938  11.618
99863W        W71446  28.957  13.790   0.503
99864W        W71447  29.241  33.063   4.957
99865W        W71448  19.133  16.538  12.538
99866W        W71449  33.467  21.657  12.595
99867W        W71450  39.758  36.607   2.386
99868W        W71451  41.391  28.456  11.544
99869W        W71452  39.870  43.340  14.538
99870W        W71453  34.920   0.405   3.658
99871W        W71454  20.217   4.074   0.388
99872W        W71455  43.461   6.462   0.849
99873W        W71456   0.651  20.493  13.463
99874W        W71457  43.298  14.177  14.452
99875W        W71458  41.544   2.481  10.726
99876W        W71459  39.376  14.832  12.380
99877W        W71460  34.575  38.904   1.336
99878W        W71461  21.228  22.094  12.598
99879W        W71462   4.520  39.456  14.917
99880W        W71463  27.165  35.211  11.140
99881W        W71464   2.050  15.746   2.300
99882W        W71465  19.990   5.786   0.318
99883W        W71466   4.440  33.169  12.564
99884W        W71467   5.234  43.346  11.556
99885W        W71468  16.848   9.443   2.158
99886W        W71469   0.278  42.059   4.095
99887W        W71470  28.900  26.427  14.390
99888W        W71471  36.415  30.083   0.295
99889W        W71472  11.178   2.845   1.325
99890W        W71473   8.199  34.538   1.896
99891W        W71474   7.692  21.685   1.656
99892W        W71475  31.875  39.863  13.509
99893W        W71476  17.530  36.419  10.444
99894W        W71477  38.093  29.646   1.023
99895W        W71478  19.068  36.862   3.209
99896W        W71479  38.464   7.329   0.445
99897W        W71480  19.311   1.694  13.207
99898W        W71481   6.060  33.351   3.400
99899W        W71482  18.572  39.115   2.431
99900W        W71483   8.409  39.038   0.724
99901W        W71484  39.020   9.028  11.162
99902W        W71485   4.189  30.067   3.320
99903W        W71486  17.434  24.105   0.295
99904W        W71487  17.280  26.637  10.163
99905W        W71488  41.914  26.758  12.370
99906W        W71489  30.187  22.753   1.327
99907W        W71490  37.067  10.784  10.797
99908W        W71491  38.046   3.007  14.785
99909W        W71492   7.200  37.996   4.474
99910W        W71493   9.828   4.923  13.515
99911W        W71494  37.897   8.659  11.532
99912W        W71495  39.976  31.413   2.151
99913W        W71496  33.118   5.073   2.797
99914W        W71497  26.979  41.045  12.326
99915W        W71498  17.640   1.785   2.813
99916W        W71499  23.081   9.244   4.683
99917W        W71500  17.804  18.134  14.413
99918W        W71501   4.734  29.443   3.652
99919W        W71502  32.832  43.320   3.106
99920W        W71503  22.977  12.693   3.259
99921W        W71504   7.969  23.161  14.257
99922W        W71505  39.573  17.586   0.348
99923W        W71506  17.661  31.869   2.061
99924W        W71507  43.283  24.228   1.775
99925W        W71508  25.325  10.362  13.523
99926W        W71509  14.638  12.182  14.513
99927W        W71510   9.102  31.645   1.704
99928W        W71511  32.850   3.870   4.880
99929W        W71512   5.041  28.047   2.694
99930W        W71513  24.529  28.071  13.049
99931W        W71514  31.695  21.874   3.312
99932W        W71515   1.409  23.730  10.931
99933W        W71516  41.960  31.866   3.170
99934W        W71517  30.390  23.475   2.852
99935W        W71518  20.119   5.977  14.789
99936W        W71519  10.201  19.705   3.678
99937W        W71520  31.897  41.006   1.222
99938W        W71521  41.398  10.904  11.672
99939W        W71522   7.600  12.084  13.563
99940W        W71523   9.174  34.562  13.007
99941W        W71524   2.961  33.014   1.252
99942W        W71525  19.714  42.608  11.935
99943W        W71526  12.108  24.139  13.082
99944W        W71527  40.945  23.913  14.078
99945W        W71528  13.135   4.157   3.768
99946W        W71529  39.392  36.029   0.881
99947W        W71530  15.679  42.319   1.610
99948W        W71531  17.536  25.162  13.506
99949W        W71532  25.586  42.243  14.507
99950W        W71533  34.816  39.065  12.448
99951W        W71534  28.417  38.907   3.228
99952W        W71535  11.197   8.414  10.705
99953W        W71536   3.381  21.724  12.529
99954W        W71537  32.639   9.340   3.582
99955W        W71538  12.272  31.819  13.489
99956W        W71539  14.305   1.027  12.524
99957W        W71540  13.281  25.597   0.324
99958W        W71541  13.640  42.060   0.998
99959W        W71542   9.060  17.193   3.644
99960W        W71543  14.647  20.766  12.437
99961W        W71544  33.471  19.103   1.868
99962W        W71545  35.075  30.224   3.134
99963W        W71546   5.762  25.876   4.615
99964W        W71547  18.196  18.671   1.250
99965W        W71548  42.760  15.321  12.248
99966W        W71549  37.362  16.325   0.535
99967W        W71550  27.401  37.038  13.027
99968W        W71551  40.578  15.880  12.127
99969W        W71552  13.792  37.857  14.839
99970W        W71553  30.172  26.598   1.712
99971W        W71554  28.573   7.441  12.579
99972W        W71555  21.710   0.181   4.627
99973W        W71556  13.384  28.189  13.077
99974W        W71557  24.178  11.712  13.525
99975W        W71558  34.556  13.238   4.425
99976W        W71559  24.784  34.989   3.694
99977W        W71560  24.572  32.859   4.041
99978W        W71561  35.498  10.094  13.649
99979W        W71562   2.311  19.081  12.030
99980W        W71563  41.429  18.579  12.059
99981W        W71564  42.792  29.016   2.773
99982W        W71565  40.644  11.905  13.033
99983W        W71566   8.203  29.773  12.190
99984W        W71567  42.595  21.786   1.617
99985W        W71568  25.094  10.676  12.150
99986W        W71569  18.363  40.754  12.555
99987W        W71570   7.824  26.436  10.721
99988W        W71571  26.941  20.487  10.467
99989W        W71572  34.889  32.922  14.358
99990W        W71573  35.028  29.182  12.262
99991W        W71574  41.950   4.980   5.174
99992W        W71575  30.514  39.275  13.951
99993W        W71576  12.317  38.256  13.402
99994W        W71577   7.403  29.068   2.277
99995W        W71578  36.791  33.844   3.621
99996W        W71579   3.485  31.264  14.640
99997W        W71580  42.020  42.512   4.645
99998W        W71581  22.689  20.984   3.787
99999W        W71582  26.513   3.265   2.949
    0W        W71583  20.873  34.697   3.865
    1W        W71584  36.424  15.412  13.912
    2W        W71585   2.468  22.452   0.658
    3W        W71586   8.409   1.770  10.652
    4W        W71587  33.574  29.911   3.383
    5W        W71588   2.782  27.539   2.070
    6W        W71589  35.883  34.201  11.977
    7W        W71590  21.154  10.107  14.904
    8W        W71591  11.865  32.379  13.071
    9W        W71592  23.479   2.678   3.737
   10W        W71593  38.909   3.216   3.696
   11W        W71594   2.943  33.944   1.385
   12W        W71595   6.832   5.817  12.586
   13W        W71596  31.107  36.366   3.991
   14W        W71597  15.617  38.889   1.649
   15W        W71598  29.928  12.133  12.125
   16W        W71599  19.087   6.478  11.410
   17W        W71600  25.690  18.111   2.109
   18W        W71601  27.679  27.869  14.916
   19W        W71602  25.787  13.567  14.220
   20W        W71603   5.325  11.167  14.790
   21W        W71604  38.132  36.585   0.229
   22W        W71605  14.849  26.594  12.717
   23W        W71606  22.504  12.831   4.176
   24W        W71607  31.958  44.643  14.873
   25W        W71608  10.604   4.781   0.908
   26W        W71609  29.587  19.105   4.902
   27W        W71610  17.631   4.771  11.646
   28W        W71611  39.922  19.073  10.726
   29W        W71612   6.180  20.891   1.287
   30W        W71613   3.619   9.179  14.686
   31W        W71614   2.949  39.428   1.255
   32W        W71615  22.992  10.765  14.929
   33W        W71616  15.714  32.051   9.592
   34W        W71617  42.080  21.762  12.048
   35W        W71618  34.941   7.900   2.970
   36W        W71619  14.750  17.965   4.180
   37W        W71620  41.323  21.318   0.335
   38W        W71621  22.143  31.297  13.100
   39W        W71622  22.470  17.434   1.761
   40W        W71623  13.781  24.130  12.045
   41W        W71624  30.919  16.709  13.008
   42W        W71625  40.464  31.008  10.999
   43W        W71626  35.489  40.413  11.234
   44W        W71627   6.312  32.383   0.953
   45W        W71628  14.645  38.210  11.580
   46W        W71629  12.826   5.748   0.831
   47W        W71630   6.830  31.135   0.718
   48W        W71631  31.096  42.083  14.754
   49W        W71632  31.152  44.363   1.622
   50W        W71633  34.122  28.500  11.596
   51W        W71634   5.853  35.481   4.895
   52W        W71635  40.915  16.954  14.537
   53W        W71636   9.678  17.278  14.999
   54W        W71637  26.043  23.131   0.567
   55W        W71638  12.978   9.691   1.258
   56W        W71639  24.155  15.865   1.244
   57W        W71640  35.554  31.545   4.149
   58W        W71641  23.234  18.220   0.431
   59W        W71642  36.919  12.562  13.210
   60W        W71643   4.490  36.315   0.163
   61W        W71644  37.862  10.670   0.136
   62W        W71645   6.362  39.542   1.817
   63W        W71646  11.967  14.075  14.231
   64W        W71647  21.873  15.444  11.064
   65W        W71648  35.083   5.183   4.081
   66W        W71649  40.593  21.624   3.088
   67W        W71650  33.853  35.908  13.108
   68W        W71651  43.477   8.919  13.485
   69W        W71652  28.025   6.602  12.936
   70W        W71653  16.074  34.339   0.377
   71W        W71654  31.370  16.647  12.119
   72W        W71655  36.313   3.662   5.088
   73W        W71656  40.689  24.925   4.091
   74W        W71657   8.996   7.712   1.668
   75W        W71658  24.526   1.912  11.146
   76W        W71659  24.758  21.090  14.316
   77W        W71660   4.596   7.879  13.471
   78W        W71661  26.379  11.391   4.440
   79W        W71662  11.188  30.270  11.065
   80W        W71663   7.284  36.566   0.275
   81W        W71664  20.628  33.542  14.963
   82W        W71665  44.534  28.294  13.899
   83W        W71666  36.849  16.082   2.258
   84W        W71667   1.555  19.897   3.371
   85W        W71668  33.463  42.973  11.497
   86W        W71669  15.523  29.975   2.576
   87W        W71670  16.371  38.472  12.010
   88W        W71671  34.975  10.400  12.057
   89W        W71672  30.908  35.688  14.971
   90W        W71673  18.016  22.642  12.312
   91W        W71674   0.577  19.733  13.449
   92W        W71675  40.905  43.511  12.332
   93W        W71676  28.795  21.987   4.579
   94W        W71677   1.463  12.629   3.666
   95W        W71678  21.247  11.204  11.768
   96W        W71679  11.072   8.442  12.621
   97W        W71680   2.656  19.869   4.175
   98W        W71681   0.854  36.520  14.955
   99W        W71682  23.797  39.823   2.632
  100W        W71683  14.858  11.266   3.756
  101W        W71684  26.977  26.113  12.071
  102W        W71685  10.303  20.149  12.156
  103W        W71686  27.836  38.891   1.640
  104W        W71687  20.946  11.725   2.619
  105W        W71688  11.413  16.331   0.401
  106W        W71689   6.655  14.713   0.208
  107W        W71690   1.442   4.481   1.842
  108W        W71691  43.840  27.982  11.895
  109W        W71692  35.840   0.474   3.651
  110W        W71693  27.006   7.163  14.427
  111W        W71694   9.096  39.876   0.214
  112W        W71695  13.672  20.750  14.440
  113W        W71696  17.082  41.978   3.556
  114W        W71697   5.079  12.547   4.121
  115W        W71698  24.112  26.465   5.029
  116W        W71699   3.322  12.190  11.647
  117W        W71700  28.658  12.293   1.190
  118W        W71701  20.318  43.434   2.284
  119W        W71702  22.652   5.552   3.842
  120W        W71703  33.877  11.553  11.291
  121W        W71704  33.978  25.179   2.734
  122W        W71705  32.387  34.159   1.306
  123W        W71706  42.234   8.915   1.671
  124W        W71707  33.520  29.159  11.995
  125W        W71708   1.244  33.469  10.289
  126W        W71709  16.250  38.962   0.957
  127W        W71710  27.219  22.475  14.480
  128W        W71711  14.566  14.046  11.757
  129W        W71712  15.199   6.442   4.053
  130W        W71713  12.652  28.523  10.695
  131W        W71714  39.910  10.716  11.512
  132W        W71715  33.156  29.915  10.598
  133W        W71716   2.307   2.301   0.461
  134W        W71717  23.290  11.096   0.203
  135W        W71718  37.843  43.399   4.675
  136W        W71719  44.825  13.723   3.788
  137W        W71720   4.132   9.717  11.563
  138W        W71721  38.065  13.354   1.434
  139W        W71722  27.561  32.254   1.157
  140W        W71723   5.787   5.429  12.920
  141W        W71724   5.174  19.075   2.810
  142W        W71725  35.505  21.250  13.474
  143W        W71726  31.882  11.162  12.498
  144W        W71727  24.432   0.367  11.619
  145W        W71728   4.944   1.193  10.176
  146W        W71729  26.702  27.430   4.506
  147W        W71730   8.272   2.034   0.164
  148W        W71731  20.242  25.620   3.208
  149W        W71732   0.728  38.957   3.771
  150W        W71733   2.433  15.831  11.306
  151W        W71734   6.423  34.761  13.775
  152W        W71735   2.740  21.765  12.926
  153W        W71736  44.861   1.267   4.650
  154W        W71737  44.876  33.099  13.662
  155W        W71738  21.706  35.838   0.354
  156W        W71739  43.544   4.692  11.632
  157W        W71740  37.620  27.470   0.781
  158W        W71741  17.157  12.288  11.016
  159W        W71742  33.983  26.079   1.999
  160W        W71743  29.470  28.956  13.809
  161W        W71744  33.143  31.584  11.192
  162W        W71745  29.524  26.887  12.344
  163W        W71746  30.006   4.809  11.091
  164W        W71747  32.915   5.801   1.301
  165W        W71748  19.513   7.548  12.989
  166W        W71749  29.582  42.849  14.443
  167W        W71750  33.651  17.404   1.418
  168W        W71751   5.355  10.619  11.572
  169W        W71752  42.328  38.452  11.418
  170W        W71753  27.626  29.719  14.063
  171W        W71754  24.932  18.356  14.321
  172W        W71755  27.503  19.429   0.691
  173W        W71756  41.322   2.225  13.931
  174W        W71757  15.127  33.373  13.134
  175W        W71758  44.889  44.840   1.821
  176W        W71759  22.447   7.151  14.314
  177W        W71760   6.689  13.198   4.668
  178W        W71761  36.235  23.038  11.160
  179W        W71762  13.271  28.297   4.629
  180W        W71763   7.054  36.889  12.011
  181W        W71764   8.554  24.768  11.838
  182W        W71765  23.588   6.791  12.091
  183W        W71766  12.751  19.250   3.906
  184W        W71767  27.064  28.299   1.266
  185W        W71768  29.401  42.278   1.326
  186W        W71769   8.135   9.228  11.864
  187W        W71770  14.156  43.074  13.569
  188W        W71771  43.052   3.344   3.112
  189W        W71772  38.934   7.438  10.877
  190W        W71773   5.984   6.265  13.927
  191W        W71774  16.694   8.376   0.572
  192W        W71775  33.132  29.360   0.464
  193W        W71776  29.214  34.108   3.526
  194W        W71777  38.342  26.904  11.192
  195W        W71778  32.317  31.421   4.204
  196W        W71779  41.719  15.249   1.744
  197W        W71780  14.296  31.298   4.589
  198W        W71781  25.518  41.687   1.287
  199W        W71782  40.115  11.348   4.122
  200W        W71783  11.741  41.478   2.730
  201W        W71784  33.134  17.539   2.701
  202W        W71785  23.716  35.880   0.781
  203W        W71786   8.128  32.622   2.281
  204W        W71787   4.612   6.726  12.894
  205W        W71788  23.066  18.713   1.753
  206W        W71789   7.338  24.007   3.347
  207W        W71790  39.592  31.147   0.348
  208W        W71791  38.344  23.702   0.356
  209W        W71792  27.932   5.220  10.406
  210W        W71793  24.577  36.524   2.339
  211W        W71794  42.616  32.095   1.937
  212W        W71795  41.516  21.025  11.119
  213W        W71796  42.740  20.443  13.441
  214W        W71797  32.015  38.969   5.073
  215W        W71798   6.308   9.599   9.656
  216W        W71799  26.338  37.617  10.270
  217W        W71800  40.996  39.442   4.918
  218W        W71801  24.647  34.170  14.304
  219W        W71802   5.889  40.345   1.910
  220W        W71803  35.950  22.665   4.461
  221W        W71804  10.074  26.182   0.251
  222W        W71805  42.042  19.321  14.743
  223W        W71806  41.689  26.553   3.251
  224W        W71807  36.440  25.504  13.538
  225W        W71808   3.330   3.850  10.484
  226W        W71809  27.568  20.374   1.896
  227W        W71810   9.147  25.075  11.142
  228W        W71811  18.715  40.945   2.130
  229W        W71812  28.389  34.619  11.843
  230W        W71813   3.796  24.631  12.559
  231W        W71814  33.160  11.258   2.167
  232W        W71815  10.113  12.389  10.776
  233W        W71816  38.955  41.784   2.878
  234W        W71817  32.483  15.080   2.809
  235W        W71818  11.165   9.399  10.959
  236W        W71819  41.486  37.125  14.497
  237W        W71820   4.214  10.667   4.645
  238W        W71821   4.416  44.393   5.189
  239W        W71822  15.022  35.332  11.094
  240W        W71823  12.875  38.579   0.441
  241W        W71824   2.763   8.660   1.437
  242W        W71825   7.199  36.614  13.455
  243W        W71826   6.378  17.255   0.016
  244W        W71827  28.915  34.957  10.505
  245W        W71828   8.664  32.278   2.182
  246W        W71829  10.530  23.081  10.412
  247W        W71830  10.290  42.156  11.135
  248W        W71831   5.243   8.115  12.296
  249W        W71832  43.547  27.969  14.052
  250W        W71833  39.441   2.014   4.694
  251W        W71834  37.899   8.143  11.497
  252W        W71835  37.988  10.215   2.318
  253W        W71836  28.102  14.711   1.158
  254W        W71837  40.024  16.261   0.202
  255W        W71838  13.804  13.193   4.714
  256W        W71839   4.807  35.538  10.706
  257W        W71840  15.560  29.729   4.955
  258W        W71841  24.687  10.215  12.315
  259W        W71842  43.894  31.965   4.863
  260W        W71843   1.800  14.584  14.244
  261W        W71844  32.587  29.584   4.109
  262W        W71845  11.928  29.645  10.881
  263W        W71846  21.741  11.570   3.916
  264W        W71847  10.551  18.064   3.168
  265W        W71848   6.112  42.603   1.707
  266W        W71849  20.025  43.843  14.466
  267W        W71850  10.648  15.388  12.477
  268W        W71851  25.972   8.367   1.456
  269W        W71852  44.905   6.975   0.918
  270W        W71853  10.909  43.977   4.673
  271W        W71854  14.083  14.230  11.567
  272W        W71855   2.622  32.588  11.568
  273W        W71856  23.106  32.656   3.335
  274W        W71857  18.542   4.248  14.697
  275W        W71858  39.242  25.679  12.155
  276W        W71859  39.524  10.395   2.565
  277W        W71860  21.969  38.904  11.543
  278W        W71861  43.745  26.954   2.230
  279W        W71862  33.602  34.421   4.198
  280W        W71863   7.161   5.177  12.017
  281W        W71864  41.463  41.004  13.003
  282W        W71865   2.364   3.995   0.750
  283W        W71866  21.809   0.918   0.037
  284W        W71867   4.324   4.910  13.886
  285W        W71868   6.811   8.708  13.489
  286W        W71869  35.432  14.161  14.169
  287W        W71870  31.157  43.858   4.809
  288W        W71871   1.352   6.777  10.751
  289W        W71872  20.604   5.745  10.538
  290W        W71873  43.350  42.921   1.061
  291W        W71874  35.404  17.597  14.589
  292W        W71875  28.149  38.937  10.924
  293W        W71876  41.093  11.804   3.595
  294W        W71877  13.840  41.796  11.291
  295W        W71878   3.232  10.292  13.833
  296W        W71879   3.757  36.372   3.066
  297W        W71880  30.675  38.725   1.361
  298W        W71881   5.401  22.293   1.819
  299W        W71882  32.112   1.720   3.308
  300W        W71883  14.515  23.603   4.600
  301W        W71884  17.573  36.550   3.366
  302W        W71885  17.979   0.236   2.794
  303W        W71886  29.475  40.915  14.215
  304W        W71887  23.606  36.828  11.550
  305W        W71888  37.853  40.935   4.489
  306W        W71889  26.529  35.889  12.482
  307W        W71890  38.370   2.441   0.808
  308W        W71891   4.318  39.236   4.869
  309W        W71892   5.235  41.102   2.776
  310W        W71893  17.365  30.553   2.680
  311W        W71894  14.065  34.959  11.185
  312W        W71895   0.301  14.347  14.462
  313W        W71896  21.882  21.092  10.670
  314W        W71897  40.863  39.857   4.577
  315W        W71898  14.016  39.360  11.605
  316W        W71899  37.538  29.137   0.287
  317W        W71900  16.020  37.753  10.592
  318W        W71901   4.895   4.094  12.091
  319W        W71902   1.846  32.544  12.841
  320W        W71903  19.039  14.628   2.335
  321W        W71904  29.724   9.319   1.490
  322W        W71905  21.602  26.386  12.876
  323W        W71906   5.051  44.944  14.546
  324W        W71907  29.947   9.842   2.202
  325W        W71908  40.784   9.348   3.065
  326W        W71909  11.008  30.034   4.753
  327W        W71910   9.963   8.086  11.103
  328W        W71911   7.048  43.539   4.543
  329W        W71912  44.447  10.703   4.442
  330W        W71913  12.654  16.765  12.848
  331W        W71914   5.683  30.586   4.793
  332W        W71915  20.536  27.439   2.644
  333W        W71916  14.330   4.430  13.990
  334W        W71917  10.438   7.350  11.518
  335W        W71918  37.549  42.312   1.845
  336W        W71919  17.712  37.902   2.702
  337W        W71920  34.228  40.157  10.957
  338W        W71921  32.590  33.109   2.267
  339W        W71922  35.635  24.059  14.979
  340W        W71923   6.856  26.967   2.425
  341W        W71924  22.521  10.832  10.974
  342W        W71925  32.542  18.317   1.482
  343W        W71926   6.617   4.815  13.609
  344W        W71927  33.890  34.559  14.351
  345W        W71928  28.463  21.617  10.538
  346W        W71929   7.627  24.582   1.430
  347W        W71930  32.912  37.925  14.544
  348W        W71931  24.550  35.316   4.180
  349W        W71932  25.942  44.157   3.220
  350W        W71933  25.524   5.440   3.611
  351W        W71934  37.873  23.831  14.083
  352W        W71935   2.403  22.645  12.952
  353W        W71936   1.326  20.992   1.989
  354W        W71937  27.261  38.586   4.637
  355W        W71938   2.837  35.157  13.333
  356W        W71939  17.730  19.947   0.852
  357W        W71940  40.512  33.585   3.647
  358W        W71941  40.759  17.236  14.959
  359W        W71942  19.162   1.999   2.582
  360W        W71943   8.877  31.402  13.869
  361W        W71944  43.955  25.517  14.931
  362W        W71945   2.607   2.991  10.672
  363W        W71946   8.693   2.172  13.438
  364W        W71947  37.030  32.157   0.800
  365W        W71948  15.121  24.186   3.625
  366W        W71949  28.459  18.154   2.894
  367W        W71950   5.391  27.099   1.814
  368W        W71951  10.664  29.685  13.417
  369W        W71952  17.024  12.638   0.543
  370W        W71953   6.206  35.338   1.284
  371W        W71954   6.774   3.856  13.793
  372W        W71955  29.617  36.317   1.877
  373W        W71956  27.730  21.229  14.714
  374W        W71957  37.506  21.149   0.337
  375W        W71958  23.575   0.224   1.312
  376W        W71959  22.114  32.161   1.300
  377W        W71960   0.352  30.384  12.439
  378W        W71961  42.563   8.203  11.221
  379W        W71962   2.093  11.303   4.242
  380W        W71963  13.131  21.892   3.916
  381W        W71964  24.276  34.949  11.003
  382W        W71965  37.785   2.617  14.998
  383W        W71966  23.172  34.083  10.991
  384W        W71967  40.485  31.424   1.940
  385W        W71968  18.162   8.185  14.760
  386W        W71969  17.240   4.132  11.605
  387W        W71970  26.540  24.139   1.279
  388W        W71971  16.905  25.494   4.278
  389W        W71972   0.383  13.863   3.352
  390W        W71973  36.066  15.587   0.327
  391W        W71974   4.175   6.607   4.298
  392W        W71975  33.099  35.571  10.394
  393W        W71976  36.865   1.405  13.114
  394W        W71977  13.457  10.349  14.613
  395W        W71978  16.969  18.346  10.233
  396W        W71979  12.248   4.304   1.934
  397W        W71980  29.304  34.174  11.947
  398W        W71981  26.782  29.244  11.540
  399W        W71982  22.554  17.055  11.520
  400W        W71983  26.100  42.302   1.768
  401W        W71984  36.809  38.941  11.992
  402W        W71985  17.372  29.411  11.088
  403W        W71986  30.490  24.436  13.447
  404W        W71987  40.185  13.848  13.059
  405W        W71988  25.469  13.224  14.567
  406W        W71989  20.233  10.196  10.167
  407W        W71990  11.087  33.405  13.730
  408W        W71991  28.414  32.027  11.619
  409W        W71992  23.983  13.354   1.878
  410W        W71993   5.367  13.312   4.563
  411W        W71994  28.387  22.272   4.698
  412W        W71995  31.939  33.630  11.586
  413W        W71996  31.540  13.108  14.634
  414W        W71997  21.516  42.741   3.477
  415W        W71998  43.878  11.140   3.174
  416W        W71999  15.771  30.497  12.941
  417W        W72000   7.932   3.280   1.405
  418W        W72001  38.033  17.539   4.844
  419W        W72002   4.817  15.279   0.229
  420W        W72003  26.894  31.648   2.656
  421W        W72004   4.881  13.892  14.307
  422W        W72005  40.651  44.919   2.804
  423W        W72006   4.356  26.936   1.496
  424W        W72007  21.484  19.223  12.021
  425W        W72008  28.108  12.882   1.534
  426W        W72009   3.773  35.478  10.629
  427W        W72010   4.975  44.313   1.819
  428W        W72011  39.579  38.863  13.311
  429W        W72012   8.705  14.311   0.748
  430W        W72013  12.646  20.229  14.960
  431W        W72014  22.700  34.196  14.957
  432W        W72015  25.699   6.524  14.791
  433W        W72016  41.993  36.511  14.959
  434W        W72017  42.499  38.422  12.923
  435W        W72018  28.122   1.337  12.107
  436W        W72019  35.713  42.846   5.092
  437W        W72020  25.727  18.125  10.452
  438W        W72021  28.032  42.957   0.412
  439W        W72022  21.414  11.068  10.167
  440W        W72023  43.945  10.652  13.856
  441W        W72024  20.904  16.089   4.623
  442W        W72025  22.198  34.615   1.939
  443W        W72026  29.400  25.062  10.187
  444W        W72027  44.991  16.523  12.340
  445W        W72028  40.229  37.743   4.815
  446W        W72029   4.803  33.583  12.942
  447W        W72030  17.510  32.218   3.567
  448W        W72031  15.157  35.604   4.530
  449W        W72032  30.613  11.607   2.296
  450W        W72033   4.388  38.315   5.024
  451W        W72034  29.751  21.217  10.681
  452W        W72035  20.724  22.545   4.628
  453W        W72036  15.719  28.148   4.243
  454W        W72037  32.292  35.351   3.676
  455W        W72038  30.051   5.361  13.832
  456W        W72039  18.708   2.290   2.620
  457W        W72040  11.450  12.739  10.796
  458W        W72041  36.811  15.636  11.653
  459W        W72042  39.881  10.601  12.332
  460W        W72043  14.049  15.916  11.675
  461W        W72044  20.508  38.131  12.029
  462W        W72045  10.311  23.179  14.025
  463W        W72046  17.133  22.571   3.428
  464W        W72047   9.387   2.932  12.077
  465W        W72048  11.229  17.053  11.287
  466W        W72049  11.372  23.134  13.191
  467W        W72050   1.827  16.153  13.812
  468W        W72051  22.761   6.607   3.762
  469W        W72052  42.723   0.503  11.149
  470W        W72053  42.958  23.718  12.748
  471W        W72054  36.335  27.404  13.332
  472W        W72055  14.824  23.823  11.855
  473W        W72056  34.123   8.717   4.085
  474W        W72057  11.350  40.798   2.891
  475W        W72058  40.350  38.502  11.489
  476W        W72059  41.584  38.605  11.048
  477W        W72060  42.573  41.899  13.083
  478W        W72061  39.325  32.656   0.922
  479W        W72062  25.788  38.200  13.349
  480W        W72063  21.090  24.221   1.821
  481W        W72064   0.629  29.530   0.697
  482W        W72065   9.719  27.260   3.707
  483W        W72066  21.988   8.463   4.888
  484W        W72067   6.852  14.675   1.307
  485W        W72068   8.595  13.265   4.600
  486W        W72069  13.123  27.751   0.263
  487W        W72070  39.034  17.622  13.328
  488W        W72071  44.429  15.201  10.747
  489W        W72072  41.721  15.854  10.418
  490W        W72073  38.977  26.754  13.133
  491W        W72074  40.856   9.817   1.192
  492W        W72075  43.330  30.412   1.388
  493W        W72076  42.670   6.323   4.958
  494W        W72077  22.193  21.123  12.675
  495W        W72078   7.020  39.486   3.722
  496W        W72079  44.433  43.301   2.706
  497W        W72080  25.316  23.233   2.829
  498W        W72081  18.204  26.403  10.078
  499W        W72082  13.751   3.434  14.945
  500W        W72083  16.190  18.373  13.740
  501W        W72084   6.218  20.648   3.298
  502W        W72085   8.929  37.544  14.878
  503W        W72086  30.113  30.310  11.428
  504W        W72087  43.409  23.295   1.829
  505W        W72088  34.370  39.801   1.687
  506W        W72089  31.550  25.642   0.777
  507W        W72090  26.167  41.594  12.528
  508W        W72091  37.292  30.578  13.024
  509W        W72092  25.951  18.022  13.317
  510W        W72093  14.279  27.267  13.478
  511W        W72094  36.036   3.715   2.286
  512W        W72095  39.758  20.106   1.679
  513W        W72096  35.005  19.300   1.206
  514W        W72097   9.869  13.091   4.239
  515W        W72098  37.553  11.802   2.338
  516W        W72099   7.272  21.239   0.019
  517W        W72100  28.442  39.990   1.916
  518W        W72101  33.428  34.539  14.094
  519W        W72102  12.290  20.300  11.406
  520W        W72103   1.805  20.976   0.082
  521W        W72104   3.729  22.528   2.962
  522W        W72105   8.637  35.468   2.762
  523W        W72106  30.545  28.517   1.293
  524W        W72107  23.983  18.086   2.563
  525W        W72108  23.222  30.920  12.075
  526W        W72109  22.186   8.104  11.654
  527W        W72110  15.860  34.018  11.678
  528W        W72111  13.468  18.964  14.068
  529W        W72112  22.653  23.069  11.147
  530W        W72113  21.441  28.759  11.536
  531W        W72114  34.308  41.518  10.518
  532W        W72115  25.152  16.890  14.440
  533W        W72116  26.120  44.538   4.307
  534W        W72117  41.506  26.503  11.576
  535W        W72118  15.570  10.378  13.223
  536W        W72119  10.410   2.731   2.671
  537W        W72120   6.349  17.954  14.249
  538W        W72121  31.541  26.170  11.224
  539W        W72122  43.465  36.172   3.652
  540W        W72123  19.089  11.697   0.262
  541W        W72124  35.018   6.469   3.786
  542W        W72125  14.361  20.914  12.954
  543W        W72126  31.101  30.722  10.364
  544W        W72127   0.440  17.201  10.735
  545W        W72128  36.084   1.951  11.500
  546W        W72129  14.890  13.616  10.722
  547W        W72130  23.788  36.808   0.846
  548W        W72131  18.484  41.174   0.409
  549W        W72132  42.602  28.018  12.417
  550W        W72133   7.835  17.659   2.931
  551W        W72134  19.077  40.852  14.879
  552W        W72135  28.993  19.188   0.676
  553W        W72136  42.141  26.359  11.112
  554W        W72137  15.675  24.340  14.969
  555W        W72138  19.106  26.145  14.960
  556W        W72139  18.169  25.692  13.172
  557W        W72140  20.220  33.860   2.706
  558W        W72141  36.897   3.334   5.074
  559W        W72142  31.363   5.245  11.188
  560W        W72143  30.954  34.352  11.970
  561W        W72144  16.758  36.039  11.173
  562W        W72145  27.098   9.380  12.885
  563W        W72146  11.213  14.642   4.666
  564W        W72147   4.260  22.589   0.461
  565W        W72148   5.509   2.830   0.316
  566W        W72149   1.025  18.596   4.745
  567W        W72150  27.415  20.854   1.931
  568W        W72151  12.217  20.688   1.345
  569W        W72152   1.195   6.124   0.815
  570W        W72153  33.080  20.158   9.743
  571W        W72154  39.970  41.042  14.080
  572W        W72155   1.368  28.442   1.696
  573W        W72156  26.729  43.326   1.420
  574W        W72157  31.098  42.971   3.793
  575W        W72158  28.714  20.209   1.371
  576W        W72159  42.634  36.089  13.301
  577W        W72160  10.724  22.022  11.971
  578W        W72161  36.428  42.980   0.730
  579W        W72162   4.319  29.067   2.440
  580W        W72163   8.516  18.263  11.530
  581W        W72164  44.056   7.113  10.964
  582W        W72165  16.672  27.422  12.535
  583W        W72166  26.537   2.770   2.742
  584W        W72167   6.500  38.393   0.040
  585W        W72168  37.581  31.936  12.782
  586W        W72169  12.387  31.160  13.006
  587W        W72170  34.612  42.971  13.026
  588W        W72171  19.798  42.368  14.960
  589W        W72172  35.250  10.454   0.223
  590W        W72173  14.816   1.941  14.752
  591W        W72174  24.591  11.560   0.996
  592W        W72175  39.829   2.809   4.832
  593W        W72176   5.668   6.724   3.727
  594W        W72177  41.387  38.591   0.613
  595W        W72178  44.889  30.721  13.605
  596W        W72179   6.062  41.236  11.987
  597W        W72180  42.478   2.594   0.776
  598W        W72181  42.042  34.498  11.620
  599W        W72182  42.935   8.888  13.491
  600W        W72183   9.303  20.717   4.412
  601W        W72184  10.610  10.133  10.480
  602W        W72185  28.668   1.374  12.092
  603W        W72186   8.353   6.701  13.990
  604W        W72187  28.136  23.608   3.745
  605W        W72188  34.931  25.987  11.755
  606W        W72189   7.463  42.475  12.873
  607W        W72190   2.042  37.227   4.220
  608W        W72191  24.545   8.392   1.900
  609W        W72192  32.044   7.712   0.221
  610W        W72193  36.901  26.555  11.141
  611W        W72194  15.100  35.367  14.323
  612W        W72195  36.625  13.812   0.797
  613W        W72196   4.387   9.258   4.504
  614W        W72197  35.391  28.395  13.443
  615W        W72198  11.777   2.473   5.004
  616W        W72199  33.600  40.425   0.673
  617W        W72200  16.914   2.595   4.065
  618W        W72201  26.058  33.894   1.340
  619W        W72202  19.339  29.179  12.251
  620W        W72203  22.659  12.231  10.686
  621W        W72204  35.939  26.600  13.355
  622W        W72205   9.886  13.227  12.783
  623W        W72206  33.900  29.902   0.034
  624W        W72207  31.723  16.163  14.828
  625W        W72208  38.595  28.827  13.558
  626W        W72209  23.298  26.599   3.055
  627W        W72210  26.172  31.829   1.427
  628W        W72211  31.138  40.316  11.607
  629W        W72212  26.585  10.126   3.987
  630W        W72213   3.329  32.934   2.149
  631W        W72214   6.798   5.718   0.050
  632W        W72215   6.802  28.363  13.798
  633W        W72216  30.013  14.722   1.166
  634W        W72217  23.173   1.713  14.101
  635W        W72218   9.240  10.397   1.401
  636W        W72219  33.407  39.056   2.318
  637W        W72220  31.381  15.825   1.798
  638W        W72221  17.297  33.602  13.027
  639W        W72222   8.871  43.821  12.115
  640W        W72223  30.679  10.690  12.093
  641W        W72224  23.894  38.650  12.543
  642W        W72225  17.574  17.600   4.064
  643W        W72226  27.158  34.034  14.817
  644W        W72227   4.874  41.097   2.415
  645W        W72228  42.733  37.017  13.359
  646W        W72229  25.437  26.017   3.831
  647W        W72230  34.601  16.586  11.631
  648W        W72231  42.240  29.169   3.751
  649W        W72232  12.781  24.439  12.629
  650W        W72233  23.967  26.541   4.141
  651W        W72234  22.086  11.064  13.877
  652W        W72235  41.800  34.687  10.369
  653W        W72236  23.251  10.786   0.926
  654W        W72237  31.796  16.348   0.725
  655W        W72238  13.393  18.144  13.954
  656W        W72239   7.898  25.211   3.892
  657W        W72240   9.307  17.345   1.363
  658W        W72241  43.781  17.965  11.723
  659W        W72242  16.630  35.409   2.378
  660W        W72243  38.374  27.075   2.413
  661W        W72244  39.853  36.789  11.606
  662W        W72245  43.506  10.870   4.180
  663W        W72246  20.802  26.485   1.295
  664W        W72247  14.528  39.981  11.940
  665W        W72248   2.505  35.928  13.028
  666W        W72249   9.571   8.992  14.108
  667W        W72250  26.730  25.746  10.887
  668W        W72251  36.150  34.517  13.425
  669W        W72252  14.721  43.473  12.570
  670W        W72253   4.330  28.210   3.888
  671W        W72254   3.899  31.058  14.088
  672W        W72255   9.162   3.884  11.175
  673W        W72256  44.703  21.365   9.987
  674W        W72257  15.336  26.407   2.808
  675W        W72258  19.098  13.731   2.224
  676W        W72259   4.823  22.444   2.372
  677W        W72260  33.097  44.919  11.858
  678W        W72261  19.631  37.531  14.392
  679W        W72262  41.915  26.450   0.418
  680W        W72263  17.288   8.608   1.340
  681W        W72264  22.527  11.821   1.963
  682W        W72265  18.607  44.763   3.282
  683W        W72266  22.224  28.715  11.102
  684W        W72267   8.988  24.046  12.298
  685W        W72268  24.143  25.982   3.166
  686W        W72269   3.160  39.902   4.856
  687W        W72270   1.972  19.186   1.872
  688W        W72271   3.440  12.535  14.557
  689W        W72272  38.320  42.932   4.163
  690W        W72273   4.487  13.541  14.402
  691W        W72274  38.582  42.633  12.366
  692W        W72275  10.695  36.121   1.853
  693W        W72276  16.680  43.299  11.327
  694W        W72277  17.672  18.145   1.409
  695W        W72278   3.892   9.711  13.375
  696W        W72279  15.635   0.873  11.608
  697W        W72280  37.588  15.333  10.602
  698W        W72281  13.023  15.749  13.884
  699W        W72282  43.377  44.509  13.370
  700W        W72283  25.960   5.452  10.677
  701W        W72284  29.582  11.542   3.004
  702W        W72285  38.622  18.046   3.226
  703W        W72286   0.719  15.426  12.820
  704W        W72287  36.565   4.775  10.850
  705W        W72288   0.981  20.069  13.489
  706W        W72289  32.066   1.353  13.621
  707W        W72290  36.726  29.651  10.574
  708W        W72291  26.523  33.323   0.795
  709W        W72292   8.221  14.742   2.631
  710W        W72293   6.164  20.228   4.535
  711W        W72294  34.429  12.826  11.170
  712W        W72295  32.917  41.512  14.878
  713W        W72296  31.347  11.898  11.506
  714W        W72297  41.495  12.593  12.415
  715W        W72298  27.448  12.894  14.227
  716W        W72299   1.917  37.042  13.618
  717W        W72300  41.273  22.002  13.340
  718W        W72301  22.629  39.105   1.680
  719W        W72302  37.517  18.440   0.263
  720W        W72303   9.705  24.680   2.800
  721W        W72304   8.282  21.098   0.876
  722W        W72305  44.792  30.475   3.778
  723W        W72306   9.167   0.333  13.002
  724W        W72307   7.741  14.618   3.856
  725W        W72308  43.898  36.288  11.553
  726W        W72309  18.815   3.414  11.170
  727W        W72310  31.280  34.551  11.036
  728W        W72311  41.748  18.363   1.355
  729W        W72312  37.989  16.841   4.085
  730W        W72313  14.235  20.081  14.136
  731W        W72314  33.817  38.958  12.471
  732W        W72315   0.180   6.936   0.461
  733W        W72316  31.558  21.075  11.882
  734W        W72317  12.815  39.542  10.606
  735W        W72318  18.148  13.169   3.059
  736W        W72319   1.173  29.377   2.663
  737W        W72320  36.517  32.874   1.850
  738W        W72321  38.656   2.304   4.320
  739W        W72322  43.113   4.226   1.256
  740W        W72323  23.468  32.065  11.717
  741W        W72324   0.447  15.352   3.656
  742W        W72325  25.143  29.980  10.973
  743W        W72326  25.924  25.264   1.273
  744W        W72327   8.843  10.518  10.664
  745W        W72328  43.262  29.048   2.542
  746W        W72329  24.597  19.030  13.929
  747W        W72330  42.357  32.488   2.176
  748W        W72331   7.626  30.322   3.606
  749W        W72332  35.553  12.118   3.379
  750W        W72333   4.726  41.617  13.190
  751W        W72334  42.850  30.921  10.596
  752W        W72335  35.130   0.972  13.500
  753W        W72336  25.482  33.345   3.974
  754W        W72337  42.311  18.695   1.208
  755W        W72338  40.526  32.734  12.037
  756W        W72339  25.036   4.519   0.209
  757W        W72340   8.662   5.856  12.931
  758W        W72341  42.967  26.025  13.814
  759W        W72342  29.355   2.530   2.435
  760W        W72343  11.033  27.395   0.088
  761W        W72344  43.364  24.348   2.861
  762W        W72345   2.207  21.287  14.849
  763W        W72346  23.743   8.695  14.003
  764W        W72347  13.706  25.878  10.703
  765W        W72348  44.271  24.244   2.371
  766W        W72349  31.109  41.062  12.037
  767W        W72350   4.340   2.707  12.364
  768W        W72351  30.014   0.791   0.829
  769W        W72352  27.381  42.270   1.600
  770W        W72353  19.260  17.613   1.257
  771W        W72354   3.860   7.248   5.134
  772W        W72355  17.137  28.663  14.672
  773W        W72356  39.278   4.365   0.541
  774W        W72357  34.835  21.055   1.178
  775W        W72358  12.161  25.511  14.401
  776W        W72359  16.078  27.219  13.632
  777W        W72360  42.754  11.266   4.454
  778W        W72361  35.472  22.862  13.948
  779W        W72362  32.211  34.987   0.615
  780W        W72363  10.326  12.340   3.288
  781W        W72364  27.392  44.793   1.270
  782W        W72365  17.307  26.107   5.074
  783W        W72366  11.201  37.885   4.466
  784W        W72367  35.117  27.491  12.835
  785W        W72368  31.419  21.542   3.630
  786W        W72369  29.346   6.172   4.008
  787W        W72370  17.076  12.120   3.621
  788W        W72371  44.506   7.136   2.238
  789W        W72372  40.918   9.029   3.469
  790W        W72373  19.708   9.492   4.799
  791W        W72374  25.514  37.327   1.854
  792W        W72375  15.167  12.810   1.787
  793W        W72376   1.418  29.133   0.945
  794W        W72377   4.867  30.509  14.862
  795W        W72378  14.930  44.333   2.304
  796W        W72379  27.004  26.118   2.661
  797W        W72380   0.099  25.696  13.530
  798W        W72381  38.134   8.510   5.454
  799W        W72382  36.547  24.466  11.576
  800W        W72383  35.126  21.333   4.158
  801W        W72384  21.482   7.360   0.204
  802W        W72385  19.107  40.054   0.489
  803W        W72386  15.641  11.900   3.660
  804W        W72387  20.594  16.173  11.090
  805W        W72388  13.547  18.618  12.650
  806W        W72389  19.790  36.587   2.155
  807W        W72390  17.364   0.995   0.362
  808W        W72391  14.256   0.932   0.994
  809W        W72392   8.585   1.486  13.865
  810W        W72393  38.294   9.222  12.903
  811W        W72394  17.068  11.257  14.396
  812W        W72395  12.915  27.593  13.933
  813W        W72396  37.774  39.313  14.054
  814W        W72397  14.255  33.780  11.194
  815W        W72398  16.600  37.816  10.950
  816W        W72399  16.412  11.834  11.211
  817W        W72400   3.348  40.105  14.820
  818W        W72401  11.202  43.966   4.192
  819W        W72402  12.713  24.620  13.107
  820W        W72403  38.810  44.388   2.126
  821W        W72404  28.899  23.769   4.186
  822W        W72405  33.562   2.313   0.789
  823W        W72406  17.887  30.544   2.720
  824W        W72407  40.004  34.126   4.701
  825W        W72408  15.189  26.661  11.078
  826W        W72409  19.523  21.195   2.319
  827W        W72410  17.801   7.671   2.678
  828W        W72411  32.443  44.105   4.766
  829W        W72412   8.560   3.832   4.558
  830W        W72413  14.725  17.749  12.130
  831W        W72414  22.715  16.598  13.634
  832W        W72415  15.334  22.166  13.809
  833W        W72416  30.623  28.006  10.712
  834W        W72417  17.629  27.065  11.629
  835W        W72418  14.271   5.339  14.170
  836W        W72419  18.636  23.648  14.548
  837W        W72420  24.691  44.822  10.749
  838W        W72421  35.971  44.922  11.567
  839W        W72422  33.542  21.105  13.311
  840W        W72423  22.410  31.507   2.951
  841W        W72424  35.400   6.138   0.360
  842W        W72425  19.252  29.454  12.820
  843W        W72426   4.467  39.239  13.020
  844W        W72427  34.482  37.115   1.232
  845W        W72428  26.789  21.685  12.917
  846W        W72429  30.623  21.276   2.397
  847W        W72430  38.446  39.259   4.049
  848W        W72431  35.616  28.150   3.100
  849W        W72432  15.641  14.526   2.499
  850W        W72433  44.900   8.851  11.975
  851W        W72434  23.075  35.358  14.669
  852W        W72435   5.422  15.176  12.033
  853W        W72436  33.057  16.247   2.374
  854W        W72437  25.660  34.822   4.030
  855W        W72438   9.843  16.196   2.434
  856W        W72439   8.563   9.631   2.645
  857W        W72440  20.885  33.434  13.842
  858W        W72441  28.472   7.485   4.890
  859W        W72442  35.946  30.671  13.542
  860W        W72443  44.467  39.574  14.321
  861W        W72444   4.753  17.141   0.849
  862W        W72445  16.579  11.774  14.891
  863W        W72446  22.655  26.298  10.287
  864W        W72447  38.275  24.662  13.892
  865W        W72448  10.465   1.705   2.874
  866W        W72449  33.072  12.780   4.612
  867W        W72450  36.448  39.522   0.320
  868W        W72451  24.055  39.139  11.688
  869W        W72452   3.206  40.457  12.172
  870W        W72453  27.126   9.079  11.549
  871W        W72454  25.721  17.679  12.461
  872W        W72455   3.171  37.062   1.336
  873W        W72456   4.260  27.671  13.790
  874W        W72457  15.591  32.378   0.960
  875W        W72458  31.640   9.854   1.365
  876W        W72459  23.988  43.361  12.916
  877W        W72460  32.210   0.897  10.951
  878W        W72461  25.937  43.492  11.003
  879W        W72462  41.905  10.422   2.296
  880W        W72463  34.997  33.804  12.208
  881W        W72464   7.937  21.287  12.102
  882W        W72465  33.897  34.825  13.896
  883W        W72466  27.967  40.606  10.771
  884W        W72467   2.380  10.146   1.851
  885W        W72468  28.692  20.526  13.867
  886W        W72469  11.793   4.960  14.732
  887W        W72470  28.905   5.248   4.110
  888W        W72471  14.181  42.219  12.544
  889W        W72472  33.781  35.002  10.622
  890W        W72473  43.594  19.863  11.150
  891W        W72474  18.094  17.336   1.823
  892W        W72475  10.096  35.992   1.109
  893W        W72476  29.057  23.021   2.671
  894W        W72477   3.745  44.534  11.909
  895W        W72478   5.893  11.150  11.982
  896W        W72479  28.058  20.370   3.568
  897W        W72480  43.540  14.107   0.864
  898W        W72481  27.633  39.667   9.816
  899W        W72482   5.219   8.199   3.337
  900W        W72483  28.676  18.766   1.344
  901W        W72484  36.080   1.328   1.151
  902W        W72485   7.940  18.289  10.689
  903W        W72486   1.504  43.061   0.328
  904W        W72487  33.783  12.713  10.717
  905W        W72488  36.830  37.826   2.713
  906W        W72489  40.969  20.678  10.431
  907W        W72490  22.019  37.430   2.269
  908W        W72491  42.854  14.904  10.784
  909W        W72492  25.995  34.625  14.907
  910W        W72493   1.681  12.736   4.153
  911W        W72494  11.748  34.829  13.607
  912W        W72495   4.209  27.663  14.317
  913W        W72496  14.667  23.438  12.681
  914W        W72497  37.871  29.125   0.916
  915W        W72498  18.672  26.608  13.956
  916W        W72499  38.170  11.771   3.653
  917W        W72500  24.541  14.918   0.858
  918W        W72501  32.453   4.081   2.164
  919W        W72502  37.899  37.427   4.351
  920W        W72503  40.911  40.881   1.817
  921W        W72504  24.000  10.217   3.570
  922W        W72505  38.324  16.768  11.099
  923W        W72506  27.496  11.871   0.268
  924W        W72507  26.085  32.016  10.655
  925W        W72508   6.359  17.080   4.516
  926W        W72509   7.183  42.769   3.253
  927W        W72510  40.589  20.190   3.272
  928W        W72511  28.465  20.308  14.387
  929W        W72512  11.331  43.976  13.404
  930W        W72513  37.926  23.208   1.268
  931W        W72514   6.303  15.585   3.624
  932W        W72515   5.147  23.164   3.558
  933W        W72516   2.444   8.786   3.136
  934W        W72517  18.310  18.921  13.385
  935W        W72518   4.624   6.590  10.241
  936W        W72519   3.735  39.767  14.691
  937W        W72520  24.193  18.773  14.283
  938W        W72521  22.244  10.870  11.957
  939W        W72522   4.962   4.252   4.614
  940W        W72523   6.554  43.883  14.373
  941W        W72524  18.595  11.762   1.436
  942W        W72525  24.467  40.342   3.247
  943W        W72526  32.185  20.475  10.785
  944W        W72527  43.855  15.024  12.835
  945W        W72528   9.752  28.265   3.731
  946W        W72529  30.275  42.048   3.087
  947W        W72530   6.789  17.264  14.696
  948W        W72531  39.557  27.736  13.031
  949W        W72532   6.211   6.913   1.364
  950W        W72533   5.265  34.939   4.629
  951W        W72534   9.181  15.049  12.853
  952W        W72535  27.941  26.147  12.094
  953W        W72536  43.718  27.995  13.344
  954W        W72537   6.266  44.853  14.651
  955W        W72538   9.721  33.198  10.634
  956W        W72539  34.448  31.525   0.453
  957W        W72540  31.605  43.975   4.543
  958W        W72541  22.727  27.543  11.545
  959W        W72542  30.124   8.290  11.244
  960W        W72543  32.090  19.301  13.782
  961W        W72544   5.215  44.435   1.386
  962W        W72545  40.787  15.129   1.650
  963W        W72546  33.061   5.864   2.433
  964W        W72547  30.371  12.229  10.578
  965W        W72548  36.890  33.012  13.012
  966W        W72549  39.761  34.875  11.643
  967W        W72550   6.864  36.744  13.835
  968W        W72551  30.045  30.085   2.921
  969W        W72552   7.669   2.396  11.997
  970W        W72553   0.638  12.841  11.744
  971W        W72554  16.116  19.037   0.981
  972W        W72555  22.086  27.845  14.428
  973W        W72556  43.729  29.625  10.823
  974W        W72557  13.561  40.111  12.964
  975W        W72558  31.458  26.686  12.384
  976W        W72559   8.170  30.218  11.537
  977W        W72560   7.463  20.182  11.038
  978W        W72561   6.104  14.292  12.958
  979W        W72562   6.480   3.352   4.106
  980W        W72563   2.380  15.052  11.751
  981W        W72564   8.667  25.614  13.594
  982W        W72565  27.394   3.157  11.149
  983W        W72566  18.097  43.394   2.813
  984W        W72567   8.420  43.484  13.947
  985W        W72568  14.569  29.832   2.359
  986W        W72569  42.821  34.983  13.010
  987W        W72570  31.626   0.898   2.627
  988W        W72571  11.157  21.526   3.285
  989W        W72572  19.409  27.099   4.567
  990W        W72573  35.294  11.672   3.314
  991W        W72574  13.793  44.927   4.552
  992W        W72575  31.598  24.884  14.336
  993W        W72576  18.832  26.206  14.250
  994W        W72577  35.980  17.351   0.876
  995W        W72578  21.190  37.478  10.103
  996W        W72579  26.528  36.492  12.933
  997W        W72580  17.185  22.753  10.670
  998W        W72581  23.564   0.189   4.652
  999W        W72582   5.894  31.004   3.796
 1000W        W72583   3.468  28.035   0.857
 1001W        W72584  33.629  33.835   2.735
 1002W        W72585   6.131  16.511   1.244
 1003W        W72586  14.631  44.601   4.057
 1004W        W72587  24.727  26.905  14.959
 1005W        W72588  21.615   9.222  12.706
 1006W        W72589  33.535  32.516   1.046
 1007W        W72590  41.589  35.517   3.536
 1008W        W72591  24.064  32.634  11.493
 1009W        W72592  30.619  40.301  11.609
 1010W        W72593   6.660   0.683  11.638
 1011W        W72594  30.808   0.479   2.800
 1012W        W72595  31.065  33.001   2.391
 1013W        W72596  21.801  12.959   2.405
 1014W        W72597  32.928  18.465   4.688
 1015W        W72598   5.306  31.734  11.931
 1016W        W72599  37.918  34.207  11.694
 1017W        W72600  23.446  21.760  11.461
 1018W        W72601  27.455   5.976  13.989
 1019W        W72602   9.335  12.100   4.164
 1020W        W72603  25.207   7.590  14.051
 1021W        W72604   5.321  12.003  12.024
 1022W        W72605  24.942  26.438   0.683
 1023W        W72606  12.912   5.117   4.755
 1024W        W72607   0.170   1.442   1.168
 1025W        W72608   3.144  10.874  13.748
 1026W        W72609   6.840  43.868  12.933
 1027W        W72610   1.355  30.559   2.243
 1028W        W72611  20.786  17.646  11.438
 1029W        W72612  36.070  42.962  12.205
 1030W        W72613   7.914  41.795  12.073
 1031W        W72614  11.930   2.608   0.644
 1032W        W72615  38.595  41.705   0.876
 1033W        W72616  26.804  12.120   2.492
 1034W        W72617  25.846  21.670   3.283
 1035W        W72618   7.337  18.324  13.013
 1036W        W72619  23.954  10.090   0.857
 1037W        W72620  19.700  12.465  11.606
 1038W        W72621  43.892   0.410   0.898
 1039W        W72622   4.318  19.703  14.329
 1040W        W72623  22.186  29.047  11.685
 1041W        W72624  10.133  26.647   3.254
 1042W        W72625  25.338   7.667  11.180
 1043W        W72626  32.465  38.299  11.537
 1044W        W72627   7.150  32.625   1.036
 1045W        W72628  20.456  40.006   1.737
 1046W        W72629  29.044  34.813   4.016
 1047W        W72630  34.889  14.294  12.599
 1048W        W72631  43.734  21.127   1.837
 1049W        W72632  40.219  21.068  13.838
 1050W        W72633  22.244   2.836  11.450
 1051W        W72634  19.265   5.720   1.779
 1052W        W72635  41.561   6.715  11.094
 1053W        W72636   0.263  28.723   1.322
 1054W        W72637   2.353  27.874   3.198
 1055W        W72638   5.785  10.595   2.412
 1056W        W72639   0.925   6.062  14.270
 1057W        W72640  43.882  35.057  14.195
 1058W        W72641  12.328  19.511  13.034
 1059W        W72642   4.674  22.432   3.266
 1060W        W72643  33.569  25.081   3.306
 1061W        W72644  14.197  11.456   4.199
 1062W        W72645  33.000   7.661   0.230
 1063W        W72646   2.954   7.576  13.559
 1064W        W72647  34.870   4.532  11.585
 1065W        W72648  41.244  28.927  14.881
 1066W        W72649  29.506  34.589  11.129
 1067W        W72650   6.093  21.777  13.348
 1068W        W72651  24.468  30.013   1.192
 1069W        W72652   4.775  32.856   1.991
 1070W        W72653  21.788  11.555  13.072
 1071W        W72654  14.390  39.649   1.858
 1072W        W72655   5.835  41.737  12.651
 1073W        W72656   0.701  41.980  13.085
 1074W        W72657   4.931   5.085  11.448
 1075W        W72658  37.875  21.396   2.708
 1076W        W72659   2.390  21.512   2.686
 1077W        W72660  15.749   5.829   0.737
 1078W        W72661   4.123  37.265   0.230
 1079W        W72662   7.330  12.337  13.943
 1080W        W72663  35.901  15.259  12.483
 1081W        W72664   8.843  27.912   3.304
 1082W        W72665  38.910  25.011  14.266
 1083W        W72666   7.480  24.503  11.970
 1084W        W72667   6.909  42.048  11.204
 1085W        W72668  14.862   0.747  13.564
 1086W        W72669  32.516  18.934   4.103
 1087W        W72670  22.027  40.850   1.435
 1088W        W72671   0.935  41.270   3.668
 1089W        W72672   2.368   0.361   1.852
 1090W        W72673  12.738   1.255   0.368
 1091W        W72674  24.456   4.836  11.582
 1092W        W72675   4.849  13.240  11.593
 1093W        W72676  23.496   2.844   1.921
 1094W        W72677  40.368   7.905   2.796
 1095W        W72678   7.895  15.269   0.011
 1096W        W72679  23.516   9.466   4.234
 1097W        W72680   3.435  30.398   0.846
 1098W        W72681   0.503   6.504  14.422
 1099W        W72682  35.511  31.873  14.723
 1100W        W72683  21.826  35.625  12.029
 1101W        W72684  11.870  19.092  10.805
 1102W        W72685   3.421  14.715   3.626
 1103W        W72686  14.035   6.942  13.508
 1104W        W72687  13.101  17.714  12.575
 1105W        W72688  26.199  25.529   4.008
 1106W        W72689  13.520   1.747   3.586
 1107W        W72690  24.552   8.442   4.726
 1108W        W72691  34.244   9.726  14.014
 1109W        W72692  18.311   8.688  14.877
 1110W        W72693  44.331  25.997  11.459
 1111W        W72694  16.386  27.899   3.448
 1112W        W72695  30.135  27.202   0.315
 1113W        W72696  27.925  32.194  12.022
 1114W        W72697  38.968  40.323  14.709
 1115W        W72698  29.405  37.984   1.233
 1116W        W72699  12.162  34.619   0.137
 1117W        W72700  14.776  13.294  13.476
 1118W        W72701  35.372  24.639   0.389
 1119W        W72702   7.905  33.445   2.657
 1120W        W72703   6.681  44.860  14.325
 1121W        W72704  19.584  35.114   2.781
 1122W        W72705  27.173  29.857  14.304
 1123W        W72706  25.173   3.327  13.323
 1124W        W72707  11.761   1.815  11.770
 1125W        W72708   1.214   6.634  11.459
 1126W        W72709   5.835   1.482   3.717
 1127W        W72710   7.787  12.406  11.149
 1128W        W72711  42.082  29.156  11.139
 1129W        W72712  11.174  17.533   2.514
 1130W        W72713  14.492  11.693   1.731
 1131W        W72714  25.966  32.056   4.305
 1132W        W72715  26.477  41.944  11.542
 1133W        W72716   4.167  19.283  12.225
 1134W        W72717  23.250  37.993  14.131
 1135W        W72718  23.315   8.618   0.400
 1136W        W72719  27.936  44.812   4.626
 1137W        W72720  29.911  18.620  11.610
 1138W        W72721  18.747  35.047   4.183
 1139W        W72722  34.328   2.297  11.697
 1140W        W72723  39.790  12.304  13.013
 1141W        W72724   7.461  11.620   3.987
 1142W        W72725  43.259  22.622  12.884
 1143W        W72726  29.387  13.033  12.088
 1144W        W72727   3.520   0.752   3.278
 1145W        W72728  27.131   3.283  10.715
 1146W        W72729   9.590   0.453   1.436
 1147W        W72730  42.478  27.845  11.926
 1148W        W72731  28.965  34.096   4.030
 1149W        W72732  29.901  22.758   4.632
 1150W        W72733  34.507  10.699  14.310
 1151W        W72734  14.840  20.986   2.743
 1152W        W72735  12.833  20.003   1.380
 1153W        W72736  38.805  15.412  13.469
 1154W        W72737  23.437   8.113  12.054
 1155W        W72738  44.960  24.252   1.165
 1156W        W72739  10.608  39.943   1.255
 1157W        W72740   9.835  41.493  13.789
 1158W        W72741   6.851  30.957   4.190
 1159W        W72742   0.080  41.871  10.615
 1160W        W72743  38.030  20.227  11.883
 1161W        W72744  23.130  23.136   1.042
 1162W        W72745   9.239  43.981   2.259
 1163W        W72746  18.456   2.778   1.387
 1164W        W72747  21.509   6.914  11.691
 1165W        W72748  29.981  22.492   4.137
 1166W        W72749  31.555  29.441  14.100
 1167W        W72750  33.406  21.022   2.740
 1168W        W72751  31.323  42.704   0.823
 1169W        W72752  16.508  12.579  10.617
 1170W        W72753  44.051   5.232   2.682
 1171W        W72754  32.604  21.962   3.349
 1172W        W72755  28.378  44.064   2.265
 1173W        W72756  30.044  24.095   4.552
 1174W        W72757   5.895  12.649   0.907
 1175W        W72758  40.465  29.171   0.298
 1176W        W72759   0.715  11.244  14.239
 1177W        W72760   4.793  10.167  14.027
 1178W        W72761  18.380  41.895  11.352
 1179W        W72762  35.073   1.691   1.246
 1180W        W72763  39.781  36.664   3.576
 1181W        W72764  26.030  38.516   0.187
 1182W        W72765   5.326  32.479  14.892
 1183W        W72766  13.100   9.310   3.272
 1184W        W72767  37.928  10.360   2.797
 1185W        W72768  28.914  20.698  10.770
 1186W        W72769  33.067  40.124  11.587
 1187W        W72770  21.013   5.953  13.308
 1188W        W72771   9.231  10.897  14.874
 1189W        W72772  42.515   3.779   3.735
 1190W        W72773  44.715  32.065   0.948
 1191W        W72774   1.252  11.116  10.619
 1192W        W72775  28.007   1.695   4.622
 1193W        W72776  33.576  27.614   3.980
 1194W        W72777  25.347  41.934   2.468
 1195W        W72778  21.966  14.855   0.217
 1196W        W72779  36.820  37.816  14.431
 1197W        W72780  22.515   5.705  10.861
 1198W        W72781  10.319   3.712   2.894
 1199W        W72782  13.923  42.479  12.146
 1200W        W72783  35.618  21.541   2.142
 1201W        W72784  29.099  39.082  11.116
 1202W        W72785  17.159  35.543   2.264
 1203W        W72786  17.712  27.282   3.421
 1204W        W72787  21.687  20.635   2.237
 1205W        W72788  24.476  18.107  14.379
 1206W        W72789  29.354  41.023  10.797
 1207W        W72790   7.406   6.610   1.344
 1208W        W72791  18.878  18.869   2.252
 1209W        W72792  23.169  33.967   4.657
 1210W        W72793   3.460   4.965   2.640
 1211W        W72794  17.424  35.148  12.432
 1212W        W72795  21.767   0.458  11.855
 1213W        W72796   0.524  43.827  12.692
 1214W        W72797   5.313   5.254  14.870
 1215W        W72798  39.315  18.500  12.661
 1216W        W72799   6.713  22.647   0.494
 1217W        W72800  17.334  36.138   4.294
 1218W        W72801  17.172  29.996  12.969
 1219W        W72802  39.486  44.721   4.464
 1220W        W72803  41.112  18.923  12.583
 1221W        W72804   8.439  18.494   4.032
 1222W        W72805  16.719  14.690  14.862
 1223W        W72806  28.190   0.225   3.719
 1224W        W72807  32.340  38.373   1.297
 1225W        W72808   0.906  39.918   3.394
 1226W        W72809  31.673   0.374  13.948
 1227W        W72810   5.604   7.723  14.328
 1228W        W72811  21.363  30.815   5.349
 1229W        W72812  12.368  15.870   3.681
 1230W        W72813   0.380  25.520   3.365
 1231W        W72814  35.073  22.198  13.514
 1232W        W72815  32.133  29.569   4.571
 1233W        W72816  23.988   3.918  14.869
 1234W        W72817  40.065  42.363  11.889
 1235W        W72818  20.643  42.988   4.150
 1236W        W72819  15.214  17.081  12.462
 1237W        W72820  39.038   3.202   0.835
 1238W        W72821  15.848  21.018   2.742
 1239W        W72822   2.244   9.780  11.615
 1240W        W72823  42.908  44.227   3.053
 1241W        W72824  28.196   9.248   1.343
 1242W        W72825  24.772  25.032   0.233
 1243W        W72826   3.888  41.573  14.434
 1244W        W72827  43.793  43.599  11.518
 1245W        W72828  18.727  42.742   3.610
 1246W        W72829   1.739   1.347   1.220
 1247W        W72830  12.777  28.191   3.704
 1248W        W72831  39.911  44.067  11.537
 1249W        W72832  38.847  25.739   2.286
 1250W        W72833   1.772  43.618   1.369
 1251W        W72834  26.305  20.178   0.891
 1252W        W72835  24.590  21.282   4.827
 1253W        W72836  26.112  43.514   0.338
 1254W        W72837  42.599  17.006  10.465
 1255W        W72838  13.590  36.974  12.093
 1256W        W72839   6.216  34.039   1.014
 1257W        W72840  19.984  20.491   2.682
 1258W        W72841  41.005  21.416   2.108
 1259W        W72842  39.303  35.507  14.350
 1260W        W72843   7.453  42.249   1.378
 1261W        W72844   4.946   5.606  12.578
 1262W        W72845  41.306  20.623   4.256
 1263W        W72846  33.267  30.009  14.317
 1264W        W72847  38.573  29.692   1.756
 1265W        W72848  34.508  24.573   2.235
 1266W        W72849  27.054  37.442  10.832
 1267W        W72850  26.271   2.670  13.270
 1268W        W72851  37.977  13.738  13.874
 1269W        W72852  20.022  20.017  12.546
 1270W        W72853   8.733  34.460  10.416
 1271W        W72854  23.144  30.948   4.657
 1272W        W72855   0.921  28.467   4.622
 1273W        W72856  17.311   6.120   5.058
 1274W        W72857  37.817  17.355  13.050
 1275W        W72858   4.014  39.805  13.820
 1276W        W72859  15.992  21.840   1.743
 1277W        W72860  26.169   8.867  12.884
 1278W        W72861  30.081   8.496   3.254
 1279W        W72862   2.928   7.195   4.184
 1280W        W72863   0.952  33.314   4.052
 1281W        W72864  36.364  13.669   4.649
 1282W        W72865  15.626  33.976  13.028
 1283W        W72866  22.192  23.395  11.102
 1284W        W72867  27.527  11.448  13.451
 1285W        W72868  40.530   1.468  12.563
 1286W        W72869  10.274   0.001   0.955
 1287W        W72870  21.440  44.893   1.776
 1288W        W72871  24.734  32.078   0.499
 1289W        W72872   8.780  27.518   0.531
 1290W        W72873  44.056  36.796   0.338
 1291W        W72874  24.729  25.580   3.700
 1292W        W72875  43.136  15.292  14.828
 1293W        W72876   9.082   6.123  14.938
 1294W        W72877  33.535  10.162   4.549
 1295W        W72878  13.769  24.275  13.847
 1296W        W72879  44.945   5.654   2.763
 1297W        W72880   9.410  16.656  12.018
 1298W        W72881  24.469  19.078   1.596
 1299W        W72882  27.965   4.923   2.173
 1300W        W72883  44.023  41.307   3.207
 1301W        W72884  44.796  10.405  14.061
 1302W        W72885  42.334   3.471  13.546
 1303W        W72886  13.325   1.767  10.493
 1304W        W72887   8.993  14.542   3.192
 1305W        W72888  41.306  37.323  10.723
 1306W        W72889  36.586  43.379  12.873
 1307W        W72890  31.119  41.793  14.321
 1308W        W72891  34.917   3.222   1.374
 1309W        W72892  36.423  34.935   5.015
 1310W        W72893  16.147  44.018   1.940
 1311W        W72894  39.984   5.795   3.774
 1312W        W72895  36.013  12.915  10.495
 1313W        W72896  35.950  28.609  14.527
 1314W        W72897  27.859  30.813   4.129
 1315W        W72898  44.608  17.267  14.283
 1316W        W72899  28.526  33.170  13.054
 1317W        W72900   1.305  26.999   3.245
 1318W        W72901  27.975   2.355  12.903
 1319W        W72902  36.287  29.132   4.665
 1320W        W72903   8.276  26.085  12.834
 1321W        W72904   6.029  21.973   3.897
 1322W        W72905  15.556  28.635   0.192
 1323W        W72906  31.382  33.132  11.076
 1324W        W72907  19.816   4.871  11.192
 1325W        W72908  25.096   0.369  13.400
 1326W        W72909  17.775  25.641   0.552
 1327W        W72910   9.918   4.348   9.847
 1328W        W72911  42.976  18.293  13.441
 1329W        W72912  16.956   7.483   4.472
 1330W        W72913  23.067  24.985  13.031
 1331W        W72914  36.459  32.362   1.764
 1332W        W72915  40.355   9.798  13.325
 1333W        W72916  23.241  16.679  14.415
 1334W        W72917  17.130  30.259   1.194
 1335W        W72918   3.871  35.922   5.652
 1336W        W72919  26.320   9.594  10.257
 1337W        W72920  40.235  15.064  14.417
 1338W        W72921  35.166  21.287   0.392
 1339W        W72922  32.325  27.582  14.501
 1340W        W72923  13.681  33.339  10.620
 1341W        W72924  43.806  13.181   2.401
 1342W        W72925   0.354  25.504  13.930
 1343W        W72926  40.900  22.593   3.420
 1344W        W72927  11.630  27.045  11.082
 1345W        W72928  37.173  12.633   1.100
 1346W        W72929  23.447  25.068  11.946
 1347W        W72930  19.236  44.401  13.017
 1348W        W72931  30.083  40.778  11.088
 1349W        W72932   8.919   1.757  11.963
 1350W        W72933  37.901  41.274  12.551
 1351W        W72934   7.270  35.659  13.221
 1352W        W72935  25.844   1.481   3.341
 1353W        W72936  15.211  18.114  12.893
 1354W        W72937   5.896  19.069   0.155
 1355W        W72938  29.523   1.307  14.093
 1356W        W72939  22.484  43.830  14.432
 1357W        W72940  23.083  12.605   0.283
 1358W        W72941  33.179   9.965  10.568
 1359W        W72942   1.824  28.048  11.174
 1360W        W72943   5.597  21.624  13.351
 1361W        W72944   2.549  40.950   0.812
 1362W        W72945  21.131  31.845   1.319
 1363W        W72946  28.043  28.596   0.519
 1364W        W72947  43.926  39.907  13.123
 1365W        W72948  10.437   0.611   4.998
 1366W        W72949   9.453  35.867  12.947
 1367W        W72950  38.927  20.442   1.871
 1368W        W72951  28.196  39.294   4.201
 1369W        W72952  25.891  21.113   3.584
 1370W        W72953   8.836  40.426   4.075
 1371W        W72954  13.177   5.181  14.295
 1372W        W72955   4.799  31.991   2.043
 1373W        W72956   3.205   8.892   1.260
 1374W        W72957  16.233   9.338  14.019
 1375W        W72958  17.116   7.570  13.374
 1376W        W72959  26.564  16.139   0.406
 1377W        W72960   7.730   2.889   3.594
 1378W        W72961  10.126  26.441   1.343
 1379W        W72962  42.206  10.839   2.862
 1380W        W72963  39.822  20.643  11.597
 1381W        W72964  17.327   6.825   0.362
 1382W        W72965   7.741  32.351  14.286
 1383W        W72966  43.081   1.278  14.006
 1384W        W72967   2.489  15.686   9.901
 1385W        W72968  29.437  44.672   1.386
 1386W        W72969  36.010  18.041  12.043
 1387W        W72970  39.457   4.944  10.548
 1388W        W72971  18.609   9.241   3.354
 1389W        W72972  19.163  17.375  11.855
 1390W        W72973  32.514  37.838   2.414
 1391W        W72974   6.811  42.633   0.235
 1392W        W72975   4.254  21.010  14.391
 1393W        W72976  29.677  43.780   1.625
 1394W        W72977   9.604   6.410   4.175
 1395W        W72978   3.132  33.269   4.542
 1396W        W72979   7.646  10.765  12.333
 1397W        W72980  16.105  35.495  13.841
 1398W        W72981  22.717  23.480   4.254
 1399W        W72982  36.369   1.382  10.750
 1400W        W72983  33.067   1.371  13.259
 1401W        W72984  34.528  42.411  13.972
 1402W        W72985  12.220  12.046  14.233
 1403W        W72986  21.188  10.464  12.684
 1404W        W72987  42.512  18.186  14.069
 1405W        W72988   7.365   1.528  11.912
 1406W        W72989  30.649   6.456   4.614
 1407W        W72990   8.875  45.000  11.091
 1408W        W72991   8.668  15.899   1.862
 1409W        W72992  14.703  33.650   3.670
 1410W        W72993  26.766  28.001  11.187
 1411W        W72994  18.147  37.449  14.955
 1412W        W72995   0.519   1.203   1.989
 1413W        W72996  13.321  11.084   3.756
 1414W        W72997   1.242   2.017  13.544
 1415W        W72998  15.071  44.726  11.561
 1416W        W72999   5.895  26.402  14.911
 1417W        W73000  40.245  35.824   5.235
 1418W        W73001   0.251   1.881  14.413
 1419W        W73002  19.435  22.828   9.922
 1420W        W73003   1.267  15.143  13.475
 1421W        W73004  27.531  10.685   1.418
 1422W        W73005   9.643  23.716  11.487
 1423W        W73006   6.116  33.875   1.991
 1424W        W73007   1.705  16.896   2.657
 1425W        W73008   9.279  38.919  14.845
 1426W        W73009  18.939   2.370  12.070
 1427W        W73010  28.877   4.993  14.225
 1428W        W73011   6.283  18.257  13.833
 1429W        W73012  42.955  21.561   0.266
 1430W        W73013  35.486  39.493   3.788
 1431W        W73014   3.430  15.751  11.544
 1432W        W73015  11.257  17.090   0.685
 1433W        W73016  17.368   2.243   2.749
 1434W        W73017  43.968  26.484   2.389
 1435W        W73018  25.625  31.093  10.564
 1436W        W73019  41.527   3.860   0.309
 1437W        W73020  43.528  30.206  11.448
 1438W        W73021  29.168   3.249  10.761
 1439W        W73022  19.101  20.045   2.855
 1440W        W73023   1.288   3.751   3.219
 1441W        W73024   4.750  33.010  14.241
 1442W        W73025  28.157  31.354   2.250
 1443W        W73026  44.911  27.328  12.445
 1444W        W73027  19.703  40.778  10.888
 1445W        W73028   1.389  13.946   3.619
 1446W        W73029  37.629   4.405  12.903
 1447W        W73030  36.090   2.428  14.211
 1448W        W73031  31.804   8.386   1.879
 1449W        W73032   9.178  38.580   3.378
 1450W        W73033   2.827  35.730   4.134
 1451W        W73034   5.127  10.594   1.345
 1452W        W73035  28.037  19.335   2.303
 1453W        W73036  15.082  14.672   4.740
 1454W        W73037  37.787  43.468   0.166
 1455W        W73038  40.092  22.797  13.362
 1456W        W73039  25.124   3.175   2.342
 1457W        W73040  39.425  44.944   1.364
 1458W        W73041   1.073   4.661  14.335
 1459W        W73042  36.127   2.789  13.575
 1460W        W73043  34.568  36.930  12.887
 1461W        W73044   5.336  29.937  11.910
 1462W        W73045  39.278   2.285  14.935
 1463W        W73046  43.373  23.407   1.264
 1464W        W73047  38.385  30.833  12.018
 1465W        W73048  35.162  21.904   4.343
 1466W        W73049   8.455  36.168   2.238
 1467W        W73050  16.660  17.544   2.815
 1468W        W73051   2.742  32.554  12.480
 1469W        W73052  41.370  31.871   2.235
 1470W        W73053  20.170  26.538  10.255
 1471W        W73054  42.014  41.099  13.778
 1472W        W73055   5.371  18.720  13.917
 1473W        W73056  17.137   7.055   4.206
 1474W        W73057  21.167  25.701  11.870
 1475W        W73058  22.309  41.353  13.744
 1476W        W73059  31.976  43.166  14.575
 1477W        W73060  19.340   5.249  11.925
 1478W        W73061   7.887  30.252  10.853
 1479W        W73062   5.442  10.421   3.299
 1480W        W73063  31.030   8.117  11.162
 1481W        W73064  32.128  26.456  11.847
 1482W        W73065   8.329  35.928   4.093
 1483W        W73066   4.838   0.733   3.739
 1484W        W73067  35.394  11.158   2.515
 1485W        W73068   0.475  24.339  13.219
 1486W        W73069   5.669   0.098   0.816
 1487W        W73070  42.522  19.250   3.858
 1488W        W73071  35.109  32.665  13.896
 1489W        W73072  15.564   5.784   1.204
 1490W        W73073   4.006   8.637   3.320
 1491W        W73074  24.443  22.720  11.941
 1492W        W73075  40.804   2.623   0.271
 1493W        W73076  16.761   2.697   1.016
 1494W        W73077  28.012  14.021   2.648
 1495W        W73078  11.888   1.039   3.717
 1496W        W73079  20.760  26.349  12.827
 1497W        W73080   2.453  40.240  13.237
 1498W        W73081  35.093  27.352  11.501
 1499W        W73082  41.028   1.813  13.761
 1500W        W73083  23.526  16.764   1.682
 1501W        W73084   9.209   3.975   2.229
 1502W        W73085   1.437  18.232  14.835
 1503W        W73086   7.271  35.902  11.584
 1504W        W73087  20.584   5.476  11.520
 1505W        W73088  10.919  40.389   1.442
 1506W        W73089  23.114  31.613   3.581
 1507W        W73090  29.561  32.356  12.458
 1508W        W73091  40.849   9.487  10.641
 1509W        W73092   2.545   2.868   3.769
 1510W        W73093   7.704  12.786  10.786
 1511W        W73094  12.789  15.323   2.728
 1512W        W73095  12.077  32.554   3.368
 1513W        W73096  26.183  41.516  14.321
 1514W        W73097  25.259  33.940   0.966
 1515W        W73098  13.554  23.615   1.385
 1516W        W73099  39.528  19.165  11.142
 1517W        W73100   9.301   7.924  14.403
 1518W        W73101  20.307  42.893  14.315
 1519W        W73102  19.478  14.120  10.681
 1520W        W73103  37.602  29.237  14.368
 1521W        W73104  17.025  15.756   4.166
 1522W        W73105  15.617   0.054   4.475
 1523W        W73106   6.859  11.615  13.713
 1524W        W73107   5.720  21.498  11.066
 1525W        W73108  37.389  30.869  13.444
 1526W        W73109  43.939  30.355  12.049
 1527W        W73110   7.665  29.193  12.443
 1528W        W73111  33.332  18.175   0.784
 1529W        W73112  15.178  31.985   0.900
 1530W        W73113   8.476   0.433   3.671
 1531W        W73114  15.253  37.629   1.820
 1532W        W73115  38.909  34.092   4.540
 1533W        W73116  33.420   0.451  13.074
 1534W        W73117  28.613  37.181   1.918
 1535W        W73118   7.110  12.769  11.605
 1536W        W73119  25.535  11.735  12.567
 1537W        W73120  11.828  32.505   1.161
 1538W        W73121  44.036   1.920   2.246
 1539W        W73122   7.292  20.846  13.102
 1540W        W73123  26.063   5.349   2.948
 1541W        W73124  31.999  40.363   1.679
 1542W        W73125   7.547  43.780   4.486
 1543W        W73126  32.870  27.124  14.909
 1544W        W73127  34.561  24.505   4.533
 1545W        W73128  40.520  22.995  11.431
 1546W        W73129  14.236  21.971   3.161
 1547W        W73130  32.593  34.865   4.567
 1548W        W73131  40.842  17.661   2.340
 1549W        W73132   9.430  41.083  14.505
 1550W        W73133  33.466   6.247   4.621
 1551W        W73134   9.262  34.672   3.108
 1552W        W73135  24.748  33.308   2.738
 1553W        W73136   4.888   2.677   3.668
 1554W        W73137  14.064  11.759  13.041
 1555W        W73138   0.864  41.054   2.802
 1556W        W73139   6.353  40.840  12.133
 1557W        W73140  37.596  23.982  14.519
 1558W        W73141  26.534   9.848  11.889
 1559W        W73142  28.612  42.813  13.627
 1560W        W73143   5.955  37.403  11.026
 1561W        W73144  11.907  38.979  13.139
 1562W        W73145  30.000  14.764   2.772
 1563W        W73146  24.846  16.124   0.201
 1564W        W73147   3.207  15.165   0.737
 1565W        W73148  24.434   5.697   0.082
 1566W        W73149  18.235  22.238   5.590
 1567W        W73150   5.390  30.187  12.367
 1568W        W73151  24.646  38.803  14.848
 1569W        W73152  17.069  36.551  10.208
 1570W        W73153  25.591  26.615  10.636
 1571W        W73154  23.134   1.659   2.301
 1572W        W73155   8.238  11.661   4.431
 1573W        W73156  29.837  22.224   0.683
 1574W        W73157  36.636  30.818   2.930
 1575W        W73158  24.385   4.488  10.815
 1576W        W73159  31.519  11.570  13.820
 1577W        W73160  26.076  42.368  12.806
 1578W        W73161  35.890  13.339  11.642
 1579W        W73162  16.875  33.051   4.073
 1580W        W73163  10.608  26.971   3.906
 1581W        W73164  15.643  41.813   1.648
 1582W        W73165   6.127  22.078  14.763
 1583W        W73166  19.676  34.585   4.630
 1584W        W73167  29.961  13.810  12.547
 1585W        W73168   1.677  34.871   3.060
 1586W        W73169  30.831   3.002  12.471
 1587W        W73170  42.956  28.066   1.196
 1588W        W73171  18.507  29.652   1.831
 1589W        W73172   3.305   0.374   3.632
 1590W        W73173   3.711  22.130   3.426
 1591W        W73174   9.983  42.889   2.879
 1592W        W73175  42.363   0.879   4.394
 1593W        W73176  24.345  43.419  13.275
 1594W        W73177  33.863  40.777   4.201
 1595W        W73178  13.623  33.516  12.970
 1596W        W73179   2.485   2.716   1.824
 1597W        W73180  16.104  29.504  10.145
 1598W        W73181  24.446  34.684  12.018
 1599W        W73182  27.435   7.081  13.520
 1600W        W73183  38.290   9.285  11.961
 1601W        W73184  26.106  11.897   1.893
 1602W        W73185  24.806   2.648  12.092
 1603W        W73186  33.455  33.919  12.899
 1604W        W73187  44.045  37.984   4.792
 1605W        W73188  14.722  28.090   0.340
 1606W        W73189  41.852   4.708   1.253
 1607W        W73190   8.174  21.913  14.691
 1608W        W73191  42.590  33.523  10.861
 1609W        W73192   3.347  15.117  10.342
 1610W        W73193  31.370  35.022   0.575
 1611W        W73194  25.730  32.994   1.113
 1612W        W73195  32.616  30.407  14.973
 1613W        W73196   2.230  12.870  11.148
 1614W        W73197  32.191  21.875   9.796
 1615W        W73198   0.336  13.226  12.132
 1616W        W73199  33.365   1.583  12.873
 1617W        W73200  19.297   3.200  11.149
 1618W        W73201  14.667  10.756   3.731
 1619W        W73202   8.842  41.330   1.832
 1620W        W73203  21.692  17.589   1.918
 1621W        W73204  12.601  19.923  14.531
 1622W        W73205  19.737   7.606   0.278
 1623W        W73206  14.868  41.290   1.129
 1624W        W73207  16.371   2.646  11.297
 1625W        W73208  36.847  29.718  14.424
 1626W        W73209   8.525  21.506  11.601
 1627W        W73210  10.189  26.981  13.873
 1628W        W73211  39.445  15.556  14.728
 1629W        W73212  32.333   5.125   2.744
 1630W        W73213  17.820  12.294   1.473
 1631W        W73214  22.106   2.376  10.566
 1632W        W73215  35.385   2.712   3.020
 1633W        W73216  41.146   8.098   5.073
 1634W        W73217   1.405   8.269   2.165
 1635W        W73218  32.619   8.420   3.715
 1636W        W73219  18.176  36.343  11.086
 1637W        W73220   0.457   7.328   4.552
 1638W        W73221  31.882  34.485   4.843
 1639W        W73222   1.788  27.477   1.275
 1640W        W73223  12.403  30.958   0.422
 1641W        W73224  35.138  25.637   2.729
 1642W        W73225  18.923  19.341   3.209
 1643W        W73226  17.532  10.853   1.853
 1644W        W73227  16.660  20.097  13.125
 1645W        W73228  31.176  39.495   3.105
 1646W        W73229  17.954   9.423   2.751
 1647W        W73230   0.054   9.127   1.835
 1648W        W73231  35.594  16.581   3.108
 1649W        W73232  30.640  20.251  12.549
 1650W        W73233  26.873  33.616  14.637
 1651W        W73234  41.526   4.832  11.616
 1652W        W73235  12.137  17.776  10.653
 1653W        W73236  14.691  44.965  13.953
 1654W        W73237  31.547  33.888   3.759
 1655W        W73238  34.956  13.395  14.327
 1656W        W73239  26.717  22.607  14.007
 1657W        W73240  36.486  16.004  12.561
 1658W        W73241  13.090  39.041  12.419
 1659W        W73242   4.460   0.555  12.051
 1660W        W73243  40.586  20.221   1.293
 1661W        W73244  42.082  14.147   3.657
 1662W        W73245  32.882  25.117   4.064
 1663W        W73246  17.709  23.800   1.457
 1664W        W73247  18.725   3.684   1.678
 1665W        W73248  36.789  21.206  12.618
 1666W        W73249   0.252  41.490  14.822
 1667W        W73250  29.721   5.417  14.413
 1668W        W73251  16.070  18.575   4.022
 1669W        W73252  35.033   7.214   0.936
 1670W        W73253  21.474  16.828   3.616
 1671W        W73254  20.772  43.187   0.836
 1672W        W73255   3.686   1.727   4.446
 1673W        W73256  17.363  16.474   2.379
 1674W        W73257   8.965  21.646   0.966
 1675W        W73258  37.909  11.250  12.029
 1676W        W73259   2.878  17.840   4.120
 1677W        W73260   0.293  27.930   0.900
 1678W        W73261  12.616  44.920   0.838
 1679W        W73262  31.919  33.933  13.026
 1680W        W73263  32.590  43.237   1.300
 1681W        W73264  27.489  28.437  13.300
 1682W        W73265   1.425  23.240  13.722
 1683W        W73266   3.903  40.275  14.749
 1684W        W73267  31.143   7.312   2.794
 1685W        W73268  33.344   9.417   2.201
 1686W        W73269  30.566  44.320  14.347
 1687W        W73270  23.039   3.070   4.285
 1688W        W73271  31.381  13.551  14.849
 1689W        W73272   8.741  23.952  11.117
 1690W        W73273  28.000  41.239   2.169
 1691W        W73274  42.930  35.622   0.893
 1692W        W73275  11.837  14.328   4.078
 1693W        W73276   7.844  31.003  11.991
 1694W        W73277   2.672  38.508   1.741
 1695W        W73278  37.448  23.012   1.165
 1696W        W73279   7.894  35.833  11.066
 1697W        W73280   3.448  16.000   0.905
 1698W        W73281  18.500   2.895   2.331
 1699W        W73282  14.607  38.457   1.220
 1700W        W73283  29.724  12.125   0.570
 1701W        W73284   4.016  22.035  11.588
 1702W        W73285  35.518  17.790  12.104
 1703W        W73286  39.334  25.982   0.168
 1704W        W73287  21.345  11.336   1.761
 1705W        W73288  39.916  33.622   4.555
 1706W        W73289  32.397  10.669   1.585
 1707W        W73290  19.202  19.766   3.338
 1708W        W73291  17.280  28.198   1.782
 1709W        W73292  11.244   4.397  13.069
 1710W        W73293  29.080   0.491   0.346
 1711W        W73294  21.759  10.347   1.258
 1712W        W73295  26.472   7.164   5.158
 1713W        W73296  12.535  29.937  12.479
 1714W        W73297  31.013   5.854  14.762
 1715W        W73298  17.236  22.933   3.784
 1716W        W73299  18.985   2.297  10.763
 1717W        W73300   8.788  31.299   2.221
 1718W        W73301  29.190  30.384  12.965
 1719W        W73302  37.442  15.161  12.451
 1720W        W73303  35.573  11.660   3.745
 1721W        W73304  37.076  14.272  11.547
 1722W        W73305  17.153  39.520  12.765
 1723W        W73306   0.521  44.316  10.675
 1724W        W73307  41.328  25.639  11.949
 1725W        W73308  30.443   9.187  13.899
 1726W        W73309  30.181   0.365  12.105
 1727W        W73310  30.696  30.652  13.141
 1728W        W73311  29.725  41.726  11.177
 1729W        W73312  27.568  18.330  11.484
 1730W        W73313  34.423  21.282  14.787
 1731W        W73314  32.957  18.638   3.785
 1732W        W73315  28.143  39.353  14.459
 1733W        W73316  31.663  36.001  10.596
 1734W        W73317  28.468  31.636   0.390
 1735W        W73318   4.732  41.815   4.463
 1736W        W73319  27.148  28.989  12.775
 1737W        W73320  42.999  10.252   0.127
 1738W        W73321  27.368  10.800   4.168
 1739W        W73322  31.074  26.202  13.681
 1740W        W73323  35.142   5.961   3.764
 1741W        W73324  43.718  38.675   2.366
 1742W        W73325  17.818  37.113   3.519
 1743W        W73326  21.366   6.872  10.038
 1744W        W73327   1.337  21.509  14.323
 1745W        W73328  37.114  17.251  14.627
 1746W        W73329  17.172   1.756  13.082
 1747W        W73330   2.248  37.312  12.512
 1748W        W73331  18.989  24.216  11.172
 1749W        W73332  42.244  44.967   4.700
 1750W        W73333  14.798  44.409  13.937
 1751W        W73334  20.500  34.662  12.047
 1752W        W73335  42.730  19.428   2.825
 1753W        W73336   9.281  42.568  11.273
 1754W        W73337  43.780  18.161   4.511
 1755W        W73338  38.003   6.712  13.311
 1756W        W73339  26.773  11.652  11.197
 1757W        W73340   8.198  16.094  10.912
 1758W        W73341  36.567  36.798  11.606
 1759W        W73342  33.006  19.603  12.432
 1760W        W73343  33.130   9.319   3.751
 1761W        W73344  32.458  19.015  12.166
 1762W        W73345  40.379  14.627  12.560
 1763W        W73346  21.051   7.695  12.923
 1764W        W73347   4.987  19.091  12.560
 1765W        W73348  27.100   9.622   0.515
 1766W        W73349  20.719  31.940   0.758
 1767W        W73350  14.158   8.536   4.127
 1768W        W73351  19.189  39.392   1.223
 1769W        W73352   7.287  24.993   3.102
 1770W        W73353   9.198   8.712   0.587
 1771W        W73354  37.866  38.838  10.244
 1772W        W73355  36.154  42.519   0.614
 1773W        W73356  35.022   9.104   0.243
 1774W        W73357  32.177  42.935  10.888
 1775W        W73358  31.684  39.105  11.098
 1776W        W73359  29.255  10.067  13.889
 1777W        W73360  13.297  35.383   0.781
 1778W        W73361  28.548  20.815  10.368
 1779W        W73362  13.415  44.852  12.458
 1780W        W73363  40.052  32.036   1.313
 1781W        W73364  26.531   4.881   3.662
 1782W        W73365  41.028  11.636   0.436
 1783W        W73366  15.270  30.050   1.451
 1784W        W73367  26.285  16.228  11.933
 1785W        W73368  44.079  12.705  11.044
 1786W        W73369   5.689  28.365  11.503
 1787W        W73370  31.959  43.644  14.338
 1788W        W73371  37.489  27.073  10.722
 1789W        W73372  11.405  37.471  13.792
 1790W        W73373   7.419  25.237   1.262
 1791W        W73374  29.337  38.583   2.736
 1792W        W73375  30.099  15.218  10.791
 1793W        W73376   4.282  31.375   4.321
 1794W        W73377  16.281  22.538   9.979
 1795W        W73378  34.428  17.828  10.689
 1796W        W73379  33.795  10.748   2.829
 1797W        W73380  12.711  39.070   4.597
 1798W        W73381  20.231  18.774  11.223
 1799W        W73382   1.009  31.732  13.440
 1800W        W73383   1.423  24.299  12.508
 1801W        W73384   6.886  20.865  13.451
 1802W        W73385  27.621  23.972   3.269
 1803W        W73386  40.558  25.455  10.721
 1804W        W73387   3.320  44.375  13.448
 1805W        W73388   6.567  12.784   3.202
 1806W        W73389  33.845  40.313   3.017
 1807W        W73390   6.956  17.294  12.275
 1808W        W73391  40.650  37.349   3.255
 1809W        W73392  24.263  21.235  14.299
 1810W        W73393  29.411  38.363  11.181
 1811W        W73394  23.734  44.858  10.646
 1812W        W73395  41.896  25.918  14.355
 1813W        W73396  14.692  34.685   3.685
 1814W        W73397  19.190  29.001  10.769
 1815W        W73398   3.212  35.161  11.692
 1816W        W73399  29.024  36.634  10.482
 1817W        W73400  21.024   0.319  14.917
 1818W        W73401   9.889  15.766   2.145
 1819W        W73402   4.359  43.294   1.254
 1820W        W73403  34.855   0.998   4.453
 1821W        W73404  39.793  26.719  11.542
 1822W        W73405   8.841  10.791   0.820
 1823W        W73406  18.016  28.132   3.376
 1824W        W73407  44.924  11.990  13.729
 1825W        W73408  37.384  40.471   0.915
 1826W        W73409  24.564   7.623  14.465
 1827W        W73410  10.815  42.812  12.954
 1828W        W73411   4.700  36.802   5.552
 1829W        W73412  10.613  28.656  10.745
 1830W        W73413  30.190  34.534   4.042
 1831W        W73414   8.113  40.967   1.223
 1832W        W73415   4.801   8.499   4.520
 1833W        W73416  26.881  15.696   3.232
 1834W        W73417   9.760  33.181  14.848
 1835W        W73418  34.373   5.389   1.449
 1836W        W73419  40.047  32.469  12.005
 1837W        W73420  15.152  42.109  12.577
 1838W        W73421  39.910  14.065  10.453
 1839W        W73422  32.142  15.876  10.673
 1840W        W73423  26.648  38.832   2.192
 1841W        W73424  42.871  12.355  11.804
 1842W        W73425  34.051   7.833   0.637
 1843W        W73426  28.946   8.218   1.204
 1844W        W73427  36.028  27.685  11.571
 1845W        W73428  31.242  12.347  11.707
 1846W        W73429  23.244  26.374   2.227
 1847W        W73430  28.894  36.036   2.765
 1848W        W73431  17.611  19.590  12.638
 1849W        W73432   6.377  40.125  11.650
 1850W        W73433   0.034   4.268  13.362
 1851W        W73434   2.266   9.969   3.618
 1852W        W73435  40.297  34.123  13.211
 1853W        W73436  26.621   9.227   4.187
 1854W        W73437  40.929  36.091   2.039
 1855W        W73438  39.796   5.492   5.528
 1856W        W73439  35.831   5.278   2.270
 1857W        W73440   8.741  13.371  14.949
 1858W        W73441  24.877  17.641  14.714
 1859W        W73442  13.080  26.087  14.043
 1860W        W73443   8.293  33.811   2.670
 1861W        W73444  26.582   1.006  14.030
 1862W        W73445  15.062  18.282  13.380
 1863W        W73446   9.879  28.570   2.911
 1864W        W73447  34.466  25.575  10.678
 1865W        W73448  38.474  35.436  14.756
 1866W        W73449   2.354  16.976  12.417
 1867W        W73450  29.585  28.640  11.095
 1868W        W73451  14.736  32.644   3.667
 1869W        W73452  26.370  35.880   2.828
 1870W        W73453  35.435  25.934   1.904
 1871W        W73454  44.726  27.267   4.638
 1872W        W73455   8.328  30.933   1.420
 1873W        W73456  35.415  28.971  10.959
 1874W        W73457  42.432   1.300   3.121
 1875W        W73458  12.954  39.470  12.022
 1876W        W73459  28.600  43.581   4.238
 1877W        W73460  30.589  15.729   2.841
 1878W        W73461   3.808  18.296   3.723
 1879W        W73462  23.925  17.259  14.352
 1880W        W73463  30.027  11.637  10.781
 1881W        W73464  41.635   5.353   4.226
 1882W        W73465  40.335  17.277  10.318
 1883W        W73466  18.654  12.081  11.030
 1884W        W73467  20.753  16.384   9.610
 1885W        W73468   0.506  43.317  14.436
 1886W        W73469  10.903  32.630  12.261
 1887W        W73470  27.122   6.837  10.923
 1888W        W73471  11.036  34.059  12.759
 1889W        W73472   8.025  32.024  13.365
 1890W        W73473   4.159  41.608   2.944
 1891W        W73474  41.582  11.813  14.339
 1892W        W73475  43.408   3.182   1.930
 1893W        W73476  21.588  11.733   3.309
 1894W        W73477   1.409   3.708   4.119
 1895W        W73478  29.688  10.698  13.433
 1896W        W73479  13.974  22.166  14.004
 1897W        W73480  10.266   4.457   3.686
 1898W        W73481  31.121  26.783   4.399
 1899W        W73482  44.793  20.744   0.046
 1900W        W73483  44.453   0.001  11.445
 1901W        W73484  21.984  29.864   4.643
 1902W        W73485  10.585  38.015  14.823
 1903W        W73486  16.066  28.643  14.296
 1904W        W73487  18.479  42.609   1.294
 1905W        W73488   1.851  22.715   1.219
 1906W        W73489  28.617  26.233  11.349
 1907W        W73490   0.336  10.510   4.737
 1908W        W73491  17.158  10.783  12.019
 1909W        W73492  41.816  36.470  12.422
 1910W        W73493  27.207  14.874   1.694
 1911W        W73494  35.911  14.326   2.864
 1912W        W73495   1.526  20.507  13.131
 1913W        W73496  39.959  37.610  11.957
 1914W        W73497  23.205  22.319  11.229
 1915W        W73498  37.416  28.190   3.383
 1916W        W73499   5.949  30.928   2.354
 1917W        W73500  39.085  29.109   0.353
 1918W        W73501  18.711  31.438   3.334
 1919W        W73502  22.317   7.839   4.734
 1920W        W73503   1.201  33.131  11.604
 1921W        W73504  17.106  17.295   3.761
 1922W        W73505  14.226  20.161  12.911
 1923W        W73506  15.044  23.619   4.611
 1924W        W73507  22.674  12.675   2.119
 1925W        W73508  30.457  20.772   4.172
 1926W        W73509  38.391  16.167  12.915
 1927W        W73510  26.246  30.251   0.956
 1928W        W73511   0.036  12.225   4.351
 1929W        W73512   2.009  43.069  11.138
 1930W        W73513  16.119  14.331   1.328
 1931W        W73514  26.096  44.196  12.536
 1932W        W73515   5.685  40.896  14.983
 1933W        W73516  13.922   3.393   2.213
 1934W        W73517  36.951   1.696  11.883
 1935W        W73518  32.921  24.164   3.876
 1936W        W73519   3.877  31.401   3.159
 1937W        W73520  27.725   0.088   1.919
 1938W        W73521  25.098  32.599  13.977
 1939W        W73522  32.797  28.613   2.728
 1940W        W73523  32.289  24.707   2.472
 1941W        W73524  42.917  37.927   4.118
 1942W        W73525  17.640  39.592   3.131
 1943W        W73526  16.398  25.517  12.473
 1944W        W73527  44.908  23.512  14.675
 1945W        W73528  29.950   1.789   3.308
 1946W        W73529   5.895   0.860   0.541
 1947W        W73530  30.036  41.770   2.731
 1948W        W73531  10.624  25.510   2.422
 1949W        W73532   6.442   6.139  12.516
 1950W        W73533  31.499  19.224  11.870
 1951W        W73534  10.163  11.393   3.818
 1952W        W73535  16.634  22.946   1.677
 1953W        W73536  12.858  17.503   4.409
 1954W        W73537  38.829  13.826  10.641
 1955W        W73538  27.432   8.954   2.239
 1956W        W73539   3.901  35.580  12.004
 1957W        W73540   2.938  28.078   1.451
 1958W        W73541  34.363  29.919  13.388
 1959W        W73542  12.595  28.256  11.157
 1960W        W73543  11.178  42.378  11.071
 1961W        W73544  42.912  28.118  11.199
 1962W        W73545  26.917   1.902   0.428
 1963W        W73546   2.465   8.841  13.482
 1964W        W73547   0.201  11.332  10.623
 1965W        W73548  43.874  36.000  11.969
 1966W        W73549  29.159   3.164  14.360
 1967W        W73550   9.666  27.087  14.826
 1968W        W73551  43.483  23.870   2.635
 1969W        W73552  26.943  27.727   1.867
 1970W        W73553  15.779  44.579   5.151
 1971W        W73554  33.485  32.823   1.456
 1972W        W73555  25.593  30.391   1.009
 1973W        W73556  38.829  14.530   0.223
 1974W        W73557   8.652   3.829  11.118
 1975W        W73558  33.635  38.662   3.644
 1976W        W73559   8.642   5.973  11.901
 1977W        W73560  20.655   3.456   1.136
 1978W        W73561  43.450   1.368  14.809
 1979W        W73562   2.329  36.096  14.496
 1980W        W73563  33.070   9.186  13.974
 1981W        W73564  17.703   1.170  12.305
 1982W        W73565  41.456  32.614  12.194
 1983W        W73566  29.451  42.443   3.095
 1984W        W73567  13.255  40.108  13.382
 1985W        W73568  13.581  28.644  14.262
 1986W        W73569  36.872  26.033  10.932
 1987W        W73570  30.098  20.230  12.329
 1988W        W73571   6.249  38.410   3.419
 1989W        W73572  24.504   6.585  13.585
 1990W        W73573  33.069  29.912   3.619
 1991W        W73574  40.824  15.629   1.514
 1992W        W73575  43.518  31.075   0.515
 1993W        W73576  36.162  24.663   1.700
 1994W        W73577  11.670  19.410  13.426
 1995W        W73578  13.638   2.083  12.183
 1996W        W73579  18.561  39.514   3.152
 1997W        W73580  38.310  38.541   1.521
 1998W        W73581  17.704  13.691   1.956
 1999W        W73582  34.028  22.056   2.822
 2000W        W73583  39.466  30.250  14.218
 2001W        W73584  26.931  38.715   4.254
 2002W        W73585  41.286  18.619  13.428
 2003W        W73586  20.810   6.324   2.603
 2004W        W73587  18.871  29.245   5.357
 2005W        W73588  23.540  36.474  14.393
 2006W        W73589  13.998  41.256   1.024
 2007W        W73590  36.159  31.720  13.657
 2008W        W73591   1.203  10.134   3.642
 2009W        W73592   5.957   5.279  13.442
 2010W        W73593   6.766  25.986   2.583
 2011W        W73594  41.013  25.152  14.594
 2012W        W73595  15.814  23.734   3.175
 2013W        W73596   3.254   7.568  11.170
 2014W        W73597   6.208  10.389  11.757
 2015W        W73598  40.012   1.388   3.494
 2016W        W73599  22.072  33.223   4.594
 2017W        W73600  20.082  17.971  10.955
 2018W        W73601  42.987  12.878   3.709
 2019W        W73602  22.922  29.384  14.256
 2020W        W73603  39.536   9.629  13.988
 2021W        W73604  18.376  23.973   3.699
 2022W        W73605  24.085   0.448  14.470
 2023W        W73606   3.743  18.297  13.615
 2024W        W73607  41.808   6.785  14.622
 2025W        W73608  22.936  30.969  14.284
 2026W        W73609  32.158  43.302   0.554
 2027W        W73610  11.624   8.500   4.256
 2028W        W73611  26.496  12.102  11.278
 2029W        W73612  30.830  15.811  13.482
 2030W        W73613  19.777  27.520  12.600
 2031W        W73614  29.234  19.863  12.506
 2032W        W73615   1.327  35.920   2.748
 2033W        W73616  11.950  42.983  12.107
 2034W        W73617   3.218  15.430  13.575
 2035W        W73618  44.301  12.240   2.972
 2036W        W73619  22.716  19.538  13.401
 2037W        W73620  37.066   1.817   2.930
 2038W        W73621  37.338   7.955   3.797
 2039W        W73622  20.306  16.960   4.669
 2040W        W73623   9.373  17.171   0.436
 2041W        W73624  37.442  13.517  10.698
 2042W        W73625   7.046  38.848  13.868
 2043W        W73626   7.680  42.172   3.602
 2044W        W73627  37.467  24.825  10.296
 2045W        W73628  12.224  24.033  14.940
 2046W        W73629  10.217   7.407   0.203
 2047W        W73630   8.780   9.502  14.096
 2048W        W73631  31.189  14.560  10.699
 2049W        W73632  27.958   8.233  10.860
 2050W        W73633  19.122  35.886  13.061
 2051W        W73634   0.096  33.624   2.787
 2052W        W73635   8.334  34.519   4.681
 2053W        W73636  10.009  16.218   1.886
 2054W        W73637  26.146   3.927   3.129
 2055W        W73638   4.654  14.322  14.137
 2056W        W73639  20.513  34.835   4.189
 2057W        W73640  16.287  12.695   1.139
 2058W        W73641  19.491  20.638  10.636
 2059W        W73642  11.989  28.655  11.832
 2060W        W73643   6.180  43.509  10.756
 2061W        W73644  28.883   9.679   0.719
 2062W        W73645  27.006  44.477   0.375
 2063W        W73646   2.977  31.686   2.390
 2064W        W73647  31.497   6.677  11.381
 2065W        W73648  41.358  42.094  10.804
 2066W        W73649   8.443   3.446   2.302
 2067W        W73650  18.615  41.677  12.169
 2068W        W73651   1.906  44.428  12.027
 2069W        W73652  20.688  31.946   2.760
 2070W        W73653  11.463  13.334   3.090
 2071W        W73654  15.404  43.693   1.198
 2072W        W73655   8.565  37.969   3.083
 2073W        W73656  15.220  23.173   4.831
 2074W        W73657   7.482  32.033  10.765
 2075W        W73658  13.534   6.621   3.247
 2076W        W73659  21.389   0.814   0.337
 2077W        W73660   3.291   1.624  14.806
 2078W        W73661  13.728  10.611   1.323
 2079W        W73662  37.363   3.957  12.824
 2080W        W73663  17.349  15.752   4.562
 2081W        W73664  15.355   3.363   1.955
 2082W        W73665  42.790  15.222   0.216
 2083W        W73666  42.802   2.704  14.000
 2084W        W73667  43.741  11.796   1.873
 2085W        W73668  44.226  17.098  11.921
 2086W        W73669  29.648  26.707  13.373
 2087W        W73670  42.934  15.172   1.651
 2088W        W73671  38.909  15.866   2.923
 2089W        W73672   7.678  18.088   4.063
 2090W        W73673   5.306  15.741   4.462
 2091W        W73674   6.198  24.027   1.354
 2092W        W73675   3.313  40.900   0.389
 2093W        W73676  15.732  28.088  10.665
 2094W        W73677  27.893  34.564   0.890
 2095W        W73678  41.509  41.031  12.000
 2096W        W73679  11.782  10.205   0.276
 2097W        W73680  39.303   2.630  12.916
 2098W        W73681   6.790  13.333  10.761
 2099W        W73682  41.490  17.030  12.495
 2100W        W73683  23.646  40.945  14.903
 2101W        W73684  29.730  44.346   4.188
 2102W        W73685   0.424   9.312  14.869
 2103W        W73686  29.660   8.228   3.083
 2104W        W73687  13.837  31.040  13.084
 2105W        W73688  10.883  25.508   0.917
 2106W        W73689  23.522  36.354  13.377
 2107W        W73690  40.582   1.775   1.943
 2108W        W73691   1.397   8.490  11.079
 2109W        W73692  32.488  41.151  13.613
 2110W        W73693  14.688  44.721   3.144
 2111W        W73694   0.696  18.203  13.019
 2112W        W73695   3.479  38.124  11.517
 2113W        W73696  35.436  28.491  14.313
 2114W        W73697   5.855  22.418  13.900
 2115W        W73698  36.908   6.933  13.929
 2116W        W73699  34.863  29.983   4.538
 2117W        W73700   1.601  43.018  12.059
 2118W        W73701  36.269  21.736  11.651
 2119W        W73702  25.315  35.035   3.687
 2120W        W73703  14.382   6.183  13.848
 2121W        W73704  17.173  35.659  10.552
 2122W        W73705  38.442   8.178   2.641
 2123W        W73706  39.929   5.291   5.058
 2124W        W73707   7.103  16.023  14.491
 2125W        W73708  14.031  30.960   3.877
 2126W        W73709  26.244  14.195  12.310
 2127W        W73710  39.351   1.749   1.431
 2128W        W73711  14.590  25.538  11.089
 2129W        W73712   8.705  18.661   3.261
 2130W        W73713  37.544  22.542  12.216
 2131W        W73714  37.992  25.555   3.569
 2132W        W73715  21.512   4.783   2.349
 2133W        W73716  16.102  21.032   0.893
 2134W        W73717  43.026   2.792   4.244
 2135W        W73718  14.341  11.847  11.129
 2136W        W73719  34.040  12.712   1.187
 2137W        W73720  15.222  14.480  11.213
 2138W        W73721   0.779  23.045  14.810
 2139W        W73722  13.741  32.013  12.363
 2140W        W73723  34.505  27.494   4.651
 2141W        W73724  18.287  40.968  11.589
 2142W        W73725  13.849  38.825  14.711
 2143W        W73726  22.779  27.418   0.751
 2144W        W73727  19.528  28.932  13.447
 2145W        W73728  21.072  42.739  12.968
 2146W        W73729   1.909   2.495   4.504
 2147W        W73730  44.508  18.830   4.745
 2148W        W73731  30.654  42.963   3.544
 2149W        W73732  43.760  10.748  11.629
 2150W        W73733  36.582   8.184  13.937
 2151W        W73734  32.366  29.274   4.943
 2152W        W73735  41.985  18.672   0.228
 2153W        W73736  23.705  19.592  10.968
 2154W        W73737  12.912   7.830  13.464
 2155W        W73738   9.988  38.932  10.647
 2156W        W73739  25.622   6.199   2.896
 2157W        W73740  19.113  34.608   4.189
 2158W        W73741  20.621  13.055  11.150
 2159W        W73742  16.137   9.209   2.297
 2160W        W73743  35.502   0.845   3.638
 2161W        W73744   1.490  33.052  12.985
 2162W        W73745  27.482  42.030   0.291
 2163W        W73746  43.872   2.558   3.743
 2164W        W73747  30.232  44.240   4.035
 2165W        W73748  13.384  39.248  13.361
 2166W        W73749  26.137  27.065  11.371
 2167W        W73750  29.436  43.818  13.433
 2168W        W73751   2.239  44.931   4.085
 2169W        W73752  44.801   0.997   2.863
 2170W        W73753  35.066  44.881   0.927
 2171W        W73754  28.529  19.144   2.347
 2172W        W73755  26.250  28.919  13.766
 2173W        W73756   4.439  26.581   4.573
 2174W        W73757  29.218   6.104  12.575
 2175W        W73758   3.861  37.648   4.131
 2176W        W73759  13.804   0.972  11.259
 2177W        W73760  43.862  29.860  13.047
 2178W        W73761  25.604   7.653  12.103
 2179W        W73762  23.466  41.520   2.228
 2180W        W73763  14.857  24.010   1.238
 2181W        W73764  15.738  22.252   4.086
 2182W        W73765   9.958   8.584   2.249
 2183W        W73766  39.335   7.489   4.626
 2184W        W73767  31.586  16.588   2.903
 2185W        W73768  36.025  31.038   3.720
 2186W        W73769  33.395  27.030  12.479
 2187W        W73770   2.616  29.697   3.781
 2188W        W73771  23.528  43.875   3.596
 2189W        W73772  21.268   8.180   4.102
 2190W        W73773   9.357   1.918  14.262
 2191W        W73774  30.193  42.011  13.615
 2192W        W73775  35.852   0.183   1.604
 2193W        W73776  36.130  42.987  11.165
 2194W        W73777  39.936  41.977  14.547
 2195W        W73778  36.510   7.888  14.377
 2196W        W73779  40.739   3.822   4.032
 2197W        W73780   1.440   5.469  13.929
 2198W        W73781  22.202  33.419  13.788
 2199W        W73782  23.335  17.765   9.614
 2200W        W73783  16.285   5.289   3.286
 2201W        W73784  35.379   0.812   4.649
 2202W        W73785  14.557  25.962  14.870
 2203W        W73786  29.977  35.678  14.066
 2204W        W73787  20.312  33.216  14.154
 2205W        W73788   0.242  31.601  10.842
 2206W        W73789   3.869  42.097  11.150
 2207W        W73790  42.844   1.479  11.205
 2208W        W73791  17.050  16.639   1.477
 2209W        W73792  31.953  36.270  12.870
 2210W        W73793  22.911  13.867   0.749
 2211W        W73794   0.902  28.342   0.226
 2212W        W73795  10.131   8.069  14.277
 2213W        W73796  30.109   2.473  12.052
 2214W        W73797  13.973  32.914  10.655
 2215W        W73798  22.599  31.373  12.879
 2216W        W73799   0.443  34.967   4.654
 2217W        W73800  11.847  36.564   0.393
 2218W        W73801  21.008  35.002   3.335
 2219W        W73802  31.343  30.726  12.596
 2220W        W73803   2.525   9.763   3.198
 2221W        W73804  30.320   0.097  14.041
 2222W        W73805   6.324   2.719   0.361
 2223W        W73806  17.196   7.339   3.074
 2224W        W73807   4.827  37.017   1.847
 2225W        W73808  39.763  11.661   4.809
 2226W        W73809   1.447  27.594   4.646
 2227W        W73810   1.130  22.902  11.036
 2228W        W73811   3.547  14.830   3.122
 2229W        W73812  16.721   1.714  12.784
 2230W        W73813   2.363  22.070   3.237
 2231W        W73814  10.450  13.344  11.614
 2232W        W73815  20.227  35.362   1.811
 2233W        W73816  15.131  20.786   0.262
 2234W        W73817  21.225  18.240   0.707
 2235W        W73818  42.389  20.161   3.832
 2236W        W73819   5.232   4.779   2.306
 2237W        W73820  16.819  35.838   0.610
 2238W        W73821   9.218  18.530   0.774
 2239W        W73822  28.585   0.494  10.881
 2240W        W73823   3.662  32.402  11.554
 2241W        W73824  27.197  13.157   1.287
 2242W        W73825  29.630  26.371   0.541
 2243W        W73826  19.601   1.898  14.260
 2244W        W73827   2.744  34.160  12.515
 2245W        W73828  18.414  22.300   9.747
 2246W        W73829   6.499  37.957   0.798
 2247W        W73830  37.836  24.854  11.344
 2248W        W73831  30.639  22.108   2.801
 2249W        W73832  44.271  10.321  10.631
 2250W        W73833  13.081  28.251  13.511
 2251W        W73834   8.226  37.990   1.993
 2252W        W73835  13.644  34.956   2.397
 2253W        W73836  38.254  17.008   2.772
 2254W        W73837  12.421  43.061  11.302
 2255W        W73838  14.101   9.952   0.266
 2256W        W73839  38.562  38.847   4.998
 2257W        W73840  19.748   2.222   0.601
 2258W        W73841  41.975  23.332   1.844
 2259W        W73842  17.278  11.412   2.808
 2260W        W73843  26.259  10.340   3.606
 2261W        W73844  28.169   7.308   0.735
 2262W        W73845  17.246  29.129  12.147
 2263W        W73846  19.364  32.947   0.381
 2264W        W73847  36.297  27.680   0.458
 2265W        W73848   0.949   6.361  11.808
 2266W        W73849   6.669  29.146  14.972
 2267W        W73850   3.289  37.147   3.120
 2268W        W73851  42.795   8.505   4.915
 2269W        W73852  32.868  15.664  11.172
 2270W        W73853  11.274  28.136   3.636
 2271W        W73854  17.416   6.343  14.503
 2272W        W73855  14.840   3.460   4.071
 2273W        W73856  17.589  44.844   4.771
 2274W        W73857  26.744   5.420   2.436
 2275W        W73858   9.682  11.713  13.950
 2276W        W73859  34.486  28.418  14.450
 2277W        W73860  42.968   0.397   3.923
 2278W        W73861   2.669  41.909  13.326
 2279W        W73862  21.538  31.958  14.442
 2280W        W73863   5.770  19.565  13.846
 2281W        W73864  22.666  38.591  12.037
 2282W        W73865   2.321  28.350   2.221
 2283W        W73866  23.057  20.228  10.568
 2284W        W73867   8.628  10.151   2.750
 2285W        W73868  12.383   6.091  13.015
 2286W        W73869  31.551  27.098  12.098
 2287W        W73870  19.671   9.157  14.901
 2288W        W73871  39.413  16.838  13.526
 2289W        W73872  39.260  11.859  14.919
 2290W        W73873  39.314  23.577   0.278
 2291W        W73874   5.214   5.361   4.146
 2292W        W73875  42.874  22.997  14.416
 2293W        W73876  43.528  13.716  10.700
 2294W        W73877   4.937  26.813   4.549
 2295W        W73878  15.216  12.117  13.936
 2296W        W73879  32.512   8.689  10.698
 2297W        W73880  21.965  42.393  11.554
 2298W        W73881  33.403  40.869   0.481
 2299W        W73882  20.077  13.831   1.197
 2300W        W73883  19.868  28.118   4.649
 2301W        W73884   7.783  42.285   1.840
 2302W        W73885  25.491  10.743  12.521
 2303W        W73886  34.305  30.848   2.207
 2304W        W73887   1.272  23.525   2.764
 2305W        W73888  20.250  16.048  14.442
 2306W        W73889   9.662  28.498  14.406
 2307W        W73890  40.581  10.543   2.221
 2308W        W73891   1.485  33.461   0.695
 2309W        W73892  23.770  22.562   1.369
 2310W        W73893  24.514  22.638  10.741
 2311W        W73894  35.306  44.049   2.534
 2312W        W73895  12.354   7.715  13.441
 2313W        W73896  22.468   1.872   3.063
 2314W        W73897  34.523  42.703  10.410
 2315W        W73898  33.416  25.281  11.213
 2316W        W73899   4.273   0.082  10.760
 2317W        W73900  37.567   4.849   2.192
 2318W        W73901   5.327  43.528  12.039
 2319W        W73902  18.302  38.629  11.924
 2320W        W73903  11.675   5.026   1.808
 2321W        W73904   1.447  43.889  10.571
 2322W        W73905  18.473  11.968  13.455
 2323W        W73906   8.593  42.947  13.994
 2324W        W73907  21.520  29.981   2.602
 2325W        W73908  38.933  39.513   3.978
 2326W        W73909   2.929  42.017  14.761
 2327W        W73910   4.991  19.658  11.381
 2328W        W73911  22.782  15.273   0.301
 2329W        W73912  16.405  35.406  13.400
 2330W        W73913  18.182  35.567   2.423
 2331W        W73914  23.031  30.468  11.034
 2332W        W73915   8.595   7.833  12.367
 2333W        W73916  19.288  19.191  13.440
 2334W        W73917  24.541  16.705  10.729
 2335W        W73918  35.215  38.030  12.299
 2336W        W73919   9.662  37.515  14.319
 2337W        W73920  32.454  10.310   3.362
 2338W        W73921  44.330  41.021   3.514
 2339W        W73922  39.895   9.276  10.568
 2340W        W73923  17.251  34.503   0.555
 2341W        W73924   3.179  36.423  14.926
 2342W        W73925  14.119  30.537  12.093
 2343W        W73926  34.902  44.063   0.525
 2344W        W73927   8.354  20.268   4.273
 2345W        W73928  38.022   0.202   3.226
 2346W        W73929   3.898   9.269  10.687
 2347W        W73930   4.358   1.170   4.757
 2348W        W73931   3.751  32.931  14.423
 2349W        W73932  15.960   5.984  10.254
 2350W        W73933   0.935   6.351  14.703
 2351W        W73934  10.296  23.655   0.322
 2352W        W73935   3.081   2.282   2.316
 2353W        W73936  27.044  28.717   3.176
 2354W        W73937   8.396   5.102   4.547
 2355W        W73938  34.663  32.686  11.184
 2356W        W73939   8.819   7.920  13.592
 2357W        W73940  28.091  18.266   4.068
 2358W        W73941  12.807  32.949  13.937
 2359W        W73942  44.320   1.372  11.616
 2360W        W73943   3.804   0.455  12.907
 2361W        W73944  29.420  37.375  10.676
 2362W        W73945  20.683  34.813  11.607
 2363W        W73946  33.946  20.715   4.566
 2364W        W73947  30.098   3.207   3.634
 2365W        W73948  39.577  44.714   1.854
 2366W        W73949  34.490  21.221  12.322
 2367W        W73950  22.347  17.831  12.957
 2368W        W73951  32.445  29.151   4.421
 2369W        W73952  39.442  11.706   3.167
 2370W        W73953  23.244  32.932  13.513
 2371W        W73954  27.990  36.127   3.155
 2372W        W73955  21.705   2.592   4.296
 2373W        W73956  20.275  35.090   1.249
 2374W        W73957  33.086  12.211  11.099
 2375W        W73958  23.120  34.661   0.957
 2376W        W73959  23.447  13.919   1.554
 2377W        W73960  13.028  33.618  12.337
 2378W        W73961  42.902  17.583   3.360
 2379W        W73962  30.477  38.254   1.495
 2380W        W73963  32.667   5.666   0.877
 2381W        W73964  41.013  29.709  13.799
 2382W        W73965  11.213  11.252  12.138
 2383W        W73966   0.355  18.878  13.649
 2384W        W73967  34.242   2.856  12.055
 2385W        W73968  44.733  15.289  11.129
 2386W        W73969  23.119  44.316   2.737
 2387W        W73970  28.779  11.371   5.151
 2388W        W73971   3.195  32.567   4.104
 2389W        W73972   7.624  19.257   3.375
 2390W        W73973  40.949  19.872  13.106
 2391W        W73974  43.269  32.857  14.246
 2392W        W73975   4.512  33.077   3.596
 2393W        W73976   2.318  31.188  10.409
 2394W        W73977  14.257  42.057  12.040
 2395W        W73978  40.988  35.017   2.354
 2396W        W73979   7.577  14.579  14.987
 2397W        W73980  14.778  25.837   3.157
 2398W        W73981  26.864  12.429  11.087
 2399W        W73982  39.120   4.069   4.059
 2400W        W73983   7.797  31.172  11.093
 2401W        W73984   3.420  38.346  11.079
 2402W        W73985  15.648  17.745  14.666
 2403W        W73986  18.612   0.960   0.971
 2404W        W73987   1.993  37.984  11.338
 2405W        W73988   8.320  44.917   3.630
 2406W        W73989  15.129  18.735  10.670
 2407W        W73990  43.144  13.560  12.978
 2408W        W73991   0.833  19.113   0.766
 2409W        W73992  25.812  11.455   2.847
 2410W        W73993  41.955  42.736  11.593
 2411W        W73994   7.406  30.899   0.938
 2412W        W73995  10.347  40.808   2.675
 2413W        W73996  44.321  19.965  14.573
 2414W        W73997  15.980   3.321  14.984
 2415W        W73998  20.307  35.811   4.219
 2416W        W73999  36.328  25.705  14.448
 2417W        W74000  36.638  10.733  14.905
 2418W        W74001   6.367  19.726   3.839
 2419W        W74002  10.662  30.895   2.083
 2420W        W74003  28.017  29.063   3.155
 2421W        W74004  42.063  14.176  13.479
 2422W        W74005  31.474  22.546   4.198
 2423W        W74006  29.363   1.844   0.280
 2424W        W74007  28.641  14.828   2.328
 2425W        W74008  12.743  38.345   2.377
 2426W        W74009  22.617   0.463   4.900
 2427W        W74010   0.535  28.002  13.947
 2428W        W74011  44.052  10.286  12.926
 2429W        W74012  21.882   3.167  13.451
 2430W        W74013  12.043   7.790   3.242
 2431W        W74014  37.318  12.324  13.967
 2432W        W74015  35.318   5.106   0.231
 2433W        W74016  39.539   8.227   5.388
 2434W        W74017   0.264   1.408  10.674
 2435W        W74018  40.316   6.719  13.778
 2436W        W74019  32.434  22.596  11.766
 2437W        W74020   7.279   6.863  13.159
 2438W        W74021  32.492  21.629  14.282
 2439W        W74022  21.639  22.941   1.831
 2440W        W74023  34.375  10.846   2.822
 2441W        W74024  25.209  29.610   1.358
 2442W        W74025  25.664  36.586   1.388
 2443W        W74026   2.423   5.563   1.310
 2444W        W74027  27.663  17.755   3.855
 2445W        W74028   8.687  30.296   2.148
 2446W        W74029  41.512  10.146   4.400
 2447W        W74030   3.348   6.183   1.494
 2448W        W74031  13.499  37.104   1.583
 2449W        W74032  27.023  25.967  12.602
 2450W        W74033   7.710  31.893  12.517
 2451W        W74034   4.479  24.524  11.923
 2452W        W74035  11.844  44.373   4.131
 2453W        W74036   1.461  32.492   0.978
 2454W        W74037  28.755  39.385  12.406
 2455W        W74038  17.773  32.317   3.989
 2456W        W74039  29.698  34.015  10.720
 2457W        W74040  32.839  17.215  14.820
 2458W        W74041  16.717   8.123  13.019
 2459W        W74042  41.485  42.836   3.265
 2460W        W74043  41.890  17.642   4.601
 2461W        W74044  22.521  23.803  12.579
 2462W        W74045  21.301  39.364   1.840
 2463W        W74046  40.440  17.269   1.396
 2464W        W74047  18.216   3.809   4.550
 2465W        W74048  17.885  26.860   2.620
 2466W        W74049  11.150  37.685   0.886
 2467W        W74050  16.353  30.487   2.831
 2468W        W74051   8.691  31.475  14.343
 2469W        W74052  41.859  25.452  14.564
 2470W        W74053  14.553   0.335   1.429
 2471W        W74054   9.765  12.803   0.742
 2472W        W74055  17.671  37.254  14.900
 2473W        W74056  32.387  23.409  12.014
 2474W        W74057   1.021  33.145   3.422
 2475W        W74058  42.386  21.911  11.592
 2476W        W74059  15.947   9.306   1.817
 2477W        W74060  14.132  43.322   0.400
 2478W        W74061  16.765  22.533  14.858
 2479W        W74062  32.931  37.870  12.362
 2480W        W74063  37.527  37.943  11.622
 2481W        W74064   6.934  33.856  10.591
 2482W        W74065  38.279  42.785  14.098
 2483W        W74066  12.790  37.752   2.463
 2484W        W74067  17.009   5.294   3.846
 2485W        W74068   5.744   8.623  14.848
 2486W        W74069  44.424  40.265  12.558
 2487W        W74070  23.689  24.595  12.978
 2488W        W74071  28.428  10.646   2.481
 2489W        W74072  14.899  11.864  11.994
 2490W        W74073   0.236   7.753   4.088
 2491W        W74074  22.118  10.913   3.677
 2492W        W74075   5.416  24.919   1.977
 2493W        W74076  23.624  13.808   3.615
 2494W        W74077  30.797   0.541   4.586
 2495W        W74078  25.291  43.019   3.157
 2496W        W74079   5.360  17.816  13.378
 2497W        W74080  21.284  37.734  11.491
 2498W        W74081  36.249  14.760  12.770
 2499W        W74082  33.970   7.882   2.909
 2500W        W74083  38.470  44.137   2.625
 2501W        W74084  36.581  36.108   2.845
 2502W        W74085  44.612  31.919  11.181
 2503W        W74086  21.491   9.727  11.637
 2504W        W74087   1.777  33.461  10.498
 2505W        W74088  34.031  28.144  14.388
 2506W        W74089  42.242  24.700  14.905
 2507W        W74090  30.978  20.645  12.809
 2508W        W74091  11.601  29.458  14.362
 2509W        W74092  33.201  36.156   3.776
 2510W        W74093   4.058   9.874  12.425
 2511W        W74094  10.639  15.332   3.690
 2512W        W74095  24.760  28.620   0.404
 2513W        W74096  41.419  41.563   4.335
 2514W        W74097   9.623  25.065  10.926
 2515W        W74098  30.151  13.121  14.331
 2516W        W74099  12.223  23.750  11.527
 2517W        W74100  40.870  40.719  11.814
 2518W        W74101  12.134  41.307  10.590
 2519W        W74102  38.473  14.542   0.951
 2520W        W74103  41.556  15.736   3.194
 2521W        W74104  11.549   5.230  13.252
 2522W        W74105  12.068  24.695  11.470
 2523W        W74106   4.715  16.215   2.218
 2524W        W74107  36.561  43.656  11.161
 2525W        W74108  16.732  24.173  11.053
 2526W        W74109  14.809  36.464   0.725
 2527W        W74110  15.256  11.349   4.102
 2528W        W74111  34.213  37.903   1.956
 2529W        W74112  20.068  16.583   3.021
 2530W        W74113   5.295  25.177   4.097
 2531W        W74114  43.498   6.003  14.930
 2532W        W74115   6.370  20.849   2.381
 2533W        W74116  37.699  38.926  10.730
 2534W        W74117  32.080  41.727  12.317
 2535W        W74118  24.408  34.452   0.288
 2536W        W74119   3.344  25.948   0.463
 2537W        W74120  30.911  36.105  11.130
 2538W        W74121  23.214   2.775  13.985
 2539W        W74122  19.550  17.532  14.847
 2540W        W74123  24.477  11.056  12.160
 2541W        W74124  44.811  31.191  13.088
 2542W        W74125  30.990   4.274  10.348
 2543W        W74126   7.835   7.336   3.336
 2544W        W74127  24.499  44.377   4.242
 2545W        W74128  18.759   8.120  11.325
 2546W        W74129  28.441  27.857  12.935
 2547W        W74130  38.477  14.064   2.789
 2548W        W74131   8.810  26.989  11.883
 2549W        W74132  19.027  21.581  14.878
 2550W        W74133  37.609  35.652   3.709
 2551W        W74134  17.795  35.194   3.217
 2552W        W74135  34.408  42.950   4.619
 2553W        W74136   5.807   5.966  12.894
 2554W        W74137  27.221   3.503  13.582
 2555W        W74138  36.332   0.694  11.934
 2556W        W74139  40.966   8.736   2.480
 2557W        W74140   3.716  17.842   4.581
 2558W        W74141  27.647  43.528   1.151
 2559W        W74142   7.719   6.678   3.772
 2560W        W74143  43.477   5.941   0.854
 2561W        W74144   2.573  23.494   4.597
 2562W        W74145  30.885  22.782  12.552
 2563W        W74146   1.892  29.872   0.411
 2564W        W74147  40.785  26.661  13.752
 2565W        W74148  26.461  37.561  13.010
 2566W        W74149  27.716  23.231   1.806
 2567W        W74150  17.277  40.756  13.782
 2568W        W74151   1.961   0.897   4.449
 2569W        W74152  30.788  24.520   2.761
 2570W        W74153  36.858  17.998   0.029
 2571W        W74154  23.007  28.106  11.677
 2572W        W74155   2.950  31.182  13.826
 2573W        W74156  31.394  27.929  11.526
 2574W        W74157   4.302  41.256  11.138
 2575W        W74158  27.151  30.418  11.958
 2576W        W74159   3.818  30.671   0.637
 2577W        W74160  36.854  43.973   2.934
 2578W        W74161  13.225  20.473   1.375
 2579W        W74162   6.209  30.989   1.915
 2580W        W74163  28.947   7.332   3.446
 2581W        W74164  15.725   8.127   1.811
 2582W        W74165  18.732  40.944   3.392
 2583W        W74166  14.863  41.856  11.156
 2584W        W74167  24.152  25.676   4.620
 2585W        W74168   0.333  14.243   0.370
 2586W        W74169  19.380  40.966  12.570
 2587W        W74170   4.838  26.643   1.371
 2588W        W74171   7.365  12.770   3.699
 2589W        W74172  19.699  24.974  12.445
 2590W        W74173  35.302  40.051   3.659
 2591W        W74174  29.916   4.790   4.969
 2592W        W74175  44.259   6.707  14.790
 2593W        W74176  18.032  20.773   4.606
 2594W        W74177  21.523  28.923  12.821
 2595W        W74178  25.744  43.861   2.466
 2596W        W74179  12.686  33.561   2.088
 2597W        W74180   7.988  33.965  12.392
 2598W        W74181   0.519  18.055  11.678
 2599W        W74182   2.319  31.114   3.987
 2600W        W74183   3.272  35.305  13.603
 2601W        W74184  10.373  39.442   1.264
 2602W        W74185  10.291  13.584   2.220
 2603W        W74186  10.196  36.494   3.206
 2604W        W74187  31.254   4.185   3.664
 2605W        W74188  26.046  43.063   4.108
 2606W        W74189   4.269  28.506  12.826
 2607W        W74190  25.586  30.402   0.400
 2608W        W74191  30.347  37.936  11.288
 2609W        W74192  26.885  44.576  11.020
 2610W        W74193  25.178  16.662   0.294
 2611W        W74194  28.463  24.269  13.484
 2612W        W74195   7.739  16.742   1.174
 2613W        W74196  34.006  26.675  14.493
 2614W        W74197  23.272  38.113   2.231
 2615W        W74198  40.821  17.941   1.329
 2616W        W74199  14.664  33.395   3.206
 2617W        W74200   1.936  33.456  12.285
 2618W        W74201  19.593  38.827  11.988
 2619W        W74202   6.245  22.995  13.795
 2620W        W74203  33.925  26.123   2.882
 2621W        W74204  14.780  26.327   3.373
 2622W        W74205   6.211   4.902  11.272
 2623W        W74206  41.748  33.973  12.922
 2624W        W74207  17.772  10.026  10.705
 2625W        W74208   6.265  32.034   5.046
 2626W        W74209   5.864  35.142   1.647
 2627W        W74210  31.755  20.796   3.242
 2628W        W74211  42.908  18.509   2.633
 2629W        W74212  35.132   1.923  13.055
 2630W        W74213   9.757  16.792  14.660
 2631W        W74214   2.585  40.684   1.250
 2632W        W74215   4.789   6.868  14.323
 2633W        W74216   1.537  38.593  10.162
 2634W        W74217  38.364  33.562   0.394
 2635W        W74218  22.310  33.474   3.831
 2636W        W74219   3.170   1.746   3.138
 2637W        W74220  29.663   8.813   3.205
 2638W        W74221  25.033  13.226  14.255
 2639W        W74222   2.972  20.274   3.387
 2640W        W74223  18.193  41.058  14.312
 2641W        W74224  13.847   6.251  10.832
 2642W        W74225   7.403  17.773   2.629
 2643W        W74226  40.751   7.742  13.713
 2644W        W74227  19.224   6.683   4.857
 2645W        W74228  26.636  10.970  10.607
 2646W        W74229   5.967  20.055  11.205
 2647W        W74230  25.956  31.083   3.310
 2648W        W74231  29.474  41.220   3.791
 2649W        W74232   9.338   8.174   3.148
 2650W        W74233   3.389  11.703  11.530
 2651W        W74234  13.662   7.644   1.816
 2652W        W74235  27.401  10.888  12.498
 2653W        W74236  18.841  42.102  14.885
 2654W        W74237  40.946  11.349   2.925
 2655W        W74238   5.911  15.098  11.966
 2656W        W74239   1.761  25.544  12.636
 2657W        W74240   3.801  36.082   4.796
 2658W        W74241  10.677  23.699  11.563
 2659W        W74242  29.900  23.532   4.101
 2660W        W74243   6.076  39.543  12.395
 2661W        W74244  19.033   1.134   1.253
 2662W        W74245  17.257  20.965  12.053
 2663W        W74246  18.554  43.363   3.245
 2664W        W74247   6.521   8.897  12.732
 2665W        W74248   6.302  20.636   1.797
 2666W        W74249  41.718  17.788   2.229
 2667W        W74250  34.983  14.413  14.389
 2668W        W74251  19.503  42.916   1.352
 2669W        W74252  27.263  13.842   3.130
 2670W        W74253  37.950  33.526   2.150
 2671W        W74254  34.334  35.666   1.198
 2672W        W74255  19.038   0.785   2.777
 2673W        W74256  16.800   1.377   2.797
 2674W        W74257   0.034   4.835   0.925
 2675W        W74258  10.820  10.806   2.763
 2676W        W74259  20.615  31.517   1.899
 2677W        W74260  34.031  18.135  10.586
 2678W        W74261  44.696   6.706  11.518
 2679W        W74262  10.155  40.557   3.765
 2680W        W74263  44.781  19.918  11.451
 2681W        W74264  19.603  27.526  13.075
 2682W        W74265  19.950  17.036   4.309
 2683W        W74266   3.992   6.871  11.232
 2684W        W74267  11.152  40.562  14.412
 2685W        W74268  14.359  21.601   2.834
 2686W        W74269  15.245  23.263   3.631
 2687W        W74270   1.316  37.035   5.082
 2688W        W74271  15.875   9.218   4.067
 2689W        W74272   6.741  36.912  14.775
 2690W        W74273  34.444  23.735   0.878
 2691W        W74274  25.453  24.581  13.366
 2692W        W74275   4.323  30.281  12.963
 2693W        W74276  32.705  21.707  13.774
 2694W        W74277  39.639  29.114  11.541
 2695W        W74278  17.844  27.670  12.832
 2696W        W74279  41.932  14.680  14.810
 2697W        W74280   4.308  13.981   0.394
 2698W        W74281  16.924  31.104   2.896
 2699W        W74282  27.006  39.029  12.920
 2700W        W74283  28.200   6.661   3.182
 2701W        W74284  32.704  10.743   0.381
 2702W        W74285  24.009  39.731  13.754
 2703W        W74286  26.755   4.443  11.165
 2704W        W74287  13.136  17.117   0.289
 2705W        W74288  32.534  28.995  14.985
 2706W        W74289  19.839   2.059  14.699
 2707W        W74290  37.820  15.336  14.789
 2708W        W74291  33.098  20.122  12.002
 2709W        W74292  29.156   0.917  13.995
 2710W        W74293   5.203  27.652   0.921
 2711W        W74294  37.542   5.722  12.877
 2712W        W74295  35.087   4.202   3.243
 2713W        W74296   1.973  28.962  11.468
 2714W        W74297   2.289  10.711   3.166
 2715W        W74298  19.574   9.550  12.965
 2716W        W74299  43.261  15.050   0.787
 2717W        W74300  11.089  44.051  14.407
 2718W        W74301   6.359  39.753   0.882
 2719W        W74302  19.786   2.196   3.376
 2720W        W74303   8.447  44.176  12.462
 2721W        W74304  14.352  24.694  12.403
 2722W        W74305   9.750   1.503  14.868
 2723W        W74306   5.157  33.956   4.340
 2724W        W74307  28.763   4.716  14.651
 2725W        W74308  31.526  34.664   1.252
 2726W        W74309  28.420  41.919   0.139
 2727W        W74310  15.796  17.272  11.618
 2728W        W74311  24.512  11.763   0.368
 2729W        W74312  11.618  37.983   0.003
 2730W        W74313  17.718  33.875   2.159
 2731W        W74314  42.760   5.720  14.930
 2732W        W74315  41.705  16.112  11.065
 2733W        W74316  35.429   7.784   4.663
 2734W        W74317   9.973  25.945   2.135
 2735W        W74318  41.271   5.603   0.767
 2736W        W74319  42.988  16.250  12.936
 2737W        W74320  25.596   5.174  10.914
 2738W        W74321  42.101  35.861   1.260
 2739W        W74322  44.455  40.336   2.168
 2740W        W74323  25.290  25.119   4.296
 2741W        W74324  15.838  17.268  12.854
 2742W        W74325   8.295   6.807  10.906
 2743W        W74326   8.352  40.220  11.488
 2744W        W74327   5.313  23.763   1.010
 2745W        W74328  18.535  15.376  14.865
 2746W        W74329  26.206  36.051   2.357
 2747W        W74330  34.934   5.891   0.291
 2748W        W74331  41.656   1.822  12.092
 2749W        W74332  42.977  12.100  12.771
 2750W        W74333   9.225  21.581   4.191
 2751W        W74334   1.463  36.072  12.921
 2752W        W74335   9.777  19.909   3.167
 2753W        W74336   7.740   6.665  12.424
 2754W        W74337  13.100  30.541  12.109
 2755W        W74338   1.991  12.279   1.851
 2756W        W74339   2.951  14.357  11.477
 2757W        W74340  26.984  22.770   0.785
 2758W        W74341  44.446  33.386  12.472
 2759W        W74342   0.084   2.519   4.072
 2760W        W74343  21.386  18.051   1.836
 2761W        W74344  21.852  36.637   1.885
 2762W        W74345   8.867  38.286  11.612
 2763W        W74346  40.663  23.751   2.724
 2764W        W74347  35.126  12.831  13.418
 2765W        W74348   1.705  20.242   4.630
 2766W        W74349  19.064  38.882  13.926
 2767W        W74350  18.708  29.365  14.430
 2768W        W74351   3.850  34.124  13.089
 2769W        W74352  22.041   7.624  11.558
 2770W        W74353  28.328   6.946   2.739
 2771W        W74354  23.234  41.930  13.932
 2772W        W74355   1.869  15.538   4.533
 2773W        W74356  39.313  21.704   2.430
 2774W        W74357  11.195  39.391  12.190
 2775W        W74358  22.476  44.753   1.738
 2776W        W74359  18.326  35.441  13.426
 2777W        W74360  23.959  40.565  12.553
 2778W        W74361   1.137  21.231   0.656
 2779W        W74362  28.967  10.288  12.375
 2780W        W74363  28.493  39.264  12.845
 2781W        W74364  36.649  29.700  13.950
 2782W        W74365  21.312  13.536  13.025
 2783W        W74366  22.258  38.354  11.831
 2784W        W74367   6.759  37.541   0.942
 2785W        W74368  43.104   4.838   2.733
 2786W        W74369  29.681   9.523  14.113
 2787W        W74370  24.579  17.214   4.246
 2788W        W74371  40.573  28.660  12.876
 2789W        W74372   1.439  43.698   4.155
 2790W        W74373   8.617  35.138  13.261
 2791W        W74374  22.761  31.236   0.406
 2792W        W74375   3.017  38.172   2.661
 2793W        W74376  18.971  32.448   2.263
 2794W        W74377  18.322  43.331   3.728
 2795W        W74378  30.970   4.854  13.674
 2796W        W74379   6.458  16.243   0.872
 2797W        W74380   5.403  27.976   1.758
 2798W        W74381  19.796   9.616   2.257
 2799W        W74382  21.502  29.517   2.901
 2800W        W74383  10.156  10.591   2.192
 2801W        W74384   2.316   8.298   2.376
 2802W        W74385  30.097   7.642   1.341
 2803W        W74386  36.742  40.454   0.497
 2804W        W74387  43.506  22.614   0.085
 2805W        W74388   5.808   9.572  13.845
 2806W        W74389  16.874   0.412  12.434
 2807W        W74390  12.447  14.087   2.651
 2808W        W74391  36.296  20.775  11.665
 2809W        W74392  30.574   5.951   1.854
 2810W        W74393  40.800  33.664   0.861
 2811W        W74394  21.114   8.266   3.585
 2812W        W74395  13.793  34.416   4.288
 2813W        W74396  16.052  30.801   3.142
 2814W        W74397  19.151   9.756  13.993
 2815W        W74398  14.185  13.257   1.334
 2816W        W74399  43.981  10.740   1.678
 2817W        W74400  27.273   7.721  14.314
 2818W        W74401  15.288  24.610  12.471
 2819W        W74402   1.756  22.096  14.545
 2820W        W74403  44.714  18.382   1.867
 2821W        W74404  27.022  32.581  12.064
 2822W        W74405   8.310  12.300  11.933
 2823W        W74406  24.901  11.709   4.549
 2824W        W74407  28.924  14.105  11.274
 2825W        W74408  43.878   2.678  11.654
 2826W        W74409  39.918  21.153  13.387
 2827W        W74410  34.596   2.172  13.087
 2828W        W74411  16.995  14.608   2.129
 2829W        W74412  35.295  18.298  13.383
 2830W        W74413  36.311  11.808   4.353
 2831W        W74414  42.720  44.101   2.351
 2832W        W74415  34.467  19.445  13.636
 2833W        W74416  21.700  11.843  13.521
 2834W        W74417  14.217  19.153   2.676
 2835W        W74418  25.082  16.584  12.925
 2836W        W74419  41.375  44.341   1.448
 2837W        W74420  30.009   8.930  11.557
 2838W        W74421  19.826  14.335   2.006
 2839W        W74422   9.411  11.714   1.757
 2840W        W74423  43.812  14.313   0.469
 2841W        W74424  38.544  14.804  11.538
 2842W        W74425  15.779   7.924  12.194
 2843W        W74426  20.678  37.084  10.431
 2844W        W74427  36.396  22.694   4.721
 2845W        W74428  14.556  13.559   4.100
 2846W        W74429  29.461  35.210   2.227
 2847W        W74430   9.356  40.121   3.227
 2848W        W74431  12.982   3.645   2.273
 2849W        W74432  30.849  31.948  14.178
 2850W        W74433  40.428  16.127   0.943
 2851W        W74434  30.344  25.559   4.673
 2852W        W74435  31.620  15.778   3.335
 2853W        W74436  44.551  21.977  14.323
 2854W        W74437  34.245  10.720  13.844
 2855W        W74438  14.297  19.635  12.302
 2856W        W74439   0.235  32.931   0.549
 2857W        W74440   2.467   7.800   4.503
 2858W        W74441  31.145  42.392   3.809
 2859W        W74442  28.023   5.588  13.039
 2860W        W74443   0.209  20.742   3.753
 2861W        W74444  32.078  19.050   4.594
 2862W        W74445  24.214   0.999   0.503
 2863W        W74446  17.664  44.319   4.014
 2864W        W74447   0.491  12.253   2.363
 2865W        W74448  26.232  38.285   4.942
 2866W        W74449  15.687  28.628   4.541
 2867W        W74450   2.484  31.438   2.446
 2868W        W74451   2.774  34.431   3.344
 2869W        W74452  26.317  30.610   2.763
 2870W        W74453   6.294   4.903  10.349
 2871W        W74454  23.283  40.603   2.659
 2872W        W74455  35.351  19.061  10.801
 2873W        W74456  36.972   9.862   3.731
 2874W        W74457  34.617  33.521  11.982
 2875W        W74458  10.782  17.484  10.498
 2876W        W74459  17.924  22.362   4.389
 2877W        W74460   0.425   2.214   0.934
 2878W        W74461  22.701  39.769  10.718
 2879W        W74462   4.779   1.180   4.424
 2880W        W74463   2.347  27.445   4.541
 2881W        W74464  26.110  27.352  12.348
 2882W        W74465  34.024   6.276  12.955
 2883W        W74466  42.728   7.300  13.767
 2884W        W74467  13.382  28.654   0.335
 2885W        W74468  11.705   1.170   0.022
 2886W        W74469  23.090  15.698   4.502
 2887W        W74470   6.140  39.411  11.082
 2888W        W74471  41.834   5.243  11.464
 2889W        W74472  30.910  31.078   4.692
 2890W        W74473  17.399  32.980  11.506
 2891W        W74474  22.901   3.424   2.297
 2892W        W74475  19.299  29.130  11.732
 2893W        W74476   4.989  44.358   4.073
 2894W        W74477  32.889   8.336  14.365
 2895W        W74478   1.375  24.501   4.482
 2896W        W74479   2.927  26.922  12.064
 2897W        W74480  12.609  34.514   3.512
 2898W        W74481   7.969  18.038   0.690
 2899W        W74482  19.605  27.893   5.038
 2900W        W74483  27.922  23.549   3.280
 2901W        W74484  20.818  37.104  13.913
 2902W        W74485  28.002  10.928   2.327
 2903W        W74486  23.049   2.934  12.978
 2904W        W74487  21.090  13.703   2.289
 2905W        W74488  35.656   9.224   2.797
 2906W        W74489  33.539   7.788  13.020
 2907W        W74490  19.616  14.427  10.260
 2908W        W74491  31.496  44.021   1.438
 2909W        W74492  43.589  40.957  14.066
 2910W        W74493  13.372   8.901  12.338
 2911W        W74494  31.921   2.818   4.262
 2912W        W74495  31.183  15.264   0.375
 2913W        W74496  37.461  36.398   2.568
 2914W        W74497  14.723  19.695   2.324
 2915W        W74498  44.165  39.961   1.965
 2916W        W74499  39.548  38.558  12.363
 2917W        W74500  23.179   1.880   1.144
 2918W        W74501  26.053  28.457  12.893
 2919W        W74502  25.198  34.618   2.832
 2920W        W74503  33.382  25.309   4.205
 2921W        W74504  22.460  16.408   4.614
 2922W        W74505  31.480  29.605  13.114
 2923W        W74506  25.467   6.174   0.886
 2924W        W74507  22.096  33.647  12.757
 2925W        W74508  13.363   8.280   1.817
 2926W        W74509  31.002   9.898  10.714
 2927W        W74510   9.005  29.896  11.458
 2928W        W74511  22.188  31.232   9.870
 2929W        W74512   7.833  29.535   3.172
 2930W        W74513  18.840  19.105   4.653
 2931W        W74514  14.561   6.834   3.425
 2932W        W74515  40.906  10.855   4.878
 2933W        W74516  18.818  12.786   3.716
 2934W        W74517  10.285  27.189   3.090
 2935W        W74518  21.390   4.270   2.232
 2936W        W74519  22.570  23.127   3.888
 2937W        W74520   3.367   7.436   1.211
 2938W        W74521   5.816  39.859   3.367
 2939W        W74522  24.723  31.935   4.255
 2940W        W74523  25.126  28.517   4.631
 2941W        W74524  36.269   2.212  13.399
 2942W        W74525  15.964  23.664  12.613
 2943W        W74526  20.255  14.049   1.848
 2944W        W74527  31.742   2.482   1.217
 2945W        W74528  17.235  25.021   2.684
 2946W        W74529  14.867  31.896  14.935
 2947W        W74530   2.498  28.098  12.468
 2948W        W74531   5.468  37.354   4.588
 2949W        W74532  28.624   5.516  12.387
 2950W        W74533  18.240   7.119   2.220
 2951W        W74534  36.781  43.953   3.449
 2952W        W74535  39.597  36.948  14.470
 2953W        W74536   9.792   0.127   1.792
 2954W        W74537  31.611  16.448  12.542
 2955W        W74538  26.434   4.516  10.749
 2956W        W74539   9.169  33.985  13.483
 2957W        W74540   9.084  29.724   1.578
 2958W        W74541  42.489  30.652   0.827
 2959W        W74542  27.520  30.442   4.330
 2960W        W74543  44.498  34.317  13.888
 2961W        W74544  43.939  28.477  13.234
 2962W        W74545  17.266  14.028   2.778
 2963W        W74546   0.383  44.897  11.576
 2964W        W74547  21.403  42.741   2.351
 2965W        W74548  11.355  35.816  12.979
 2966W        W74549  19.491  25.742   4.070
 2967W        W74550  25.163  43.188   3.990
 2968W        W74551   9.522   7.661  14.810
 2969W        W74552  10.036  17.510  11.430
 2970W        W74553   5.096   9.379   3.973
 2971W        W74554  25.660   1.049   0.807
 2972W        W74555  24.762  42.755   1.194
 2973W        W74556  33.745  12.008   2.190
 2974W        W74557  23.243  32.617  13.951
 2975W        W74558  38.125   5.730   4.969
 2976W        W74559  15.889  44.941  13.309
 2977W        W74560  37.750  36.056   4.192
 2978W        W74561  21.676  37.835   2.710
 2979W        W74562   0.951  28.024   1.336
 2980W        W74563  36.975  37.174  12.560
 2981W        W74564  33.475   0.674  10.314
 2982W        W74565   5.280  40.237   0.843
 2983W        W74566  19.206  33.453  13.485
 2984W        W74567  34.997   1.339   3.609
 2985W        W74568  33.932  43.486   0.381
 2986W        W74569   6.889  30.353  12.585
 2987W        W74570  20.646  32.624  12.861
 2988W        W74571  13.881   4.974  13.087
 2989W        W74572   2.860  40.279  11.397
 2990W        W74573  15.412  21.972  11.919
 2991W        W74574  15.135  26.198   0.868
 2992W        W74575  18.774   3.201   1.431
 2993W        W74576  43.516  12.168   1.587
 2994W        W74577  17.962  12.456  14.104
 2995W        W74578  20.558   5.994  11.434
 2996W        W74579  35.188  44.985   2.186
 2997W        W74580   4.254  17.777   4.784
 2998W        W74581  27.968   2.949   1.743
 2999W        W74582  19.663  41.777  10.650
 3000W        W74583   3.213  22.011   0.347
 3001W        W74584  32.087  20.482   1.790
 3002W        W74585   1.029  44.836   0.422
 3003W        W74586   1.503  43.601  14.343
 3004W        W74587  15.233   6.512  14.095
 3005W        W74588   0.243  25.320   3.839
 3006W        W74589  33.500  17.877  10.617
 3007W        W74590  13.858  12.592  13.918
 3008W        W74591  44.877  43.546   0.014
 3009W        W74592  40.421  18.271   1.328
 3010W        W74593   9.125   1.392  14.593
 3011W        W74594  13.234  28.646   3.025
 3012W        W74595   9.636  30.057   4.136
 3013W        W74596  15.619   8.760  10.791
 3014W        W74597  39.104   0.761   1.893
 3015W        W74598  30.311  10.331  10.064
 3016W        W74599   3.911  12.877  13.204
 3017W        W74600   5.957  19.870  13.422
 3018W        W74601  25.062   7.274  10.484
 3019W        W74602   6.156  22.662   1.859
 3020W        W74603  28.715  27.540  12.044
 3021W        W74604  41.033  32.863  11.082
 3022W        W74605  18.777  38.542   2.865
 3023W        W74606  43.866  24.649   1.003
 3024W        W74607  34.527  38.594   4.573
 3025W        W74608  21.256  24.669   4.137
 3026W        W74609  41.911   0.849  11.698
 3027W        W74610   9.334  14.598  13.050
 3028W        W74611  37.502  28.775   1.783
 3029W        W74612  11.655   3.342  12.413
 3030W        W74613  26.666  27.656   0.083
 3031W        W74614   4.860  36.207  10.369
 3032W        W74615  21.017  16.192  12.849
 3033W        W74616  40.594   2.214  12.092
 3034W        W74617  21.577  17.058   1.858
 3035W        W74618  20.158  23.648   5.417
 3036W        W74619  28.619  43.252  14.272
 3037W        W74620   5.893  25.498  11.960
 3038W        W74621  37.483  18.603   4.973
 3039W        W74622  23.998  32.904  14.531
 3040W        W74623  43.498  21.671   3.654
 3041W        W74624   2.308   5.658   3.502
 3042W        W74625  20.282   6.218  11.034
 3043W        W74626  41.118   7.287  12.422
 3044W        W74627   8.697  38.475   3.125
 3045W        W74628  44.561  10.373   2.763
 3046W        W74629  17.976  42.501   3.167
 3047W        W74630   6.722  44.435  14.735
 3048W        W74631  40.604  44.066   3.780
 3049W        W74632  15.893  41.929  10.981
 3050W        W74633  22.769  34.527  13.481
 3051W        W74634  12.224  11.590  13.532
 3052W        W74635  31.517  25.995  11.682
 3053W        W74636  35.717  44.121   1.448
 3054W        W74637  32.417  12.684   0.156
 3055W        W74638  34.012  31.357  11.118
 3056W        W74639  17.248  19.823  13.823
 3057W        W74640  16.366   5.759  14.977
 3058W        W74641  18.675  22.201  13.278
 3059W        W74642  36.476  28.927   4.207
 3060W        W74643  37.431  30.928  11.976
 3061W        W74644  12.620  38.850   2.281
 3062W        W74645  38.404  42.055   1.628
 3063W        W74646  13.716  25.716   4.112
 3064W        W74647  28.925  21.046  14.498
 3065W        W74648  22.484   5.789   1.366
 3066W        W74649  37.635  38.102   0.900
 3067W        W74650  28.500  33.716   0.766
 3068W        W74651  22.159  28.727   5.395
 3069W        W74652  18.059  22.492   2.784
 3070W        W74653  38.000  29.369  12.576
 3071W        W74654  26.390  38.460   1.956
 3072W        W74655  21.685  39.002   1.785
 3073W        W74656  22.998  17.906   3.420
 3074W        W74657  27.723  15.275   2.367
 3075W        W74658  33.215  12.182   4.567
 3076W        W74659  34.885  35.793   2.365
 3077W        W74660  11.768  29.647   2.931
 3078W        W74661  32.896  43.637  14.395
 3079W        W74662   8.846  13.842   0.478
 3080W        W74663  35.856  33.905  12.615
 3081W        W74664  26.169  17.691  14.245
 3082W        W74665   4.202   8.328   3.780
 3083W        W74666  15.012  43.868  12.424
 3084W        W74667  13.665   5.767   3.094
 3085W        W74668   8.712   3.929   2.362
 3086W        W74669  30.478   5.009   4.120
 3087W        W74670  30.363   4.281   2.273
 3088W        W74671  24.236  12.714  11.460
 3089W        W74672  29.410   7.070   3.592
 3090W        W74673  13.136   9.042   2.843
 3091W        W74674  33.965  16.308   4.560
 3092W        W74675   1.271  41.964   4.154
 3093W        W74676   8.825  41.485  13.943
 3094W        W74677   9.923  41.021   3.698
 3095W        W74678  16.045  15.918   4.734
 3096W        W74679   4.615  16.821   0.440
 3097W        W74680  37.500  44.298   1.770
 3098W        W74681  25.020  28.046  10.775
 3099W        W74682  22.510  11.770   3.401
 3100W        W74683  43.137   9.247  12.010
 3101W        W74684  35.963  31.851   3.254
 3102W        W74685  42.970  18.313  14.368
 3103W        W74686   7.735  38.667  13.057
 3104W        W74687  43.765  16.144  14.886
 3105W        W74688  19.724  31.922  11.136
 3106W        W74689   1.072  28.019  11.627
 3107W        W74690  17.207   6.311  11.707
 3108W        W74691   7.071  13.609  11.096
 3109W        W74692  34.433   8.895   0.536
 3110W        W74693  39.223  38.977   2.451
 3111W        W74694  29.149  30.242  11.635
 3112W        W74695  41.585  43.215   2.519
 3113W        W74696  15.231  33.819  11.296
 3114W        W74697  13.701   3.012   0.826
 3115W        W74698  17.087   0.460  13.052
 3116W        W74699  40.797  24.192   1.066
 3117W        W74700   7.108  42.568   3.718
 3118W        W74701  37.314  10.927   3.036
 3119W        W74702  42.283  44.760  13.528
 3120W        W74703   3.833  44.800  10.698
 3121W        W74704  11.804   7.870  10.433
 3122W        W74705  44.249   8.461   1.775
 3123W        W74706  24.753  27.390  12.017
 3124W        W74707  24.735   3.712   3.101
 3125W        W74708  40.078   8.098  11.832
 3126W        W74709  31.642  37.908  14.739
 3127W        W74710  22.419  17.851  11.966
 3128W        W74711  27.355  26.973   4.093
 3129W        W74712   8.180  40.309   3.368
 3130W        W74713  23.806   1.082   4.582
 3131W        W74714   9.723  21.187   0.743
 3132W        W74715  36.257  26.543   1.799
 3133W        W74716   4.176  21.017  11.701
 3134W        W74717  15.806  15.891   3.014
 3135W        W74718   8.728  23.671   1.765
 3136W        W74719  14.824  27.979   0.832
 3137W        W74720   0.437  39.402  13.824
 3138W        W74721  32.671  10.383   4.365
 3139W        W74722   5.894  30.362  12.359
 3140W        W74723  23.139  38.054  11.594
 3141W        W74724  23.948   9.756  11.254
 3142W        W74725   2.891  35.591   5.494
 3143W        W74726   7.928  12.816   5.053
 3144W        W74727  43.964  18.579   0.204
 3145W        W74728  14.552   8.670   0.029
 3146W        W74729  36.583  26.041  12.324
 3147W        W74730   4.679  12.886   4.178
 3148W        W74731  10.653  40.842   1.374
 3149W        W74732  34.099  31.109   0.415
 3150W        W74733  28.075  18.831   2.285
 3151W        W74734  33.901   7.248  14.998
 3152W        W74735  42.486   1.953   1.376
 3153W        W74736  18.671   7.688   2.713
 3154W        W74737  28.727   2.029   4.106
 3155W        W74738  35.818  21.011   1.115
 3156W        W74739   7.792  37.212   1.790
 3157W        W74740  39.531  19.071  14.401
 3158W        W74741  42.788  42.251   2.281
 3159W        W74742  14.806  44.752  12.004
 3160W        W74743  26.926   5.252   1.526
 3161W        W74744   6.850  32.041   2.679
 3162W        W74745  35.621  19.543  12.953
 3163W        W74746  23.706  27.038  14.916
 3164W        W74747  35.309   4.821  11.679
 3165W        W74748   5.686  20.516   0.347
 3166W        W74749  35.572  11.077  12.620
 3167W        W74750  40.882   1.314   3.999
 3168W        W74751  13.802  19.319  13.915
 3169W        W74752  40.522  40.382   3.728
 3170W        W74753  40.742  36.422   3.367
 3171W        W74754  44.966  36.135  11.283
 3172W        W74755  39.087   3.748  14.086
 3173W        W74756   6.261  25.936   0.423
 3174W        W74757   1.735  10.217  13.526
 3175W        W74758  23.080  27.212   1.835
 3176W        W74759  13.652  34.894   4.222
 3177W        W74760   5.227  39.316   0.960
 3178W        W74761  41.806   4.424  11.886
 3179W        W74762   2.063  31.964  11.949
 3180W        W74763  40.041  22.995   0.461
 3181W        W74764  23.638   5.934  13.541
 3182W        W74765  41.490   3.183   4.947
 3183W        W74766  32.193   7.212   0.391
 3184W        W74767  28.089   1.933   2.208
 3185W        W74768  39.311   0.804  11.585
 3186W        W74769  42.041  42.537   3.157
 3187W        W74770  15.537  20.265   2.376
 3188W        W74771  30.478  36.170  10.834
 3189W        W74772  16.840  33.885   0.709
 3190W        W74773  39.403  20.564   3.614
 3191W        W74774  32.898  38.884  13.440
 3192W        W74775  39.416  35.644   2.605
 3193W        W74776  30.988  42.117  12.118
 3194W        W74777  17.303  41.271   2.778
 3195W        W74778  15.570  27.622   1.250
 3196W        W74779  28.103  18.730   1.752
 3197W        W74780   6.713  43.911  11.525
 3198W        W74781  17.662  26.813  12.945
 3199W        W74782  30.906  32.092  13.164
 3200W        W74783  37.622   7.181   1.296
 3201W        W74784  10.900   3.963  12.041
 3202W        W74785   5.248  10.883   0.932
 3203W        W74786  26.722   5.133  12.848
 3204W        W74787  12.131  34.108   2.754
 3205W        W74788  38.821  14.760  11.954
 3206W        W74789  38.535  16.947   3.764
 3207W        W74790  14.898  15.893   5.158
 3208W        W74791  17.034  32.508  14.079
 3209W        W74792  38.575  21.035   1.673
 3210W        W74793  29.315  32.048  13.447
 3211W        W74794  30.000  31.545   4.692
 3212W        W74795  33.702  41.487  11.670
 3213W        W74796  32.473   9.157   4.035
 3214W        W74797  14.443  38.555  11.254
 3215W        W74798  27.602  37.092  14.379
 3216W        W74799  11.358  10.141  10.332
 3217W        W74800  21.144  38.837   4.425
 3218W        W74801  27.492  27.014   1.957
 3219W        W74802  40.847  31.153   1.720
 3220W        W74803  26.640  29.219   2.142
 3221W        W74804   4.676  43.965  13.141
 3222W        W74805  27.714  42.428  10.686
 3223W        W74806  10.849  21.949   0.490
 3224W        W74807   1.105  25.041  14.087
 3225W        W74808  32.548  24.252   4.366
 3226W        W74809   9.690  26.638  14.517
 3227W        W74810  27.077  26.493  14.400
 3228W        W74811   0.206  27.578   1.387
 3229W        W74812   0.545  13.241   0.289
 3230W        W74813  18.454   6.274  13.030
 3231W        W74814  20.540  38.380   2.938
 3232W        W74815  15.052  40.021  11.935
 3233W        W74816  21.900  22.684   2.247
 3234W        W74817   3.204  38.577  11.490
 3235W        W74818  41.949  25.578  13.327
 3236W        W74819  35.539  43.562  14.913
 3237W        W74820  12.716  20.647   2.231
 3238W        W74821   0.846   8.309  14.362
 3239W        W74822   0.210  18.665   4.213
 3240W        W74823  22.245  25.629   3.749
 3241W        W74824  14.351  12.224  11.484
 3242W        W74825   3.490  29.422  12.567
 3243W        W74826   8.904  26.182   1.231
 3244W        W74827  15.587  36.770  11.109
 3245W        W74828  23.082  34.096   1.669
 3246W        W74829  28.060   2.244   0.604
 3247W        W74830  12.248  44.063   2.268
 3248W        W74831  13.585  44.795  12.979
 3249W        W74832  27.289  43.008  14.902
 3250W        W74833   7.110  34.144  12.488
 3251W        W74834  34.796  40.924  13.970
 3252W        W74835   6.330  44.109   4.682
 3253W        W74836  36.060  15.028   2.133
 3254W        W74837  44.391  19.492  14.395
 3255W        W74838  12.661  21.957  10.501
 3256W        W74839   2.277  26.684  10.050
 3257W        W74840   2.846  15.598   2.951
 3258W        W74841  29.023  28.713  14.022
 3259W        W74842  16.042  36.840  13.651
 3260W        W74843  40.273  35.872   4.702
 3261W        W74844  38.505   9.114   3.057
 3262W        W74845  28.994  22.573   1.244
 3263W        W74846  18.063  19.825   0.124
 3264W        W74847  17.753  39.420   2.656
 3265W        W74848  18.225  31.292   4.073
 3266W        W74849  27.625   2.764  14.006
 3267W        W74850   5.426  37.391   2.816
 3268W        W74851  37.533  35.469  11.526
 3269W        W74852  37.391  30.538  11.639
 3270W        W74853  27.926  23.973   2.473
 3271W        W74854   3.515  41.599   4.448
 3272W        W74855  13.427  42.372   1.399
 3273W        W74856  37.560  12.449  14.393
 3274W        W74857   6.477  31.192  12.907
 3275W        W74858  13.845  21.723  13.737
 3276W        W74859  13.746  26.222  11.934
 3277W        W74860  13.728  35.854  11.971
 3278W        W74861  22.739  43.249   4.618
 3279W        W74862  33.543   8.377   1.473
 3280W        W74863  28.514  29.113  11.403
 3281W        W74864  32.600  23.479   4.120
 3282W        W74865  28.204   4.776  12.058
 3283W        W74866  30.443  23.088  12.829
 3284W        W74867   2.882  31.099   3.205
 3285W        W74868  34.452  23.647   4.346
 3286W        W74869  32.965  11.443  10.483
 3287W        W74870  42.706  26.851  11.965
 3288W        W74871  27.720   7.709  12.462
 3289W        W74872  37.496   9.870   3.661
 3290W        W74873  18.764  36.205  11.032
 3291W        W74874  29.073   0.768  14.837
 3292W        W74875   7.259  43.490   0.929
 3293W        W74876   4.877   3.800  13.958
 3294W        W74877  10.160  27.697   1.835
 3295W        W74878  23.495  42.532   2.303
 3296W        W74879  26.520   1.729   4.370
 3297W        W74880  15.072  43.005   4.335
 3298W        W74881  34.640  18.265  12.567
 3299W        W74882  39.271  31.595   1.256
 3300W        W74883   6.179  39.077   1.716
 3301W        W74884  30.646  34.119  13.982
 3302W        W74885  43.025  40.442  14.556
 3303W        W74886  26.165  43.935   0.030
 3304W        W74887  33.023   1.997  14.891
 3305W        W74888  39.044   8.588   0.357
 3306W        W74889  21.551  36.585   4.235
 3307W        W74890  42.173  27.765  10.733
 3308W        W74891  23.787  28.672   4.886
 3309W        W74892  12.638  14.292  12.201
 3310W        W74893  18.088  13.273   0.831
 3311W        W74894  33.417  17.326   2.300
 3312W        W74895  20.741  44.805   4.592
 3313W        W74896   3.081  21.494   0.259
 3314W        W74897  43.916   0.282  12.921
 3315W        W74898  20.507  43.746   3.708
 3316W        W74899  21.484  22.099  13.943
 3317W        W74900  18.063   7.678   1.384
 3318W        W74901   7.433  32.932  12.199
 3319W        W74902  32.934  18.665   1.383
 3320W        W74903   7.267  32.124  14.354
 3321W        W74904  19.759  15.772   1.157
 3322W        W74905  13.022   6.054   3.681
 3323W        W74906  22.038   4.615   4.671
 3324W        W74907  32.142   2.635   1.531
 3325W        W74908  42.375  40.306   4.602
 3326W        W74909  41.154  34.818   4.665
 3327W        W74910   1.012  27.487  13.311
 3328W        W74911  23.943   7.664   0.695
 3329W        W74912  25.202  35.461   0.967
 3330W        W74913  28.110   2.543   2.131
 3331W        W74914  32.631   7.380   4.925
 3332W        W74915   1.509  10.135  12.518
 3333W        W74916  43.822   9.902   4.020
 3334W        W74917  41.385  33.400  14.313
 3335W        W74918  17.211  41.928   4.091
 3336W        W74919  30.224  34.507  13.267
 3337W        W74920  32.063  30.565   1.592
 3338W        W74921  17.192  33.605  10.655
 3339W        W74922   5.684  15.914  12.559
 3340W        W74923  19.543  24.264   0.901
 3341W        W74924  10.768  33.626   2.922
 3342W        W74925  39.872  32.581   4.512
 3343W        W74926  24.787  25.956  10.706
 3344W        W74927  41.603  10.233   0.969
 3345W        W74928  36.750   0.632  10.184
 3346W        W74929  24.435  40.117   1.770
 3347W        W74930  31.605  18.353  11.485
 3348W        W74931   9.245  11.137   0.693
 3349W        W74932  39.057  39.419  11.057
 3350W        W74933  26.864  40.445  14.004
 3351W        W74934  34.000  40.107  12.016
 3352W        W74935  19.290  15.611   3.346
 3353W        W74936   6.980  40.848   3.530
 3354W        W74937  10.828  25.017   4.066
 3355W        W74938  39.936  36.334   2.812
 3356W        W74939  35.545  33.543  12.188
 3357W        W74940  27.111  27.784   1.366
 3358W        W74941  28.840  26.168   3.154
 3359W        W74942   9.052  38.054  13.388
 3360W        W74943   5.733   9.241   0.358
 3361W        W74944   3.643  13.150  14.573
 3362W        W74945  17.045  32.788  10.741
 3363W        W74946  41.813   3.647  11.209
 3364W        W74947   9.865   9.810   3.247
 3365W        W74948   5.675  27.613  13.728
 3366W        W74949  35.770  20.114   4.841
 3367W        W74950  17.197  14.505   4.108
 3368W        W74951  20.499  20.776   0.546
 3369W        W74952   2.977  11.756   2.875
 3370W        W74953  38.175   4.682  13.362
 3371W        W74954   4.803  10.389  11.050
 3372W        W74955   0.211  41.391   0.659
 3373W        W74956  24.936  38.943  14.020
 3374W        W74957  43.734  24.244   3.198
 3375W        W74958  41.154   4.285   2.112
 3376W        W74959  11.230  34.647   3.988
 3377W        W74960  39.621  25.558   4.453
 3378W        W74961  34.727   2.473  10.753
 3379W        W74962  16.769  21.420   0.449
 3380W        W74963  20.067  27.099  12.874
 3381W        W74964   7.290  44.965   3.820
 3382W        W74965  16.641   5.624  12.061
 3383W        W74966   0.186  28.679  12.477
 3384W        W74967  44.798   9.676  12.662
 3385W        W74968  20.663  29.917   3.344
 3386W        W74969   4.934   6.506   3.639
 3387W        W74970  34.843  37.475  14.913
 3388W        W74971  26.660  35.656   0.990
 3389W        W74972  39.087  23.914  14.409
 3390W        W74973  20.134  13.036   0.034
 3391W        W74974  37.840  42.937  14.782
 3392W        W74975  26.676  27.911  14.438
 3393W        W74976  28.870  28.695  11.469
 3394W        W74977  39.463  28.491  13.443
 3395W        W74978  10.090  31.759   1.882
 3396W        W74979  21.833  28.412   4.530
 3397W        W74980  29.268  34.936   0.727
 3398W        W74981  22.402  22.630   2.090
 3399W        W74982  18.815   6.382  13.424
 3400W        W74983   4.865   5.651   2.495
 3401W        W74984  14.808  23.008  11.623
 3402W        W74985   8.149  42.006  11.636
 3403W        W74986  25.721  30.150  14.482
 3404W        W74987  22.389  42.183   3.285
 3405W        W74988  43.667  25.071   1.716
 3406W        W74989  10.723  44.095  12.039
 3407W        W74990  20.891  16.306   3.262
 3408W        W74991  37.831  18.747  11.217
 3409W        W74992  14.737  34.770   9.996
 3410W        W74993  28.527  10.211  13.550
 3411W        W74994   5.835  43.303  10.422
 3412W        W74995   3.387  31.482  11.966
 3413W        W74996  39.385  14.605   0.976
 3414W        W74997  43.873  20.669   3.656
 3415W        W74998  27.938  15.770  14.131
 3416W        W74999  28.213  39.985   3.796
 3417W        W75000  26.200  37.422  11.116
 3418W        W75001  23.366  13.253  14.425
 3419W        W75002  29.658  28.892   1.325
 3420W        W75003  18.544   3.633  12.438
 3421W        W75004   4.290   4.863   3.226
 3422W        W75005  36.103  12.412  10.624
 3423W        W75006  23.792  16.331   1.867
 3424W        W75007  32.393  41.618   3.810
 3425W        W75008  15.154   2.922  14.088
 3426W        W75009  18.571  25.986   0.821
 3427W        W75010   5.120  10.888   4.158
 3428W        W75011  30.056  35.438  14.938
 3429W        W75012  38.596  32.967  12.741
 3430W        W75013  34.348  42.870  12.576
 3431W        W75014  15.135  23.996   4.238
 3432W        W75015  38.835  25.630  13.633
 3433W        W75016  13.452  34.849   1.423
 3434W        W75017  22.148  12.654   0.410
 3435W        W75018  13.060   2.236  12.672
 3436W        W75019  42.825   4.810   3.782
 3437W        W75020  25.124  38.032  11.182
 3438W        W75021  43.769  42.932  14.980
 3439W        W75022  34.336   3.786  12.044
 3440W        W75023  15.095  12.370  14.408
 3441W        W75024  11.609  23.657  14.509
 3442W        W75025   4.416  44.067   0.797
 3443W        W75026  15.275  26.347   3.577
 3444W        W75027  23.067  12.293  12.879
 3445W        W75028  28.363  16.713   3.902
 3446W        W75029  32.867  19.181  11.807
 3447W        W75030  25.111   2.204  11.988
 3448W        W75031  22.204  13.852   2.847
 3449W        W75032   0.499  31.915  11.672
 3450W        W75033  39.802  22.584   4.494
 3451W        W75034  31.182   1.267  14.353
 3452W        W75035  33.109  22.056   2.714
 3453W        W75036  44.931  39.388   3.829
 3454W        W75037  44.595  42.952  12.989
 3455W        W75038  13.089  27.735   0.800
 3456W        W75039  25.807  27.631  14.070
 3457W        W75040  38.713  34.499  12.006
 3458W        W75041  16.092  44.764   3.369
 3459W        W75042   6.137   6.721   4.644
 3460W        W75043  12.598  12.223  12.052
 3461W        W75044  38.278  19.768  14.034
 3462W        W75045  11.753  12.800   0.022
 3463W        W75046  29.158  11.286   2.784
 3464W        W75047  32.487   2.264   0.785
 3465W        W75048  33.934  15.637  12.912
 3466W        W75049  43.816  17.030   1.945
 3467W        W75050  30.628  41.885   0.813
 3468W        W75051  25.936  29.991   4.085
 3469W        W75052  36.815  10.814  11.515
 3470W        W75053  22.618  14.452  14.484
 3471W        W75054   5.228  24.088   0.286
 3472W        W75055  32.528  41.165  14.985
 3473W        W75056  11.572  23.163   3.198
 3474W        W75057  20.649  42.229   4.700
 3475W        W75058  14.339   3.345   4.820
 3476W        W75059  18.287  33.159   0.785
 3477W        W75060  43.288   7.358   4.201
 3478W        W75061   8.161  19.524  14.888
 3479W        W75062  21.288  20.999  13.377
 3480W        W75063  30.489   2.808   4.877
 3481W        W75064  22.426  42.517  10.719
 3482W        W75065   2.411  10.096  13.091
 3483W        W75066  34.420  40.491  11.306
 3484W        W75067   7.288  11.703  13.378
 3485W        W75068  23.940  39.438   2.295
 3486W        W75069   9.094   9.462   3.406
 3487W        W75070  28.668  29.646   0.461
 3488W        W75071  42.066   2.806  14.794
 3489W        W75072  12.321  22.199  12.835
 3490W        W75073  14.733  41.544  12.945
 3491W        W75074  42.072  30.573   2.660
 3492W        W75075   6.281  31.059   0.756
 3493W        W75076  10.799  31.416  11.638
 3494W        W75077   4.722   9.351   0.380
 3495W        W75078  14.467  39.836  12.783
 3496W        W75079  38.235  36.808   1.904
 3497W        W75080  23.230  31.667   9.897
 3498W        W75081  29.947  42.779  12.036
 3499W        W75082  24.829  16.164   1.888
 3500W        W75083   1.088  29.327   4.567
 3501W        W75084  41.058  31.694  14.769
 3502W        W75085   9.322   7.832  13.394
 3503W        W75086   2.911   8.226  11.870
 3504W        W75087  23.515  32.643   1.781
 3505W        W75088  21.698  26.282   2.327
 3506W        W75089  44.261  26.117  14.505
 3507W        W75090  20.045  37.920  12.945
 3508W        W75091  16.278  42.272   0.963
 3509W        W75092  15.829  43.163  13.713
 3510W        W75093  34.048  24.871  11.524
 3511W        W75094   8.167   4.851  13.436
 3512W        W75095  21.981   8.682  13.409
 3513W        W75096  23.168  28.284  13.790
 3514W        W75097  28.749  25.389   1.834
 3515W        W75098  35.307   1.533   4.944
 3516W        W75099  27.821  16.049  11.961
 3517W        W75100   3.998   3.096  11.070
 3518W        W75101  30.423  23.675  11.927
 3519W        W75102  33.351  10.869  13.427
 3520W        W75103  44.256  40.824   2.079
 3521W        W75104  13.562  21.092   3.191
 3522W        W75105  32.956  16.740   4.596
 3523W        W75106  15.333  40.034   0.033
 3524W        W75107  38.327  38.838   2.827
 3525W        W75108  38.360  36.387  14.812
 3526W        W75109   7.420   1.496  12.914
 3527W        W75110  36.914  15.113  11.758
 3528W        W75111   8.646  19.974   2.825
 3529W        W75112  32.112  30.342   2.854
 3530W        W75113  30.609  41.699  13.563
 3531W        W75114  30.364  39.977   0.651
 3532W        W75115  19.852  44.841  12.466
 3533W        W75116  38.623  18.690   1.370
 3534W        W75117  44.859  29.435  14.593
 3535W        W75118  21.523   3.480  12.525
 3536W        W75119  22.204  38.458  11.336
 3537W        W75120  34.039  30.998   1.428
 3538W        W75121   1.034  26.302   5.089
 3539W        W75122   1.103  21.212   5.037
 3540W        W75123   8.098   5.943   1.267
 3541W        W75124  15.867  10.648  13.530
 3542W        W75125  25.934  23.471   3.038
 3543W        W75126  16.354   3.243   3.527
 3544W        W75127  22.227  40.017  10.733
 3545W        W75128   3.010   6.338   1.883
 3546W        W75129  43.085  29.117  10.936
 3547W        W75130   9.407  29.660   1.176
 3548W        W75131  16.556  34.585  11.067
 3549W        W75132   9.138  12.342  11.502
 3550W        W75133   4.728  19.636   1.212
 3551W        W75134  20.547  19.808   2.894
 3552W        W75135  38.791  43.424  10.788
 3553W        W75136   1.382   0.269  12.962
 3554W        W75137  36.429   5.566  11.470
 3555W        W75138  17.317   2.172  13.644
 3556W        W75139   0.255   7.842   2.573
 3557W        W75140  26.673  15.466  12.515
 3558W        W75141  15.347  20.140   4.628
 3559W        W75142   1.172  39.541   3.158
 3560W        W75143  41.448  17.254   1.189
 3561W        W75144   1.753  23.957  12.796
 3562W        W75145  40.301  17.187  13.988
 3563W        W75146  41.900  25.350  11.432
 3564W        W75147  26.412   7.256   0.786
 3565W        W75148  10.334   2.392   4.246
 3566W        W75149  28.675  42.537   3.582
 3567W        W75150  25.942  17.811  11.105
 3568W        W75151   6.886  19.700   3.719
 3569W        W75152  31.455   8.468  12.060
 3570W        W75153  13.124  20.575  13.430
 3571W        W75154  30.075  29.531  13.032
 3572W        W75155  44.397  13.185   0.425
 3573W        W75156  34.641   9.211   2.731
 3574W        W75157  15.810  20.757  12.988
 3575W        W75158  31.418  40.894  11.212
 3576W        W75159  37.115  37.388  13.048
 3577W        W75160   2.874   2.398  13.427
 3578W        W75161  27.435  39.993   2.340
 3579W        W75162  25.110  38.406  12.914
 3580W        W75163  18.107  31.133  11.685
 3581W        W75164  22.648  10.204   1.219
 3582W        W75165   1.069  26.553   0.475
 3583W        W75166  30.422  13.659  12.759
 3584W        W75167  29.180   3.949  12.881
 3585W        W75168  36.712  24.583   2.798
 3586W        W75169   0.838  16.242  11.632
 3587W        W75170  21.563  33.393  13.503
 3588W        W75171  27.346  11.899  12.069
 3589W        W75172  16.791   3.396   0.361
 3590W        W75173  33.073   9.225  11.081
 3591W        W75174   5.327  27.934  12.217
 3592W        W75175  10.908   0.745  11.657
 3593W        W75176  44.420   6.202   2.439
 3594W        W75177  43.530  39.927   3.974
 3595W        W75178  43.523  29.630  13.369
 3596W        W75179   7.465   0.377   0.591
 3597W        W75180  27.485   6.645  13.131
 3598W        W75181  17.965  24.726   2.383
 3599W        W75182  44.015  42.029  11.268
 3600W        W75183  26.431  12.419  10.825
 3601W        W75184  20.685  16.860   9.884
 3602W        W75185  10.404   3.486  12.141
 3603W        W75186   5.826  12.139   4.619
 3604W        W75187  39.056  35.843  12.314
 3605W        W75188  14.962  35.485  13.297
 3606W        W75189  39.044  26.475   4.666
 3607W        W75190   0.368  44.350   0.700
 3608W        W75191   8.663  32.135   1.687
 3609W        W75192  34.079   1.225  12.433
 3610W        W75193  18.536  19.471   4.917
 3611W        W75194  29.397  21.647  12.486
 3612W        W75195  18.349  15.889  10.996
 3613W        W75196  38.384   9.577   4.671
 3614W        W75197  26.600  32.151  10.598
 3615W        W75198  28.593  13.261  13.229
 3616W        W75199  36.484  11.823   2.352
 3617W        W75200  20.953  39.050   2.874
 3618W        W75201  27.060  24.260   2.165
 3619W        W75202  36.589  29.554  12.616
 3620W        W75203  34.776   1.862   2.787
 3621W        W75204  42.849  19.206  12.145
 3622W        W75205   6.643  27.791   2.111
 3623W        W75206  36.423  13.217   4.261
 3624W        W75207   1.370   6.595   2.226
 3625W        W75208  15.549  35.105   3.738
 3626W        W75209   5.736  44.385   3.599
 3627W        W75210   4.283  11.783  11.178
 3628W        W75211  27.266  33.064   0.939
 3629W        W75212  44.379  18.702  14.890
 3630W        W75213  43.243  30.365  11.056
 3631W        W75214  16.209  32.663   3.861
 3632W        W75215  12.687  27.569   0.490
 3633W        W75216  14.003  16.526   4.883
 3634W        W75217  37.946   6.844   3.955
 3635W        W75218  22.640  28.759  12.322
 3636W        W75219  21.659  23.703  12.041
 3637W        W75220  43.447  32.196   4.639
 3638W        W75221   8.598  20.706  13.025
 3639W        W75222  21.722  13.650   1.778
 3640W        W75223  14.688  44.374   4.541
 3641W        W75224  32.439  31.577   0.501
 3642W        W75225  25.343  15.605  10.883
 3643W        W75226   5.949  26.962  11.370
 3644W        W75227   6.062   7.212   2.992
 3645W        W75228  26.810  38.386   2.856
 3646W        W75229   3.470  23.085  13.747
 3647W        W75230  15.135  22.620  13.552
 3648W        W75231  43.816  15.565   4.811
 3649W        W75232  42.795  20.945  13.479
 3650W        W75233  35.665  44.171  14.360
 3651W        W75234  20.535  23.335   4.335
 3652W        W75235  41.977  11.832   0.314
 3653W        W75236  32.838  15.812  11.986
 3654W        W75237  39.090  12.548  13.808
 3655W        W75238  20.135  25.528  13.721
 3656W        W75239  21.170  17.260  11.447
 3657W        W75240  20.277   0.325   3.244
 3658W        W75241  30.990  28.628   0.032
 3659W        W75242   6.329  27.035  13.388
 3660W        W75243   8.455  41.127   2.124
 3661W        W75244   8.142  12.810   2.232
 3662W        W75245  34.103  37.910   2.794
 3663W        W75246   7.886  37.109   2.653
 3664W        W75247  35.471  16.663  12.102
 3665W        W75248  14.252  21.569   0.395
 3666W        W75249  39.824  21.693   0.453
 3667W        W75250  17.825  17.558   3.086
 3668W        W75251  19.640   9.028   4.568
 3669W        W75252   0.889  12.648   4.566
 3670W        W75253   8.372   2.346   1.100
 3671W        W75254  18.709  23.536  10.213
 3672W        W75255  12.081  21.467  11.567
 3673W        W75256  33.094  10.881  12.099
 3674W        W75257  37.130   6.827  13.474
 3675W        W75258  29.944   7.427  11.089
 3676W        W75259  19.774  15.312   3.896
 3677W        W75260  19.090  26.051  13.359
 3678W        W75261  40.472  18.091  13.512
 3679W        W75262  24.452  18.173  13.488
 3680W        W75263  18.083  36.236   3.280
 3681W        W75264  15.846  30.525   2.736
 3682W        W75265  28.086  41.533  12.415
 3683W        W75266  26.024  41.457   3.127
 3684W        W75267  39.473  15.196  13.888
 3685W        W75268  16.119  42.034  13.472
 3686W        W75269  26.117  38.815  13.862
 3687W        W75270  15.416  29.695   4.201
 3688W        W75271  25.007  19.626  12.570
 3689W        W75272  16.634  28.444   3.902
 3690W        W75273  32.529   1.802   1.137
 3691W        W75274  37.277  13.221  13.029
 3692W        W75275  10.600  29.693   4.677
 3693W        W75276  36.087  25.793   4.570
 3694W        W75277   8.141  19.069  13.924
 3695W        W75278  38.826  44.309  11.352
 3696W        W75279  10.813  20.597   3.054
 3697W        W75280   9.697  28.044   2.287
 3698W        W75281  12.886  12.002   3.555
 3699W        W75282  30.675  42.515  11.977
 3700W        W75283  16.276  29.287   1.249
 3701W        W75284  29.760  29.259   2.727
 3702W        W75285  12.834  15.209   4.481
 3703W        W75286  25.688   3.821  12.004
 3704W        W75287  34.049  13.319  11.616
 3705W        W75288  14.236  22.080  12.602
 3706W        W75289  33.448  23.641  12.411
 3707W        W75290   6.260  37.411  14.050
 3708W        W75291  15.559  24.635  14.552
 3709W        W75292   4.358   5.877   3.684
 3710W        W75293  42.049   9.063   4.029
 3711W        W75294  40.065  12.351   0.661
 3712W        W75295  24.201   7.709  10.548
 3713W        W75296  13.705  22.320   1.912
 3714W        W75297   7.300  14.532  11.920
 3715W        W75298  24.593   9.605  12.081
 3716W        W75299  26.384   4.460  13.493
 3717W        W75300  40.362   3.507  11.637
 3718W        W75301   3.648  44.012  12.863
 3719W        W75302  38.176   5.816   9.997
 3720W        W75303  41.561  33.114   3.938
 3721W        W75304   5.371   7.706  12.597
 3722W        W75305  33.032   8.900  13.507
 3723W        W75306  36.054   1.104   2.105
 3724W        W75307  43.446  42.887  12.004
 3725W        W75308  30.996  28.074  14.754
 3726W        W75309  12.301  12.135  14.736
 3727W        W75310  30.423  17.932   2.345
 3728W        W75311   4.803  24.914   2.296
 3729W        W75312  12.408   9.835  12.945
 3730W        W75313  14.292  40.847   4.071
 3731W        W75314  23.632  33.121  10.606
 3732W        W75315   0.667  43.548  14.006
 3733W        W75316   1.082  10.869  13.420
 3734W        W75317  21.645  35.413   1.857
 3735W        W75318  20.197  26.012  12.880
 3736W        W75319  29.603   6.661  11.991
 3737W        W75320  20.643  22.831  14.218
 3738W        W75321  34.600  15.299   0.445
 3739W        W75322  13.781  11.380   0.734
 3740W        W75323  20.367  20.351   9.806
 3741W        W75324  32.397  11.088  12.405
 3742W        W75325  33.856  43.882   2.675
 3743W        W75326  26.041  17.373   1.228
 3744W        W75327   9.428  38.188  12.017
 3745W        W75328   4.228  28.005   2.983
 3746W        W75329  12.216  42.167   1.888
 3747W        W75330  21.026  24.718   1.917
 3748W        W75331  23.303  26.619  12.954
 3749W        W75332  44.752  34.086  11.115
 3750W        W75333  30.006   7.390   4.365
 3751W        W75334  13.264  35.999   4.864
 3752W        W75335  39.578   7.645   3.269
 3753W        W75336  29.559   9.248  13.366
 3754W        W75337   7.872  43.746  11.935
 3755W        W75338  24.684  18.833  11.467
 3756W        W75339  36.388  12.275   4.597
 3757W        W75340   5.799  14.121   4.689
 3758W        W75341  27.275  21.691   1.344
 3759W        W75342  41.503   0.759   3.360
 3760W        W75343  35.558  12.008   1.417
 3761W        W75344   3.139  14.790   4.885
 3762W        W75345   4.448   1.809  12.155
 3763W        W75346  18.848  12.759   2.358
 3764W        W75347  40.483  38.405   2.805
 3765W        W75348  41.610  25.495  11.005
 3766W        W75349   5.568  12.380   4.010
 3767W        W75350  38.431   2.690   2.910
 3768W        W75351  28.658  39.046   2.783
 3769W        W75352   4.190   1.505  14.801
 3770W        W75353   9.684  44.410   2.897
 3771W        W75354  11.568  31.903  12.345
 3772W        W75355   7.032  12.101  12.154
 3773W        W75356   2.887  26.916  13.010
 3774W        W75357  44.379  22.902   3.111
 3775W        W75358  30.890   1.337   0.871
 3776W        W75359   9.729  40.820   0.395
 3777W        W75360   8.827  34.075  11.232
 3778W        W75361   1.729  40.927  13.518
 3779W        W75362   9.767  31.152   3.217
 3780W        W75363  17.632   2.707  10.644
 3781W        W75364  33.580  27.321   4.424
 3782W        W75365   9.985   5.617  10.283
 3783W        W75366  41.854  33.388  10.337
 3784W        W75367  42.972   0.002  12.069
 3785W        W75368  24.735   0.355   3.336
 3786W        W75369  36.645  38.354  14.055
 3787W        W75370  28.417  37.036  11.861
 3788W        W75371  28.095  19.012  11.640
 3789W        W75372  43.398  41.610  11.024
 3790W        W75373  13.809  14.108   1.961
 3791W        W75374   2.379  44.855  13.459
 3792W        W75375   3.581  22.019   3.951
 3793W        W75376  22.716  40.277   0.785
 3794W        W75377  17.558  13.686  11.194
 3795W        W75378  11.310   9.177   1.957
 3796W        W75379   9.908  41.586   2.904
 3797W        W75380  13.819  28.504  13.013
 3798W        W75381  32.531  35.001  11.529
 3799W        W75382  17.151  34.788   1.934
 3800W        W75383  31.014  34.595  14.859
 3801W        W75384  33.076   7.762   2.065
 3802W        W75385  43.317  29.030   4.622
 3803W        W75386  31.431  37.549   4.061
 3804W        W75387  33.138   2.847   3.793
 3805W        W75388  34.236   7.168  12.997
 3806W        W75389   9.712  15.361  10.697
 3807W        W75390  12.180  37.458  11.979
 3808W        W75391  39.964   6.724   0.777
 3809W        W75392   5.756  43.731   0.298
 3810W        W75393  33.876   4.145  13.910
 3811W        W75394   4.896  23.975   3.595
 3812W        W75395  12.632  12.617  11.080
 3813W        W75396  16.750  41.822  10.916
 3814W        W75397  32.206  14.300  13.818
 3815W        W75398  38.276  33.553  11.170
 3816W        W75399   3.010   1.931  12.913
 3817W        W75400   1.307  29.614   0.141
 3818W        W75401  13.139   1.600   5.039
 3819W        W75402  16.959  29.598   1.772
 3820W        W75403   7.750   2.513   2.319
 3821W        W75404  35.767  25.914   1.466
 3822W        W75405  37.138  13.073   2.355
 3823W        W75406  11.155  29.572   3.624
 3824W        W75407  36.949  35.319  14.452
 3825W        W75408  21.173  27.456   1.722
 3826W        W75409  38.895  37.568   0.223
 3827W        W75410   6.906  23.979  12.585
 3828W        W75411  40.699  41.333   2.727
 3829W        W75412  13.151  10.350   0.415
 3830W        W75413  43.697  27.678   1.281
 3831W        W75414  28.029  36.853  11.591
 3832W        W75415  10.840  26.137   3.658
 3833W        W75416  20.339  34.897  12.684
 3834W        W75417   0.519  32.528   4.147
 3835W        W75418  21.045  23.041  14.447
 3836W        W75419  15.068  36.082  12.572
 3837W        W75420  44.756  22.969  12.354
 3838W        W75421   5.789  32.106  14.367
 3839W        W75422  16.824  43.933   0.407
 3840W        W75423   8.552  21.055   3.601
 3841W        W75424  41.504  38.065  10.999
 3842W        W75425   3.643   7.787  11.474
 3843W        W75426  20.963  34.490  11.295
 3844W        W75427  32.505  15.575   3.864
 3845W        W75428  35.511   7.628   3.132
 3846W        W75429  30.469  15.842  11.954
 3847W        W75430  17.137  21.537   4.417
 3848W        W75431  44.403  33.967  10.737
 3849W        W75432  36.900  44.616  14.916
 3850W        W75433  30.994  39.255   2.693
 3851W        W75434  38.763  20.255   2.942
 3852W        W75435  18.781  13.732  11.615
 3853W        W75436  42.246  19.001   2.001
 3854W        W75437  25.573  25.571  14.950
 3855W        W75438  36.825   8.878  12.616
 3856W        W75439  43.720  11.946   0.812
 3857W        W75440  10.204  28.160   4.295
 3858W        W75441  30.994  25.468  12.947
 3859W        W75442  29.709  13.329  13.843
 3860W        W75443  23.304   9.782  13.383
 3861W        W75444  24.912  18.355   1.235
 3862W        W75445  38.759  32.349   2.334
 3863W        W75446  10.545   3.719   2.279
 3864W        W75447  32.551  10.112   1.725
 3865W        W75448  32.130   9.476  14.759
 3866W        W75449  17.535  27.887  13.747
 3867W        W75450   3.515  41.973   0.892
 3868W        W75451  17.807  37.130   1.711
 3869W        W75452  12.405  33.326   1.432
 3870W        W75453  28.111   2.229   4.580
 3871W        W75454   6.302  16.339  11.476
 3872W        W75455   6.343   6.386  14.912
 3873W        W75456  24.156  25.150  10.616
 3874W        W75457  15.771  19.312  10.685
 3875W        W75458   5.943  20.627   4.178
 3876W        W75459   3.461  37.304  12.545
 3877W        W75460  29.649  10.261   3.104
 3878W        W75461  21.151  17.680   0.680
 3879W        W75462  19.780  31.028  11.963
 3880W        W75463  24.197  28.992   2.965
 3881W        W75464  14.862  11.638   4.808
 3882W        W75465  20.334   8.933  10.259
 3883W        W75466   3.568   2.289  13.456
 3884W        W75467  25.094  42.745   0.377
 3885W        W75468  37.125  14.622   3.802
 3886W        W75469   3.903   7.740  11.032
 3887W        W75470  12.534   3.862  14.848
 3888W        W75471  40.972  16.086  11.907
 3889W        W75472  31.490  40.286  12.949
 3890W        W75473  14.253  29.307   1.510
 3891W        W75474  22.567   1.387   3.158
 3892W        W75475  11.127  34.101   2.735
 3893W        W75476  31.417  20.103  11.950
 3894W        W75477  31.391  39.355   1.397
 3895W        W75478   2.453  33.573   1.785
 3896W        W75479  22.980  23.606   2.675
 3897W        W75480  18.140  33.347  11.383
 3898W        W75481  40.861   9.241  11.091
 3899W        W75482   4.735  22.752  14.283
 3900W        W75483   2.828  29.254  14.882
 3901W        W75484  30.658  19.925   2.753
 3902W        W75485  43.025  12.691   0.233
 3903W        W75486  37.938   5.966   4.549
 3904W        W75487   9.374  21.177  13.421
 3905W        W75488  26.071  14.302   0.314
 3906W        W75489  39.171  24.271  13.053
 3907W        W75490  38.830  10.832  13.954
 3908W        W75491  42.688  31.338  10.230
 3909W        W75492  44.495   4.047  14.490
 3910W        W75493  26.334  13.790  10.627
 3911W        W75494  30.317  22.595   9.751
 3912W        W75495  41.500  15.752  13.883
 3913W        W75496  33.008  40.288  12.543
 3914W        W75497   1.041  40.117   2.408
 3915W        W75498   7.824  42.953  12.365
 3916W        W75499   3.914  37.874  11.607
 3917W        W75500   2.705  17.236  12.717
 3918W        W75501  19.324  34.828  14.397
 3919W        W75502  23.613   4.314  14.808
 3920W        W75503  30.387  35.369   1.327
 3921W        W75504  31.502  14.998  10.766
 3922W        W75505   5.703   2.198  11.733
 3923W        W75506  44.849   6.741  10.609
 3924W        W75507  44.460   6.146  12.803
 3925W        W75508  36.516  11.121   2.656
 3926W        W75509  23.048   4.213   3.575
 3927W        W75510  19.215  36.359  13.270
 3928W        W75511  36.345   2.946  11.565
 3929W        W75512  11.123  42.536   4.367
 3930W        W75513  12.178  33.353  11.026
 3931W        W75514  12.819  41.256   0.748
 3932W        W75515  39.896  10.763  14.184
 3933W        W75516  12.816  19.954   4.415
 3934W        W75517  28.508  38.774  11.613
 3935W        W75518   5.719   0.640   0.026
 3936W        W75519   5.285  41.450  13.819
 3937W        W75520   4.256  35.851   0.037
 3938W        W75521  31.551   5.040  10.735
 3939W        W75522   8.916  13.163   3.181
 3940W        W75523  12.556  14.837   1.473
 3941W        W75524  26.221  40.579   1.686
 3942W        W75525  25.913  31.862   2.753
 3943W        W75526  31.995  30.338   4.952
 3944W        W75527  13.222   9.303   1.485
 3945W        W75528  42.545  39.600  12.932
 3946W        W75529  21.605   5.797   4.257
 3947W        W75530  19.842  12.317   4.479
 3948W        W75531  38.378  32.061   4.267
 3949W        W75532  38.745  24.334  11.048
 3950W        W75533  16.760  24.970  10.641
 3951W        W75534  40.118   6.024  12.441
 3952W        W75535   4.207  35.660   2.799
 3953W        W75536  17.762  13.184   1.771
 3954W        W75537  41.888  15.316   0.794
 3955W        W75538  38.025   0.749  10.283
 3956W        W75539  35.433  16.283  14.423
 3957W        W75540  28.612  21.654  12.014
 3958W        W75541  20.239   3.865  12.587
 3959W        W75542   1.771  38.117   3.243
 3960W        W75543  18.788   1.666  12.525
 3961W        W75544  30.174  31.661  10.624
 3962W        W75545  13.678  18.806   1.810
 3963W        W75546  11.097  11.414   0.978
 3964W        W75547  18.583  33.943   0.549
 3965W        W75548  34.996  25.260  13.962
 3966W        W75549  40.431  24.783  13.878
 3967W        W75550  39.263   0.547  13.316
 3968W        W75551   5.305   6.141  11.586
 3969W        W75552  29.785  40.088  10.836
 3970W        W75553  39.859   3.381  14.821
 3971W        W75554  11.172  10.860  12.467
 3972W        W75555  32.527  22.972  14.458
 3973W        W75556  38.043   0.623  10.781
 3974W        W75557  30.922  19.540  11.336
 3975W        W75558  23.103  24.776  14.742
 3976W        W75559  31.374  11.144   4.251
 3977W        W75560  32.495  31.484  12.539
 3978W        W75561  32.426   0.428   0.816
 3979W        W75562   3.355  10.654  14.168
 3980W        W75563  10.103   4.702  10.746
 3981W        W75564   8.009  14.702  10.517
 3982W        W75565   3.176   6.354   2.830
 3983W        W75566  19.233  27.624   3.431
 3984W        W75567  13.925  28.465  10.672
 3985W        W75568  31.136  19.658   2.792
 3986W        W75569   4.807  23.148  11.083
 3987W        W75570  34.000  39.942  10.546
 3988W        W75571  39.512   2.899   0.026
 3989W        W75572  13.111  35.495  14.923
 3990W        W75573  27.034  30.600  14.671
 3991W        W75574  15.835  43.932  14.330
 3992W        W75575  26.007   4.495  10.426
 3993W        W75576   4.738   4.824  13.616
 3994W        W75577   2.167  22.460   0.237
 3995W        W75578  43.269   9.865   0.436
 3996W        W75579  35.878   9.163  11.632
 3997W        W75580  30.951   6.437  13.832
 3998W        W75581   5.534  38.396   4.412
 3999W        W75582   5.167   4.942  13.889
 4000W        W75583  10.943   3.264   2.208
 4001W        W75584  40.782  15.691   0.980
 4002W        W75585  13.577  17.561   2.811
 4003W        W75586  26.693  36.092  10.778
 4004W        W75587  42.317   1.286   2.619
 4005W        W75588  37.931  23.477  14.492
 4006W        W75589  42.430  15.297   4.138
 4007W        W75590  44.423  34.482   1.160
 4008W        W75591  21.888  25.339   5.042
 4009W        W75592  34.569  31.941  14.104
 4010W        W75593  11.726  30.595  11.809
 4011W        W75594  14.881  17.139   1.260
 4012W        W75595  20.356  32.008  13.013
 4013W        W75596   9.656   1.714  13.137
 4014W        W75597   6.829  19.044   0.976
 4015W        W75598   8.911  24.702  14.012
 4016W        W75599  16.906  12.789   4.756
 4017W        W75600  22.448  38.384   4.261
 4018W        W75601   0.175  21.125  10.103
 4019W        W75602  23.659   5.341   2.808
 4020W        W75603  26.242  33.990  10.486
 4021W        W75604  14.665  41.308  12.507
 4022W        W75605  19.823  23.175   2.445
 4023W        W75606  15.562  25.964   4.537
 4024W        W75607  25.708  37.102  12.156
 4025W        W75608  33.849  13.240   2.078
 4026W        W75609  44.232  33.766  10.282
 4027W        W75610  15.377  14.497  11.711
 4028W        W75611  32.861  23.769   3.206
 4029W        W75612  33.649  22.451   4.686
 4030W        W75613  27.472   5.763  10.351
 4031W        W75614   9.309  18.246   1.792
 4032W        W75615  34.913  43.233  11.115
 4033W        W75616   5.891   6.643  13.578
 4034W        W75617  30.049   0.429  10.768
 4035W        W75618   4.941  35.434   0.643
 4036W        W75619  22.664  16.904  14.576
 4037W        W75620  30.152  23.436   0.003
 4038W        W75621  35.481  28.126   0.173
 4039W        W75622  44.014  44.913   0.779
 4040W        W75623  40.759  14.675   4.280
 4041W        W75624  43.512   6.727   2.209
 4042W        W75625  31.925  31.647  11.539
 4043W        W75626   4.509  43.400  10.599
 4044W        W75627  41.054  20.609   3.309
 4045W        W75628  18.836  41.958  13.614
 4046W        W75629  26.704  10.610   3.633
 4047W        W75630  38.792  23.559  11.190
 4048W        W75631  30.467   6.951   1.801
 4049W        W75632  23.303  36.364  11.376
 4050W        W75633  38.665   8.651   5.168
 4051W        W75634  43.473   3.282  14.886
 4052W        W75635  44.945  39.787   3.247
 4053W        W75636  18.525  34.135  11.861
 4054W        W75637  39.556   0.807  13.005
 4055W        W75638  21.375  15.075  14.432
 4056W        W75639  18.756   4.739   3.726
 4057W        W75640  31.479  30.697   0.464
 4058W        W75641  19.018  15.811  14.216
 4059W        W75642  18.063  24.604  13.824
 4060W        W75643  29.610  37.775  12.621
 4061W        W75644  23.711  15.465  11.431
 4062W        W75645   8.656  31.466   2.703
 4063W        W75646   1.582  21.906   1.472
 4064W        W75647   0.934  26.441  14.983
 4065W        W75648  16.625   0.326  12.888
 4066W        W75649  24.775  23.622   1.419
 4067W        W75650  26.999  34.815  13.463
 4068W        W75651  32.785  44.880   0.329
 4069W        W75652  40.118  42.730   2.201
 4070W        W75653  16.191  12.813   2.652
 4071W        W75654  34.406  34.654   0.143
 4072W        W75655  33.411  24.058  11.507
 4073W        W75656  37.879   3.778   2.076
 4074W        W75657  21.515   0.222  13.091
 4075W        W75658   1.526  19.725   2.876
 4076W        W75659   0.391  18.595  12.782
 4077W        W75660  23.716  42.928  12.848
 4078W        W75661  21.276   6.909  10.549
 4079W        W75662  38.538  34.408  13.756
 4080W        W75663  33.603  13.924  13.862
 4081W        W75664  11.384  21.276   0.275
 4082W        W75665  10.673  11.076   0.964
 4083W        W75666  24.940  23.910  12.045
 4084W        W75667   5.400  34.677   0.792
 4085W        W75668  18.387  35.809   3.169
 4086W        W75669  16.283  34.891  10.026
 4087W        W75670   0.750  23.006   1.413
 4088W        W75671   2.817  13.816   2.312
 4089W        W75672  41.345  43.112  13.100
 4090W        W75673  14.738  43.851   2.200
 4091W        W75674   3.141  29.579   1.023
 4092W        W75675   8.160   6.668   4.576
 4093W        W75676  12.330  38.773   4.179
 4094W        W75677  43.207   0.045   1.114
 4095W        W75678  41.558  13.265   3.713
 4096W        W75679   1.708  18.731  14.139
 4097W        W75680  35.095   0.608   0.438
 4098W        W75681   4.668  36.826   2.419
 4099W        W75682  39.492   0.763   0.783
 4100W        W75683  44.975  19.577   1.733
 4101W        W75684   2.646  18.523   2.773
 4102W        W75685  11.586   2.190  13.440
 4103W        W75686  43.708   2.495  13.965
 4104W        W75687  24.196   0.302   3.369
 4105W        W75688  18.857  43.277  11.494
 4106W        W75689  18.666  26.219   1.319
 4107W        W75690   7.118  38.922   0.326
 4108W        W75691  11.299   2.914   2.754
 4109W        W75692  42.913   5.263  13.571
 4110W        W75693  31.013   8.901   3.286
 4111W        W75694  29.017   2.732  14.109
 4112W        W75695   3.054  27.417   0.283
 4113W        W75696  35.686  19.687   4.095
 4114W        W75697  27.561  36.908   3.418
 4115W        W75698  38.511  33.978   3.223
 4116W        W75699  15.217  28.632   3.402
 4117W        W75700  20.762  42.008  13.312
 4118W        W75701  26.646  35.462   2.940
 4119W        W75702  12.713  38.845  14.068
 4120W        W75703  16.197  37.024   2.892
 4121W        W75704  25.488  10.405   1.856
 4122W        W75705  39.281  22.845   1.281
 4123W        W75706  28.038  20.574  10.718
 4124W        W75707  20.495  19.215   4.448
 4125W        W75708  11.896  22.768  13.519
 4126W        W75709  21.640  24.248  11.938
 4127W        W75710  35.088  43.475   4.131
 4128W        W75711   6.446   8.364  14.366
 4129W        W75712  29.035  34.486  10.976
 4130W        W75713  39.462  26.731   0.866
 4131W        W75714  34.996  36.080   1.927
 4132W        W75715  12.730  36.160  12.867
 4133W        W75716  11.330   8.562  14.424
 4134W        W75717  28.186   5.923  13.440
 4135W        W75718  20.215   9.651  10.964
 4136W        W75719   4.864   6.380   2.754
 4137W        W75720   0.012  29.257   2.330
 4138W        W75721  15.764   4.900   4.525
 4139W        W75722  12.144  36.390   4.702
 4140W        W75723  23.994  18.641  10.693
 4141W        W75724  10.126   2.900   9.859
 4142W        W75725  21.258  42.440   1.227
 4143W        W75726  35.112  17.526  12.287
 4144W        W75727  18.215  11.415  12.117
 4145W        W75728  35.832  19.791  12.493
 4146W        W75729  28.658   8.278   1.664
 4147W        W75730  35.027  34.022   3.330
 4148W        W75731  14.250  31.021  12.471
 4149W        W75732  14.088  35.294  13.549
 4150W        W75733  28.054   5.796  11.624
 4151W        W75734  30.227   2.193  12.511
 4152W        W75735  24.235  44.527   4.669
 4153W        W75736  42.807  38.053   3.608
 4154W        W75737  29.643  28.230  13.443
 4155W        W75738  19.571  27.932  10.998
 4156W        W75739  40.886  13.246  14.523
 4157W        W75740  33.844  32.502   3.016
 4158W        W75741  34.489  38.963  10.664
 4159W        W75742  18.262  21.434  14.324
 4160W        W75743  27.672  20.714  13.869
 4161W        W75744   5.727  27.091   3.307
 4162W        W75745  41.321   4.455   3.597
 4163W        W75746  16.302  29.078  13.783
 4164W        W75747  17.358  35.749   1.789
 4165W        W75748  24.064  14.192   1.772
 4166W        W75749  39.319  20.539   4.118
 4167W        W75750  22.649  31.968  10.571
 4168W        W75751  38.230  24.222  11.067
 4169W        W75752  11.880  26.112   1.456
 4170W        W75753   8.069  14.560   2.097
 4171W        W75754  33.380   6.783  14.426
 4172W        W75755   1.289  34.132  11.892
 4173W        W75756  35.450  16.157   2.393
 4174W        W75757   1.930  33.001   3.838
 4175W        W75758  40.481  20.141  13.353
 4176W        W75759   0.978  37.963  14.391
 4177W        W75760  23.540  35.633  13.925
 4178W        W75761  42.064  22.659   2.663
 4179W        W75762  40.442  42.794  12.282
 4180W        W75763   1.731  38.725  12.804
 4181W        W75764  41.336   0.671   1.409
 4182W        W75765  23.650  34.397   3.247
 4183W        W75766  22.510   5.254   2.454
 4184W        W75767  34.114  20.252  14.938
 4185W        W75768  38.880  34.364  10.204
 4186W        W75769  38.901  21.454  10.149
 4187W        W75770  18.124  17.207  12.068
 4188W        W75771   1.345  17.054   1.057
 4189W        W75772  17.177  40.982   0.328
 4190W        W75773  25.634  39.649   3.314
 4191W        W75774   3.789  15.040  12.137
 4192W        W75775   4.898  13.179  12.111
 4193W        W75776  31.121   9.378  13.944
 4194W        W75777  21.414  34.341  10.972
 4195W        W75778  29.060  42.032   2.794
 4196W        W75779  18.543  27.435   3.708
 4197W        W75780  40.968   8.747  11.045
 4198W        W75781  33.895  44.192  13.722
 4199W        W75782  26.788   4.699   2.701
 4200W        W75783  23.992  25.895  12.895
 4201W        W75784  14.809  37.677   3.141
 4202W        W75785  32.614   4.108  10.848
 4203W        W75786  43.783  41.776   3.976
 4204W        W75787   2.042  29.698  14.061
 4205W        W75788  23.785  44.557  11.479
 4206W        W75789  25.274   4.370  12.994
 4207W        W75790  42.690  41.717  11.987
 4208W        W75791   7.336  34.658  13.370
 4209W        W75792  11.587  18.776   3.990
 4210W        W75793  26.094  36.399   4.366
 4211W        W75794  24.189   0.067  14.833
 4212W        W75795  25.251  43.514   4.385
 4213W        W75796   8.735   5.289  11.098
 4214W        W75797  11.838  35.521  13.913
 4215W        W75798   2.968  42.628  11.152
 4216W        W75799  41.663  30.556  13.905
 4217W        W75800  15.366   0.477  14.445
 4218W        W75801  38.114  32.058  13.730
 4219W        W75802  20.312  37.928  12.492
 4220W        W75803  31.155  10.141  13.374
 4221W        W75804  14.196  11.937   3.650
 4222W        W75805  25.931   5.367   3.960
 4223W        W75806  24.563  17.706   3.356
 4224W        W75807  29.960  23.640   3.151
 4225W        W75808   0.567  13.352   2.556
 4226W        W75809  40.494   6.177  14.531
 4227W        W75810   3.697  14.591  12.887
 4228W        W75811  26.693  44.778  11.912
 4229W        W75812  34.059  23.374   2.796
 4230W        W75813   9.700  10.171  12.841
 4231W        W75814  25.253  28.544   3.194
 4232W        W75815  22.177   6.436  11.989
 4233W        W75816  13.388  40.703   4.054
 4234W        W75817  16.877  11.540   4.543
 4235W        W75818  18.391  35.094  11.324
 4236W        W75819  27.820   1.678   0.344
 4237W        W75820   2.501  41.872   3.184
 4238W        W75821  40.425   2.267   0.730
 4239W        W75822  22.491   8.225   1.341
 4240W        W75823  38.489  29.650   0.158
 4241W        W75824  43.815  19.033  12.460
 4242W        W75825   8.421  15.147  11.075
 4243W        W75826  43.358  14.208  10.450
 4244W        W75827  44.408  12.188  12.075
 4245W        W75828  40.321  40.832  13.467
 4246W        W75829  25.485  34.611  14.943
 4247W        W75830  18.533  39.582  13.871
 4248W        W75831  39.823  29.060  14.953
 4249W        W75832  33.005  25.309  11.945
 4250W        W75833  15.240   1.832   3.325
 4251W        W75834  19.717  25.119  10.666
 4252W        W75835  36.207  15.142   4.833
 4253W        W75836  42.071  22.068   1.274
 4254W        W75837   1.889  17.415   3.987
 4255W        W75838  25.006  11.897  14.644
 4256W        W75839  40.839  24.022  12.317
 4257W        W75840   5.244  15.256   4.607
 4258W        W75841  33.971  35.631  13.523
 4259W        W75842  32.962  27.839  12.834
 4260W        W75843  20.701  22.974  11.669
 4261W        W75844  33.339  42.900  14.311
 4262W        W75845  20.773  38.871   0.377
 4263W        W75846  27.838  29.948  11.263
 4264W        W75847  36.595  39.356  14.269
 4265W        W75848   8.179   1.530   0.371
 4266W        W75849   3.922  31.910   3.174
 4267W        W75850  10.300  32.160  14.757
 4268W        W75851   4.551  30.222  11.309
 4269W        W75852  37.813   8.024   0.242
 4270W        W75853  17.921  25.807  12.650
 4271W        W75854  39.410  42.451   4.576
 4272W        W75855   6.613  28.134  11.164
 4273W        W75856  25.788  23.433   1.330
 4274W        W75857  13.413  41.310   1.790
 4275W        W75858  21.513  37.516   2.295
 4276W        W75859  32.087  40.344  13.427
 4277W        W75860  25.981  42.408   2.728
 4278W        W75861  20.485  42.061   2.749
 4279W        W75862  16.847  12.126   0.439
 4280W        W75863  38.282  14.509  11.967
 4281W        W75864  11.787  29.053  12.097
 4282W        W75865  37.859  30.647  14.462
 4283W        W75866  18.654  16.747  12.469
 4284W        W75867  11.901  13.827   3.824
 4285W        W75868  28.971  25.082   1.425
 4286W        W75869  38.906  37.262  13.431
 4287W        W75870  16.159  35.365   1.429
 4288W        W75871  29.035   4.154  11.127
 4289W        W75872  15.213  24.723   4.879
 4290W        W75873  16.009  39.996  10.665
 4291W        W75874   8.341  41.111  11.152
 4292W        W75875  21.556  43.656  11.830
 4293W        W75876   3.346  37.859  12.833
 4294W        W75877  19.781  43.498   0.611
 4295W        W75878  33.879  15.550   3.398
 4296W        W75879  11.929  36.114   5.116
 4297W        W75880   7.504  42.439   2.326
 4298W        W75881  36.857  22.279  10.574
 4299W        W75882  36.415   5.232  12.250
 4300W        W75883  15.736  25.320   0.138
 4301W        W75884   5.954   7.292   1.659
 4302W        W75885  15.345  36.240  13.868
 4303W        W75886  29.610  38.104   0.358
 4304W        W75887  17.235  10.794  10.794
 4305W        W75888   4.991  44.970  12.461
 4306W        W75889  20.147  35.432  11.646
 4307W        W75890  19.821  36.389   0.272
 4308W        W75891   6.688   5.804   2.837
 4309W        W75892  25.550  19.028   4.844
 4310W        W75893  19.930  20.627  12.029
 4311W        W75894  34.524  38.351  12.792
 4312W        W75895  14.279  42.442  10.697
 4313W        W75896   3.644  28.147   2.250
 4314W        W75897  13.399  30.510  10.270
 4315W        W75898  16.973  27.903  12.510
 4316W        W75899   0.081  21.410  10.979
 4317W        W75900  36.484  41.579   1.180
 4318W        W75901  27.663  16.152   0.951
 4319W        W75902  33.693  20.588  13.384
 4320W        W75903  21.131  23.729   0.762
 4321W        W75904  35.502   7.891  12.003
 4322W        W75905   1.262  29.140  14.933
 4323W        W75906  38.015  41.017  13.928
 4324W        W75907  16.539  40.580   2.431
 4325W        W75908   9.079  11.325   1.654
 4326W        W75909  10.767  25.130  11.571
 4327W        W75910   9.727   3.402  11.580
 4328W        W75911  13.717   6.741   1.467
 4329W        W75912  33.972  22.390  12.709
 4330W        W75913  27.129  26.977  12.155
 4331W        W75914  23.622  38.068  14.876
 4332W        W75915  10.233   3.677  14.628
 4333W        W75916  28.078  24.945  12.466
 4334W        W75917  24.545  12.258  13.848
 4335W        W75918  44.901  16.619   0.500
 4336W        W75919  27.961  33.171   2.838
 4337W        W75920  28.038  13.741   4.908
 4338W        W75921  17.159  35.900  12.961
 4339W        W75922  10.784  39.234  11.559
 4340W        W75923  30.666  27.994  13.509
 4341W        W75924  41.832  42.066   4.832
 4342W        W75925  25.726   5.729   0.356
 4343W        W75926   2.866  23.953   3.411
 4344W        W75927   1.917   2.878   0.042
 4345W        W75928  31.542   4.746  12.501
 4346W        W75929  35.920  22.177   0.864
 4347W        W75930  12.713  28.101   0.950
 4348W        W75931  43.751  29.139   2.665
 4349W        W75932  33.107  32.357  11.657
 4350W        W75933   0.350  36.364   3.654
 4351W        W75934  44.720  22.045   0.813
 4352W        W75935  36.061  37.585  11.984
 4353W        W75936   8.239   5.773  13.988
 4354W        W75937  41.853  18.551  10.589
 4355W        W75938  27.430  42.900   3.848
 4356W        W75939  20.158   9.829  14.208
 4357W        W75940  39.898  44.267   4.528
 4358W        W75941  19.226  21.211   0.773
 4359W        W75942  37.974   0.237   4.544
 4360W        W75943  19.813  24.063  11.991
 4361W        W75944  34.594  29.060   0.686
 4362W        W75945  18.725   3.376   2.351
 4363W        W75946   5.700  42.968   3.347
 4364W        W75947  27.161  20.764  14.159
 4365W        W75948   0.958   9.318   1.789
 4366W        W75949  14.149  36.079   2.306
 4367W        W75950  14.183   8.236  13.012
 4368W        W75951  21.266  29.624   4.988
 4369W        W75952  14.557  39.419   2.307
 4370W        W75953  19.720  30.466  12.095
 4371W        W75954  34.394   2.100   1.855
 4372W        W75955  13.188   5.113  13.289
 4373W        W75956  39.021  28.616   1.898
 4374W        W75957  20.207  19.840   0.749
 4375W        W75958   8.384   4.405   2.406
 4376W        W75959  22.754  34.871   2.758
 4377W        W75960  37.262   8.823   3.019
 4378W        W75961  41.753  42.824   2.835
 4379W        W75962  20.630  26.594   3.309
 4380W        W75963  30.889  41.057   0.409
 4381W        W75964  24.698  17.642  14.234
 4382W        W75965  34.949   4.744   2.398
 4383W        W75966  44.408  13.172   1.469
 4384W        W75967  16.844  19.220  12.896
 4385W        W75968   2.910  13.668   0.671
 4386W        W75969  26.100  16.316  12.439
 4387W        W75970  42.201  40.661  13.416
 4388W        W75971  38.751  15.254   4.727
 4389W        W75972  15.673  19.999  12.871
 4390W        W75973   9.274   5.030  13.601
 4391W        W75974  18.481  14.621  11.008
 4392W        W75975   8.630  27.234  14.851
 4393W        W75976  26.631  15.553   4.078
 4394W        W75977  26.528  19.992  14.175
 4395W        W75978  21.591  41.786   1.945
 4396W        W75979   7.690  14.238  11.708
 4397W        W75980  24.761  41.826   3.296
 4398W        W75981  21.543   0.035  12.097
 4399W        W75982  19.448  21.504   3.681
 4400W        W75983   1.227  30.154   2.537
 4401W        W75984   2.778   3.971   1.820
 4402W        W75985  29.116  27.120   4.074
 4403W        W75986  29.631  13.603  14.916
 4404W        W75987  25.171  30.890  10.676
 4405W        W75988  10.946  43.349  12.965
 4406W        W75989   4.903  35.578   4.100
 4407W        W75990   1.288  39.909   4.727
 4408W        W75991  33.131  20.246   4.332
 4409W        W75992  21.167  27.721  14.068
 4410W        W75993  16.026  24.518   1.121
 4411W        W75994  40.585   8.789   1.224
 4412W        W75995  34.042   0.065   1.200
 4413W        W75996  16.508  42.973   0.490
 4414W        W75997  28.686   0.916   0.360
 4415W        W75998   2.772  39.019   3.786
 4416W        W75999  44.480  19.170  10.603
 4417W        W76000   9.467  26.707  11.528
 4418W        W76001  32.345  26.144  12.550
 4419W        W76002  43.361   6.955  12.930
 4420W        W76003  39.054  24.399  13.540
 4421W        W76004  35.770   0.389  11.628
 4422W        W76005  38.369  13.305  13.972
 4423W        W76006  29.693   2.934   2.730
 4424W        W76007  16.794  23.003   2.818
 4425W        W76008  24.595  27.838   1.817
 4426W        W76009  42.405  37.906  12.953
 4427W        W76010  11.345  33.236  12.567
 4428W        W76011  29.995  30.305  10.691
 4429W        W76012  18.633  12.703  13.107
 4430W        W76013   5.693  16.091  12.066
 4431W        W76014  41.983  32.990   0.460
 4432W        W76015  37.104  42.569   2.907
 4433W        W76016   9.658  41.387  10.430
 4434W        W76017  35.750   6.892  10.807
 4435W        W76018  39.007  25.061   3.283
 4436W        W76019  13.777  28.670   4.576
 4437W        W76020  32.590   6.952  12.829
 4438W        W76021  33.937  36.667  13.515
 4439W        W76022  18.494  16.050  11.493
 4440W        W76023  23.817   6.489  11.141
 4441W        W76024  38.491  23.813   0.867
 4442W        W76025   1.043   1.826  11.652
 4443W        W76026  10.277  24.969  13.725
 4444W        W76027  37.990  18.208  11.197
 4445W        W76028   6.311  10.428   1.915
 4446W        W76029  14.657  13.610   3.325
 4447W        W76030  17.340  23.243  10.596
 4448W        W76031   0.750  16.072  13.300
 4449W        W76032   2.197  19.477   0.068
 4450W        W76033  27.489  43.861   4.685
 4451W        W76034   8.199  26.961  14.967
 4452W        W76035   0.480   3.259   1.707
 4453W        W76036   5.740  10.614  13.791
 4454W        W76037  11.280   9.626  14.825
 4455W        W76038   8.268   7.770  14.316
 4456W        W76039  34.885  43.731  11.004
 4457W        W76040  31.486   5.668  12.391
 4458W        W76041  22.668  30.356   3.071
 4459W        W76042  31.498  27.481   1.956
 4460W        W76043  34.183   8.241   4.668
 4461W        W76044  16.802  22.251   0.881
 4462W        W76045  44.785   6.144   2.801
 4463W        W76046  30.711   4.286  13.603
 4464W        W76047  23.434   7.811   0.793
 4465W        W76048  28.013  16.658  13.951
 4466W        W76049  26.890  31.509   5.003
 4467W        W76050  14.592  20.219   4.107
 4468W        W76051  13.322   5.375  11.882
 4469W        W76052   6.879  30.969   3.684
 4470W        W76053  13.235  43.227  11.697
 4471W        W76054  42.306  15.006   0.905
 4472W        W76055  19.008  32.745   0.070
 4473W        W76056  12.511   7.797   1.912
 4474W        W76057  21.717  40.421   2.404
 4475W        W76058  21.418  16.349   3.400
 4476W        W76059  37.630  22.108   3.481
 4477W        W76060  37.027  25.691   1.473
 4478W        W76061   3.235  35.639  11.500
 4479W        W76062  30.205  34.985   3.284
 4480W        W76063  13.927   8.657   3.251
 4481W        W76064  16.372   6.213   1.655
 4482W        W76065  42.348  24.285   0.814
 4483W        W76066  38.475  19.671  10.721
 4484W        W76067  42.389   6.889  11.495
 4485W        W76068   4.751  41.391  12.412
 4486W        W76069  25.011  44.314  13.055
 4487W        W76070  27.088  39.290  11.657
 4488W        W76071  25.221  29.475  11.151
 4489W        W76072  27.319  30.543   1.566
 4490W        W76073  41.011  33.301  12.512
 4491W        W76074   5.751  26.122   0.362
 4492W        W76075  14.238  34.473  11.094
 4493W        W76076  25.266  44.513   4.086
 4494W        W76077  23.787  30.982   0.380
 4495W        W76078  23.084  11.684   0.049
 4496W        W76079  21.614  12.327  12.639
 4497W        W76080  43.445  18.112  12.462
 4498W        W76081   3.831  14.136  10.600
 4499W        W76082  15.811  19.865  13.339
 4500W        W76083  11.920  37.789   2.046
 4501W        W76084  14.640  18.522  10.652
 4502W        W76085   2.174  44.851   1.918
 4503W        W76086  32.623  22.923   3.110
 4504W        W76087  28.592  31.751  13.856
 4505W        W76088  37.458   1.665  12.066
 4506W        W76089  31.979  36.434   4.493
 4507W        W76090  30.089   1.264  11.660
 4508W        W76091  18.886  14.211   3.648
 4509W        W76092  19.161  12.943  11.035
 4510W        W76093  30.086  15.553   3.263
 4511W        W76094   7.138   7.190   3.686
 4512W        W76095  38.064  34.185   4.409
 4513W        W76096  37.744  42.817   1.293
 4514W        W76097  27.478  18.801  13.415
 4515W        W76098  25.207   4.351   3.701
 4516W        W76099  25.528  14.643  12.200
 4517W        W76100  17.006  44.981   4.193
 4518W        W76101  22.689  41.779   4.204
 4519W        W76102  15.653  27.688   0.192
 4520W        W76103  20.433  41.531  12.607
 4521W        W76104  32.910  17.062  11.610
 4522W        W76105  15.511  41.412  12.123
 4523W        W76106  38.619  30.519   0.705
 4524W        W76107  20.709   1.480  11.117
 4525W        W76108   3.744   1.967   1.448
 4526W        W76109  42.492   7.307  12.409
 4527W        W76110  11.096  40.860  11.145
 4528W        W76111  16.054   4.806  13.459
 4529W        W76112   8.220   5.921  12.594
 4530W        W76113  18.772   1.984   0.839
 4531W        W76114   2.212  41.181  10.468
 4532W        W76115  22.691   1.720   4.417
 4533W        W76116  23.118  31.603  13.991
 4534W        W76117   7.780  22.618  12.633
 4535W        W76118  42.489  25.974   1.178
 4536W        W76119  44.839  30.330  12.052
 4537W        W76120  23.975  20.078   2.347
 4538W        W76121   8.645  40.000   4.843
 4539W        W76122  20.061  30.384   3.233
 4540W        W76123  44.880  17.744   2.617
 4541W        W76124  20.113   0.999   9.951
 4542W        W76125  41.777  20.313  10.732
 4543W        W76126  19.655  34.797   4.163
 4544W        W76127  33.034  26.084  12.817
 4545W        W76128  11.935  24.064   1.768
 4546W        W76129   2.635  35.151   0.235
 4547W        W76130  41.346  41.216   4.744
 4548W        W76131   1.804  27.127  14.721
 4549W        W76132  43.061   7.175   0.979
 4550W        W76133  42.642   5.772  11.128
 4551W        W76134  41.728  21.802  11.100
 4552W        W76135  37.528   5.806  14.726
 4553W        W76136  21.523  16.047  14.006
 4554W        W76137  35.479  36.963  13.134
 4555W        W76138  40.326  44.406  10.288
 4556W        W76139  15.751  11.929   4.984
 4557W        W76140  23.996  37.894  11.981
 4558W        W76141  20.764  30.190  10.307
 4559W        W76142  40.373  20.101  11.077
 4560W        W76143   3.023  16.591   3.277
 4561W        W76144   1.411  39.780   2.246
 4562W        W76145  27.659  43.297  11.147
 4563W        W76146  21.455  24.055  12.897
 4564W        W76147  15.429  43.470  14.908
 4565W        W76148   2.250  31.592  10.743
 4566W        W76149  36.055  12.036   1.270
 4567W        W76150  10.683  42.786   1.354
 4568W        W76151   1.929  44.391   1.992
 4569W        W76152  44.762  26.182  14.410
 4570W        W76153  19.248  17.973  14.852
 4571W        W76154   4.737  16.115   2.926
 4572W        W76155  18.813   0.329   3.934
 4573W        W76156  44.042   7.789  11.479
 4574W        W76157  29.594  42.319   4.030
 4575W        W76158  30.761  34.756  13.337
 4576W        W76159  14.156  42.722   4.118
 4577W        W76160  10.471  36.037  12.800
 4578W        W76161  38.012  16.231  14.349
 4579W        W76162  17.378   0.688  14.393
 4580W        W76163  19.212  29.087   2.866
 4581W        W76164  27.406  31.952  14.266
 4582W        W76165  15.078  38.298   0.988
 4583W        W76166   8.105  42.989   4.097
 4584W        W76167   5.299  27.142   4.724
 4585W        W76168  44.984   1.374  13.511
 4586W        W76169  34.404  12.026   3.063
 4587W        W76170   8.748  21.495   3.376
 4588W        W76171  26.522  29.483  11.178
 4589W        W76172  29.109  20.662   5.073
 4590W        W76173   4.269   9.369  14.079
 4591W        W76174  39.531  40.557   4.699
 4592W        W76175  16.468   8.717  11.970
 4593W        W76176  31.164  32.537  13.036
 4594W        W76177  23.604   8.577  12.408
 4595W        W76178  39.458  18.835   2.168
 4596W        W76179  15.387  15.280  14.013
 4597W        W76180  23.085  34.947   3.713
 4598W        W76181  16.505  38.853  10.634
 4599W        W76182  44.202  23.343   2.294
 4600W        W76183  20.618  28.634  14.441
 4601W        W76184   2.667  39.096  10.784
 4602W        W76185  11.714  21.389   2.264
 4603W        W76186   5.261   1.811  13.555
 4604W        W76187  38.898  21.171  13.337
 4605W        W76188  26.955  36.003  13.756
 4606W        W76189  19.842  21.522  12.084
 4607W        W76190  13.927   1.768   3.040
 4608W        W76191   1.914  37.274  11.817
 4609W        W76192  18.508  27.475  14.897
 4610W        W76193   0.112  43.791  12.998
 4611W        W76194   7.836  30.867   0.597
 4612W        W76195  27.384  40.503   0.210
 4613W        W76196  22.793   1.121   2.767
 4614W        W76197   6.250  41.539   0.325
 4615W        W76198  15.411  11.237  10.529
 4616W        W76199  16.195   7.325   2.722
 4617W        W76200  16.238  32.523  12.917
 4618W        W76201   4.960   8.434  11.259
 4619W        W76202  41.586  34.919  14.023
 4620W        W76203   3.473  18.744   1.183
 4621W        W76204  15.586  25.930   3.595
 4622W        W76205  35.733  12.908   4.711
 4623W        W76206  21.258  13.592  10.809
 4624W        W76207  31.530  12.369  12.637
 4625W        W76208  20.811   3.302  11.220
 4626W        W76209  36.705  20.155   2.149
 4627W        W76210  34.397  12.195   3.555
 4628W        W76211   5.835   8.985   3.107
 4629W        W76212  12.640  34.185   2.051
 4630W        W76213  32.333  37.241   0.453
 4631W        W76214   4.251  12.745   3.141
 4632W        W76215  27.076  22.408  12.265
 4633W        W76216  35.338  40.753   2.825
 4634W        W76217  11.583  18.551  12.392
 4635W        W76218  39.884  34.688   4.653
 4636W        W76219  13.625  27.969  11.579
 4637W        W76220  11.254  25.258  10.753
 4638W        W76221  35.075   3.924  10.751
 4639W        W76222  16.193  30.709   4.157
 4640W        W76223  44.751  18.192   4.836
 4641W        W76224  22.650  17.901   1.598
 4642W        W76225  35.593  29.380   2.964
 4643W        W76226  23.581   4.086  12.531
 4644W        W76227  14.622   8.812  14.007
 4645W        W76228  11.321  21.323   4.497
 4646W        W76229  28.888  42.396   0.348
 4647W        W76230  36.928  11.884  12.583
 4648W        W76231  20.611   9.645  14.398
 4649W        W76232  22.670  24.616   3.667
 4650W        W76233   9.648   6.408   1.781
 4651W        W76234  22.994  35.608   4.129
 4652W        W76235  38.294   9.509   2.714
 4653W        W76236  27.323  30.660   3.334
 4654W        W76237   2.815  11.298   3.175
 4655W        W76238  31.660   7.334   2.747
 4656W        W76239  19.589  39.293  12.492
 4657W        W76240  41.151  24.264  11.502
 4658W        W76241   2.239  27.708   4.113
 4659W        W76242  31.491   6.880   0.261
 4660W        W76243  17.669  31.438  10.732
 4661W        W76244  40.367  19.708   4.064
 4662W        W76245  23.407  19.828  12.960
 4663W        W76246   5.685   1.130   3.375
 4664W        W76247  29.999   1.376  13.919
 4665W        W76248   0.226   0.403  14.346
 4666W        W76249   4.416   5.673   4.187
 4667W        W76250  24.060   3.906  11.172
 4668W        W76251   3.725  14.940   3.947
 4669W        W76252   0.241   2.393  14.478
 4670W        W76253  15.739  23.970  13.450
 4671W        W76254  42.255  37.990   1.665
 4672W        W76255  43.530  18.144   2.937
 4673W        W76256  33.471  38.353  14.008
 4674W        W76257   0.344  29.312   4.111
 4675W        W76258  44.236  43.769   2.670
 4676W        W76259  15.125   9.509   3.800
 4677W        W76260   2.925  26.402  12.086
 4678W        W76261  16.665  12.542   4.347
 4679W        W76262   1.327  32.637   4.873
 4680W        W76263  40.747  43.409   1.968
 4681W        W76264  29.958  10.951  11.485
 4682W        W76265  11.598  35.880  11.469
 4683W        W76266  44.259  13.666   1.203
 4684W        W76267  12.162   2.273   3.254
 4685W        W76268  17.771  18.945   3.850
 4686W        W76269  40.539  16.753  13.839
 4687W        W76270  39.838  21.127  12.334
 4688W        W76271  28.978  31.560   2.832
 4689W        W76272   0.800  14.558  13.035
 4690W        W76273  10.610  39.686   3.882
 4691W        W76274   0.220  40.158  10.917
 4692W        W76275  17.563  27.083   0.816
 4693W        W76276  15.486   7.731   4.583
 4694W        W76277  11.527  44.646   2.814
 4695W        W76278  26.235   1.065   2.394
 4696W        W76279  12.626   1.671   1.310
 4697W        W76280  11.802  32.455  11.829
 4698W        W76281  29.920   3.273  14.878
 4699W        W76282  23.727   2.483   0.327
 4700W        W76283   2.285  42.006  12.513
 4701W        W76284   9.834  44.976  11.947
 4702W        W76285   6.297   0.859   0.214
 4703W        W76286  33.547  15.752  14.068
 4704W        W76287  19.509   3.866   4.197
 4705W        W76288  40.829   8.677  11.541
 4706W        W76289  11.798  24.328   3.602
 4707W        W76290  23.054   1.325   3.341
 4708W        W76291   0.663   4.448  11.130
 4709W        W76292  34.776   7.078  12.938
 4710W        W76293  35.532  39.564  12.058
 4711W        W76294  30.948   0.316   0.269
 4712W        W76295  21.645  17.754   1.438
 4713W        W76296   8.610  13.747  13.973
 4714W        W76297   5.711  11.178   3.712
 4715W        W76298  16.134   8.102  11.838
 4716W        W76299  28.428   0.770   4.641
 4717W        W76300  30.468  19.200   0.818
 4718W        W76301  33.905  27.007   3.233
 4719W        W76302  24.566  11.809  11.388
 4720W        W76303  15.126  34.492  12.099
 4721W        W76304  13.221  36.421   4.560
 4722W        W76305   0.393   8.679  12.092
 4723W        W76306  20.767  23.683  10.461
 4724W        W76307   7.353   0.144  12.725
 4725W        W76308  21.545  40.781   1.715
 4726W        W76309  40.393  15.478   1.763
 4727W        W76310  13.680  12.580   4.077
 4728W        W76311  44.528   9.705   0.004
 4729W        W76312  40.823  33.977   3.051
 4730W        W76313  40.353  42.402   3.710
 4731W        W76314  38.746  18.095   0.268
 4732W        W76315  37.482  30.627   1.441
 4733W        W76316  40.336   2.339   0.232
 4734W        W76317  19.726  23.993  13.422
 4735W        W76318  40.072  44.411  12.474
 4736W        W76319  26.559  23.827  13.248
 4737W        W76320   6.292  13.498  10.704
 4738W        W76321  21.737   0.849  11.501
 4739W        W76322  21.572  42.483   1.647
 4740W        W76323  16.165  31.923  13.517
 4741W        W76324  12.317  27.193  13.424
 4742W        W76325  25.020  12.610   3.244
 4743W        W76326  32.124  31.311   1.341
 4744W        W76327   2.562  27.269  11.171
 4745W        W76328  28.958  27.086   0.811
 4746W        W76329  38.043   5.352  12.107
 4747W        W76330   7.240  12.124   0.216
 4748W        W76331  31.487  42.297  11.254
 4749W        W76332  20.830  12.216  13.406
 4750W        W76333   6.456  41.023  14.269
 4751W        W76334  21.070   2.998  11.699
 4752W        W76335  13.302  28.069  14.792
 4753W        W76336  28.583  34.060  13.611
 4754W        W76337  43.030  36.125  13.619
 4755W        W76338  22.472   7.402   4.964
 4756W        W76339  28.747  19.880  14.915
 4757W        W76340  10.864   0.960  11.164
 4758W        W76341  22.991   2.453   2.382
 4759W        W76342  19.348  38.842  12.423
 4760W        W76343  12.781  11.656  11.376
 4761W        W76344  16.772  44.540  11.913
 4762W        W76345  17.645   7.297   1.023
 4763W        W76346  24.896  29.997   1.493
 4764W        W76347  11.361  11.757  10.430
 4765W        W76348  39.228   1.563   2.040
 4766W        W76349  42.905   1.725  10.746
 4767W        W76350  44.546  24.534   3.212
 4768W        W76351  28.087  17.755   4.954
 4769W        W76352  17.674  26.527  10.496
 4770W        W76353   7.341  10.953   3.855
 4771W        W76354  34.887  38.106  13.620
 4772W        W76355  12.847   3.850   1.278
 4773W        W76356  23.978   9.233  11.495
 4774W        W76357   1.888  22.747   2.819
 4775W        W76358  14.093  20.951   1.055
 4776W        W76359   2.759   8.047   2.417
 4777W        W76360  21.446  19.558   2.707
 4778W        W76361  28.970  29.500  13.235
 4779W        W76362  29.589  29.862  14.839
 4780W        W76363  37.499  40.441   2.285
 4781W        W76364  21.925  20.625   4.555
 4782W        W76365  27.665  11.876  14.336
 4783W        W76366  12.629  13.830  12.895
 4784W        W76367  36.816  24.215  11.224
 4785W        W76368  17.235  32.960  14.344
 4786W        W76369  28.025  12.043   0.940
 4787W        W76370   7.808  25.465   0.985
 4788W        W76371  39.875  11.172  14.526
 4789W        W76372   4.849  18.277   0.941
 4790W        W76373  42.598   4.414   3.141
 4791W        W76374   8.180   0.471  10.734
 4792W        W76375  10.924  10.510   0.793
 4793W        W76376   8.449  19.561   0.774
 4794W        W76377  13.254   6.002   0.967
 4795W        W76378  14.217  25.602   4.152
 4796W        W76379  10.186  10.832  11.568
 4797W        W76380  17.291   8.865   4.641
 4798W        W76381  43.769  12.569  14.469
 4799W        W76382  17.662  16.983  12.154
 4800W        W76383   1.830  17.368  11.461
 4801W        W76384  12.414  43.494  12.902
 4802W        W76385  18.434  10.152   4.723
 4803W        W76386  20.429  43.338  11.669
 4804W        W76387  12.471   0.641   2.346
 4805W        W76388  34.525   9.759   3.854
 4806W        W76389  16.181  24.143  12.046
 4807W        W76390  31.121  41.522   4.929
 4808W        W76391  23.031  36.098  12.604
 4809W        W76392   2.429  19.683   4.613
 4810W        W76393  17.608  38.373  13.652
 4811W        W76394  32.655  20.020   1.200
 4812W        W76395  29.429   8.487  10.699
 4813W        W76396   6.409  11.628   4.362
 4814W        W76397   9.360  32.644   2.641
 4815W        W76398  11.151  37.484   0.143
 4816W        W76399  22.875   9.693  13.631
 4817W        W76400  12.797  10.611  13.032
 4818W        W76401  28.660  26.175  14.752
 4819W        W76402  24.053  10.943  12.473
 4820W        W76403  28.255  14.456   2.521
 4821W        W76404   2.538  31.938   0.471
 4822W        W76405  42.621  36.898  10.686
 4823W        W76406   7.802  38.981   3.826
 4824W        W76407  32.522  14.075  10.710
 4825W        W76408  18.537  12.886  12.632
 4826W        W76409   6.979  18.715   2.124
 4827W        W76410  18.633  15.516  10.829
 4828W        W76411   5.512  27.164   2.841
 4829W        W76412   7.674   0.488  14.260
 4830W        W76413  23.730  29.582   4.326
 4831W        W76414   6.589  37.284   4.191
 4832W        W76415  19.311  29.427   3.693
 4833W        W76416  23.787  41.850   0.021
 4834W        W76417  12.394  23.029   2.106
 4835W        W76418  31.586  35.210   1.318
 4836W        W76419  20.800  21.244  10.514
 4837W        W76420  22.585  24.998  11.673
 4838W        W76421   5.465   1.833  12.224
 4839W        W76422   9.282   9.145  12.568
 4840W        W76423  27.997  19.260  12.093
 4841W        W76424  29.428  38.295  14.342
 4842W        W76425  10.175   7.162   3.110
 4843W        W76426  15.623   3.316  10.387
 4844W        W76427   4.841   1.104  13.790
 4845W        W76428  11.414  26.759  11.483
 4846W        W76429  27.210   8.686   0.683
 4847W        W76430  11.653  42.232   0.429
 4848W        W76431  42.945  44.361  13.102
 4849W        W76432  39.451  29.595  10.362
 4850W        W76433  13.860  11.159  14.903
 4851W        W76434  15.736  34.085  10.673
 4852W        W76435   4.438  22.703  12.948
 4853W        W76436  19.701   3.457   1.453
 4854W        W76437  19.102   3.830  12.420
 4855W        W76438  20.715  13.807   1.697
 4856W        W76439  16.566  40.991   4.029
 4857W        W76440  21.474  32.124  12.132
 4858W        W76441  44.782  26.995  14.740
 4859W        W76442  17.845  40.524   1.827
 4860W        W76443  10.956  19.035  13.347
 4861W        W76444  10.976  27.990  14.312
 4862W        W76445  28.397  20.247  12.510
 4863W        W76446  17.188  23.717  11.528
 4864W        W76447   7.290  21.173  14.081
 4865W        W76448  25.282  29.959   0.972
 4866W        W76449   2.863  30.706  13.595
 4867W        W76450   1.870  18.967  13.728
 4868W        W76451  36.558  42.439   1.740
 4869W        W76452  44.402  19.566   2.404
 4870W        W76453   8.505   5.933   4.046
 4871W        W76454   9.414  38.613   1.501
 4872W        W76455  36.744  18.614   3.326
 4873W        W76456   3.520  18.086  11.565
 4874W        W76457  36.643  41.713  10.565
 4875W        W76458   6.653   7.322  10.642
 4876W        W76459   8.838  26.202  13.932
 4877W        W76460   6.435  35.932   4.583
 4878W        W76461  38.132   1.423  12.490
 4879W        W76462  41.798  20.771  12.035
 4880W        W76463  12.197  14.745  12.782
 4881W        W76464   8.250  40.501  14.730
 4882W        W76465  25.879  18.634  11.690
 4883W        W76466   0.072   9.317   4.022
 4884W        W76467  21.189  37.688   2.855
 4885W        W76468  13.729   7.843  11.985
 4886W        W76469  11.147  36.542   3.155
 4887W        W76470  29.463  31.218   0.882
 4888W        W76471  43.531   7.243   2.792
 4889W        W76472   9.342  14.925   3.186
 4890W        W76473  31.851   7.302  13.476
 4891W        W76474  14.703   9.863  11.128
 4892W        W76475  23.835  17.236   2.803
 4893W        W76476  43.040  33.250  14.007
 4894W        W76477  40.732  15.531  13.558
 4895W        W76478  23.348  20.171  14.848
 4896W        W76479  31.978  16.072  12.440
 4897W        W76480  43.125  22.476   2.736
 4898W        W76481  35.981   8.649  11.591
 4899W        W76482  34.709  38.554  13.418
 4900W        W76483  35.333  32.428  12.309
 4901W        W76484  41.975   4.536   3.730
 4902W        W76485  12.032  35.625  11.316
 4903W        W76486  12.309   3.894   1.152
 4904W        W76487  30.199  25.711  10.714
 4905W        W76488  20.334  22.064   2.808
 4906W        W76489   5.793  24.572   4.141
 4907W        W76490  42.517   4.265   4.197
 4908W        W76491  44.769  28.417  14.372
 4909W        W76492  43.542  37.704  14.331
 4910W        W76493  40.624   5.792   9.805
 4911W        W76494  22.762  13.751  11.168
 4912W        W76495  15.603  38.083   3.705
 4913W        W76496   5.001  28.997   1.714
 4914W        W76497  20.534  41.522  14.333
 4915W        W76498   3.180   5.658   4.476
 4916W        W76499  10.151  30.897  11.539
 4917W        W76500  39.606  30.051  14.700
 4918W        W76501  17.149  38.940  13.974
 4919W        W76502  31.587  41.734   0.643
 4920W        W76503   0.974  21.644   1.715
 4921W        W76504  23.520   2.418   1.614
 4922W        W76505  38.268   6.423   0.698
 4923W        W76506   4.399   6.229   1.350
 4924W        W76507   8.625   3.098  14.781
 4925W        W76508   2.306  14.600  14.393
 4926W        W76509  44.972   7.885  14.277
 4927W        W76510  26.125   9.105  13.385
 4928W        W76511  20.665  34.049  11.494
 4929W        W76512  37.015  11.369   0.634
 4930W        W76513  10.181  41.027   0.456
 4931W        W76514  21.081  19.752  10.266
 4932W        W76515  37.138  15.304  10.818
 4933W        W76516   0.813  17.553  13.452
 4934W        W76517  38.650  38.341   4.242
 4935W        W76518  37.833  25.635   3.099
 4936W        W76519   4.355  17.258   4.635
 4937W        W76520  32.929  41.559  12.883
 4938W        W76521  41.244   6.088   0.533
 4939W        W76522  15.102  28.341   3.862
 4940W        W76523   7.859   9.513  14.882
 4941W        W76524  44.779   3.424   0.780
 4942W        W76525   3.282  38.300  13.515
 4943W        W76526  16.407  20.166   3.741
 4944W        W76527  17.774  31.493   4.276
 4945W        W76528  23.482   3.161  12.804
 4946W        W76529  30.055   0.799  14.775
 4947W        W76530  39.547  36.207  12.955
 4948W        W76531  19.337   9.361   2.321
 4949W        W76532  37.755  24.407  14.820
 4950W        W76533   1.008  25.739  12.008
 4951W        W76534   1.515  27.879   2.721
 4952W        W76535   9.879  37.850  12.879
 4953W        W76536  43.917   1.557  14.574
 4954W        W76537  23.101  29.002   1.468
 4955W        W76538  24.002  30.074   3.297
 4956W        W76539  27.912  26.012   0.807
 4957W        W76540   3.976  24.466  12.035
 4958W        W76541  21.760  39.485   4.939
 4959W        W76542  43.803  34.530  13.722
 4960W        W76543  44.332   7.877  11.932
 4961W        W76544  25.985  41.606  10.554
 4962W        W76545   8.466  43.880   0.630
 4963W        W76546  25.333  15.949   0.256
 4964W        W76547  25.789  10.076  14.450
 4965W        W76548  44.903   4.678  12.057
 4966W        W76549   5.905  21.700   2.206
 4967W        W76550   6.771  38.629   1.783
 4968W        W76551  27.273  32.734   4.107
 4969W        W76552  44.675  14.356  11.685
 4970W        W76553  36.350  42.025   4.668
 4971W        W76554  11.730  36.768   0.891
 4972W        W76555  16.541  22.572   3.650
 4973W        W76556  17.321  21.865  11.973
 4974W        W76557  19.555  11.164   2.763
 4975W        W76558   9.328   2.242   0.990
 4976W        W76559   9.567  11.053  13.466
 4977W        W76560   8.041   7.970  11.579
 4978W        W76561  41.600  33.022  13.914
 4979W        W76562  25.226  39.580  13.958
 4980W        W76563   9.082  18.192   4.514
 4981W        W76564  38.794  20.614  12.655
 4982W        W76565  15.670  23.266  12.869
 4983W        W76566   7.472  11.725   4.983
 4984W        W76567   1.009  32.834   3.847
 4985W        W76568  18.171  19.437  12.166
 4986W        W76569   3.807  11.169   3.589
 4987W        W76570   4.363   4.278  13.503
 4988W        W76571  22.745  18.037   5.528
 4989W        W76572  29.044  29.027  11.116
 4990W        W76573  41.418   8.347   3.769
 4991W        W76574   3.468  29.462  10.719
 4992W        W76575  27.037  31.659   0.307
 4993W        W76576  40.543  19.747   0.814
 4994W        W76577  21.137  12.862  11.493
 4995W        W76578  31.924   0.876   0.322
 4996W        W76579  39.452  13.745  10.781
 4997W        W76580  29.106  26.125   0.498
 4998W        W76581  18.792  32.042  14.905
 4999W        W76582  28.017  40.509  12.519
 5000W        W76583  21.731  19.036   1.880
 5001W        W76584   6.161  19.803  11.641
 5002W        W76585  10.198  34.869  11.066
 5003W        W76586  31.355  20.728  12.209
 5004W        W76587  34.116  30.826   3.824
 5005W        W76588  30.126  34.571  12.770
 5006W        W76589  18.767  18.106  13.515
 5007W        W76590   9.577  19.804   2.694
 5008W        W76591   4.932  13.126   2.280
 5009W        W76592  11.126  33.970   4.681
 5010W        W76593  27.003  14.737   2.182
 5011W        W76594   4.582   2.778   1.320
 5012W        W76595  32.469  22.614   0.806
 5013W        W76596   2.925  12.679   3.767
 5014W        W76597   4.677  19.311  14.410
 5015W        W76598   1.406  40.433   1.105
 5016W        W76599  40.070  32.075   0.466
 5017W        W76600   3.295  12.328  13.624
 5018W        W76601   3.772   7.721   3.106
 5019W        W76602  26.281  41.291   2.687
 5020W        W76603  26.881   4.413  13.486
 5021W        W76604  36.961   9.148   0.536
 5022W        W76605  33.611  25.955   0.539
 5023W        W76606   6.655  39.363  11.084
 5024W        W76607  39.451  11.190   3.830
 5025W        W76608  23.631  35.402   0.971
 5026W        W76609   4.431  44.823  12.562
 5027W        W76610   7.781   5.788  14.794
 5028W        W76611  43.492  35.993   2.200
 5029W        W76612  21.574  24.686   3.294
 5030W        W76613  28.143   0.939  10.156
 5031W        W76614  16.758   2.244   1.280
 5032W        W76615  36.475  24.252   0.858
 5033W        W76616  19.096  21.841  11.663
 5034W        W76617  33.758  43.385  14.398
 5035W        W76618  31.223  44.317  13.599
 5036W        W76619  22.800  25.016   0.420
 5037W        W76620   9.537  32.140   3.847
 5038W        W76621  43.743  32.961  14.517
 5039W        W76622  42.959  26.700   1.210
 5040W        W76623  15.995  35.747  13.353
 5041W        W76624  33.454  16.527   3.732
 5042W        W76625  44.722   1.314  12.438
 5043W        W76626  20.130  36.973   3.331
 5044W        W76627  41.417  17.235  11.526
 5045W        W76628  33.844  28.049  11.556
 5046W        W76629  24.266  39.552  12.448
 5047W        W76630  28.418  16.853   2.654
 5048W        W76631  12.994  12.702  12.643
 5049W        W76632   8.405  33.558   3.840
 5050W        W76633   8.745  42.443   0.259
 5051W        W76634  13.743  33.081   0.927
 5052W        W76635   0.177  44.433  11.540
 5053W        W76636   2.355  24.496   0.376
 5054W        W76637  10.092  18.717   1.811
 5055W        W76638  20.746  37.015   4.075
 5056W        W76639   3.311  21.533   2.812
 5057W        W76640  36.080   0.687   2.961
 5058W        W76641   9.381  35.572   3.251
 5059W        W76642  18.114  10.952  13.920
 5060W        W76643  27.682  43.456  10.660
 5061W        W76644  12.029  17.714   1.584
 5062W        W76645  28.041   4.792  10.710
 5063W        W76646   0.068  33.349   0.833
 5064W        W76647  20.788   7.450   1.362
 5065W        W76648  33.477  38.454  11.792
 5066W        W76649  40.693  21.340  13.806
 5067W        W76650   1.463  44.164  11.961
 5068W        W76651  30.183  18.696   2.850
 5069W        W76652  19.481  39.695   1.851
 5070W        W76653   0.972  10.412  11.169
 5071W        W76654  12.733  12.189   0.363
 5072W        W76655  41.423   0.267  11.132
 5073W        W76656  18.750  31.373   2.806
 5074W        W76657  32.546  34.360   2.750
 5075W        W76658  29.554  21.582   0.673
 5076W        W76659   5.709  19.862   3.311
 5077W        W76660  27.311  12.543  10.865
 5078W        W76661   1.945   4.405  14.865
 5079W        W76662  31.524   5.498  13.014
 5080W        W76663   8.915  43.193   2.195
 5081W        W76664   3.209  26.203   0.899
 5082W        W76665  15.289  13.245   2.760
 5083W        W76666  26.195   2.752  14.820
 5084W        W76667  12.115  33.416   3.328
 5085W        W76668  37.476  25.272   0.912
 5086W        W76669  24.840   6.497   0.301
 5087W        W76670   3.885  20.625  11.862
 5088W        W76671  16.047  19.738  11.601
 5089W        W76672  28.576   4.296  14.394
 5090W        W76673  38.690   8.916   1.888
 5091W        W76674  17.544  36.217  14.886
 5092W        W76675  19.085   7.907  14.584
 5093W        W76676  23.453  21.774  12.884
 5094W        W76677   2.043   3.238   4.148
 5095W        W76678  37.832  39.758  14.831
 5096W        W76679  37.420   4.232   4.932
 5097W        W76680  10.802   4.337   0.718
 5098W        W76681   8.899  29.173  13.903
 5099W        W76682   2.311  41.462  12.453
 5100W        W76683   9.520  18.104  11.560
 5101W        W76684   8.653  14.862   0.941
 5102W        W76685   5.753  36.042   1.704
 5103W        W76686  33.158   6.230   0.515
 5104W        W76687  41.740  13.146   2.292
 5105W        W76688  37.859   4.941   1.706
 5106W        W76689  30.930   6.858   0.855
 5107W        W76690  25.541  11.602  13.469
 5108W        W76691   8.889  39.538   1.957
 5109W        W76692  13.452  31.689  12.626
 5110W        W76693  13.288  31.203   0.815
 5111W        W76694  36.527  19.260   3.154
 5112W        W76695  29.561  41.945   3.665
 5113W        W76696   0.216  25.658  11.702
 5114W        W76697   1.082   0.388   1.287
 5115W        W76698  36.362  40.006  11.070
 5116W        W76699   2.489  11.393   3.938
 5117W        W76700   0.966  14.252   3.662
 5118W        W76701  33.190  28.523   2.181
 5119W        W76702  35.041   1.917   4.328
 5120W        W76703  31.528  31.066  10.913
 5121W        W76704  43.991  23.295  11.116
 5122W        W76705  36.841  16.841   0.925
 5123W        W76706   3.685  32.429  12.390
 5124W        W76707  28.502  10.038   5.312
 5125W        W76708  36.508  44.909  11.493
 5126W        W76709  43.503  36.961  10.898
 5127W        W76710  31.937  10.145   2.819
 5128W        W76711  37.072   6.451  12.786
 5129W        W76712  14.664  39.497   1.304
 5130W        W76713  13.540  40.117   1.512
 5131W        W76714  37.968   4.849  12.062
 5132W        W76715  16.728  15.551   3.407
 5133W        W76716  39.456   1.673   4.297
 5134W        W76717   3.959  37.210  10.600
 5135W        W76718   3.591   6.560   1.186
 5136W        W76719  44.385  38.729   0.922
 5137W        W76720  12.790  39.930  12.784
 5138W        W76721  37.982  26.610   4.340
 5139W        W76722  26.855  35.989   2.928
 5140W        W76723   5.075  39.800   1.134
 5141W        W76724  35.315  15.784  12.276
 5142W        W76725  30.037  37.570  12.871
 5143W        W76726   6.333   1.485  13.836
 5144W        W76727  35.144  10.608   4.217
 5145W        W76728   9.265  25.923   1.937
 5146W        W76729   9.181  41.919   4.590
 5147W        W76730   6.508  11.122   1.286
 5148W        W76731  33.117   7.353   5.096
 5149W        W76732   3.356  22.383   5.032
 5150W        W76733  13.238  30.374  14.316
 5151W        W76734  32.707   7.189   0.318
 5152W        W76735   8.249  12.047   4.790
 5153W        W76736  34.335  23.215   0.925
 5154W        W76737  20.505   6.055  12.434
 5155W        W76738  27.125  17.243   4.301
 5156W        W76739  33.692   5.213   4.665
 5157W        W76740  33.436   8.301  13.092
 5158W        W76741  26.949  10.682  12.366
 5159W        W76742  35.845  17.447   5.177
 5160W        W76743  21.715  25.522  12.421
 5161W        W76744   2.785  32.372   4.352
 5162W        W76745  15.392  23.496  12.058
 5163W        W76746  24.724  40.612  11.738
 5164W        W76747  44.901  20.843   2.461
 5165W        W76748   1.665  15.762   1.477
 5166W        W76749  31.858  26.244  14.415
 5167W        W76750  42.063  43.745  13.490
 5168W        W76751  43.715   3.618  14.233
 5169W        W76752  35.470  24.847  11.985
 5170W        W76753  43.714  43.937   1.145
 5171W        W76754  30.498  23.870   0.251
 5172W        W76755  19.697  19.257  10.312
 5173W        W76756  14.264  43.527  14.842
 5174W        W76757  13.181  36.368   3.177
 5175W        W76758   4.357  13.118  11.448
 5176W        W76759  37.806  31.576  13.061
 5177W        W76760  30.611  31.302  13.337
 5178W        W76761   4.902   8.082  12.678
 5179W        W76762  13.902  20.138  13.317
 5180W        W76763  25.235  43.638   1.271
 5181W        W76764  14.750  42.105   0.027
 5182W        W76765  43.926  25.009  14.799
 5183W        W76766  14.782   3.165   5.068
 5184W        W76767  12.624  39.783  12.327
 5185W        W76768  11.682  31.566   2.236
 5186W        W76769   0.324  43.528   0.326
 5187W        W76770   9.235   5.820   2.594
 5188W        W76771  24.208  12.870   3.671
 5189W        W76772  18.655  26.665   4.182
 5190W        W76773  24.077   0.027   4.569
 5191W        W76774  10.327  13.750   1.258
 5192W        W76775   8.825  27.491  11.674
 5193W        W76776  32.062  13.699   4.195
 5194W        W76777  43.533   7.735  11.373
 5195W        W76778  20.328  12.214  11.556
 5196W        W76779  37.904   8.146  10.670
 5197W        W76780  31.238  10.429   4.360
 5198W        W76781  34.097   1.012   3.771
 5199W        W76782  27.700  33.602   4.046
 5200W        W76783  13.233  32.206   4.613
 5201W        W76784  32.423   5.419   1.804
 5202W        W76785  24.211  12.324  11.127
 5203W        W76786  36.986  10.839   1.783
 5204W        W76787  42.238  14.699   4.852
 5205W        W76788  17.278  14.772   3.079
 5206W        W76789  19.586  42.563  14.499
 5207W        W76790   5.611   8.187   2.125
 5208W        W76791   1.037  40.835  11.179
 5209W        W76792   7.291  16.813   4.105
 5210W        W76793   2.888  32.625   2.633
 5211W        W76794  41.909  23.659  13.808
 5212W        W76795  31.675  27.471   0.296
 5213W        W76796  18.054  19.789   3.812
 5214W        W76797  19.705  26.202   1.293
 5215W        W76798  23.898  13.298  11.572
 5216W        W76799  28.163   6.200   2.381
 5217W        W76800   6.209   5.720  13.294
 5218W        W76801  36.112  13.313   2.640
 5219W        W76802  10.881  41.951  13.520
 5220W        W76803  28.682  36.904  12.272
 5221W        W76804  14.975  22.034   1.907
 5222W        W76805   8.332  41.400  14.527
 5223W        W76806  14.242   5.941   3.670
 5224W        W76807  22.522   3.932   1.762
 5225W        W76808  38.374  24.716   0.725
 5226W        W76809  36.817   6.807  14.779
 5227W        W76810  36.902  17.866   4.669
 5228W        W76811  24.438  11.343  14.561
 5229W        W76812   5.670  12.075  13.892
 5230W        W76813   6.305  13.303  13.053
 5231W        W76814   1.424  30.577   0.439
 5232W        W76815   0.293   1.816  13.461
 5233W        W76816  27.701  37.080   4.955
 5234W        W76817  23.705  18.644  12.510
 5235W        W76818  23.326  29.432  11.980
 5236W        W76819  30.472  14.105  13.033
 5237W        W76820  38.900   3.931  12.696
 5238W        W76821  32.395  27.204   3.209
 5239W        W76822  18.470   1.308   1.899
 5240W        W76823  16.424  34.188   0.738
 5241W        W76824  19.661  23.953  14.930
 5242W        W76825  16.127  34.693   0.792
 5243W        W76826   7.284  37.304   2.765
 5244W        W76827  34.644  20.725  12.411
 5245W        W76828   9.688   5.108   3.831
 5246W        W76829  37.871  14.358   4.149
 5247W        W76830  43.443  34.664  12.005
 5248W        W76831   1.755  25.563  13.481
 5249W        W76832  10.954  16.419   1.854
 5250W        W76833   8.925  35.422   3.908
 5251W        W76834  14.561  17.155   4.822
 5252W        W76835  26.104   6.370   2.991
 5253W        W76836  10.602  11.812  11.489
 5254W        W76837  31.575   0.835  12.532
 5255W        W76838  28.242  13.688  11.521
 5256W        W76839  37.541  37.969  11.101
 5257W        W76840  26.456  28.479   4.541
 5258W        W76841  44.347  11.148  13.848
 5259W        W76842  38.386   5.689   1.829
 5260W        W76843  15.732  36.952   3.257
 5261W        W76844  11.573  38.311  11.622
 5262W        W76845   4.834  34.498  12.955
 5263W        W76846  35.429  41.263   0.051
 5264W        W76847   0.436  40.112  14.800
 5265W        W76848  10.421   2.262  14.855
 5266W        W76849  16.343   4.550   2.868
 5267W        W76850  13.358  16.899   3.757
 5268W        W76851  14.278   7.204  10.653
 5269W        W76852  27.228   4.650  11.045
 5270W        W76853  18.588   5.922  10.760
 5271W        W76854   9.807   2.337   1.286
 5272W        W76855   2.416  29.474   2.499
 5273W        W76856   9.003  24.944  12.025
 5274W        W76857  40.337  16.020  11.110
 5275W        W76858  29.927  19.664  13.892
 5276W        W76859  16.701   5.290   2.954
 5277W        W76860  21.965  19.634   2.750
 5278W        W76861   4.444   8.264   4.829
 5279W        W76862  14.211   9.914   1.715
 5280W        W76863   6.248  43.085   1.731
 5281W        W76864  41.709   6.293  11.764
 5282W        W76865  27.313  13.688  10.118
 5283W        W76866   7.810  16.031   4.124
 5284W        W76867   3.501  31.143   4.577
 5285W        W76868   7.958  27.951   1.342
 5286W        W76869  33.060  11.101  13.050
 5287W        W76870  12.163  39.561  14.470
 5288W        W76871  32.342  24.414  13.507
 5289W        W76872  43.748   4.173   4.569
 5290W        W76873  43.348  41.859   4.247
 5291W        W76874  41.919  15.210  12.812
 5292W        W76875  13.402  24.985  11.097
 5293W        W76876   2.424  30.596   0.511
 5294W        W76877  19.722  19.058  13.758
 5295W        W76878  22.022  23.805   2.691
 5296W        W76879  14.112  34.106  13.774
 5297W        W76880   3.274  24.512   2.188
 5298W        W76881  21.304  34.851  11.029
 5299W        W76882  24.405  20.236   0.079
 5300W        W76883   4.882  11.352  11.677
 5301W        W76884   2.025  41.917  12.955
 5302W        W76885   3.832  41.938   3.698
 5303W        W76886  26.021  22.129   2.223
 5304W        W76887  20.068  30.958  12.386
 5305W        W76888   2.774   2.274   0.251
 5306W        W76889  14.557  30.173  14.313
 5307W        W76890   6.881  33.574   2.933
 5308W        W76891  40.184  24.240  11.106
 5309W        W76892  38.402  12.825  14.717
 5310W        W76893  43.848  44.776   4.741
 5311W        W76894   5.694  23.750  12.124
 5312W        W76895  44.720  29.740  13.342
 5313W        W76896  38.726   4.683   0.942
 5314W        W76897  12.901  14.212  14.537
 5315W        W76898  15.046   6.268  14.967
 5316W        W76899  25.751  29.406  14.285
 5317W        W76900  27.598   2.976   3.719
 5318W        W76901  23.567  30.424  10.737
 5319W        W76902  37.438  44.833  11.615
 5320W        W76903  24.166  42.787  12.061
 5321W        W76904  11.099   6.647  11.100
 5322W        W76905  33.656  30.376  13.080
 5323W        W76906  13.674   2.250  14.358
 5324W        W76907   4.474  19.512  12.586
 5325W        W76908  27.707  25.838  10.424
 5326W        W76909  34.496  12.716   3.645
 5327W        W76910  29.642   5.151  10.781
 5328W        W76911  25.455   9.787  11.130
 5329W        W76912  27.694  10.603  11.115
 5330W        W76913  37.065  15.659  11.193
 5331W        W76914  21.454   4.538  11.040
 5332W        W76915   8.663   6.347  12.785
 5333W        W76916  19.536  12.291   0.459
 5334W        W76917  11.876   1.676  13.391
 5335W        W76918  40.338  44.966  11.675
 5336W        W76919   6.821   7.619  12.007
 5337W        W76920  16.047  41.076   4.014
 5338W        W76921  11.430  30.570  10.701
 5339W        W76922   5.303  17.638  10.377
 5340W        W76923  42.461  17.146  10.928
 5341W        W76924  22.103  24.174   4.369
 5342W        W76925  22.017  31.184   1.436
 5343W        W76926  23.564   1.386   2.230
 5344W        W76927  24.097  15.019   2.765
 5345W        W76928  31.706  16.623  10.974
 5346W        W76929   9.626   2.986   2.222
 5347W        W76930  28.106  41.794  12.851
 5348W        W76931  40.399   3.051  14.328
 5349W        W76932   6.285  33.930  13.093
 5350W        W76933  14.557  42.794  10.950
 5351W        W76934   9.982   9.263  10.290
 5352W        W76935  12.448   8.993  13.795
 5353W        W76936  28.928  42.174  11.447
 5354W        W76937  25.721  18.447   0.694
 5355W        W76938  27.059  16.880   2.659
 5356W        W76939  22.907  44.815   0.342
 5357W        W76940   1.838   5.927   4.697
 5358W        W76941  36.322  18.004   3.792
 5359W        W76942  31.853  13.546   2.386
 5360W        W76943  21.170  30.517   4.973
 5361W        W76944  13.060   7.197  14.583
 5362W        W76945  38.425  18.231  12.375
 5363W        W76946   8.888  24.689  10.800
 5364W        W76947   8.831   6.147   3.707
 5365W        W76948   9.603  19.548   1.453
 5366W        W76949  32.673   6.269   0.319
 5367W        W76950  38.713  27.193  12.920
 5368W        W76951  33.548   4.751   2.856
 5369W        W76952  21.014  28.176  10.180
 5370W        W76953   5.216   5.422  14.037
 5371W        W76954  35.487  24.943  14.962
 5372W        W76955  21.942  20.563   2.685
 5373W        W76956   3.929  18.280   1.307
 5374W        W76957  34.663   0.009  14.234
 5375W        W76958  39.375  27.117   3.320
 5376W        W76959   4.142  15.430  13.405
 5377W        W76960   8.666  25.535  12.519
 5378W        W76961   8.938   1.837   1.697
 5379W        W76962  30.355  30.165  11.011
 5380W        W76963  20.088  23.631   1.924
 5381W        W76964  10.917  24.135   4.645
 5382W        W76965  17.500  27.419  11.990
 5383W        W76966  38.033  24.568  13.442
 5384W        W76967  13.860  41.787   2.353
 5385W        W76968  33.703  42.439  13.522
 5386W        W76969   4.274  37.949  12.385
 5387W        W76970  20.265  26.316  12.453
 5388W        W76971  29.144  11.228   0.757
 5389W        W76972  31.469  24.116   4.600
 5390W        W76973   5.618  31.992   3.585
 5391W        W76974  25.872  35.875   2.759
 5392W        W76975  28.001  22.092  12.464
 5393W        W76976   0.833  43.038  12.426
 5394W        W76977  19.121  24.792   4.166
 5395W        W76978  13.593   8.733  11.523
 5396W        W76979  40.447  43.561   3.864
 5397W        W76980  43.799  27.182   4.211
 5398W        W76981  10.609   1.203   0.299
 5399W        W76982  23.290   8.836  12.851
 5400W        W76983  37.139  21.586   3.693
 5401W        W76984  16.327  12.744  11.059
 5402W        W76985  11.186  35.416   1.346
 5403W        W76986   5.481  27.161  14.642
 5404W        W76987   5.323   4.664   4.784
 5405W        W76988  12.311  15.905  13.335
 5406W        W76989  18.118  28.660  14.595
 5407W        W76990   5.959   4.535   3.200
 5408W        W76991  34.074   8.571  14.821
 5409W        W76992   7.570  25.687  12.154
 5410W        W76993  34.947  11.256  13.864
 5411W        W76994  34.938  22.470   3.240
 5412W        W76995  10.201  36.561  12.893
 5413W        W76996  28.954  36.865   3.092
 5414W        W76997   3.806  35.860   0.282
 5415W        W76998  20.321  13.264  10.782
 5416W        W76999   0.481   6.893  13.410
 5417W        W77000  19.023   5.069   3.413
 5418W        W77001  25.665  31.431   3.549
 5419W        W77002  12.872  33.549  10.623
 5420W        W77003  38.515  17.261  10.901
 5421W        W77004  34.390  14.242   2.341
 5422W        W77005   9.905  28.900   1.240
 5423W        W77006  11.755  20.662  12.413
 5424W        W77007  40.228   9.164   0.074
 5425W        W77008  42.025  10.323  14.218
 5426W        W77009  24.678  41.467  11.713
 5427W        W77010   2.939  27.543  13.443
 5428W        W77011  24.661  15.151   4.627
 5429W        W77012  26.461  38.544   4.364
 5430W        W77013  26.981  42.782   3.161
 5431W        W77014  37.790  44.850   4.208
 5432W        W77015  25.933   1.794  12.102
 5433W        W77016  21.544   5.639  12.110
 5434W        W77017  12.344  18.073  12.603
 5435W        W77018  18.524  35.993   4.468
 5436W        W77019  22.245   3.451   3.247
 5437W        W77020   1.868  17.896   4.188
 5438W        W77021  16.622  20.106  13.639
 5439W        W77022   5.583  43.687  14.416
 5440W        W77023  37.092  19.845   1.989
 5441W        W77024  22.657  35.157   5.085
 5442W        W77025  19.096  20.889  12.649
 5443W        W77026   1.142  43.739   0.977
 5444W        W77027  39.634  13.576  11.667
 5445W        W77028   8.796   9.180   2.516
 5446W        W77029  24.146  28.916  11.732
 5447W        W77030  23.510  33.360  14.847
 5448W        W77031   1.796  40.957   2.835
 5449W        W77032  11.547  34.934  12.491
 5450W        W77033  40.436   4.227  14.883
 5451W        W77034  40.930  33.581   3.351
 5452W        W77035  12.831  35.905  14.782
 5453W        W77036  28.021   3.485   2.449
 5454W        W77037  28.179  42.975  13.428
 5455W        W77038   9.289  18.837  13.632
 5456W        W77039  14.681   1.453   4.248
 5457W        W77040  14.603  27.625   3.583
 5458W        W77041  34.696  13.224  13.897
 5459W        W77042  10.860   3.596  12.925
 5460W        W77043  36.342  25.798   2.201
 5461W        W77044   2.169   6.724  11.149
 5462W        W77045  15.607   5.716  11.943
 5463W        W77046  29.071   8.470  11.066
 5464W        W77047  39.359  18.589  10.460
 5465W        W77048   3.959  44.407  14.085
 5466W        W77049  36.403  18.102  14.784
 5467W        W77050  29.363  15.590   3.759
 5468W        W77051  41.500  41.716   3.269
 5469W        W77052   7.348  19.097   2.205
 5470W        W77053  29.971  35.152   2.314
 5471W        W77054  11.880  23.675  11.157
 5472W        W77055   4.855  37.850  13.544
 5473W        W77056  12.929  23.260   0.845
 5474W        W77057  18.522  31.761  12.169
 5475W        W77058   1.054  35.072   2.238
 5476W        W77059  24.520  22.236  14.313
 5477W        W77060  40.491  19.988  11.569
 5478W        W77061   1.779   1.508  12.119
 5479W        W77062  11.689  43.976   5.078
 5480W        W77063  44.234  17.904   1.012
 5481W        W77064  42.547  42.363  14.872
 5482W        W77065  32.908  42.040   0.445
 5483W        W77066  16.842  29.500  14.065
 5484W        W77067  20.750  19.818  13.277
 5485W        W77068   7.617  26.335  14.328
 5486W        W77069  41.447   8.598   0.417
 5487W        W77070  42.043  26.735   2.935
 5488W        W77071  17.577  18.695   2.631
 5489W        W77072  44.065  34.080  13.710
 5490W        W77073  40.383  25.207   2.790
 5491W        W77074   3.984  40.398  13.845
 5492W        W77075  37.792  19.618  14.252
 5493W        W77076  21.539  30.999   1.410
 5494W        W77077  31.396  30.653   4.224
 5495W        W77078  20.971  42.863  12.115
 5496W        W77079  39.191  10.209   1.698
 5497W        W77080  33.652   7.127  14.153
 5498W        W77081  10.336  40.528   0.510
 5499W        W77082   2.370  43.728  10.622
 5500W        W77083   8.932  28.752   2.629
 5501W        W77084   8.401  42.782  10.086
 5502W        W77085  31.495  14.793   3.535
 5503W        W77086  14.567  26.925  13.873
 5504W        W77087   7.496  28.147   1.204
 5505W        W77088  17.531  26.160  12.376
 5506W        W77089   4.422   5.303  13.557
 5507W        W77090  21.138  15.089  14.876
 5508W        W77091  12.208  39.239  14.881
 5509W        W77092  22.454  39.638   1.826
 5510W        W77093   5.224  18.278   4.365
 5511W        W77094  23.777  18.887  13.015
 5512W        W77095  16.598  30.364  11.949
 5513W        W77096  34.581   6.686  13.497
 5514W        W77097  44.954  33.620   9.900
 5515W        W77098  36.890  22.977   0.300
 5516W        W77099   5.076  13.914   3.593
 5517W        W77100   9.158  22.562  14.455
 5518W        W77101  25.754  20.298  13.580
 5519W        W77102  30.550  30.036   3.655
 5520W        W77103  25.705  20.686   1.258
 5521W        W77104  17.878  36.796  11.148
 5522W        W77105  20.822  21.080  14.168
 5523W        W77106  33.484  35.834   1.273
 5524W        W77107   8.616  34.957  14.483
 5525W        W77108  34.666   9.420  13.970
 5526W        W77109  18.555  26.695   2.385
 5527W        W77110  14.247  39.510  13.190
 5528W        W77111   0.774  33.975   3.826
 5529W        W77112  39.944  43.529  12.463
 5530W        W77113   6.236  39.113  13.932
 5531W        W77114  28.450  32.396   0.899
 5532W        W77115  10.059  30.020  11.580
 5533W        W77116  31.545  31.762  14.846
 5534W        W77117  41.143  31.263   4.149
 5535W        W77118  23.733  20.221  12.951
 5536W        W77119   9.584  32.085  11.498
 5537W        W77120  26.877  22.081   1.894
 5538W        W77121  30.099   5.888   0.305
 5539W        W77122   7.880  30.917   1.122
 5540W        W77123  17.164  40.454  12.941
 5541W        W77124  36.379  44.903  14.418
 5542W        W77125  34.508  10.143   1.864
 5543W        W77126  34.064  21.658   3.159
 5544W        W77127  44.505   7.787   1.388
 5545W        W77128  29.714  30.295   4.719
 5546W        W77129   2.491  42.795   0.785
 5547W        W77130  20.698   9.130  12.552
 5548W        W77131  26.633  22.999  14.963
 5549W        W77132  28.283  29.556   3.816
 5550W        W77133  30.652  42.530  13.913
 5551W        W77134  31.691  41.446   2.300
 5552W        W77135   4.801  43.441   2.194
 5553W        W77136  14.076   3.983  12.771
 5554W        W77137  12.394  16.997  11.920
 5555W        W77138   5.046  16.582   5.025
 5556W        W77139   8.637  28.930  11.440
 5557W        W77140  35.633   2.023  12.051
 5558W        W77141  22.474  16.835   3.810
 5559W        W77142   9.729  23.683   1.212
 5560W        W77143  42.781  29.472   1.410
 5561W        W77144  26.905  29.379  12.020
 5562W        W77145   4.681   3.175   0.277
 5563W        W77146  34.087  31.650  10.678
 5564W        W77147  42.777  27.096   3.916
 5565W        W77148   7.460  18.056  10.682
 5566W        W77149   5.434   0.534  11.123
 5567W        W77150   1.688  16.589   4.551
 5568W        W77151   5.945  30.093   2.130
 5569W        W77152   2.369  12.662   1.899
 5570W        W77153  42.930  31.057   3.294
 5571W        W77154  27.700  23.244   1.283
 5572W        W77155  41.354  31.169  11.821
 5573W        W77156  44.512   0.867  12.565
 5574W        W77157   3.463  20.740  13.955
 5575W        W77158  20.653  39.534  11.926
 5576W        W77159  40.513  32.318   1.786
 5577W        W77160  10.588   7.804   0.883
 5578W        W77161  30.603   6.159   4.148
 5579W        W77162  44.916  16.670   3.783
 5580W        W77163   2.124  11.627  10.279
 5581W        W77164  18.535   2.510  12.360
 5582W        W77165   1.861  30.883   0.316
 5583W        W77166   4.687  40.264   1.405
 5584W        W77167  25.907  39.287   4.233
 5585W        W77168  33.433  17.630  12.112
 5586W        W77169  21.777  14.308  14.744
 5587W        W77170  14.842   3.375  14.791
 5588W        W77171  23.543   9.428  11.230
 5589W        W77172   8.021  25.518  11.907
 5590W        W77173  12.634   8.200  12.376
 5591W        W77174  40.619  43.300   3.322
 5592W        W77175   5.205  15.626   4.968
 5593W        W77176  23.106  31.610   0.277
 5594W        W77177  15.107   5.283  10.408
 5595W        W77178  29.331  34.483  13.483
 5596W        W77179   2.214   5.095   1.333
 5597W        W77180  10.113   5.327   4.662
 5598W        W77181  36.914  36.584  11.013
 5599W        W77182   8.730  16.876   5.084
 5600W        W77183   8.185  32.783   1.231
 5601W        W77184  16.183  25.373   0.459
 5602W        W77185  26.967  26.142   1.705
 5603W        W77186   6.912   6.102  11.102
 5604W        W77187  14.826  17.797   0.308
 5605W        W77188  41.722  31.147  11.395
 5606W        W77189  43.729   6.619  12.631
 5607W        W77190  34.859  40.522   1.370
 5608W        W77191  15.594  15.818   4.016
 5609W        W77192  19.305   0.773   2.203
 5610W        W77193  38.032  14.636   1.202
 5611W        W77194  25.749  35.519  14.780
 5612W        W77195  30.040  44.748   4.019
 5613W        W77196  26.674  42.037  11.083
 5614W        W77197  22.241   2.848   2.501
 5615W        W77198  44.028  33.660  12.425
 5616W        W77199  10.608  24.122  12.965
 5617W        W77200  19.133   8.485  11.452
 5618W        W77201   0.760  32.005   2.413
 5619W        W77202  21.490  17.309  14.950
 5620W        W77203  12.715  30.933   2.411
 5621W        W77204   3.044  44.345   4.327
 5622W        W77205  21.298   2.920   2.558
 5623W        W77206  35.820   8.627  10.784
 5624W        W77207  13.634  27.303  14.689
 5625W        W77208   7.921  20.755  14.402
 5626W        W77209  23.976  17.614  11.960
 5627W        W77210  15.626   4.735   4.041
 5628W        W77211  12.702  41.127  13.935
 5629W        W77212  21.728  12.567   0.865
 5630W        W77213  38.925  41.288   0.045
 5631W        W77214  35.530  34.561  11.757
 5632W        W77215  19.692  36.558   0.744
 5633W        W77216  36.357  34.056   1.277
 5634W        W77217  12.670   5.960  11.733
 5635W        W77218  39.395  38.145   4.565
 5636W        W77219  13.914  45.000  13.501
 5637W        W77220   0.754  36.073  14.226
 5638W        W77221  40.222  13.804   3.633
 5639W        W77222  12.143   6.250   2.278
 5640W        W77223  40.342   0.409   0.740
 5641W        W77224  25.700  40.388   0.842
 5642W        W77225   8.900  13.681   2.950
 5643W        W77226  13.799  24.370   0.949
 5644W        W77227  14.856   2.292  10.919
 5645W        W77228  32.406  39.890  13.526
 5646W        W77229  25.087  13.098   3.584
 5647W        W77230  39.578   9.469   3.920
 5648W        W77231   2.506   9.661   0.258
 5649W        W77232  32.949  34.279   3.124
 5650W        W77233  14.903   0.954   3.692
 5651W        W77234  35.395   6.880   4.668
 5652W        W77235  43.476  20.246   4.774
 5653W        W77236  26.963  19.678   0.532
 5654W        W77237   2.882  34.973   0.650
 5655W        W77238  24.264  14.157  11.097
 5656W        W77239   0.766  24.999  10.284
 5657W        W77240  32.235  34.923  12.378
 5658W        W77241   1.358  34.990  12.623
 5659W        W77242  32.125  14.524   4.631
 5660W        W77243  16.608  38.362  10.494
 5661W        W77244   0.526  29.676  13.872
 5662W        W77245  39.422  10.600  11.631
 5663W        W77246  12.796  27.265   3.748
 5664W        W77247   1.593  28.476   3.576
 5665W        W77248   0.844   8.263   3.629
 5666W        W77249  25.211  33.550   2.772
 5667W        W77250  39.333  34.033   4.223
 5668W        W77251  31.019  19.022  11.188
 5669W        W77252   9.271  26.899   1.645
 5670W        W77253  26.149  14.859  12.960
 5671W        W77254  12.300   7.673   2.359
 5672W        W77255  35.005  28.437   3.749
 5673W        W77256  22.264  37.061   1.008
 5674W        W77257  14.393   4.593   0.746
 5675W        W77258  14.250  19.042  13.832
 5676W        W77259  13.265  19.750   5.034
 5677W        W77260  33.744  16.230   0.526
 5678W        W77261  29.130  34.478  14.798
 5679W        W77262  31.973  26.263  13.364
 5680W        W77263  22.491  33.492  12.463
 5681W        W77264  11.345  23.062  14.350
 5682W        W77265  16.011  10.354  14.520
 5683W        W77266  24.185  39.080   3.556
 5684W        W77267  28.095  18.716  12.059
 5685W        W77268  12.500   3.501   2.375
 5686W        W77269  39.599   5.550   2.304
 5687W        W77270  37.002  33.189   1.841
 5688W        W77271  29.395  21.574  10.645
 5689W        W77272   7.670  22.638   3.097
 5690W        W77273   0.007   9.841   0.915
 5691W        W77274  12.552  41.418  13.524
 5692W        W77275  22.111  38.428   4.640
 5693W        W77276  15.218  16.675   0.356
 5694W        W77277  42.985   2.746  14.932
 5695W        W77278  40.055  34.853   3.343
 5696W        W77279   2.700  43.375   0.137
 5697W        W77280  35.123  34.278  11.533
 5698W        W77281  21.953  35.469  11.169
 5699W        W77282  36.012  13.734  10.820
 5700W        W77283  34.560  16.115   0.847
 5701W        W77284  40.551  25.438  12.532
 5702W        W77285   3.244  25.447   0.437
 5703W        W77286  11.325   0.758   2.515
 5704W        W77287  35.830  11.605   3.306
 5705W        W77288  44.255  12.349   0.484
 5706W        W77289  39.932   2.749  10.736
 5707W        W77290  32.030  23.255  11.008
 5708W        W77291   4.010   9.927   2.176
 5709W        W77292  31.362  28.661  14.225
 5710W        W77293  23.866  14.664  11.599
 5711W        W77294  18.067  21.261  12.026
 5712W        W77295  21.509   1.781  12.616
 5713W        W77296  34.817  22.316  12.656
 5714W        W77297  29.639   6.751   3.218
 5715W        W77298   8.710  33.500  12.535
 5716W        W77299  25.207   9.260   4.616
 5717W        W77300  25.233   5.048   4.316
 5718W        W77301  27.449  10.818   0.269
 5719W        W77302   5.226  33.373  12.711
 5720W        W77303  34.883  15.310   0.887
 5721W        W77304   3.453  11.968   1.272
 5722W        W77305  33.535  24.041   4.615
 5723W        W77306  30.989  13.897   3.311
 5724W        W77307  26.995   2.748   2.453
 5725W        W77308   0.972  25.229  12.049
 5726W        W77309   1.892   4.847   3.075
 5727W        W77310  18.239  38.416  13.484
 5728W        W77311  30.714  20.610   0.454
 5729W        W77312  10.119  38.263  14.844
 5730W        W77313  19.617   7.096   4.227
 5731W        W77314  16.602  23.805   1.911
 5732W        W77315  33.162  21.463   3.293
 5733W        W77316   9.805  17.811  10.737
 5734W        W77317  38.997  26.706  10.742
 5735W        W77318  23.562   1.535   3.225
 5736W        W77319   7.148  44.071  11.754
 5737W        W77320   8.688   8.894  11.336
 5738W        W77321   2.011   0.222  10.514
 5739W        W77322  38.605  27.532  10.697
 5740W        W77323  37.540   1.824   0.309
 5741W        W77324   8.143  12.798   1.415
 5742W        W77325  33.341  22.373   5.116
 5743W        W77326  20.933  25.255   3.495
 5744W        W77327   5.812   6.407   0.472
 5745W        W77328   5.304  25.198   5.104
 5746W        W77329   9.414  24.938   4.636
 5747W        W77330  29.662  36.290  10.401
 5748W        W77331  19.108  44.133   3.702
 5749W        W77332  37.679  13.224  14.745
 5750W        W77333  10.753  25.948   0.677
 5751W        W77334   1.818   3.790   0.134
 5752W        W77335  37.240   7.409  13.526
 5753W        W77336  22.618  17.248   4.085
 5754W        W77337  18.587  24.515  11.821
 5755W        W77338  13.362  18.093  14.869
 5756W        W77339  22.484  41.320   0.021
 5757W        W77340  25.204   4.859   1.401
 5758W        W77341  40.322  33.219  12.089
 5759W        W77342  32.428  12.206  12.391
 5760W        W77343  29.846  33.675   5.055
 5761W        W77344  25.411  34.291   0.339
 5762W        W77345  28.974  27.174  14.802
 5763W        W77346  42.120  17.462   2.293
 5764W        W77347  18.162  42.809   3.761
 5765W        W77348  30.525  23.464   0.571
 5766W        W77349  42.286   1.824  14.133
 5767W        W77350  30.377  39.415  11.461
 5768W        W77351  34.162  38.954   4.499
 5769W        W77352  22.346  39.941   2.906
 5770W        W77353  35.495  15.519  12.648
 5771W        W77354  43.913   0.766  12.678
 5772W        W77355  25.136  38.861  13.129
 5773W        W77356   0.870  21.550  10.651
 5774W        W77357  19.795  43.732   4.445
 5775W        W77358  22.440  15.634  13.600
 5776W        W77359  17.796   3.031  12.150
 5777W        W77360   7.137   0.451   3.330
 5778W        W77361  20.718  15.186   4.266
 5779W        W77362   3.980  18.254   4.763
 5780W        W77363  37.992  23.782  12.100
 5781W        W77364  24.125  34.435   0.750
 5782W        W77365   2.401  44.199   0.718
 5783W        W77366  35.566  44.862  13.764
 5784W        W77367   2.507  38.850   4.619
 5785W        W77368  19.330  19.194   4.796
 5786W        W77369  38.859   7.827   3.738
 5787W        W77370  10.176   8.461   3.732
 5788W        W77371  16.859   8.846   0.413
 5789W        W77372   4.419   6.082  11.269
 5790W        W77373   6.001  20.599  10.590
 5791W        W77374  24.593  31.827  13.924
 5792W        W77375  19.653  10.889  13.458
 5793W        W77376   6.190  15.721  12.529
 5794W        W77377  44.719  33.459   3.150
 5795W        W77378  19.691  33.535   4.612
 5796W        W77379  35.889  24.698  10.645
 5797W        W77380  25.514   0.289  14.029
 5798W        W77381  40.521  41.292  11.106
 5799W        W77382   1.282  30.721  13.772
 5800W        W77383   0.245  33.094  11.983
 5801W        W77384  20.137  16.065  11.344
 5802W        W77385  32.053  25.560   3.202
 5803W        W77386  44.286  10.152   4.610
 5804W        W77387  20.976  13.458  14.437
 5805W        W77388  41.011  24.857   1.737
 5806W        W77389  17.585  24.396  13.857
 5807W        W77390  12.150   9.820   0.845
 5808W        W77391  26.428  33.465   2.368
 5809W        W77392  36.331  35.654  12.316
 5810W        W77393  28.129  15.600   2.228
 5811W        W77394  34.561  21.596   2.264
 5812W        W77395   7.351  27.680  11.546
 5813W        W77396   6.758  26.221   0.267
 5814W        W77397  28.630  43.707  14.503
 5815W        W77398  35.640  21.301   1.701
 5816W        W77399  26.178  44.699  12.634
 5817W        W77400  39.850  24.920  13.094
 5818W        W77401  19.033   5.979   3.641
 5819W        W77402  15.413  20.429  12.934
 5820W        W77403  16.069  33.209  11.505
 5821W        W77404  16.803  14.801   4.324
 5822W        W77405  43.509  22.786   1.051
 5823W        W77406   9.631  29.255   4.645
 5824W        W77407  37.952  27.082   4.545
 5825W        W77408  10.866   6.861  12.380
 5826W        W77409  19.794  17.235  13.469
 5827W        W77410  41.776  44.908   4.908
 5828W        W77411   4.342  34.294   4.476
 5829W        W77412   2.424  23.674   0.494
 5830W        W77413  36.351  15.580  14.897
 5831W        W77414  32.014  22.781  10.191
 5832W        W77415   4.097  21.249  14.846
 5833W        W77416  41.635   2.001  11.602
 5834W        W77417  15.274  26.013   3.178
 5835W        W77418  41.777   4.312   0.453
 5836W        W77419   1.390  26.775   0.885
 5837W        W77420  40.477   5.375   1.437
 5838W        W77421  21.136  23.940  12.492
 5839W        W77422  29.746  34.074   3.443
 5840W        W77423   5.851  42.024  11.039
 5841W        W77424  37.805  41.849  12.444
 5842W        W77425   1.688  22.743  13.453
 5843W        W77426  23.603  38.425   3.605
 5844W        W77427  43.973  38.460   0.164
 5845W        W77428  19.703  30.900   4.857
 5846W        W77429  18.580  11.728  10.662
 5847W        W77430  38.118   2.419  10.762
 5848W        W77431  22.259  23.036   2.409
 5849W        W77432  41.034  42.049   3.224
 5850W        W77433  31.931  32.497   2.725
 5851W        W77434   6.860  44.008   2.439
 5852W        W77435  34.078  21.054  12.584
 5853W        W77436  32.423  26.993   0.755
 5854W        W77437  25.937  34.393  13.532
 5855W        W77438  18.053  21.433  14.836
 5856W        W77439  33.813  37.684  14.500
 5857W        W77440  13.876  40.415   4.756
 5858W        W77441   0.628  23.065  13.013
 5859W        W77442   1.736   8.201   4.941
 5860W        W77443  40.460   6.741   0.764
 5861W        W77444   2.311   2.999  14.746
 5862W        W77445  36.568   7.537   0.062
 5863W        W77446  43.659  23.876  13.490
 5864W        W77447   1.022   9.844   4.760
 5865W        W77448  11.793   6.465   1.316
 5866W        W77449   1.007  18.717  11.895
 5867W        W77450  38.914  17.610  13.874
 5868W        W77451  29.778  10.021  13.931
 5869W        W77452  32.851  14.752  13.151
 5870W        W77453   0.001   6.435   0.077
 5871W        W77454  36.580  42.048   2.045
 5872W        W77455  43.527  14.205   3.703
 5873W        W77456  26.555  21.733  14.292
 5874W        W77457   8.846  17.572   1.462
 5875W        W77458  31.079  34.071   3.646
 5876W        W77459  40.562  30.399  12.597
 5877W        W77460  41.130  44.962  11.949
 5878W        W77461   2.439   0.443  10.731
 5879W        W77462  41.547  11.833  12.438
 5880W        W77463  35.613  25.482   2.918
 5881W        W77464  30.148  21.464   2.302
 5882W        W77465  37.482   1.269  14.957
 5883W        W77466  20.136  19.668   3.796
 5884W        W77467  38.115  19.494   0.873
 5885W        W77468  14.548  26.987  12.865
 5886W        W77469  21.901  43.044  12.434
 5887W        W77470  22.457  22.490  11.964
 5888W        W77471  38.975  38.471  14.610
 5889W        W77472  23.172  17.332   0.951
 5890W        W77473  39.981  44.169  14.845
 5891W        W77474  20.519   9.529  10.583
 5892W        W77475   8.281   2.747  12.552
 5893W        W77476  13.203  44.213   3.710
 5894W        W77477   6.531  20.611  10.535
 5895W        W77478  22.068   9.569  14.840
 5896W        W77479  44.893  21.657  13.545
 5897W        W77480  31.593  38.150  13.365
 5898W        W77481   8.911  22.950   1.655
 5899W        W77482  26.920  28.697   4.474
 5900W        W77483  32.340  18.451   4.144
 5901W        W77484  25.439  44.983  12.514
 5902W        W77485   7.402  36.434  14.750
 5903W        W77486  29.478   9.841   3.385
 5904W        W77487  19.632  27.504   2.143
 5905W        W77488   1.423  25.529   2.892
 5906W        W77489   9.399  30.951   3.799
 5907W        W77490  28.008   3.855   3.094
 5908W        W77491  13.849  30.863   1.886
 5909W        W77492  40.171  41.187  12.885
 5910W        W77493  21.288  11.574  13.052
 5911W        W77494  37.440   8.406  10.665
 5912W        W77495  42.396   4.362  12.568
 5913W        W77496  21.067  15.412  11.494
 5914W        W77497  12.435  28.585   4.489
 5915W        W77498  37.771  31.798  10.859
 5916W        W77499  21.682   1.177  14.396
 5917W        W77500  15.075   5.714  11.974
 5918W        W77501  10.386  16.651   4.936
 5919W        W77502  40.802  28.987  12.540
 5920W        W77503   4.174   0.408   1.619
 5921W        W77504  39.969  15.243   0.428
 5922W        W77505  20.608  23.344   1.284
 5923W        W77506  38.456  19.735   4.407
 5924W        W77507  35.658  41.679   1.834
 5925W        W77508  31.049  30.590   4.594
 5926W        W77509  38.390   0.794   4.427
 5927W        W77510  25.599  33.041   2.124
 5928W        W77511   9.633   4.988  13.999
 5929W        W77512   8.388  24.034  12.513
 5930W        W77513   9.698  36.358  14.875
 5931W        W77514   2.823  23.077   3.751
 5932W        W77515  23.498  32.447  13.515
 5933W        W77516  35.893  39.127  14.871
 5934W        W77517  36.274  20.648  14.476
 5935W        W77518  15.078  12.793   0.231
 5936W        W77519  24.010  33.018   3.556
 5937W        W77520  11.796  34.428   4.688
 5938W        W77521  18.581  31.010  11.552
 5939W        W77522  15.656  12.176   0.718
 5940W        W77523  24.192   7.850   1.384
 5941W        W77524  18.154  16.571   1.390
 5942W        W77525   5.880  37.102  11.501
 5943W        W77526  42.328  20.612  12.427
 5944W        W77527  39.867  20.681   3.356
 5945W        W77528   7.849  33.341   0.003
 5946W        W77529   8.343  40.491  10.534
 5947W        W77530   1.209  38.632   1.611
 5948W        W77531  24.578  20.050   4.797
 5949W        W77532  23.297  15.402  13.417
 5950W        W77533  39.058  13.070   3.582
 5951W        W77534   2.796  32.560   4.855
 5952W        W77535  25.457  11.908  14.404
 5953W        W77536  39.765  34.547  11.195
 5954W        W77537  41.617  31.057   3.126
 5955W        W77538  12.643  23.753  14.272
 5956W        W77539   2.496  39.892   3.161
 5957W        W77540  10.684  28.171   4.487
 5958W        W77541   8.423  25.099  14.160
 5959W        W77542   1.947  33.280  10.996
 5960W        W77543   6.291  35.533  11.629
 5961W        W77544  16.066  22.416  12.637
 5962W        W77545  26.230  25.602   3.505
 5963W        W77546  19.642  38.052   1.218
 5964W        W77547  16.223  22.012   4.135
 5965W        W77548  42.064   9.363  10.551
 5966W        W77549  29.082  38.814  10.454
 5967W        W77550  25.695  44.883  11.588
 5968W        W77551  37.467  21.075  13.315
 5969W        W77552  18.076   2.260  14.854
 5970W        W77553  38.599  43.152  11.177
 5971W        W77554   8.411  32.062  12.029
 5972W        W77555  43.754  18.308  12.099
 5973W        W77556   3.644  14.193   3.690
 5974W        W77557  36.938   8.222   0.065
 5975W        W77558  12.347  39.858  10.639
 5976W        W77559  13.895   2.239   1.193
 5977W        W77560  43.244  13.841   2.816
 5978W        W77561   5.285  10.344  13.936
 5979W        W77562  35.423   2.521  11.949
 5980W        W77563   9.287  44.910  12.168
 5981W        W77564  29.879  17.290   3.093
 5982W        W77565  40.119  10.197  14.528
 5983W        W77566  11.109   2.381  12.401
 5984W        W77567  34.357  19.699   2.266
 5985W        W77568  36.427  31.471  14.033
 5986W        W77569  19.983  39.725  10.977
 5987W        W77570  33.516  40.835   0.991
 5988W        W77571   6.093  27.389  13.981
 5989W        W77572   7.215  22.203   4.715
 5990W        W77573  17.542  40.953  14.908
 5991W        W77574  39.603  28.629   2.754
 5992W        W77575  24.965  32.425   1.739
 5993W        W77576   3.767   4.322  14.998
 5994W        W77577  44.501   8.295  11.187
 5995W        W77578  12.305  26.731  11.619
 5996W        W77579  43.715   4.347   0.381
 5997W        W77580  18.662  35.349   3.162
 5998W        W77581  42.656  20.789   4.495
 5999W        W77582  18.150  12.391  13.634
 6000W        W77583   3.713  20.248   2.581
 6001W        W77584   3.208  33.066   4.068
 6002W        W77585  42.894  23.074   2.919
 6003W        W77586  33.810  18.714   2.646
 6004W        W77587  25.524   7.415  10.191
 6005W        W77588  20.314  44.177  11.398
 6006W        W77589  42.080   2.787   4.489
 6007W        W77590  14.793   6.579  11.328
 6008W        W77591  22.929  28.682  10.464
 6009W        W77592  21.157   6.605  11.996
 6010W        W77593  26.117  19.691  14.059
 6011W        W77594   6.130  10.187  10.072
 6012W        W77595  36.850  19.507   2.341
 6013W        W77596   7.244  23.778  10.405
 6014W        W77597  14.130   7.580  11.052
 6015W        W77598   2.803   0.075  14.886
 6016W        W77599  25.615  23.489   4.145
 6017W        W77600   5.240  27.575   2.691
 6018W        W77601  13.414  25.082  14.653
 6019W        W77602   5.300  12.804   4.677
 6020W        W77603  27.855   4.477  11.834
 6021W        W77604  34.046  36.948   2.702
 6022W        W77605  29.433   5.279   0.858
 6023W        W77606   4.684  21.471  12.511
 6024W        W77607  30.856  35.411   4.392
 6025W        W77608  18.258  26.895   0.350
 6026W        W77609   7.599  28.470   4.472
 6027W        W77610  31.597  38.047   4.645
 6028W        W77611  15.751   1.980   1.913
 6029W        W77612  42.919  22.997   4.432
 6030W        W77613  14.442  35.002   4.625
 6031W        W77614   4.348  10.141   4.737
 6032W        W77615   0.775   4.166   0.253
 6033W        W77616  43.090  15.040  12.506
 6034W        W77617  37.030   1.862  13.346
 6035W        W77618   0.904  15.734  11.499
 6036W        W77619  11.197   1.543  14.331
 6037W        W77620  17.022  14.962   0.198
 6038W        W77621  17.479  31.362   0.340
 6039W        W77622  39.190  27.751  14.713
 6040W        W77623  40.491  21.795   3.563
 6041W        W77624  20.523  39.532  10.877
 6042W        W77625  12.631  23.049   2.950
 6043W        W77626  28.078  18.779  14.027
 6044W        W77627   8.425  37.396  14.989
 6045W        W77628  31.983  34.067   4.551
 6046W        W77629  43.874   2.367  13.454
 6047W        W77630  37.992  18.111   1.028
 6048W        W77631  14.526   7.813   4.108
 6049W        W77632  42.306   1.286  10.904
 6050W        W77633  40.812  21.253  13.024
 6051W        W77634  39.390   8.608   4.125
 6052W        W77635  10.373   1.539  11.068
 6053W        W77636  44.262  16.995   1.134
 6054W        W77637   6.865  34.575  14.513
 6055W        W77638  42.471  28.868   1.211
 6056W        W77639  27.232  31.485  12.951
 6057W        W77640  13.741  34.518   1.736
 6058W        W77641   1.048  18.725   3.567
 6059W        W77642   6.194  16.646   0.668
 6060W        W77643  15.001  18.179   4.581
 6061W        W77644  20.081  10.393   4.091
 6062W        W77645  31.369  21.294  10.143
 6063W        W77646  30.940  11.574  11.583
 6064W        W77647   0.376  36.086   1.636
 6065W        W77648  38.347  34.070   0.973
 6066W        W77649  39.642  18.421  12.277
 6067W        W77650  19.221   0.485   3.261
 6068W        W77651  39.873  27.546   0.949
 6069W        W77652  12.102  35.614  13.495
 6070W        W77653  21.533   6.798   4.028
 6071W        W77654  10.782   3.764  13.921
 6072W        W77655   3.804  24.667  11.598
 6073W        W77656  21.134  25.196  10.729
 6074W        W77657  16.264  20.850  10.259
 6075W        W77658  42.336  15.089  12.032
 6076W        W77659  15.750   3.834  13.776
 6077W        W77660  38.983  12.232   0.828
 6078W        W77661  33.973   4.940  14.870
 6079W        W77662  18.170  25.063  11.949
 6080W        W77663  24.973   0.241   1.234
 6081W        W77664  25.555  28.958   0.933
 6082W        W77665  33.033  39.349  11.228
 6083W        W77666  19.779  14.537  12.452
 6084W        W77667  38.151  15.129   2.849
 6085W        W77668  21.455  20.313  14.478
 6086W        W77669  40.558   5.439   2.429
 6087W        W77670  18.864  44.018   0.905
 6088W        W77671  32.982  20.802   0.961
 6089W        W77672   9.256  33.900   0.223
 6090W        W77673  20.825  14.160   4.023
 6091W        W77674  34.248   0.469   2.379
 6092W        W77675  20.658  31.753  13.337
 6093W        W77676   0.103  25.062  14.964
 6094W        W77677   3.691   0.223  12.430
 6095W        W77678   1.281  41.409   1.051
 6096W        W77679  25.306  30.479  12.907
 6097W        W77680   0.070  36.916  10.687
 6098W        W77681  43.418  37.403   0.731
 6099W        W77682  31.358  28.573   3.895
 6100W        W77683   9.184  20.100   1.757
 6101W        W77684  29.514   2.354   0.313
 6102W        W77685  18.346   0.367  14.370
 6103W        W77686   4.813   5.471  13.055
 6104W        W77687  20.169   0.513   3.694
 6105W        W77688   1.920  37.584   5.080
 6106W        W77689  34.124  30.109  11.634
 6107W        W77690  33.892  15.721   0.822
 6108W        W77691  11.582  37.460   0.715
 6109W        W77692  23.771   8.567   2.998
 6110W        W77693  13.703  15.880  13.283
 6111W        W77694  41.948   4.119  12.812
 6112W        W77695  38.375  42.397  11.966
 6113W        W77696   1.687  14.292  11.404
 6114W        W77697  23.038  21.535  11.665
 6115W        W77698  18.580   5.176  12.432
 6116W        W77699  41.089   1.022  12.073
 6117W        W77700   1.829  21.855   3.865
 6118W        W77701  20.714   1.161  14.332
 6119W        W77702   5.978   9.047  10.775
 6120W        W77703  43.798  25.750   2.906
 6121W        W77704  31.017   0.031   3.681
 6122W        W77705  31.168   7.850   0.890
 6123W        W77706   8.200  10.053   5.064
 6124W        W77707  43.703  38.624  13.313
 6125W        W77708   5.798  42.533  10.993
 6126W        W77709  13.083   3.885   1.820
 6127W        W77710  23.620  43.746  11.917
 6128W        W77711  12.519  24.677   2.213
 6129W        W77712  30.465  38.856  12.209
 6130W        W77713  27.149   6.417   0.758
 6131W        W77714   7.780  11.132   0.769
 6132W        W77715   0.801  27.157   3.957
 6133W        W77716   7.148  15.904   3.836
 6134W        W77717   1.877   0.717   2.470
 6135W        W77718   9.357  24.299  11.628
 6136W        W77719  21.406  40.037  11.172
 6137W        W77720   7.041   0.353  11.640
 6138W        W77721   7.864  31.110   3.829
 6139W        W77722   2.160  33.546  11.503
 6140W        W77723  17.262  19.570  10.748
 6141W        W77724  34.979  40.409  11.217
 6142W        W77725  26.140  15.805  13.087
 6143W        W77726  14.787  36.382  11.912
 6144W        W77727  34.531  18.217  14.545
 6145W        W77728  32.963  43.032   0.499
 6146W        W77729  32.188  19.551   2.974
 6147W        W77730   2.800  33.476  12.105
 6148W        W77731   7.402   5.461  14.462
 6149W        W77732  10.347  36.540   0.252
 6150W        W77733   2.301   8.254  10.615
 6151W        W77734   4.755   4.017  10.766
 6152W        W77735  26.559  31.035   4.544
 6153W        W77736  30.673  20.659   5.024
 6154W        W77737   7.764  32.609  11.980
 6155W        W77738   5.710  43.885   1.596
 6156W        W77739   7.778  21.523   3.580
 6157W        W77740  22.428  14.661   2.379
 6158W        W77741  29.473  34.551   9.873
 6159W        W77742  34.981  36.935  14.923
 6160W        W77743  36.194  33.547  11.591
 6161W        W77744  12.752   3.580   2.844
 6162W        W77745  23.613  25.742   4.624
 6163W        W77746  23.293  19.202   0.686
 6164W        W77747  24.403  38.166  13.336
 6165W        W77748  44.529   5.410  14.222
 6166W        W77749   0.045  32.935  14.132
 6167W        W77750   4.961   7.463  13.414
 6168W        W77751  43.966  36.477  12.512
 6169W        W77752  12.769   6.154   4.525
 6170W        W77753  31.149  29.122  14.198
 6171W        W77754   8.072  19.137   3.620
 6172W        W77755  31.059   7.936   3.167
 6173W        W77756  43.891  21.601   1.892
 6174W        W77757  20.893  21.919   4.998
 6175W        W77758   6.416  22.518  14.786
 6176W        W77759  32.405  14.728   3.251
 6177W        W77760  11.113  23.792   2.461
 6178W        W77761  11.626   4.169  14.570
 6179W        W77762  35.331   5.442   1.190
 6180W        W77763  19.639   2.558  13.351
 6181W        W77764   4.159   2.260   0.482
 6182W        W77765   0.540  27.536  11.970
 6183W        W77766  15.796  16.072  13.853
 6184W        W77767  28.563  27.838   4.799
 6185W        W77768  37.617  36.128  13.022
 6186W        W77769  11.354  16.311   1.345
 6187W        W77770  33.340  26.088   0.954
 6188W        W77771  37.885   8.180   2.391
 6189W        W77772   5.970  39.536   3.001
 6190W        W77773  22.053   6.899  11.137
 6191W        W77774  41.028  34.642   0.832
 6192W        W77775   2.493  27.918  12.964
 6193W        W77776  37.035  11.889   2.245
 6194W        W77777  44.530  42.737   4.160
 6195W        W77778  18.047   2.933  14.485
 6196W        W77779  44.329   9.722   2.457
 6197W        W77780  39.223  20.741  12.391
 6198W        W77781   7.129  39.500  12.386
 6199W        W77782  39.097  13.682  14.744
 6200W        W77783  44.473   8.305   1.252
 6201W        W77784  27.477  12.992  10.661
 6202W        W77785  12.758  31.050   2.908
 6203W        W77786  18.027  38.808  10.677
 6204W        W77787  19.594  35.882   2.388
 6205W        W77788   6.072  33.215   2.479
 6206W        W77789  30.756  40.225   1.345
 6207W        W77790   5.465  23.061  14.360
 6208W        W77791   5.142  36.103   3.369
 6209W        W77792  23.690  27.460   0.814
 6210W        W77793   9.435  41.987  14.388
 6211W        W77794   6.762  27.068   3.403
 6212W        W77795   5.237   8.841  10.490
 6213W        W77796  25.749  37.377  12.634
 6214W        W77797   3.666  16.673   4.284
 6215W        W77798  41.474  32.173   0.343
 6216W        W77799  27.967   3.506   1.782
 6217W        W77800  10.224  30.872   4.141
 6218W        W77801   3.296   1.899  11.855
 6219W        W77802  27.420  36.481  11.134
 6220W        W77803  38.996   5.803  14.679
 6221W        W77804  14.805   5.841  13.979
 6222W        W77805  10.618  21.849   4.122
 6223W        W77806  36.150  43.644  11.554
 6224W        W77807   4.345  31.971  10.469
 6225W        W77808  25.837  25.916  14.524
 6226W        W77809   1.260  12.305  14.909
 6227W        W77810  17.727  31.664  13.874
 6228W        W77811  12.015  39.178   1.193
 6229W        W77812   6.069  23.009   4.095
 6230W        W77813  40.761  12.731   3.101
 6231W        W77814  36.990  28.142   1.707
 6232W        W77815  36.564   7.371   0.920
 6233W        W77816   0.698   0.546   0.950
 6234W        W77817  25.051  17.684  13.768
 6235W        W77818  29.082  21.678   0.910
 6236W        W77819  10.648   5.468   2.167
 6237W        W77820  12.708  17.594  14.879
 6238W        W77821  10.594   4.421  11.962
 6239W        W77822  33.294  16.773   4.988
 6240W        W77823  24.448  41.328  13.525
 6241W        W77824   8.282   0.820   4.599
 6242W        W77825  44.074   6.297   1.696
 6243W        W77826  41.036  14.131  13.592
 6244W        W77827  31.527   9.439  11.154
 6245W        W77828  42.557  14.758  11.206
 6246W        W77829  15.676  21.704  14.395
 6247W        W77830  28.021  42.262   2.259
 6248W        W77831  11.495  33.943  12.961
 6249W        W77832   3.361  14.220   0.736
 6250W        W77833   0.851  16.011   4.172
 6251W        W77834  11.073   9.613   4.121
 6252W        W77835  35.940  35.341  12.556
 6253W        W77836  41.847  27.605   0.978
 6254W        W77837  25.365  27.097  12.047
 6255W        W77838   5.341  30.104   0.868
 6256W        W77839  23.186  29.454  12.955
 6257W        W77840  26.671   5.803   3.925
 6258W        W77841  35.918  43.318   3.581
 6259W        W77842  33.710  38.484  13.377
 6260W        W77843  38.832  28.866   0.709
 6261W        W77844  24.219  36.931  14.928
 6262W        W77845  43.838  26.702  11.766
 6263W        W77846  19.543  28.939  14.884
 6264W        W77847  39.792  42.466  13.712
 6265W        W77848  34.069  11.649   2.420
 6266W        W77849  12.872   6.348  14.718
 6267W        W77850  20.004  41.323   2.978
 6268W        W77851  20.147  38.431  12.388
 6269W        W77852   0.770  22.207   2.585
 6270W        W77853  25.772  39.546   3.797
 6271W        W77854  17.296  22.159  12.414
 6272W        W77855  41.112  32.038   1.350
 6273W        W77856  19.716   1.519   4.557
 6274W        W77857   0.514  25.810   4.684
 6275W        W77858  14.682  18.980   2.909
 6276W        W77859   1.419  22.993   2.796
 6277W        W77860  14.517  11.668  14.477
 6278W        W77861  25.495  40.289   1.297
 6279W        W77862  34.923  41.555   2.764
 6280W        W77863  38.710   3.348   4.546
 6281W        W77864  30.599  15.589   0.563
 6282W        W77865  35.945  27.600   4.251
 6283W        W77866  11.251  22.789   4.991
 6284W        W77867  42.242  42.450  13.500
 6285W        W77868  32.518   4.153   0.683
 6286W        W77869  20.624   0.538  12.733
 6287W        W77870  23.700  21.001  12.503
 6288W        W77871  44.291  33.171  11.107
 6289W        W77872  18.681   5.907   4.597
 6290W        W77873   7.121   0.852  14.940
 6291W        W77874  44.833  38.821   1.411
 6292W        W77875  18.929  40.834  13.155
 6293W        W77876  19.025  37.319  11.602
 6294W        W77877  19.766  32.693   1.253
 6295W        W77878  20.976   7.739   4.191
 6296W        W77879  20.073  39.277  14.925
 6297W        W77880  43.342  15.287  11.560
 6298W        W77881  26.663  27.380   3.693
 6299W        W77882  32.313  15.130   1.415
 6300W        W77883  16.963  37.868   3.617
 6301W        W77884  22.750  31.804  10.063
 6302W        W77885  13.532  26.493   3.224
 6303W        W77886  35.727   8.397  13.863
 6304W        W77887  37.483  13.947  14.419
 6305W        W77888  27.221  15.513   4.113
 6306W        W77889  40.134  26.705  11.144
 6307W        W77890  15.381  34.734   4.543
 6308W        W77891  42.364  36.962   0.848
 6309W        W77892   4.308   8.865  12.421
 6310W        W77893  41.025  26.407  14.206
 6311W        W77894   6.277  31.316   1.198
 6312W        W77895   6.536   0.854   1.222
 6313W        W77896  23.193  32.185   1.995
 6314W        W77897   0.290   0.967  13.703
 6315W        W77898  21.938  10.939  10.106
 6316W        W77899  16.120   2.601   4.806
 6317W        W77900  11.041  18.105  14.577
 6318W        W77901  25.943  33.523   0.391
 6319W        W77902   3.960   5.505   4.339
 6320W        W77903  39.928  23.366   0.837
 6321W        W77904  42.574  27.097  12.398
 6322W        W77905  39.841  11.210   4.544
 6323W        W77906  41.764  15.707  12.580
 6324W        W77907  34.663   9.076   1.810
 6325W        W77908  38.912  31.931   0.931
 6326W        W77909  40.006  30.502   0.761
 6327W        W77910  11.726  22.410  13.174
 6328W        W77911  43.161  38.075  12.377
 6329W        W77912  22.568  20.201  11.368
 6330W        W77913  21.981  19.514   1.888
 6331W        W77914  11.813   4.429   2.200
 6332W        W77915  14.280  32.219   1.063
 6333W        W77916   5.963  18.625   4.197
 6334W        W77917  28.340  34.037   3.155
 6335W        W77918  22.125  40.590  12.839
 6336W        W77919   4.343  39.807   2.257
 6337W        W77920   3.176  19.749  12.160
 6338W        W77921  25.615  20.798   3.090
 6339W        W77922  28.448  34.153   4.527
 6340W        W77923  28.664  21.041  13.019
 6341W        W77924  13.090  28.558  10.423
 6342W        W77925  13.873  42.250  14.100
 6343W        W77926  27.476  42.539   0.704
 6344W        W77927   8.893   4.028  14.812
 6345W        W77928  41.660  40.653   3.619
 6346W        W77929   2.644  25.388  10.067
 6347W        W77930  23.333  20.687  13.400
 6348W        W77931  44.908  22.627  10.590
 6349W        W77932  19.803  20.149  11.527
 6350W        W77933   9.851   4.436  13.323
 6351W        W77934  39.903  15.431   2.824
 6352W        W77935   9.411   3.482  12.915
 6353W        W77936  22.562  44.313  11.243
 6354W        W77937  18.305  38.326   4.038
 6355W        W77938  43.048  14.565  11.121
 6356W        W77939   9.255   3.632  14.855
 6357W        W77940  20.196  42.350   4.467
 6358W        W77941  21.670  14.593  13.739
 6359W        W77942  24.801   3.656  10.862
 6360W        W77943  23.481  11.478   3.535
 6361W        W77944  17.446   0.231   2.708
 6362W        W77945  39.839  16.290  14.319
 6363W        W77946   4.755  20.449   4.180
 6364W        W77947  38.829   0.348   1.753
 6365W        W77948  23.763  30.645   2.139
 6366W        W77949  33.070   8.327  11.403
 6367W        W77950  14.419  19.122   0.483
 6368W        W77951   1.099  35.451   2.655
 6369W        W77952   4.178  36.057   2.166
 6370W        W77953  26.719   1.115   2.209
 6371W        W77954  31.170  11.627   0.025
 6372W        W77955  16.916  32.900  11.297
 6373W        W77956   1.779  38.980  13.967
 6374W        W77957   6.715  38.406   0.970
 6375W        W77958  28.526   2.747   1.394
 6376W        W77959  16.811  21.385  13.435
 6377W        W77960  17.341   9.304   4.910
 6378W        W77961  31.252  44.179   0.302
 6379W        W77962  21.509  16.981   2.739
 6380W        W77963  35.634  18.243   4.236
 6381W        W77964  37.422  21.161   3.651
 6382W        W77965   4.342  24.748  11.477
 6383W        W77966  38.066  27.111   3.759
 6384W        W77967  25.273  29.087  11.496
 6385W        W77968  28.145   5.374   2.344
 6386W        W77969  21.318  15.397   3.248
 6387W        W77970  11.563  35.418  11.253
 6388W        W77971  34.111  21.137   2.874
 6389W        W77972  10.839  21.444   4.733
 6390W        W77973  30.938   7.243   2.253
 6391W        W77974  44.279  25.059  10.946
 6392W        W77975  11.443   3.005   1.797
 6393W        W77976   5.301  36.834   4.596
 6394W        W77977  21.127  26.301  13.899
 6395W        W77978  19.760  38.549   3.656
 6396W        W77979  30.838  10.076  11.171
 6397W        W77980  20.230   1.456  11.990
 6398W        W77981  29.340   0.737  11.895
 6399W        W77982  11.612  21.283  14.796
 6400W        W77983  16.847  24.761  12.070
 6401W        W77984  16.944  38.123   4.172
 6402W        W77985  33.556  14.048  11.599
 6403W        W77986  33.009  38.129   1.216
 6404W        W77987  24.961  29.720  14.035
 6405W        W77988   5.885  31.278  10.875
 6406W        W77989  37.460   6.243  13.946
 6407W        W77990  12.418  31.172  12.116
 6408W        W77991  18.677  44.959  11.505
 6409W        W77992  11.741  21.278  10.058
 6410W        W77993  17.666  32.113  14.799
 6411W        W77994   9.339   2.372   4.648
 6412W        W77995  12.410  30.946  11.657
 6413W        W77996  19.663  43.864   0.278
 6414W        W77997  40.967  20.142   2.289
 6415W        W77998   7.676   4.907  11.615
 6416W        W77999  31.236  20.146   1.335
 6417W        W78000  44.125  42.071   1.450
 6418W        W78001  16.142  18.087  11.068
 6419W        W78002  39.941  23.432  12.083
 6420W        W78003   0.271   2.657   1.140
 6421W        W78004  22.279   6.857  13.090
 6422W        W78005   1.302  16.742   0.215
 6423W        W78006  32.774  12.614   1.327
 6424W        W78007  32.083  40.980  13.294
 6425W        W78008   7.835  40.185  14.062
 6426W        W78009   3.511  20.054   1.703
 6427W        W78010   8.247  43.451   3.913
 6428W        W78011   1.221  22.701  13.635
 6429W        W78012  28.464  10.861  11.531
 6430W        W78013  12.170  29.208   1.488
 6431W        W78014   8.608  17.436   5.167
 6432W        W78015  34.327  34.541  13.788
 6433W        W78016  14.542  37.000  11.542
 6434W        W78017  41.032  35.397  14.343
 6435W        W78018  25.999  27.506   1.924
 6436W        W78019  38.901  20.696  10.615
 6437W        W78020  13.220  14.721   0.879
 6438W        W78021   5.811   0.846  12.003
 6439W        W78022  38.523   2.251   2.664
 6440W        W78023  25.225  43.728   2.260
 6441W        W78024  19.110   6.885  13.496
 6442W        W78025   9.410  41.946   4.106
 6443W        W78026  13.753  35.349   4.984
 6444W        W78027  17.236  21.998   0.697
 6445W        W78028  27.484  26.052   3.724
 6446W        W78029  30.704  44.267  13.499
 6447W        W78030   3.872   4.873  14.073
 6448W        W78031  44.629  17.128  12.874
 6449W        W78032  38.595  21.380  11.638
 6450W        W78033  41.840  29.797  11.755
 6451W        W78034  40.389  35.650   3.907
 6452W        W78035  15.695  20.965   0.040
 6453W        W78036  16.077  33.146   3.663
 6454W        W78037  40.717  21.255  10.740
 6455W        W78038   4.412  20.306   0.035
 6456W        W78039   5.307  14.647   4.174
 6457W        W78040   5.211  22.737   2.694
 6458W        W78041  17.604  41.697   2.658
 6459W        W78042  10.644  10.197  11.977
 6460W        W78043  30.855  36.641  11.980
 6461W        W78044  44.015  26.927   2.681
 6462W        W78045  40.863  42.267   3.801
 6463W        W78046  32.170  30.066  11.594
 6464W        W78047  29.608   3.903   0.847
 6465W        W78048  14.565   4.839   2.295
 6466W        W78049   2.241  44.831  14.011
 6467W        W78050  42.571  23.455  12.999
 6468W        W78051  11.384   2.795   3.707
 6469W        W78052  44.884  17.865   1.783
 6470W        W78053  11.345   5.657   2.713
 6471W        W78054  10.628  42.535   3.650
 6472W        W78055  18.476  42.543   2.914
 6473W        W78056  17.581  17.036   2.868
 6474W        W78057  40.325   3.156  13.506
 6475W        W78058  17.906  43.588  12.052
 6476W        W78059  27.231  27.143   3.130
 6477W        W78060  29.171   8.261   1.733
 6478W        W78061  34.473  31.741   0.929
 6479W        W78062   9.130  27.461  12.113
 6480W        W78063  25.207  44.858  10.760
 6481W        W78064   5.751  32.267  11.068
 6482W        W78065  41.255  36.834  11.528
 6483W        W78066  11.100  37.256   0.601
 6484W        W78067  19.998   6.228   1.289
 6485W        W78068   0.458  37.805  14.379
 6486W        W78069  10.730  12.397  14.961
 6487W        W78070  20.971   2.408   3.172
 6488W        W78071   7.720  30.639  12.844
 6489W        W78072  26.658  13.790   4.425
 6490W        W78073  34.585  35.076  14.828
 6491W        W78074   9.089  39.447   1.000
 6492W        W78075  22.561  33.464  14.701
 6493W        W78076  44.777  13.729   4.859
 6494W        W78077   9.744   6.898   3.274
 6495W        W78078  10.704   6.147   4.882
 6496W        W78079  39.117  38.093   4.123
 6497W        W78080  17.726  17.786  13.335
 6498W        W78081   3.623   2.239   4.558
 6499W        W78082  23.258   4.256   0.341
 6500W        W78083  32.963  22.360   4.251
 6501W        W78084  17.904  44.399  14.873
 6502W        W78085   4.753  36.438   5.208
 6503W        W78086   9.106  10.797   3.143
 6504W        W78087  13.892  26.573   4.157
 6505W        W78088   6.409   1.293   2.828
 6506W        W78089  29.607  14.296   5.088
 6507W        W78090  23.516   7.489  11.018
 6508W        W78091  17.802  21.745   3.104
 6509W        W78092  25.915  26.449   4.185
 6510W        W78093   1.365  37.223  10.030
 6511W        W78094   5.778  19.783   1.160
 6512W        W78095  11.462   3.466  10.077
 6513W        W78096  20.164  18.307   2.275
 6514W        W78097  33.905  37.702  12.820
 6515W        W78098  20.684  27.759   5.141
 6516W        W78099  14.167   8.906  13.306
 6517W        W78100   9.409  15.084   0.054
 6518W        W78101  30.418  22.749  11.545
 6519W        W78102  21.590  12.534   3.837
 6520W        W78103   1.456  13.162   1.672
 6521W        W78104  18.115   4.337   1.465
 6522W        W78105   7.153   4.660   3.686
 6523W        W78106  27.340  31.547   5.289
 6524W        W78107   0.846   2.948  11.040
 6525W        W78108   8.646   9.688   1.252
 6526W        W78109  18.733  25.303   2.660
 6527W        W78110  23.229  31.227   1.662
 6528W        W78111  21.334  12.326  13.438
 6529W        W78112  24.511  28.539  12.503
 6530W        W78113  21.518   3.211   3.555
 6531W        W78114  36.478   3.965   2.377
 6532W        W78115  34.876  29.831  13.391
 6533W        W78116  35.400  10.264   4.614
 6534W        W78117  17.215  20.229   2.474
 6535W        W78118   7.235   4.752  12.965
 6536W        W78119  42.199  30.885  12.928
 6537W        W78120   3.842  26.625   4.997
 6538W        W78121  35.536  21.996  10.338
 6539W        W78122  27.714  20.579   3.948
 6540W        W78123  27.978  38.272  12.036
 6541W        W78124   8.913   7.191   4.509
 6542W        W78125  15.216  28.029  12.522
 6543W        W78126   7.321   0.253  13.281
 6544W        W78127  39.579  35.559  13.911
 6545W        W78128   8.941  37.020   4.685
 6546W        W78129  14.120  44.755   2.660
 6547W        W78130   8.176  22.673  14.364
 6548W        W78131   3.797  22.754   1.325
 6549W        W78132  15.310  32.996   2.413
 6550W        W78133   8.146  35.113   3.835
 6551W        W78134  25.097   6.308   1.921
 6552W        W78135  24.038  12.138  13.813
 6553W        W78136   4.224  16.797   2.800
 6554W        W78137  25.816  17.703   0.097
 6555W        W78138  38.522  19.068   0.163
 6556W        W78139  17.532  12.055   3.381
 6557W        W78140  18.194  40.343   0.075
 6558W        W78141   4.699  38.138   4.469
 6559W        W78142  20.949  25.536   0.271
 6560W        W78143  44.189  30.119  12.751
 6561W        W78144  38.241  44.887   2.872
 6562W        W78145  24.566  15.719  11.558
 6563W        W78146  16.550  38.772   0.499
 6564W        W78147  10.246  25.175  14.711
 6565W        W78148  17.186  16.642  12.338
 6566W        W78149   3.435   1.180  12.551
 6567W        W78150  27.545  13.953  11.953
 6568W        W78151   3.751  23.277   4.145
 6569W        W78152  14.138   5.293  13.411
 6570W        W78153  27.435  28.716  12.446
 6571W        W78154  20.092  33.451  13.209
 6572W        W78155  12.904   8.338  11.362
 6573W        W78156  32.603  29.886  10.592
 6574W        W78157  41.778  28.644   0.861
 6575W        W78158  32.158   0.965  10.437
 6576W        W78159   1.721  28.414   1.288
 6577W        W78160  34.836  37.753   0.344
 6578W        W78161  31.921  44.855  13.327
 6579W        W78162  30.275  36.203   2.369
 6580W        W78163  38.497  27.483   3.267
 6581W        W78164  24.766  29.492  14.456
 6582W        W78165  25.260  44.021  14.884
 6583W        W78166  27.699  30.321   1.899
 6584W        W78167  37.089  32.078   4.147
 6585W        W78168  34.604  42.481  14.814
 6586W        W78169  15.366  37.797  13.037
 6587W        W78170  30.061   3.267  11.189
 6588W        W78171  38.909  10.695   3.617
 6589W        W78172  30.083  28.833  14.547
 6590W        W78173   7.331  16.117   4.285
 6591W        W78174   5.208   9.744  14.593
 6592W        W78175  14.741  23.358   2.355
 6593W        W78176  19.049  13.639   4.126
 6594W        W78177   3.882  16.817   2.291
 6595W        W78178  16.388  36.976   4.573
 6596W        W78179  14.447  33.918   3.233
 6597W        W78180   6.707  32.653  11.110
 6598W        W78181  26.410  44.200  13.959
 6599W        W78182  19.329   8.279  14.284
 6600W        W78183  22.764   0.662  12.862
 6601W        W78184   9.376  35.495  12.065
 6602W        W78185  35.492  30.591  13.292
 6603W        W78186  38.811  44.356  13.926
 6604W        W78187   8.933  13.855  13.457
 6605W        W78188  34.564  43.741   3.212
 6606W        W78189   6.970  21.619  14.813
 6607W        W78190   0.314  10.270  12.381
 6608W        W78191  44.710   6.123   0.371
 6609W        W78192  35.124   3.444  13.230
 6610W        W78193   6.182  12.888  11.512
 6611W        W78194  37.478   5.530  11.131
 6612W        W78195  11.258  43.534  14.366
 6613W        W78196  16.523  29.653   1.513
 6614W        W78197   3.521  33.388  14.513
 6615W        W78198   6.161  31.286  12.422
 6616W        W78199  16.057  39.060  10.763
 6617W        W78200  17.687  38.271   0.043
 6618W        W78201  17.804  39.760   3.616
 6619W        W78202   4.715  36.265   4.739
 6620W        W78203  13.060  30.193  12.957
 6621W        W78204  17.811   9.154   2.251
 6622W        W78205  30.036  11.751   3.155
 6623W        W78206   6.048  27.177   2.888
 6624W        W78207  40.756  27.038  12.067
 6625W        W78208   7.071  35.670   0.402
 6626W        W78209   5.337  24.929   0.705
 6627W        W78210  12.763  30.587   0.034
 6628W        W78211  29.617  32.281  11.122
 6629W        W78212  12.901   0.253   3.216
 6630W        W78213   5.494  39.391  14.755
 6631W        W78214   6.706  31.043   2.787
 6632W        W78215  17.082  30.558   0.746
 6633W        W78216  15.848  35.511  11.516
 6634W        W78217  21.607  26.746   1.822
 6635W        W78218   8.865  32.540  12.663
 6636W        W78219   2.663  31.221  13.384
 6637W        W78220  16.680  13.284   3.747
 6638W        W78221  26.879  15.726   0.434
 6639W        W78222  12.050  41.536  13.446
 6640W        W78223  20.135  44.267   4.151
 6641W        W78224  40.640  19.681  13.508
 6642W        W78225  24.558  44.282   1.457
 6643W        W78226  22.164  33.133  14.812
 6644W        W78227  24.417  29.436   1.782
 6645W        W78228  27.060  17.742   1.266
 6646W        W78229   3.979  27.554  10.595
 6647W        W78230  28.577  13.544  14.255
 6648W        W78231  16.750  36.190  13.851
 6649W        W78232  24.845  28.716   1.364
 6650W        W78233  25.032   8.181   1.871
 6651W        W78234   3.597  29.118   1.856
 6652W        W78235  19.780  42.918  13.452
 6653W        W78236  19.129  30.222  14.689
 6654W        W78237  24.380  20.181  11.104
 6655W        W78238  38.292  30.513   2.636
 6656W        W78239  31.521  21.386   1.741
 6657W        W78240  25.224  42.168  14.898
 6658W        W78241  11.909   7.764  12.501
 6659W        W78242  16.308   4.840   1.732
 6660W        W78243   6.270  33.285  11.479
 6661W        W78244   0.833  20.219   1.725
 6662W        W78245  17.670   4.749   3.626
 6663W        W78246  14.357  20.129  13.628
 6664W        W78247  25.633   2.392   1.526
 6665W        W78248  30.073  10.889   2.596
 6666W        W78249  12.271  41.806  10.596
 6667W        W78250  12.139  26.913  11.174
 6668W        W78251   4.225   5.612  11.320
 6669W        W78252  35.652  34.461   3.551
 6670W        W78253   1.770  34.077  14.815
 6671W        W78254  28.870   4.055   3.287
 6672W        W78255   1.525  36.810  11.174
 6673W        W78256  28.580  34.757  11.050
 6674W        W78257  12.337  33.189  14.857
 6675W        W78258  25.809  33.936   3.357
 6676W        W78259  31.533  43.558   1.789
 6677W        W78260  37.873  11.155   0.362
 6678W        W78261  21.144  42.331   4.561
 6679W        W78262  43.792   1.960   4.096
 6680W        W78263  33.443  44.585  14.809
 6681W        W78264  32.464   8.144   4.129
 6682W        W78265  41.356  37.179   0.374
 6683W        W78266   0.713  17.732   1.841
 6684W        W78267   7.079  17.372   0.750
 6685W        W78268  17.863  11.222   3.628
 6686W        W78269  26.534   0.265   4.088
 6687W        W78270  43.752   3.720   0.930
 6688W        W78271  39.488  32.725  12.874
 6689W        W78272  43.957  43.499   0.811
 6690W        W78273  23.729  43.857   1.231
 6691W        W78274  25.741  11.354   0.393
 6692W        W78275  13.770  11.910   0.807
 6693W        W78276   2.983   6.783  12.872
 6694W        W78277   2.113   0.444   4.863
 6695W        W78278  14.708  30.913  12.657
 6696W        W78279  23.824  21.946   4.149
 6697W        W78280  11.216   5.710  14.935
 6698W        W78281  32.625  25.071  14.784
 6699W        W78282  21.326  28.128   4.495
 6700W        W78283  18.198  32.677   1.743
 6701W        W78284  17.771  36.029  14.394
 6702W        W78285  23.763  17.733   1.695
 6703W        W78286  20.181   7.530   0.001
 6704W        W78287  43.701  43.950   4.441
 6705W        W78288  33.403  34.314   3.632
 6706W        W78289  29.735  29.106   1.794
 6707W        W78290  34.266  31.675  12.045
 6708W        W78291  41.472   7.849   2.036
 6709W        W78292   2.951  38.888   0.446
 6710W        W78293   9.132  39.075   4.133
 6711W        W78294  21.747  10.240  11.150
 6712W        W78295  38.400  34.045  14.531
 6713W        W78296  44.385  19.050  11.097
 6714W        W78297  40.882  21.634  12.482
 6715W        W78298  27.405  21.919   0.907
 6716W        W78299  14.600  28.126   3.898
 6717W        W78300   6.687  42.749   3.462
 6718W        W78301  44.640  16.624  12.705
 6719W        W78302   8.680  29.941  12.338
 6720W        W78303  40.604  14.887   2.520
 6721W        W78304  23.094  25.156   2.004
 6722W        W78305   7.404  24.518   4.166
 6723W        W78306  44.768  18.097  11.190
 6724W        W78307  25.660   2.753   3.132
 6725W        W78308  19.843  20.953  12.459
 6726W        W78309  22.662  40.413   2.698
 6727W        W78310  18.304  22.050   2.729
 6728W        W78311  13.429  16.618   3.290
 6729W        W78312   4.496   1.422  11.399
 6730W        W78313  43.018   7.354  12.398
 6731W        W78314  20.477  24.575  12.143
 6732W        W78315   3.932  32.613  13.112
 6733W        W78316  37.331  40.158  11.487
 6734W        W78317  26.685   0.966   0.810
 6735W        W78318  19.564  13.776   4.156
 6736W        W78319  43.016  25.138  13.813
 6737W        W78320  19.083  33.916   2.051
 6738W        W78321  19.259  35.415  11.717
 6739W        W78322  19.739   7.248   2.457
 6740W        W78323  10.409  37.038   2.078
 6741W        W78324  25.991  14.035  14.867
 6742W        W78325  19.954   3.036  11.069
 6743W        W78326  37.759  40.454  11.540
 6744W        W78327  43.509  14.621   3.401
 6745W        W78328  15.249  31.978   2.744
 6746W        W78329  21.218  44.207   1.800
 6747W        W78330  29.158  36.541   3.649
 6748W        W78331   9.016  32.457  14.960
 6749W        W78332  11.501   4.680  10.986
 6750W        W78333  24.230  37.080   0.850
 6751W        W78334  42.945  27.213  11.696
 6752W        W78335  32.644  13.881  14.395
 6753W        W78336  28.676  26.622  13.061
 6754W        W78337  13.709  24.437   4.132
 6755W        W78338  44.903  30.643  10.743
 6756W        W78339  31.649  23.017   0.378
 6757W        W78340  44.506  28.808  12.553
 6758W        W78341  30.620   5.432  10.775
 6759W        W78342  33.132  11.343  13.536
 6760W        W78343  22.126  11.374   1.120
 6761W        W78344  31.004  21.110  12.039
 6762W        W78345  11.702   9.897  14.868
 6763W        W78346  41.554  28.194  11.133
 6764W        W78347  15.130  28.234  11.596
 6765W        W78348  18.851  30.076   1.735
 6766W        W78349   2.704  16.012   2.691
 6767W        W78350  14.315   1.339   0.261
 6768W        W78351   9.502   9.735  11.029
 6769W        W78352  27.299   4.662   2.734
 6770W        W78353  25.887  15.321  12.952
 6771W        W78354  33.659  36.545   3.076
 6772W        W78355   3.931  42.030  13.057
 6773W        W78356  41.499  14.735   0.133
 6774W        W78357  18.651  18.032  14.072
 6775W        W78358   2.233  21.532   5.249
 6776W        W78359  22.624   6.738  10.523
 6777W        W78360  38.738  32.398   1.212
 6778W        W78361  14.223   7.163   3.169
 6779W        W78362  42.439  31.203  13.282
 6780W        W78363  13.135  26.526  13.253
 6781W        W78364   9.910  39.679   1.892
 6782W        W78365   3.203  15.685  11.098
 6783W        W78366  40.303  12.685   2.876
 6784W        W78367   6.826  15.070  13.072
 6785W        W78368   6.332  43.472  13.605
 6786W        W78369  15.199  23.599   0.696
 6787W        W78370   9.094   9.420  12.962
 6788W        W78371  34.136  25.443  12.895
 6789W        W78372   3.433  42.332  12.043
 6790W        W78373  15.365   5.271  11.887
 6791W        W78374  41.057  17.666   0.120
 6792W        W78375  44.698  14.329  13.600
 6793W        W78376   2.676  25.731   2.678
 6794W        W78377   7.030  23.758   4.041
 6795W        W78378   7.967  39.747  13.793
 6796W        W78379  25.077  16.633   2.814
 6797W        W78380  30.437  33.291  10.700
 6798W        W78381   6.387   8.400  11.091
 6799W        W78382  18.805  22.923   4.606
 6800W        W78383  31.096  10.033  12.527
 6801W        W78384  17.107  42.497   1.651
 6802W        W78385  16.339  18.105   4.093
 6803W        W78386   4.207  42.370   1.420
 6804W        W78387  13.117  34.727   3.635
 6805W        W78388  14.124  35.372   1.198
 6806W        W78389  15.295  34.579  14.936
 6807W        W78390  44.374  39.956  10.413
 6808W        W78391  10.314  41.596  13.975
 6809W        W78392  19.513   0.779  12.199
 6810W        W78393  44.992  37.511   0.897
 6811W        W78394  43.473  27.696   4.189
 6812W        W78395  41.219  14.536   4.079
 6813W        W78396   6.691  39.136   1.783
 6814W        W78397  37.522  22.549  12.746
 6815W        W78398  37.534  31.067   1.173
 6816W        W78399   7.501  37.005   1.415
 6817W        W78400  23.412  33.877   3.352
 6818W        W78401  38.026  24.548   4.676
 6819W        W78402  35.049  13.694   4.046
 6820W        W78403  24.027   4.866   1.509
 6821W        W78404  40.126   0.328   4.102
 6822W        W78405  37.361  18.939  11.129
 6823W        W78406  44.059  38.831   2.021
 6824W        W78407  12.804  41.644  14.943
 6825W        W78408  12.724  40.806  14.345
 6826W        W78409  29.428  26.132   1.838
 6827W        W78410   8.812   3.301   4.421
 6828W        W78411   6.636  26.771   4.296
 6829W        W78412  42.231  33.379   1.868
 6830W        W78413  38.919  39.684  11.508
 6831W        W78414   9.092  37.497   1.985
 6832W        W78415   4.245  31.835  11.984
 6833W        W78416   1.483  17.680   3.801
 6834W        W78417  13.773  35.126  10.791
 6835W        W78418  22.341  29.112  13.047
 6836W        W78419  14.808  27.988  14.444
 6837W        W78420   9.887  30.982  11.085
 6838W        W78421  20.071  28.146  11.072
 6839W        W78422   4.969  36.313   2.379
 6840W        W78423   8.704   5.214   1.943
 6841W        W78424   8.722  34.562   4.342
 6842W        W78425  12.140   0.960   0.856
 6843W        W78426  24.508  16.204   3.192
 6844W        W78427  35.074  35.321   1.469
 6845W        W78428  40.978  42.208   1.477
 6846W        W78429   0.529  17.521  13.016
 6847W        W78430  39.067  33.668  14.030
 6848W        W78431  18.633  28.740  12.921
 6849W        W78432  40.917  17.610   0.646
 6850W        W78433  33.395   7.213   0.887
 6851W        W78434   4.309  17.090   3.623
 6852W        W78435   6.320  28.993  10.840
 6853W        W78436   2.790  24.292  10.984
 6854W        W78437  11.641  36.323  14.972
 6855W        W78438   3.939  37.832   0.970
 6856W        W78439   3.442  35.585   0.754
 6857W        W78440  28.652  11.357   0.839
 6858W        W78441  27.747  25.863   4.134
 6859W        W78442  11.577  10.635   2.463
 6860W        W78443  32.379  43.608   4.565
 6861W        W78444  12.340  14.645   0.207
 6862W        W78445  35.023  17.382   4.112
 6863W        W78446  24.624  36.939   3.640
 6864W        W78447  13.486  41.111   2.357
 6865W        W78448  19.941  11.657   1.459
 6866W        W78449  34.383   1.834   3.133
 6867W        W78450   1.981  32.400   2.138
 6868W        W78451  26.463  41.937   4.983
 6869W        W78452  37.899  28.702   1.236
 6870W        W78453  27.042  16.337  10.801
 6871W        W78454  32.106   0.977  12.669
 6872W        W78455  39.188  23.557  13.888
 6873W        W78456  32.010  24.063   1.310
 6874W        W78457  23.156  16.529   1.292
 6875W        W78458   0.273  34.783   0.472
 6876W        W78459  23.997  41.505   3.733
 6877W        W78460  36.605  10.273   4.137
 6878W        W78461  38.068   7.670  14.841
 6879W        W78462  42.402  25.077   2.298
 6880W        W78463  22.712  36.974  12.974
 6881W        W78464  12.650   4.123   1.652
 6882W        W78465   1.924   6.792  10.709
 6883W        W78466  40.133  23.798  13.864
 6884W        W78467  11.631   3.233  14.976
 6885W        W78468  39.400  30.622  14.573
 6886W        W78469   5.868  31.884   3.143
 6887W        W78470  41.737  16.698   0.638
 6888W        W78471  34.400   6.870   1.032
 6889W        W78472   2.807  28.433  14.390
 6890W        W78473  10.340  28.764  10.300
 6891W        W78474  40.306  25.905  10.739
 6892W        W78475   7.274  44.510  14.541
 6893W        W78476  27.156  13.662   4.622
 6894W        W78477  35.401   1.405  14.919
 6895W        W78478   1.668  17.667  12.444
 6896W        W78479  22.744  13.426   1.499
 6897W        W78480  36.875   8.795  13.455
 6898W        W78481   6.169  14.797   2.394
 6899W        W78482  40.364  32.510  12.472
 6900W        W78483  21.736  21.829   4.137
 6901W        W78484  33.651  28.950  12.456
 6902W        W78485  38.121  38.518  12.976
 6903W        W78486   8.751  26.705  13.066
 6904W        W78487  21.615  43.171   0.779
 6905W        W78488   5.439  27.444   0.484
 6906W        W78489  33.046  16.597  10.585
 6907W        W78490  35.124  25.096   0.339
 6908W        W78491  23.926  33.662  14.962
 6909W        W78492  35.013  23.018  13.787
 6910W        W78493  30.480  41.279  11.381
 6911W        W78494  33.651  25.082  13.586
 6912W        W78495  18.135  20.138  12.897
 6913W        W78496  22.499  21.198   1.330
 6914W        W78497  40.543  33.525  12.534
 6915W        W78498  11.394   2.474  14.849
 6916W        W78499  40.805  13.278  12.622
 6917W        W78500   7.360  28.899   1.766
 6918W        W78501  18.559   5.257   0.394
 6919W        W78502   8.289  34.010   3.214
 6920W        W78503  18.790  36.019   0.235
 6921W        W78504   4.648  32.900   2.501
 6922W        W78505  21.928  35.055  12.667
 6923W        W78506  25.908  39.836  12.118
 6924W        W78507  39.000   4.242   0.968
 6925W        W78508  15.697  16.796  11.024
 6926W        W78509  33.937  41.597  14.927
 6927W        W78510  12.803  32.955   1.794
 6928W        W78511  20.785  39.866   0.097
 6929W        W78512  28.501  19.023  12.015
 6930W        W78513  36.743  43.059   4.095
 6931W        W78514  27.595  23.725   1.723
 6932W        W78515  31.044   1.854   0.779
 6933W        W78516  42.560  21.074  14.377
 6934W        W78517   4.110   6.536   0.518
 6935W        W78518  16.666  35.358  10.659
 6936W        W78519  39.274  34.052   1.753
 6937W        W78520  20.484  29.736  14.468
 6938W        W78521   6.968  34.975  11.553
 6939W        W78522  14.073  12.568   2.705
 6940W        W78523   5.752  18.954   4.554
 6941W        W78524  31.396  41.363  10.995
 6942W        W78525  18.133  30.018  14.883
 6943W        W78526   1.706  22.677   4.251
 6944W        W78527   4.755  11.353   2.152
 6945W        W78528  34.125  11.804  10.473
 6946W        W78529  22.416  18.328  14.062
 6947W        W78530  19.206  17.109   0.461
 6948W        W78531  40.918   0.364  13.243
 6949W        W78532   4.226  30.495   2.295
 6950W        W78533  30.105   2.402   3.130
 6951W        W78534  43.551  44.025  10.743
 6952W        W78535  15.716  12.085  13.832
 6953W        W78536   2.056   5.340  11.106
 6954W        W78537  33.604  34.233  12.482
 6955W        W78538  44.874  13.269  12.560
 6956W        W78539  36.773  43.314  13.861
 6957W        W78540  14.209   5.322   3.257
 6958W        W78541  19.998  23.947  10.540
 6959W        W78542  23.461  33.630  10.712
 6960W        W78543  35.247  26.119  10.564
 6961W        W78544  10.162  44.503   3.108
 6962W        W78545   0.575  10.873   2.729
 6963W        W78546  23.265  22.708   4.485
 6964W        W78547   9.734   5.269   4.995
 6965W        W78548  31.579   1.421   1.797
 6966W        W78549  22.689  15.388   0.817
 6967W        W78550  13.388  25.577   3.155
 6968W        W78551  12.453  27.267  10.987
 6969W        W78552  34.804  43.799   2.289
 6970W        W78553  39.833  35.462  10.949
 6971W        W78554  33.119  27.957  14.495
 6972W        W78555  18.086   1.538   1.319
 6973W        W78556  34.776  34.224   0.238
 6974W        W78557  42.215   2.479   1.771
 6975W        W78558   7.318   5.177   1.295
 6976W        W78559  38.151  27.393   2.847
 6977W        W78560  28.456  38.558   3.618
 6978W        W78561   7.753  24.982  12.365
 6979W        W78562  32.635  17.632   0.672
 6980W        W78563  28.097  15.878   1.800
 6981W        W78564  44.496  19.813  13.391
 6982W        W78565  41.012  11.199   1.413
 6983W        W78566  30.161  39.512  12.426
 6984W        W78567  17.445   4.999  14.589
 6985W        W78568   6.418  23.178   1.534
 6986W        W78569  11.639  41.364   0.488
 6987W        W78570  16.820   1.327   3.744
 6988W        W78571  14.570  19.733  14.494
 6989W        W78572  25.091  27.796   2.636
 6990W        W78573  29.916   3.887  14.561
 6991W        W78574  28.901   6.852   0.507
 6992W        W78575  11.803   7.217  13.682
 6993W        W78576  43.047   0.929   5.098
 6994W        W78577  15.378  12.305  11.720
 6995W        W78578   8.239   3.399   1.814
 6996W        W78579  44.245   6.990  11.437
 6997W        W78580   8.810   3.889  11.599
 6998W        W78581  30.484  35.423  11.138
 6999W        W78582  18.107  39.628   1.939
 7000W        W78583  32.111  34.566  11.987
 7001W        W78584  25.270  35.753   2.282
 7002W        W78585   2.671  25.026  13.235
 7003W        W78586  26.424  17.092  13.594
 7004W        W78587  22.461  20.084   3.154
 7005W        W78588   4.955  22.732  12.953
 7006W        W78589  16.816  19.827   3.745
 7007W        W78590  15.940  29.007  10.214
 7008W        W78591  34.916  25.482  11.006
 7009W        W78592  36.587  26.743  10.664
 7010W        W78593  40.258  41.872   0.337
 7011W        W78594  43.989  18.776   1.191
 7012W        W78595  12.333   3.982  13.842
 7013W        W78596  29.534  27.100  13.686
 7014W        W78597   5.534  23.947   2.809
 7015W        W78598  17.799  17.542  10.534
 7016W        W78599  40.702  22.678  12.557
 7017W        W78600  17.598  10.450   3.197
 7018W        W78601   2.181  19.558   0.608
 7019W        W78602  29.885  22.064   1.742
 7020W        W78603  11.138  29.670  14.375
 7021W        W78604  15.732  31.586  13.022
 7022W        W78605  18.153   5.303  12.958
 7023W        W78606   5.640  44.841  13.395
 7024W        W78607  20.205  13.828  11.597
 7025W        W78608  28.115  21.541  10.161
 7026W        W78609  44.449  22.723   0.066
 7027W        W78610   1.654  24.719   4.100
 7028W        W78611  29.413  35.486   4.358
 7029W        W78612  24.265  25.532   0.955
 7030W        W78613  16.139  29.259  10.621
 7031W        W78614  39.237  38.141   1.478
 7032W        W78615  34.532  11.788   2.629
 7033W        W78616  19.591  22.976  13.965
 7034W        W78617  41.998  33.589  12.616
 7035W        W78618  33.821  31.108  12.813
 7036W        W78619  13.301   8.642   4.593
 7037W        W78620   3.003  26.718  11.595
 7038W        W78621  22.235   7.185   1.393
 7039W        W78622   0.546  38.492   3.665
 7040W        W78623  14.083  13.747   1.060
 7041W        W78624   2.383  18.782   3.196
 7042W        W78625  29.182  37.108  12.188
 7043W        W78626  13.572  27.393   2.349
 7044W        W78627  35.358  18.644  13.802
 7045W        W78628  12.065  19.405  11.173
 7046W        W78629   4.381   9.270  11.553
 7047W        W78630  44.983  25.607   0.716
 7048W        W78631  24.456   1.314  11.580
 7049W        W78632   4.720   0.260   4.002
 7050W        W78633  32.588  41.182  14.112
 7051W        W78634   4.950  38.360  11.154
 7052W        W78635  23.950  38.439   4.641
 7053W        W78636  31.983  10.689  12.907
 7054W        W78637  16.231  20.202   0.412
 7055W        W78638  29.643   3.596   4.370
 7056W        W78639  12.538  28.082   4.249
 7057W        W78640  11.098  25.529   2.244
 7058W        W78641   8.597   6.914  12.053
 7059W        W78642  19.095   4.426   1.401
 7060W        W78643  27.736  40.573   3.079
 7061W        W78644  11.369  35.463   3.194
 7062W        W78645   5.335  12.306  12.436
 7063W        W78646  16.667  15.937   1.685
 7064W        W78647  19.333  36.328   2.480
 7065W        W78648  14.763  39.830   3.149
 7066W        W78649  22.034  24.718   0.439
 7067W        W78650  31.334   4.705   0.960
 7068W        W78651  15.769  44.495  10.539
 7069W        W78652  18.658  14.384   3.223
 7070W        W78653  24.201   0.024   0.736
 7071W        W78654  32.628  16.040   4.083
 7072W        W78655   9.898  13.131  14.770
 7073W        W78656  23.261  20.190   2.701
 7074W        W78657   4.814  44.816   4.248
 7075W        W78658  32.590  37.071   0.856
 7076W        W78659   1.530  21.960   2.927
 7077W        W78660  29.491  21.029   0.871
 7078W        W78661  18.384  27.044   2.741
 7079W        W78662  19.191  25.028   1.471
 7080W        W78663  42.267  18.251   1.479
 7081W        W78664  42.900  16.253  13.467
 7082W        W78665  14.110  32.196  11.072
 7083W        W78666  21.687  31.955  11.264
 7084W        W78667  23.046  24.181   4.425
 7085W        W78668  17.265  37.264  14.545
 7086W        W78669  23.565  31.958   4.164
 7087W        W78670  18.631   9.770  14.215
 7088W        W78671  11.326   0.132   2.714
 7089W        W78672  44.443  34.402   0.344
 7090W        W78673  18.317  19.132  10.959
 7091W        W78674  23.039  25.546  14.429
 7092W        W78675  22.000  24.230   3.884
 7093W        W78676  36.680   6.405   0.795
 7094W        W78677  43.102  18.022   2.572
 7095W        W78678  34.264  36.453   3.559
 7096W        W78679   0.946  39.084   0.014
 7097W        W78680   8.640   2.888   3.150
 7098W        W78681   9.405  12.823  14.787
 7099W        W78682  15.689   0.725   2.341
 7100W        W78683   7.738  25.453  14.091
 7101W        W78684  14.921   7.164   3.621
 7102W        W78685  11.693  29.223   4.227
 7103W        W78686  42.300  16.204   4.474
 7104W        W78687  26.075   6.518   0.277
 7105W        W78688  41.138  39.515  11.229
 7106W        W78689  39.655  16.471  14.854
 7107W        W78690  28.515  44.762  12.486
 7108W        W78691  33.306  25.961   2.801
 7109W        W78692  20.680  43.741   0.684
 7110W        W78693  11.884   2.764   1.635
 7111W        W78694   3.558   7.401   0.444
 7112W        W78695  32.447   9.971   0.956
 7113W        W78696   8.289  41.496   0.017
 7114W        W78697  15.549  37.526  12.608
 7115W        W78698  29.064   9.849   4.172
 7116W        W78699  22.299  27.702   1.448
 7117W        W78700   9.332  14.300  14.142
 7118W        W78701  35.362   1.304   4.450
 7119W        W78702  36.492  32.972  11.512
 7120W        W78703  14.379  13.250   0.371
 7121W        W78704  40.687   3.522   4.534
 7122W        W78705  37.932  22.949  14.353
 7123W        W78706  38.625  22.026  10.884
 7124W        W78707  24.595  13.208   4.360
 7125W        W78708  20.565  31.438   2.886
 7126W        W78709  39.066  21.456  12.923
 7127W        W78710  29.623   4.907   3.599
 7128W        W78711  15.892  42.505   0.648
 7129W        W78712  27.817  24.452   3.316
 7130W        W78713  27.619   4.907   3.603
 7131W        W78714  26.084  15.579  11.714
 7132W        W78715   7.491   8.725   0.325
 7133W        W78716  21.654  24.735   2.192
 7134W        W78717  11.870  12.858  13.990
 7135W        W78718   2.743   2.050   4.651
 7136W        W78719  41.387  22.461  14.245
 7137W        W78720   3.447  24.622   4.081
 7138W        W78721  40.156  43.336  11.128
 7139W        W78722  14.004  16.191  11.099
 7140W        W78723  22.013  24.572  12.041
 7141W        W78724   9.445  30.807   1.764
 7142W        W78725  17.170  22.778   2.425
 7143W        W78726   7.908  11.601   9.912
 7144W        W78727  21.482   4.060   4.196
 7145W        W78728  44.779  27.168  11.093
 7146W        W78729  30.063  22.706  12.883
 7147W        W78730  42.513  42.896   0.362
 7148W        W78731  19.563  34.090  13.083
 7149W        W78732   4.435  14.257  12.479
 7150W        W78733  30.465  38.325   4.629
 7151W        W78734  39.375  25.014  12.584
 7152W        W78735  32.305   9.787  10.747
 7153W        W78736  17.114  10.631   3.277
 7154W        W78737  24.501  24.232  12.027
 7155W        W78738  40.745  13.529   1.712
 7156W        W78739   2.395  16.717  12.850
 7157W        W78740  28.601  15.348  13.656
 7158W        W78741  42.765  44.990  11.128
 7159W        W78742  22.490  26.604   0.394
 7160W        W78743   1.415  36.489  14.718
 7161W        W78744  24.666  12.588   0.995
 7162W        W78745  13.549  15.565   2.162
 7163W        W78746  10.073  43.542  11.240
 7164W        W78747  22.024  42.994   1.050
 7165W        W78748  37.063  29.549   0.707
 7166W        W78749  37.882   0.234  13.264
 7167W        W78750  10.793  35.604   1.753
 7168W        W78751  34.683  41.190   4.298
 7169W        W78752  41.969  28.613  14.950
 7170W        W78753  17.660  18.683   1.251
 7171W        W78754   1.041  25.212  10.663
 7172W        W78755  19.538  39.688  11.735
 7173W        W78756  36.650  44.418  14.462
 7174W        W78757  21.778   8.910   5.058
 7175W        W78758  21.523   8.849  14.318
 7176W        W78759  23.661  15.279  13.856
 7177W        W78760  34.675  39.092   4.531
 7178W        W78761  26.045  27.438  11.014
 7179W        W78762  40.394  13.389  12.929
 7180W        W78763  34.955  11.886   2.327
 7181W        W78764  19.108   7.812   1.417
 7182W        W78765  35.375  12.022  12.531
 7183W        W78766  40.542  30.667  13.045
 7184W        W78767  13.562   0.675  10.887
 7185W        W78768  25.405   2.423  13.805
 7186W        W78769  43.355  38.279  14.428
 7187W        W78770  14.941  20.114   2.903
 7188W        W78771  30.124   5.306  10.954
 7189W        W78772  36.921   5.539   0.936
 7190W        W78773  43.185   0.311  11.224
 7191W        W78774  20.295  29.597  11.981
 7192W        W78775  36.468  13.340   3.768
 7193W        W78776   6.207   2.885   3.892
 7194W        W78777  12.845  35.065  10.784
 7195W        W78778  12.858  40.734  10.806
 7196W        W78779   7.534  30.596   1.392
 7197W        W78780  40.694  10.034   2.162
 7198W        W78781  15.804  31.641   1.428
 7199W        W78782  43.670  28.391  13.687
 7200W        W78783   2.750  30.025  14.395
 7201W        W78784  16.277  41.116   0.216
 7202W        W78785  38.476  34.378   2.836
 7203W        W78786  33.048  13.354   0.516
 7204W        W78787  27.868  29.182   2.672
 7205W        W78788  29.007  36.328   4.775
 7206W        W78789  30.720  35.853  14.483
 7207W        W78790   0.614  19.467   3.208
 7208W        W78791   6.357  22.496  13.802
 7209W        W78792  17.322  25.699   0.037
 7210W        W78793  41.019  35.071  11.081
 7211W        W78794  22.476  18.569  11.564
 7212W        W78795  42.381  37.380   4.625
 7213W        W78796  18.801  15.192  11.597
 7214W        W78797  23.690  15.833  12.331
 7215W        W78798  33.124  20.749   0.093
 7216W        W78799  15.132   8.717   0.778
 7217W        W78800  21.374  28.794   3.749
 7218W        W78801  11.314   7.804  13.324
 7219W        W78802   7.085  12.790   3.260
 7220W        W78803   5.250   3.173   0.890
 7221W        W78804  14.585  21.597  12.482
 7222W        W78805  36.627  34.851   4.199
 7223W        W78806  29.580   3.927   3.759
 7224W        W78807  29.492  28.520   2.251
 7225W        W78808  26.895   4.891  13.274
 7226W        W78809  33.888  18.689  12.529
 7227W        W78810  14.188   9.105  11.937
 7228W        W78811  34.503  34.412  10.874
 7229W        W78812  33.213   9.436  11.516
 7230W        W78813  11.693  31.904   4.154
 7231W        W78814  16.173  33.887  12.879
 7232W        W78815   0.179  28.365   3.811
 7233W        W78816   4.413  26.619   3.259
 7234W        W78817  31.052  32.052   0.372
 7235W        W78818  31.905   7.845   3.807
 7236W        W78819  32.436  32.903   3.601
 7237W        W78820   2.316  32.537   0.331
 7238W        W78821   2.410  33.060  11.579
 7239W        W78822  19.140   6.411  11.907
 7240W        W78823  43.224   5.022  10.346
 7241W        W78824  44.705  29.414   1.111
 7242W        W78825   7.001  21.027   3.770
 7243W        W78826  11.667  42.083  14.914
 7244W        W78827  32.998  44.835  14.837
 7245W        W78828  32.039   6.168  12.927
 7246W        W78829   1.017  40.182  14.924
 7247W        W78830  29.414  34.079  13.060
 7248W        W78831  37.815  44.611  13.896
 7249W        W78832  32.012  37.035   3.239
 7250W        W78833   6.526  30.232  10.589
 7251W        W78834   6.937  36.365   4.250
 7252W        W78835   6.801   0.437   0.025
 7253W        W78836  27.352  37.892   1.310
 7254W        W78837   1.634  11.828   1.910
 7255W        W78838  35.870   1.361  11.542
 7256W        W78839  31.305   6.572   0.624
 7257W        W78840  42.297  31.983  11.679
 7258W        W78841  23.677  13.529  11.095
 7259W        W78842  36.346  41.742  13.468
 7260W        W78843   0.837   5.135   0.491
 7261W        W78844   2.262  20.163   4.299
 7262W        W78845  23.021  23.085   2.678
 7263W        W78846   8.253  30.090  13.311
 7264W        W78847  13.885  38.950   1.651
 7265W        W78848  28.620   1.343  11.558
 7266W        W78849   4.972  13.317   4.212
 7267W        W78850  43.289  19.308   2.269
 7268W        W78851  35.266   0.355   0.878
 7269W        W78852  25.661  40.112  12.957
 7270W        W78853   8.380  29.362   2.377
 7271W        W78854   5.969  36.555  13.836
 7272W        W78855   8.051  36.593  10.624
 7273W        W78856  10.380  11.425   1.823
 7274W        W78857  25.460  40.866  13.470
 7275W        W78858  17.103  13.181  14.870
 7276W        W78859   1.212  35.923   3.819
 7277W        W78860  14.724   1.888   0.992
 7278W        W78861  16.593  41.835  13.380
 7279W        W78862  21.535  28.579   0.781
 7280W        W78863  23.164  40.382  12.257
 7281W        W78864  37.686  42.258  11.237
 7282W        W78865  42.871  39.411  11.995
 7283W        W78866  33.050  20.991  13.400
 7284W        W78867  24.937   8.286   0.982
 7285W        W78868  22.098  38.993  13.863
 7286W        W78869  17.241  34.467   1.527
 7287W        W78870  26.080  17.204  12.173
 7288W        W78871  38.439   5.338  10.177
 7289W        W78872  11.773  21.400   4.731
 7290W        W78873  41.874  20.896   2.220
 7291W        W78874  15.784   7.371   0.386
 7292W        W78875  10.856   0.295  13.433
 7293W        W78876  27.771  13.077  14.672
 7294W        W78877  43.134  17.657  12.941
 7295W        W78878  16.176  30.723  13.848
 7296W        W78879  13.766  32.194   1.844
 7297W        W78880  12.036   1.473  11.512
 7298W        W78881  38.431  23.471  13.360
 7299W        W78882  22.148   2.508  12.873
 7300W        W78883  15.139  24.125  12.561
 7301W        W78884  25.493  15.377  14.118
 7302W        W78885  35.022   3.290   4.556
 7303W        W78886  26.048  33.010  12.098
 7304W        W78887  38.531   0.224   3.915
 7305W        W78888  31.438  12.635   4.018
 7306W        W78889   6.291  27.623   2.697
 7307W        W78890  42.300   4.381   2.716
 7308W        W78891  10.404  26.791   2.801
 7309W        W78892  29.142   8.004   4.725
 7310W        W78893  27.811  15.375  14.509
 7311W        W78894  16.728   5.320  13.093
 7312W        W78895  40.085  25.661  13.932
 7313W        W78896   9.232  34.023   3.665
 7314W        W78897  22.996  33.512  12.477
 7315W        W78898  18.225  25.101   0.979
 7316W        W78899  26.012  17.823   3.824
 7317W        W78900   9.015  19.612   2.778
 7318W        W78901  24.856   2.261   1.628
 7319W        W78902  31.336  23.068   4.208
 7320W        W78903  38.439  35.349   4.058
 7321W        W78904   9.210  11.809  13.055
 7322W        W78905   7.883  26.414   0.915
 7323W        W78906  17.624  39.955   2.767
 7324W        W78907   8.688   2.054  10.981
 7325W        W78908  32.176  38.095   3.808
 7326W        W78909  32.101  23.296   1.253
 7327W        W78910  33.936  33.188   1.189
 7328W        W78911  41.542  16.947   0.192
 7329W        W78912  16.657  32.544   2.080
 7330W        W78913   6.223   8.335   0.328
 7331W        W78914  12.229  20.980  13.910
 7332W        W78915  27.646  36.340  13.532
 7333W        W78916  36.199   2.915  14.095
 7334W        W78917  29.405  34.596   2.838
 7335W        W78918   8.378  44.285   0.985
 7336W        W78919  20.034  37.403  11.617
 7337W        W78920  23.415   2.046   3.141
 7338W        W78921  29.666  12.922  10.792
 7339W        W78922  33.884  28.035   3.947
 7340W        W78923   4.929  38.582  13.964
 7341W        W78924  44.436  14.061   3.622
 7342W        W78925  36.433  34.439   1.711
 7343W        W78926  35.537  36.389  13.369
 7344W        W78927  13.816  36.975  11.015
 7345W        W78928  26.042  32.202  13.944
 7346W        W78929  22.937  41.299  12.475
 7347W        W78930  21.503  29.528  14.295
 7348W        W78931  39.152  44.543   1.194
 7349W        W78932  34.371  39.021   3.161
 7350W        W78933  11.674  43.700   0.363
 7351W        W78934  37.387  31.515  11.088
 7352W        W78935  33.420  13.640   2.650
 7353W        W78936  16.145  32.168  11.489
 7354W        W78937  21.389  33.115   0.881
 7355W        W78938   6.435  40.321   0.025
 7356W        W78939  38.323  27.959  14.281
 7357W        W78940  14.458  31.039   1.390
 7358W        W78941   4.282   3.004   2.740
 7359W        W78942  19.659   8.325  10.936
 7360W        W78943  36.503  26.774   0.839
 7361W        W78944  25.903  13.664   3.666
 7362W        W78945   6.197  24.182  10.718
 7363W        W78946  42.404  15.297   3.607
 7364W        W78947   6.470  41.616   4.806
 7365W        W78948   0.355  38.243  12.941
 7366W        W78949  44.984  44.428  10.744
 7367W        W78950  16.397  33.645  12.458
 7368W        W78951  41.393  14.581  12.403
 7369W        W78952   0.900  35.906   2.465
 7370W        W78953   0.738  29.923   4.270
 7371W        W78954   7.243  37.831  14.722
 7372W        W78955  15.384  10.335   1.698
 7373W        W78956   8.642  19.284   2.435
 7374W        W78957   3.540  20.627   3.648
 7375W        W78958   5.720   3.421  11.108
 7376W        W78959  23.129   6.330  11.793
 7377W        W78960  42.851  35.291   0.492
 7378W        W78961  40.905  19.330  11.207
 7379W        W78962  43.478  30.530   2.866
 7380W        W78963  19.842  32.984  13.872
 7381W        W78964  32.070   0.980   1.709
 7382W        W78965   2.913   9.398   1.932
 7383W        W78966   6.949   4.303   3.230
 7384W        W78967  34.318  40.401   2.284
 7385W        W78968  40.231  23.225   4.383
 7386W        W78969  15.668  21.999   4.528
 7387W        W78970   5.808   7.870  12.376
 7388W        W78971  12.392   3.057   2.152
 7389W        W78972   3.216   5.739  14.460
 7390W        W78973  15.207  10.822  10.764
 7391W        W78974  36.100  22.447  14.517
 7392W        W78975  34.828  38.591  14.428
 7393W        W78976  13.736   5.142  11.531
 7394W        W78977  25.311  42.141  14.008
 7395W        W78978  44.557  12.619  12.941
 7396W        W78979   9.647   2.389  14.362
 7397W        W78980  41.233  19.784  13.952
 7398W        W78981  14.605  21.619   1.651
 7399W        W78982  37.550  37.367   2.210
 7400W        W78983  19.072  40.432   0.168
 7401W        W78984  17.789   7.308   3.450
 7402W        W78985  33.556   3.695  14.863
 7403W        W78986  44.970  37.420  10.718
 7404W        W78987  31.050  14.375  14.067
 7405W        W78988   1.101  27.491  14.190
 7406W        W78989   5.415  19.399   1.738
 7407W        W78990  22.099   1.524  11.465
 7408W        W78991   6.443  34.461  14.746
 7409W        W78992  19.674  37.995   0.204
 7410W        W78993  20.486  14.036   3.652
 7411W        W78994   4.227  36.999   2.671
 7412W        W78995  38.107  37.539  12.016
 7413W        W78996  18.698  26.443  13.413
 7414W        W78997  33.044  38.662  13.906
 7415W        W78998  17.576  13.319  12.149
 7416W        W78999  30.148   8.342   0.934
 7417W        W79000  14.173  15.143   4.596
 7418W        W79001  11.170  14.721   2.332
 7419W        W79002   0.388  18.184   4.139
 7420W        W79003  16.163  32.159   3.617
 7421W        W79004  43.878   9.823  13.299
 7422W        W79005  26.878  18.539   4.694
 7423W        W79006  39.014  38.385   2.363
 7424W        W79007   7.899   9.280  11.384
 7425W        W79008  43.863   9.803   2.743
 7426W        W79009  20.604   7.694  12.537
 7427W        W79010  24.156  42.206  11.197
 7428W        W79011  39.113  33.439   3.066
 7429W        W79012  32.023  13.342  14.311
 7430W        W79013  16.940  33.730   5.102
 7431W        W79014  17.426   8.891   1.818
 7432W        W79015  21.220  20.809  12.591
 7433W        W79016  27.234  17.337  13.584
 7434W        W79017  36.994   2.471   3.866
 7435W        W79018  32.547  31.056   2.316
 7436W        W79019  18.671  21.083  14.363
 7437W        W79020   1.717  17.551  13.786
 7438W        W79021  10.876  39.682  14.902
 7439W        W79022   8.589  13.290   2.184
 7440W        W79023  43.653  24.561   1.904
 7441W        W79024  24.467  29.077   1.395
 7442W        W79025  38.967  18.590   4.287
 7443W        W79026   3.722  33.800   4.082
 7444W        W79027  10.156  26.709  11.183
 7445W        W79028   5.277  25.200   3.049
 7446W        W79029   5.893  34.133  12.850
 7447W        W79030  18.639  28.701   3.659
 7448W        W79031  42.021  40.326   4.221
 7449W        W79032  40.194  22.169  12.957
 7450W        W79033  19.189  42.846   0.406
 7451W        W79034  20.791  37.016   0.742
 7452W        W79035  21.659  26.053  13.271
 7453W        W79036   9.082   5.508  13.497
 7454W        W79037  21.104   4.549   4.590
 7455W        W79038  26.708   3.196   2.114
 7456W        W79039  42.277  13.676  11.091
 7457W        W79040  19.115  41.436   4.237
 7458W        W79041  14.428  42.360   0.330
 7459W        W79042  23.113   0.458   3.598
 7460W        W79043  34.669  24.968   3.878
 7461W        W79044   5.392  23.078  13.355
 7462W        W79045  30.952  17.994   0.201
 7463W        W79046  32.784  42.412  13.019
 7464W        W79047  39.491  33.002  13.332
 7465W        W79048  33.439  44.349   2.130
 7466W        W79049  35.417  43.567   2.246
 7467W        W79050  39.874  40.470   1.266
 7468W        W79051   1.730  19.657  14.299
 7469W        W79052  13.997  12.811   3.158
 7470W        W79053   6.255  44.122  12.429
 7471W        W79054  29.473  41.922  13.189
 7472W        W79055   4.333  10.191  11.175
 7473W        W79056  32.460  36.893   2.878
 7474W        W79057  22.988  22.338   4.236
 7475W        W79058  25.575  30.610  14.918
 7476W        W79059   6.185   8.341  13.934
 7477W        W79060  35.945  17.503  12.072
 7478W        W79061  30.446  40.447   4.569
 7479W        W79062  42.810   4.454   0.407
 7480W        W79063  18.900  20.240   4.668
 7481W        W79064  40.690  44.541   5.001
 7482W        W79065  37.016  37.464  10.949
 7483W        W79066  18.350   4.481  13.310
 7484W        W79067   2.734  23.419  11.288
 7485W        W79068  17.498  26.009   3.817
 7486W        W79069   3.820   3.493   4.554
 7487W        W79070  38.817  33.081  10.855
 7488W        W79071   9.095  13.355   2.226
 7489W        W79072   4.622  26.586   5.050
 7490W        W79073  43.650  16.768   4.044
 7491W        W79074  29.533  13.833  13.842
 7492W        W79075  21.087  33.148   0.463
 7493W        W79076  21.916   2.292   1.390
 7494W        W79077   9.256  10.782   4.678
 7495W        W79078  13.202  10.070   3.728
 7496W        W79079  15.656   2.639   1.151
 7497W        W79080  10.735  28.960   1.777
 7498W        W79081  11.752  43.929  14.882
 7499W        W79082  29.082  18.813  13.811
 7500W        W79083   3.191  44.269   1.206
 7501W        W79084   5.282  43.205   4.088
 7502W        W79085  41.944  27.410   3.945
 7503W        W79086   5.450  11.262   1.212
 7504W        W79087  35.522  11.210   3.467
 7505W        W79088  39.074   4.941   2.094
 7506W        W79089   4.219  23.254  14.892
 7507W        W79090  16.171  24.803  13.390
 7508W        W79091  11.221  37.127  12.450
 7509W        W79092  20.220  11.280   4.606
 7510W        W79093   9.416   2.816   1.757
 7511W        W79094  44.440  27.279  14.996
 7512W        W79095  31.524   2.559  11.488
 7513W        W79096  29.907   5.846   2.832
 7514W        W79097  34.537  22.198  14.828
 7515W        W79098  10.096  31.400   5.032
 7516W        W79099  26.845  23.646  12.818
 7517W        W79100  15.974   7.200   9.787
 7518W        W79101  43.301   0.786   3.820
 7519W        W79102   0.322  40.120   4.019
 7520W        W79103  35.046  17.098   0.383
 7521W        W79104  30.921  34.525   2.224
 7522W        W79105  39.719   6.327   3.083
 7523W        W79106  30.506  34.153   4.777
 7524W        W79107  28.713  17.179   2.365
 7525W        W79108   7.171  34.434   2.379
 7526W        W79109   9.344  20.100  14.496
 7527W        W79110  31.946   5.881   3.157
 7528W        W79111   6.155   1.952  13.928
 7529W        W79112  27.557   1.306   1.331
 7530W        W79113   9.320  34.872   2.629
 7531W        W79114  17.033  15.251   4.265
 7532W        W79115  16.072   4.631  10.925
 7533W        W79116  19.804  40.481   2.197
 7534W        W79117   7.498  44.813  12.325
 7535W        W79118  20.781   4.730   3.277
 7536W        W79119  22.582  21.722  11.535
 7537W        W79120  43.051  22.603   2.228
 7538W        W79121  43.342  23.196   4.709
 7539W        W79122  32.429  10.686  14.938
 7540W        W79123  10.780  11.147   4.522
 7541W        W79124  19.852  39.917  13.488
 7542W        W79125  12.819  17.842   1.877
 7543W        W79126   4.120  25.415  13.474
 7544W        W79127  41.024  16.849   3.995
 7545W        W79128  13.169  32.581  13.933
 7546W        W79129   5.858  29.469   2.762
 7547W        W79130  12.277   2.175  13.008
 7548W        W79131   7.593   2.842  11.180
 7549W        W79132  16.508  44.901   1.810
 7550W        W79133  44.837  43.888  14.591
 7551W        W79134  35.149  11.359  12.558
 7552W        W79135   7.794  31.327   0.821
 7553W        W79136  34.809   6.031  10.759
 7554W        W79137  42.540  35.937  11.508
 7555W        W79138  29.231  15.650  12.875
 7556W        W79139  21.177  28.891  11.124
 7557W        W79140   9.667  34.402  11.649
 7558W        W79141  36.260  44.231  12.559
 7559W        W79142  37.392  42.479  13.470
 7560W        W79143   3.745  43.573   0.438
 7561W        W79144  44.809  32.481  13.974
 7562W        W79145   8.209  11.147  10.694
 7563W        W79146  32.392  26.201   3.842
 7564W        W79147  42.014  13.593  11.534
 7565W        W79148  22.313  34.808  11.477
 7566W        W79149  18.073  41.959  13.316
 7567W        W79150  41.330  42.053   3.643
 7568W        W79151  31.571  18.831   1.410
 7569W        W79152  15.834  32.223   0.090
 7570W        W79153  36.433  36.946   4.516
 7571W        W79154  23.218  41.072  14.644
 7572W        W79155  23.972  20.970   2.401
 7573W        W79156  42.794  14.638   4.032
 7574W        W79157  20.237   0.802  11.608
 7575W        W79158  38.053   7.345  12.925
 7576W        W79159  29.589   1.866   1.779
 7577W        W79160  42.470  26.293   3.808
 7578W        W79161   5.398  35.671   0.714
 7579W        W79162   1.931  31.848   4.208
 7580W        W79163  37.601   1.475   1.214
 7581W        W79164  40.947  43.329   2.884
 7582W        W79165  43.716  29.444   1.383
 7583W        W79166  44.389  26.686   1.813
 7584W        W79167   5.628   7.750   1.840
 7585W        W79168   6.749  17.699  13.488
 7586W        W79169  28.426  30.100   0.401
 7587W        W79170  11.583  44.874   1.336
 7588W        W79171  15.429   3.049  11.347
 7589W        W79172  22.373  27.115   3.067
 7590W        W79173  39.921  39.199   1.319
 7591W        W79174   8.900  18.576   4.239
 7592W        W79175  11.652  33.652   1.763
 7593W        W79176  44.402   0.445   3.257
 7594W        W79177  12.141   3.714  14.282
 7595W        W79178  37.596  18.673  14.822
 7596W        W79179  19.229   1.238  12.156
 7597W        W79180  35.481  28.111   3.650
 7598W        W79181  37.949  44.815   2.426
 7599W        W79182  26.286  18.078  11.947
 7600W        W79183  34.487  34.175  12.811
 7601W        W79184  20.997  21.606  11.780
 7602W        W79185   3.909  44.928  12.801
 7603W        W79186  39.467  23.542   4.148
 7604W        W79187  29.409  20.557  10.703
 7605W        W79188   7.720  38.732   1.718
 7606W        W79189  18.631  23.729   5.206
 7607W        W79190  32.042   9.822   2.157
 7608W        W79191  40.632  12.098   3.950
 7609W        W79192  42.335  22.577   1.510
 7610W        W79193  15.799  33.480   4.570
 7611W        W79194  40.856  31.385  12.529
 7612W        W79195  13.841  17.566   3.235
 7613W        W79196  16.737  43.257   3.828
 7614W        W79197   0.478  36.859   3.709
 7615W        W79198  44.348  16.612  10.682
 7616W        W79199   4.313  31.077   3.124
 7617W        W79200  23.631  34.727   4.356
 7618W        W79201  29.646  12.855  12.577
 7619W        W79202  21.853  31.539   5.134
 7620W        W79203  30.384  21.658   2.714
 7621W        W79204  28.177  12.646  11.171
 7622W        W79205  12.123   4.849  13.952
 7623W        W79206   8.724  34.458   1.875
 7624W        W79207  34.926  10.459   4.662
 7625W        W79208  16.003  26.086  10.165
 7626W        W79209  26.984  21.223   1.325
 7627W        W79210  19.015   4.048   4.176
 7628W        W79211  17.793  28.933  12.935
 7629W        W79212  44.277  18.326   3.118
 7630W        W79213  44.796  20.072   1.628
 7631W        W79214  19.329   6.836  11.664
 7632W        W79215  14.694  30.675  14.326
 7633W        W79216  31.104  42.924  13.575
 7634W        W79217   2.338  40.986   2.179
 7635W        W79218  29.900  36.404  12.184
 7636W        W79219  39.304  33.138   2.688
 7637W        W79220   2.766   3.492  10.608
 7638W        W79221   9.493   7.344  13.565
 7639W        W79222   3.973  20.527  14.851
 7640W        W79223   6.367  15.037   2.787
 7641W        W79224  23.783  31.624  11.699
 7642W        W79225   3.094  13.851   2.781
 7643W        W79226  33.075  15.721  12.882
 7644W        W79227  29.945  13.408  12.924
 7645W        W79228  16.358  38.901   3.306
 7646W        W79229  10.881  11.345  13.216
 7647W        W79230  31.263  44.828  12.120
 7648W        W79231   1.718  38.512  14.643
 7649W        W79232  39.080   0.470  11.947
 7650W        W79233   5.839  13.184   4.322
 7651W        W79234  32.090  35.394   4.139
 7652W        W79235   8.371  23.644  12.058
 7653W        W79236  44.713   3.438  13.596
 7654W        W79237  29.177  16.084  14.852
 7655W        W79238  21.691  29.461   1.394
 7656W        W79239   1.315  34.901  10.706
 7657W        W79240  30.590  10.160   2.710
 7658W        W79241  22.302  10.365  12.023
 7659W        W79242   6.405  23.768   3.166
 7660W        W79243  36.045  19.162  13.991
 7661W        W79244  32.875  18.331   3.362
 7662W        W79245  30.002  43.416  11.253
 7663W        W79246  34.356  13.854  11.080
 7664W        W79247  42.918  30.111  14.999
 7665W        W79248  40.020  29.982   0.820
 7666W        W79249  13.609  11.745  10.747
 7667W        W79250  17.249  32.476  13.607
 7668W        W79251  28.044   6.407   0.878
 7669W        W79252  14.423  29.245  11.367
 7670W        W79253  43.582   1.553   2.738
 7671W        W79254  22.763   8.403  11.066
 7672W        W79255   3.251  18.794  12.195
 7673W        W79256  32.552  15.381  11.976
 7674W        W79257  26.567  25.265   0.458
 7675W        W79258   4.988  37.072   2.771
 7676W        W79259  16.484   9.428   2.618
 7677W        W79260  20.024  44.747  11.923
 7678W        W79261   9.400  39.427   0.054
 7679W        W79262   7.512  18.288   0.716
 7680W        W79263   7.265  29.368  11.039
 7681W        W79264  40.246  41.556  10.759
 7682W        W79265   5.241  21.800   1.832
 7683W        W79266   1.319  32.591  12.826
 7684W        W79267   8.722   5.700  11.428
 7685W        W79268  19.187  16.181  10.444
 7686W        W79269  24.120  15.020   3.434
 7687W        W79270  16.808  16.885   3.689
 7688W        W79271  29.601  34.741   2.386
 7689W        W79272  33.437  37.956  10.555
 7690W        W79273  11.197  36.563   4.107
 7691W        W79274  14.135  14.529   1.828
 7692W        W79275  32.819  21.998  13.336
 7693W        W79276  41.506  23.975  10.300
 7694W        W79277  39.753  26.524  13.805
 7695W        W79278  26.673  30.956   0.423
 7696W        W79279  22.433   7.449   3.358
 7697W        W79280  42.486  20.683   1.428
 7698W        W79281  10.629  40.801  13.477
 7699W        W79282  23.684  22.107  11.989
 7700W        W79283  36.444  12.663   4.103
 7701W        W79284  43.102  41.421   2.174
 7702W        W79285  39.017  12.386   2.966
 7703W        W79286   7.637  41.972  12.492
 7704W        W79287   8.876  17.679   0.440
 7705W        W79288  43.422  19.129  14.213
 7706W        W79289  33.494  12.701   0.921
 7707W        W79290  21.696  17.811   2.385
 7708W        W79291  36.402  27.957   4.153
 7709W        W79292  41.209  15.050   3.400
 7710W        W79293  41.444  42.414   2.748
 7711W        W79294  44.957   6.166  13.578
 7712W        W79295  38.845  34.424   3.268
 7713W        W79296   9.687   2.764  13.964
 7714W        W79297  16.642  22.731   0.861
 7715W        W79298  21.648  44.660   4.548
 7716W        W79299  25.558  24.122   4.396
 7717W        W79300  32.413  43.471   4.058
 7718W        W79301  34.597  31.756   3.713
 7719W        W79302  15.188  42.097   4.280
 7720W        W79303  42.281  33.914  12.923
 7721W        W79304  24.478  44.142   0.447
 7722W        W79305  42.482   6.129  12.054
 7723W        W79306  33.019   3.813  14.802
 7724W        W79307  39.807  15.538  11.640
 7725W        W79308  14.913   1.501   3.758
 7726W        W79309  37.453  23.485   1.359
 7727W        W79310  42.042   3.375   0.900
 7728W        W79311  41.348  24.527   4.475
 7729W        W79312  18.645  22.583   2.125
 7730W        W79313  34.039   5.952   3.605
 7731W        W79314   5.731   4.513   0.930
 7732W        W79315  44.381  24.034   2.817
 7733W        W79316   3.732  17.900  11.145
 7734W        W79317   3.963  12.287  14.457
 7735W        W79318  19.169  10.884  12.967
 7736W        W79319  12.592  22.293  13.783
 7737W        W79320  32.189   2.343  12.638
 7738W        W79321   2.259  35.840  11.205
 7739W        W79322   1.649  21.450  11.922
 7740W        W79323  25.631  42.894   0.980
 7741W        W79324   4.386   6.478   2.900
 7742W        W79325   5.805  16.818   2.808
 7743W        W79326  29.129  14.873   4.066
 7744W        W79327  31.580   9.195   4.287
 7745W        W79328  33.480  23.586  10.645
 7746W        W79329  35.808  17.056   2.962
 7747W        W79330  41.358  25.750   4.032
 7748W        W79331  12.611   1.762   3.268
 7749W        W79332  27.913  16.778   2.527
 7750W        W79333  43.970  22.947  14.995
 7751W        W79334  43.578  36.859   2.120
 7752W        W79335  43.176  40.453   4.786
 7753W        W79336  39.013  27.407   0.864
 7754W        W79337  12.300  12.021  13.233
 7755W        W79338  15.317  18.256  14.789
 7756W        W79339  28.660  39.524   1.731
 7757W        W79340  32.018  17.844  12.454
 7758W        W79341  16.908   2.889   0.209
 7759W        W79342  24.132   6.302   3.278
 7760W        W79343  13.185  25.228   4.573
 7761W        W79344   5.888  36.914  13.411
 7762W        W79345  43.960  31.958   3.823
 7763W        W79346   2.011  12.319  12.991
 7764W        W79347  30.707   3.176   5.148
 7765W        W79348   0.461  29.546   0.205
 7766W        W79349  18.126  44.670  13.301
 7767W        W79350  16.284   5.378  11.723
 7768W        W79351  10.995  31.145   1.147
 7769W        W79352   1.835   1.031  13.050
 7770W        W79353   1.312  18.545  13.328
 7771W        W79354  32.593  10.674  10.349
 7772W        W79355  41.690  22.260  10.901
 7773W        W79356  26.352  39.257   2.307
 7774W        W79357   8.407  37.563  11.970
 7775W        W79358  16.950  24.123  14.350
 7776W        W79359  13.103  14.854  11.086
 7777W        W79360  14.780  14.967   0.747
 7778W        W79361  23.802   4.861  14.222
 7779W        W79362  36.466  36.116   5.195
 7780W        W79363  23.215  25.872   3.698
 7781W        W79364  25.187   9.361  11.453
 7782W        W79365  28.638   6.220  14.376
 7783W        W79366   2.441  31.173  12.894
 7784W        W79367   6.710  37.959   1.274
 7785W        W79368  12.356  39.925   3.849
 7786W        W79369  40.700  14.608   3.422
 7787W        W79370  29.168  34.341  11.474
 7788W        W79371  28.637  10.053  11.138
 7789W        W79372  28.689  25.631   0.559
 7790W        W79373  14.846  29.686   0.131
 7791W        W79374  35.865   6.257  12.461
 7792W        W79375  17.515  26.045   1.703
 7793W        W79376  42.318  12.186   2.339
 7794W        W79377  40.545  20.833   0.782
 7795W        W79378   6.778  19.147  11.250
 7796W        W79379   5.444  37.912  11.416
 7797W        W79380  17.283  17.140  10.938
 7798W        W79381  18.731  43.605   1.182
 7799W        W79382  11.770  21.544  12.722
 7800W        W79383  35.170   9.811  10.637
 7801W        W79384  39.557  29.252   4.666
 7802W        W79385  37.156  32.801   1.424
 7803W        W79386  22.531  28.410  11.406
 7804W        W79387  34.528  32.644  12.526
 7805W        W79388  11.809  14.324  10.587
 7806W        W79389  17.157  23.301   1.549
 7807W        W79390   0.276  35.459   4.538
 7808W        W79391   3.228  39.506  14.306
 7809W        W79392  32.673  38.135   1.632
 7810W        W79393  25.471   6.975   3.314
 7811W        W79394  41.204  44.187  13.904
 7812W        W79395   5.719  21.161  11.868
 7813W        W79396   6.806  32.211  14.755
 7814W        W79397  32.048  31.218   2.249
 7815W        W79398  14.327  28.766  13.951
 7816W        W79399  21.852  33.398   2.017
 7817W        W79400   6.848  37.103   3.778
 7818W        W79401  40.130  20.241  12.978
 7819W        W79402   7.316  35.386  13.868
 7820W        W79403   7.996  30.050   4.180
 7821W        W79404  30.127  34.461   0.756
 7822W        W79405  27.513   5.848   3.940
 7823W        W79406  15.102  14.312  13.965
 7824W        W79407  32.937   9.907   0.770
 7825W        W79408  34.111  35.328  14.925
 7826W        W79409  26.164   4.059   2.609
 7827W        W79410  13.308   0.011  11.606
 7828W        W79411  10.046  15.683   4.605
 7829W        W79412  26.185  23.234   0.086
 7830W        W79413   7.687  34.692   4.053
 7831W        W79414  41.995  13.865  10.699
 7832W        W79415  19.503   9.074   3.289
 7833W        W79416  23.775  19.307   2.875
 7834W        W79417  43.591  39.295   1.857
 7835W        W79418   7.287  43.763  14.931
 7836W        W79419  23.134  14.189   4.595
 7837W        W79420  39.330   0.078  11.125
 7838W        W79421   7.407  26.954   4.048
 7839W        W79422  37.913   0.807   0.373
 7840W        W79423  37.562  13.214   3.749
 7841W        W79424   2.365  12.783   0.039
 7842W        W79425  18.980  14.162  14.012
 7843W        W79426  42.928   3.369   0.794
 7844W        W79427  31.644   4.859  14.284
 7845W        W79428  37.278  22.534   4.643
 7846W        W79429  38.394  20.688  11.811
 7847W        W79430  35.115  10.758   1.957
 7848W        W79431   1.472  13.831   0.825
 7849W        W79432  25.869  36.912   2.684
 7850W        W79433  35.570  42.274   2.668
 7851W        W79434  31.111   7.616   4.134
 7852W        W79435  14.065  38.913   0.443
 7853W        W79436  39.606  34.563   2.424
 7854W        W79437   1.824  12.748  14.507
 7855W        W79438  10.200  44.823   3.932
 7856W        W79439  19.605  36.405  10.689
 7857W        W79440   6.829  32.994  13.385
 7858W        W79441  38.406   1.920   0.860
 7859W        W79442   5.805  33.945   0.680
 7860W        W79443   7.937   1.462  10.681
 7861W        W79444  38.712  14.790  14.321
 7862W        W79445   8.767  32.814   3.622
 7863W        W79446  17.983   5.952   0.255
 7864W        W79447  27.581  15.806  10.041
 7865W        W79448   4.757  41.488   1.220
 7866W        W79449  16.564  20.484   1.671
 7867W        W79450  37.713  24.957   1.281
 7868W        W79451  43.183  30.920   2.692
 7869W        W79452   9.387  33.425   1.396
 7870W        W79453   4.922  21.553   2.167
 7871W        W79454   1.921  40.376   4.588
 7872W        W79455  23.998  39.243  10.415
 7873W        W79456   7.704   8.889  13.461
 7874W        W79457  30.680  29.054  13.381
 7875W        W79458  44.751  38.401   4.137
 7876W        W79459  19.114  20.346   4.202
 7877W        W79460  23.501  21.258  11.543
 7878W        W79461  27.897   0.604  12.656
 7879W        W79462  43.263  17.995  14.670
 7880W        W79463  23.176  39.305   0.323
 7881W        W79464  22.122  18.179  11.653
 7882W        W79465  28.691  19.606   1.851
 7883W        W79466  16.291  17.247  14.767
 7884W        W79467  27.534  37.003   2.892
 7885W        W79468  35.552   3.224   3.118
 7886W        W79469  33.892  17.832  12.881
 7887W        W79470  29.798  27.469  13.975
 7888W        W79471   8.285  37.389  13.758
 7889W        W79472  18.170  21.494  11.091
 7890W        W79473  14.185  26.604   3.702
 7891W        W79474  28.467  26.133  14.272
 7892W        W79475  40.338  23.232   2.450
 7893W        W79476   1.697  41.351   2.505
 7894W        W79477  37.617   1.059  13.311
 7895W        W79478  31.935  35.213   2.490
 7896W        W79479  41.097  31.365   0.716
 7897W        W79480  23.596  10.005  12.301
 7898W        W79481  17.614  15.834  13.850
 7899W        W79482   1.934  31.058  12.834
 7900W        W79483  37.839   7.907   3.785
 7901W        W79484  23.021  21.573   1.761
 7902W        W79485   0.366  27.516  13.844
 7903W        W79486  43.634  23.461   2.289
 7904W        W79487   9.910  18.304  12.570
 7905W        W79488   2.897  30.559   4.946
 7906W        W79489  15.069  35.064   1.458
 7907W        W79490  11.597  36.282   0.795
 7908W        W79491  26.652  25.038  12.563
 7909W        W79492  21.976   3.850  11.228
 7910W        W79493  34.182  19.214   1.226
 7911W        W79494  32.736   4.750   1.334
 7912W        W79495  41.615  26.222   1.340
 7913W        W79496   3.957  37.882  14.523
 7914W        W79497  38.033   5.172  14.422
 7915W        W79498  12.100  41.042  11.196
 7916W        W79499  34.122   5.667  11.219
 7917W        W79500  17.521  25.490   3.796
 7918W        W79501  26.990  33.037  12.326
 7919W        W79502  40.897   6.447  10.660
 7920W        W79503  32.427  11.183   0.274
 7921W        W79504  35.399  25.228   4.247
 7922W        W79505  43.243  30.991  12.922
 7923W        W79506  29.025  16.868   1.842
 7924W        W79507  17.400  31.208   2.673
 7925W        W79508  35.461  28.308   2.180
 7926W        W79509  25.983  43.275  14.896
 7927W        W79510  13.585  24.578   3.203
 7928W        W79511   1.969  10.180  11.366
 7929W        W79512  42.791   4.237  11.596
 7930W        W79513  24.457  15.794  13.039
 7931W        W79514   9.868  35.976  10.741
 7932W        W79515  33.393  32.688   2.765
 7933W        W79516  19.624  35.162  12.064
 7934W        W79517  16.293  26.083   2.278
 7935W        W79518   5.326  11.787  14.115
 7936W        W79519  31.724   1.930  14.067
 7937W        W79520  31.138  22.136  13.521
 7938W        W79521  33.755  29.831   1.492
 7939W        W79522  15.081   3.399   0.284
 7940W        W79523  34.902   0.244   3.143
 7941W        W79524  31.597  16.784  12.937
 7942W        W79525  42.418  22.938   3.246
 7943W        W79526   0.474   4.819  13.824
 7944W        W79527  25.521  16.180  12.050
 7945W        W79528  13.461   4.345   4.486
 7946W        W79529  44.729  39.601   4.330
 7947W        W79530  16.714  44.781   0.279
 7948W        W79531  39.322  33.492  10.255
 7949W        W79532  11.822  41.809  11.248
 7950W        W79533  31.270  43.909  14.799
 7951W        W79534   0.085   1.205   1.717
 7952W        W79535  38.577   4.329  11.093
 7953W        W79536   7.430   8.629   2.633
 7954W        W79537  29.390  44.214   1.735
 7955W        W79538  13.364  27.722  12.846
 7956W        W79539  20.877  33.682   2.007
 7957W        W79540  36.506  20.314   3.356
 7958W        W79541   2.082  44.385  11.427
 7959W        W79542  23.277  35.372   3.061
 7960W        W79543  30.553  34.595  12.450
 7961W        W79544  10.815  40.021  11.939
 7962W        W79545  11.847  43.440  12.317
 7963W        W79546  12.802  31.288  11.592
 7964W        W79547  44.228   1.397   1.253
 7965W        W79548  20.442   7.468   3.263
 7966W        W79549   4.053  44.359   1.005
 7967W        W79550  28.394  18.546  14.885
 7968W        W79551  12.330  31.056   0.940
 7969W        W79552  44.050  26.167  11.019
 7970W        W79553  30.801  40.806   3.324
 7971W        W79554  29.312  35.944  11.951
 7972W        W79555  38.136  34.505   3.780
 7973W        W79556  15.736   6.240  14.449
 7974W        W79557   9.276   3.936  13.172
 7975W        W79558   3.316  25.058   2.650
 7976W        W79559  40.043  41.004  12.022
 7977W        W79560  31.269  10.183   2.339
 7978W        W79561  34.882   0.481   2.663
 7979W        W79562   3.913  30.575   0.135
 7980W        W79563   7.247  35.167  13.392
 7981W        W79564  41.247   2.860  10.937
 7982W        W79565  15.677  27.677   4.471
 7983W        W79566  21.911  21.397  13.485
 7984W        W79567  31.566  35.991   4.126
 7985W        W79568  38.543   9.891  10.227
 7986W        W79569  20.710   0.739   1.692
 7987W        W79570  41.284   3.937  13.872
 7988W        W79571  23.191  22.542   3.807
 7989W        W79572  34.892   1.326  14.860
 7990W        W79573  38.543   5.068  14.389
 7991W        W79574  23.651  23.580   0.077
 7992W        W79575   9.321  23.047  11.510
 7993W        W79576   6.716  43.819   4.867
 7994W        W79577  23.249  35.172  13.882
 7995W        W79578   1.209   7.161   1.176
 7996W        W79579  17.855  31.069   1.912
 7997W        W79580  19.222  12.382   2.315
 7998W        W79581   9.195  26.524  13.678
 7999W        W79582  28.342  22.527   0.455
 8000W        W79583  23.742  23.546   2.228
 8001W        W79584  24.395   6.587  13.051
 8002W        W79585  38.074  22.240   2.688
 8003W        W79586  40.636  23.612  12.553
 8004W        W79587  42.167  23.601  14.274
 8005W        W79588  14.344  41.346   1.805
 8006W        W79589  24.235  14.119   5.097
 8007W        W79590   2.367  41.426  11.935
 8008W        W79591  23.972  14.173  11.513
 8009W        W79592   1.488  28.171  13.027
 8010W        W79593   4.469  21.964   3.221
 8011W        W79594   8.720  42.203  12.213
 8012W        W79595  31.006  37.089  13.750
 8013W        W79596  28.078   4.747  10.187
 8014W        W79597  40.295  43.870  10.658
 8015W        W79598   8.194  25.702   0.324
 8016W        W79599   1.850  15.263   1.167
 8017W        W79600  40.346   1.025   5.105
 8018W        W79601  39.029  28.644   2.757
 8019W        W79602  22.138  11.813   0.538
 8020W        W79603   9.733  15.640  13.858
 8021W        W79604  17.330  15.251   1.432
 8022W        W79605  40.341   6.347  11.047
 8023W        W79606  10.078  40.595   1.832
 8024W        W79607   8.533  11.189  13.491
 8025W        W79608  43.862  16.002  12.961
 8026W        W79609  34.004  30.623  12.805
 8027W        W79610  39.505   9.234   3.440
 8028W        W79611  19.658  19.333  11.204
 8029W        W79612   5.501  16.667   2.398
 8030W        W79613  24.986  16.539  14.821
 8031W        W79614  10.253  14.398   5.076
 8032W        W79615  39.635  10.298  14.328
 8033W        W79616  36.871  24.180   4.647
 8034W        W79617  18.706  18.518  10.356
 8035W        W79618  39.449  43.465   3.630
 8036W        W79619   5.838  12.260  12.309
 8037W        W79620   6.840  40.326  11.511
 8038W        W79621   0.577   4.949  12.996
 8039W        W79622  26.497  24.746  10.704
 8040W        W79623   9.171  33.742  12.056
 8041W        W79624  40.526   8.866  14.356
 8042W        W79625  24.162  17.634   2.705
 8043W        W79626   8.857   5.331   4.614
 8044W        W79627  40.456  34.121   0.249
 8045W        W79628  18.784  24.763  14.376
 8046W        W79629  14.142  42.036   0.640
 8047W        W79630  23.280  24.609  12.149
 8048W        W79631  27.052  21.310  13.542
 8049W        W79632  11.125  14.835   1.436
 8050W        W79633  35.046   4.328  13.917
 8051W        W79634   0.691  44.479  11.517
 8052W        W79635  43.869   2.146   0.842
 8053W        W79636   1.711  42.560   0.239
 8054W        W79637  29.042  23.892   0.515
 8055W        W79638  37.995  25.934  12.946
 8056W        W79639  22.828   4.029   4.011
 8057W        W79640  35.115  17.792   2.743
 8058W        W79641  14.056   6.702   3.342
 8059W        W79642  30.368   4.198   0.424
 8060W        W79643  44.804  43.901  14.076
 8061W        W79644  18.186  13.073  14.263
 8062W        W79645  38.879  24.224   2.809
 8063W        W79646   3.767  36.071   3.762
 8064W        W79647  10.158  23.597   2.636
 8065W        W79648  42.870  40.886  13.920
 8066W        W79649  37.836  33.089   3.092
 8067W        W79650  31.209  20.841  14.546
 8068W        W79651   7.958  29.897  11.218
 8069W        W79652  17.793  34.664   4.089
 8070W        W79653  14.819   7.495  14.903
 8071W        W79654  37.064  15.296   4.488
 8072W        W79655  35.958  43.361  13.045
 8073W        W79656  38.137  20.617   0.855
 8074W        W79657   0.497  13.562   0.945
 8075W        W79658  40.791  20.310  11.266
 8076W        W79659  12.475   1.474  13.509
 8077W        W79660  44.694  30.061  12.870
 8078W        W79661   8.145  24.765   0.260
 8079W        W79662   3.189   8.265   2.256
 8080W        W79663  31.797  11.794   0.252
 8081W        W79664  39.740  32.482  12.420
 8082W        W79665  42.249  21.650   2.600
 8083W        W79666  16.622  31.464   4.156
 8084W        W79667   2.953   0.500  12.667
 8085W        W79668  27.052  11.119  14.260
 8086W        W79669  30.054   0.298  14.876
 8087W        W79670   4.707  33.687   4.097
 8088W        W79671   5.848   9.623   1.634
 8089W        W79672  32.175  21.501   2.335
 8090W        W79673   8.856  11.707   3.682
 8091W        W79674   8.357  38.039  14.559
 8092W        W79675  27.187  20.995  10.788
 8093W        W79676  18.325  33.377   4.624
 8094W        W79677  38.707  27.338  11.169
 8095W        W79678  36.746  30.192   4.802
 8096W        W79679  31.955  34.831  12.815
 8097W        W79680  25.130  12.625  11.074
 8098W        W79681  18.536  29.569  10.515
 8099W        W79682   9.208  38.487  13.097
 8100W        W79683   8.259  28.475   2.079
 8101W        W79684   7.419  19.989  13.586
 8102W        W79685  22.033  32.894  14.370
 8103W        W79686  22.289   6.888   2.326
 8104W        W79687  42.909  38.547   4.507
 8105W        W79688  41.074  35.886  12.574
 8106W        W79689  21.693  36.485   2.364
 8107W        W79690   6.391   0.776  14.340
 8108W        W79691  25.185  37.554  12.091
 8109W        W79692  17.089  27.435   2.786
 8110W        W79693   3.307  23.761   1.689
 8111W        W79694   8.423  13.586  11.008
 8112W        W79695  34.900  13.196   0.831
 8113W        W79696  42.831  15.302  13.373
 8114W        W79697   8.711  12.835   1.377
 8115W        W79698  12.193   1.288   0.258
 8116W        W79699  26.138   1.239   3.721
 8117W        W79700  37.905  36.635   2.669
 8118W        W79701  17.682   7.578   2.187
 8119W        W79702  13.647   7.695   3.641
 8120W        W79703  14.218  21.114   0.065
 8121W        W79704  20.263  31.005  10.399
 8122W        W79705   2.916  23.995  12.373
 8123W        W79706  12.988   3.492  13.832
 8124W        W79707   4.143  36.867   3.639
 8125W        W79708  34.461   0.551  12.118
 8126W        W79709  21.772  17.207  13.055
 8127W        W79710  41.398  10.244   0.085
 8128W        W79711  20.880  30.523  11.575
 8129W        W79712  22.410   8.436   1.984
 8130W        W79713  24.840  36.981   4.131
 8131W        W79714  33.714   8.587  12.024
 8132W        W79715  12.734   0.493   3.666
 8133W        W79716  34.091  34.636  11.089
 8134W        W79717  31.500  20.132  11.415
 8135W        W79718  32.138  10.351   4.179
 8136W        W79719   1.086  36.932   0.199
 8137W        W79720  39.568  29.494   2.674
 8138W        W79721  26.017  32.584   4.218
 8139W        W79722  39.582  34.596   0.794
 8140W        W79723  11.214  12.681  12.930
 8141W        W79724   5.289  44.544  10.830
 8142W        W79725  40.483  13.545   2.639
 8143W        W79726  15.648  34.985  14.984
 8144W        W79727   8.663  18.233   4.841
 8145W        W79728  11.805  26.716   3.967
 8146W        W79729   5.988  35.975   0.248
 8147W        W79730  38.307  32.138   1.916
 8148W        W79731  40.044  38.008  13.842
 8149W        W79732  25.370  12.085   3.727
 8150W        W79733  38.741  43.118  13.395
 8151W        W79734  24.519   2.404   3.562
 8152W        W79735   4.751   4.970  13.109
 8153W        W79736  23.711  42.909   3.255
 8154W        W79737  44.404   4.801  12.175
 8155W        W79738   9.182   1.336   2.441
 8156W        W79739  28.589  32.136  12.976
 8157W        W79740  29.377   1.796   1.275
 8158W        W79741  15.569  44.523   1.013
 8159W        W79742   0.025  18.008  11.611
 8160W        W79743  25.619  29.886   0.366
 8161W        W79744   4.440   9.103  10.742
 8162W        W79745   6.213   6.887  11.954
 8163W        W79746  40.251   9.798   4.268
 8164W        W79747  40.174   0.411   3.164
 8165W        W79748  29.799  34.721  13.517
 8166W        W79749  21.083   9.576  14.875
 8167W        W79750   5.235  41.996   4.724
 8168W        W79751  14.588  43.316  13.064
 8169W        W79752   2.680  33.024  14.499
 8170W        W79753  17.056  15.054   1.842
 8171W        W79754  28.390  34.151  12.112
 8172W        W79755  37.774   3.373   1.464
 8173W        W79756  18.332  35.585  11.545
 8174W        W79757  13.602   4.261  10.695
 8175W        W79758  14.694  11.080   0.985
 8176W        W79759  39.069  27.200  10.839
 8177W        W79760  33.331  36.888   2.899
 8178W        W79761  34.467  43.186   2.281
 8179W        W79762  36.868   1.810   1.512
 8180W        W79763  24.196  27.938   4.616
 8181W        W79764  38.586   8.894   1.355
 8182W        W79765  34.421  40.378  13.458
 8183W        W79766   4.468   6.080   2.523
 8184W        W79767  42.755  21.496  11.616
 8185W        W79768  44.731  31.988   3.457
 8186W        W79769  30.883  28.462  13.475
 8187W        W79770  41.012  29.593   4.968
 8188W        W79771   0.486   1.738   0.307
 8189W        W79772  29.091  33.384  10.314
 8190W        W79773  23.663   6.806   0.845
 8191W        W79774  20.325  21.063  10.643
 8192W        W79775  38.492  34.935   3.125
 8193W        W79776  37.571  27.108   0.404
 8194W        W79777  37.109  16.130  10.523
 8195W        W79778  37.681  34.204  14.778
 8196W        W79779   3.648  19.657   1.384
 8197W        W79780  35.442  38.155   0.916
 8198W        W79781  37.092   8.606  12.984
 8199W        W79782  20.357   7.771   1.468
 8200W        W79783  41.364  10.845  14.344
 8201W        W79784  43.929   8.619  11.897
 8202W        W79785  30.619  44.431   4.315
 8203W        W79786  27.966   5.212   1.370
 8204W        W79787  12.148  21.202   1.466
 8205W        W79788  34.013  43.718  11.018
 8206W        W79789   9.289   6.125   3.104
 8207W        W79790  43.771  39.463   2.793
 8208W        W79791  10.272  29.638   0.953
 8209W        W79792  43.480  36.402  13.393
 8210W        W79793  35.921  23.232  11.540
 8211W        W79794  28.678  21.620  13.822
 8212W        W79795  16.099   3.499  12.427
 8213W        W79796   3.881  42.610  12.034
 8214W        W79797  33.764   3.321   3.512
 8215W        W79798  15.205  41.839   0.426
 8216W        W79799  27.187  37.638  13.365
 8217W        W79800  32.603  24.936  12.066
 8218W        W79801   5.222  38.467  14.567
 8219W        W79802   8.820   3.069   0.911
 8220W        W79803   7.319  15.176  13.270
 8221W        W79804   7.630  33.968   1.336
 8222W        W79805  18.994  37.836   3.486
 8223W        W79806  41.417   1.785   4.595
 8224W        W79807  28.649  42.835  12.568
 8225W        W79808  10.657   8.863   5.152
 8226W        W79809  11.761  14.649   0.852
 8227W        W79810  34.098  33.860   2.987
 8228W        W79811  37.140  40.996   3.311
 8229W        W79812  36.995  35.330   3.225
 8230W        W79813   6.908  25.011  12.596
 8231W        W79814   5.158  23.526  11.206
 8232W        W79815  13.624  38.449   2.293
 8233W        W79816  30.922  11.822  13.004
 8234W        W79817  13.772  14.965   2.402
 8235W        W79818  40.763  27.562  11.169
 8236W        W79819   0.466  34.183   3.305
 8237W        W79820  21.944   1.227  13.946
 8238W        W79821  23.233  31.097   3.762
 8239W        W79822  38.914  37.322   2.956
 8240W        W79823  27.876  21.565   0.306
 8241W        W79824  19.467  32.556  14.979
 8242W        W79825   6.797  13.707   4.655
 8243W        W79826  32.529   3.184   3.768
 8244W        W79827   5.316  20.017  11.537
 8245W        W79828   4.393  21.397  11.454
 8246W        W79829  13.814  27.670  14.387
 8247W        W79830  18.746  21.767   2.710
 8248W        W79831  11.906  38.504   3.282
 8249W        W79832  23.864   5.453   0.516
 8250W        W79833  25.939  34.410   0.401
 8251W        W79834  32.946  33.690  11.571
 8252W        W79835  42.044  24.664  13.545
 8253W        W79836  19.321  13.119   1.967
 8254W        W79837  35.135  29.134   3.988
 8255W        W79838   2.035  17.864   3.203
 8256W        W79839  10.105  22.021  11.122
 8257W        W79840  20.056  19.679   2.761
 8258W        W79841  27.631  23.138  14.354
 8259W        W79842   3.688  10.283  10.656
 8260W        W79843  13.778  11.001  13.891
 8261W        W79844  37.616   5.369   2.934
 8262W        W79845  22.999  37.043   3.696
 8263W        W79846   1.345  28.823  12.534
 8264W        W79847  32.047  32.315   3.273
 8265W        W79848   4.440  33.619   1.880
 8266W        W79849  38.964  33.576   4.567
 8267W        W79850  27.970  25.492   1.351
 8268W        W79851  42.313  25.962   4.187
 8269W        W79852  19.638  25.717   1.763
 8270W        W79853   3.340   7.524   5.300
 8271W        W79854  39.659  42.930   1.679
 8272W        W79855  31.065   6.383   1.045
 8273W        W79856   4.199  11.780   4.613
 8274W        W79857  33.536   4.230  12.249
 8275W        W79858  21.552  32.992   0.302
 8276W        W79859  44.858  36.377  12.629
 8277W        W79860   0.830  10.827   3.946
 8278W        W79861  10.660   2.821   4.322
 8279W        W79862  30.236   6.182   3.774
 8280W        W79863  20.914  20.820  13.078
 8281W        W79864  14.180  23.135  12.006
 8282W        W79865  27.204   0.313  13.004
 8283W        W79866   9.415  41.291   1.454
 8284W        W79867  42.824   1.476   2.816
 8285W        W79868  34.530   9.697   4.842
 8286W        W79869  31.582  35.636   1.637
 8287W        W79870  23.969   2.447  10.708
 8288W        W79871   8.641   1.369  14.395
 8289W        W79872  42.828  40.398   0.854
 8290W        W79873   4.457  28.631  14.723
 8291W        W79874   8.836  34.413   1.374
 8292W        W79875   3.322  10.472   2.661
 8293W        W79876  27.247  43.463   1.489
 8294W        W79877  44.931  39.873  11.666
 8295W        W79878  18.239  39.533  14.327
 8296W        W79879   3.293  31.759  11.527
 8297W        W79880  43.867  10.898  11.130
 8298W        W79881   0.159  17.165  12.933
 8299W        W79882   7.768  41.320   4.042
 8300W        W79883  15.193  40.053   1.796
 8301W        W79884  29.278  21.731  11.122
 8302W        W79885  15.196  41.886   3.384
 8303W        W79886  34.708   3.245  12.985
 8304W        W79887   0.175  22.643   2.335
 8305W        W79888  29.860  22.982   0.100
 8306W        W79889  44.062   7.103   4.548
 8307W        W79890  37.603  20.258  11.575
 8308W        W79891  32.827  20.575  12.110
 8309W        W79892  25.203  12.354  10.633
 8310W        W79893  44.476  41.328  11.062
 8311W        W79894  34.587   4.978  14.537
 8312W        W79895  30.581  21.751   2.182
 8313W        W79896   4.877  14.352   3.357
 8314W        W79897  24.100  17.734  11.113
 8315W        W79898  31.919  28.727  13.815
 8316W        W79899  27.396  27.652  10.687
 8317W        W79900  15.661  30.848  10.676
 8318W        W79901  29.654   0.409   3.330
 8319W        W79902  41.561  28.578   3.657
 8320W        W79903  27.605   7.534   2.702
 8321W        W79904  19.679  33.544   3.727
 8322W        W79905  20.934   7.349  14.355
 8323W        W79906  20.333   7.779   3.643
 8324W        W79907   3.214  38.802  13.828
 8325W        W79908  26.003  18.302  10.847
 8326W        W79909  44.999  12.801   0.324
 8327W        W79910  13.273  32.871   2.954
 8328W        W79911  29.877  41.100   3.439
 8329W        W79912  18.241  15.202   4.516
 8330W        W79913  44.447  32.399   4.905
 8331W        W79914  42.945  13.719  12.460
 8332W        W79915   8.984  32.500   0.808
 8333W        W79916  13.078  28.003   4.229
 8334W        W79917   9.539  22.487   4.242
 8335W        W79918  38.929  40.371   4.665
 8336W        W79919  31.522  24.583  11.107
 8337W        W79920  29.369  40.457  12.902
 8338W        W79921   0.461  19.807   1.858
 8339W        W79922   6.668  30.684  10.826
 8340W        W79923  35.109  41.415  14.509
 8341W        W79924   9.081  13.206  14.580
 8342W        W79925  26.198   9.955   1.748
 8343W        W79926   0.976   0.893  14.915
 8344W        W79927  11.525  11.444   3.689
 8345W        W79928  20.737  34.509   1.990
 8346W        W79929  12.211   6.700   2.041
 8347W        W79930  27.475  11.955  13.359
 8348W        W79931  17.661  22.374  14.804
 8349W        W79932  36.584   9.423   0.210
 8350W        W79933  17.193  34.844  14.292
 8351W        W79934  16.624  18.569  14.536
 8352W        W79935  42.825  33.069  14.455
 8353W        W79936  12.172  13.948  14.688
 8354W        W79937   6.001  14.193  11.589
 8355W        W79938  38.767  24.335  13.990
 8356W        W79939  13.211  30.872   2.693
 8357W        W79940  40.527   5.067  12.503
 8358W        W79941   7.047  44.905   3.347
 8359W        W79942  29.579  29.524   4.008
 8360W        W79943  33.906  28.887  13.931
 8361W        W79944  28.712  15.732  12.822
 8362W        W79945  31.606  39.373  12.455
 8363W        W79946  41.819  32.476  13.838
 8364W        W79947  19.497  26.638   2.046
 8365W        W79948  22.776  40.520  10.016
 8366W        W79949   9.871   3.252   3.136
 8367W        W79950  27.301  36.139  11.488
 8368W        W79951  11.711  12.621   4.179
 8369W        W79952   5.258   6.644  14.369
 8370W        W79953   2.710  10.283   0.509
 8371W        W79954  35.442  15.879  13.523
 8372W        W79955  35.157   9.191   2.727
 8373W        W79956   8.684  26.503   4.662
 8374W        W79957  43.203  36.137   0.421
 8375W        W79958  43.447   9.322   3.961
 8376W        W79959  10.795  14.480  10.466
 8377W        W79960  32.350  42.255   1.527
 8378W        W79961  10.804  22.807  12.547
 8379W        W79962  30.504  16.261   0.742
 8380W        W79963   1.985  43.473   4.095
 8381W        W79964  21.733  15.748  10.169
 8382W        W79965   0.232  41.848  13.969
 8383W        W79966  41.873   1.236   0.902
 8384W        W79967  41.035  39.835   1.216
 8385W        W79968  35.015  17.335   1.785
 8386W        W79969  20.759  41.240  11.226
 8387W        W79970  38.071  10.330   0.972
 8388W        W79971  40.518  17.408   3.170
 8389W        W79972  19.214   1.390  14.929
 8390W        W79973  30.863  23.807   0.861
 8391W        W79974  25.599  14.028  14.475
 8392W        W79975   3.855   6.367   4.631
 8393W        W79976  10.311   3.200   2.844
 8394W        W79977  34.586   1.917  12.089
 8395W        W79978   0.807   0.235  12.531
 8396W        W79979  39.883  13.127  10.988
 8397W        W79980  37.645  15.798  14.312
 8398W        W79981  43.764  43.736  13.105
 8399W        W79982  41.545   4.791  13.385
 8400W        W79983  17.718  39.350  14.389
 8401W        W79984  11.597   0.881  13.214
 8402W        W79985  18.569  24.284  10.871
 8403W        W79986  32.497  16.203  11.702
 8404W        W79987  38.347   0.959  12.500
 8405W        W79988   6.563  43.333  12.653
 8406W        W79989  23.397   2.593  14.435
 8407W        W79990   9.657  16.975   1.408
 8408W        W79991  43.417  15.811  13.345
 8409W        W79992  28.548  37.451  13.353
 8410W        W79993  42.296   0.381  12.995
 8411W        W79994   0.929  40.506  13.035
 8412W        W79995   7.240  29.093  11.736
 8413W        W79996  25.632   6.013  14.918
 8414W        W79997  33.663  18.572  11.079
 8415W        W79998   5.246  12.694  10.912
 8416W        W79999  37.112  40.118   1.310
 8417W        W80000  15.634  14.057   2.752
 8418W        W80001  30.141  36.094   4.089
 8419W        W80002  33.869  36.403  12.978
 8420W        W80003  22.821   4.769  14.612
 8421W        W80004  33.591  34.183  11.235
 8422W        W80005   3.665  35.175  13.236
 8423W        W80006  33.727  17.127   1.898
 8424W        W80007  18.842  38.908  12.485
 8425W        W80008  35.411   9.396  10.426
 8426W        W80009  19.525  21.089   1.234
 8427W        W80010  31.086   1.846   4.956
 8428W        W80011   9.266  36.629   3.190
 8429W        W80012  25.273  40.369   0.502
 8430W        W80013   5.740   5.504   0.731
 8431W        W80014   8.115  37.223  11.064
 8432W        W80015  42.549  33.150  13.990
 8433W        W80016  43.337  13.248   2.709
 8434W        W80017  28.987   6.580  14.557
 8435W        W80018  20.644  33.091   4.621
 8436W        W80019  23.020  23.395   3.162
 8437W        W80020  41.516  20.118   0.868
 8438W        W80021  37.080  40.801   0.240
 8439W        W80022   7.356  14.050   4.111
 8440W        W80023  20.417  21.655   2.026
 8441W        W80024  26.731  17.184   4.694
 8442W        W80025  39.742  23.115   4.213
 8443W        W80026  10.041  32.493  14.005
 8444W        W80027  41.932  26.875  14.290
 8445W        W80028  15.362  21.125   4.342
 8446W        W80029  15.829  39.348  12.048
 8447W        W80030   4.996  37.800  14.515
 8448W        W80031  39.111   0.359   2.205
 8449W        W80032  33.037  34.593   0.225
 8450W        W80033   7.644  36.533  13.198
 8451W        W80034   0.933  21.725  11.652
 8452W        W80035   1.591   5.690  11.583
 8453W        W80036  16.315  40.056  11.098
 8454W        W80037  18.230  13.736   1.888
 8455W        W80038   9.872  14.778  10.845
 8456W        W80039  39.055  33.579   0.882
 8457W        W80040  12.659  32.436  14.608
 8458W        W80041  44.407  27.674   4.740
 8459W        W80042  39.898  17.231  14.308
 8460W        W80043  32.636   3.681  14.405
 8461W        W80044  11.300  29.151  11.997
 8462W        W80045  21.953  36.880  13.306
 8463W        W80046  14.678   5.166  13.330
 8464W        W80047  21.550   4.271  14.736
 8465W        W80048  37.085  22.669   3.309
 8466W        W80049  22.535  22.348  10.624
 8467W        W80050  31.471   1.467   4.189
 8468W        W80051  30.732  35.494  12.830
 8469W        W80052  16.247  28.602  11.207
 8470W        W80053   7.288   6.074  12.138
 8471W        W80054   6.285   7.483  14.340
 8472W        W80055  23.017  19.596   1.921
 8473W        W80056  29.438  20.478   3.106
 8474W        W80057  32.378  38.514   0.783
 8475W        W80058  38.816   3.572  10.616
 8476W        W80059  27.926  28.119   0.739
 8477W        W80060  36.086  22.957  14.435
 8478W        W80061  28.876  38.086  12.047
 8479W        W80062  16.169   1.236   3.408
 8480W        W80063   6.772  44.344   4.840
 8481W        W80064  41.195   7.353  11.895
 8482W        W80065  20.102  15.561  14.276
 8483W        W80066   2.523  24.066  14.245
 8484W        W80067   4.412  31.511   3.814
 8485W        W80068  29.994  27.305  13.492
 8486W        W80069  31.623  35.399   0.286
 8487W        W80070  43.928  40.275  10.804
 8488W        W80071  39.965  37.470  13.294
 8489W        W80072   5.949  12.884  14.442
 8490W        W80073   4.949   2.658  12.749
 8491W        W80074   9.827   4.412   1.870
 8492W        W80075  36.326   7.220   3.572
 8493W        W80076  16.741  23.448  11.527
 8494W        W80077  37.120  18.613  13.596
 8495W        W80078  43.905  38.509   0.680
 8496W        W80079   3.200   4.391   0.481
 8497W        W80080   1.661  26.708   2.615
 8498W        W80081  24.121  38.801  11.270
 8499W        W80082  33.212  13.602   1.758
 8500W        W80083   4.388   9.762  13.297
 8501W        W80084   8.155   8.740  12.025
 8502W        W80085  23.135  24.208  12.461
 8503W        W80086  22.906  38.047  14.540
 8504W        W80087  34.349   0.921   4.683
 8505W        W80088   7.491   8.697   5.244
 8506W        W80089   5.498  12.375   2.669
 8507W        W80090  28.832   6.144   4.070
 8508W        W80091  33.612  44.720   1.353
 8509W        W80092  38.071  43.387  12.014
 8510W        W80093  40.781  37.425  10.737
 8511W        W80094   0.046  13.359   0.361
 8512W        W80095  39.721  44.832  10.848
 8513W        W80096  10.142  36.778   4.904
 8514W        W80097   2.016   9.470  11.985
 8515W        W80098  31.907  13.852  12.629
 8516W        W80099  20.058  42.265  14.519
 8517W        W80100   3.898   1.802  14.214
 8518W        W80101  43.388  38.069  11.563
 8519W        W80102  27.911   7.124  12.021
 8520W        W80103  34.382  10.662  11.124
 8521W        W80104  23.231   3.763  13.483
 8522W        W80105   6.400  19.616  13.574
 8523W        W80106  24.495  40.471   4.679
 8524W        W80107  16.546  26.190   2.713
 8525W        W80108  31.065  31.127  10.690
 8526W        W80109   0.807  25.805   4.208
 8527W        W80110   5.953  32.578   2.860
 8528W        W80111  43.876   2.040   3.601
 8529W        W80112   4.006  19.930   1.662
 8530W        W80113  11.607   7.407   3.112
 8531W        W80114  41.541  39.800   1.315
 8532W        W80115  30.799  22.730   4.560
 8533W        W80116  37.860  35.848   3.257
 8534W        W80117  30.594  27.621   0.433
 8535W        W80118   5.791   2.303  13.919
 8536W        W80119  18.741   5.918  14.845
 8537W        W80120  15.742  10.827   4.701
 8538W        W80121  38.302  21.081   9.810
 8539W        W80122   5.861   6.944   0.369
 8540W        W80123  11.275  31.446   4.606
 8541W        W80124  26.065  29.948   2.260
 8542W        W80125   0.509   9.623  12.249
 8543W        W80126  20.296  27.454  13.435
 8544W        W80127   6.413   1.054   5.054
 8545W        W80128  21.830  44.878   1.291
 8546W        W80129  21.150  44.471  14.320
 8547W        W80130   9.112  28.520  14.379
 8548W        W80131  20.298   4.931  12.067
 8549W        W80132  42.429  36.895   4.407
 8550W        W80133  39.041  17.562   2.412
 8551W        W80134   6.421  15.278  11.163
 8552W        W80135  19.112  13.565  13.126
 8553W        W80136  42.028  23.221  11.109
 8554W        W80137  20.044  23.712   9.687
 8555W        W80138  15.703  14.598   0.932
 8556W        W80139  30.033  26.547  11.722
 8557W        W80140  39.060  27.609  14.219
 8558W        W80141   7.868  30.030   1.461
 8559W        W80142  21.338   6.365   5.444
 8560W        W80143   8.090  11.505   3.139
 8561W        W80144   3.533  19.084  13.406
 8562W        W80145  37.329  12.234  12.536
 8563W        W80146  16.238  16.630   0.328
 8564W        W80147  10.045  32.985   1.417
 8565W        W80148  13.334  37.965  11.540
 8566W        W80149  41.397  29.458   3.809
 8567W        W80150  39.040  32.818   2.961
 8568W        W80151  17.217  30.854  10.158
 8569W        W80152   3.163  27.612   0.755
 8570W        W80153  42.235  16.625  12.199
 8571W        W80154  13.592  22.577   0.914
 8572W        W80155   7.210  20.528   2.270
 8573W        W80156  32.617  13.149   0.298
 8574W        W80157  10.652   5.546   4.062
 8575W        W80158   6.643  37.870  12.764
 8576W        W80159  32.419  16.358   1.748
 8577W        W80160  21.138  30.535   4.106
 8578W        W80161   7.033  44.763   1.319
 8579W        W80162  27.635   6.318  12.757
 8580W        W80163  12.898  18.514  11.559
 8581W        W80164  34.937  42.029  13.987
 8582W        W80165  29.690  36.666  13.490
 8583W        W80166  29.938  22.835   5.142
 8584W        W80167   6.489  29.609  14.780
 8585W        W80168  16.331  23.322   1.970
 8586W        W80169  37.362  34.153   1.684
 8587W        W80170  39.413  27.721   0.739
 8588W        W80171  10.387   2.296  12.906
 8589W        W80172  25.948  27.931   0.327
 8590W        W80173   7.925  33.514   1.426
 8591W        W80174  25.124  42.452  14.421
 8592W        W80175  10.736   4.811   2.801
 8593W        W80176  20.214  40.010  10.615
 8594W        W80177  36.054  22.368   4.071
 8595W        W80178  19.486  28.083  14.398
 8596W        W80179  38.246   0.386  14.454
 8597W        W80180  27.929  30.199   0.328
 8598W        W80181  37.047  21.223   1.850
 8599W        W80182   1.959  32.927  13.988
 8600W        W80183  21.140   2.024  12.862
 8601W        W80184  28.626  14.822   3.773
 8602W        W80185  35.112  29.111   1.247
 8603W        W80186  22.113  34.486  13.380
 8604W        W80187  14.413   3.281  12.623
 8605W        W80188  11.139   3.593  12.435
 8606W        W80189  39.430   8.272   2.783
 8607W        W80190  10.106  19.177   3.693
 8608W        W80191   7.629  14.198   3.162
 8609W        W80192  39.264  41.553  13.915
 8610W        W80193  40.439  41.495   2.210
 8611W        W80194  40.076  12.923  13.822
 8612W        W80195  41.566  33.867   2.188
 8613W        W80196   3.296  37.841   3.671
 8614W        W80197  24.295  33.924   3.138
 8615W        W80198  15.267  37.556  13.567
 8616W        W80199  24.959   7.646   1.752
 8617W        W80200  38.146  41.776   2.832
 8618W        W80201  30.758  30.525  13.965
 8619W        W80202  11.609  26.855  14.761
 8620W        W80203  17.671  14.879  13.908
 8621W        W80204  23.150   2.009   2.685
 8622W        W80205  24.479  38.405   2.934
 8623W        W80206  29.005  34.599   3.560
 8624W        W80207  20.643  29.689  12.633
 8625W        W80208  29.888  30.748  11.542
 8626W        W80209  41.959  25.443   2.568
 8627W        W80210  20.997  42.465  10.594
 8628W        W80211  18.513  28.207   1.546
 8629W        W80212  32.725  35.207   3.400
 8630W        W80213  30.338  24.727  13.026
 8631W        W80214   6.920  10.783   4.100
 8632W        W80215   9.476  24.737  12.415
 8633W        W80216   6.393  32.022  12.199
 8634W        W80217  16.511  33.892  11.934
 8635W        W80218  32.838  12.810   2.746
 8636W        W80219  25.925  24.134   3.649
 8637W        W80220   0.879  44.192  13.457
 8638W        W80221  42.261  30.830  14.745
 8639W        W80222   2.201  31.898   2.782
 8640W        W80223  36.591  41.336   4.041
 8641W        W80224  28.630  16.041   1.613
 8642W        W80225  19.797  19.506   9.863
 8643W        W80226  30.256  20.104   1.257
 8644W        W80227  32.492  28.939  12.059
 8645W        W80228   1.488   4.217   3.291
 8646W        W80229  38.294   0.152  10.876
 8647W        W80230  20.965  39.341  10.713
 8648W        W80231  41.099  24.178   2.728
 8649W        W80232  12.674  28.980  13.471
 8650W        W80233  44.815   5.020  14.429
 8651W        W80234  31.732  40.809  14.432
 8652W        W80235  38.705   4.434   0.494
 8653W        W80236  34.395   9.726   2.881
 8654W        W80237   4.487  37.881  14.519
 8655W        W80238  24.492  32.063   0.946
 8656W        W80239   3.238   2.778  10.710
 8657W        W80240  34.426  25.736  13.452
 8658W        W80241  29.535  15.460  10.011
 8659W        W80242   9.006  43.319  12.257
 8660W        W80243   5.320  28.533  12.993
 8661W        W80244  20.069  39.602   2.208
 8662W        W80245   8.669  35.956   0.565
 8663W        W80246  44.926  42.777  12.639
 8664W        W80247  34.843   0.975  10.777
 8665W        W80248  17.603   2.024  11.157
 8666W        W80249  30.150   6.714   2.302
 8667W        W80250  16.334  17.404  12.895
 8668W        W80251  42.809   2.994   2.802
 8669W        W80252  19.454   2.763   5.135
 8670W        W80253  17.359  18.728  13.495
 8671W        W80254   3.323  14.280   1.238
 8672W        W80255  14.475  13.061  11.992
 8673W        W80256   6.755  32.903   1.280
 8674W        W80257   8.590   7.462  11.995
 8675W        W80258  17.560  29.871  14.556
 8676W        W80259  19.849  36.233   4.990
 8677W        W80260   2.180  33.993   1.905
 8678W        W80261   8.645  17.758  11.521
 8679W        W80262  24.652  12.820  13.723
 8680W        W80263  36.630  10.140  12.997
 8681W        W80264  11.362  28.601   1.263
 8682W        W80265  34.615   8.873   4.152
 8683W        W80266  19.433  31.394  10.825
 8684W        W80267  10.641  25.028   5.015
 8685W        W80268  10.746  29.450  11.234
 8686W        W80269  14.457  22.242  12.160
 8687W        W80270   4.940  34.646  12.014
 8688W        W80271  41.894  40.330  12.026
 8689W        W80272   7.289  16.820   4.639
 8690W        W80273  33.652  18.115   2.856
 8691W        W80274   2.238  19.126  10.863
 8692W        W80275   2.133  28.169  10.784
 8693W        W80276   7.372   9.308  11.329
 8694W        W80277  41.068  40.442   3.795
 8695W        W80278  24.344   5.700  10.777
 8696W        W80279   0.937   4.163  14.328
 8697W        W80280  10.346  20.330   2.820
 8698W        W80281  10.169   7.956   3.678
 8699W        W80282  26.499   3.929   3.565
 8700W        W80283  35.881   6.665   4.097
 8701W        W80284  37.624  36.635  12.855
 8702W        W80285  27.174  33.242  11.086
 8703W        W80286   6.529  16.204   4.532
 8704W        W80287  39.914  29.094  11.053
 8705W        W80288  36.393   9.619   2.848
 8706W        W80289  13.980  16.229  12.490
 8707W        W80290  15.227  35.480  11.993
 8708W        W80291   7.813  27.453   1.240
 8709W        W80292  29.885  22.632  12.395
 8710W        W80293  27.048   5.214   1.001
 8711W        W80294   4.964  44.330  11.609
 8712W        W80295  24.685  17.231   4.749
 8713W        W80296  22.329  19.425  11.305
 8714W        W80297   9.516  19.150   3.648
 8715W        W80298  31.858  41.304   0.731
 8716W        W80299   6.235  44.525   0.395
 8717W        W80300  24.050  41.612  13.352
 8718W        W80301  37.985  28.982   2.113
 8719W        W80302  44.333  16.741  13.118
 8720W        W80303  44.887   9.276  12.985
 8721W        W80304  31.549  31.444   3.779
 8722W        W80305  19.310  41.412   1.671
 8723W        W80306  16.824  14.548   2.903
 8724W        W80307  40.295  27.255  12.816
 8725W        W80308   8.890  37.619  13.003
 8726W        W80309  29.986  43.837  10.950
 8727W        W80310   7.683  23.202   1.321
 8728W        W80311  39.762  27.379   1.436
 8729W        W80312  29.553  18.721  13.253
 8730W        W80313  12.834  16.797   1.694
 8731W        W80314   2.426  34.876   1.389
 8732W        W80315   6.168  20.162   4.029
 8733W        W80316  21.701   4.342  10.608
 8734W        W80317  37.493  15.444   0.281
 8735W        W80318   1.854  38.321  11.952
 8736W        W80319  44.268  14.057  13.488
 8737W        W80320  22.529   8.485  11.564
 8738W        W80321  14.650   1.970   4.179
 8739W        W80322  28.024  40.260  13.012
 8740W        W80323  19.783  11.599   0.959
 8741W        W80324  22.031   7.686  14.393
 8742W        W80325   0.708  16.190   2.264
 8743W        W80326  21.002  20.992   1.414
 8744W        W80327  41.536   0.548   3.834
 8745W        W80328  44.017  44.467  14.053
 8746W        W80329  36.506  22.586   4.067
 8747W        W80330  35.965  12.333  11.139
 8748W        W80331  13.817  29.695  11.935
 8749W        W80332   1.570  35.393   2.854
 8750W        W80333  31.197   9.839   1.865
 8751W        W80334  26.567  43.690   1.059
 8752W        W80335  14.636  43.080   0.987
 8753W        W80336  29.884   3.952   1.320
 8754W        W80337   4.228  31.059  10.898
 8755W        W80338  37.514  44.988   1.633
 8756W        W80339   2.754  21.221  14.083
 8757W        W80340   8.439  28.143  14.370
 8758W        W80341   8.047  37.010  13.386
 8759W        W80342   8.905  12.767  11.137
 8760W        W80343  11.244  41.627  14.355
 8761W        W80344  28.294  12.796   0.488
 8762W        W80345  25.978  10.127   3.156
 8763W        W80346  44.446  42.989   1.786
 8764W        W80347  38.184  44.278   1.312
 8765W        W80348  32.407   3.198  14.461
 8766W        W80349  13.253   1.494   4.136
 8767W        W80350  29.626  12.822   0.790
 8768W        W80351  38.923  11.917   4.553
 8769W        W80352   8.970  24.441  11.963
 8770W        W80353   2.290   2.519  12.129
 8771W        W80354  34.271  35.028  10.808
 8772W        W80355  41.547  15.092   2.363
 8773W        W80356   7.966  43.072   4.602
 8774W        W80357  41.737   5.863  14.802
 8775W        W80358  43.176  27.592   0.373
 8776W        W80359  20.070  35.519  14.544
 8777W        W80360  13.640  42.652   4.085
 8778W        W80361  14.599  36.846   0.403
 8779W        W80362  31.661   6.271   2.831
 8780W        W80363  42.094  28.647   3.693
 8781W        W80364  15.991  31.125  13.048
 8782W        W80365   8.652  18.584   0.028
 8783W        W80366   8.205  39.155  11.147
 8784W        W80367  23.076  27.721   4.243
 8785W        W80368  26.413  40.624   2.788
 8786W        W80369   7.750   5.637   2.268
 8787W        W80370  30.607  26.451  13.646
 8788W        W80371   5.923  38.115  11.612
 8789W        W80372   0.668  36.389   4.275
 8790W        W80373  40.938  28.672  11.776
 8791W        W80374  28.836  11.704   0.464
 8792W        W80375  25.232  25.545   3.727
 8793W        W80376  25.538   9.577   0.863
 8794W        W80377  27.080   5.224  14.543
 8795W        W80378  42.033   0.666   3.583
 8796W        W80379  12.207  38.556  13.838
 8797W        W80380  24.117  43.480   1.805
 8798W        W80381  36.867   3.467   3.622
 8799W        W80382  10.743  44.425  13.844
 8800W        W80383   8.698  36.017  13.689
 8801W        W80384  16.090  41.769  13.947
 8802W        W80385  32.499  21.767   3.789
 8803W        W80386  40.986  22.719  10.597
 8804W        W80387  42.225  40.786  14.673
 8805W        W80388  28.120  19.303  11.205
 8806W        W80389  25.336  29.349  13.988
 8807W        W80390  27.184  26.348  11.645
 8808W        W80391  41.236  38.938   4.312
 8809W        W80392   2.176  30.694   0.959
 8810W        W80393  33.450  35.702   1.776
 8811W        W80394   1.725  24.479  12.904
 8812W        W80395   6.190   6.952  14.481
 8813W        W80396  36.530   9.138   2.959
 8814W        W80397   4.367  13.178  12.985
 8815W        W80398  27.782  14.320   1.112
 8816W        W80399  26.214  15.398  11.092
 8817W        W80400  15.546  30.549  10.255
 8818W        W80401  33.758  26.276   5.067
 8819W        W80402  40.884   7.158   5.093
 8820W        W80403  43.024  27.693   4.466
 8821W        W80404   1.160   4.511  12.042
 8822W        W80405  11.403  33.173   1.763
 8823W        W80406  38.854   5.497  14.297
 8824W        W80407  41.394  11.396   2.660
 8825W        W80408   2.220  32.872  11.134
 8826W        W80409  19.106  40.052   1.914
 8827W        W80410  17.201  19.253  12.525
 8828W        W80411   6.766  37.595   1.870
 8829W        W80412   9.009   6.393  13.614
 8830W        W80413  20.550  18.306  12.192
 8831W        W80414  14.495  27.218  12.408
 8832W        W80415  38.534  44.525   0.879
 8833W        W80416  37.935   1.141  10.701
 8834W        W80417  44.585  13.753  14.335
 8835W        W80418   4.245   2.034  14.884
 8836W        W80419  21.465  36.044  12.045
 8837W        W80420  28.465  28.929   1.946
 8838W        W80421  23.921  12.719  11.873
 8839W        W80422  19.831   7.660   1.923
 8840W        W80423  35.357  23.022   0.783
 8841W        W80424  32.125  12.123  10.687
 8842W        W80425   5.640  21.320  12.390
 8843W        W80426  10.654  42.028   1.883
 8844W        W80427   0.876  20.290  12.606
 8845W        W80428  32.022   0.796   4.172
 8846W        W80429  26.991  41.999   1.907
 8847W        W80430  23.619  41.009   1.364
 8848W        W80431  35.426  13.997   0.562
 8849W        W80432  44.495  12.593  14.224
 8850W        W80433  42.318   0.704  10.915
 8851W        W80434  30.842  19.616  14.365
 8852W        W80435  23.404   9.243   9.903
 8853W        W80436   1.120  43.483   3.690
 8854W        W80437  43.546  11.701   1.318
 8855W        W80438  17.175   5.750   2.471
 8856W        W80439   2.802  16.738  14.123
 8857W        W80440  30.979   3.155   1.771
 8858W        W80441  19.936  18.751  14.567
 8859W        W80442  14.715  32.370  12.582
 8860W        W80443  13.564   0.191  14.498
 8861W        W80444  16.013  43.958   2.830
 8862W        W80445  20.767  10.633   0.271
 8863W        W80446   0.727  44.434   0.277
 8864W        W80447  34.945   4.988   1.958
 8865W        W80448  20.012   2.757   3.284
 8866W        W80449   0.284  44.692  13.033
 8867W        W80450   7.337  40.529   0.425
 8868W        W80451  21.716  37.008   2.243
 8869W        W80452  39.610   2.430  14.275
 8870W        W80453   2.298   8.763  11.484
 8871W        W80454  16.129  17.736  14.924
 8872W        W80455  20.798  30.770   9.747
 8873W        W80456  42.772   8.690  10.657
 8874W        W80457  19.213  39.764   3.984
 8875W        W80458  38.575   3.959   3.857
 8876W        W80459  10.166  12.436   1.782
 8877W        W80460  44.406  43.487  10.776
 8878W        W80461   1.248   2.437   3.644
 8879W        W80462  37.570   4.215  11.571
 8880W        W80463  13.259   2.743   0.774
 8881W        W80464  34.230  11.688  11.662
 8882W        W80465  37.395   1.495   2.023
 8883W        W80466  33.598  22.504   1.937
 8884W        W80467  25.249  24.189   0.638
 8885W        W80468  30.603  26.928   3.582
 8886W        W80469  42.460   7.196   3.826
 8887W        W80470   3.885  26.459  14.940
 8888W        W80471  21.111   1.448   2.138
 8889W        W80472  27.761   1.046  13.491
 8890W        W80473   2.094  14.231   4.722
 8891W        W80474  32.418  34.085   3.194
 8892W        W80475  35.102  39.477  13.138
 8893W        W80476   7.939   0.432  14.698
 8894W        W80477  38.695   4.336  10.261
 8895W        W80478  42.570  13.181  14.129
 8896W        W80479   9.139  37.493   4.720
 8897W        W80480  11.656  22.671   4.654
 8898W        W80481  11.352  32.968   2.237
 8899W        W80482  24.084  11.785  14.577
 8900W        W80483  24.610   1.117   0.172
 8901W        W80484  24.737   9.493   2.415
 8902W        W80485  13.147  40.876   0.494
 8903W        W80486  38.468  15.273  11.247
 8904W        W80487   7.457  41.949   0.804
 8905W        W80488  35.941  16.260  14.249
 8906W        W80489   3.949  24.281   4.765
 8907W        W80490  15.311  44.783  11.106
 8908W        W80491   2.961   6.790  13.832
 8909W        W80492   0.348  21.504   0.976
 8910W        W80493  25.744  41.589  11.135
 8911W        W80494  16.730  33.544  13.917
 8912W        W80495  42.971  13.396   5.101
 8913W        W80496  17.986   2.512   1.218
 8914W        W80497  38.819  29.969  13.147
 8915W        W80498  21.516  43.299   4.528
 8916W        W80499  12.862   2.154   1.270
 8917W        W80500  24.454  36.568  13.118
 8918W        W80501  38.747  25.038   4.079
 8919W        W80502  24.276   3.796  14.434
 8920W        W80503  40.340  15.124  11.630
 8921W        W80504   0.855   4.990   4.212
 8922W        W80505   4.720  29.432  12.997
 8923W        W80506  36.140  12.815  10.980
 8924W        W80507  43.899  39.466  14.264
 8925W        W80508  39.367   8.784   3.021
 8926W        W80509  30.614  26.841   2.678
 8927W        W80510  19.738   1.748  12.896
 8928W        W80511  31.586   4.214   4.621
 8929W        W80512   7.230  33.089   4.691
 8930W        W80513  28.468   4.630  11.641
 8931W        W80514  12.843  36.115   0.254
 8932W        W80515  21.320  37.232  13.868
 8933W        W80516  31.129  39.597  13.164
 8934W        W80517  43.763  26.945  10.898
 8935W        W80518   9.348  41.002   2.825
 8936W        W80519  28.478   5.166  11.565
 8937W        W80520  13.326   0.988  11.675
 8938W        W80521   4.853  12.563  13.557
 8939W        W80522  25.997  14.176   2.848
 8940W        W80523  16.754  15.202  13.845
 8941W        W80524  44.865  13.883  13.847
 8942W        W80525  19.566  31.140   2.294
 8943W        W80526  14.651  36.416   4.791
 8944W        W80527  18.715  44.842  14.725
 8945W        W80528  26.078   3.416   3.214
 8946W        W80529  38.383   2.225  11.200
 8947W        W80530  10.047   2.398  11.536
 8948W        W80531  20.091  34.884  11.718
 8949W        W80532  29.088   4.503  14.318
 8950W        W80533  17.835   0.509  13.500
 8951W        W80534  31.020  38.572   0.352
 8952W        W80535  18.978  27.763   0.840
 8953W        W80536  34.902  22.897  12.796
 8954W        W80537  38.509   2.941   2.432
 8955W        W80538  15.831  34.095  12.543
 8956W        W80539  19.570  27.990  13.324
 8957W        W80540  16.363  25.562   4.391
 8958W        W80541  16.659  37.814  12.425
 8959W        W80542  28.971   3.658   1.537
 8960W        W80543  26.729   5.409  13.273
 8961W        W80544  32.348  26.066   0.728
 8962W        W80545   8.162  34.852  13.145
 8963W        W80546  16.092   4.827   2.210
 8964W        W80547  37.779  28.142   1.191
 8965W        W80548   2.838   0.834  11.633
 8966W        W80549   7.898  17.736   2.409
 8967W        W80550  17.537  28.332   3.223
 8968W        W80551  17.109  17.291  13.916
 8969W        W80552  21.336  15.865  12.567
 8970W        W80553  37.076  38.355  13.385
 8971W        W80554  27.590  31.486  14.092
 8972W        W80555  25.645  29.473   3.905
 8973W        W80556  18.571   6.334   4.296
 8974W        W80557  21.060  31.545   0.861
 8975W        W80558   3.768  16.928   4.875
 8976W        W80559  37.545   5.367  14.445
 8977W        W80560  35.570  25.434   0.839
 8978W        W80561  16.708  40.056   2.373
 8979W        W80562   7.285   1.317  11.456
 8980W        W80563  25.885  44.969  14.140
 8981W        W80564   7.630  12.797   4.626
 8982W        W80565  17.496  40.593  11.555
 8983W        W80566  28.087  38.857   4.451
 8984W        W80567   5.490  38.056   3.344
 8985W        W80568  21.942   7.516  10.714
 8986W        W80569  40.404  18.145   1.828
 8987W        W80570   2.472  29.636   0.417
 8988W        W80571  25.974  17.305  13.927
 8989W        W80572  16.915  20.205   2.049
 8990W        W80573  42.414  30.629   4.279
 8991W        W80574  25.396  20.130  10.829
 8992W        W80575  21.801  42.042   3.336
 8993W        W80576  43.906  33.543   4.106
 8994W        W80577  16.820  28.250  11.218
 8995W        W80578  44.873  17.272  13.843
 8996W        W80579   1.425  42.304  14.033
 8997W        W80580  14.717  34.861  12.451
 8998W        W80581  40.333  14.041  10.754
 8999W        W80582  24.271  20.734   3.250
 9000W        W80583  16.570  41.350  10.691
 9001W        W80584   7.111  38.495  13.488
 9002W        W80585  42.020  31.145  14.393
 9003W        W80586  13.915  18.224  14.892
 9004W        W80587  10.810  25.457  12.050
 9005W        W80588  22.676  38.797   2.081
 9006W        W80589   1.586  11.660   0.564
 9007W        W80590  31.422  11.619   4.051
 9008W        W80591  21.978   9.222   5.423
 9009W        W80592   5.461  35.522   3.384
 9010W        W80593  26.084  34.070   3.794
 9011W        W80594  40.453  22.524  11.241
 9012W        W80595   4.155   6.766   1.370
 9013W        W80596  44.569   8.619   3.796
 9014W        W80597  30.042   5.895   4.151
 9015W        W80598  23.999  24.130  11.961
 9016W        W80599   5.876  16.988   1.466
 9017W        W80600  30.846   1.919   2.629
 9018W        W80601  20.371   9.860   3.663
 9019W        W80602  35.235   7.995   3.395
 9020W        W80603  23.721   8.066  12.517
 9021W        W80604  23.692  18.459   0.308
 9022W        W80605  10.141   2.225  14.368
 9023W        W80606  19.297  16.462  12.009
 9024W        W80607  32.706  30.362  13.974
 9025W        W80608  27.556   9.579  13.057
 9026W        W80609  24.255   0.697   1.425
 9027W        W80610   8.940  36.785   0.227
 9028W        W80611  44.335   1.396  14.843
 9029W        W80612  19.126  29.980  12.707
 9030W        W80613  17.518   9.562   2.404
 9031W        W80614   5.937   4.451   2.423
 9032W        W80615  13.075  27.714  12.397
 9033W        W80616  39.120  26.578  10.255
 9034W        W80617  14.861  25.511  11.548
 9035W        W80618  36.926  18.635   2.830
 9036W        W80619  24.131  37.961   1.849
 9037W        W80620  42.765   7.216   2.352
 9038W        W80621   4.647   5.077   4.859
 9039W        W80622  25.924  14.260  11.908
 9040W        W80623  34.329  39.308   1.524
 9041W        W80624   5.271  14.446  11.302
 9042W        W80625  16.144  10.224   4.490
 9043W        W80626  28.663  27.620  13.355
 9044W        W80627  16.007  41.634  12.042
 9045W        W80628   0.954  12.224  11.115
 9046W        W80629  14.824   4.431   3.681
 9047W        W80630  12.859  23.014   1.317
 9048W        W80631   6.914  33.705   4.453
 9049W        W80632   7.262   6.229   4.574
 9050W        W80633  15.777  10.433  12.725
 9051W        W80634  38.908  16.047  11.153
 9052W        W80635  25.432  39.956   0.886
 9053W        W80636   8.230  17.829   3.243
 9054W        W80637  13.771   0.018   0.840
 9055W        W80638  26.451  38.536  11.608
 9056W        W80639  11.243  11.594  11.406
 9057W        W80640   7.783   5.705  13.342
 9058W        W80641  23.440  32.637  13.010
 9059W        W80642  10.124  29.623   3.637
 9060W        W80643   1.877  13.844  13.624
 9061W        W80644  12.140  18.276   2.345
 9062W        W80645  16.531  38.610   4.169
 9063W        W80646  18.883   8.253   1.221
 9064W        W80647  16.999  40.659  11.608
 9065W        W80648   0.846  28.464   1.605
 9066W        W80649  14.751  31.656  14.504
 9067W        W80650  14.900  34.188   2.400
 9068W        W80651  11.374   2.009  14.242
 9069W        W80652   2.335   9.066  12.110
 9070W        W80653  17.511  21.887  14.791
 9071W        W80654  34.651   8.224   3.762
 9072W        W80655  15.898  10.382   2.666
 9073W        W80656  22.858  25.772   2.905
 9074W        W80657  23.379  10.631  11.086
 9075W        W80658   7.764  37.791  11.462
 9076W        W80659  13.094  13.369  10.966
 9077W        W80660   2.520  41.587   0.377
 9078W        W80661  28.953  27.417   1.722
 9079W        W80662  25.827  15.785  10.722
 9080W        W80663  24.219   5.788   2.612
 9081W        W80664  21.635  36.517  11.161
 9082W        W80665   8.206  11.083   4.667
 9083W        W80666  40.762  38.921   2.143
 9084W        W80667  13.688   6.421  12.778
 9085W        W80668  11.238  39.395   4.826
 9086W        W80669  11.724  23.649  11.661
 9087W        W80670  36.623   2.368  10.712
 9088W        W80671   4.455  11.623   1.198
 9089W        W80672  41.521  42.127  13.030
 9090W        W80673  20.306   6.597   3.347
 9091W        W80674   1.522  33.265   1.685
 9092W        W80675  41.543   1.460   0.269
 9093W        W80676  31.983  15.176  11.220
 9094W        W80677  40.546  42.072   4.142
 9095W        W80678  19.122  21.073  11.175
 9096W        W80679  36.100   4.875   3.202
 9097W        W80680  44.215  33.022  13.379
 9098W        W80681  38.946  13.447   3.248
 9099W        W80682  38.915  31.450   2.256
 9100W        W80683  29.882  18.268   4.174
 9101W        W80684  37.827  18.207   5.028
 9102W        W80685  42.315  29.276   1.491
 9103W        W80686  21.172  10.827   2.599
 9104W        W80687  40.130   1.792   1.617
 9105W        W80688  22.717   0.770   0.332
 9106W        W80689  11.724  38.383   1.197
 9107W        W80690  11.061  15.974  13.671
 9108W        W80691   3.354  42.446   4.853
 9109W        W80692   4.364   0.264  13.867
 9110W        W80693  44.527   4.250   1.246
 9111W        W80694  30.364  11.890   1.744
 9112W        W80695  20.827  27.877  12.073
 9113W        W80696  14.262  31.057  14.166
 9114W        W80697   8.916  20.996  14.301
 9115W        W80698  38.108  26.567   2.415
 9116W        W80699  41.455  36.920   3.813
 9117W        W80700  26.644  39.543  11.657
 9118W        W80701  22.513   5.372  12.088
 9119W        W80702   8.897  29.824   1.091
 9120W        W80703  26.692  15.107   4.892
 9121W        W80704  18.585  41.936  13.158
 9122W        W80705   7.154   5.623   3.728
 9123W        W80706  41.542  39.533  12.040
 9124W        W80707  35.131  32.190   0.833
 9125W        W80708   5.985  36.363   3.427
 9126W        W80709  27.375  42.110   1.033
 9127W        W80710  43.028  23.641  14.762
 9128W        W80711  25.572  41.434   0.116
 9129W        W80712  36.475  24.670  13.108
 9130W        W80713   4.096  30.644   3.766
 9131W        W80714  39.539   3.128  12.035
 9132W        W80715  26.894  39.880  13.516
 9133W        W80716  24.059   3.294  10.144
 9134W        W80717  24.733  40.442   3.705
 9135W        W80718   4.518  28.840   1.544
 9136W        W80719  28.656  33.672  12.082
 9137W        W80720  23.971  13.347  12.430
 9138W        W80721   6.660  34.856  11.145
 9139W        W80722   1.292  20.284   4.964
 9140W        W80723  25.873   2.300   3.355
 9141W        W80724   1.364  32.333  14.985
 9142W        W80725  43.308  39.729   2.849
 9143W        W80726   1.602  24.930   1.050
 9144W        W80727   9.455  18.657  14.606
 9145W        W80728  41.432  21.607  10.725
 9146W        W80729   5.255  38.503   3.342
 9147W        W80730  35.500   9.742   4.582
 9148W        W80731  23.742   5.286   4.197
 9149W        W80732   7.945  39.416   0.247
 9150W        W80733  21.041  24.222  11.501
 9151W        W80734  31.629  28.803   3.425
 9152W        W80735  34.596  15.262  10.834
 9153W        W80736  18.531  21.135   2.098
 9154W        W80737  29.469  39.738   2.000
 9155W        W80738  35.836   4.935  13.088
 9156W        W80739  10.669  11.544   1.240
 9157W        W80740  32.346   1.793   0.631
 9158W        W80741   7.902  39.654   2.804
 9159W        W80742  14.266  29.231   4.601
 9160W        W80743  38.225  27.987  11.895
 9161W        W80744  28.993   7.741   0.407
 9162W        W80745  41.373  41.752   2.173
 9163W        W80746  36.963  11.688  14.576
 9164W        W80747   6.126  40.003  11.214
 9165W        W80748  42.736  23.786  11.424
 9166W        W80749  35.347  12.867   3.076
 9167W        W80750  21.710  10.982   4.471
 9168W        W80751  40.486  15.493   4.514
 9169W        W80752   9.240  16.698   3.700
 9170W        W80753   2.399   2.334   4.400
 9171W        W80754  25.836  32.543   3.250
 9172W        W80755   6.953  25.609   4.554
 9173W        W80756   4.331  20.089   2.368
 9174W        W80757   8.322   2.865   0.849
 9175W        W80758  33.927  43.863   4.613
 9176W        W80759  39.118  40.210  10.814
 9177W        W80760   9.470  29.129  11.443
 9178W        W80761  43.639  17.830  12.837
 9179W        W80762  26.451  36.669  13.419
 9180W        W80763   5.508  35.009   2.882
 9181W        W80764  42.231  23.904   3.270
 9182W        W80765  10.270  31.885   4.139
 9183W        W80766  27.176  27.006   0.273
 9184W        W80767  21.637  20.326  11.119
 9185W        W80768  38.857   0.999  12.351
 9186W        W80769  21.468  14.788   1.005
 9187W        W80770   5.261  11.157   4.601
 9188W        W80771  42.724  37.832   0.321
 9189W        W80772  40.268  13.893   2.284
 9190W        W80773  18.361   1.242   2.754
 9191W        W80774  41.821  31.432   3.821
 9192W        W80775   6.453  23.190  11.143
 9193W        W80776   2.744  11.284  10.825
 9194W        W80777  35.279  20.217   3.819
 9195W        W80778  13.282  44.402  12.822
 9196W        W80779  32.689  42.474  11.508
 9197W        W80780  44.717  38.332  12.523
 9198W        W80781  42.012  38.686  12.871
 9199W        W80782  38.446   3.265  12.001
 9200W        W80783  41.021  15.685   0.215
 9201W        W80784  10.670  32.763  10.660
 9202W        W80785  35.079  33.439  14.397
 9203W        W80786  18.797  41.646   4.560
 9204W        W80787  41.308  35.216   0.350
 9205W        W80788  18.910  41.026   0.779
 9206W        W80789  18.071  10.393   0.464
 9207W        W80790  36.224   9.683   2.325
 9208W        W80791  39.563  19.608   1.745
 9209W        W80792  19.639  23.559  13.102
 9210W        W80793  14.872  40.294   4.666
 9211W        W80794  36.905  34.828   3.327
 9212W        W80795  41.496  36.066  12.364
 9213W        W80796  31.658  44.495  11.493
 9214W        W80797  40.839  30.422   0.198
 9215W        W80798   4.451  41.274  12.035
 9216W        W80799  19.033  33.140   1.107
 9217W        W80800  34.620  13.370   2.774
 9218W        W80801  31.931  19.108   1.163
 9219W        W80802   1.930  22.779   4.733
 9220W        W80803  20.501  36.587   3.347
 9221W        W80804  11.564  27.686   1.895
 9222W        W80805  26.546  26.599  14.294
 9223W        W80806   9.227  34.918  14.702
 9224W        W80807  23.176  36.499   2.371
 9225W        W80808  11.881  40.395   0.384
 9226W        W80809   8.852  31.590   0.354
 9227W        W80810  18.036  33.118  13.082
 9228W        W80811  33.093  23.354   4.260
 9229W        W80812  28.512  11.712   1.796
 9230W        W80813   7.140  36.112   1.865
 9231W        W80814  14.701  12.148   3.567
 9232W        W80815  28.451   9.817   2.167
 9233W        W80816  18.931  36.031  13.552
 9234W        W80817  36.482   7.919   0.990
 9235W        W80818  40.998  13.638   3.111
 9236W        W80819  41.979  26.884   0.111
 9237W        W80820  23.899  34.683  12.066
 9238W        W80821  30.484  41.038  12.742
 9239W        W80822  42.434  27.107   1.318
 9240W        W80823  36.061  11.753  12.803
 9241W        W80824  36.905  31.073  10.716
 9242W        W80825  23.799  21.427   2.221
 9243W        W80826  25.220  32.318  10.780
 9244W        W80827  34.893  11.684  11.352
 9245W        W80828  28.566  14.561   0.352
 9246W        W80829  30.988  14.260  11.536
 9247W        W80830  10.432  34.122  12.138
 9248W        W80831   6.097   5.937  11.841
 9249W        W80832  34.090  13.123  10.701
 9250W        W80833   4.072   7.786  13.465
 9251W        W80834   5.569  10.942   0.192
 9252W        W80835  25.082   7.157   4.145
 9253W        W80836   0.884   4.464  13.884
 9254W        W80837  42.998  32.536  14.543
 9255W        W80838  12.957   5.816  14.413
 9256W        W80839  38.962  18.802   3.353
 9257W        W80840  29.679  41.426  10.686
 9258W        W80841  41.612  44.363  10.739
 9259W        W80842  37.714  22.053  10.743
 9260W        W80843  23.953  23.220   0.295
 9261W        W80844  21.727  34.431  12.445
 9262W        W80845  10.960   0.530   1.292
 9263W        W80846  29.635  20.720   1.329
 9264W        W80847   1.357   8.572  10.572
 9265W        W80848   9.094  19.175   2.199
 9266W        W80849   5.586  26.495  13.652
 9267W        W80850  40.060  36.668  14.414
 9268W        W80851  15.293  35.731  14.011
 9269W        W80852   9.764   1.935  14.589
 9270W        W80853   8.903  24.630   2.197
 9271W        W80854   1.753  21.510   3.372
 9272W        W80855  41.821  43.919  10.617
 9273W        W80856  38.713  39.817  12.117
 9274W        W80857  39.831   4.303  11.715
 9275W        W80858  41.493  10.854  10.581
 9276W        W80859   0.785   1.443   4.482
 9277W        W80860  14.636  36.160  10.614
 9278W        W80861  29.203  35.402  13.032
 9279W        W80862  38.441   5.101   2.715
 9280W        W80863  27.969  42.159   5.052
 9281W        W80864   2.263  21.451  12.971
 9282W        W80865  38.823  16.329   1.444
 9283W        W80866  20.789  11.032  10.623
 9284W        W80867  23.190   9.794  14.814
 9285W        W80868  13.445  29.464   4.165
 9286W        W80869  20.296  20.457  13.873
 9287W        W80870  38.153  33.543   3.340
 9288W        W80871  13.237   8.447  10.599
 9289W        W80872   1.542  18.608  11.864
 9290W        W80873  18.283   8.237  14.273
 9291W        W80874  43.084  10.782   0.150
 9292W        W80875  37.086   0.115  14.923
 9293W        W80876  35.367  11.650  11.620
 9294W        W80877  35.726  28.091  11.374
 9295W        W80878  39.394  30.638  11.552
 9296W        W80879   4.175  26.544   1.821
 9297W        W80880  30.947  42.405   4.661
 9298W        W80881   0.479  39.081   4.224
 9299W        W80882  42.442  15.661   3.229
 9300W        W80883   3.644  41.588   2.719
 9301W        W80884  32.413  23.035   4.440
 9302W        W80885   9.172  18.404   3.093
 9303W        W80886  39.218  30.210   4.209
 9304W        W80887  14.143  40.450  14.734
 9305W        W80888  15.548  28.410   2.356
 9306W        W80889  40.766  23.278   2.165
 9307W        W80890  38.622  33.497  13.436
 9308W        W80891  13.744  19.726  13.601
 9309W        W80892  32.533   0.735   1.682
 9310W        W80893  25.600  35.808  13.428
 9311W        W80894  20.643   5.276  14.790
 9312W        W80895   3.122  19.235   0.248
 9313W        W80896   5.797  25.115  13.454
 9314W        W80897  15.692  40.720   2.276
 9315W        W80898  16.866   2.727  11.212
 9316W        W80899  22.030  12.094  12.371
 9317W        W80900   0.215  43.294   2.427
 9318W        W80901   4.638  14.670  14.980
 9319W        W80902  14.571  40.237   0.666
 9320W        W80903   1.342  41.961   3.634
 9321W        W80904  16.528  23.320  13.097
 9322W        W80905  33.845  40.770   1.819
 9323W        W80906  31.490  30.884  11.377
 9324W        W80907  14.623  35.144  13.967
 9325W        W80908  39.850   2.004  14.674
 9326W        W80909  36.424   2.011   4.142
 9327W        W80910  37.882  11.976  13.223
 9328W        W80911  21.714  11.061  11.959
 9329W        W80912  35.110  25.158   3.615
 9330W        W80913   4.463  44.335   1.940
 9331W        W80914  28.895  43.262  13.835
 9332W        W80915  13.593  43.268   2.284
 9333W        W80916  17.099  25.708   1.359
 9334W        W80917  36.415  37.777   0.879
 9335W        W80918  30.916   6.821  10.687
 9336W        W80919   5.167   0.739   4.530
 9337W        W80920  11.994  34.642  11.169
 9338W        W80921   4.680  40.462   3.773
 9339W        W80922   1.009  17.719  12.984
 9340W        W80923  15.049  37.485   2.684
 9341W        W80924  34.544  13.736   2.302
 9342W        W80925  11.884  11.202  11.630
 9343W        W80926  21.095  11.604  12.577
 9344W        W80927  27.902   8.147  12.748
 9345W        W80928  12.255  22.739   3.187
 9346W        W80929  10.833   7.974   0.440
 9347W        W80930  22.195  38.484  10.819
 9348W        W80931  10.634  44.738  12.641
 9349W        W80932  27.703  12.335   2.293
 9350W        W80933  25.212  14.621   1.875
 9351W        W80934  36.840   0.704  12.080
 9352W        W80935  30.302  26.109  13.383
 9353W        W80936  29.157   2.339  11.187
 9354W        W80937   2.461  14.246   5.086
 9355W        W80938  37.454  25.919  12.626
 9356W        W80939   7.860  24.935  12.883
 9357W        W80940  36.359   6.355  12.527
 9358W        W80941  10.224  43.115   4.249
 9359W        W80942   2.727  24.009  11.892
 9360W        W80943  31.630  15.396   2.000
 9361W        W80944  40.271  34.007  13.743
 9362W        W80945  35.870   6.771  14.951
 9363W        W80946  16.742  37.950  12.920
 9364W        W80947   3.671  25.030  14.478
 9365W        W80948  39.916  21.584   4.537
 9366W        W80949  35.277  40.316   0.111
 9367W        W80950   5.335   0.431  13.342
 9368W        W80951  28.816  31.002   1.551
 9369W        W80952  23.880  26.406  13.032
 9370W        W80953   4.759  40.489   0.940
 9371W        W80954  26.714   6.933   2.285
 9372W        W80955  18.675  14.494   0.869
 9373W        W80956  30.496   1.313  11.982
 9374W        W80957  11.975   7.610   1.949
 9375W        W80958  20.082   2.740  13.043
 9376W        W80959  34.675  37.388   3.201
 9377W        W80960  38.989   2.320   0.376
 9378W        W80961  35.712  44.434  11.646
 9379W        W80962  39.303  16.190   2.764
 9380W        W80963  17.511  38.927  10.596
 9381W        W80964  43.103  19.011  13.824
 9382W        W80965  24.683  23.306  11.527
 9383W        W80966  31.145  18.104  11.614
 9384W        W80967   1.927  28.084  14.965
 9385W        W80968  38.522  29.373  13.530
 9386W        W80969  10.764  37.856  12.911
 9387W        W80970  21.734  16.727  11.787
 9388W        W80971   0.733   3.958  13.879
 9389W        W80972  10.899   9.236  14.739
 9390W        W80973   4.703  17.783   2.161
 9391W        W80974  11.590  28.088   9.981
 9392W        W80975  35.507  12.157   3.920
 9393W        W80976  39.559  27.472   2.650
 9394W        W80977  30.414  21.698  12.426
 9395W        W80978  24.391   2.251   1.421
 9396W        W80979  18.152  23.870   2.373
 9397W        W80980  35.190  33.636   5.045
 9398W        W80981   7.467  30.518   2.753
 9399W        W80982  38.850  43.970   1.758
 9400W        W80983  40.335  16.573   0.696
 9401W        W80984  38.541  24.666  14.326
 9402W        W80985  25.929   3.074  13.432
 9403W        W80986  17.536  42.170  11.161
 9404W        W80987   1.777  12.897  11.399
 9405W        W80988  20.654  39.435   2.661
 9406W        W80989  17.570  15.556   1.894
 9407W        W80990   2.308  22.072  12.171
 9408W        W80991  33.300   4.852   1.956
 9409W        W80992  10.140  24.508  13.898
 9410W        W80993   0.501   7.429  10.674
 9411W        W80994  28.392  15.846   3.830
 9412W        W80995  15.270   5.726   3.116
 9413W        W80996  21.609  40.857  11.002
 9414W        W80997   7.790  22.253   4.092
 9415W        W80998  20.239  43.766   4.179
 9416W        W80999  25.768  25.578  10.827
 9417W        W81000   6.850   5.293  13.780
 9418W        W81001  38.357  28.049   3.658
 9419W        W81002  28.936   9.060  14.038
 9420W        W81003  29.437  33.943   4.831
 9421W        W81004  24.472  40.502  13.960
 9422W        W81005   5.974   7.624  11.072
 9423W        W81006  17.570  25.550   1.509
 9424W        W81007  41.275   4.157  12.107
 9425W        W81008  10.397  22.278   2.242
 9426W        W81009  39.401  40.891  13.249
 9427W        W81010  27.388  32.188   1.903
 9428W        W81011  29.391  22.081   0.859
 9429W        W81012  17.864   4.705  12.101
 9430W        W81013  22.480  16.905   1.845
 9431W        W81014  20.542   8.576  11.463
 9432W        W81015  31.654  24.994   4.533
 9433W        W81016  35.088  30.520   2.728
 9434W        W81017  31.929  26.997   3.180
 9435W        W81018  12.991  17.144   1.338
 9436W        W81019  17.730  22.480  11.534
 9437W        W81020   5.605  11.505   0.088
 9438W        W81021  23.627  14.184   4.841
 9439W        W81022  17.001  26.574   0.317
 9440W        W81023  11.484   3.276   1.338
 9441W        W81024  13.399  37.506  14.841
 9442W        W81025   7.750   2.374  11.049
 9443W        W81026  27.801  38.744  13.195
 9444W        W81027  23.298  26.326  10.729
 9445W        W81028   2.878   2.378  12.383
 9446W        W81029  33.354   1.963   1.704
 9447W        W81030  14.039  14.874  10.898
 9448W        W81031  44.845  33.532  14.626
 9449W        W81032  21.652   9.675  14.330
 9450W        W81033  12.405  23.247   4.421
 9451W        W81034  33.870  17.850  13.862
 9452W        W81035  36.121  35.073  11.205
 9453W        W81036   4.034  42.512  12.865
 9454W        W81037  37.937   4.978  13.862
 9455W        W81038  15.834  27.066   2.306
 9456W        W81039   5.761  33.139   1.326
 9457W        W81040  28.215  33.456   4.186
 9458W        W81041  37.585   9.195  11.092
 9459W        W81042  11.958  13.883   3.314
 9460W        W81043  40.911  28.903   3.413
 9461W        W81044  32.125  25.460  13.873
 9462W        W81045  13.240  33.010  14.875
 9463W        W81046  21.727  41.297  12.087
 9464W        W81047  41.850  29.494   3.551
 9465W        W81048   8.352  31.061  14.950
 9466W        W81049  32.948  10.952  10.614
 9467W        W81050   5.985  36.654   4.336
 9468W        W81051  36.853  27.562   3.814
 9469W        W81052  29.977   7.585   4.862
 9470W        W81053  31.531   8.295   4.520
 9471W        W81054  39.712  25.909   3.763
 9472W        W81055  14.577  20.270  12.488
 9473W        W81056  42.011   9.858  14.012
 9474W        W81057   3.709  43.929   1.658
 9475W        W81058  10.880  23.449   3.559
 9476W        W81059  12.562  15.647  12.458
 9477W        W81060  23.941  20.487  11.551
 9478W        W81061   6.766  29.510   1.799
 9479W        W81062  44.382   0.189  11.978
 9480W        W81063   9.907   6.011  12.656
 9481W        W81064  31.966  22.863   0.957
 9482W        W81065   4.879  23.067  13.334
 9483W        W81066   0.093  39.443   0.986
 9484W        W81067   4.111  13.721  14.847
 9485W        W81068  14.952  16.732   2.253
 9486W        W81069  32.551  22.810   3.593
 9487W        W81070  14.342  33.008  14.545
 9488W        W81071  14.106  13.451  11.156
 9489W        W81072  28.471  43.916  11.581
 9490W        W81073  31.042  32.486   1.594
 9491W        W81074  13.300  11.513   4.035
 9492W        W81075  15.456   8.710  13.329
 9493W        W81076  23.590  38.335  13.880
 9494W        W81077   8.153  15.657  13.554
 9495W        W81078  14.019  18.738  12.819
 9496W        W81079  33.825  44.065  10.651
 9497W        W81080  23.796  42.689  12.411
 9498W        W81081  11.739  23.636   0.403
 9499W        W81082  12.474  37.469   0.843
 9500W        W81083  38.344  31.799   3.760
 9501W        W81084  42.719  31.058  12.862
 9502W        W81085   8.913  36.890  10.629
 9503W        W81086  27.050   5.486   0.553
 9504W        W81087  36.575  41.826   4.212
 9505W        W81088  15.273  38.053  10.977
 9506W        W81089  21.776  42.195   3.840
 9507W        W81090   1.821  12.790   1.833
 9508W        W81091  42.764  35.118   4.151
 9509W        W81092   1.957  14.804  13.820
 9510W        W81093  41.113  17.712  12.974
 9511W        W81094  18.992  34.164  13.167
 9512W        W81095  16.016  32.602  14.745
 9513W        W81096  17.098  17.584   4.216
 9514W        W81097  36.576  27.574   1.511
 9515W        W81098   3.051  11.617  12.551
 9516W        W81099  31.125  28.793  10.731
 9517W        W81100  22.608  38.390  12.664
 9518W        W81101  40.995  33.454  10.734
 9519W        W81102  42.443   8.866   3.125
 9520W        W81103  42.799  26.549  13.865
 9521W        W81104  36.392  37.554   1.753
 9522W        W81105  37.352  39.465   0.756
 9523W        W81106   4.754   6.847   0.732
 9524W        W81107   8.809  43.735  10.984
 9525W        W81108  41.020  14.073   2.812
 9526W        W81109  30.181   5.455  10.470
 9527W        W81110  16.883  41.551   1.434
 9528W        W81111  37.866  11.282   3.245
 9529W        W81112  32.071  11.509  14.007
 9530W        W81113  11.092  27.136   3.706
 9531W        W81114  31.643  44.174  11.039
 9532W        W81115  32.866  23.071   2.018
 9533W        W81116  25.981  27.508   0.923
 9534W        W81117   7.223   2.386  14.918
 9535W        W81118  29.661  20.018   5.352
 9536W        W81119  13.328  32.489  12.074
 9537W        W81120   1.581  44.469  11.233
 9538W        W81121  24.083   4.342   2.313
 9539W        W81122  29.230  12.156   2.236
 9540W        W81123  27.243  18.743   0.364
 9541W        W81124  33.848  44.647   2.197
 9542W        W81125  26.188  24.733   2.798
 9543W        W81126  12.653  33.912  11.458
 9544W        W81127  16.219  26.216  11.436
 9545W        W81128  38.428  32.629  12.128
 9546W        W81129  34.934  14.747  11.041
 9547W        W81130  27.171  36.088  10.946
 9548W        W81131  38.752  24.460   3.261
 9549W        W81132  13.891  12.157  10.988
 9550W        W81133  41.127  14.535   3.152
 9551W        W81134  19.229  18.649   1.380
 9552W        W81135  21.656  10.504   2.700
 9553W        W81136  28.091  25.299   0.325
 9554W        W81137   3.459  23.720  12.547
 9555W        W81138  20.600  35.466  13.748
 9556W        W81139  10.303  12.689  13.354
 9557W        W81140  10.212  41.843   3.467
 9558W        W81141  28.116   0.410  14.347
 9559W        W81142  37.871   8.925  12.426
 9560W        W81143  42.784  22.227  12.609
 9561W        W81144  16.338   0.122   3.648
 9562W        W81145   5.366  40.985   1.226
 9563W        W81146  18.031  17.703  13.764
 9564W        W81147  32.017  13.278   1.580
 9565W        W81148   0.958   6.763   2.465
 9566W        W81149  13.179  27.216  11.508
 9567W        W81150   7.882  40.493  11.319
 9568W        W81151  33.967  13.019  13.472
 9569W        W81152   0.343   5.281   4.540
 9570W        W81153   7.823  25.757   3.248
 9571W        W81154  34.823  10.240   5.120
 9572W        W81155  25.000  20.653   0.634
 9573W        W81156  31.731  44.054  13.853
 9574W        W81157  24.177  35.531  12.287
 9575W        W81158   1.481   5.106  13.564
 9576W        W81159  16.297  41.216   1.786
 9577W        W81160   2.962  23.006  12.357
 9578W        W81161  14.241  21.480  13.491
 9579W        W81162  27.489   3.933   3.863
 9580W        W81163  25.328  33.801   3.208
 9581W        W81164   2.669  41.100  14.936
 9582W        W81165  38.235  14.324   2.400
 9583W        W81166  18.805  37.128  11.187
 9584W        W81167  37.452  10.618   4.460
 9585W        W81168   0.046   9.003   0.182
 9586W        W81169   2.832  35.126   1.871
 9587W        W81170  17.029  35.069   3.663
 9588W        W81171  39.830  18.762  11.132
 9589W        W81172  35.545  39.859  13.531
 9590W        W81173  39.919   3.143   0.288
 9591W        W81174  12.178  10.620   2.885
 9592W        W81175  28.645   5.342   4.554
 9593W        W81176   3.234   7.246  13.885
 9594W        W81177  10.150  35.449   4.633
 9595W        W81178  34.414  14.668   3.154
 9596W        W81179  17.617   7.387  13.518
 9597W        W81180  43.566  16.743   3.499
 9598W        W81181  28.017  34.940  13.396
 9599W        W81182  25.084  23.696   2.793
 9600W        W81183  23.573   7.681  12.850
 9601W        W81184   2.620  22.295  13.850
 9602W        W81185  29.697  40.851   2.116
 9603W        W81186  27.018  12.329  11.581
 9604W        W81187  44.918  17.993  12.494
 9605W        W81188   4.883  21.965   4.553
 9606W        W81189  39.073  37.546  12.051
 9607W        W81190  25.660   7.436   5.044
 9608W        W81191  15.682  35.058  14.470
 9609W        W81192  28.778   9.332   3.297
 9610W        W81193  43.479   6.982   4.580
 9611W        W81194  44.347  17.678  14.021
 9612W        W81195   9.948   9.750  14.754
 9613W        W81196  36.100  25.715  14.933
 9614W        W81197   7.804   9.130   3.634
 9615W        W81198  41.006  44.082   1.125
 9616W        W81199   6.888  24.657   2.983
 9617W        W81200   4.701   3.409   1.732
 9618W        W81201  34.365  31.534   4.110
 9619W        W81202   9.453  37.657   3.174
 9620W        W81203  29.199  31.093  13.295
 9621W        W81204  24.619  25.600   0.482
 9622W        W81205  23.002  24.498  14.307
 9623W        W81206  37.112   6.592  10.489
 9624W        W81207  30.900   6.003   4.549
 9625W        W81208  22.569   0.426   1.289
 9626W        W81209  24.420  34.455  10.770
 9627W        W81210  34.949  24.232  13.935
 9628W        W81211  41.790  21.613   1.361
 9629W        W81212  24.671   5.315  10.877
 9630W        W81213  27.936  13.847   1.251
 9631W        W81214  37.346  10.811   1.418
 9632W        W81215  26.375  25.294  12.977
 9633W        W81216  42.804   7.140  11.136
 9634W        W81217  12.671   5.698  13.534
 9635W        W81218   2.104  42.540   1.445
 9636W        W81219   3.978   9.448  12.890
 9637W        W81220   2.036  35.979  14.921
 9638W        W81221  44.525  31.095   4.855
 9639W        W81222  22.293   8.336   0.287
 9640W        W81223  41.800  11.322  12.526
 9641W        W81224  26.588  20.792  14.408
 9642W        W81225  44.556  11.546   3.652
 9643W        W81226  13.862  14.415  11.142
 9644W        W81227  32.281  28.151  12.475
 9645W        W81228  22.698   2.302   4.605
 9646W        W81229  25.440  11.311   1.838
 9647W        W81230  21.836   0.349  12.396
 9648W        W81231  13.179  43.383   4.718
 9649W        W81232  21.245  39.806  13.360
 9650W        W81233  20.199  16.891  14.951
 9651W        W81234  43.829  33.555  10.030
 9652W        W81235  38.939  15.872   1.164
 9653W        W81236  15.714  37.154   1.304
 9654W        W81237  19.283  11.176  12.579
 9655W        W81238  33.669  11.259  13.582
 9656W        W81239   3.380   6.369  14.327
 9657W        W81240  30.839  15.290   4.196
 9658W        W81241  31.491  26.101  10.723
 9659W        W81242  24.685  35.967   3.687
 9660W        W81243  30.345  38.395   2.863
 9661W        W81244  27.296  32.115   0.718
 9662W        W81245   4.841   8.713  10.825
 9663W        W81246  17.817  38.525   2.424
 9664W        W81247  25.491  34.299   3.125
 9665W        W81248  31.517  26.139   3.397
 9666W        W81249  17.798   1.203  13.544
 9667W        W81250  31.656   9.123   3.341
 9668W        W81251   0.465  42.914   3.165
 9669W        W81252  28.512  40.473   1.700
 9670W        W81253  20.746  32.589   1.368
 9671W        W81254  29.598  26.989  14.180
 9672W        W81255   6.642  41.826  14.629
 9673W        W81256  34.906  40.367  10.390
 9674W        W81257  29.898  15.094   1.873
 9675W        W81258  22.553  40.307  12.962
 9676W        W81259   8.049  35.521   2.734
 9677W        W81260  38.753   9.830   4.444
 9678W        W81261  16.787   1.988   4.545
 9679W        W81262  34.183  42.370   3.741
 9680W        W81263  42.321  12.133   0.555
 9681W        W81264   6.943   5.673  12.092
 9682W        W81265  27.183  17.804  12.681
 9683W        W81266  14.547   7.313  11.180
 9684W        W81267  36.532   3.939   4.194
 9685W        W81268  30.416  15.060   4.390
 9686W        W81269  27.100   1.032   0.487
 9687W        W81270  44.964   4.338   3.994
 9688W        W81271  26.499  23.000   0.884
 9689W        W81272  35.839  44.496  13.026
 9690W        W81273  27.905  26.749   2.396
 9691W        W81274   9.454  24.268  14.573
 9692W        W81275  38.069  31.563   4.148
 9693W        W81276  11.559  42.930  14.929
 9694W        W81277  10.665  35.211  13.365
 9695W        W81278  21.646  44.283  11.099
 9696W        W81279  11.122  32.476   2.258
 9697W        W81280   0.004   0.891  11.509
 9698W        W81281  17.651   3.292  14.640
 9699W        W81282   0.954  24.557  13.909
 9700W        W81283  23.968  42.039   3.666
 9701W        W81284   4.827  28.477   4.632
 9702W        W81285   2.272  11.192   0.277
 9703W        W81286  43.546  11.064   0.865
 9704W        W81287  40.929  12.274   2.947
 9705W        W81288  23.594  34.481   0.810
 9706W        W81289  34.534  10.386   0.345
 9707W        W81290  21.069  13.335   0.384
 9708W        W81291  27.535   3.236   3.226
 9709W        W81292  12.824   4.729  10.900
 9710W        W81293  40.309  44.866   4.974
 9711W        W81294   8.383  11.202   4.193
 9712W        W81295  13.691  25.134   4.616
 9713W        W81296  28.462  16.522  12.278
 9714W        W81297  11.873  40.031   0.815
 9715W        W81298  39.999  18.249  11.976
 9716W        W81299  34.547  10.449   0.882
 9717W        W81300  20.704  40.820   4.635
 9718W        W81301  17.307  21.525  11.555
 9719W        W81302  26.142  33.693   0.860
 9720W        W81303  11.029  13.490   3.351
 9721W        W81304  38.387  24.709   3.799
 9722W        W81305  14.350   0.950   1.899
 9723W        W81306   4.753  18.783  12.190
 9724W        W81307   6.248  23.745  12.509
 9725W        W81308   4.461  25.206   1.644
 9726W        W81309  16.138  25.353  14.319
 9727W        W81310  23.424   6.763   0.379
 9728W        W81311  14.415  23.597   1.949
 9729W        W81312  26.893  12.160  12.041
 9730W        W81313  24.218  39.772   1.411
 9731W        W81314  21.777   9.280  10.000
 9732W        W81315  28.974  19.961  11.216
 9733W        W81316  17.153  42.044  14.373
 9734W        W81317   4.386  32.841  12.977
 9735W        W81318  32.574  41.072  12.397
 9736W        W81319  32.411   1.348   0.906
 9737W        W81320  37.982  29.576  10.962
 9738W        W81321  44.232   0.429  14.308
 9739W        W81322  33.858  35.112  11.121
 9740W        W81323  43.394  30.481   3.377
 9741W        W81324  25.478  44.861   3.763
 9742W        W81325   7.421  10.600   4.215
 9743W        W81326  30.830  11.039  12.422
 9744W        W81327  39.402  20.083   1.278
 9745W        W81328  43.791  18.756  14.203
 9746W        W81329   2.778  10.082  10.825
 9747W        W81330  26.422   0.497   0.818
 9748W        W81331   9.243  13.945  12.089
 9749W        W81332   1.758  10.860   3.661
 9750W        W81333  25.766  23.983  11.550
 9751W        W81334  24.422  10.555   9.709
 9752W        W81335  10.119  15.720   9.927
 9753W        W81336  13.794  19.941   1.803
 9754W        W81337   5.379  17.749   1.798
 9755W        W81338  40.675   0.895  10.775
 9756W        W81339  19.549  36.633  11.150
 9757W        W81340   2.366  21.996  10.430
 9758W        W81341  42.433   0.561   0.656
 9759W        W81342  25.050  23.599   1.865
 9760W        W81343  26.402  41.248  10.471
 9761W        W81344  41.566  27.718  12.117
 9762W        W81345   7.165   1.303   0.407
 9763W        W81346  25.661   2.776  14.424
 9764W        W81347  40.463  41.336   4.620
 9765W        W81348  33.377  28.959   1.816
 9766W        W81349  19.644  42.856   1.856
 9767W        W81350   9.753   2.404  13.403
 9768W        W81351  12.144   6.437  13.336
 9769W        W81352   4.579  13.953  12.098
 9770W        W81353   4.145   1.709  12.562
 9771W        W81354  37.935   8.237  12.850
 9772W        W81355  31.457  35.528  12.924
 9773W        W81356  37.469  16.738  13.521
 9774W        W81357  17.180  27.897  11.430
 9775W        W81358  19.888   0.877  13.146
 9776W        W81359  19.235  38.587   3.099
 9777W        W81360   9.588  20.088   3.640
 9778W        W81361   2.042  44.761   0.349
 9779W        W81362  23.274   3.967  14.394
 9780W        W81363   9.158  21.045  14.759
 9781W        W81364  26.697  38.173  13.421
 9782W        W81365   8.530  42.888   2.322
 9783W        W81366  28.360   5.937   4.138
 9784W        W81367  33.303  17.032   3.694
 9785W        W81368   2.779  35.610  10.593
 9786W        W81369  35.935  25.037  13.093
 9787W        W81370  38.952   8.516  11.064
 9788W        W81371   7.222   9.923  13.121
 9789W        W81372   1.519  40.296  14.843
 9790W        W81373   2.369  25.321  14.987
 9791W        W81374  43.347  39.529  11.845
 9792W        W81375  40.082  32.100  12.394
 9793W        W81376  22.553  24.605   2.549
 9794W        W81377  13.875  15.305   3.111
 9795W        W81378  38.428  16.237   2.202
 9796W        W81379  21.730  22.524  12.575
 9797W        W81380  24.975  37.522  13.854
 9798W        W81381  25.786  24.881  11.675
 9799W        W81382   4.126   9.184  11.129
 9800W        W81383  34.109  39.952   2.109
 9801W        W81384  44.440  15.687   2.202
 9802W        W81385  15.705  20.756   4.236
 9803W        W81386   2.751   7.765   3.229
 9804W        W81387  39.803  18.353  12.807
 9805W        W81388  41.139  23.600  12.424
 9806W        W81389   4.969  13.642   2.256
 9807W        W81390  25.609   7.344  13.056
 9808W        W81391  31.282   6.818   2.242
 9809W        W81392  14.510  17.208   3.763
 9810W        W81393  28.105  33.631  14.637
 9811W        W81394  19.637   4.515  10.860
 9812W        W81395  22.855  20.304  14.758
 9813W        W81396  31.633  39.222  14.597
 9814W        W81397  32.662  42.991   2.748
 9815W        W81398  13.682  36.151   4.537
 9816W        W81399   4.694  43.463  12.673
 9817W        W81400  30.764  16.214   2.766
 9818W        W81401   3.229  40.819   3.769
 9819W        W81402  42.852  37.054   4.057
 9820W        W81403  25.225  35.978   4.531
 9821W        W81404  10.673  22.357   4.329
 9822W        W81405  43.463  20.669  11.015
 9823W        W81406   3.471  17.157  13.700
 9824W        W81407  30.980  10.727   0.455
 9825W        W81408  33.130   8.407   3.611
 9826W        W81409  38.487  18.226  11.408
 9827W        W81410   8.133  14.891   0.786
 9828W        W81411   6.869  20.872  12.462
 9829W        W81412  35.457   1.292  14.416
 9830W        W81413  14.688  15.653  11.228
 9831W        W81414  40.951  40.070  13.931
 9832W        W81415  37.831  39.838  14.325
 9833W        W81416  21.198  43.359   1.131
 9834W        W81417   6.225  39.433  11.916
 9835W        W81418  28.575   0.044  12.911
 9836W        W81419  15.614  40.354  11.547
 9837W        W81420  40.433   1.483  11.592
 9838W        W81421   5.988  39.052  12.200
 9839W        W81422  27.195  25.991  14.436
 9840W        W81423  25.869  30.883  13.012
 9841W        W81424  27.039   3.401   3.081
 9842W        W81425  28.923  23.270  14.787
 9843W        W81426  15.873  13.194   4.207
 9844W        W81427  19.047  42.709  12.998
 9845W        W81428  11.062   8.193  13.526
 9846W        W81429   4.690  16.741   4.191
 9847W        W81430  43.474  13.122  14.454
 9848W        W81431  21.672  27.719   3.311
 9849W        W81432  44.189  30.472   9.887
 9850W        W81433  32.586  44.205  12.646
 9851W        W81434  38.964   8.850   2.676
 9852W        W81435   9.653  12.614  10.549
 9853W        W81436  27.181  43.373  14.537
 9854W        W81437  16.788  31.417   2.277
 9855W        W81438  37.083  17.092   1.328
 9856W        W81439  12.276   3.131   4.392
 9857W        W81440   1.353  25.703   3.384
 9858W        W81441  17.775  21.620   1.597
 9859W        W81442  12.069   0.120   2.222
 9860W        W81443  13.601  23.768   0.224
 9861W        W81444  22.146  20.506   1.766
 9862W        W81445   9.999   1.400  11.379
 9863W        W81446  30.536  41.121  10.855
 9864W        W81447  20.508  22.011   3.323
 9865W        W81448  10.105   9.174  13.003
 9866W        W81449  20.134  16.258  10.341
 9867W        W81450  34.440  37.182   0.723
 9868W        W81451  25.039   4.454  12.368
 9869W        W81452  35.611  39.313   2.838
 9870W        W81453   2.461   0.495  14.909
 9871W        W81454  39.575  31.479  14.940
 9872W        W81455  44.905  14.067   2.358
 9873W        W81456  25.995  23.001   1.563
 9874W        W81457  23.857  25.965   2.731
 9875W        W81458  25.117  27.077   0.869
 9876W        W81459  37.069   7.915  11.037
 9877W        W81460  10.637  19.074  13.778
 9878W        W81461  33.871  14.674   0.881
 9879W        W81462  11.221  38.520   2.704
 9880W        W81463  41.920  39.082  13.914
 9881W        W81464  22.675  20.542   1.908
 9882W        W81465   0.177  38.936   4.677
 9883W        W81466  21.500   4.352   0.640
 9884W        W81467   4.420  22.757  13.814
 9885W        W81468  19.304  25.236   5.389
 9886W        W81469   2.482  31.659  12.040
 9887W        W81470   6.218   7.720   0.996
 9888W        W81471  29.769   1.346   1.979
 9889W        W81472  20.634  27.645   3.153
 9890W        W81473   7.154  26.621  14.388
 9891W        W81474   6.800  37.090  11.577
 9892W        W81475   3.878  19.051  11.845
 9893W        W81476  33.950   8.192  12.962
 9894W        W81477  27.977   5.780  11.122
 9895W        W81478  24.581   7.195  11.674
 9896W        W81479  38.026   5.942   2.882
 9897W        W81480  18.214  23.760  10.257
 9898W        W81481  14.081  30.378   1.792
 9899W        W81482  40.144  20.947   4.500
 9900W        W81483  10.182   7.161  11.947
 9901W        W81484  10.291  25.643  12.133
 9902W        W81485  19.363  44.492  14.051
 9903W        W81486   3.507   4.268  10.955
 9904W        W81487  44.763  28.505   1.229
 9905W        W81488  30.639  31.446  10.659
 9906W        W81489   5.358  17.218   3.205
 9907W        W81490   9.446  24.721  11.349
 9908W        W81491  20.760   1.558   3.277
 9909W        W81492  38.059  15.638   2.704
 9910W        W81493  35.963  26.262   4.776
 9911W        W81494  19.713  32.101  11.617
 9912W        W81495  44.072  11.353   3.610
 9913W        W81496  44.115  20.757  11.254
 9914W        W81497  24.498  43.058   3.690
 9915W        W81498  32.702  10.768   3.353
 9916W        W81499  36.633  25.567  13.045
 9917W        W81500  23.988  18.320  14.485
 9918W        W81501  29.088  13.100  13.303
 9919W        W81502   6.420  33.835   3.781
 9920W        W81503   2.461  15.156   1.411
 9921W        W81504  38.464  13.048   2.781
 9922W        W81505  30.423  34.383  11.985
 9923W        W81506  12.300  31.185   2.695
 9924W        W81507  22.757   4.973  12.675
 9925W        W81508  26.250  26.969   0.099
 9926W        W81509  40.631  36.241  13.537
 9927W        W81510  36.633  25.014   0.472
 9928W        W81511  19.041  43.837   4.965
 9929W        W81512  26.542  20.200   4.677
 9930W        W81513  25.692  41.031  12.062
 9931W        W81514   5.437   6.400   2.675
 9932W        W81515  41.913  22.208  14.937
 9933W        W81516  37.151   4.594  13.456
 9934W        W81517  18.312   9.388  10.935
 9935W        W81518   1.277  10.082  10.385
 9936W        W81519  21.419  11.821   2.789
 9937W        W81520  20.710  41.255  14.971
 9938W        W81521   9.433  36.566  11.787
 9939W        W81522  14.030  19.651   0.980
 9940W        W81523  29.573  44.574  14.510
 9941W        W81524  33.066   1.982  12.439
 9942W        W81525   3.116   9.647  11.948
 9943W        W81526   4.828  14.575  12.437
 9944W        W81527  12.722   3.428   3.836
 9945W        W81528  40.391  12.191   0.272
 9946W        W81529  33.942  40.869   3.274
 9947W        W81530  31.535  38.261   2.208
 9948W        W81531  23.310  13.784   3.204
 9949W        W81532  18.292   3.342  12.768
 9950W        W81533  15.263  43.399   4.599
 9951W        W81534  10.761  11.900   4.122
 9952W        W81535  11.766   9.348   2.713
 9953W        W81536  37.991  20.314   4.344
 9954W        W81537   0.773  13.124  14.819
 9955W        W81538   8.101  28.576   4.583
 9956W        W81539   4.881   0.281   4.502
 9957W        W81540  24.402  17.890   2.304
 9958W        W81541  31.346  43.080   0.443
 9959W        W81542   2.281   5.267  10.477
 9960W        W81543  21.734  42.829  11.630
 9961W        W81544  31.351   6.945  12.926
 9962W        W81545   8.702  21.471   4.132
 9963W        W81546  34.769  15.587   4.523
 9964W        W81547  34.846  29.538  10.706
 9965W        W81548  13.409  16.931  12.080
 9966W        W81549  32.599   8.672   4.161
 9967W        W81550  22.584  10.238   2.243
 9968W        W81551  36.274  34.122  10.703
 9969W        W81552  34.683   1.969  11.198
 9970W        W81553  10.375  23.231  12.617
 9971W        W81554  37.615  36.584  12.341
 9972W        W81555  33.541  18.521   4.556
 9973W        W81556  44.628  34.340  11.561
 9974W        W81557   8.373  12.094   0.931
 9975W        W81558   3.783  34.640   2.356
 9976W        W81559  29.151  16.190  14.299
 9977W        W81560   7.847  38.652  11.298
 9978W        W81561  10.380  34.092   0.839
 9979W        W81562  35.352  36.395   2.816
 9980W        W81563  39.720  41.383   3.310
 9981W        W81564  36.915  33.496   0.059
 9982W        W81565   2.817   4.438   2.934
 9983W        W81566  17.646  42.643   2.722
 9984W        W81567  27.183  32.521   5.053
 9985W        W81568   5.340   5.183   0.790
 9986W        W81569   6.481  10.412  13.465
 9987W        W81570  34.575  24.256  12.377
 9988W        W81571   3.719  36.540   4.997
 9989W        W81572  41.806  22.227  14.030
 9990W        W81573   5.862  35.154   4.435
 9991W        W81574  30.933   1.062  13.380
 9992W        W81575  42.322  11.114  14.405
 9993W        W81576  19.964   1.804   3.715
 9994W        W81577  10.143  20.789  13.487
 9995W        W81578  35.835  33.925  14.421
 9996W        W81579  41.784   9.375  10.997
 9997W        W81580   3.923  32.250  11.969
 9998W        W81581  30.645  16.454   2.303
 9999W        W81582  39.920  32.613  13.504
10000W        W81583  20.185  18.728  11.720
10001W        W81584  42.776  14.137   3.224
10002W        W81585   0.535  35.687   4.131
10003W        W81586  22.588   1.738  14.290
10004W        W81587  35.088   1.837   2.308
10005W        W81588  30.548  37.303   0.358
10006W        W81589   6.353  21.108  14.578
10007W        W81590  10.838  19.680  11.652
10008W        W81591   4.978  39.578   1.637
10009W        W81592  27.963   3.116   4.670
10010W        W81593  28.886  35.107  11.756
10011W        W81594  40.047  31.380   4.196
10012W        W81595  17.655  31.069  10.354
10013W        W81596  10.837  25.679  11.573
10014W        W81597  15.612  38.440  14.913
10015W        W81598  35.349   4.878   3.696
10016W        W81599  15.505  23.373   1.066
10017W        W81600   0.852  40.300   1.207
10018W        W81601  29.684  10.010   2.635
10019W        W81602  40.471  29.201  11.040
10020W        W81603  24.514  30.060   4.093
10021W        W81604  34.122   0.816  14.719
10022W        W81605   9.329  26.165  11.551
10023W        W81606  27.653  24.636   3.767
10024W        W81607  41.873  21.695   2.995
10025W        W81608  17.407  36.035   4.828
10026W        W81609  29.732  18.633   3.114
10027W        W81610   3.145  22.746  11.137
10028W        W81611  39.082  39.958   3.196
10029W        W81612  15.576  39.431  12.505
10030W        W81613   5.445  26.638   4.647
10031W        W81614  29.325  32.045   1.315
10032W        W81615  33.047   4.998  13.404
10033W        W81616  16.731  27.823   2.632
10034W        W81617  31.409  23.229  10.420
10035W        W81618  11.734  28.277   3.268
10036W        W81619  35.426  42.065   4.219
10037W        W81620  41.498  25.129  14.778
10038W        W81621   7.707  39.161  11.268
10039W        W81622   6.360   6.996   0.520
10040W        W81623  28.403  42.046  14.626
10041W        W81624   2.739  31.006  10.663
10042W        W81625  23.764  10.209  14.444
10043W        W81626  31.005  23.950   2.240
10044W        W81627  42.724  22.687  11.261
10045W        W81628   6.801  41.505  12.531
10046W        W81629  30.681   6.402   2.790
10047W        W81630  17.511   8.193  11.622
10048W        W81631  26.766  12.031  14.249
10049W        W81632  32.885   2.079   1.961
10050W        W81633  12.840  22.103  12.867
10051W        W81634  12.737   1.014   3.712
10052W        W81635  24.670  26.479  10.581
10053W        W81636  19.505  22.082   3.061
10054W        W81637   5.286  24.981  13.499
10055W        W81638  25.719  38.486  10.682
10056W        W81639  28.099  36.995   0.383
10057W        W81640  12.348   3.617   4.188
10058W        W81641  17.898  19.826   3.263
10059W        W81642  15.052  43.100  14.974
10060W        W81643  19.313  11.211   1.771
10061W        W81644  26.559  13.226  11.596
10062W        W81645  34.654  44.845  13.232
10063W        W81646   4.475  11.635   5.210
10064W        W81647  26.686  28.482   2.887
10065W        W81648  24.208  44.615   0.229
10066W        W81649   8.432  18.579  14.569
10067W        W81650   6.375  37.816   2.694
10068W        W81651  24.253  19.623  13.319
10069W        W81652  14.740  16.397   0.239
10070W        W81653  37.831  26.710  13.779
10071W        W81654  32.364  16.692  11.846
10072W        W81655   4.319  31.931  10.988
10073W        W81656   7.952   0.883  12.803
10074W        W81657  13.993   0.438  11.148
10075W        W81658  30.535  19.080  11.077
10076W        W81659  15.283   3.294   3.425
10077W        W81660  20.569  12.153   3.874
10078W        W81661  26.022  18.647  13.926
10079W        W81662  44.802  19.857  11.963
10080W        W81663  20.641  18.765   2.164
10081W        W81664  10.133  34.882   3.106
10082W        W81665  43.730   5.664  13.459
10083W        W81666  43.414  43.564  13.514
10084W        W81667  32.786   9.881   4.330
10085W        W81668  19.084  16.195   4.723
10086W        W81669  10.250  23.773  10.688
10087W        W81670  23.733  27.704   4.605
10088W        W81671  27.697  44.210  13.771
10089W        W81672   2.125  34.436   1.246
10090W        W81673  26.474   4.433   3.351
10091W        W81674  36.811  27.964  12.122
10092W        W81675   7.654  14.141  10.679
10093W        W81676  27.679  38.576  14.392
10094W        W81677   0.503  31.512   3.377
10095W        W81678  33.785  23.018   1.870
10096W        W81679   0.519   4.302  12.412
10097W        W81680  29.442   8.482  12.483
10098W        W81681  20.708  12.513   3.526
10099W        W81682  23.951  18.087   2.040
10100W        W81683  37.113  31.890  14.813
10101W        W81684   5.586  30.693   1.983
10102W        W81685  33.992  32.486  14.389
10103W        W81686   2.835   1.803   1.635
10104W        W81687  17.364  33.268   2.234
10105W        W81688  11.589  24.588   3.196
10106W        W81689  15.642  19.869   1.539
10107W        W81690  10.767  13.909   0.994
10108W        W81691   8.054   6.583  14.445
10109W        W81692   3.644  26.256   2.323
10110W        W81693  19.437   5.288   0.081
10111W        W81694  40.796  33.003   2.807
10112W        W81695  19.882  24.074   1.770
10113W        W81696  25.778  18.642  11.189
10114W        W81697  23.531   9.285  11.730
10115W        W81698  35.026  28.495  13.086
10116W        W81699  37.289   9.486   3.939
10117W        W81700   7.852  27.733  11.605
10118W        W81701  29.151  29.526  11.210
10119W        W81702   1.823   0.874  11.255
10120W        W81703  10.364  38.451  10.054
10121W        W81704  24.625  15.228  13.851
10122W        W81705  23.676  42.493  14.471
10123W        W81706   8.115   2.316  14.285
10124W        W81707  12.120  41.443   2.404
10125W        W81708   0.715  43.806  14.470
10126W        W81709  23.213  14.850   4.078
10127W        W81710   9.720  30.055  11.983
10128W        W81711   8.334  21.470  13.759
10129W        W81712  17.373  17.714   3.601
10130W        W81713  22.514  22.182  13.973
10131W        W81714  27.637  32.036   0.312
10132W        W81715  35.787  17.671  12.988
10133W        W81716   5.830   3.519   4.631
10134W        W81717  22.875   5.839  11.235
10135W        W81718  18.010  28.710   1.678
10136W        W81719  31.322  30.882   2.625
10137W        W81720   3.163   9.351   3.584
10138W        W81721   2.815  18.930  11.941
10139W        W81722  28.436  38.298  13.791
10140W        W81723  37.893  24.561   0.936
10141W        W81724  11.231  25.319  11.704
10142W        W81725  37.028   0.348  10.924
10143W        W81726   7.418  41.262   4.853
10144W        W81727  31.969  37.549   3.247
10145W        W81728  33.947  11.809   1.435
10146W        W81729  22.857  34.748  14.287
10147W        W81730  17.257  29.131   4.305
10148W        W81731  18.049  37.560  13.513
10149W        W81732  16.323   5.045   2.660
10150W        W81733  18.132   1.311  10.647
10151W        W81734  26.825  19.587   3.986
10152W        W81735  36.829  19.689  13.528
10153W        W81736   9.905  31.030  12.908
10154W        W81737   5.867  17.843  13.518
10155W        W81738  37.981  42.860   2.888
10156W        W81739   8.419  12.664  13.586
10157W        W81740  26.592  44.199   0.205
10158W        W81741   7.162  29.985  12.357
10159W        W81742  31.048  15.759   0.303
10160W        W81743  14.150  37.392   3.081
10161W        W81744  34.909  33.374   0.265
10162W        W81745  31.915  29.129   0.826
10163W        W81746  38.598   2.918   0.864
10164W        W81747   5.123  18.310  13.147
10165W        W81748   5.246  26.597   4.166
10166W        W81749  24.779   4.414  13.906
10167W        W81750   6.840  19.263   1.974
10168W        W81751  32.643   8.640   0.471
10169W        W81752  38.883  36.632  10.427
10170W        W81753  35.594  17.466  11.674
10171W        W81754  14.354  13.612  10.735
10172W        W81755  22.067  27.686  11.688
10173W        W81756  44.545   7.377   3.653
10174W        W81757  27.736   0.327  11.020
10175W        W81758   0.209  23.995  12.008
10176W        W81759  38.448   3.879  12.438
10177W        W81760   5.705   3.416  12.041
10178W        W81761  26.574  12.977   0.195
10179W        W81762  18.561  22.745  12.477
10180W        W81763  27.258  17.730  14.948
10181W        W81764   8.132  12.267   3.792
10182W        W81765  26.602   7.825  11.960
10183W        W81766  27.869  26.722  10.672
10184W        W81767  41.515  41.827   0.857
10185W        W81768  25.585  22.042   3.582
10186W        W81769  31.569  30.505  14.988
10187W        W81770  35.790  19.783  14.801
10188W        W81771  42.323  37.487   3.607
10189W        W81772  29.936  24.461  13.251
10190W        W81773  23.730   0.926  11.619
10191W        W81774  33.958  14.315  13.074
10192W        W81775  30.511  29.406  10.723
10193W        W81776  29.376  16.545   0.014
10194W        W81777  43.476   1.501  14.309
10195W        W81778   2.477   5.214  11.948
10196W        W81779  13.838  32.724   1.703
10197W        W81780  12.917  41.488   3.176
10198W        W81781  18.511   8.692  14.397
10199W        W81782  39.100  27.536  11.990
10200W        W81783   7.874  34.048   0.899
10201W        W81784   9.021  27.494  14.437
10202W        W81785   4.931  23.459   2.257
10203W        W81786  27.972  17.597  11.750
10204W        W81787  43.278   2.679  12.800
10205W        W81788  26.173  36.312   4.879
10206W        W81789  19.355  25.190  11.137
10207W        W81790  23.988  17.875  10.641
10208W        W81791   9.113  35.854   3.632
10209W        W81792  14.904  25.264   2.220
10210W        W81793  24.675  21.187  13.386
10211W        W81794  17.996  15.857   3.305
10212W        W81795  39.316  39.909  12.851
10213W        W81796  10.726  18.016  10.612
10214W        W81797   1.860  32.371   4.194
10215W        W81798  15.137  24.498   4.374
10216W        W81799  35.386   9.742  12.196
10217W        W81800  38.342  29.545  11.639
10218W        W81801  33.103  14.803   1.317
10219W        W81802   3.735  41.474  12.373
10220W        W81803  22.022  28.088   0.320
10221W        W81804  35.554  30.056   1.546
10222W        W81805  34.791  23.314  10.224
10223W        W81806   3.691  43.347   2.216
10224W        W81807  29.091  15.856   1.819
10225W        W81808  19.661  11.433  14.298
10226W        W81809  35.213  11.641   1.503
10227W        W81810  25.931  18.284   4.258
10228W        W81811  17.527   4.158   0.040
10229W        W81812  23.948  12.264  14.332
10230W        W81813  17.305  18.324   1.873
10231W        W81814  44.058  23.835  11.110
10232W        W81815  37.348  19.838  14.984
10233W        W81816  32.140  29.843   2.744
10234W        W81817  24.013  39.563   3.590
10235W        W81818  32.402  29.977   4.879
10236W        W81819  38.068  16.705   1.766
10237W        W81820  25.061   6.630   4.984
10238W        W81821  33.656  11.874  14.903
10239W        W81822  12.055  35.016   0.460
10240W        W81823  18.591  33.651  10.704
10241W        W81824  37.088  19.510   4.576
10242W        W81825  25.441  21.133   4.329
10243W        W81826  38.825   9.377   2.732
10244W        W81827  33.416  16.323  10.804
10245W        W81828  40.519  26.501   2.350
10246W        W81829  12.650   7.495  14.735
10247W        W81830  26.424  27.577   3.247
10248W        W81831  40.332   1.923  14.912
10249W        W81832  15.584   4.215   4.089
10250W        W81833  19.049  29.169   1.346
10251W        W81834  20.474  26.543   2.377
10252W        W81835  43.497  12.417  12.467
10253W        W81836  14.282  17.963   1.377
10254W        W81837  20.334  23.439  12.549
10255W        W81838   9.817   7.258  14.942
10256W        W81839  34.203  19.464   1.805
10257W        W81840  37.311   1.982  14.519
10258W        W81841   7.784  25.406   2.903
10259W        W81842  18.794  28.605  12.425
10260W        W81843  26.440  26.476   4.136
10261W        W81844  21.295   2.708  10.739
10262W        W81845  42.811  42.207  11.750
10263W        W81846  37.826  37.823   3.629
10264W        W81847  43.390  26.435   1.339
10265W        W81848  30.629  36.603  11.119
10266W        W81849  22.006  23.894  11.105
10267W        W81850   3.330   8.124   0.870
10268W        W81851  20.530  44.094  13.810
10269W        W81852  21.217  40.458  12.013
10270W        W81853   0.882  37.679   3.678
10271W        W81854  37.306  43.321  13.470
10272W        W81855  44.362  43.816  11.236
10273W        W81856   8.276   4.264   1.695
10274W        W81857  23.890  34.527   0.296
10275W        W81858   6.914  20.549   4.020
10276W        W81859   6.848  11.551   2.098
10277W        W81860  41.511   0.549  11.561
10278W        W81861   6.322  32.092  13.020
10279W        W81862  21.019  34.899   1.848
10280W        W81863  40.848   6.769  14.544
10281W        W81864  37.907  37.985   4.501
10282W        W81865  32.655  11.320  13.295
10283W        W81866   0.046  43.193  11.211
10284W        W81867  14.397  33.510  14.701
10285W        W81868  31.709  20.921  10.315
10286W        W81869   8.359  24.715   0.739
10287W        W81870  41.298  23.012  10.930
10288W        W81871   5.307  20.183  13.989
10289W        W81872  29.626  16.294   0.861
10290W        W81873  11.470   7.440  14.016
10291W        W81874  33.847   3.368  12.425
10292W        W81875  25.045  36.739   2.285
10293W        W81876  24.967  10.133  13.064
10294W        W81877  27.184  31.664  13.817
10295W        W81878  14.594  10.608  14.243
10296W        W81879  40.691   0.343   3.109
10297W        W81880  16.206  39.074   3.798
10298W        W81881  25.590  38.667   2.362
10299W        W81882  23.936  40.987   3.666
10300W        W81883   0.993  24.587  14.840
10301W        W81884  24.091  17.756   1.305
10302W        W81885   3.733  43.837   3.596
10303W        W81886  17.102  16.803   0.295
10304W        W81887  12.230  12.888  13.011
10305W        W81888  30.212  26.701   4.841
10306W        W81889  39.691  43.893  10.614
10307W        W81890   4.185   7.017   1.914
10308W        W81891  36.569  41.298  13.368
10309W        W81892  17.330  18.267  12.526
10310W        W81893  41.912  42.220  12.460
10311W        W81894   2.391  36.860  13.801
10312W        W81895  21.675  39.511  13.464
10313W        W81896  20.917  38.580   2.652
10314W        W81897   7.348   4.929   4.090
10315W        W81898  15.187  14.084  13.479
10316W        W81899  21.548   5.189   3.592
10317W        W81900  44.293  21.989  12.450
10318W        W81901  40.446  41.808   1.202
10319W        W81902  31.358  30.605  10.798
10320W        W81903  16.985  21.242  10.687
10321W        W81904  15.255  41.371   2.837
10322W        W81905  18.715  20.771  11.187
10323W        W81906   8.265  41.497  10.821
10324W        W81907  15.514  39.878  13.981
10325W        W81908  32.441  38.833   3.222
10326W        W81909  27.918  23.193  14.793
10327W        W81910   8.638  35.085   3.616
10328W        W81911  42.120  44.983  14.496
10329W        W81912  33.508  30.628  12.596
10330W        W81913  43.449  42.450  10.598
10331W        W81914  30.481  17.252   1.183
10332W        W81915  19.123  24.037   1.086
10333W        W81916   2.312  27.228   0.796
10334W        W81917  18.672   7.379  14.740
10335W        W81918  42.365   5.265  11.673
10336W        W81919   8.259  38.309   2.841
10337W        W81920  41.765  34.977  14.491
10338W        W81921   9.375  10.378  11.127
10339W        W81922   9.460  43.111  10.559
10340W        W81923  18.728  41.796   1.652
10341W        W81924  36.336  14.701   0.505
10342W        W81925  35.104  31.416  12.355
10343W        W81926  17.093  18.171  12.008
10344W        W81927  38.398  37.117  13.542
10345W        W81928  22.510  19.051   0.908
10346W        W81929  32.550  28.123   3.600
10347W        W81930  39.431  29.734  14.312
10348W        W81931  36.219   7.255   2.220
10349W        W81932  19.101   4.165  14.420
10350W        W81933   9.459   3.839  14.426
10351W        W81934  39.575  10.909   0.034
10352W        W81935  13.060   4.684   3.750
10353W        W81936  40.516  15.118  12.638
10354W        W81937  23.901  24.034   3.730
10355W        W81938   3.700  26.953  10.772
10356W        W81939  29.891  14.403  14.870
10357W        W81940  23.906  42.447   3.152
10358W        W81941  41.076  11.925  14.989
10359W        W81942  21.582  43.667   0.846
10360W        W81943   2.080  18.562   1.360
10361W        W81944  44.400   8.717  13.853
10362W        W81945  36.733  28.799   4.633
10363W        W81946  33.381  39.404  10.068
10364W        W81947   2.877  34.821   1.138
10365W        W81948  26.022   4.262   1.644
10366W        W81949  23.081  16.942  14.856
10367W        W81950  19.896   9.945  11.684
10368W        W81951  44.787   8.578   0.312
10369W        W81952  12.919  32.126  13.867
10370W        W81953  39.286  34.995   0.969
10371W        W81954  10.195  33.050   4.219
10372W        W81955  34.245  38.459  11.547
10373W        W81956  42.070   3.770   0.263
10374W        W81957  22.493  28.923   3.240
10375W        W81958  31.502  38.341  12.380
10376W        W81959   5.327   0.241   2.153
10377W        W81960   2.026  42.348   4.590
10378W        W81961   7.452  28.444  11.209
10379W        W81962  24.571  39.059   3.890
10380W        W81963  35.925  10.475   2.465
10381W        W81964  27.448  33.180   4.299
10382W        W81965  30.723  25.974   2.225
10383W        W81966  15.625  38.594  14.352
10384W        W81967  34.585  15.534  12.839
10385W        W81968  14.160  20.592  11.692
10386W        W81969  32.627  12.339  13.456
10387W        W81970  31.084  26.415   3.341
10388W        W81971   1.316  27.036   0.407
10389W        W81972  11.249  17.153   1.191
10390W        W81973  36.388  22.484   0.877
10391W        W81974  32.766   3.783  13.884
10392W        W81975   6.274  17.738   4.140
10393W        W81976   9.790  19.223   1.833
10394W        W81977  18.572  11.157  13.040
10395W        W81978  26.508   6.655   2.818
10396W        W81979  43.394  24.373   2.335
10397W        W81980  42.533   1.888  11.516
10398W        W81981   1.173  28.399  11.271
10399W        W81982  19.057  26.318  13.789
10400W        W81983  14.535  25.075   3.561
10401W        W81984  12.912  26.700  10.980
10402W        W81985  31.646   1.305   0.350
10403W        W81986  34.449  20.769   0.981
10404W        W81987  19.327  29.892  11.173
10405W        W81988  38.606  22.531  12.495
10406W        W81989  24.798  42.886  10.135
10407W        W81990  41.964  42.366   2.573
10408W        W81991   5.336  31.029   0.959
10409W        W81992  34.294  41.355   3.377
10410W        W81993   0.849  39.484  14.137
10411W        W81994  27.441  25.470   1.533
10412W        W81995  33.563  12.874   3.177
10413W        W81996  35.360  18.481  11.493
10414W        W81997  36.476  30.596   1.619
10415W        W81998   9.278   3.666  11.635
10416W        W81999  14.272   0.496   4.084
10417W        W82000   0.435  34.012  13.016
10418W        W82001  30.171  10.869   1.173
10419W        W82002   9.307  37.837   4.199
10420W        W82003   0.156  37.072   0.025
10421W        W82004   6.292  12.340   2.253
10422W        W82005  13.686  27.728   3.639
10423W        W82006  30.715  15.088   1.339
10424W        W82007  25.613  19.251   3.934
10425W        W82008  30.869  14.471  11.080
10426W        W82009  26.200  37.133  12.434
10427W        W82010  44.387  18.191   0.591
10428W        W82011  25.739  30.149   4.606
10429W        W82012  43.978  38.398   1.724
10430W        W82013  36.052  39.418  12.791
10431W        W82014   8.821  38.792   2.113
10432W        W82015  21.998  42.533   3.308
10433W        W82016  30.177  37.382   4.540
10434W        W82017  38.507  30.371  13.422
10435W        W82018  41.588  35.895  10.660
10436W        W82019  27.667   3.229   1.385
10437W        W82020   9.687  11.117  10.783
10438W        W82021  35.360   9.265  11.932
10439W        W82022  10.511  32.068   0.227
10440W        W82023   7.520  21.582   0.726
10441W        W82024  11.751  15.263  13.968
10442W        W82025  17.064  17.689  14.386
10443W        W82026  43.919  27.282  11.880
10444W        W82027   3.618  35.394   0.291
10445W        W82028  33.138  15.559  10.749
10446W        W82029  41.089  31.956  11.110
10447W        W82030  31.732  42.395   0.209
10448W        W82031   0.224   2.797   3.652
10449W        W82032   2.925  12.547   2.724
10450W        W82033  31.757  34.953   0.887
10451W        W82034  22.431  25.097  14.002
10452W        W82035  16.237  39.649  11.417
10453W        W82036   6.904  16.554  14.288
10454W        W82037   7.194  41.773   2.769
10455W        W82038  26.387   9.426   1.682
10456W        W82039  11.760   6.867   2.257
10457W        W82040  37.781  38.334  14.979
10458W        W82041  31.165  15.712   4.213
10459W        W82042  16.672  23.570  13.514
10460W        W82043  24.069  35.955  13.389
10461W        W82044  17.585  20.581   1.690
10462W        W82045   4.253  21.878   3.680
10463W        W82046  31.095  15.545  10.747
10464W        W82047   3.005  25.446  14.017
10465W        W82048  33.059  41.327  12.442
10466W        W82049  38.281   6.587   1.750
10467W        W82050  14.673  28.307  14.849
10468W        W82051  13.349  12.634  10.555
10469W        W82052  11.161  17.334  10.870
10470W        W82053  13.674  27.218   3.674
10471W        W82054  24.734   2.574   4.092
10472W        W82055   4.011  20.757   4.578
10473W        W82056  40.388  24.505   4.085
10474W        W82057  25.609  34.511   0.783
10475W        W82058  14.601  21.831   3.666
10476W        W82059  11.814  34.259  12.696
10477W        W82060  25.934  35.783  11.145
10478W        W82061  14.529  35.163   3.795
10479W        W82062   0.342  22.539  13.430
10480W        W82063  42.972  17.561  13.904
10481W        W82064   5.986  30.061   4.444
10482W        W82065   8.409  41.823   1.284
10483W        W82066   7.200  39.577  11.874
10484W        W82067   4.610  43.418   0.314
10485W        W82068   1.943   2.862   1.074
10486W        W82069   0.559   8.711   2.925
10487W        W82070  20.137  22.898   1.201
10488W        W82071   6.629   6.939   4.681
10489W        W82072  37.475  42.234  12.071
10490W        W82073  41.063  38.935   2.566
10491W        W82074  13.782  38.441   3.581
10492W        W82075  36.884  21.117  10.577
10493W        W82076  20.669  33.058   0.159
10494W        W82077  20.631  29.175   2.624
10495W        W82078  39.525  17.133  11.530
10496W        W82079  17.618  23.302   1.326
10497W        W82080  21.127  16.854  10.172
10498W        W82081  13.247  40.492   5.013
10499W        W82082  24.170  27.057   3.364
10500W        W82083   9.112  29.469   0.759
10501W        W82084  11.368   2.382   2.609
10502W        W82085   9.786   8.948   3.156
10503W        W82086  13.335  42.531  13.432
10504W        W82087  17.108   7.098  11.756
10505W        W82088   4.371  43.505  13.086
10506W        W82089  14.292  19.830   1.854
10507W        W82090  43.643  28.379  12.792
10508W        W82091  22.118  12.790   2.803
10509W        W82092  13.383  29.076  14.969
10510W        W82093  12.263  39.072  14.337
10511W        W82094   5.989  11.328   3.288
10512W        W82095  27.615  44.822  14.336
10513W        W82096  33.037   2.336  13.381
10514W        W82097   1.994  10.067  13.942
10515W        W82098  20.963  21.632  12.603
10516W        W82099  37.838  35.260  13.588
10517W        W82100  25.252   3.255   3.744
10518W        W82101  18.862  30.684   3.580
10519W        W82102   0.240  32.358  12.850
10520W        W82103  10.459  35.285   3.143
10521W        W82104   8.193  32.082   2.342
10522W        W82105  12.580  37.600  11.496
10523W        W82106  11.938  23.873   3.813
10524W        W82107  33.206  41.068  11.050
10525W        W82108  44.215  35.415  10.633
10526W        W82109   4.434  41.550  14.445
10527W        W82110  16.320  39.337  14.290
10528W        W82111  33.853   3.716   0.336
10529W        W82112   1.339  30.071  12.271
10530W        W82113   9.912  41.788  14.298
10531W        W82114   4.870  20.051  13.743
10532W        W82115  14.677   4.461  10.693
10533W        W82116  36.796  38.746   4.480
10534W        W82117  29.732  42.001   3.161
10535W        W82118  12.529  28.168   1.768
10536W        W82119  14.054  35.798  12.382
10537W        W82120  13.104  38.775   1.379
10538W        W82121  11.138  18.298   0.533
10539W        W82122  35.088  21.240  10.707
10540W        W82123  36.322  27.917  13.371
10541W        W82124  25.505  21.486  12.118
10542W        W82125  36.140   7.418   2.696
10543W        W82126  15.733  15.550   1.749
10544W        W82127  16.660  37.337   4.290
10545W        W82128  29.470   6.634   4.463
10546W        W82129  13.749   7.820   4.688
10547W        W82130  29.029  32.842  11.766
10548W        W82131  25.747  41.127   3.429
10549W        W82132  30.611  24.723   0.008
10550W        W82133   8.927  29.654  11.975
10551W        W82134  11.155   3.160  10.912
10552W        W82135  40.202  36.301   2.370
10553W        W82136  15.250  29.111   1.382
10554W        W82137   3.719   1.308   2.846
10555W        W82138  17.565  14.741  11.129
10556W        W82139  18.068  20.802  12.438
10557W        W82140  13.670  34.988  14.395
10558W        W82141  13.157   3.759  13.047
10559W        W82142  20.150  42.946  10.320
10560W        W82143  12.811  23.234  11.181
10561W        W82144  14.320  40.341  12.855
10562W        W82145  15.341   7.383   0.679
10563W        W82146  17.091  38.956   1.230
10564W        W82147  18.083  38.055  11.212
10565W        W82148  24.998  41.406  14.391
10566W        W82149  14.345  10.972  11.363
10567W        W82150  19.849  12.388  12.469
10568W        W82151  40.463  14.034   0.468
10569W        W82152  37.846  40.456   4.274
10570W        W82153  43.768   5.536  11.767
10571W        W82154  19.522   1.223  14.041
10572W        W82155  34.074  30.298   3.831
10573W        W82156  29.150  13.355  11.593
10574W        W82157  33.616  18.914  10.696
10575W        W82158   7.449   1.637   1.756
10576W        W82159  14.568  19.023   1.849
10577W        W82160  18.273  39.998  14.689
10578W        W82161  21.505  37.989  11.915
10579W        W82162  23.334  16.181   0.224
10580W        W82163  17.204   5.234  12.655
10581W        W82164  26.908  28.374   2.324
10582W        W82165  22.921  40.605   0.421
10583W        W82166   5.231  18.655   3.118
10584W        W82167  23.945  21.325   0.199
10585W        W82168  30.371  33.421  13.292
10586W        W82169  38.982  44.326  10.862
10587W        W82170  15.596  14.760  10.990
10588W        W82171  44.912  35.108   0.647
10589W        W82172  41.774  21.035   3.645
10590W        W82173  10.247  13.064   4.655
10591W        W82174  17.242  24.426  11.922
10592W        W82175  13.642   9.660   0.477
10593W        W82176  24.184  37.390  11.983
10594W        W82177  10.365  14.771   0.470
10595W        W82178  19.711  24.176   2.264
10596W        W82179  30.896  38.288   4.896
10597W        W82180   5.084  28.709  12.473
10598W        W82181   3.945  36.269  10.259
10599W        W82182  37.422  44.210  14.894
10600W        W82183  29.250  44.816   2.835
10601W        W82184   7.974  21.633  12.974
10602W        W82185  11.873  21.688  12.233
10603W        W82186   8.447  12.225   0.423
10604W        W82187  18.582  39.040   3.754
10605W        W82188  31.037  36.394  11.544
10606W        W82189  11.177  18.702   4.765
10607W        W82190  19.095  15.315   0.314
10608W        W82191  39.271  39.562   4.520
10609W        W82192  16.044   3.959  11.053
10610W        W82193  38.742  44.751  13.073
10611W        W82194   4.174  16.258  11.487
10612W        W82195  31.362  17.988   2.318
10613W        W82196  34.354  41.920   0.722
10614W        W82197   5.212  33.360  10.442
10615W        W82198  21.558  23.554  12.585
10616W        W82199  18.983  21.392   3.899
10617W        W82200   2.422   4.171   3.158
10618W        W82201  26.650  31.838  11.012
10619W        W82202  14.626  44.513   2.691
10620W        W82203  32.668  30.496   2.874
10621W        W82204  44.305  39.494   0.018
10622W        W82205  24.802  19.126   0.735
10623W        W82206  43.500   7.631   2.435
10624W        W82207   5.251  21.569   3.331
10625W        W82208  43.931  40.023   0.556
10626W        W82209  44.919  21.140  10.577
10627W        W82210  42.827   4.839  13.909
10628W        W82211   3.826  24.482   2.196
10629W        W82212   2.462  38.299  12.498
10630W        W82213  27.976  12.851  14.236
10631W        W82214  43.452  23.589  13.924
10632W        W82215  20.152  18.165   4.881
10633W        W82216  35.427   2.250  13.447
10634W        W82217   8.384  10.183  10.606
10635W        W82218  26.696  40.313   0.484
10636W        W82219   7.132  27.414   4.188
10637W        W82220   4.777  18.941   3.663
10638W        W82221  20.816  26.914   2.284
10639W        W82222  12.616  12.795   3.109
10640W        W82223  28.416  36.379   3.232
10641W        W82224  16.403  16.524   2.200
10642W        W82225   0.932  25.394  14.989
10643W        W82226  25.016  13.122   3.067
10644W        W82227  11.804  40.341   3.212
10645W        W82228  37.379  32.077  11.038
10646W        W82229  28.471  25.732  12.585
10647W        W82230  14.405   1.792   0.014
10648W        W82231  25.568  14.857  14.042
10649W        W82232  38.484  11.139   1.127
10650W        W82233  17.608   6.820   0.813
10651W        W82234  24.723  20.759   3.475
10652W        W82235  36.193  42.183  14.768
10653W        W82236  18.140  44.670   1.870
10654W        W82237  38.117  29.918   1.901
10655W        W82238  44.335  29.657  12.939
10656W        W82239   6.961   8.196  13.513
10657W        W82240   9.309  33.909  11.079
10658W        W82241  36.742  26.455  10.208
10659W        W82242  22.650   7.888  10.264
10660W        W82243  32.129  20.599  10.283
10661W        W82244  20.703  28.943  13.054
10662W        W82245   1.640  10.642   4.614
10663W        W82246  19.695  28.397   0.517
10664W        W82247  11.686  34.081   0.374
10665W        W82248  24.718   5.758  11.157
10666W        W82249  40.385   9.361  10.902
10667W        W82250  23.856  41.024  11.521
10668W        W82251  36.110  16.572   3.735
10669W        W82252  18.577  40.811  10.715
10670W        W82253  30.387  38.635   1.891
10671W        W82254  13.718  23.125   1.494
10672W        W82255   2.187  42.794  13.490
10673W        W82256  28.753  40.807   1.378
10674W        W82257  25.552   4.189  13.593
10675W        W82258   2.828  36.655   1.431
10676W        W82259   4.273   3.494  12.429
10677W        W82260   3.041  24.709  13.924
10678W        W82261  35.367  10.191  12.515
10679W        W82262  19.571  33.977   0.956
10680W        W82263  37.540  27.181  12.090
10681W        W82264  26.577  24.758  14.493
10682W        W82265  18.124  42.675   1.736
10683W        W82266  40.277  18.441   0.861
10684W        W82267  24.472  20.493  11.639
10685W        W82268  10.294   7.145   2.103
10686W        W82269  16.337  30.172  10.776
10687W        W82270  20.872   7.979   1.301
10688W        W82271  44.349  26.958   4.819
10689W        W82272   3.827  13.218  14.069
10690W        W82273  32.576  34.606   0.453
10691W        W82274   3.984  44.567   0.544
10692W        W82275   9.056  31.791  12.423
10693W        W82276  33.369  10.193   3.073
10694W        W82277  15.690  32.549   4.572
10695W        W82278  13.127  26.074  11.602
10696W        W82279  44.376  15.908  14.879
10697W        W82280  14.093   1.808  11.172
10698W        W82281  26.746  32.157  13.526
10699W        W82282  42.621  24.149   2.824
10700W        W82283  10.195   8.808  10.150
10701W        W82284  22.016  17.525   0.155
10702W        W82285   7.890  39.550   1.921
10703W        W82286   2.293  23.548  13.431
10704W        W82287  10.380  39.960  12.939
10705W        W82288   1.548  19.630   0.704
10706W        W82289   8.304  30.501  10.620
10707W        W82290  28.571  35.579   1.879
10708W        W82291  39.798  25.203   2.099
10709W        W82292  43.378  33.470  10.271
10710W        W82293  43.219  24.671   4.325
10711W        W82294   8.358  44.454   3.914
10712W        W82295  28.927   6.641   4.210
10713W        W82296  43.039  19.680  13.583
10714W        W82297  16.132  19.000  10.424
10715W        W82298  25.205   7.451  11.834
10716W        W82299   9.682  24.349  13.376
10717W        W82300   3.554  27.461  11.400
10718W        W82301  34.415  16.497   2.793
10719W        W82302  11.706  43.759   1.380
10720W        W82303  23.893  32.140   0.894
10721W        W82304  19.154  22.201  13.481
10722W        W82305  30.948  40.078  12.049
10723W        W82306   7.993  30.009   2.357
10724W        W82307  23.751  15.626  13.474
10725W        W82308  39.290   0.584  11.115
10726W        W82309  12.238  28.603   0.879
10727W        W82310  17.563  23.092  14.054
10728W        W82311   4.379  15.892   4.662
10729W        W82312  10.745  38.269  10.381
10730W        W82313  21.625  43.376  13.849
10731W        W82314  18.849  27.834   4.640
10732W        W82315  15.555  27.193  10.894
10733W        W82316  40.612  35.063  11.389
10734W        W82317  37.093  20.206   0.301
10735W        W82318  33.056   3.253  11.175
10736W        W82319  12.537  25.989  12.765
10737W        W82320  23.707  19.104  10.742
10738W        W82321   2.977  31.615   3.270
10739W        W82322  20.607  15.830   0.247
10740W        W82323  38.887  25.115   5.253
10741W        W82324  43.992   3.333  13.009
10742W        W82325   0.693   3.203  11.537
10743W        W82326  39.402   6.264   0.403
10744W        W82327  12.718   2.631   1.435
10745W        W82328  23.939  38.927   1.146
10746W        W82329  33.189  20.323   4.900
10747W        W82330  37.379  28.341   4.261
10748W        W82331  38.260  26.158   3.737
10749W        W82332  35.832  34.443   0.296
10750W        W82333   8.170   8.236  12.033
10751W        W82334  21.286   0.649  11.655
10752W        W82335   5.667  16.509   1.495
10753W        W82336   7.690  14.818   1.794
10754W        W82337  20.999  25.647   2.571
10755W        W82338  12.722  31.912   1.826
10756W        W82339  13.538  43.230   3.173
10757W        W82340  27.522  16.846  14.778
10758W        W82341  33.278  42.665   5.015
10759W        W82342  25.458  44.930   2.336
10760W        W82343  22.366  44.454   3.960
10761W        W82344  15.552  27.951  11.546
10762W        W82345  37.015  18.832   4.109
10763W        W82346   7.512  21.251  14.550
10764W        W82347   0.737  31.332   2.640
10765W        W82348  35.701  37.455  13.402
10766W        W82349  16.238  11.079  13.190
10767W        W82350  15.103   2.443   2.748
10768W        W82351  27.923   0.810   4.515
10769W        W82352  44.505  13.229   0.955
10770W        W82353   7.474  40.279  10.497
10771W        W82354  34.560  22.697   0.941
10772W        W82355   2.438  38.880  10.337
10773W        W82356  29.685  44.536  11.603
10774W        W82357  39.388   8.342   9.739
10775W        W82358  12.774   8.243  11.852
10776W        W82359  38.869   8.302  14.787
10777W        W82360  12.567  27.339   4.199
10778W        W82361  33.038  42.307   2.243
10779W        W82362  34.332  30.267   2.141
10780W        W82363   1.976  17.663   2.237
10781W        W82364  41.223   9.417   3.335
10782W        W82365  31.395  20.848   1.843
10783W        W82366  12.664  33.396  12.018
10784W        W82367  27.831  16.856   1.977
10785W        W82368  29.661  33.939   9.864
10786W        W82369  14.149  26.579  10.255
10787W        W82370  15.320   1.438  10.581
10788W        W82371  40.624   8.921  13.833
10789W        W82372   5.811  30.557  10.861
10790W        W82373   6.131  15.251   0.778
10791W        W82374  32.504  43.054  13.325
10792W        W82375  33.986  13.328  14.778
10793W        W82376   2.009  38.844  11.215
10794W        W82377  43.741  15.191   0.705
10795W        W82378   5.280  27.239  11.429
10796W        W82379  26.637   1.247   3.638
10797W        W82380  24.579  41.688  13.170
10798W        W82381  10.324  38.076   4.681
10799W        W82382  19.798  16.839  14.279
10800W        W82383  37.747  42.462   3.702
10801W        W82384  36.331  14.209   0.617
10802W        W82385  10.201  28.943   0.005
10803W        W82386   2.944   3.732  12.620
10804W        W82387  12.941  25.800  12.448
10805W        W82388   9.947  19.976   2.282
10806W        W82389   6.457  23.770  11.695
10807W        W82390  28.978  11.264  12.303
10808W        W82391  11.507  42.436  11.471
10809W        W82392  43.381  44.751  14.738
10810W        W82393  22.493  19.555   1.919
10811W        W82394  24.705  17.097   1.028
10812W        W82395  26.064  38.484   0.696
10813W        W82396   1.553  11.839   2.729
10814W        W82397  35.555  12.061   0.584
10815W        W82398  36.818   2.873  11.966
10816W        W82399   8.610   9.304  13.090
10817W        W82400  43.817  32.926   1.772
10818W        W82401  10.005  21.836  10.656
10819W        W82402  23.533   6.880  10.638
10820W        W82403  12.854   5.902  11.257
10821W        W82404  33.712   8.332   2.960
10822W        W82405  43.507   5.472   1.810
10823W        W82406   2.724  44.138  12.482
10824W        W82407   7.580   6.607   1.865
10825W        W82408  22.529  36.558  13.809
10826W        W82409  38.288  43.853   3.237
10827W        W82410  38.471   9.244  11.002
10828W        W82411   6.347  34.925   3.693
10829W        W82412  32.300  28.196   0.401
10830W        W82413  26.800  15.492   2.689
10831W        W82414  11.956  14.309  12.832
10832W        W82415  22.145  25.537  14.005
10833W        W82416  37.787   8.148   3.232
10834W        W82417  30.452  40.053  12.215
10835W        W82418  14.288  34.755  13.600
10836W        W82419  24.100   7.070   2.054
10837W        W82420  16.080   8.725  14.172
10838W        W82421  24.799  14.531   2.173
10839W        W82422  35.900   1.475  12.733
10840W        W82423  32.560  14.592  10.763
10841W        W82424  16.348  18.618   2.243
10842W        W82425  38.550  37.473   2.620
10843W        W82426  44.694   9.326   3.695
10844W        W82427   3.262   7.449  14.998
10845W        W82428  24.664  42.037   0.688
10846W        W82429  39.382  12.230  11.544
10847W        W82430  33.675   2.337  12.293
10848W        W82431  33.955  26.860   1.131
10849W        W82432  34.505   7.728   3.654
10850W        W82433  15.242  44.128  12.861
10851W        W82434  35.362   3.238   1.861
10852W        W82435  19.195  25.521  14.119
10853W        W82436   0.261  12.111  12.411
10854W        W82437  25.474  17.068  12.560
10855W        W82438  10.812   5.440   1.668
10856W        W82439  25.406  34.630  10.511
10857W        W82440  27.629   1.165   0.816
10858W        W82441  36.642  44.718   3.591
10859W        W82442   7.800  33.859   0.042
10860W        W82443  23.690  11.310  11.657
10861W        W82444  27.662  10.269   3.825
10862W        W82445  39.296  29.602   2.261
10863W        W82446  15.684  32.578  12.985
10864W        W82447   9.865   8.509   4.141
10865W        W82448  13.538   5.778  12.083
10866W        W82449  43.852  17.241  11.108
10867W        W82450   6.342   6.886  10.427
10868W        W82451  25.094  37.735   3.441
10869W        W82452  30.226  20.149  14.776
10870W        W82453  10.103  24.193  13.092
10871W        W82454   2.701   0.811   2.632
10872W        W82455  42.053  19.380   4.113
10873W        W82456   2.326  41.415   0.850
10874W        W82457  23.738  19.086   3.777
10875W        W82458  35.605   8.665   1.802
10876W        W82459  18.177  28.509  13.613
10877W        W82460   6.426   6.852   4.212
10878W        W82461   8.783  16.812  13.646
10879W        W82462  16.964  39.882  13.418
10880W        W82463  29.059  32.924  14.479
10881W        W82464   8.286  24.552   4.179
10882W        W82465  35.009  28.795  11.213
10883W        W82466  15.596   9.873   2.496
10884W        W82467  38.043  20.537  11.480
10885W        W82468  28.644  16.556  12.755
10886W        W82469  38.864  24.795  11.940
10887W        W82470  38.839  39.035   3.263
10888W        W82471   5.758  14.981  13.869
10889W        W82472   9.426  36.784   1.133
10890W        W82473   3.220   8.650  11.926
10891W        W82474  22.738   0.238  12.218
10892W        W82475   3.295  35.256   5.435
10893W        W82476  19.565  34.405   0.282
10894W        W82477  33.651  36.600   4.397
10895W        W82478  39.223   9.750   0.861
10896W        W82479  19.805  44.376  10.758
10897W        W82480  26.663   4.816   0.904
10898W        W82481  25.411  21.854   1.772
10899W        W82482  15.843   6.764  14.924
10900W        W82483  18.838  14.926   2.710
10901W        W82484  35.025  27.471   3.543
10902W        W82485  21.689  26.219   0.603
10903W        W82486  10.778   3.435   0.262
10904W        W82487  25.037   0.689   4.270
10905W        W82488   3.864  36.621  13.781
10906W        W82489  15.506  11.673  14.086
10907W        W82490  26.440   1.688   0.351
10908W        W82491  39.096  20.934  12.919
10909W        W82492  30.528  14.190  14.814
10910W        W82493  15.215  20.710   4.083
10911W        W82494  10.878  43.466   0.868
10912W        W82495  19.726  14.103  14.430
10913W        W82496  30.919  22.286  12.633
10914W        W82497  40.828  16.195   4.107
10915W        W82498  35.831  38.392   4.207
10916W        W82499  16.997  19.497  14.433
10917W        W82500  14.789  39.949  11.506
10918W        W82501  38.441  12.140  14.862
10919W        W82502  30.404  22.239  11.547
10920W        W82503   9.863  25.253   4.591
10921W        W82504  31.961  34.111   2.015
10922W        W82505  14.285  44.645  13.982
10923W        W82506  23.296  18.518   1.327
10924W        W82507  32.608  10.303  14.422
10925W        W82508  10.650  41.982  10.515
10926W        W82509  28.089  37.362  13.030
10927W        W82510  25.896   5.327  11.639
10928W        W82511   9.149  37.516  11.412
10929W        W82512  11.799  32.035  10.907
10930W        W82513  37.426  39.173  13.263
10931W        W82514  23.728  25.748   3.696
10932W        W82515  30.993   2.762   3.192
10933W        W82516   9.410  22.952   1.209
10934W        W82517  27.803  25.069   0.681
10935W        W82518   2.993  22.127   1.456
10936W        W82519  29.089  32.063   2.629
10937W        W82520  42.568  17.639   3.946
10938W        W82521  11.559  44.953  13.480
10939W        W82522  16.331   0.732  12.996
10940W        W82523  38.259  33.472   1.316
10941W        W82524   3.876   5.445   0.829
10942W        W82525  32.462  19.498  14.893
10943W        W82526  22.586   3.826   2.713
10944W        W82527  29.629  11.188   1.014
10945W        W82528  29.019   7.176  10.819
10946W        W82529  38.363  20.645  10.539
10947W        W82530  37.894  35.588   5.116
10948W        W82531   4.746  28.410   1.417
10949W        W82532  31.317  29.006   4.713
10950W        W82533  39.916  36.155   4.947
10951W        W82534  25.860  33.448  11.888
10952W        W82535  19.076  15.570   2.219
10953W        W82536  33.929  13.090   1.592
10954W        W82537  20.576  34.017   4.149
10955W        W82538   2.655  19.989  12.462
10956W        W82539  33.049   3.982   2.780
10957W        W82540  42.719  21.128   4.105
10958W        W82541   0.536  17.159   1.715
10959W        W82542   8.687   4.827  13.876
10960W        W82543   5.950  15.267   2.486
10961W        W82544   0.403  20.573  11.967
10962W        W82545  29.389  35.651  13.499
10963W        W82546   0.762  20.680  14.499
10964W        W82547  42.377  23.104  14.309
10965W        W82548  29.592  40.320  12.464
10966W        W82549   5.217  34.286  14.339
10967W        W82550  28.867   6.132   2.832
10968W        W82551  13.611  27.445   3.195
10969W        W82552  27.551  14.743   2.349
10970W        W82553  44.639  27.154   1.758
10971W        W82554  18.084  26.102  11.073
10972W        W82555  27.669  18.807  11.276
10973W        W82556  28.929  25.469   4.835
10974W        W82557  35.332  27.802   2.190
10975W        W82558   2.512  18.520   3.616
10976W        W82559  35.520   8.361  12.635
10977W        W82560  20.747  23.937   3.141
10978W        W82561  38.803  20.115  12.796
10979W        W82562  24.896  22.547   2.846
10980W        W82563  28.431  40.233  12.697
10981W        W82564  34.650  38.949   2.731
10982W        W82565   6.749  23.644  13.556
10983W        W82566  36.585  37.543  11.944
10984W        W82567  18.497  41.238  12.413
10985W        W82568  22.612  32.540  12.504
10986W        W82569   6.465  27.839  14.580
10987W        W82570  36.920  36.778  14.416
10988W        W82571   4.891  29.983   1.886
10989W        W82572  35.910  19.539   1.347
10990W        W82573  41.079   0.411   3.548
10991W        W82574  36.705  13.087   1.815
10992W        W82575   3.348  24.618  13.419
10993W        W82576  16.172   3.842  12.806
10994W        W82577   9.371  31.096   4.769
10995W        W82578  29.847  36.808  12.543
10996W        W82579  35.977  22.172  14.941
10997W        W82580  36.027  22.002   1.391
10998W        W82581  27.561  34.980  10.907
10999W        W82582  36.789   5.913  11.643
11000W        W82583  12.390  42.858   4.595
11001W        W82584  35.057  25.942  13.511
11002W        W82585   4.331  40.724   3.286
11003W        W82586   6.735  11.137   1.770
11004W        W82587  29.743  20.204   1.293
11005W        W82588  13.932  38.736   0.926
11006W        W82589  44.082  33.582   2.642
11007W        W82590   5.677  40.550   0.959
11008W        W82591  19.742   4.363   4.637
11009W        W82592  31.553  33.596   1.258
11010W        W82593   3.838  34.173   0.902
11011W        W82594  33.587  14.174   0.959
11012W        W82595  27.477  43.401  13.216
11013W        W82596  28.397  22.561   4.260
11014W        W82597  21.544  14.196   2.805
11015W        W82598  13.819  22.889  11.167
11016W        W82599  29.203  18.229   0.994
11017W        W82600  36.455   9.472   4.474
11018W        W82601  33.986  25.638  10.496
11019W        W82602  21.111  19.610  11.094
11020W        W82603  29.605  28.377   1.372
11021W        W82604  17.838   0.303   4.416
11022W        W82605  28.782   4.800  13.185
11023W        W82606   8.144   7.178  11.992
11024W        W82607  19.864  29.193   2.212
11025W        W82608  23.811  21.293  10.601
11026W        W82609  27.478  23.149   3.682
11027W        W82610   9.931   3.656   1.211
11028W        W82611  24.589  10.989   3.092
11029W        W82612  14.845  35.704  10.709
11030W        W82613  18.691   8.341  10.842
11031W        W82614  41.534  42.632  13.139
11032W        W82615   3.795  41.902   1.326
11033W        W82616  14.037  41.713  13.998
11034W        W82617  17.367  37.082  11.958
11035W        W82618  14.247  19.156  12.486
11036W        W82619  24.232   6.903  14.825
11037W        W82620  44.877  41.980  13.452
11038W        W82621  29.095   6.746   0.031
11039W        W82622  17.207   7.729   2.191
11040W        W82623  39.742   4.792  12.880
11041W        W82624  24.754   3.818   4.169
11042W        W82625  22.141  10.194   0.105
11043W        W82626  22.815   8.778  13.874
11044W        W82627   5.203  28.946  12.012
11045W        W82628  25.022  42.707  13.078
11046W        W82629  40.491   1.866  10.099
11047W        W82630  38.876   8.347  10.594
11048W        W82631  13.318   6.097  12.910
11049W        W82632  39.893  13.288  13.004
11050W        W82633  40.520  21.723  12.932
11051W        W82634  35.368  13.745   4.919
11052W        W82635  42.467  32.837   4.739
11053W        W82636   6.835  22.084  11.679
11054W        W82637  44.347  43.041  10.524
11055W        W82638  33.419  37.312   0.026
11056W        W82639  23.563  14.366   1.785
11057W        W82640  44.305   9.112   3.387
11058W        W82641  17.526   5.996  11.973
11059W        W82642  35.885  42.641  10.862
11060W        W82643  32.520   1.843  10.726
11061W        W82644  28.882   8.270  10.637
11062W        W82645  41.903  30.348   3.653
11063W        W82646  21.712  18.929  11.663
11064W        W82647  41.695   5.895   2.980
11065W        W82648   0.757  38.985  10.590
11066W        W82649  40.761  42.796   4.562
11067W        W82650  25.042  17.337  11.245
11068W        W82651   8.439  32.370  12.883
11069W        W82652  35.371  40.753   1.483
11070W        W82653  28.164  28.634  10.249
11071W        W82654  30.906  21.716   3.750
11072W        W82655  37.622  44.283  12.299
11073W        W82656   5.179  20.542   0.247
11074W        W82657   3.965  32.427   3.255
11075W        W82658  33.392  32.708  13.439
11076W        W82659  22.094  24.722  10.661
11077W        W82660  18.256  38.506   1.136
11078W        W82661  29.928   7.974   4.492
11079W        W82662  20.209  34.630   2.234
11080W        W82663  40.813  22.502   0.412
11081W        W82664  44.493   5.112  13.617
11082W        W82665   6.662  15.233  10.700
11083W        W82666  15.094  10.137   1.198
11084W        W82667   9.816  18.612   4.724
11085W        W82668  28.646  13.288  12.373
11086W        W82669  23.212  15.299   1.791
11087W        W82670  14.663  19.281   1.381
11088W        W82671  30.552  24.245  14.855
11089W        W82672  25.572   8.448  10.986
11090W        W82673  22.197  32.013  13.838
11091W        W82674  39.173  26.267  11.088
11092W        W82675  36.864  31.513  11.672
11093W        W82676  30.630  18.644   1.304
11094W        W82677  32.077  22.318  13.983
11095W        W82678  34.921  15.531   3.636
11096W        W82679  22.311  15.306   2.940
11097W        W82680  35.942  14.585   3.309
11098W        W82681  22.531   4.147   3.563
11099W        W82682  10.368  23.549   3.624
11100W        W82683   9.571  12.795   2.543
11101W        W82684   0.722  39.523   4.661
11102W        W82685  38.446  37.130   3.145
11103W        W82686  25.971  20.225   2.210
11104W        W82687   9.284   8.865   4.614
11105W        W82688  44.784  42.979   4.552
11106W        W82689  17.506  25.436  11.975
11107W        W82690  14.879  36.893   3.598
11108W        W82691  36.760  22.073  12.587
11109W        W82692  43.878  38.317   2.736
11110W        W82693  20.021  28.457  13.539
11111W        W82694  25.477   3.816  12.761
11112W        W82695  18.166   6.991  11.295
11113W        W82696  29.918  11.131  12.396
11114W        W82697  24.488  21.692  13.410
11115W        W82698  36.065   6.127   4.623
11116W        W82699  37.430  19.759   0.482
11117W        W82700  26.047  19.130   4.607
11118W        W82701  17.576  29.907   4.622
11119W        W82702  19.629  32.412  12.038
11120W        W82703  25.053  26.650  10.886
11121W        W82704   9.139   3.888  13.673
11122W        W82705  12.036  34.357  13.480
11123W        W82706  36.053   9.343   1.553
11124W        W82707  10.301  10.769   1.741
11125W        W82708  38.293  41.559  10.426
11126W        W82709   2.399  17.314   2.319
11127W        W82710  33.800  11.724  14.373
11128W        W82711   9.039  40.369   1.782
11129W        W82712  42.228   5.507  11.246
11130W        W82713  44.818   2.960   3.986
11131W        W82714  11.431  38.917   4.757
11132W        W82715  28.621  13.702   0.900
11133W        W82716  27.057  37.916   0.801
11134W        W82717  36.498  11.583  12.574
11135W        W82718   1.337   8.963   0.802
11136W        W82719  30.111  24.638  11.199
11137W        W82720   6.257  29.481   3.077
11138W        W82721  39.932   5.529   0.047
11139W        W82722  21.982  32.967  12.132
11140W        W82723  26.558  22.204   4.525
11141W        W82724  27.808  13.701   1.758
11142W        W82725  13.546   1.573  12.120
11143W        W82726  37.220  35.807  12.955
11144W        W82727  14.141  10.407  13.470
11145W        W82728  39.542  42.874   4.881
11146W        W82729  28.890   5.263   3.614
11147W        W82730  15.507  29.622   1.729
11148W        W82731  18.744  10.320   0.855
11149W        W82732  15.307  29.821  12.933
11150W        W82733  22.024   3.422  12.567
11151W        W82734  27.787   7.723  14.309
11152W        W82735  11.219  25.510   0.500
11153W        W82736  37.642   0.225   2.374
11154W        W82737  21.710  18.563   3.245
11155W        W82738  41.591   8.814   4.494
11156W        W82739  12.430  44.785  13.447
11157W        W82740   3.748  44.051   4.570
11158W        W82741  16.554  44.003   3.294
11159W        W82742   7.680  15.078  12.924
11160W        W82743  15.521  43.834   3.699
11161W        W82744   7.256  15.060  11.985
11162W        W82745  27.700  23.454   2.828
11163W        W82746   1.445  44.300  10.209
11164W        W82747  35.171  25.140  10.726
11165W        W82748  26.892  43.250  12.494
11166W        W82749  26.548  21.923   4.960
11167W        W82750  22.273   7.848  10.976
11168W        W82751  40.955  32.525   3.695
11169W        W82752  14.439  18.057  14.020
11170W        W82753  21.543   4.012   0.168
11171W        W82754  15.668  41.053  14.566
11172W        W82755  25.978  11.376  13.272
11173W        W82756  30.115  16.316   0.338
11174W        W82757  15.859   6.203  13.424
11175W        W82758   6.871  44.592  12.891
11176W        W82759  38.897   7.755   5.043
11177W        W82760  15.016  26.717   3.136
11178W        W82761  39.123  34.976  13.251
11179W        W82762  28.976  16.282   0.369
11180W        W82763   0.212  26.224   4.559
11181W        W82764   5.257  24.189   4.549
11182W        W82765  36.442  11.249  12.172
11183W        W82766  11.095  11.621   0.233
11184W        W82767  33.691  29.883  12.937
11185W        W82768  40.979  26.400  13.328
11186W        W82769  11.488  32.088   1.012
11187W        W82770  13.509  39.312  12.584
11188W        W82771  28.344  44.381   1.716
11189W        W82772   4.083   5.973  10.533
11190W        W82773   4.930   7.382   1.675
11191W        W82774  14.238  40.873   0.069
11192W        W82775  24.231   5.332  13.569
11193W        W82776  39.577  18.264  13.582
11194W        W82777  26.451  32.527  14.415
11195W        W82778  32.354  39.533  10.923
11196W        W82779  13.444  29.474  14.625
11197W        W82780  19.673  13.082   1.291
11198W        W82781  41.010  36.457   1.681
11199W        W82782  16.984  39.005  10.617
11200W        W82783  24.910  13.694  13.984
11201W        W82784   8.261  26.085  11.421
11202W        W82785  20.175  42.846   3.156
11203W        W82786  24.870  27.468  12.863
11204W        W82787   8.639  16.683  12.505
11205W        W82788  39.364  42.238  12.479
11206W        W82789  16.113   6.383   2.595
11207W        W82790   9.289  33.548  13.047
11208W        W82791  26.615  32.607   4.475
11209W        W82792  27.414  31.488   0.640
11210W        W82793   3.230  16.131  14.519
11211W        W82794   1.834  24.478   1.169
11212W        W82795   6.990  29.796  11.130
11213W        W82796  29.883  30.898   0.745
11214W        W82797   1.713  20.778  11.128
11215W        W82798  15.210   8.200   4.142
11216W        W82799  16.683  31.763  14.863
11217W        W82800  29.095  16.118  13.807
11218W        W82801   1.259  38.528  11.374
11219W        W82802   5.791  33.086  10.550
11220W        W82803  40.966  20.252   4.124
11221W        W82804  28.630  31.544   2.422
11222W        W82805  30.684  38.987  11.261
11223W        W82806   7.328   2.475  12.879
11224W        W82807  24.487  21.083  14.819
11225W        W82808   9.394  34.781   4.258
11226W        W82809  22.465  30.064  14.921
11227W        W82810  30.730   8.752  13.902
11228W        W82811   9.899  36.365  11.681
11229W        W82812  23.536  13.069  12.519
11230W        W82813  10.494  32.407   0.934
11231W        W82814  26.968  28.616   0.776
11232W        W82815  30.663  24.125  14.350
11233W        W82816  35.141   1.209  11.118
11234W        W82817  14.869  21.921  13.959
11235W        W82818  38.539   2.005   3.550
11236W        W82819  29.594  36.968   4.257
11237W        W82820  36.418   2.697   0.010
11238W        W82821  41.873  22.005   4.812
11239W        W82822  19.811   9.121   2.439
11240W        W82823  17.121  36.809   3.253
11241W        W82824  22.431  11.761  10.629
11242W        W82825  11.411  41.000  11.640
11243W        W82826  40.467  28.578   3.067
11244W        W82827  15.093  29.967   2.873
11245W        W82828  19.685  17.323   1.286
11246W        W82829  24.414   8.772   3.738
11247W        W82830  10.790  23.530   2.815
11248W        W82831  37.248  40.275   0.457
11249W        W82832  21.163  32.992  14.946
11250W        W82833   8.813  33.006  12.417
11251W        W82834  29.604   2.461   3.816
11252W        W82835  22.695   9.877   1.703
11253W        W82836  10.584  31.753  14.841
11254W        W82837  30.756  16.523  11.163
11255W        W82838  37.843  14.229   1.900
11256W        W82839  30.368   9.814  11.216
11257W        W82840   9.758  34.739  14.717
11258W        W82841  40.330  15.779  14.959
11259W        W82842  40.823  43.031   0.979
11260W        W82843  44.190  39.643  11.906
11261W        W82844  43.279  23.478  13.437
11262W        W82845  40.516   9.558   1.957
11263W        W82846  27.924   8.320   2.562
11264W        W82847   3.880  14.577  13.797
11265W        W82848  36.006  13.712  12.913
11266W        W82849  25.770   6.821   3.766
11267W        W82850  17.619  32.650   4.354
11268W        W82851  21.048   5.030  11.686
11269W        W82852  26.247  13.455   1.572
11270W        W82853   8.561  21.446   0.588
11271W        W82854   5.764  14.399   2.998
11272W        W82855   6.150   1.305   0.529
11273W        W82856  40.842  23.660   4.529
11274W        W82857  24.687  27.930   0.842
11275W        W82858  39.248  22.630  13.808
11276W        W82859   5.351  40.804  12.039
11277W        W82860   4.064  27.193   0.377
11278W        W82861  20.986  31.672   3.090
11279W        W82862   1.808  41.058   3.343
11280W        W82863   0.263  12.662  13.517
11281W        W82864   0.047  37.919  12.472
11282W        W82865  11.572   9.122  12.423
11283W        W82866  31.542  14.600  13.066
11284W        W82867  43.523   0.019   0.685
11285W        W82868  11.288  22.739   3.314
11286W        W82869  22.246  35.325   3.719
11287W        W82870  19.610  18.057  13.886
11288W        W82871  22.648  29.123   1.808
11289W        W82872  13.827   5.268   0.434
11290W        W82873   8.396  17.227  11.211
11291W        W82874  30.866  22.257   1.782
11292W        W82875  43.257  18.738   4.469
11293W        W82876  37.397  40.989   3.787
11294W        W82877  32.577  25.191  10.649
11295W        W82878  10.609   5.506  10.693
11296W        W82879  13.802  28.482   4.104
11297W        W82880  14.608  23.205   3.338
11298W        W82881  44.757   9.914  11.201
11299W        W82882  28.903  38.515  13.794
11300W        W82883   6.228  35.886   4.096
11301W        W82884  24.963  19.571   0.956
11302W        W82885  40.137  17.969  14.989
11303W        W82886   7.421  14.276   2.283
11304W        W82887   6.481  37.564   0.437
11305W        W82888  36.162  27.503  14.101
11306W        W82889  31.047  28.379   0.499
11307W        W82890  41.694   6.330   0.425
11308W        W82891  16.332  34.690  11.556
11309W        W82892  44.313  25.244   2.415
11310W        W82893  28.923  26.954   4.516
11311W        W82894  21.072  32.912  12.032
11312W        W82895  13.188  32.932   1.342
11313W        W82896  19.759  19.000   1.734
11314W        W82897  23.516  19.587   3.752
11315W        W82898  25.455  41.895  12.448
11316W        W82899  30.711  41.620  14.061
11317W        W82900   9.628  27.989  12.597
11318W        W82901  20.061   9.934   1.410
11319W        W82902  11.048  21.036   3.186
11320W        W82903   3.561  44.737   0.281
11321W        W82904  35.760   3.906   4.479
11322W        W82905  39.522  35.934  12.520
11323W        W82906  32.141   3.285  13.624
11324W        W82907   5.452   3.505  14.978
11325W        W82908   9.927  34.598  13.476
11326W        W82909  24.650  18.667  13.517
11327W        W82910  22.116  20.726   3.631
11328W        W82911  10.382  40.385   1.405
11329W        W82912  20.150  37.539   4.673
11330W        W82913  31.925  39.247   4.623
11331W        W82914  24.048  24.944   4.942
11332W        W82915  17.884  43.407  13.812
11333W        W82916  11.556   0.450   1.411
11334W        W82917  21.968  24.788   2.862
11335W        W82918  10.614   4.311   1.238
11336W        W82919  24.807   8.912   0.555
11337W        W82920  40.338  16.784  10.510
11338W        W82921  11.809  38.948   0.796
11339W        W82922  24.957  12.301   2.826
11340W        W82923   1.724   8.331  13.453
11341W        W82924  30.852  12.986   0.362
11342W        W82925  39.862  33.204  11.474
11343W        W82926  37.976  15.328   3.299
11344W        W82927  19.518   3.259   1.893
11345W        W82928  20.156  11.116  13.520
11346W        W82929  31.045  34.391   3.201
11347W        W82930  29.401  15.592  13.388
11348W        W82931   4.689  37.784   1.458
11349W        W82932  10.599  18.754   2.834
11350W        W82933   6.361  15.313   4.094
11351W        W82934  17.803  35.220   2.279
11352W        W82935   9.858  29.516  11.260
11353W        W82936  11.151  14.724  10.762
11354W        W82937  17.818  17.572   4.513
11355W        W82938  44.652  39.263   2.200
11356W        W82939  23.574   7.709   1.638
11357W        W82940  44.331  14.862  13.006
11358W        W82941  15.008  30.388   1.750
11359W        W82942  20.834   3.164   5.003
11360W        W82943   3.648  26.608   3.676
11361W        W82944   7.778  31.056   4.347
11362W        W82945  22.504  32.575   4.577
11363W        W82946   2.346  42.583  13.936
11364W        W82947  38.291  38.690   4.113
11365W        W82948  16.343  24.637   2.398
11366W        W82949   1.171  31.159  12.589
11367W        W82950  18.567  18.299   0.967
11368W        W82951  18.937  16.063   0.953
11369W        W82952   1.429  44.377  14.765
11370W        W82953  41.395  25.661  14.579
11371W        W82954  34.101  39.542  11.214
11372W        W82955  43.064  20.741   2.208
11373W        W82956  42.810   8.244  13.401
11374W        W82957  38.540   6.645   4.984
11375W        W82958   0.925  42.648   2.657
11376W        W82959  21.790   8.880  11.164
11377W        W82960  37.385  39.023   2.374
11378W        W82961  39.674   7.273   2.345
11379W        W82962  25.237   2.270  12.488
11380W        W82963  29.052  40.430  12.461
11381W        W82964  15.761  18.039   2.696
11382W        W82965  39.890  33.462   2.265
11383W        W82966   9.817  41.782   0.793
11384W        W82967  19.338   4.253  10.492
11385W        W82968   7.107  19.752  12.634
11386W        W82969   2.228  31.659  14.772
11387W        W82970  26.992  40.165   1.708
11388W        W82971  40.115  31.397  10.903
11389W        W82972  44.504   1.849  11.551
11390W        W82973  13.301   8.569  11.946
11391W        W82974  36.998  26.552   0.716
11392W        W82975  29.442  24.143   2.405
11393W        W82976  13.372  40.565   3.139
11394W        W82977  13.578  25.252   3.894
11395W        W82978   5.626  39.364  11.121
11396W        W82979   1.860  23.021  13.944
11397W        W82980   6.878   2.820   3.318
11398W        W82981  23.912  16.642  12.619
11399W        W82982  32.622  11.309   4.683
11400W        W82983  19.224  43.991   0.534
11401W        W82984  21.348  34.181  12.125
11402W        W82985  32.579  27.915  10.877
11403W        W82986  15.060   4.914  11.679
11404W        W82987  29.111  42.284  11.980
11405W        W82988  16.744  15.636   0.765
11406W        W82989  12.634  15.096  11.144
11407W        W82990   3.215  11.586   1.709
11408W        W82991  25.708  10.198   4.516
11409W        W82992  18.227  21.510   4.467
11410W        W82993  37.681  38.942   3.884
11411W        W82994  44.824  13.554   2.318
11412W        W82995   5.377  44.237   0.663
11413W        W82996   2.774   1.393   0.005
11414W        W82997   2.218  13.135  14.492
11415W        W82998  42.110  24.651   2.235
11416W        W82999  30.551  18.682   0.758
11417W        W83000  13.223  12.794   0.820
11418W        W83001  44.790  25.501   2.484
11419W        W83002  40.798  33.580   4.348
11420W        W83003  29.174   4.523   1.472
11421W        W83004  12.377  39.486   0.317
11422W        W83005  30.629  10.102   3.626
11423W        W83006  32.533  34.036   0.412
11424W        W83007  31.568   4.208   2.215
11425W        W83008  27.118  18.650  13.058
11426W        W83009  32.074  34.616  10.707
11427W        W83010  24.992  26.350  12.816
11428W        W83011   4.233  13.758   4.181
11429W        W83012  12.453  40.628   1.204
11430W        W83013  29.927  42.916  12.535
11431W        W83014  38.153  16.211  14.854
11432W        W83015  23.788  23.986  14.283
11433W        W83016  24.560  25.209   3.135
11434W        W83017  12.059  32.076   3.683
11435W        W83018  41.967  27.109   1.072
11436W        W83019  15.279  14.581  13.567
11437W        W83020  17.964  25.447  12.266
11438W        W83021  30.687   6.934   3.732
11439W        W83022  29.748   5.959   3.719
11440W        W83023  27.599  10.613  11.623
11441W        W83024  36.432   8.525  13.533
11442W        W83025  13.742  34.110  14.739
11443W        W83026  14.580  15.137  14.377
11444W        W83027   0.888  19.180   0.252
11445W        W83028  13.698   6.780   0.013
11446W        W83029  37.102  37.504  11.888
11447W        W83030  43.343  39.599  14.106
11448W        W83031  43.874  18.152  14.448
11449W        W83032  15.238  22.010  14.304
11450W        W83033   0.888  11.701   3.535
11451W        W83034  18.805  29.948  11.317
11452W        W83035  33.094  34.820  12.139
11453W        W83036  26.385  20.126   0.035
11454W        W83037  44.773   8.928  11.494
11455W        W83038   0.966  18.185   1.859
11456W        W83039  21.175   3.970   3.799
11457W        W83040   6.841  19.280   0.359
11458W        W83041  14.180  15.525  14.384
11459W        W83042  29.156   8.096   3.040
11460W        W83043   2.238  28.232   4.150
11461W        W83044  39.191  11.887  11.903
11462W        W83045   3.263  13.216  12.085
11463W        W83046  31.902  17.541  11.951
11464W        W83047  20.019  10.104  10.855
11465W        W83048   2.298  30.529  12.012
11466W        W83049  44.401  25.732   2.205
11467W        W83050  34.483   4.766  10.628
11468W        W83051  40.066  22.908  12.091
11469W        W83052  44.550  25.615  12.376
11470W        W83053  28.535  43.466   0.862
11471W        W83054   9.471  15.400   1.886
11472W        W83055  31.558  25.992   4.851
11473W        W83056  30.995  34.496  11.464
11474W        W83057   4.359  12.061   1.470
11475W        W83058  38.134   8.294   3.585
11476W        W83059  11.211  42.594   2.528
11477W        W83060  42.983  35.437   1.406
11478W        W83061  44.483  40.696   4.539
11479W        W83062   1.968  26.190  14.313
11480W        W83063  29.578  42.055   2.657
11481W        W83064   4.404  28.085  14.073
11482W        W83065  22.310  28.029   9.792
11483W        W83066  41.460   8.593  14.356
11484W        W83067  17.728  19.709  13.610
11485W        W83068  20.154  14.097  12.993
11486W        W83069  41.247  30.635   3.087
11487W        W83070  28.678  31.990  12.485
11488W        W83071   5.827  27.088  13.618
11489W        W83072  40.464  11.319   0.179
11490W        W83073  35.966  11.799  13.331
11491W        W83074  12.371  13.212   0.228
11492W        W83075   6.132  40.872   2.547
11493W        W83076  37.826  29.315   5.033
11494W        W83077  42.576   2.592  10.909
11495W        W83078   0.296  31.324   1.544
11496W        W83079   0.492   3.374   0.778
11497W        W83080   7.843   4.754   4.047
11498W        W83081  28.535   2.017   0.834
11499W        W83082  16.886  38.495  12.003
11500W        W83083  40.571  35.901  12.854
11501W        W83084  35.040  26.973  12.937
11502W        W83085  17.812   6.326   3.883
11503W        W83086  32.415   6.118   3.087
11504W        W83087  24.960  40.565   3.261
11505W        W83088  36.604  22.697  12.000
11506W        W83089  14.304  19.617   0.557
11507W        W83090  24.840  20.224   2.600
11508W        W83091  20.757   1.729  10.642
11509W        W83092  41.367  33.408   3.572
11510W        W83093  21.541  44.381  12.535
11511W        W83094  41.053  25.969   3.573
11512W        W83095   9.892  41.120   2.693
11513W        W83096  39.494  11.168   1.921
11514W        W83097  44.819  34.956   3.321
11515W        W83098  42.491  26.924   3.314
11516W        W83099  20.451   1.542   4.145
11517W        W83100  13.684   4.833  12.095
11518W        W83101  31.955   9.623  14.275
11519W        W83102  39.876   1.723  12.836
11520W        W83103  28.181  24.090   1.071
11521W        W83104  19.629  33.313   3.261
11522W        W83105   2.889  40.796   4.221
11523W        W83106  23.573  41.505  11.571
11524W        W83107  33.172  44.972   0.688
11525W        W83108  14.671  38.720   4.742
11526W        W83109  35.412  15.529  14.933
11527W        W83110  39.845   4.724   0.570
11528W        W83111  11.268  11.109   2.791
11529W        W83112  42.542  17.194   2.628
11530W        W83113  40.615  17.183   2.690
11531W        W83114  28.182  23.359   1.566
11532W        W83115   2.172  38.436  11.503
11533W        W83116  15.135   3.951   2.802
11534W        W83117  26.104  24.886  13.841
11535W        W83118  16.427  20.207   2.888
11536W        W83119  19.178  32.383  10.548
11537W        W83120   4.711  10.416   0.328
11538W        W83121  11.334  34.033   2.232
11539W        W83122  26.542  14.314  14.325
11540W        W83123  12.885  25.258   0.474
11541W        W83124  37.297   5.719   4.134
11542W        W83125  30.887   2.368   0.832
11543W        W83126  11.618  13.715  11.148
11544W        W83127   2.208  44.091  12.606
11545W        W83128   9.810  40.914  14.831
11546W        W83129  21.146  41.959  11.275
11547W        W83130   3.249  24.251  13.886
11548W        W83131  33.543  38.833  13.833
11549W        W83132  39.356  24.470   2.107
11550W        W83133  30.921  37.816   1.447
11551W        W83134  40.504  24.668   3.144
11552W        W83135  40.959  26.673  12.832
11553W        W83136   6.921  38.507  10.859
11554W        W83137  18.171  21.890  13.948
11555W        W83138  11.071  36.888   0.248
11556W        W83139   4.323  26.239  12.011
11557W        W83140  11.246  17.969  11.809
11558W        W83141  18.756   8.929  14.785
11559W        W83142  35.107   8.454   3.630
11560W        W83143  40.364  35.481  12.602
11561W        W83144  44.602  10.778   0.257
11562W        W83145  27.245  10.234   1.319
11563W        W83146  29.677  43.690  12.172
11564W        W83147  23.349  31.807  12.178
11565W        W83148  12.930  31.054  12.044
11566W        W83149  36.994  44.362   3.808
11567W        W83150  43.998  20.020  13.752
11568W        W83151  40.375  33.080   3.350
11569W        W83152  36.117  27.491   1.802
11570W        W83153  44.876  20.188   3.526
11571W        W83154  12.061  33.615  14.008
11572W        W83155  28.334  26.220   3.160
11573W        W83156  25.399  10.156   3.315
11574W        W83157  13.814  21.997   2.303
11575W        W83158   5.846   2.795   1.818
11576W        W83159   9.321   7.835   0.336
11577W        W83160   6.317  20.604   3.805
11578W        W83161   9.137  28.208  10.933
11579W        W83162  35.861  26.755   4.615
11580W        W83163   7.111  44.042   4.585
11581W        W83164  29.953  26.269  14.371
11582W        W83165  13.815   0.374   2.346
11583W        W83166  12.728  41.103   4.280
11584W        W83167   6.001  20.528   2.200
11585W        W83168  27.926   9.326   4.845
11586W        W83169  39.949  30.950   3.833
11587W        W83170  30.200  43.395   1.247
11588W        W83171   3.209  11.736  12.003
11589W        W83172  35.150  21.099  14.908
11590W        W83173  22.258  33.110  10.741
11591W        W83174  44.995  18.776   3.691
11592W        W83175  15.422   8.135   3.194
11593W        W83176  30.089  20.241   9.803
11594W        W83177  22.570  32.933  11.208
11595W        W83178  35.863   8.091  14.573
11596W        W83179   4.532  39.386  11.582
11597W        W83180  23.090  44.850  13.807
11598W        W83181  16.176  15.138  12.371
11599W        W83182  28.924  20.722   0.827
11600W        W83183  10.417  35.667   0.082
11601W        W83184  19.678  34.006  12.566
11602W        W83185  32.591  43.531   2.652
11603W        W83186  31.540  34.562  11.484
11604W        W83187  35.009  27.598  14.958
11605W        W83188  25.051   0.433  11.878
11606W        W83189  15.272  16.134  12.035
11607W        W83190  12.287   5.377   2.048
11608W        W83191  43.845  31.096   4.341
11609W        W83192  30.886  20.728  10.610
11610W        W83193  18.760  25.087  11.269
11611W        W83194  44.853  42.265  11.403
11612W        W83195  33.126  44.349  12.579
11613W        W83196   5.967  27.027  11.884
11614W        W83197  14.582  38.451  12.863
11615W        W83198  30.231   2.146   3.588
11616W        W83199  17.964  18.835  12.436
11617W        W83200  25.688  44.454   2.272
11618W        W83201  27.551  42.581   1.216
11619W        W83202   2.398  14.363  14.848
11620W        W83203  43.485   1.008   3.165
11621W        W83204  38.296   5.211  14.898
11622W        W83205  31.379  18.730  12.536
11623W        W83206  25.033  24.986   3.183
11624W        W83207  40.268  27.677   0.511
11625W        W83208  37.633  18.611   3.624
11626W        W83209   7.413  40.898   0.835
11627W        W83210  39.269   3.880  13.080
11628W        W83211  18.759  30.305   0.894
11629W        W83212  15.755  25.727   1.256
11630W        W83213  20.268  15.038   1.644
11631W        W83214  12.081   4.874   4.812
11632W        W83215  18.576  11.686  12.981
11633W        W83216  30.189  13.289  11.671
11634W        W83217   9.065  25.916  11.167
11635W        W83218  43.261  22.084  10.760
11636W        W83219   9.726   5.626   3.760
11637W        W83220  10.335   7.689   4.093
11638W        W83221  37.018  28.747  13.735
11639W        W83222   2.890  21.665  11.092
11640W        W83223  32.047   3.232   3.515
11641W        W83224   9.237  26.488  11.952
11642W        W83225   6.808   5.183   1.283
11643W        W83226  33.401   0.364   0.952
11644W        W83227  33.543  44.811   4.283
11645W        W83228   3.909  40.082  12.209
11646W        W83229  32.462   0.310  14.245
11647W        W83230  38.417  23.420   1.221
11648W        W83231  43.532  37.539   3.626
11649W        W83232  27.126  44.818   0.781
11650W        W83233  37.372  12.172   1.258
11651W        W83234  34.667  15.599   2.720
11652W        W83235   5.562  36.595  14.181
11653W        W83236  24.218  18.797   0.243
11654W        W83237  23.018  39.427  11.923
11655W        W83238   2.907  26.460   4.147
11656W        W83239  32.117  38.952  12.958
11657W        W83240  11.376   2.879   0.785
11658W        W83241  26.977   8.687  13.534
11659W        W83242  29.525  26.489   4.949
11660W        W83243  10.883  12.617  13.879
11661W        W83244  24.548  39.996   0.004
11662W        W83245  25.078  29.678  12.568
11663W        W83246  12.232  26.022   0.979
11664W        W83247  18.071  44.050  13.981
11665W        W83248  33.169   4.743   3.200
11666W        W83249  32.169  33.594  12.047
11667W        W83250  19.066   8.185   1.785
11668W        W83251  21.565  34.700  14.788
11669W        W83252   7.726  42.945   5.075
11670W        W83253  15.623  25.399  11.899
11671W        W83254  30.045  21.124   4.317
11672W        W83255  20.484  26.653  10.665
11673W        W83256  40.026  38.302   2.451
11674W        W83257  33.701  42.034   1.813
11675W        W83258  16.109  20.690   1.288
11676W        W83259  17.822  12.639  10.626
11677W        W83260   1.992   7.245   0.098
11678W        W83261  12.650  15.854   3.251
11679W        W83262   2.980  22.741   4.128
11680W        W83263  21.694  17.187  14.491
11681W        W83264  14.247   3.745   2.804
11682W        W83265   0.802   5.772  11.014
11683W        W83266  37.570  42.925   2.274
11684W        W83267  14.086  39.797  13.592
11685W        W83268   8.315  38.651  11.085
11686W        W83269  40.826  29.895   4.594
11687W        W83270  25.129  43.665   3.743
11688W        W83271  21.187  33.472   1.263
11689W        W83272  13.356  15.082  13.478
11690W        W83273   2.618  10.578   3.687
11691W        W83274  35.914  21.514   3.182
11692W        W83275  13.369  13.801  12.113
11693W        W83276   2.358  42.502  14.465
11694W        W83277  40.234  16.526  10.930
11695W        W83278   2.655  44.001  14.344
11696W        W83279  38.524  33.939  10.926
11697W        W83280  44.908   5.191   4.936
11698W        W83281  41.460  44.162   2.841
11699W        W83282  32.626  43.904  13.607
11700W        W83283  34.488  36.048   2.566
11701W        W83284  18.765  25.918  12.140
11702W        W83285  10.377  21.653   4.554
11703W        W83286   1.021  43.840   3.318
11704W        W83287  17.767  12.216  12.060
11705W        W83288  25.374  17.070   1.634
11706W        W83289  39.356  16.834  11.068
11707W        W83290  22.336  23.076   1.020
11708W        W83291  44.367  36.021   3.678
11709W        W83292  14.782  24.237  12.193
11710W        W83293  14.066  27.574  14.816
11711W        W83294  24.774   2.078  12.368
11712W        W83295  26.557  11.257  11.875
11713W        W83296  34.485  13.598  11.519
11714W        W83297  32.546  13.543  11.548
11715W        W83298   4.318  10.779  14.557
11716W        W83299  10.187   3.856   1.939
11717W        W83300  16.643   2.903   1.481
11718W        W83301   7.622  40.805   4.101
11719W        W83302   6.401  22.284   3.755
11720W        W83303  39.811  38.005   0.362
11721W        W83304  20.460  14.181  13.803
11722W        W83305  30.133   9.303  10.627
11723W        W83306  26.667  21.498   3.759
11724W        W83307  19.238   9.428   4.593
11725W        W83308  12.739  32.881  14.853
11726W        W83309  34.592  26.187  14.663
11727W        W83310  23.781   4.027   2.013
11728W        W83311  13.189  44.873  14.678
11729W        W83312   7.626  16.592  13.827
11730W        W83313  13.126  11.662  10.582
11731W        W83314  14.034  13.213  11.808
11732W        W83315  19.309  34.449  11.467
11733W        W83316  10.252  29.362  13.439
11734W        W83317   0.739  11.225  12.409
11735W        W83318  12.253  43.471   2.318
11736W        W83319  23.800  40.757   2.667
11737W        W83320   7.939   1.565   1.972
11738W        W83321  44.006  15.707  11.124
11739W        W83322   9.703  24.357  14.133
11740W        W83323  23.455  20.076   1.180
11741W        W83324  11.849  15.168  10.770
11742W        W83325  18.815  19.036  11.056
11743W        W83326  17.787   6.141   4.765
11744W        W83327  32.635  37.593   0.773
11745W        W83328  14.094   3.182  13.909
11746W        W83329   2.809  23.217  10.816
11747W        W83330   6.161  25.975  10.882
11748W        W83331  43.517  43.394  11.896
11749W        W83332  41.607  17.886  11.052
11750W        W83333   3.422  35.071   2.478
11751W        W83334   3.116  27.158   3.280
11752W        W83335  31.704  24.623   3.885
11753W        W83336  32.654  14.158   2.701
11754W        W83337  16.380  10.686  13.511
11755W        W83338  32.610  20.394   9.871
11756W        W83339  35.116  14.749  13.467
11757W        W83340  15.701  11.177   4.338
11758W        W83341  25.196  18.512   0.300
11759W        W83342  12.309   5.889   4.634
11760W        W83343  33.026  32.982   2.555
11761W        W83344  21.673  19.058  12.475
11762W        W83345   7.436   0.930   3.270
11763W        W83346  24.208  15.532  13.901
11764W        W83347  11.216  26.036  12.859
11765W        W83348  31.433  14.151  11.991
11766W        W83349  13.181  21.780  14.460
11767W        W83350  43.050  25.737   0.026
11768W        W83351  40.478   3.748   1.868
11769W        W83352  39.374  16.334  11.097
11770W        W83353   5.808   1.157  12.989
11771W        W83354  37.512  32.371   4.191
11772W        W83355  15.728  30.899   2.399
11773W        W83356  22.442  26.717   4.604
11774W        W83357  19.790  41.295   1.762
11775W        W83358  14.736  44.096   0.789
11776W        W83359  17.354  18.269  11.560
11777W        W83360   1.797  11.446  13.860
11778W        W83361  17.379  13.547  13.782
11779W        W83362  23.948   3.226   0.924
11780W        W83363  32.984  17.242   0.773
11781W        W83364  25.082  10.730   4.652
11782W        W83365   6.613   6.216   0.833
11783W        W83366  42.509  35.320   3.043
11784W        W83367   2.314  27.836   2.101
11785W        W83368  23.259   9.716   9.756
11786W        W83369  25.291  28.179  11.201
11787W        W83370  18.480   4.508  10.314
11788W        W83371  37.009  21.716   1.298
11789W        W83372  36.134  25.077   0.592
11790W        W83373  24.511  24.123   4.464
11791W        W83374  31.650   1.926  14.923
11792W        W83375  14.198  31.681  11.005
11793W        W83376  32.541  42.080   4.632
11794W        W83377  15.650  32.038   3.735
11795W        W83378  38.912  17.073   4.151
11796W        W83379  23.636  42.786  14.892
11797W        W83380  35.504  13.077  10.597
11798W        W83381  36.447  20.695  10.821
11799W        W83382   8.848  19.743  11.482
11800W        W83383  43.738  28.210   1.793
11801W        W83384  15.889  12.102   0.268
11802W        W83385  19.185  38.506   1.635
11803W        W83386  15.309   2.598  11.533
11804W        W83387  14.359  40.746  13.869
11805W        W83388  27.062  13.023  10.966
11806W        W83389   0.544  37.387  10.761
11807W        W83390  24.150  19.368   3.216
11808W        W83391  39.110  18.060  13.575
11809W        W83392   6.436  37.488   4.637
11810W        W83393  11.163  23.038   3.697
11811W        W83394  39.538  21.608  11.335
11812W        W83395  18.687  25.229   0.368
11813W        W83396  29.871   4.916  14.370
11814W        W83397  25.060  27.257  12.435
11815W        W83398   8.182  25.606   3.690
11816W        W83399  41.924  20.521  11.616
11817W        W83400  41.913   9.351   0.336
11818W        W83401   0.971   9.360   4.982
11819W        W83402  35.663  33.455   2.871
11820W        W83403  25.504  35.518   0.477
11821W        W83404  19.707  24.194  10.197
11822W        W83405  13.496  14.385  11.475
11823W        W83406   9.734   2.861  11.612
11824W        W83407  29.997   3.361   2.727
11825W        W83408  42.388  39.857  14.748
11826W        W83409   9.354  42.913  12.314
11827W        W83410   5.334   2.294  12.063
11828W        W83411  17.200  25.892  12.044
11829W        W83412   1.242  41.036   4.163
11830W        W83413  18.596   9.562  11.323
11831W        W83414  20.537  32.204   3.798
11832W        W83415  12.853  27.803  12.867
11833W        W83416  36.473   4.540   0.238
11834W        W83417   0.876  41.781   3.830
11835W        W83418  14.750  12.422  14.016
11836W        W83419  38.076  11.600  12.885
11837W        W83420  43.109  37.863   2.167
11838W        W83421  39.821  36.884  10.719
11839W        W83422   3.852  10.735  14.320
11840W        W83423  33.986  43.521   0.943
11841W        W83424   9.270  30.178  13.947
11842W        W83425   4.674  14.692   2.977
11843W        W83426  21.458   2.212   3.291
11844W        W83427  30.489  24.630  10.476
11845W        W83428  20.528   7.783   0.942
11846W        W83429  25.391  30.429  10.687
11847W        W83430  12.194  33.519  12.906
11848W        W83431  32.086  19.596  10.304
11849W        W83432  40.933  37.121  11.826
11850W        W83433  15.756  23.849  11.978
11851W        W83434  34.545  39.295  12.060
11852W        W83435  25.276  25.548   2.790
11853W        W83436  17.144  40.299   4.185
11854W        W83437  32.068  41.443  13.553
11855W        W83438  20.599  38.739  14.432
11856W        W83439  12.698  22.644  12.999
11857W        W83440   9.067  16.340   1.903
11858W        W83441   6.713  42.670   0.811
11859W        W83442   1.086  32.996   1.622
11860W        W83443  21.304  14.332   3.864
11861W        W83444  12.717  20.502   1.273
11862W        W83445  26.977   8.260   2.543
11863W        W83446  32.079  14.777  12.093
11864W        W83447  18.286  27.631  13.095
11865W        W83448  33.308  22.236  13.340
11866W        W83449  34.157  29.727   2.914
11867W        W83450  41.226   0.951   3.780
11868W        W83451   7.830   9.600   4.509
11869W        W83452  10.184  27.194   2.081
11870W        W83453  29.531  13.721  12.851
11871W        W83454  17.322  24.032   5.043
11872W        W83455  12.206  11.850   1.459
11873W        W83456  44.241  29.377   1.398
11874W        W83457  37.766  12.544  10.102
11875W        W83458  36.995  25.193   2.725
11876W        W83459  20.369  44.733   1.923
11877W        W83460   6.212  10.236   2.807
11878W        W83461   5.185  10.292  10.702
11879W        W83462  30.122  41.746  14.460
11880W        W83463   5.871  28.407  14.275
11881W        W83464   0.405  30.131   3.185
11882W        W83465  18.595   1.864   0.374
11883W        W83466  20.247  10.962  10.808
11884W        W83467  35.791  29.071   3.439
11885W        W83468  31.539  12.872  12.560
11886W        W83469   5.282  11.092   2.820
11887W        W83470   9.359  34.384  10.808
11888W        W83471  12.934   2.812  13.375
11889W        W83472  38.594   4.259   4.279
11890W        W83473  26.244  19.607   4.637
11891W        W83474  32.900   9.790  11.343
11892W        W83475  21.065  24.777  10.432
11893W        W83476  29.169  14.636   3.062
11894W        W83477   3.149  22.599   0.506
11895W        W83478  44.945  19.333  12.100
11896W        W83479  15.155   0.278   4.444
11897W        W83480   0.635  30.135  13.314
11898W        W83481  44.723   1.524   3.719
11899W        W83482   8.396  10.344  12.417
11900W        W83483  17.103  37.453   4.539
11901W        W83484   6.751  42.039  13.508
11902W        W83485  39.037  30.917   2.243
11903W        W83486   6.886  26.644  13.912
11904W        W83487  14.378  30.627  13.901
11905W        W83488  14.298   8.355   0.813
11906W        W83489  22.750  12.236  11.565
11907W        W83490  35.325  11.680   0.986
11908W        W83491  40.527  41.255   1.732
11909W        W83492  37.291  31.538  13.052
11910W        W83493  27.435  37.760  10.990
11911W        W83494  23.533  18.135   2.845
11912W        W83495  42.388  21.672   3.112
11913W        W83496   0.804  22.765   4.405
11914W        W83497  10.877   1.997  14.490
11915W        W83498   5.441   4.321   2.335
11916W        W83499   5.459  27.747   2.235
11917W        W83500  28.976  17.560  12.051
11918W        W83501  42.850   6.917   3.627
11919W        W83502  11.120  14.001  11.822
11920W        W83503  36.519  16.324  13.517
11921W        W83504   7.925  23.559  14.865
11922W        W83505   6.385   3.364   2.165
11923W        W83506  15.845  40.390  13.900
11924W        W83507   0.781  39.476   2.805
11925W        W83508  15.048   9.946   4.060
11926W        W83509  30.558  42.988   1.195
11927W        W83510  41.062  41.658  11.692
11928W        W83511  29.696  31.265   0.435
11929W        W83512   5.891  15.379   3.886
11930W        W83513   8.692  20.808  14.784
11931W        W83514  44.976  19.193  10.447
11932W        W83515  39.414  12.772   1.339
11933W        W83516  34.817  13.606  11.088
11934W        W83517  30.677  43.258  13.568
11935W        W83518  33.753  34.017   3.936
11936W        W83519  15.090  31.395  14.234
11937W        W83520  17.108  15.816   3.113
11938W        W83521  20.083  35.451  12.158
11939W        W83522  38.349   6.042  14.378
11940W        W83523  29.686  14.647   1.995
11941W        W83524   7.587  19.091  14.561
11942W        W83525  37.438  14.922   5.036
11943W        W83526   4.220   7.132  13.864
11944W        W83527  19.123  30.580   0.636
11945W        W83528  17.655  44.822  11.930
11946W        W83529  15.141  28.852   1.804
11947W        W83530  25.021  25.551   2.327
11948W        W83531  20.545  22.666  12.073
11949W        W83532  24.160   0.893  10.952
11950W        W83533  25.047  14.874  12.095
11951W        W83534  40.842   6.312   4.580
11952W        W83535  38.418  16.380   0.835
11953W        W83536  30.282  22.701  10.651
11954W        W83537   6.187  22.789   2.849
11955W        W83538  21.072  24.171   2.762
11956W        W83539  11.079  44.832  13.304
11957W        W83540   4.145  40.942   4.504
11958W        W83541  28.917   0.438   1.869
11959W        W83542  23.759   6.021  11.429
11960W        W83543  28.654  15.176   3.283
11961W        W83544  34.643   2.059   1.377
11962W        W83545  18.505  37.325  10.818
11963W        W83546  35.341  21.580  14.885
11964W        W83547  33.368  31.115  14.435
11965W        W83548  10.320  24.962   4.624
11966W        W83549   4.949  11.112   1.301
11967W        W83550  34.436  41.002   0.699
11968W        W83551  44.565  23.463  11.743
11969W        W83552  27.965  26.690  12.932
11970W        W83553  10.705  18.134   4.595
11971W        W83554  31.485  12.796  11.663
11972W        W83555  31.925  44.460   4.076
11973W        W83556  30.988  33.861  12.645
11974W        W83557   1.191  25.529  13.342
11975W        W83558  34.740  31.935   4.180
11976W        W83559  40.039  29.179   1.343
11977W        W83560  36.741  20.926  14.528
11978W        W83561  37.946  36.911   3.100
11979W        W83562  25.236  36.869   1.831
11980W        W83563  16.629  18.072   0.467
11981W        W83564   6.153   7.706   1.892
11982W        W83565   2.338  33.081   4.162
11983W        W83566   0.879   3.867   4.218
11984W        W83567  28.426  26.657  11.600
11985W        W83568   8.199  29.490   1.801
11986W        W83569   7.083  12.152  13.526
11987W        W83570   9.721  28.770  10.669
11988W        W83571  43.323  32.534   0.474
11989W        W83572   9.828  26.021   2.891
11990W        W83573  19.704  33.609  12.923
11991W        W83574  32.422  32.528  13.768
11992W        W83575  31.223  23.622   4.472
11993W        W83576  17.525  14.752  12.578
11994W        W83577   5.648  20.627  11.903
11995W        W83578   2.434  38.361   1.284
11996W        W83579  37.871  35.854  10.685
11997W        W83580  30.489  23.262  14.583
11998W        W83581   9.631  17.193  14.361
11999W        W83582   0.191   2.017  14.920
12000W        W83583  13.278  41.626  10.297
12001W        W83584  26.127  30.859  12.170
12002W        W83585  14.176  38.304   3.918
12003W        W83586   2.733  38.693   4.187
12004W        W83587  32.882  39.279  12.542
12005W        W83588   8.715  14.805   2.782
12006W        W83589  16.121  19.015  10.938
12007W        W83590   7.218  27.980   0.023
12008W        W83591  42.493  42.408  13.025
12009W        W83592  44.472   3.224   2.074
12010W        W83593   0.507  35.855  10.640
12011W        W83594   2.200  30.333  12.472
12012W        W83595  41.471  14.982   3.864
12013W        W83596  20.517   4.470  12.419
12014W        W83597  31.207  32.947   0.673
12015W        W83598  39.399  39.760  11.639
12016W        W83599  30.879  43.057   2.158
12017W        W83600  38.111  14.563   3.735
12018W        W83601   7.991  30.057   4.718
12019W        W83602  44.955  34.083  13.804
12020W        W83603   6.237   4.974   1.337
12021W        W83604   1.806   6.453   4.612
12022W        W83605  34.496  38.089   4.696
12023W        W83606   1.389  39.884  12.349
12024W        W83607  12.032  36.370   4.193
12025W        W83608  24.979  41.070  11.007
12026W        W83609  39.535  26.930  12.552
12027W        W83610  21.623  31.945  10.229
12028W        W83611  18.274  39.154  13.563
12029W        W83612  36.228   9.076   4.665
12030W        W83613  33.484  12.323   3.309
12031W        W83614   4.666  26.999  12.974
12032W        W83615  10.319  38.843   0.939
12033W        W83616   2.501   3.136  13.952
12034W        W83617  27.533  20.988  11.432
12035W        W83618  31.176  17.053  11.512
12036W        W83619  40.073  34.384   0.828
12037W        W83620  18.764  37.968  14.012
12038W        W83621  31.017  43.416  10.882
12039W        W83622  21.471  17.175  10.426
12040W        W83623   4.406  34.594   3.174
12041W        W83624  36.652   2.836  13.484
12042W        W83625  19.419  43.440  12.503
12043W        W83626  17.065  32.379   3.343
12044W        W83627  40.051  34.476  11.608
12045W        W83628   8.771  41.434  10.503
12046W        W83629  11.201  38.875   0.026
12047W        W83630  15.723  34.483   1.820
12048W        W83631  37.529  26.789  14.424
12049W        W83632  24.442  29.627   0.835
12050W        W83633  39.525  41.490  12.069
12051W        W83634  36.011  25.177   0.059
12052W        W83635  34.540  27.559   3.738
12053W        W83636  36.779  37.138   3.614
12054W        W83637  43.673  14.745  13.545
12055W        W83638  39.326  28.209   2.757
12056W        W83639  25.544  23.814  14.355
12057W        W83640  22.679  19.757  11.140
12058W        W83641  11.170  34.561   2.978
12059W        W83642   6.871  36.569   3.774
12060W        W83643  43.417  27.419   2.195
12061W        W83644   4.924  13.607   4.668
12062W        W83645  13.672  11.987  12.479
12063W        W83646   5.965  17.499   1.321
12064W        W83647  27.942  20.748   1.860
12065W        W83648  20.348  20.118  13.464
12066W        W83649  18.814  41.698   1.144
12067W        W83650  20.568   2.155  13.490
12068W        W83651  13.140  16.474  12.118
12069W        W83652  15.543  40.811   2.789
12070W        W83653  29.623  21.886   3.147
12071W        W83654   4.955   1.234  12.499
12072W        W83655  13.930   5.896  13.983
12073W        W83656  40.955   8.349   2.814
12074W        W83657  21.041  26.099  11.126
12075W        W83658  41.880   2.929  14.328
12076W        W83659  40.800  26.406  10.685
12077W        W83660   6.302  12.125  12.518
12078W        W83661  10.834   2.412   1.346
12079W        W83662  15.139  14.945  11.436
12080W        W83663   4.405  15.275  13.861
12081W        W83664  30.915  42.081  13.900
12082W        W83665   4.204  12.276  13.615
12083W        W83666  34.282   6.887  11.070
12084W        W83667  24.907  27.181   0.376
12085W        W83668  19.243   9.175   4.155
12086W        W83669  31.360  37.758  14.312
12087W        W83670  40.285  41.274  13.720
12088W        W83671  39.518  21.590   0.875
12089W        W83672  42.306  11.574   4.538
12090W        W83673   1.278  34.648   4.990
12091W        W83674  29.057  15.832  12.421
12092W        W83675  25.663  31.440   3.022
12093W        W83676  33.140  15.291  14.739
12094W        W83677  33.197   7.609   1.179
12095W        W83678   8.956  21.237  11.543
12096W        W83679  16.595   1.552  13.265
12097W        W83680  38.476  31.012  12.781
12098W        W83681  24.758   6.217   3.252
12099W        W83682  38.014  41.522  12.115
12100W        W83683  19.100   7.400   2.642
12101W        W83684  16.345  13.289  12.889
12102W        W83685  44.313  17.191  13.867
12103W        W83686  41.492  39.408  13.813
12104W        W83687  30.106  41.491   0.331
12105W        W83688  39.524  37.730   0.010
12106W        W83689  32.571  43.828  11.923
12107W        W83690  32.252  42.008   5.061
12108W        W83691  39.316  27.761   4.549
12109W        W83692  32.713  14.895   3.649
12110W        W83693  10.312  28.043  11.524
12111W        W83694  20.760   6.930  12.125
12112W        W83695  41.004  19.561  14.885
12113W        W83696  37.025  28.706   4.209
12114W        W83697  28.411  19.775   1.443
12115W        W83698  26.588   4.233  10.356
12116W        W83699  44.165  33.068   3.794
12117W        W83700   5.413  14.455   2.142
12118W        W83701  31.878  20.983  14.295
12119W        W83702  40.794  32.912   0.011
12120W        W83703  24.418  35.761   0.058
12121W        W83704  22.714  16.364   0.993
12122W        W83705  33.809   0.939   4.697
12123W        W83706  39.257  41.391   3.091
12124W        W83707  15.381  32.123  13.993
12125W        W83708   7.359  25.095  13.905
12126W        W83709   6.921  14.171  11.829
12127W        W83710  24.326  30.155  14.872
12128W        W83711   1.868  20.741   4.679
12129W        W83712  20.775   2.520  14.816
12130W        W83713  41.419  35.380  11.820
12131W        W83714  17.490  24.023   1.895
12132W        W83715  15.697   4.740  14.804
12133W        W83716  35.344  18.338  10.748
12134W        W83717  35.670   1.834  14.811
12135W        W83718  25.230  24.036   2.384
12136W        W83719  15.076   8.193   1.422
12137W        W83720  22.219  35.821  13.324
12138W        W83721  10.723  37.560   4.701
12139W        W83722  35.500  41.505  12.498
12140W        W83723  40.252  14.345  11.179
12141W        W83724   2.718  23.952   4.127
12142W        W83725  30.165  11.994  12.571
12143W        W83726  32.985  20.694   2.855
12144W        W83727  38.117  30.772  11.051
12145W        W83728  34.606  35.581   2.755
12146W        W83729  14.848  31.000   3.461
12147W        W83730  42.032  30.720   1.735
12148W        W83731  32.072  44.264   1.733
12149W        W83732  23.534  15.761  12.838
12150W        W83733  19.721  32.823  10.710
12151W        W83734   5.470   7.546  14.962
12152W        W83735  43.553  28.610   2.471
12153W        W83736  27.028  19.068  13.349
12154W        W83737  29.949   2.493   2.633
12155W        W83738   8.395  43.375   2.334
12156W        W83739  35.781  33.549   0.682
12157W        W83740  39.596   8.372   3.696
12158W        W83741  13.784  44.438   1.357
12159W        W83742   5.665   7.722   0.953
12160W        W83743  20.787  10.170   1.213
12161W        W83744  21.966  18.998  12.909
12162W        W83745  26.659  31.210   2.505
12163W        W83746   2.720  15.147   3.140
12164W        W83747   6.828  11.477   1.071
12165W        W83748  24.420  19.224  14.422
12166W        W83749  16.938   4.885  12.911
12167W        W83750  27.722   4.663   4.218
12168W        W83751  17.071  31.979  11.208
12169W        W83752   1.154  21.295  11.880
12170W        W83753  35.961  13.310   3.617
12171W        W83754  16.731  32.857   0.844
12172W        W83755   7.919  32.371   1.871
12173W        W83756  15.759  21.537   2.839
12174W        W83757  16.202  18.332   2.676
12175W        W83758  26.517  12.425   9.850
12176W        W83759  41.345   5.371   3.798
12177W        W83760   3.802  38.800   9.789
12178W        W83761  15.514  18.523  13.256
12179W        W83762  11.789   5.896   4.535
12180W        W83763   7.261  11.312   0.820
12181W        W83764   4.200  37.444   0.723
12182W        W83765  25.651  24.855   1.942
12183W        W83766  13.680  20.162  10.669
12184W        W83767  19.352  23.608   4.083
12185W        W83768  18.502  41.432   2.119
12186W        W83769   9.115  30.357   4.207
12187W        W83770  14.751  10.618   1.220
12188W        W83771  37.380  18.081   1.887
12189W        W83772  36.493  36.363   0.981
12190W        W83773  31.670  33.158  11.500
12191W        W83774  23.555   6.638   1.331
12192W        W83775  30.455  43.810  13.545
12193W        W83776  37.385  43.758   1.740
12194W        W83777   0.718  44.889  14.996
12195W        W83778   5.340  40.259  11.074
12196W        W83779   7.726  32.683   3.327
12197W        W83780  44.413  38.767  13.741
12198W        W83781  34.941   5.364   3.245
12199W        W83782   4.015  14.138  14.055
12200W        W83783   8.700  26.709  14.884
12201W        W83784  38.524  11.855   2.249
12202W        W83785   5.163  30.156   3.234
12203W        W83786  31.855  30.362   3.363
12204W        W83787   7.752  21.007  14.977
12205W        W83788  13.699   4.955  13.553
12206W        W83789  44.557  21.108   4.688
12207W        W83790  16.535  34.922   3.627
12208W        W83791  23.575  40.273  13.477
12209W        W83792   8.505  39.488   3.863
12210W        W83793  22.501   2.876   4.654
12211W        W83794  16.277  10.814   0.359
12212W        W83795  31.062  30.653  14.347
12213W        W83796  11.690   5.363   1.388
12214W        W83797  34.386  12.820   4.136
12215W        W83798  37.930  20.985   3.568
12216W        W83799  29.986  17.717   2.507
12217W        W83800  12.613  11.307  14.413
12218W        W83801  38.447  40.371   2.524
12219W        W83802   0.536  27.338   2.677
12220W        W83803  19.135  44.897  10.736
12221W        W83804   3.212  25.031  14.272
12222W        W83805   7.203  44.780  14.968
12223W        W83806  21.624  43.106   4.029
12224W        W83807  11.891  28.618  12.340
12225W        W83808  29.846   8.214   4.040
12226W        W83809  17.590  35.598  12.927
12227W        W83810  29.580   0.848   1.920
12228W        W83811  10.961  38.996   4.600
12229W        W83812  16.281  33.096   3.139
12230W        W83813  25.745  26.102  13.499
12231W        W83814   5.930  43.966   0.730
12232W        W83815  10.356  14.664  10.683
12233W        W83816  36.273  20.095  14.764
12234W        W83817   2.253  37.404  13.870
12235W        W83818  12.763  18.332   1.749
12236W        W83819  24.771  29.560   3.156
12237W        W83820   9.996  18.022   2.319
12238W        W83821  38.488  12.535   2.819
12239W        W83822   5.552   2.220  13.431
12240W        W83823  38.516   1.907   4.045
12241W        W83824  28.273  29.818   1.693
12242W        W83825  18.951   1.458   4.106
12243W        W83826  34.997  27.620   4.028
12244W        W83827  18.920  25.802  13.782
12245W        W83828  39.739  10.764   4.238
12246W        W83829  19.746  44.356  14.378
12247W        W83830   3.994  42.866  12.501
12248W        W83831   0.482   1.416  13.890
12249W        W83832   5.680  16.403   3.943
12250W        W83833   5.025  26.971  11.065
12251W        W83834  12.325  38.013  14.479
12252W        W83835  33.702  41.770   4.229
12253W        W83836  25.159  10.457  14.510
12254W        W83837  11.297  33.860  11.961
12255W        W83838  10.950  17.739  11.451
12256W        W83839  28.248  29.456   2.871
12257W        W83840  44.719  32.526   1.238
12258W        W83841  32.400  25.239   3.832
12259W        W83842  12.601   8.596  10.453
12260W        W83843   4.405  18.743   4.972
12261W        W83844   2.775   8.571   2.345
12262W        W83845  30.426  10.280  11.444
12263W        W83846  33.843  10.741  11.532
12264W        W83847  34.655  20.213  11.170
12265W        W83848  42.930  33.976   4.419
12266W        W83849  28.569  41.933  11.704
12267W        W83850   9.776  44.997   4.216
12268W        W83851  21.696  26.039   0.101
12269W        W83852  37.941  21.564  10.734
12270W        W83853  14.704  22.997   0.071
12271W        W83854  37.888  43.569   2.154
12272W        W83855  40.819  19.767   4.900
12273W        W83856  38.963  10.672  10.893
12274W        W83857  11.297  29.117   4.569
12275W        W83858  28.169  14.212  13.514
12276W        W83859  13.557  37.094  12.584
12277W        W83860  24.068  31.722   4.080
12278W        W83861   4.247  29.076  14.543
12279W        W83862  41.153  40.969   2.716
12280W        W83863   1.017   7.515  12.466
12281W        W83864  28.857   2.981   4.580
12282W        W83865  34.112   7.703   1.866
12283W        W83866  29.160  41.584   1.773
12284W        W83867  37.591   8.494  12.516
12285W        W83868  21.649   6.994  12.442
12286W        W83869  21.625  31.074  10.203
12287W        W83870  32.950  39.950   4.427
12288W        W83871  37.908  36.476   0.685
12289W        W83872  41.329  16.749   0.999
12290W        W83873   1.889  33.606   1.779
12291W        W83874  37.884  39.359  13.536
12292W        W83875  34.014  13.787  12.360
12293W        W83876  13.436  26.085   0.419
12294W        W83877  26.152  23.353   3.914
12295W        W83878  37.133  18.453  11.426
12296W        W83879  19.582  12.578   2.774
12297W        W83880  41.132  12.142  13.157
12298W        W83881   1.232   5.974  12.005
12299W        W83882  19.214  15.854   3.820
12300W        W83883  29.582   2.007   4.378
12301W        W83884   2.146  18.716   2.716
12302W        W83885  24.591   5.727  11.661
12303W        W83886  23.203  42.728   0.186
12304W        W83887  22.758   9.928  14.077
12305W        W83888  14.671  40.965  14.781
12306W        W83889  30.128  17.349   4.547
12307W        W83890  28.097  10.057  13.292
12308W        W83891   6.165  10.739   0.162
12309W        W83892  44.346  27.048   3.969
12310W        W83893  24.996   6.895  14.396
12311W        W83894  26.427  30.956   0.939
12312W        W83895   0.278   0.340   2.467
12313W        W83896  41.872  19.628   2.773
12314W        W83897  24.075  37.878  12.982
12315W        W83898  36.787  32.914  11.961
12316W        W83899  34.346  10.873  11.596
12317W        W83900   2.019  22.187   2.375
12318W        W83901  31.109  14.374   4.680
12319W        W83902   0.398  22.472   4.642
12320W        W83903  17.548  43.288   1.250
12321W        W83904  11.815   2.209  12.088
12322W        W83905  16.560  16.756   1.383
12323W        W83906  38.844  12.151  10.929
12324W        W83907  16.065  41.045   5.047
12325W        W83908  15.188  28.268  12.972
12326W        W83909   5.794  30.564   0.267
12327W        W83910  22.159  35.976   1.726
12328W        W83911  36.302  19.249   1.176
12329W        W83912  23.395  23.107  14.400
12330W        W83913  28.854  15.676   3.712
12331W        W83914   8.636  39.948   4.330
12332W        W83915  30.875   4.499  14.054
12333W        W83916  16.287   9.970   4.058
12334W        W83917  24.543  11.305  11.259
12335W        W83918  11.569  17.225   3.278
12336W        W83919  42.471  21.270  11.128
12337W        W83920  12.083  40.328   3.688
12338W        W83921  35.594  27.466   1.799
12339W        W83922  41.346  26.034   0.900
12340W        W83923  27.779  29.120  14.521
12341W        W83924  42.387  15.561  13.258
12342W        W83925  25.662  14.771  11.255
12343W        W83926   1.487  40.796  11.455
12344W        W83927   2.061  15.936   4.245
12345W        W83928   0.963  11.719   1.371
12346W        W83929  17.448  42.818  11.619
12347W        W83930  20.084  14.918   3.675
12348W        W83931   9.046   8.901   1.046
12349W        W83932  42.237  15.895  12.381
12350W        W83933   0.535   8.569   2.441
12351W        W83934  20.530  31.388   2.382
12352W        W83935   8.656  22.926   2.124
12353W        W83936  41.063  25.584   0.966
12354W        W83937  38.419  35.827  11.539
12355W        W83938  24.954  11.065  11.081
12356W        W83939  26.562  21.526   0.848
12357W        W83940   0.929  13.794   4.204
12358W        W83941  12.599  17.078  12.389
12359W        W83942  33.239  21.312   0.375
12360W        W83943  42.211  37.500  11.569
12361W        W83944  33.557  36.041   2.176
12362W        W83945   8.732  42.019  12.995
12363W        W83946   4.375  21.313  12.098
12364W        W83947  43.390  39.034  10.587
12365W        W83948   5.019  28.296  13.357
12366W        W83949   4.344   9.906  14.879
12367W        W83950  41.869  16.472   2.319
12368W        W83951  16.736   5.654   0.813
12369W        W83952  31.408  13.618  12.914
12370W        W83953  10.634   1.190  10.765
12371W        W83954  13.646  38.842  10.974
12372W        W83955  20.792  14.254  14.622
12373W        W83956  24.579  26.750   9.810
12374W        W83957  27.674  42.766   4.288
12375W        W83958  34.346   3.991  13.440
12376W        W83959  24.484  20.618   0.457
12377W        W83960  27.098  41.327  14.276
12378W        W83961   9.839   6.128   3.735
12379W        W83962  42.580  30.525  12.937
12380W        W83963  28.581  44.766  11.218
12381W        W83964  33.503  35.109   0.907
12382W        W83965  24.041   5.255   2.385
12383W        W83966  30.236  30.870   1.238
12384W        W83967  23.866  28.617   2.026
12385W        W83968  30.222  37.430  11.122
12386W        W83969  25.341  19.745  12.137
12387W        W83970  22.260   6.303   2.161
12388W        W83971   7.584  12.737   3.174
12389W        W83972  27.246  41.100   4.300
12390W        W83973  14.250  19.677  11.793
12391W        W83974  35.135  19.119   0.199
12392W        W83975   5.399  33.666   0.912
12393W        W83976  28.204  34.396   1.293
12394W        W83977  22.608  24.960  10.649
12395W        W83978  33.699   2.735  10.866
12396W        W83979  41.911   8.364  13.952
12397W        W83980  20.440  35.918   2.579
12398W        W83981  35.002   8.407   3.121
12399W        W83982  21.774  19.655  14.829
12400W        W83983   1.950  17.571   1.253
12401W        W83984   7.337  17.265   4.345
12402W        W83985  29.104  41.591  14.773
12403W        W83986  42.512  27.797  11.113
12404W        W83987  44.909  15.211   4.564
12405W        W83988  13.170  22.016  12.025
12406W        W83989  19.217  15.106   3.274
12407W        W83990  22.642  30.999   0.852
12408W        W83991  34.004  40.433   4.733
12409W        W83992  42.479   4.377   2.229
12410W        W83993  28.836  31.162  10.735
12411W        W83994  33.979  37.414  12.092
12412W        W83995  38.473   3.875  10.349
12413W        W83996  26.236  20.996   1.824
12414W        W83997  39.448  22.452  12.032
12415W        W83998  16.643   2.881  11.660
12416W        W83999  27.521   1.493  10.412
12417W        W84000   9.283  32.448  13.569
12418W        W84001  39.540   1.453  13.599
12419W        W84002   8.931  15.634   3.623
12420W        W84003  41.710  11.821   3.426
12421W        W84004  18.890  30.963  13.476
12422W        W84005  15.118  32.494   4.315
12423W        W84006  17.189  16.818   1.953
12424W        W84007  28.005  32.114  10.216
12425W        W84008  39.877   4.958   0.067
12426W        W84009  42.347  30.890   4.708
12427W        W84010  12.645  11.634  13.241
12428W        W84011  24.675  10.204   2.854
12429W        W84012  25.934   0.143  12.529
12430W        W84013   6.645  19.534  14.048
12431W        W84014  19.382  11.353   0.002
12432W        W84015  27.074  14.699  13.894
12433W        W84016   0.298   7.279   3.242
12434W        W84017  26.074  19.283   3.096
12435W        W84018  23.707  17.290   0.884
12436W        W84019  28.144  37.513   2.845
12437W        W84020  26.943   6.691  12.366
12438W        W84021  29.012   8.316  14.576
12439W        W84022   5.650   6.068  11.216
12440W        W84023  28.145   6.184   4.940
12441W        W84024  21.533   3.205   1.784
12442W        W84025  28.866  20.006   2.278
12443W        W84026  41.806  44.762   3.940
12444W        W84027  42.003  14.995   4.163
12445W        W84028  13.353   4.378   1.001
12446W        W84029  41.813   5.344  10.966
12447W        W84030  17.029  31.995   0.805
12448W        W84031  16.276  10.694  10.732
12449W        W84032  33.574  34.625  12.131
12450W        W84033  38.310  10.349  14.992
12451W        W84034  17.628  23.637  13.458
12452W        W84035  38.698  34.990   4.996
12453W        W84036  42.351  28.029  14.776
12454W        W84037  28.538  14.816   0.904
12455W        W84038   5.868  29.442  12.311
12456W        W84039   4.534  12.242  11.175
12457W        W84040  32.925  16.280   4.912
12458W        W84041  33.498  23.753   0.849
12459W        W84042  17.290  16.711   4.538
12460W        W84043  18.717  35.050  12.292
12461W        W84044   6.093  30.312   1.285
12462W        W84045  13.665  31.888  11.024
12463W        W84046  27.716  35.436  11.063
12464W        W84047  16.678  37.925  13.478
12465W        W84048  16.959   0.470   2.645
12466W        W84049  16.754  19.550  12.489
12467W        W84050  29.978  41.261  14.309
12468W        W84051  19.324   4.808  14.892
12469W        W84052  22.971  43.174  12.492
12470W        W84053  42.744  18.128  14.814
12471W        W84054  42.758  39.096   3.630
12472W        W84055   0.272  29.951  14.979
12473W        W84056  32.950  19.731  14.847
12474W        W84057   8.852  26.173   0.734
12475W        W84058   1.482   2.248  10.524
12476W        W84059   3.684   8.694   1.446
12477W        W84060  39.993  41.470   4.811
12478W        W84061  40.658  28.915  11.428
12479W        W84062  18.916  24.568   4.604
12480W        W84063  30.330  32.091  13.130
12481W        W84064  34.506   7.579   2.177
12482W        W84065  22.481   1.673   3.944
12483W        W84066  38.292  25.648  14.561
12484W        W84067  10.852  34.777   2.168
12485W        W84068   6.401  11.723  14.040
12486W        W84069   7.353  24.262  12.465
12487W        W84070  10.280  40.504   4.275
12488W        W84071  22.334  29.233  11.027
12489W        W84072  22.981  20.267   2.270
12490W        W84073   7.708  30.471   4.475
12491W        W84074  17.124  38.102  11.594
12492W        W84075   3.078  30.515  12.790
12493W        W84076  17.913  26.478  13.278
12494W        W84077  42.364  18.078  13.191
12495W        W84078  36.396  11.228   0.036
12496W        W84079  14.154  34.185  12.097
12497W        W84080  14.383  26.227   1.359
12498W        W84081  41.456  18.156   2.866
12499W        W84082  11.393   7.338  14.869
12500W        W84083  13.106  15.441   9.941
12501W        W84084   3.767   6.790   1.716
12502W        W84085  35.616  26.095  12.496
12503W        W84086  10.848  36.798   2.407
12504W        W84087   7.192   4.758   2.203
12505W        W84088  38.461  33.500  14.522
12506W        W84089  38.946  38.332  12.461
12507W        W84090   0.918  16.694   4.710
12508W        W84091  22.014   7.741  12.689
12509W        W84092  13.696  13.386  11.497
12510W        W84093  14.301  13.789   3.681
12511W        W84094  33.518  37.052   1.024
12512W        W84095   4.215  21.724   1.934
12513W        W84096  14.255   1.467  11.529
12514W        W84097  39.326  28.989  13.607
12515W        W84098   1.737  10.929  10.698
12516W        W84099   7.705  37.600   2.701
12517W        W84100   4.892  20.101   0.240
12518W        W84101   2.425   7.768  10.910
12519W        W84102  37.942  24.683   1.895
12520W        W84103  19.148  13.049   4.741
12521W        W84104  29.480  32.048   5.078
12522W        W84105  21.620  31.009  11.209
12523W        W84106  35.165  40.372  14.587
12524W        W84107  17.054  34.790   2.756
12525W        W84108   1.309  10.620   3.777
12526W        W84109  25.743  14.864   3.261
12527W        W84110   1.383   7.138  12.605
12528W        W84111  28.392   0.893  10.636
12529W        W84112  19.750  13.886  13.200
12530W        W84113  29.467  22.690  14.964
12531W        W84114  39.990  27.653  10.633
12532W        W84115  41.484  29.074  12.590
12533W        W84116  29.564  14.648   2.491
12534W        W84117  14.521  38.905  13.081
12535W        W84118   2.884  39.814   0.016
12536W        W84119  21.989   3.423  13.924
12537W        W84120  19.480   6.853  12.570
12538W        W84121  15.571  28.430   3.035
12539W        W84122  35.356   1.751  13.515
12540W        W84123  21.091  21.631   4.630
12541W        W84124  29.379  13.357  10.740
12542W        W84125   6.280  19.289   3.578
12543W        W84126  19.602  34.358   3.325
12544W        W84127  37.131  33.840   3.226
12545W        W84128  20.205  18.984  13.488
12546W        W84129  32.550   2.198  13.497
12547W        W84130   6.833  22.474   3.347
12548W        W84131  11.211  25.675   3.770
12549W        W84132  28.089  38.955   3.632
12550W        W84133  19.727   5.237  14.648
12551W        W84134   9.402  29.712  12.185
12552W        W84135  21.980  42.766   1.525
12553W        W84136   2.480  21.061   2.950
12554W        W84137  19.379   1.410  11.007
12555W        W84138  37.359  33.636  11.125
12556W        W84139  15.137  29.223   4.165
12557W        W84140  26.064  29.617   2.690
12558W        W84141  26.803   9.509  11.592
12559W        W84142   6.767  27.244   0.093
12560W        W84143  15.043  16.232  11.156
12561W        W84144  27.444   6.472   1.910
12562W        W84145  37.931   8.451   0.884
12563W        W84146   3.533  15.654   1.304
12564W        W84147  25.334  44.416  13.446
12565W        W84148  28.275   8.486  10.055
12566W        W84149  17.857  13.170   4.674
12567W        W84150  26.411   5.841   0.936
12568W        W84151  39.477  32.213  12.935
12569W        W84152   4.286   0.919   1.714
12570W        W84153  40.835  29.969   0.482
12571W        W84154  23.687  29.997  12.516
12572W        W84155  23.252  23.664  12.582
12573W        W84156  24.910   2.854  10.973
12574W        W84157  14.564  18.597   2.162
12575W        W84158   2.383  40.352  10.657
12576W        W84159  41.839  44.249  11.641
12577W        W84160  34.140  11.347  14.580
12578W        W84161  27.629  15.732  12.845
12579W        W84162   4.552  25.484  14.473
12580W        W84163  12.761  16.739  14.415
12581W        W84164  18.735  11.565  11.132
12582W        W84165  36.093  15.138   0.525
12583W        W84166  28.273  15.352  14.771
12584W        W84167  32.987  17.439   0.297
12585W        W84168  33.836   3.793   4.444
12586W        W84169  24.524  18.504  14.012
12587W        W84170   4.471  31.147   2.299
12588W        W84171  32.678  28.535   2.203
12589W        W84172   1.443  34.735   2.198
12590W        W84173  27.735  33.618   9.699
12591W        W84174   1.734  26.067   4.623
12592W        W84175  10.177   1.815  14.877
12593W        W84176   1.081  39.980  11.952
12594W        W84177  19.452   4.786   5.216
12595W        W84178   2.317  40.165  13.726
12596W        W84179  44.374  22.655   3.861
12597W        W84180  23.012   1.710  12.374
12598W        W84181   0.311  28.935  10.976
12599W        W84182   1.143  13.497   1.903
12600W        W84183  33.857  14.709  14.190
12601W        W84184  41.968  13.700  12.032
12602W        W84185  17.229  11.517   5.098
12603W        W84186  28.023   0.800  14.753
12604W        W84187  41.922   4.713   4.678
12605W        W84188  28.960  35.140   4.945
12606W        W84189  24.208  33.994  10.702
12607W        W84190  12.827  39.356   2.875
12608W        W84191  19.800  25.086   5.307
12609W        W84192  11.676  11.218  10.674
12610W        W84193  13.158  42.255   1.915
12611W        W84194  23.011  12.200   2.342
12612W        W84195  10.784  11.201  13.743
12613W        W84196   6.129  11.617   0.062
12614W        W84197  16.446   4.365  12.078
12615W        W84198  22.125  15.343  13.930
12616W        W84199  23.446  39.404   2.125
12617W        W84200  43.328   4.511   4.951
12618W        W84201  37.328   2.360   2.276
12619W        W84202   8.982   0.466   3.587
12620W        W84203   0.855   7.002  11.494
12621W        W84204  33.795  37.582   4.082
12622W        W84205  23.527   9.564   3.400
12623W        W84206  32.579   4.256   2.679
12624W        W84207  40.350  31.828   4.090
12625W        W84208  26.171  13.231  12.369
12626W        W84209  42.528  35.465   1.165
12627W        W84210   5.647  20.309  13.460
12628W        W84211   4.169  36.431   3.354
12629W        W84212  20.575   1.963  11.065
12630W        W84213   4.361   0.763  13.783
12631W        W84214  27.993   4.270   9.940
12632W        W84215   6.383  24.506   2.860
12633W        W84216  17.119   1.778  11.197
12634W        W84217  14.296  42.063   2.349
12635W        W84218  34.844  15.817   3.170
12636W        W84219   4.631   1.378  14.530
12637W        W84220  36.067  37.026  12.829
12638W        W84221   0.231   8.393  13.375
12639W        W84222  13.597  35.472  13.387
12640W        W84223  16.250  14.854  14.712
12641W        W84224  44.198  18.597  12.010
12642W        W84225  35.867  11.803  11.141
12643W        W84226  16.336  43.894  10.828
12644W        W84227  17.030  20.784  12.480
12645W        W84228   3.200   7.796  14.403
12646W        W84229   3.753  34.308  11.545
12647W        W84230  14.072   4.856  14.176
12648W        W84231  15.361  19.994  14.878
12649W        W84232  32.946  38.103  10.460
12650W        W84233   8.882  37.102   3.897
12651W        W84234  22.646  42.836   1.853
12652W        W84235  34.009   1.045  11.500
12653W        W84236  12.855  42.454   3.974
12654W        W84237  25.015  32.949   0.746
12655W        W84238  17.165  19.923   1.215
12656W        W84239  11.699   3.245   5.122
12657W        W84240  13.763  11.466  12.559
12658W        W84241  43.411   2.825   3.860
12659W        W84242   5.409  17.594  12.898
12660W        W84243  36.157  37.739  13.437
12661W        W84244  42.352  14.539  12.518
12662W        W84245  25.602  18.510   1.702
12663W        W84246  38.794  44.878   4.245
12664W        W84247  20.477   9.920   1.749
12665W        W84248  40.842   6.329  11.151
12666W        W84249  30.948   5.637   0.271
12667W        W84250  18.448  14.380  11.812
12668W        W84251  21.783   4.918  12.445
12669W        W84252  14.806  28.130   4.373
12670W        W84253  30.062  39.577   1.337
12671W        W84254   6.926  30.000   3.252
12672W        W84255   7.334  30.916  13.105
12673W        W84256  24.309  25.476  11.316
12674W        W84257  34.390  32.683   1.884
12675W        W84258  10.937  12.042  11.145
12676W        W84259  22.461  10.219   3.260
12677W        W84260   3.530  41.943  12.394
12678W        W84261  39.435  35.070  14.070
12679W        W84262  10.644  16.777  11.544
12680W        W84263   9.766  42.252   2.225
12681W        W84264   1.352  33.605   4.122
12682W        W84265  42.469  17.889   0.596
12683W        W84266   1.966  31.170   2.313
12684W        W84267  29.516  35.915  13.970
12685W        W84268  25.450  35.286   4.127
12686W        W84269   4.511  14.502   2.162
12687W        W84270  12.425  31.643  14.901
12688W        W84271  23.474  17.075  13.555
12689W        W84272  18.546  13.064   0.717
12690W        W84273  18.081  21.387  13.812
12691W        W84274  23.754  40.819  12.979
12692W        W84275  37.904  35.282   1.906
12693W        W84276  20.978  11.734   1.751
12694W        W84277  19.644  19.214   2.828
12695W        W84278  10.927   5.680  11.084
12696W        W84279  42.820  18.812  13.448
12697W        W84280  29.361   8.943  10.434
12698W        W84281  32.367  36.718   0.481
12699W        W84282  10.558  10.326   1.891
12700W        W84283  29.843  11.346  14.811
12701W        W84284  38.066  25.927   2.746
12702W        W84285  17.836  33.574  12.953
12703W        W84286  34.102   1.723  12.494
12704W        W84287  37.949   9.699  12.062
12705W        W84288  37.528  28.733   2.987
12706W        W84289  27.060   8.066  13.489
12707W        W84290   2.308   6.153   4.650
12708W        W84291   0.534  38.075   4.404
12709W        W84292  27.576  39.858  10.451
12710W        W84293  28.890   5.337  12.827
12711W        W84294  34.889  27.290  11.979
12712W        W84295  23.647   8.637   2.459
12713W        W84296  24.591  26.696   2.909
12714W        W84297  14.597  31.716   3.747
12715W        W84298  41.100   9.383   4.373
12716W        W84299  35.070  21.549   3.692
12717W        W84300  32.968   3.431   0.519
12718W        W84301  16.031   4.735  12.913
12719W        W84302  11.981  31.025   1.404
12720W        W84303  25.085  38.521   4.452
12721W        W84304  10.917  10.138   3.430
12722W        W84305  42.606  34.469   0.982
12723W        W84306  33.406   6.723  11.271
12724W        W84307  12.239  43.785   2.719
12725W        W84308  37.906  42.699   1.913
12726W        W84309  10.961  15.306   3.299
12727W        W84310  38.513   5.631  11.456
12728W        W84311  27.176  24.962  12.669
12729W        W84312  30.510  33.623  14.125
12730W        W84313  26.225  37.959  10.675
12731W        W84314   5.184  37.424  13.110
12732W        W84315  41.743  42.556   3.654
12733W        W84316  16.575  25.531   5.287
12734W        W84317  30.606  37.345  13.952
12735W        W84318   4.375  29.529   2.213
12736W        W84319  36.941  14.354   1.800
12737W        W84320  41.297  39.160  14.990
12738W        W84321  13.268  24.653  14.371
12739W        W84322  28.978  35.956  12.333
12740W        W84323  42.026  30.290   4.176
12741W        W84324  26.647   7.164  10.213
12742W        W84325  30.483  14.648   0.310
12743W        W84326  38.240  31.925  11.031
12744W        W84327  36.291  15.732  11.642
12745W        W84328  41.385  17.661  10.627
12746W        W84329  33.138   9.314   1.708
12747W        W84330  29.404  39.247  13.055
12748W        W84331  29.144  43.932  12.999
12749W        W84332   5.358  12.102  12.917
12750W        W84333   9.678  32.390  11.119
12751W        W84334   8.129  34.858   4.298
12752W        W84335  33.586  31.535  10.858
12753W        W84336  27.479  43.420   0.682
12754W        W84337  19.654  33.352  11.957
12755W        W84338  16.363  11.265   3.488
12756W        W84339   0.784  18.857  13.926
12757W        W84340  17.559  23.319  11.855
12758W        W84341  26.838  20.227   0.945
12759W        W84342  30.882   9.149   1.298
12760W        W84343  24.686  12.308   4.227
12761W        W84344   8.384  36.123  14.682
12762W        W84345  36.521   5.976   4.901
12763W        W84346  26.465  12.820   3.205
12764W        W84347  38.543  43.973  13.562
12765W        W84348   9.117  23.038   0.277
12766W        W84349  15.036  11.701   2.828
12767W        W84350   2.796  43.252   1.010
12768W        W84351  41.361  44.804   3.322
12769W        W84352  41.814  35.038  10.774
12770W        W84353  36.321   4.900  14.878
12771W        W84354  38.429  35.552  10.752
12772W        W84355   1.883  21.539  14.040
12773W        W84356  14.833   8.903  12.871
12774W        W84357  35.478  30.963   1.099
12775W        W84358  16.139  10.929   0.899
12776W        W84359  32.904  27.673  11.932
12777W        W84360  24.206  40.948  10.574
12778W        W84361  32.087   5.909  12.294
12779W        W84362  35.545  14.203   3.245
12780W        W84363   2.263  13.708   4.011
12781W        W84364  14.897   6.312  13.762
12782W        W84365  35.152  44.338  14.377
12783W        W84366   5.800   4.387   1.914
12784W        W84367   9.843  41.225   4.203
12785W        W84368  13.789  19.742  12.026
12786W        W84369  27.118  22.048   3.350
12787W        W84370   6.783   7.363   4.409
12788W        W84371  27.799  13.120  13.833
12789W        W84372   2.434  44.571  11.107
12790W        W84373  29.970   0.023   0.333
12791W        W84374  41.033   3.731   2.130
12792W        W84375  22.753  40.971  12.113
12793W        W84376  31.982  23.762  11.146
12794W        W84377  21.266  12.536  12.959
12795W        W84378  13.645  44.645  14.492
12796W        W84379  23.823  12.685   0.738
12797W        W84380  40.690   4.810  13.795
12798W        W84381  36.987   2.707   2.461
12799W        W84382   3.724  19.518  13.622
12800W        W84383  22.209  41.622  14.706
12801W        W84384  41.151   5.885   5.455
12802W        W84385  11.401  41.786   0.281
12803W        W84386  21.272  18.736   2.299
12804W        W84387  35.419  32.458  10.628
12805W        W84388  13.132   0.486  11.667
12806W        W84389   7.627  44.055  11.589
12807W        W84390  21.204  41.421  14.928
12808W        W84391  23.152  37.495   2.107
12809W        W84392  31.815   4.863   1.074
12810W        W84393   0.744  34.189  12.421
12811W        W84394  28.304   7.400   2.146
12812W        W84395  42.906  25.837  11.122
12813W        W84396  14.037  40.583  14.238
12814W        W84397   3.552  24.437  10.273
12815W        W84398  29.721  23.610   4.571
12816W        W84399  25.428  11.095   5.017
12817W        W84400  30.846   7.146  13.506
12818W        W84401  44.343  26.086  10.533
12819W        W84402   1.419  25.317   3.726
12820W        W84403  41.897   1.431  14.872
12821W        W84404  41.621  41.818  12.643
12822W        W84405  21.027  20.185   5.760
12823W        W84406  14.101  37.855   1.173
12824W        W84407  19.387  31.732  12.909
12825W        W84408  34.077  37.287   3.786
12826W        W84409   7.122  30.978  12.476
12827W        W84410  29.436  28.808   2.679
12828W        W84411  38.360  43.636   2.731
12829W        W84412  13.291   5.326  11.376
12830W        W84413  19.405  38.454  14.855
12831W        W84414  16.246   1.409  14.374
12832W        W84415  32.510  15.618   4.902
12833W        W84416  36.850  22.501   0.642
12834W        W84417   2.216   9.811  14.350
12835W        W84418  19.161   1.693  11.405
12836W        W84419  15.776  41.401   4.780
12837W        W84420  42.427  28.297   3.908
12838W        W84421  38.730  21.687   1.244
12839W        W84422   7.466  34.852  11.552
12840W        W84423  26.156  11.670   1.398
12841W        W84424   8.899  38.761   4.454
12842W        W84425   3.744  25.336  10.523
12843W        W84426   8.125  15.016   3.440
12844W        W84427  16.829  42.332   0.246
12845W        W84428  39.122  19.658  14.713
12846W        W84429  38.171   9.263   3.882
12847W        W84430   5.653  38.866   0.346
12848W        W84431  30.507  40.435   3.613
12849W        W84432  20.627  43.297  14.378
12850W        W84433  38.529  31.008   1.396
12851W        W84434  29.052   9.195   0.610
12852W        W84435  41.100  40.045  10.711
12853W        W84436  17.056   1.193   3.223
12854W        W84437  16.688  27.108  14.304
12855W        W84438   6.813  26.084   3.094
12856W        W84439  18.182  13.130  10.650
12857W        W84440  28.018  34.821   4.919
12858W        W84441  24.187  14.379  14.559
12859W        W84442   9.815  20.493   2.300
12860W        W84443  11.180  38.491  12.782
12861W        W84444   0.836  12.307   0.284
12862W        W84445  44.861  27.618   0.930
12863W        W84446  43.809  40.051  13.600
12864W        W84447  38.791   7.792  12.509
12865W        W84448  36.136  38.454  14.257
12866W        W84449  32.005  44.755   1.847
12867W        W84450  44.785  37.107  13.544
12868W        W84451  10.946  20.859   1.809
12869W        W84452  26.532   3.943  13.383
12870W        W84453   2.433  24.395  12.100
12871W        W84454  33.831  16.283  12.519
12872W        W84455   5.012   0.720  12.416
12873W        W84456  13.519  34.801   0.324
12874W        W84457  21.316   0.427   1.894
12875W        W84458  33.452  35.597  13.182
12876W        W84459  38.525  29.045  10.637
12877W        W84460  15.241  27.528  12.395
12878W        W84461  11.958  37.712  10.193
12879W        W84462  33.205  18.790  11.931
12880W        W84463  13.560  11.139   0.327
12881W        W84464  12.153  13.840   1.044
12882W        W84465   7.328   6.515  13.553
12883W        W84466  42.728  11.305  10.486
12884W        W84467   5.514  27.476   3.609
12885W        W84468  11.725   7.378   4.578
12886W        W84469   2.423  22.005   0.421
12887W        W84470  27.390  44.248   3.347
12888W        W84471  42.883  15.083   4.280
12889W        W84472  36.821  37.877   1.815
12890W        W84473  10.373  42.932   0.377
12891W        W84474   0.042  31.631  13.872
12892W        W84475  18.529  22.948   4.163
12893W        W84476  34.651  21.319   3.461
12894W        W84477  12.856   9.184  13.471
12895W        W84478  38.496  14.201  13.539
12896W        W84479   7.873  44.918   1.720
12897W        W84480  39.244  13.058   4.586
12898W        W84481  34.071   1.703   0.454
12899W        W84482  40.996  18.493   5.103
12900W        W84483  10.275  26.196   4.152
12901W        W84484  35.980  23.521   1.252
12902W        W84485   7.794  19.229   4.330
12903W        W84486  19.796  32.849   2.438
12904W        W84487  25.173  20.662   4.775
12905W        W84488  32.461  10.077   2.879
12906W        W84489   3.282  11.272  12.173
12907W        W84490  30.004  28.427   2.114
12908W        W84491  27.500   2.730   3.277
12909W        W84492  37.402  31.421   4.701
12910W        W84493  34.540  22.060   2.671
12911W        W84494  14.094  13.221  12.303
12912W        W84495  35.883  14.421  13.444
12913W        W84496  19.467  25.218   3.321
12914W        W84497  32.171  39.042   1.992
12915W        W84498  25.934  37.599  11.555
12916W        W84499  19.180  31.634   0.741
12917W        W84500   2.011   2.009  12.895
12918W        W84501  37.457  25.913   4.133
12919W        W84502  15.563  40.785  12.524
12920W        W84503  31.992  37.965   1.291
12921W        W84504   1.326   5.140   2.236
12922W        W84505  44.065  12.165   4.186
12923W        W84506  24.747  39.401  14.760
12924W        W84507  32.748  39.642   2.334
12925W        W84508  23.276  25.106   2.517
12926W        W84509  24.543  33.625  10.572
12927W        W84510  10.093  27.659   2.358
12928W        W84511   3.616   5.409  13.788
12929W        W84512  29.391  15.580  11.175
12930W        W84513  34.533  41.782   3.142
12931W        W84514  18.392   6.919  10.847
12932W        W84515  17.591  24.663   2.762
12933W        W84516  12.593  36.893  12.582
12934W        W84517   2.804  21.023   2.101
12935W        W84518   3.087  13.397   2.518
12936W        W84519  35.646   1.872   2.386
12937W        W84520   5.884   0.811  13.609
12938W        W84521  40.146  19.725  13.375
12939W        W84522  38.352  38.018  13.013
12940W        W84523  32.842   0.051  12.494
12941W        W84524  37.592  29.954   2.054
12942W        W84525  41.098  26.704  14.644
12943W        W84526  41.086  43.372  14.476
12944W        W84527  10.847  42.431  10.663
12945W        W84528   7.420   2.311  11.525
12946W        W84529  37.788  38.484  12.591
12947W        W84530  42.863  11.768  10.696
12948W        W84531  16.066  11.363  11.782
12949W        W84532   2.392  40.221   1.303
12950W        W84533  23.895  30.475   0.443
12951W        W84534  32.879  21.724   0.547
12952W        W84535  27.880  22.116   0.901
12953W        W84536  31.968  11.455  11.121
12954W        W84537  10.391  28.685  12.054
12955W        W84538  29.738  24.182   0.284
12956W        W84539  24.754  38.551   3.779
12957W        W84540  21.066  13.982  13.105
12958W        W84541   7.764  12.017   2.250
12959W        W84542  21.689  11.934   0.010
12960W        W84543  12.545   1.042  14.934
12961W        W84544  23.409  34.943  12.568
12962W        W84545   7.472  19.814   1.845
12963W        W84546  23.236  10.664   4.912
12964W        W84547   0.711  10.373  13.614
12965W        W84548  39.287  17.726   2.846
12966W        W84549  44.496  41.110   2.463
12967W        W84550  43.962  14.669   4.331
12968W        W84551  32.446  35.756   4.629
12969W        W84552  42.333  19.432  12.161
12970W        W84553  16.323  13.409   4.091
12971W        W84554  27.454  13.433  11.997
12972W        W84555  13.669  40.976  14.313
12973W        W84556   1.516  13.148  13.937
12974W        W84557  44.823  25.842  10.588
12975W        W84558   7.916   2.793  14.458
12976W        W84559  37.841  32.019  12.310
12977W        W84560  31.649  34.484   3.561
12978W        W84561   7.748   3.962  13.768
12979W        W84562  25.555  30.751   2.332
12980W        W84563  15.294  21.210  12.456
12981W        W84564  11.356   4.184  11.121
12982W        W84565  28.429  33.556  11.611
12983W        W84566   2.240  40.196   4.997
12984W        W84567  15.834   4.679  13.914
12985W        W84568  13.383  23.079   0.650
12986W        W84569  10.884  21.250   3.627
12987W        W84570  13.319  30.414  12.583
12988W        W84571  38.242  17.965   0.237
12989W        W84572  23.943  37.255  11.538
12990W        W84573  43.864  35.145   0.271
12991W        W84574  21.816  26.032   3.821
12992W        W84575   8.975  32.057  12.866
12993W        W84576  24.092  27.920  13.854
12994W        W84577  13.452  33.065   2.375
12995W        W84578  11.884  11.821  14.839
12996W        W84579  20.829  12.570   1.398
12997W        W84580   5.771  29.540   3.275
12998W        W84581  33.060  12.811  14.845
12999W        W84582  30.007   6.324  14.046
13000W        W84583  41.006  13.606  13.565
13001W        W84584  12.252   5.017   3.553
13002W        W84585  19.750  37.719   4.079
13003W        W84586  32.132  31.411  11.960
13004W        W84587  15.620  41.484  10.859
13005W        W84588  18.303  10.305  12.124
13006W        W84589   7.786  23.659  11.221
13007W        W84590  10.171  19.749  11.126
13008W        W84591  21.189  23.782  10.763
13009W        W84592  35.351   8.421  12.145
13010W        W84593   6.032  24.131   2.836
13011W        W84594  20.725  34.501   0.303
13012W        W84595   5.761  20.802  12.374
13013W        W84596  20.953  30.721   0.441
13014W        W84597  15.601  15.376  11.629
13015W        W84598  30.182  20.577   5.177
13016W        W84599   5.788  25.125  14.502
13017W        W84600  35.453   0.807   0.735
13018W        W84601  37.345  15.382   2.469
13019W        W84602  12.594  42.939   4.102
13020W        W84603  19.209  16.405  13.437
13021W        W84604  31.990  29.877   1.352
13022W        W84605  15.782   2.145  12.951
13023W        W84606  16.305   1.723   4.601
13024W        W84607  13.276   3.428  12.232
13025W        W84608  37.259  35.430   4.132
13026W        W84609  23.614  34.903   1.180
13027W        W84610   2.730   4.177   0.443
13028W        W84611  32.925  17.802   2.281
13029W        W84612  17.133  20.700  11.439
13030W        W84613  26.129  44.318   0.407
13031W        W84614  43.413  12.325   3.143
13032W        W84615  42.584  35.314  14.388
13033W        W84616  42.807  44.514  14.739
13034W        W84617  43.500  29.949   4.135
13035W        W84618  28.427  13.760  13.347
13036W        W84619  30.548  27.852  14.973
13037W        W84620  23.832   4.456   1.255
13038W        W84621  18.646   5.399  12.894
13039W        W84622  12.580   5.342   2.626
13040W        W84623   9.895   5.508   1.994
13041W        W84624  34.129   7.658  10.786
13042W        W84625  37.158   0.811  11.121
13043W        W84626  15.261  28.879   2.941
13044W        W84627  38.692  34.756  13.411
13045W        W84628  13.146   8.099  14.462
13046W        W84629   7.199   0.930   2.418
13047W        W84630  20.542  26.042   3.163
13048W        W84631  23.092  36.657  12.168
13049W        W84632  34.574  21.767   3.165
13050W        W84633   0.493  11.998   3.729
13051W        W84634  18.494  22.907   5.018
13052W        W84635  24.797  30.010   0.792
13053W        W84636   7.569  17.291  10.825
13054W        W84637  31.988  27.415   2.424
13055W        W84638   8.437  20.283   1.250
13056W        W84639  40.149   6.340  10.286
13057W        W84640  16.696  38.896   3.722
13058W        W84641  24.774  21.539   2.651
13059W        W84642   6.196  33.911  12.057
13060W        W84643  39.102   3.367   1.836
13061W        W84644  18.056  32.430   4.575
13062W        W84645  43.214  44.633   2.900
13063W        W84646   8.053  34.459  11.257
13064W        W84647  25.132  31.426  12.106
13065W        W84648  14.276   1.711  10.672
13066W        W84649  30.550  34.598   3.246
13067W        W84650  43.420  38.604  12.873
13068W        W84651   0.878  16.982  14.869
13069W        W84652   9.256  34.421  11.306
13070W        W84653   9.507  36.708  13.685
13071W        W84654   1.863  44.564   4.141
13072W        W84655  27.111   2.260  12.037
13073W        W84656  12.711  43.234   0.724
13074W        W84657  41.080  23.215   0.813
13075W        W84658  18.587  43.020   2.700
13076W        W84659   3.027  34.039  10.793
13077W        W84660  11.109  31.530  13.993
13078W        W84661   7.237  14.579   0.978
13079W        W84662  20.783  15.134   1.436
13080W        W84663  34.722  35.001  12.613
13081W        W84664  28.054  26.189  10.664
13082W        W84665  11.599   6.034  14.379
13083W        W84666  31.887   2.161  11.729
13084W        W84667  13.147   2.304  14.397
13085W        W84668  16.360  20.055   1.410
13086W        W84669  41.315  38.498   2.119
13087W        W84670  20.540  10.067  13.401
13088W        W84671  34.085  43.903  11.942
13089W        W84672  24.042  10.280  13.064
13090W        W84673   7.822  14.009   0.875
13091W        W84674  20.435   0.222  10.655
13092W        W84675  21.770  36.604   3.243
13093W        W84676   2.408  38.859   1.186
13094W        W84677  18.219   1.786  12.506
13095W        W84678   7.378  26.708   4.710
13096W        W84679  20.120  27.955  13.384
13097W        W84680  16.623  24.624  13.094
13098W        W84681  12.758  14.932   3.096
13099W        W84682  27.703  18.613   3.832
13100W        W84683  15.641  28.486  12.912
13101W        W84684   8.680  16.707   0.707
13102W        W84685  13.505   0.061  10.275
13103W        W84686  18.768  41.777  11.677
13104W        W84687   3.659  23.984  10.495
13105W        W84688  43.420   6.813  11.902
13106W        W84689   9.953   2.909   0.487
13107W        W84690  19.525  17.968  13.006
13108W        W84691  21.311  41.235  13.019
13109W        W84692  33.349  43.903  12.427
13110W        W84693  24.921  20.328   0.198
13111W        W84694  11.597   5.277  10.455
13112W        W84695  25.524   0.475  12.594
13113W        W84696  25.567  23.176   3.268
13114W        W84697  10.533  17.650   4.629
13115W        W84698  37.690  11.700  11.913
13116W        W84699  42.390  17.812   4.405
13117W        W84700  23.703  38.930   2.895
13118W        W84701  25.222  34.469  14.520
13119W        W84702  29.084  24.003  12.388
13120W        W84703   5.155   5.150  12.653
13121W        W84704  20.140  12.947  11.329
13122W        W84705  16.979  19.189   4.880
13123W        W84706   3.669  24.542  11.138
13124W        W84707  42.486   1.785   2.375
13125W        W84708  24.691  21.772  14.116
13126W        W84709   3.711  37.795   1.461
13127W        W84710  42.585   1.397  14.184
13128W        W84711   2.413  31.396   3.559
13129W        W84712   1.388  25.703  14.936
13130W        W84713   6.296   6.955  13.474
13131W        W84714  23.790  29.159  10.413
13132W        W84715  26.424  22.270  10.700
13133W        W84716  29.399  26.894  11.474
13134W        W84717  19.406  12.629  12.484
13135W        W84718   3.475   0.826   3.792
13136W        W84719  11.191  12.202   0.905
13137W        W84720  15.301   1.977  10.698
13138W        W84721  18.178  12.418  11.856
13139W        W84722  15.262  20.583  13.816
13140W        W84723   1.969  11.366  11.490
13141W        W84724  20.321  43.730  11.090
13142W        W84725   4.190  16.396  13.659
13143W        W84726  44.849  30.523  12.562
13144W        W84727  29.947  19.748   1.486
13145W        W84728  14.710   0.385   0.250
13146W        W84729  34.211  24.782   1.453
13147W        W84730  29.515  27.520   3.019
13148W        W84731  39.090   7.942   4.612
13149W        W84732   2.247  34.474   0.387
13150W        W84733  25.126  23.074   2.026
13151W        W84734   5.430  30.665  12.141
13152W        W84735  31.551   0.020   2.918
13153W        W84736  18.128  35.792   4.188
13154W        W84737   4.688  44.755  10.745
13155W        W84738  27.090   6.168   3.773
13156W        W84739  43.857  37.507  10.946
13157W        W84740  26.192  12.681   3.604
13158W        W84741  40.521  21.328   0.933
13159W        W84742   3.315  31.678   3.883
13160W        W84743  24.271  12.507  13.508
13161W        W84744   0.813  26.965   3.477
13162W        W84745  26.890  41.937   3.738
13163W        W84746  43.751  10.201  13.620
13164W        W84747  37.236  42.888   1.256
13165W        W84748  10.874  20.744  12.624
13166W        W84749   9.608  39.057  12.585
13167W        W84750  13.708  18.318  13.554
13168W        W84751  15.174  31.631   4.332
13169W        W84752   8.806  15.919   4.033
13170W        W84753  14.825  38.407  10.431
13171W        W84754  34.041  13.221   1.112
13172W        W84755  10.227  36.980   4.125
13173W        W84756  42.513  29.549   1.893
13174W        W84757  32.700   7.168   4.185
13175W        W84758   5.640   1.026  14.628
13176W        W84759   9.648  20.892   1.570
13177W        W84760  37.878   5.654  12.490
13178W        W84761   0.929  31.374   4.607
13179W        W84762  10.334   8.513  14.098
13180W        W84763  26.011  12.339  13.785
13181W        W84764  32.783   5.746  10.781
13182W        W84765  44.249   9.183  12.217
13183W        W84766  37.444  23.009  14.163
13184W        W84767  31.941   4.336   0.875
13185W        W84768  21.734   1.450  14.840
13186W        W84769  14.339  33.116   2.168
13187W        W84770  10.862   2.595  13.069
13188W        W84771   5.794  28.560   0.852
13189W        W84772  33.601  31.515  11.371
13190W        W84773  43.348  19.103  12.269
13191W        W84774  31.468  18.231  12.006
13192W        W84775   6.186  10.662  10.303
13193W        W84776  41.753  30.106   2.623
13194W        W84777  30.390   0.731  12.590
13195W        W84778   5.018   3.857  12.564
13196W        W84779  28.301  14.212   1.156
13197W        W84780  36.101  37.810   3.259
13198W        W84781  11.529  25.608   4.180
13199W        W84782  11.340  44.267  14.804
13200W        W84783   8.745  39.771  13.301
13201W        W84784  38.716  44.907  10.674
13202W        W84785  16.267  36.177   3.180
13203W        W84786  16.139  17.671  10.705
13204W        W84787   9.173  25.578  13.884
13205W        W84788  35.207  40.512  10.778
13206W        W84789   0.318   3.965   3.084
13207W        W84790  31.599  25.171  11.206
13208W        W84791  28.646  17.198   4.776
13209W        W84792  42.446  12.347  10.613
13210W        W84793  35.804  34.878   4.520
13211W        W84794  22.531  37.121  14.436
13212W        W84795  20.026  30.962  14.780
13213W        W84796  41.924  36.090  12.079
13214W        W84797  38.519  31.644  12.326
13215W        W84798  14.407  32.895  11.508
13216W        W84799  12.516  30.574   4.407
13217W        W84800  23.167   6.676  13.556
13218W        W84801  22.103   2.359  11.577
13219W        W84802  20.328  12.180  12.459
13220W        W84803  40.136  22.001   4.782
13221W        W84804  39.999   9.790   3.005
13222W        W84805   3.562   0.856  14.447
13223W        W84806  21.575  15.193   3.640
13224W        W84807  35.582  42.909   3.161
13225W        W84808  22.666  32.038   5.026
13226W        W84809  14.240  36.453  11.209
13227W        W84810   8.924  27.487   1.055
13228W        W84811  16.536  17.032  10.247
13229W        W84812  15.115  31.865  11.293
13230W        W84813  37.833  40.415   3.759
13231W        W84814  23.691  16.259  10.844
13232W        W84815  14.885  11.218  13.168
13233W        W84816  31.621  34.452   0.766
13234W        W84817  35.148  23.298   4.425
13235W        W84818  19.532   7.053  13.051
13236W        W84819  31.189  44.276   1.097
13237W        W84820  37.353   3.196  12.197
13238W        W84821  34.512   7.963  13.920
13239W        W84822  33.034  19.250   2.491
13240W        W84823  21.681   5.758   0.896
13241W        W84824  32.517   1.752   1.651
13242W        W84825  32.396   2.428  14.970
13243W        W84826  37.541   3.870   0.208
13244W        W84827  44.934  17.032  12.472
13245W        W84828  31.640   5.360   4.586
13246W        W84829  40.242  20.964  11.602
13247W        W84830  29.447  13.645   0.395
13248W        W84831  44.012  38.533   3.235
13249W        W84832  22.868  18.934   4.103
13250W        W84833  26.238  17.444   0.238
13251W        W84834  25.598  14.821  10.745
13252W        W84835  40.865  43.251   3.780
13253W        W84836   2.331  37.032  12.100
13254W        W84837  21.524  38.567   3.303
13255W        W84838  23.626  37.576   2.327
13256W        W84839  11.182   3.731   0.393
13257W        W84840  31.244  22.699   3.688
13258W        W84841  42.998  11.858   3.651
13259W        W84842   7.753  31.352  14.355
13260W        W84843  20.889  14.329  10.994
13261W        W84844  11.088  24.617  13.542
13262W        W84845  21.653  27.144   1.463
13263W        W84846  11.266  41.604  13.500
13264W        W84847  43.233  15.851  11.733
13265W        W84848  12.601  16.024  10.616
13266W        W84849  20.947  27.033  11.072
13267W        W84850  39.431  40.085  14.696
13268W        W84851   1.350  38.057  11.582
13269W        W84852  11.447  23.428  11.281
13270W        W84853  30.621   3.332   0.428
13271W        W84854  23.726  43.849  14.926
13272W        W84855   4.401  12.879   4.618
13273W        W84856  22.062   7.038   4.972
13274W        W84857  35.424  32.106   2.224
13275W        W84858  13.215  21.740  12.456
13276W        W84859  27.896   3.066  12.273
13277W        W84860  12.930  39.911   1.774
13278W        W84861  33.788   2.277   5.030
13279W        W84862  16.533  25.223   0.803
13280W        W84863  26.668  26.707   2.802
13281W        W84864  13.875  30.164   4.658
13282W        W84865  16.389   9.551   1.947
13283W        W84866  12.348  20.779  10.685
13284W        W84867   5.944  21.623  14.564
13285W        W84868  20.071  27.526   2.424
13286W        W84869  22.751  40.748   4.219
13287W        W84870  22.682  35.422  14.988
13288W        W84871  10.223   2.177   4.726
13289W        W84872  24.031  20.275   0.431
13290W        W84873  11.789  19.051   1.624
13291W        W84874  13.728   9.719  12.336
13292W        W84875  31.019  28.645   1.512
13293W        W84876   9.838  43.511   0.087
13294W        W84877  28.611  43.267  13.389
13295W        W84878  21.442  20.004   3.193
13296W        W84879  20.748   1.902   1.430
13297W        W84880  38.313   7.943  13.991
13298W        W84881  29.704  27.388   0.491
13299W        W84882  11.873  28.031  13.032
13300W        W84883   0.383  33.715   4.556
13301W        W84884  33.551  30.810   1.350
13302W        W84885  26.549   9.045   3.188
13303W        W84886  23.273   7.094   1.379
13304W        W84887  18.253  40.815  13.870
13305W        W84888  26.736  29.648   1.104
13306W        W84889   2.817  13.862   1.647
13307W        W84890  27.484  19.828  13.389
13308W        W84891  38.873  42.519   2.161
13309W        W84892  11.578  18.830  11.957
13310W        W84893  37.809  25.237  11.707
13311W        W84894  26.529   2.920   4.238
13312W        W84895  18.668  26.656  14.488
13313W        W84896  12.771   8.274   0.699
13314W        W84897  29.684  39.563   2.820
13315W        W84898  31.411  41.521   1.821
13316W        W84899  25.561  38.438  13.836
13317W        W84900   0.854  42.291  13.460
13318W        W84901   9.670  21.374   1.767
13319W        W84902  10.150   8.942  12.520
13320W        W84903  24.043   4.278   3.223
13321W        W84904  26.340  31.180  10.363
13322W        W84905  18.939  32.092  10.080
13323W        W84906  43.497  29.920   1.350
13324W        W84907  37.018  29.846   3.389
13325W        W84908  28.758  17.973  11.823
13326W        W84909  30.682   1.481   4.855
13327W        W84910  14.146  27.525   3.790
13328W        W84911  17.540  35.126   4.599
13329W        W84912  38.951  32.564   4.181
13330W        W84913  22.270  11.208  13.264
13331W        W84914   0.156  27.068   1.820
13332W        W84915   5.848  26.452   4.945
13333W        W84916  15.923  36.368  11.193
13334W        W84917  43.868   2.146  11.767
13335W        W84918  16.999  41.314  10.977
13336W        W84919  21.518  18.824  11.203
13337W        W84920  31.139  12.098   1.226
13338W        W84921   5.306  44.739   0.521
13339W        W84922  10.752  16.817   4.604
13340W        W84923  12.393   4.200   0.730
13341W        W84924  34.083  25.159   3.237
13342W        W84925  20.975  10.920   9.913
13343W        W84926   9.568  26.780   3.666
13344W        W84927  23.937   4.160  11.596
13345W        W84928  21.106  20.703  11.603
13346W        W84929  16.687   7.436   3.417
13347W        W84930  39.361   6.830  14.685
13348W        W84931   1.745  18.070  11.169
13349W        W84932  38.232  15.633   0.435
13350W        W84933  14.389  18.829  14.526
13351W        W84934  35.896   5.164   4.535
13352W        W84935  15.261  31.661  13.784
13353W        W84936  36.383  29.476  14.348
13354W        W84937  19.619  15.909  12.942
13355W        W84938  33.589  41.110   4.637
13356W        W84939   7.776  12.296   3.410
13357W        W84940  11.838  12.835  13.456
13358W        W84941  33.852  19.035   0.869
13359W        W84942  11.829  25.209   1.863
13360W        W84943  15.074  12.828  14.726
13361W        W84944   0.603  33.742   2.716
13362W        W84945  32.860  16.734   3.701
13363W        W84946  14.514  23.419  11.718
13364W        W84947  29.474  38.882   2.337
13365W        W84948   1.545  14.683  13.481
13366W        W84949  25.013  22.614  14.817
13367W        W84950  41.829  18.113   4.801
13368W        W84951  21.487   9.826  10.657
13369W        W84952  23.348  14.511  13.492
13370W        W84953   2.436   3.882  13.306
13371W        W84954  14.798  11.563   0.752
13372W        W84955  15.266   8.321  10.645
13373W        W84956  33.023  35.918  13.874
13374W        W84957  11.938   8.792   1.524
13375W        W84958  13.214  37.469   3.524
13376W        W84959  27.118  32.518   1.085
13377W        W84960  22.615   2.358   3.741
13378W        W84961  14.232   6.802   1.349
13379W        W84962  19.849  14.795  13.911
13380W        W84963   7.481   5.831   4.100
13381W        W84964  38.693  14.633  13.270
13382W        W84965  36.977  22.826  14.708
13383W        W84966  41.082  23.472   3.313
13384W        W84967  14.519  23.593  12.204
13385W        W84968  38.137  27.387   1.922
13386W        W84969  10.410  28.661  12.847
13387W        W84970  22.150  44.813   4.625
13388W        W84971   1.400  37.118   3.221
13389W        W84972   7.645   3.404   3.595
13390W        W84973  26.479   2.217  14.565
13391W        W84974  11.821  34.330   0.934
13392W        W84975   6.337  30.083  11.435
13393W        W84976   5.212   6.937   3.663
13394W        W84977  30.503  21.292   4.127
13395W        W84978  30.723  41.399  11.933
13396W        W84979  15.646  22.439  14.944
13397W        W84980  34.913  10.988  14.297
13398W        W84981   4.767   5.857   1.008
13399W        W84982  40.733  27.181  11.571
13400W        W84983  39.015  41.523  12.172
13401W        W84984   5.042  16.524   4.502
13402W        W84985   1.319  38.210   1.904
13403W        W84986  15.315  43.480   1.656
13404W        W84987  26.384  21.645  12.035
13405W        W84988  30.569   6.698   3.251
13406W        W84989  17.393  14.157   3.755
13407W        W84990  28.905   2.840  10.981
13408W        W84991  27.580  25.164  12.384
13409W        W84992   9.133  10.260   4.692
13410W        W84993   5.096   2.822   1.258
13411W        W84994  32.093  24.720   2.951
13412W        W84995  42.305  43.950   1.218
13413W        W84996  29.066  38.910  14.072
13414W        W84997  43.562   6.350   1.804
13415W        W84998  20.110  28.476  14.482
13416W        W84999  37.557   9.718  11.088
13417W        W85000  19.568  22.699  13.062
13418W        W85001  42.928  13.164   4.141
13419W        W85002  33.466  31.838   1.343
13420W        W85003  12.628  41.515   2.654
13421W        W85004   0.936  29.403   1.604
13422W        W85005  22.755  11.937  11.110
13423W        W85006  44.487  31.665   0.649
13424W        W85007   8.406  24.300  13.512
13425W        W85008  16.271  18.298  14.238
13426W        W85009  24.019  13.746   1.018
13427W        W85010  38.813   3.386  14.939
13428W        W85011  38.332  14.721  13.952
13429W        W85012  14.786   4.363   2.353
13430W        W85013  22.253  27.991   3.669
13431W        W85014  12.931  38.856   2.707
13432W        W85015  13.837  29.649  14.316
13433W        W85016  33.881  19.725  12.390
13434W        W85017  18.740  40.658   1.143
13435W        W85018  11.746  15.135  12.519
13436W        W85019   5.788  29.908  12.124
13437W        W85020  37.920  18.512  10.769
13438W        W85021  11.365  31.872  12.812
13439W        W85022   9.598  10.026   2.825
13440W        W85023  12.007  15.624   4.481
13441W        W85024  42.323  42.291   1.743
13442W        W85025  24.628  22.883  12.400
13443W        W85026  22.780   6.631   2.477
13444W        W85027  43.091  39.967   0.294
13445W        W85028   1.770  31.970   1.862
13446W        W85029  18.786  10.289   0.044
13447W        W85030  16.632  29.891  13.789
13448W        W85031  18.761  12.297   1.498
13449W        W85032  26.309  22.593   1.423
13450W        W85033  35.081   8.685  14.907
13451W        W85034  37.705  26.427   9.537
13452W        W85035  34.077  22.077  12.288
13453W        W85036   1.694  25.900  13.968
13454W        W85037  18.852  15.009  12.426
13455W        W85038  21.785  18.066   2.837
13456W        W85039  30.615  33.805   4.408
13457W        W85040  14.733  21.576   2.142
13458W        W85041  18.176   3.969  12.491
13459W        W85042   7.809  20.993   1.467
13460W        W85043   0.782   1.293  10.752
13461W        W85044  30.839  27.481   2.748
13462W        W85045  38.137  32.474   4.823
13463W        W85046   6.380  18.832  12.970
13464W        W85047  23.752  26.220  14.380
13465W        W85048   2.944  39.388   1.809
13466W        W85049   6.273   5.013  11.758
13467W        W85050  15.611  43.134   4.227
13468W        W85051   3.960  31.985  12.421
13469W        W85052  31.966   6.403   3.248
13470W        W85053  21.202  24.731  11.447
13471W        W85054  22.474  43.555   2.793
13472W        W85055  42.262   4.026   0.915
13473W        W85056  32.657  36.507   3.156
13474W        W85057  31.893  27.934   1.179
13475W        W85058  26.574  42.208   4.307
13476W        W85059  17.039  43.028   0.456
13477W        W85060  16.109   3.507   1.484
13478W        W85061   7.346  11.636   4.482
13479W        W85062  23.877   3.023   3.764
13480W        W85063   6.610  41.276  12.069
13481W        W85064   7.248  33.609   1.955
13482W        W85065   4.460  44.336  14.239
13483W        W85066  24.988  10.897  12.584
13484W        W85067   4.320  28.218   0.118
13485W        W85068  42.648  39.765  11.139
13486W        W85069   2.774  14.635   0.262
13487W        W85070  12.650  44.463  14.433
13488W        W85071  22.557  31.730   0.291
13489W        W85072  26.460   0.238   1.276
13490W        W85073  15.571   8.306  11.923
13491W        W85074  18.929   1.463   1.684
13492W        W85075  42.799  38.859   4.106
13493W        W85076   7.425  35.968  12.793
13494W        W85077   1.678  22.395   3.811
13495W        W85078   8.615  41.774   2.900
13496W        W85079   0.465  19.664   2.744
13497W        W85080  23.978  11.069  13.863
13498W        W85081  22.284   6.357   3.800
13499W        W85082  25.310  15.923   1.407
13500W        W85083  42.583  23.804  11.946
13501W        W85084  27.181  18.753   4.264
13502W        W85085  30.121  30.120  13.768
13503W        W85086  27.196  30.392   2.347
13504W        W85087   1.572  28.546  12.184
13505W        W85088  34.860  42.295   2.269
13506W        W85089  26.164  26.183  14.172
13507W        W85090  26.640  21.987   3.623
13508W        W85091  35.368  15.701  11.790
13509W        W85092  39.502  30.069  11.569
13510W        W85093  31.441  33.081   3.206
13511W        W85094  27.643  10.121  12.996
13512W        W85095  36.551  19.189   1.622
13513W        W85096  26.482  34.412  10.702
13514W        W85097  14.372   5.849  14.247
13515W        W85098  18.983  43.899  14.501
13516W        W85099  19.777  28.497   1.432
13517W        W85100  16.786  17.143   2.417
13518W        W85101  27.744  35.776   1.226
13519W        W85102  21.774   6.656   0.892
13520W        W85103  22.220  29.070   5.011
13521W        W85104  17.206   6.272   0.015
13522W        W85105  43.966  11.719   4.772
13523W        W85106  26.733   6.238   0.483
13524W        W85107  29.217   2.827   2.878
13525W        W85108  44.304  27.462  11.306
13526W        W85109  23.752  35.722  11.177
13527W        W85110   7.742  25.511   0.489
13528W        W85111  28.024  40.624   1.819
13529W        W85112  10.151  35.910  13.668
13530W        W85113  24.994  39.278  13.603
13531W        W85114  33.336  43.860   1.435
13532W        W85115  35.355   5.884   2.672
13533W        W85116  35.633  16.303  13.301
13534W        W85117   5.726  39.459  11.988
13535W        W85118  25.418  20.168   0.390
13536W        W85119  31.166  41.785  10.277
13537W        W85120  34.030  42.411   1.989
13538W        W85121   1.287   9.193   2.634
13539W        W85122  12.642  11.174  11.184
13540W        W85123  32.063   4.320   4.046
13541W        W85124   7.807   5.394  10.731
13542W        W85125  24.930   4.693   0.972
13543W        W85126  32.040   0.030   1.420
13544W        W85127   4.950  38.072  14.014
13545W        W85128   0.879  35.063  10.456
13546W        W85129  17.737   4.465   2.303
13547W        W85130  16.298  21.406   1.884
13548W        W85131  35.020  36.093   3.341
13549W        W85132   4.686  14.738  11.099
13550W        W85133  28.764  31.440   4.954
13551W        W85134  11.952  28.890  12.980
13552W        W85135  26.146  32.179   0.269
13553W        W85136  30.902  22.483  10.310
13554W        W85137   6.798   2.254  12.064
13555W        W85138  34.500   0.960  12.495
13556W        W85139  26.859  28.754  11.619
13557W        W85140  39.509  36.262   0.383
13558W        W85141  23.248   9.825  12.882
13559W        W85142  31.493  23.414  13.515
13560W        W85143  12.348  12.888  11.401
13561W        W85144  42.398  36.995  12.969
13562W        W85145   7.750  33.065  13.282
13563W        W85146  38.966  36.619  10.944
13564W        W85147  27.079  41.482   3.439
13565W        W85148  38.673  32.496   2.819
13566W        W85149   1.070  36.573   1.964
13567W        W85150  37.071  12.088  10.735
13568W        W85151  28.383  13.032  11.978
13569W        W85152  12.659  32.442   0.115
13570W        W85153  43.954  44.009   0.661
13571W        W85154   7.100   4.929   2.702
13572W        W85155  40.010  38.869  12.538
13573W        W85156   5.699  37.874   1.357
13574W        W85157  28.119  28.797  11.163
13575W        W85158  27.067   8.853  12.888
13576W        W85159   2.147  25.019   3.241
13577W        W85160  40.433  30.499   2.328
13578W        W85161  38.465  42.398  12.807
13579W        W85162  33.119  22.171   1.202
13580W        W85163  17.769  27.574  11.584
13581W        W85164  16.171  13.612   3.586
13582W        W85165  26.767  31.587   2.151
13583W        W85166  42.991  34.084  14.631
13584W        W85167  29.739   4.235  12.526
13585W        W85168  12.319  18.747  14.322
13586W        W85169  15.759  36.769  12.962
13587W        W85170  25.183  12.387   4.164
13588W        W85171  32.779  13.686  12.010
13589W        W85172  21.009  17.564   0.211
13590W        W85173  42.519  42.899   3.123
13591W        W85174  11.620   8.160  14.261
13592W        W85175  30.944  20.005   5.751
13593W        W85176   5.312  10.737  14.255
13594W        W85177  31.900  22.644  11.610
13595W        W85178  31.674   0.306  13.413
13596W        W85179  44.786  42.460   0.802
13597W        W85180  25.104   0.573  13.921
13598W        W85181  30.523  34.805   2.392
13599W        W85182  10.228  31.912  10.718
13600W        W85183  10.214  17.770   3.877
13601W        W85184   7.825  33.613  14.056
13602W        W85185   2.498  17.178   3.806
13603W        W85186  17.430  38.815   5.093
13604W        W85187  24.377  20.962   0.909
13605W        W85188  10.792  36.330  13.105
13606W        W85189  10.181   7.167  11.120
13607W        W85190  20.119  24.238   9.549
13608W        W85191  21.150  26.499   0.726
13609W        W85192  22.033  31.644   2.290
13610W        W85193  42.732  41.871  14.948
13611W        W85194  22.693  24.346   2.120
13612W        W85195  36.476   8.027  14.925
13613W        W85196  25.884  33.471   3.592
13614W        W85197  30.086   8.877  14.961
13615W        W85198  31.581  13.168   4.501
13616W        W85199  39.066  41.656  11.222
13617W        W85200  25.219  34.840   0.343
13618W        W85201  14.143  35.403   2.901
13619W        W85202  37.869  41.943   4.881
13620W        W85203  28.636  35.583  11.975
13621W        W85204  20.274  28.163  13.873
13622W        W85205  25.367  42.497   3.188
13623W        W85206  26.276   0.381  12.847
13624W        W85207  38.750  12.828  12.054
13625W        W85208   7.799  16.729   3.847
13626W        W85209  42.365  29.385  12.898
13627W        W85210  32.985  15.203  12.890
13628W        W85211  18.751  37.166   4.951
13629W        W85212  40.119   4.360  11.302
13630W        W85213   4.791  24.937   1.349
13631W        W85214  23.655  29.159  13.717
13632W        W85215   4.227  15.340  14.384
13633W        W85216  42.040   3.717  12.457
13634W        W85217  43.830  26.113   3.331
13635W        W85218  25.073  33.380  13.434
13636W        W85219   3.201   6.892  12.410
13637W        W85220  16.628  26.414   4.087
13638W        W85221  29.534   6.247   1.196
13639W        W85222  35.050  22.006  13.018
13640W        W85223  20.185  15.666   2.465
13641W        W85224   7.633  26.220  14.840
13642W        W85225   4.271  24.708   3.173
13643W        W85226   8.942   7.138   0.421
13644W        W85227  31.006   2.510   4.418
13645W        W85228  13.536  37.067  11.582
13646W        W85229  28.111  31.118  12.555
13647W        W85230  10.667  35.025  11.963
13648W        W85231  18.979  41.235   0.265
13649W        W85232   3.203  17.388   0.791
13650W        W85233  35.285  34.873  10.840
13651W        W85234  31.505  34.090   4.262
13652W        W85235  16.570  39.279  13.466
13653W        W85236  26.628  29.672   3.270
13654W        W85237  17.348  35.562   5.061
13655W        W85238  18.401  20.257   3.735
13656W        W85239   8.422  12.354  12.898
13657W        W85240  37.323  44.765   1.209
13658W        W85241   6.719  12.555  14.048
13659W        W85242  11.142   8.725   4.861
13660W        W85243   4.399  14.782   4.430
13661W        W85244  18.276  27.488  13.606
13662W        W85245  37.393  29.565   4.579
13663W        W85246   3.461   2.824  11.636
13664W        W85247  28.431   2.365  13.373
13665W        W85248  20.597  36.775  10.857
13666W        W85249  22.075  16.277   0.831
13667W        W85250  39.075  32.880  12.579
13668W        W85251  31.031  11.392  13.695
13669W        W85252  12.192   3.490  11.057
13670W        W85253  39.265   8.322   3.276
13671W        W85254  44.819   5.688   1.899
13672W        W85255  13.855  12.660  10.806
13673W        W85256  20.545  12.129   1.280
13674W        W85257   6.785  11.823  13.245
13675W        W85258  10.663  10.335   2.411
13676W        W85259  22.512  18.072   5.059
13677W        W85260  36.363  27.297   2.310
13678W        W85261  30.499  20.709   3.224
13679W        W85262   4.274   7.653  13.925
13680W        W85263   5.009   9.402  12.883
13681W        W85264   9.632  32.065  13.675
13682W        W85265  14.173   3.828   4.065
13683W        W85266  31.958  31.346   0.453
13684W        W85267  16.281  10.911  11.630
13685W        W85268  40.337  18.631   0.366
13686W        W85269  30.891  40.596  11.989
13687W        W85270  32.144   4.540  11.887
13688W        W85271  42.471  26.625   4.686
13689W        W85272   7.673  30.077  12.178
13690W        W85273   5.903  21.585  14.042
13691W        W85274  35.693  17.806  14.966
13692W        W85275  42.862  14.050  11.078
13693W        W85276  21.498  11.214  14.520
13694W        W85277   0.936  34.596  14.747
13695W        W85278  16.284   7.212  10.803
13696W        W85279  20.948  27.670  10.206
13697W        W85280  16.430  32.191  13.897
13698W        W85281  40.644  39.156   0.306
13699W        W85282  26.884  11.144   4.515
13700W        W85283  13.903  23.979   1.269
13701W        W85284  14.806   3.349   2.138
13702W        W85285   0.503  23.627   3.326
13703W        W85286  16.334  34.184  12.427
13704W        W85287  32.598  13.014  11.602
13705W        W85288  43.809  42.274   3.281
13706W        W85289  14.073  39.391   2.480
13707W        W85290  13.237  33.210   4.920
13708W        W85291   2.568  23.508  13.950
13709W        W85292  12.297  13.175   1.777
13710W        W85293  11.178   2.494   1.791
13711W        W85294  38.573  14.149   0.554
13712W        W85295  14.624  16.660   4.027
13713W        W85296   3.961  36.158  14.752
13714W        W85297  30.020  31.311   2.430
13715W        W85298  15.315  38.976  12.449
13716W        W85299  36.621  16.139   4.570
13717W        W85300  34.413   1.249  10.711
13718W        W85301   3.892  36.952  13.296
13719W        W85302  17.109  44.372   2.725
13720W        W85303  35.153  23.946  14.853
13721W        W85304  15.562  16.304  11.153
13722W        W85305  35.023  29.924   2.728
13723W        W85306  32.670   2.737   3.983
13724W        W85307  31.622  24.223  13.821
13725W        W85308   9.607  10.959   3.883
13726W        W85309   8.458  43.506   1.810
13727W        W85310  38.985  22.503   2.240
13728W        W85311  15.102  16.170  12.959
13729W        W85312  30.666  27.717  11.155
13730W        W85313  29.505  25.164   4.999
13731W        W85314  38.597  33.797  14.967
13732W        W85315  40.926  44.228   1.649
13733W        W85316  12.032   1.192  13.252
13734W        W85317   8.681  10.344  11.114
13735W        W85318  44.216  22.212   5.316
13736W        W85319  16.560  41.839   1.718
13737W        W85320  17.995  27.484   4.720
13738W        W85321  13.613   5.417  13.371
13739W        W85322   8.441  39.343   0.281
13740W        W85323  21.141  15.687   2.007
13741W        W85324  25.048  27.688   3.624
13742W        W85325  40.100  33.571   1.807
13743W        W85326   7.572  18.106  11.573
13744W        W85327  42.787  12.730   0.696
13745W        W85328  35.112  24.501  14.355
13746W        W85329  23.098  26.700   1.870
13747W        W85330  41.370  27.022   4.414
13748W        W85331  43.355  10.414  13.364
13749W        W85332  37.411  26.925   2.700
13750W        W85333  20.202   1.215  12.483
13751W        W85334  36.567  35.194   2.409
13752W        W85335   9.079   1.881   4.162
13753W        W85336  18.618  26.200  14.762
13754W        W85337  14.828  27.663   4.587
13755W        W85338  18.313  26.726   5.036
13756W        W85339   5.834  39.129  13.309
13757W        W85340   4.161   1.372  14.281
13758W        W85341   3.481  12.133   2.205
13759W        W85342  23.691  39.481   0.271
13760W        W85343   4.490  23.793  13.969
13761W        W85344  26.656  43.962   3.535
13762W        W85345  26.020  10.874  12.510
13763W        W85346  14.249   0.485  11.596
13764W        W85347  12.409  23.556   0.017
13765W        W85348  41.464  27.912  11.564
13766W        W85349  10.934  26.650   3.687
13767W        W85350  14.643  19.667  13.555
13768W        W85351  43.955  20.344  12.102
13769W        W85352  31.402  34.151  11.735
13770W        W85353   8.800  13.307   4.123
13771W        W85354  17.107  37.594   1.054
13772W        W85355  28.609  11.586  14.511
13773W        W85356  21.568   9.636   5.515
13774W        W85357  23.455   5.363  12.418
13775W        W85358  44.226  18.197   1.897
13776W        W85359  19.530  39.154  11.600
13777W        W85360   7.420   0.485   1.529
13778W        W85361  17.048  13.652   0.756
13779W        W85362  26.276  12.173  14.714
13780W        W85363  13.104  37.202  14.403
13781W        W85364  13.606  13.840   1.254
13782W        W85365  16.661  44.756   4.848
13783W        W85366   0.578  28.574   0.595
13784W        W85367   2.480   6.370  12.464
13785W        W85368  18.232  40.469   4.655
13786W        W85369  30.684   5.912   3.690
13787W        W85370  10.378  30.467  12.537
13788W        W85371   5.335   1.259   2.195
13789W        W85372   9.767  43.982   0.253
13790W        W85373  41.380  15.880   2.738
13791W        W85374  40.034   5.220   0.479
13792W        W85375   5.153  17.334  13.282
13793W        W85376   7.842  23.987  12.538
13794W        W85377  37.068  20.350  14.367
13795W        W85378  23.021   7.420   0.821
13796W        W85379  43.877  10.604  13.326
13797W        W85380  39.882  29.408   3.081
13798W        W85381  39.377   5.878   0.788
13799W        W85382  16.257  24.425  11.080
13800W        W85383  17.158   8.701   3.271
13801W        W85384   5.684  18.854  11.171
13802W        W85385  42.810  39.569   2.288
13803W        W85386  34.414  37.114   4.659
13804W        W85387  18.219  36.633  11.499
13805W        W85388  14.053  37.841  14.370
13806W        W85389  22.150  28.939  12.194
13807W        W85390  10.379  21.558  10.463
13808W        W85391   7.636  37.393  11.753
13809W        W85392  35.341  25.462  13.595
13810W        W85393  11.473  40.767   4.598
13811W        W85394  18.002   2.879   2.420
13812W        W85395  11.746  12.103   0.618
13813W        W85396  14.617  18.816  12.416
13814W        W85397  20.190   1.939  11.826
13815W        W85398   6.877  27.989   2.529
13816W        W85399  29.058   5.917   1.444
13817W        W85400  24.792   4.703   2.796
13818W        W85401   4.170  27.507   2.736
13819W        W85402   7.957  41.309   0.856
13820W        W85403  24.126   9.089  10.533
13821W        W85404  30.962  33.393  12.428
13822W        W85405  33.272   3.923  13.916
13823W        W85406  24.598  35.528  14.081
13824W        W85407  14.147   0.712   1.469
13825W        W85408  21.452  26.941  14.937
13826W        W85409  19.494   7.398  14.374
13827W        W85410  34.411   7.856   2.620
13828W        W85411  25.254   7.071  13.926
13829W        W85412  28.673  21.042  13.837
13830W        W85413  10.919   8.370  11.683
13831W        W85414  22.123   4.852  10.564
13832W        W85415   0.824  18.850  11.339
13833W        W85416  39.816   2.289  11.572
13834W        W85417  29.811  16.684   3.773
13835W        W85418  32.476  44.784   3.692
13836W        W85419  14.055  41.799  10.699
13837W        W85420  43.289   9.394  13.845
13838W        W85421  41.495  34.911   2.227
13839W        W85422  22.926   1.989   4.009
13840W        W85423  15.828  30.314  12.471
13841W        W85424  35.865  32.274   0.894
13842W        W85425  10.264  42.906  11.812
13843W        W85426   3.710  17.687   3.563
13844W        W85427   0.942   8.530   2.127
13845W        W85428  41.913  15.645   2.826
13846W        W85429  37.474  21.637  14.132
13847W        W85430  36.095  16.017  12.042
13848W        W85431  43.263   1.684   1.861
13849W        W85432  17.106  39.149  14.859
13850W        W85433  24.158  15.347  11.706
13851W        W85434  34.633  12.141  14.424
13852W        W85435   5.928   6.903  12.672
13853W        W85436  39.155   6.543  10.441
13854W        W85437  34.576  25.144   4.860
13855W        W85438  32.635  34.809  13.344
13856W        W85439   7.335  16.761  12.883
13857W        W85440  40.097  38.512  11.918
13858W        W85441  31.235  25.207  13.882
13859W        W85442  25.184   5.281  12.920
13860W        W85443   2.355   2.969   2.503
13861W        W85444   6.793   8.104   2.824
13862W        W85445  17.293  29.476  12.966
13863W        W85446   6.353  22.788  11.653
13864W        W85447  17.046  41.277  12.394
13865W        W85448  21.266  20.230  10.143
13866W        W85449   2.299  37.327   2.063
13867W        W85450  38.697   3.685   1.761
13868W        W85451  11.846  28.922  14.734
13869W        W85452  43.758   8.599  12.895
13870W        W85453  37.614  29.571   0.804
13871W        W85454  27.889  12.355   3.282
13872W        W85455  34.460  28.715   4.456
13873W        W85456  17.169  16.998   0.780
13874W        W85457  14.947   8.701  13.324
13875W        W85458  14.584  17.790   2.773
13876W        W85459   1.754  24.709  11.619
13877W        W85460  43.719  41.891  12.053
13878W        W85461  35.761  37.081   3.741
13879W        W85462  15.223  17.783   4.326
13880W        W85463   8.702  39.601  14.891
13881W        W85464  31.382  22.301  10.372
13882W        W85465  34.170  39.258   0.359
13883W        W85466  35.328  26.192   1.452
13884W        W85467  32.988  41.139  13.808
13885W        W85468  31.334  19.186   9.815
13886W        W85469   5.885   0.920   4.370
13887W        W85470  38.081  44.057  14.534
13888W        W85471  16.287  41.795  10.694
13889W        W85472  13.055  43.226   2.972
13890W        W85473  42.153  43.411   0.489
13891W        W85474   2.936  40.750  14.653
13892W        W85475   5.269   7.701  10.665
13893W        W85476  19.453   7.421   1.505
13894W        W85477  19.087   7.291   3.589
13895W        W85478  26.651  23.408  13.632
13896W        W85479  14.934  35.987   0.941
13897W        W85480  18.594  44.416   1.806
13898W        W85481  40.342  29.648  10.719
13899W        W85482  42.907  21.966   0.889
13900W        W85483  41.052  13.234   3.753
13901W        W85484  14.359  20.089  10.974
13902W        W85485  31.144  41.610  12.795
13903W        W85486   4.677  38.268  12.544
13904W        W85487  42.476  39.951  10.680
13905W        W85488  27.878   5.433   3.606
13906W        W85489  16.680  19.951  12.194
13907W        W85490  16.671  18.088   2.775
13908W        W85491   0.624  21.112  14.801
13909W        W85492  23.116  23.556  14.447
13910W        W85493  14.584  20.252   0.379
13911W        W85494   2.199  13.633  10.681
13912W        W85495   6.801   1.083  11.324
13913W        W85496  43.057   1.832   4.746
13914W        W85497  34.361   6.747   3.295
13915W        W85498  24.196  34.944   0.292
13916W        W85499  21.124   2.448   3.663
13917W        W85500  11.484  35.327  12.825
13918W        W85501   4.474  21.804  10.677
13919W        W85502   4.662  10.171   2.806
13920W        W85503  35.893  13.247   1.369
13921W        W85504  15.379   6.352  13.570
13922W        W85505  16.984  40.951  12.788
13923W        W85506  38.442  28.856  11.092
13924W        W85507   7.919  32.591  11.507
13925W        W85508  11.314  14.167   4.869
13926W        W85509   4.418   3.686   4.065
13927W        W85510  30.431  35.981   3.674
13928W        W85511   9.262   4.849   3.644
13929W        W85512  30.437  22.509  14.777
13930W        W85513  35.957  21.361  10.283
13931W        W85514  23.653  41.766   2.660
13932W        W85515   2.039   9.145  11.166
13933W        W85516   5.155  21.697   1.008
13934W        W85517  27.632  39.825  14.822
13935W        W85518  42.246  31.849  14.890
13936W        W85519  32.451  35.276   4.863
13937W        W85520  25.560  42.747  14.486
13938W        W85521  25.010  22.294  11.573
13939W        W85522  30.087   1.672   1.038
13940W        W85523   0.024   7.409   0.632
13941W        W85524  40.823  25.624   3.222
13942W        W85525  42.769  10.865   4.777
13943W        W85526  35.081  40.390   1.815
13944W        W85527   6.465  39.777   1.379
13945W        W85528  33.159  41.538   5.024
13946W        W85529   8.741  20.151   3.311
13947W        W85530  11.598  29.539   4.651
13948W        W85531   3.569  30.009  11.074
13949W        W85532  33.677  25.184   0.114
13950W        W85533   5.818  16.212  11.587
13951W        W85534   7.181  13.054  13.420
13952W        W85535  16.117  44.186   0.785
13953W        W85536  36.364  38.311   0.955
13954W        W85537  14.920   7.921   3.213
13955W        W85538  12.229  17.618  14.109
13956W        W85539   9.299   9.608  13.412
13957W        W85540  36.582  42.523  14.827
13958W        W85541  37.387   3.362  14.031
13959W        W85542  33.937  42.844   1.711
13960W        W85543  11.801   5.509   4.156
13961W        W85544  16.673  22.595  10.359
13962W        W85545  10.037  16.418   2.893
13963W        W85546   1.611   7.426   4.441
13964W        W85547  17.883  38.818  13.508
13965W        W85548  21.217   9.804   0.328
13966W        W85549  10.104  24.042  14.103
13967W        W85550  11.054   5.862   4.046
13968W        W85551   5.471  42.645   0.455
13969W        W85552   5.867  22.257   0.204
13970W        W85553  35.778  24.535  14.784
13971W        W85554  18.652  32.366   0.807
13972W        W85555  25.110  26.972  11.642
13973W        W85556   6.781  16.671  10.648
13974W        W85557   4.701   7.173  12.105
13975W        W85558   1.230  42.405   3.362
13976W        W85559   5.860  13.850   5.113
13977W        W85560  31.527  31.914  11.156
13978W        W85561  42.268  10.332  12.470
13979W        W85562  32.448  39.952  11.481
13980W        W85563  22.532  28.647   5.016
13981W        W85564  37.829  27.628   3.744
13982W        W85565  18.665   9.334  10.542
13983W        W85566  26.087   3.916  11.083
13984W        W85567  38.292  23.064  13.768
13985W        W85568  26.973  23.153  12.125
13986W        W85569  10.678  16.644   3.591
13987W        W85570  26.265  23.578  12.882
13988W        W85571  31.778  22.079  12.069
13989W        W85572  41.941  22.087   0.449
13990W        W85573  11.623  33.559   3.289
13991W        W85574  17.409  23.186   2.206
13992W        W85575  10.872  34.679  13.881
13993W        W85576  13.610  24.236  12.917
13994W        W85577  34.186  16.871   0.683
13995W        W85578  16.199  28.752  10.700
13996W        W85579  38.838  20.004   2.450
13997W        W85580   0.942   2.026   1.195
13998W        W85581   4.895  27.231   0.208
13999W        W85582  21.735  27.892   4.334
14000W        W85583   7.140  25.682   3.693
14001W        W85584  29.861   4.193  13.924
14002W        W85585  10.742  26.033   1.652
14003W        W85586  39.344  37.524  11.606
14004W        W85587  16.580  24.863   2.860
14005W        W85588  44.852  28.937  13.158
14006W        W85589  14.062  42.781  14.751
14007W        W85590  22.310   3.960   3.132
14008W        W85591  16.136  17.648   0.443
14009W        W85592  15.589  41.005   3.791
14010W        W85593  18.821  39.307  10.705
14011W        W85594  21.797   6.418   2.687
14012W        W85595  22.992   0.814   4.885
14013W        W85596   3.904  12.219   1.242
14014W        W85597  29.970  13.090   2.935
14015W        W85598   8.691  38.519  12.973
14016W        W85599   6.814  26.772   1.902
14017W        W85600  11.255   1.414   1.348
14018W        W85601  35.324  17.526  13.097
14019W        W85602  44.925  41.073   0.300
14020W        W85603  11.270  13.676   0.885
14021W        W85604   2.282  33.847  12.474
14022W        W85605   5.834  32.893   4.642
14023W        W85606   2.677  33.488  11.605
14024W        W85607  21.285  33.132   4.091
14025W        W85608  11.855  39.900   3.457
14026W        W85609  36.503  29.459   4.339
14027W        W85610   8.605   9.293  12.072
14028W        W85611  20.172  26.101  14.891
14029W        W85612  32.236  10.345   2.455
14030W        W85613  11.579  40.122   4.254
14031W        W85614  31.672  17.466  12.389
14032W        W85615  10.668   3.844  14.437
14033W        W85616  21.455  10.334  10.721
14034W        W85617  17.638  27.285  11.168
14035W        W85618  29.102  15.170  13.497
14036W        W85619   3.929  33.700  13.482
14037W        W85620  10.641  31.414   4.252
14038W        W85621   4.366  13.239  13.995
14039W        W85622  27.951  29.894   2.085
14040W        W85623  33.805  34.081   0.747
14041W        W85624   9.409  24.603  10.861
14042W        W85625  11.959  35.291  12.615
14043W        W85626   1.422  19.986  13.227
14044W        W85627   8.275  24.700  11.426
14045W        W85628  38.285   9.852  11.727
14046W        W85629   2.266  30.250  14.266
14047W        W85630  10.816  33.747   0.815
14048W        W85631   8.917   1.812  10.565
14049W        W85632  29.621  17.778  13.279
14050W        W85633   0.761  33.924   0.328
14051W        W85634  42.049  19.217  12.541
14052W        W85635  16.928  12.967  10.542
14053W        W85636  14.304  12.448  11.028
14054W        W85637  30.138  33.778   1.220
14055W        W85638  24.211  32.368   2.248
14056W        W85639  22.419  42.441   4.934
14057W        W85640  23.683  39.077  10.783
14058W        W85641  28.541  18.251  14.482
14059W        W85642  39.434   5.968   2.823
14060W        W85643  33.018   7.203  14.371
14061W        W85644   0.452  10.563  11.914
14062W        W85645  27.570  30.909   4.556
14063W        W85646   0.422  13.350  10.757
14064W        W85647  29.062  38.901   4.547
14065W        W85648  11.761   4.314  13.210
14066W        W85649  11.355  27.102   4.130
14067W        W85650  17.868  11.202  14.888
14068W        W85651   0.969  38.398   1.148
14069W        W85652  12.460  30.374  13.353
14070W        W85653  25.977  37.515  10.646
14071W        W85654   7.090  32.019  11.692
14072W        W85655  24.083  24.307   4.109
14073W        W85656  29.617  10.286   3.599
14074W        W85657   0.066  32.838   4.107
14075W        W85658  41.113  22.903  11.996
14076W        W85659  20.500  44.229  12.363
14077W        W85660  44.770  37.232   3.299
14078W        W85661   7.986  12.851  14.991
14079W        W85662  34.903  24.194  12.808
14080W        W85663  38.731  35.608  12.676
14081W        W85664  34.079  44.545   1.201
14082W        W85665  19.937  43.415  12.553
14083W        W85666  42.990  38.608   0.771
14084W        W85667  29.078  35.480  11.177
14085W        W85668  25.446   3.035  11.158
14086W        W85669   2.342  14.178  10.733
14087W        W85670  19.362   0.283  14.404
14088W        W85671  15.147  26.126  12.660
14089W        W85672  44.059  16.842  14.852
14090W        W85673  30.727  34.907   1.023
14091W        W85674  22.305  44.677  11.511
14092W        W85675   6.164  11.890  12.069
14093W        W85676  17.214  27.692  14.818
14094W        W85677  13.772  34.616  10.886
14095W        W85678  23.753  30.373  11.731
14096W        W85679  15.116   8.697   2.333
14097W        W85680   6.803   0.578   0.857
14098W        W85681  37.930  17.555   4.269
14099W        W85682  21.119  13.871   0.357
14100W        W85683  11.554   6.832  14.973
14101W        W85684  15.054  17.759  13.433
14102W        W85685  11.976  17.169  13.281
14103W        W85686   3.374  18.942  14.867
14104W        W85687  20.789  15.820   9.444
14105W        W85688  10.745  33.137  11.026
14106W        W85689  12.793  13.046  13.056
14107W        W85690  14.919  40.985   0.714
14108W        W85691  19.280  34.371   0.812
14109W        W85692  15.121  29.129   2.491
14110W        W85693  42.963   0.107   3.272
14111W        W85694  39.908  42.182   2.806
14112W        W85695  40.934  42.723   1.472
14113W        W85696  36.481  35.893  10.706
14114W        W85697  36.359  14.601  14.259
14115W        W85698   5.510   2.486  11.064
14116W        W85699   5.715  12.798  11.136
14117W        W85700  20.299  32.942  11.602
14118W        W85701  19.493   9.887   0.781
14119W        W85702  20.392  23.903   5.017
14120W        W85703   8.598  27.413  12.118
14121W        W85704  27.618  11.703   4.601
14122W        W85705  23.979   0.830  12.448
14123W        W85706   6.380   3.370  13.365
14124W        W85707   0.761   3.839  10.717
14125W        W85708  16.504  41.599   2.225
14126W        W85709  39.221   6.637   1.678
14127W        W85710  34.989  30.990   4.662
14128W        W85711  42.294   0.250  11.156
14129W        W85712  12.309  37.940   4.182
14130W        W85713  26.227  43.460   1.350
14131W        W85714  42.327  14.356   4.070
14132W        W85715  21.165  36.373   4.579
14133W        W85716  27.037   4.168   1.301
14134W        W85717  40.947  35.273   4.521
14135W        W85718  14.844  38.975  12.666
14136W        W85719  39.809  40.898  10.624
14137W        W85720  40.564  44.493   2.476
14138W        W85721   7.436   4.360   3.370
14139W        W85722  11.773  28.829  11.120
14140W        W85723  37.760   4.445   1.865
14141W        W85724  40.598  38.462   4.185
14142W        W85725  26.078  23.625  12.367
14143W        W85726  16.560  14.599   2.416
14144W        W85727  17.289  43.192   2.845
14145W        W85728  26.641   2.497   0.782
14146W        W85729  32.070  27.933   2.545
14147W        W85730  37.734   2.447  11.089
14148W        W85731  43.063   1.540  12.069
14149W        W85732   9.468  13.932  10.617
14150W        W85733  14.104  42.692  13.925
14151W        W85734  10.425   3.229   2.334
14152W        W85735   4.491  20.215   0.525
14153W        W85736  11.151  41.782  12.991
14154W        W85737  14.611   1.299  14.341
14155W        W85738  12.330  13.875  13.903
14156W        W85739  28.500  30.508   4.665
14157W        W85740  32.992   4.450  11.123
14158W        W85741  22.015  37.050  11.338
14159W        W85742   1.033  29.067   2.282
14160W        W85743   3.870   0.127  13.301
14161W        W85744  12.777  17.304  12.817
14162W        W85745   8.206   2.030  13.227
14163W        W85746  37.044  32.523  13.033
14164W        W85747   4.380  24.989  14.574
14165W        W85748  25.985  38.099   1.738
14166W        W85749   1.781  26.816  11.169
14167W        W85750   2.858   3.724  14.164
14168W        W85751  21.752  13.280   0.203
14169W        W85752  21.117   6.681  11.464
14170W        W85753   5.359   3.042   1.874
14171W        W85754  25.389  17.698  11.164
14172W        W85755   2.358  13.247   0.244
14173W        W85756  32.531  35.395  10.614
14174W        W85757  10.770  15.172   2.363
14175W        W85758  15.170  22.561   0.861
14176W        W85759  28.118  16.359  11.535
14177W        W85760   4.709  15.621  10.943
14178W        W85761  40.429   9.632   1.423
14179W        W85762  31.833  36.386  14.403
14180W        W85763  38.480  23.737  12.908
14181W        W85764  41.356  39.392   2.655
14182W        W85765  19.774  21.229   0.800
14183W        W85766  12.297   6.360   4.407
14184W        W85767  22.138  35.937  12.827
14185W        W85768  25.126  13.576   3.267
14186W        W85769  42.846  16.573  10.716
14187W        W85770  27.568  22.626  14.128
14188W        W85771   6.864  34.896   2.812
14189W        W85772  14.628  33.982  14.733
14190W        W85773  18.199  10.262  10.430
14191W        W85774   1.934   8.951   3.286
14192W        W85775  35.002  23.454   3.147
14193W        W85776  17.529  41.197   4.254
14194W        W85777  28.656  35.083   4.551
14195W        W85778   9.480  20.195   0.412
14196W        W85779  30.602   0.567  13.998
14197W        W85780  44.874  32.083  13.115
14198W        W85781  16.858   0.009  12.094
14199W        W85782  44.520  10.079   0.950
14200W        W85783  37.113  17.329  12.468
14201W        W85784  20.705  35.592   1.784
14202W        W85785  20.661   7.852   4.603
14203W        W85786  17.156  18.675  10.586
14204W        W85787   2.897  14.836   1.321
14205W        W85788  23.515  29.470   2.743
14206W        W85789  37.015  42.104   4.203
14207W        W85790  37.926   1.489   0.222
14208W        W85791  29.656  12.293   4.597
14209W        W85792  30.105  44.310   0.988
14210W        W85793  19.885   3.371   4.907
14211W        W85794   0.244   3.982   2.190
14212W        W85795  24.600  33.638  13.423
14213W        W85796  12.195  30.369  12.574
14214W        W85797   5.409   0.880   0.394
14215W        W85798  42.441  44.492   4.802
14216W        W85799  42.223   7.731   2.605
14217W        W85800  36.237  15.161  14.593
14218W        W85801  10.312  44.544  13.029
14219W        W85802  32.148  24.056   1.827
14220W        W85803  13.738   3.733   2.757
14221W        W85804  24.718  43.331  13.632
14222W        W85805  41.586  38.983  11.985
14223W        W85806  34.082  22.223  13.174
14224W        W85807  24.644  13.909  13.298
14225W        W85808  34.358  11.735   1.136
14226W        W85809   4.584   9.349   4.034
14227W        W85810  26.769  21.284  10.799
14228W        W85811   9.087  31.950   2.912
14229W        W85812  43.882  24.211   0.259
14230W        W85813  26.701   3.519   0.861
14231W        W85814   8.941  36.593   1.035
14232W        W85815  22.188  38.864   1.871
14233W        W85816  32.470   1.909  10.204
14234W        W85817   5.459  28.702  11.165
14235W        W85818  10.701  35.096  12.471
14236W        W85819  23.704   3.866  10.799
14237W        W85820  31.409  25.295   1.874
14238W        W85821  11.174   8.750   4.348
14239W        W85822  40.351  30.405   1.816
14240W        W85823  40.784  27.183   2.797
14241W        W85824  32.491  32.954  11.288
14242W        W85825  40.656  19.837   2.601
14243W        W85826  27.406  24.839   4.212
14244W        W85827  43.090  37.660  11.441
14245W        W85828  18.914  17.054  10.076
14246W        W85829  24.422  13.841   3.873
14247W        W85830  32.016  29.931  13.044
14248W        W85831   1.734  40.752   4.885
14249W        W85832  34.139  23.626  14.541
14250W        W85833  28.489  26.973  14.878
14251W        W85834  44.390  24.741   2.332
14252W        W85835  10.868  24.028   0.423
14253W        W85836  39.637  12.168   4.215
14254W        W85837  39.435  35.875   3.673
14255W        W85838  22.518  37.840   3.649
14256W        W85839  20.704  17.835  14.920
14257W        W85840  39.365  15.820  11.085
14258W        W85841  22.153   7.196   1.904
14259W        W85842  23.226   3.191   3.795
14260W        W85843  14.687   7.738  12.021
14261W        W85844  35.103  43.427   1.842
14262W        W85845  33.682   0.365  14.012
14263W        W85846   1.687  39.364  12.102
14264W        W85847  35.929  30.946   0.839
14265W        W85848  13.200   8.417   0.975
14266W        W85849  28.661  44.494   2.716
14267W        W85850  35.938  29.787  14.465
14268W        W85851  41.002  26.501   4.853
14269W        W85852  42.536   0.414   4.225
14270W        W85853  22.714  27.594   1.759
14271W        W85854  20.075  20.166  14.806
14272W        W85855  43.404  34.466  13.401
14273W        W85856  35.574  44.917   2.570
14274W        W85857  42.088  41.960   0.403
14275W        W85858  31.463  31.004  14.333
14276W        W85859  16.520  31.899  11.239
14277W        W85860  30.107  22.121   2.874
14278W        W85861  33.399  39.605  13.970
14279W        W85862  18.462  14.568  12.338
14280W        W85863  31.355  41.294   0.845
14281W        W85864   7.973  42.424   4.214
14282W        W85865  38.511  35.982   1.738
14283W        W85866  19.773   1.754  11.547
14284W        W85867  28.488  32.322  10.235
14285W        W85868  27.401  31.720   2.757
14286W        W85869  23.254   0.674   1.959
14287W        W85870  26.132  16.294   4.446
14288W        W85871   2.194   7.065   3.158
14289W        W85872  18.022   4.512  11.414
14290W        W85873  14.699  12.539  14.906
14291W        W85874   0.512  23.678  14.915
14292W        W85875  32.886   0.881   1.317
14293W        W85876  21.738  30.166   1.666
14294W        W85877  19.102  26.670   4.449
14295W        W85878  21.976  19.134  12.059
14296W        W85879  14.064  33.540  12.686
14297W        W85880  42.470  23.579   1.795
14298W        W85881  19.407  43.516  12.995
14299W        W85882  16.602  33.579   0.358
14300W        W85883   2.579  22.220   2.283
14301W        W85884  41.405  44.208   1.987
14302W        W85885  15.178  34.010  14.375
14303W        W85886  39.812  19.132   1.839
14304W        W85887  24.097  41.462  11.649
14305W        W85888  22.517   8.334  13.970
14306W        W85889  26.307  36.062   0.142
14307W        W85890  15.589  40.842   1.427
14308W        W85891  32.874  27.724   2.828
14309W        W85892  22.230  38.530   1.259
14310W        W85893   7.362  30.212   0.459
14311W        W85894  29.631  23.384  13.383
14312W        W85895  40.935  19.588   2.227
14313W        W85896  37.047   0.401   0.378
14314W        W85897   2.439  26.975   2.280
14315W        W85898  44.765  31.264   0.494
14316W        W85899   0.458  11.286  11.071
14317W        W85900  15.876  24.301  10.420
14318W        W85901  20.229  41.821   3.114
14319W        W85902   5.374  37.114   5.025
14320W        W85903  36.408   3.017   0.911
14321W        W85904  27.638   3.936   1.775
14322W        W85905  44.952  44.887   2.853
14323W        W85906  12.778   3.426  12.562
14324W        W85907  11.607  20.577  13.391
14325W        W85908   8.447  25.691   4.612
14326W        W85909  15.515  12.377  13.427
14327W        W85910   4.480  10.187   1.697
14328W        W85911  21.470  38.195   5.079
14329W        W85912  22.371  17.178   5.542
14330W        W85913  34.526  28.278   4.204
14331W        W85914  10.075  30.361   0.273
14332W        W85915   9.446  26.744  13.261
14333W        W85916  42.269   4.473  13.558
14334W        W85917   6.277  13.448   4.414
14335W        W85918  17.091  26.069  13.357
14336W        W85919  12.407  24.124  13.510
14337W        W85920  27.557   9.681  12.089
14338W        W85921   2.802  27.194   3.705
14339W        W85922  11.733   9.339   2.190
14340W        W85923  23.216  28.495   3.603
14341W        W85924   6.726  21.167  14.955
14342W        W85925  31.924  36.944   0.568
14343W        W85926  35.202  41.261   4.095
14344W        W85927  18.844  34.163  11.443
14345W        W85928  37.523  11.307   0.739
14346W        W85929  35.467  20.090  10.729
14347W        W85930  22.508   5.699   4.778
14348W        W85931   4.972  10.156  11.470
14349W        W85932  42.297  34.608   0.411
14350W        W85933   9.315  13.535   3.230
14351W        W85934  29.677  38.392  14.868
14352W        W85935  44.647  14.722  13.942
14353W        W85936  28.706  17.743   3.084
14354W        W85937  18.134  19.936  13.373
14355W        W85938  16.286  21.941  13.843
14356W        W85939  23.188  33.134  14.002
14357W        W85940  33.967  30.900  13.265
14358W        W85941  42.520  38.385   3.255
14359W        W85942   8.881  37.335  12.564
14360W        W85943   5.198  41.777   4.279
14361W        W85944  36.499   4.471   2.274
14362W        W85945  27.679  14.267  13.352
14363W        W85946  42.363  30.810   1.317
14364W        W85947   7.928  33.987  11.424
14365W        W85948  16.054  13.073  14.939
14366W        W85949  34.940   7.453   9.940
14367W        W85950  42.484   3.441  10.673
14368W        W85951  35.876  25.843  11.145
14369W        W85952  35.528  35.091   3.275
14370W        W85953  37.806   6.204   3.308
14371W        W85954  13.836  38.097  13.950
14372W        W85955   7.899   1.925  14.538
14373W        W85956   7.681  11.280   3.694
14374W        W85957   5.772  12.114  11.814
14375W        W85958  16.510  33.254  11.215
14376W        W85959  28.754  19.456   4.621
14377W        W85960  29.091  36.747   0.330
14378W        W85961   0.030   1.810  11.651
14379W        W85962  21.504  19.256   1.463
14380W        W85963  34.998  44.401   3.602
14381W        W85964  36.632  20.638  11.302
14382W        W85965  27.569  16.617   1.604
14383W        W85966   7.250  44.935   0.787
14384W        W85967   0.478  30.637  12.952
14385W        W85968  38.959   3.861  11.649
14386W        W85969   9.003  10.340  13.843
14387W        W85970  28.669  34.056   9.800
14388W        W85971  21.849  32.563   4.979
14389W        W85972  24.180  18.629  13.262
14390W        W85973  22.840  34.338   2.664
14391W        W85974   0.222  36.536  13.866
14392W        W85975   4.767   9.877  11.054
14393W        W85976   2.245   2.672   3.376
14394W        W85977  26.089  43.948  10.743
14395W        W85978  44.502  37.401  12.566
14396W        W85979   2.972  17.887   3.295
14397W        W85980  12.735  25.434  11.576
14398W        W85981  29.452  31.341  13.695
14399W        W85982  11.273   9.780   0.371
14400W        W85983  37.821  34.630   0.034
14401W        W85984  29.339   2.721   0.882
14402W        W85985  43.862  31.998   0.339
14403W        W85986  25.504   3.294  12.938
14404W        W85987  34.601  22.611  10.585
14405W        W85988  12.143  16.626   0.028
14406W        W85989  11.126  30.074  12.911
14407W        W85990  32.909  20.591  10.709
14408W        W85991  25.835  20.503   0.361
14409W        W85992   1.439   8.466   0.945
14410W        W85993   4.531  42.397  14.044
14411W        W85994  20.514   8.084  11.623
14412W        W85995   2.276  12.080  10.512
14413W        W85996  38.791  25.163   2.676
14414W        W85997  44.017  31.600   3.180
14415W        W85998  34.704  14.596   3.611
14416W        W85999   6.035  16.233  11.065
14417W        W86000  43.573  20.217  10.762
14418W        W86001   4.754  16.240   3.438
14419W        W86002  26.645  19.461   1.236
14420W        W86003  18.037  10.671   1.815
14421W        W86004  35.615  30.601  10.932
14422W        W86005   8.301  42.186   1.647
14423W        W86006  17.746  19.061   4.374
14424W        W86007   5.838  43.667   1.141
14425W        W86008  40.084   2.522   1.531
14426W        W86009  26.465  27.246   1.916
14427W        W86010   6.820  35.413   0.899
14428W        W86011   4.037  15.718   3.471
14429W        W86012  30.357  13.889   4.981
14430W        W86013  31.556  30.151  13.031
14431W        W86014  38.872   8.277   4.252
14432W        W86015  25.739  39.630  11.210
14433W        W86016  24.649  19.535   3.856
14434W        W86017  14.071  41.511   0.275
14435W        W86018   0.475  39.273   0.229
14436W        W86019  35.305   4.309  11.450
14437W        W86020  44.718  40.459  12.153
14438W        W86021  18.101  12.793   1.773
14439W        W86022  18.921  34.483  13.564
14440W        W86023  33.504  36.623  12.053
14441W        W86024  37.629   4.861  14.298
14442W        W86025  39.454   1.924   2.344
14443W        W86026  33.175  36.160  14.510
14444W        W86027   4.969  21.022  10.642
14445W        W86028  23.691  42.514   0.343
14446W        W86029  10.573  11.319  10.719
14447W        W86030   3.176   1.296  14.428
14448W        W86031   1.251  14.297  13.066
14449W        W86032   5.246  24.757   4.849
14450W        W86033   5.332   0.050  12.081
14451W        W86034  35.610   3.705   1.824
14452W        W86035  32.871  17.217   3.481
14453W        W86036  37.797   1.185   4.553
14454W        W86037  30.637  43.308  14.412
14455W        W86038  13.297   9.274   4.212
14456W        W86039   4.729  43.880   2.913
14457W        W86040  26.651  32.355  11.079
14458W        W86041  20.039  20.812   4.574
14459W        W86042  30.058   8.693  14.459
14460W        W86043  41.226   2.342   4.705
14461W        W86044   2.990  14.631   0.764
14462W        W86045  38.975   4.748  14.029
14463W        W86046  16.409  27.879   0.046
14464W        W86047  12.662  19.520   1.304
14465W        W86048   0.888  17.995   4.156
14466W        W86049  27.469  34.496  13.955
14467W        W86050   0.466  39.084   2.706
14468W        W86051   3.934  35.919   3.149
14469W        W86052   9.489  22.592   3.221
14470W        W86053   5.177  30.491   4.671
14471W        W86054   0.917  41.750   2.253
14472W        W86055  28.973  18.322   4.208
14473W        W86056   9.838  10.307   0.505
14474W        W86057  18.666  41.111  14.016
14475W        W86058  40.839  31.712   1.672
14476W        W86059  24.550  21.665   3.098
14477W        W86060  16.797  18.811   3.678
14478W        W86061   0.174  28.454   0.892
14479W        W86062   1.521  26.284   2.326
14480W        W86063  43.751  43.216  12.756
14481W        W86064  31.589  42.536  12.230
14482W        W86065  19.206  17.306   3.218
14483W        W86066  27.576  29.930  11.704
14484W        W86067  28.722   7.447   4.054
14485W        W86068  18.258   4.960  13.452
14486W        W86069  43.489  22.723   4.894
14487W        W86070  15.389  14.182   3.352
14488W        W86071   3.779  39.204  10.147
14489W        W86072  23.984   9.965  14.855
14490W        W86073   6.636  39.576   3.361
14491W        W86074  22.176  15.378   1.860
14492W        W86075  19.655  24.267   3.622
14493W        W86076   6.666  12.722  11.326
14494W        W86077   6.648  41.570  11.164
14495W        W86078  12.413  39.496  13.481
14496W        W86079  43.474  12.113   3.622
14497W        W86080  27.630  25.086   1.236
14498W        W86081  28.534  24.783   1.329
14499W        W86082  32.233  44.693  12.021
14500W        W86083  28.207   2.877   2.904
14501W        W86084  14.763  41.039  12.973
14502W        W86085  34.621  23.140   4.439
14503W        W86086  29.609  24.874  14.433
14504W        W86087  19.552  30.634   4.124
14505W        W86088  34.653  15.807   1.263
14506W        W86089   7.603  32.698  11.101
14507W        W86090   4.932  21.494  11.631
14508W        W86091   3.806  29.680  11.393
14509W        W86092  11.268  43.179   1.842
14510W        W86093  42.301  15.375   0.386
14511W        W86094   0.125   2.436  11.127
14512W        W86095  27.276  10.388  13.235
14513W        W86096  25.630  39.610  13.005
14514W        W86097  20.299  28.335   5.569
14515W        W86098  19.300   2.860   0.967
14516W        W86099  30.723   7.608  12.722
14517W        W86100  23.094  11.280   2.613
14518W        W86101  40.403  27.210   4.627
14519W        W86102   3.313   0.888  13.823
14520W        W86103   2.999  16.314  13.900
14521W        W86104  28.285  38.657   1.878
14522W        W86105  14.613  15.088   4.094
14523W        W86106  39.475  32.722   3.703
14524W        W86107   3.149  43.195  12.480
14525W        W86108  20.646  42.912   2.854
14526W        W86109  21.989  14.386   2.197
14527W        W86110  28.706  14.551   2.779
14528W        W86111  30.205  33.041   1.827
14529W        W86112   3.218  23.136  11.926
14530W        W86113  21.334   7.680  12.064
14531W        W86114  35.482  14.740   0.395
14532W        W86115  44.370  18.424   5.117
14533W        W86116  19.135  32.958   3.333
14534W        W86117  23.715  32.369  13.980
14535W        W86118  26.139   7.183   2.121
14536W        W86119  41.730  42.281  14.365
14537W        W86120  18.674  26.247   0.296
14538W        W86121  36.945  35.600  13.933
14539W        W86122   9.188  11.248  10.793
14540W        W86123  22.098  35.560   2.478
14541W        W86124  27.392  29.105   2.501
14542W        W86125   8.344  27.870  12.512
14543W        W86126  30.128   0.731   4.236
14544W        W86127  38.577  26.120  12.024
14545W        W86128  15.892  32.325  12.576
14546W        W86129   9.640  23.662   3.317
14547W        W86130  30.629  13.002  14.059
14548W        W86131  10.248  42.931   1.960
14549W        W86132   6.657  19.627   2.322
14550W        W86133  42.081   9.414   3.606
14551W        W86134  33.133  15.623  11.624
14552W        W86135  19.081  15.665   4.773
14553W        W86136   0.975  20.789  11.700
14554W        W86137  26.530   0.385  10.579
14555W        W86138  22.420  18.939  11.166
14556W        W86139  38.382   9.347   1.940
14557W        W86140  31.681  39.504   3.154
14558W        W86141   0.942  17.089   1.382
14559W        W86142  16.592  17.651   4.162
14560W        W86143  34.974   3.426  11.669
14561W        W86144  43.803  27.643  12.687
14562W        W86145  15.774  28.893   3.189
14563W        W86146   8.682  15.805   0.930
14564W        W86147  12.717  42.287  11.044
14565W        W86148  21.692   5.383   1.271
14566W        W86149  34.563  31.444  10.677
14567W        W86150   1.442  30.107   0.151
14568W        W86151  42.948  27.053  12.733
14569W        W86152  19.063   3.936   1.224
14570W        W86153  12.970  27.855  11.100
14571W        W86154   0.253  25.613  10.777
14572W        W86155  37.974   4.651   3.690
14573W        W86156   4.371  13.673   2.239
14574W        W86157  25.789  23.595   3.533
14575W        W86158  39.289  30.517   1.992
14576W        W86159  28.705  24.768   3.355
14577W        W86160   9.073  15.716  13.248
14578W        W86161  39.594  20.127   4.313
14579W        W86162  17.117  28.966   0.946
14580W        W86163   2.975  17.799  14.516
14581W        W86164  26.021   6.848  11.325
14582W        W86165  14.404  31.623  13.523
14583W        W86166  23.936   5.166  12.432
14584W        W86167  16.368  38.409   3.031
14585W        W86168  14.033  10.317   2.048
14586W        W86169  13.297  15.722   0.835
14587W        W86170  43.257   8.710  13.042
14588W        W86171  22.732   3.740  12.268
14589W        W86172  12.147  21.370   1.958
14590W        W86173  10.669  16.385   0.058
14591W        W86174  30.868  10.235  12.954
14592W        W86175   1.258  33.665   4.621
14593W        W86176  31.897  40.792  11.395
14594W        W86177  13.626  39.731  14.898
14595W        W86178  43.328   8.199   0.447
14596W        W86179  37.024  22.279   4.262
14597W        W86180   9.581   3.826   2.645
14598W        W86181   6.872  18.090   3.714
14599W        W86182  32.942  35.471   0.267
14600W        W86183  31.997  14.831  13.077
14601W        W86184  35.159  29.539   4.679
14602W        W86185  31.093  39.667  14.011
14603W        W86186  22.607  11.169   1.179
14604W        W86187  15.192  13.360   0.909
14605W        W86188  32.430  38.361   4.617
14606W        W86189   8.023  40.820   2.163
14607W        W86190  16.633  37.570   3.332
14608W        W86191  27.213  21.581   4.643
14609W        W86192  43.984   2.998   5.110
14610W        W86193   0.811  39.460   4.157
14611W        W86194  11.226   4.581  11.423
14612W        W86195  25.257  10.517  10.229
14613W        W86196  26.128  33.603   1.762
14614W        W86197  22.162  34.332  13.869
14615W        W86198  40.003   9.195  13.365
14616W        W86199  31.410  28.268   0.062
14617W        W86200  31.722  33.632   4.509
14618W        W86201  13.419  13.538   3.255
14619W        W86202  38.637  40.504   2.055
14620W        W86203  34.050  42.631  13.959
14621W        W86204  33.661  22.564  13.114
14622W        W86205   7.510  37.568   0.519
14623W        W86206   4.823  28.404   3.667
14624W        W86207  35.519  20.687   0.793
14625W        W86208  14.665  35.787   1.652
14626W        W86209   4.669  39.119   0.270
14627W        W86210  17.913  22.573   5.385
14628W        W86211  16.288  31.633   3.715
14629W        W86212  21.752   3.847  12.817
14630W        W86213   6.529  22.977  10.700
14631W        W86214   1.894   8.448   1.210
14632W        W86215  36.486  35.151   3.271
14633W        W86216  15.192  34.663  11.614
14634W        W86217  29.740   3.135   5.215
14635W        W86218  29.407  38.797  11.470
14636W        W86219  32.979  35.017   0.532
14637W        W86220  44.325  33.851   4.374
14638W        W86221  30.913  21.023   3.066
14639W        W86222   7.744   7.704   0.966
14640W        W86223  16.505   2.966   2.214
14641W        W86224  24.625  31.225   3.739
14642W        W86225   0.395  33.860   1.388
14643W        W86226  12.109  13.368   2.256
14644W        W86227  34.690   6.303  13.823
14645W        W86228  37.575   3.806  10.357
14646W        W86229  30.860   8.147   2.251
14647W        W86230   6.294  41.469  13.426
14648W        W86231  43.286  34.513  13.906
14649W        W86232   1.457  34.671  13.472
14650W        W86233  19.335  17.571   4.497
14651W        W86234  32.141  34.630  13.419
14652W        W86235  41.240  37.003   1.737
14653W        W86236   1.725   0.973  12.159
14654W        W86237  12.551  26.387   0.491
14655W        W86238  24.767  20.927   3.985
14656W        W86239   3.500  31.970  12.667
14657W        W86240  13.339   0.919  12.589
14658W        W86241   4.307   0.984   2.729
14659W        W86242  22.673  24.688   1.296
14660W        W86243   0.444  27.101   1.385
14661W        W86244  21.658   2.494  14.730
14662W        W86245  38.842   0.260   4.821
14663W        W86246  37.559  40.538  11.058
14664W        W86247  33.089  40.333   4.102
14665W        W86248  18.967  31.432   0.307
14666W        W86249   9.621   2.800   3.133
14667W        W86250  23.633  10.355   3.889
14668W        W86251  30.385   8.786   4.511
14669W        W86252  13.058  18.815   3.828
14670W        W86253  40.011  27.227   0.555
14671W        W86254   7.702  43.313  10.677
14672W        W86255  44.516  18.550  11.084
14673W        W86256  12.745  43.581  12.512
14674W        W86257  34.492  14.523  12.392
14675W        W86258  26.592  39.490   3.458
14676W        W86259  26.228  29.649   1.277
14677W        W86260  18.750  38.002  12.477
14678W        W86261  13.137  33.299   0.312
14679W        W86262  15.329   9.561   0.739
14680W        W86263  26.044  25.204   2.190
14681W        W86264  10.146  30.156  14.430
14682W        W86265  18.209   0.462   0.236
14683W        W86266  38.791  18.999   1.953
14684W        W86267  29.935  28.991   3.808
14685W        W86268   2.158   7.377   4.494
14686W        W86269  19.574  27.639  14.080
14687W        W86270   1.903   9.457  10.729
14688W        W86271   5.386  30.032  10.901
14689W        W86272   3.027  21.161  11.138
14690W        W86273   8.922  41.861  11.210
14691W        W86274   2.269  35.121   5.052
14692W        W86275  16.138  13.333   2.669
14693W        W86276   7.153  27.742   2.159
14694W        W86277   3.456  29.361   0.671
14695W        W86278  31.960  39.886   1.867
14696W        W86279  30.142  44.509   2.766
14697W        W86280  35.081  38.231  11.424
14698W        W86281  39.819  43.529  14.053
14699W        W86282  20.765   4.716  11.996
14700W        W86283   9.917  36.330  14.415
14701W        W86284  10.720  17.700   2.271
14702W        W86285  20.646  41.559   1.972
14703W        W86286   3.448  28.990  11.468
14704W        W86287  29.835   0.246  11.178
14705W        W86288  36.935  19.575  12.353
14706W        W86289  22.110  26.288   1.346
14707W        W86290  39.950  23.921   3.176
14708W        W86291   4.451  39.494   1.780
14709W        W86292  19.610   9.309   0.401
14710W        W86293   3.670  25.485  14.732
14711W        W86294  37.367  21.743   3.255
14712W        W86295   9.983  13.823  10.764
14713W        W86296   0.559  10.383   3.051
14714W        W86297  44.335  33.227   1.857
14715W        W86298  42.345   2.043   4.283
14716W        W86299  15.199  15.243   1.930
14717W        W86300  15.994   3.346  12.931
14718W        W86301  23.633  10.411  13.988
14719W        W86302  29.087  18.520  13.371
14720W        W86303   8.381  28.334   2.595
14721W        W86304  32.414  23.982  11.379
14722W        W86305  30.536  15.329  11.933
14723W        W86306  25.634  41.340   0.891
14724W        W86307  15.711  24.481  13.566
14725W        W86308   7.315   2.313  13.382
14726W        W86309  24.763  21.027   2.724
14727W        W86310  16.662  30.873   4.987
14728W        W86311  35.038  32.402  14.350
14729W        W86312  10.412  18.163   4.174
14730W        W86313   3.421   3.666  11.949
14731W        W86314  42.465  28.300  11.024
14732W        W86315  12.714  24.666  14.506
14733W        W86316  22.242  36.941   2.360
14734W        W86317  21.307  43.997  10.134
14735W        W86318  16.524   3.831   4.502
14736W        W86319   6.269  13.142   3.982
14737W        W86320  39.461  43.336   2.571
14738W        W86321  11.906  28.477   0.460
14739W        W86322   0.355  14.380  10.725
14740W        W86323  42.668  43.346   0.524
14741W        W86324  36.574   8.019  13.432
14742W        W86325  34.000  36.123  11.139
14743W        W86326  24.201  38.284   2.261
14744W        W86327  28.464   7.686   3.673
14745W        W86328  15.167  30.898  11.933
14746W        W86329  33.836  37.504   1.933
14747W        W86330  42.539   7.705   1.276
14748W        W86331  40.255  36.848  13.478
14749W        W86332  25.475  38.896  11.735
14750W        W86333  38.820  26.756  14.136
14751W        W86334  21.756   9.258   3.357
14752W        W86335  18.871  27.861   3.692
14753W        W86336  40.067  38.774   2.707
14754W        W86337  41.803  28.955  10.754
14755W        W86338  15.878   4.371  11.366
14756W        W86339  27.696  23.608  10.581
14757W        W86340  39.917  20.681  13.151
14758W        W86341  27.922  13.751  13.550
14759W        W86342   6.451  19.689  10.355
14760W        W86343  22.513  17.606   0.245
14761W        W86344  34.025   0.486   3.748
14762W        W86345  36.987  19.818  12.976
14763W        W86346  23.512  10.264  13.290
14764W        W86347  17.016  40.403  12.460
14765W        W86348  27.944  10.586  14.103
14766W        W86349  11.789  24.183   2.265
14767W        W86350  42.197  33.453   0.669
14768W        W86351  36.121  19.843   0.974
14769W        W86352  11.144  20.011  14.826
14770W        W86353  24.022   4.349   4.206
14771W        W86354   0.562  28.103   2.759
14772W        W86355  27.470   2.709   1.359
14773W        W86356  13.208  43.770  12.235
14774W        W86357  36.633  32.022   3.623
14775W        W86358  39.857  42.300  12.404
14776W        W86359  39.376  10.107   2.171
14777W        W86360  31.457  16.540   4.434
14778W        W86361  22.171  20.723   0.741
14779W        W86362  21.101   9.834  14.409
14780W        W86363  36.566  36.840   3.994
14781W        W86364  33.467  24.627  13.352
14782W        W86365  30.430  36.402   3.179
14783W        W86366  19.558   5.027  10.765
14784W        W86367  27.605  44.815  12.852
14785W        W86368  29.431  44.919   4.852
14786W        W86369  11.626   6.373   9.988
14787W        W86370  40.568  42.587   4.136
14788W        W86371   9.225  31.188   1.461
14789W        W86372  35.316  44.397   1.700
14790W        W86373  19.283  40.447   1.212
14791W        W86374  25.456   1.457  12.827
14792W        W86375   2.952  11.836   1.344
14793W        W86376  10.739  33.181  14.962
14794W        W86377  26.282   9.463  11.530
14795W        W86378  26.870   7.321   4.359
14796W        W86379  21.799  35.143  14.049
14797W        W86380   1.377  37.993   4.096
14798W        W86381   5.231  13.249  12.627
14799W        W86382   1.460   0.793   4.256
14800W        W86383   5.996  32.791  13.881
14801W        W86384  27.560  39.262   3.689
14802W        W86385  13.167  28.262   0.730
14803W        W86386  40.818   4.966   0.915
14804W        W86387   2.736   3.304  12.818
14805W        W86388  40.104   3.839  14.842
14806W        W86389  43.494  12.332   1.093
14807W        W86390  27.566  26.660  11.579
14808W        W86391  22.670  30.034  12.082
14809W        W86392   2.681   4.195  13.827
14810W        W86393   5.737   8.633  13.921
14811W        W86394  11.376  33.074  13.997
14812W        W86395  33.513  29.131  14.565
14813W        W86396   3.438  41.668  13.730
14814W        W86397  17.727  32.631  14.857
14815W        W86398  30.968  28.428   2.936
14816W        W86399  21.577  37.368  12.283
14817W        W86400  18.321   6.368   3.852
14818W        W86401   8.770   1.007   2.333
14819W        W86402  37.253  42.334   3.688
14820W        W86403  23.201  38.375   3.955
14821W        W86404   7.126  16.665   1.204
14822W        W86405  10.916  37.128  14.804
14823W        W86406  41.404   3.518  14.865
14824W        W86407  11.640  19.198  13.912
14825W        W86408  26.420  10.877   4.483
14826W        W86409  41.788  42.344   1.581
14827W        W86410  16.971   7.801  11.956
14828W        W86411  29.466  24.408  13.466
14829W        W86412  23.911  11.177   3.652
14830W        W86413  20.810  26.603  13.446
14831W        W86414  17.687   7.177   4.406
14832W        W86415   5.342  10.224   1.641
14833W        W86416  12.676   3.553   1.855
14834W        W86417  20.112  19.688   2.231
14835W        W86418  20.781  15.484  13.750
14836W        W86419   9.948  43.710   0.673
14837W        W86420   2.496  29.464  13.957
14838W        W86421  40.546  28.572  12.345
14839W        W86422   1.670  29.909   1.782
14840W        W86423  32.163   0.873   0.780
14841W        W86424  11.560  35.026  14.539
14842W        W86425  15.682  21.424  13.483
14843W        W86426   9.153  39.784  14.716
14844W        W86427  37.085   5.228   4.685
14845W        W86428  16.123  15.820  14.987
14846W        W86429  44.590   8.920   1.952
14847W        W86430  36.352  21.240  12.892
14848W        W86431   2.017   3.054   2.107
14849W        W86432   0.758   6.414   4.152
14850W        W86433  39.328  37.552   2.118
14851W        W86434  23.710  29.067   0.750
14852W        W86435  32.754  35.439   3.866
14853W        W86436  24.967  38.874   1.311
14854W        W86437  23.772  20.169  13.892
14855W        W86438   5.712   4.849   2.140
14856W        W86439   0.835  38.413   1.915
14857W        W86440  22.637  14.904   0.687
14858W        W86441  12.056  24.215  10.705
14859W        W86442  17.401  14.149  14.914
14860W        W86443  28.898  14.427   3.994
14861W        W86444  25.081  36.284  14.616
14862W        W86445  36.631  21.407  14.378
14863W        W86446  14.090  31.947   1.467
14864W        W86447  42.928   3.245   4.987
14865W        W86448  22.173  20.924  14.806
14866W        W86449  11.835  21.845   3.794
14867W        W86450   2.743   9.886  11.668
14868W        W86451  13.295  24.504  13.843
14869W        W86452  36.981  28.250   2.573
14870W        W86453   1.892  23.272   2.805
14871W        W86454  23.674  16.077   1.412
14872W        W86455  20.254   2.947   0.427
14873W        W86456  36.555  19.975   3.723
14874W        W86457   2.808   8.785  11.575
14875W        W86458   9.848  42.898  10.213
14876W        W86459   1.422   3.907  12.965
14877W        W86460   4.409  36.051   3.051
14878W        W86461  42.966   5.797   2.223
14879W        W86462  15.569  17.282   3.599
14880W        W86463   4.909  29.145   3.229
14881W        W86464  35.525   6.594  12.217
14882W        W86465  28.499   7.195   3.637
14883W        W86466  22.042  22.553  10.530
14884W        W86467  21.520  36.556   0.881
14885W        W86468  41.443  10.179   2.306
14886W        W86469  14.184  24.201  12.433
14887W        W86470   3.172  26.542   2.758
14888W        W86471  30.554  28.658  12.068
14889W        W86472  23.432  32.657   4.784
14890W        W86473  40.565   6.656   4.305
14891W        W86474   2.728   9.730  13.414
14892W        W86475  36.320   7.974  12.573
14893W        W86476  23.834  32.976   4.873
14894W        W86477  27.775  29.423   3.902
14895W        W86478  28.393  35.334  13.397
14896W        W86479  10.377  41.877   0.329
14897W        W86480  28.003  33.847   0.517
14898W        W86481  35.355  16.118   2.980
14899W        W86482   9.942  34.495   2.122
14900W        W86483  29.389  39.864  13.573
14901W        W86484  10.068  41.495   3.807
14902W        W86485  40.039  41.905   2.371
14903W        W86486   4.833   1.436  12.988
14904W        W86487  21.959   3.010  14.304
14905W        W86488  29.210  20.505   0.467
14906W        W86489   7.284  16.906  10.626
14907W        W86490   1.547  25.300   2.397
14908W        W86491  14.257  35.011  11.707
14909W        W86492  16.053  25.141   3.276
14910W        W86493   6.310  30.550   3.579
14911W        W86494  33.997   6.137   1.645
14912W        W86495   2.443  40.634   0.004
14913W        W86496  20.703   3.529  14.807
14914W        W86497  20.034  34.450  12.037
14915W        W86498  14.967  27.151  12.632
14916W        W86499  19.413  34.746   1.663
14917W        W86500  44.122  29.819  11.152
14918W        W86501  33.318   8.309   1.949
14919W        W86502  21.212  37.007  12.021
14920W        W86503  33.430  37.947  11.597
14921W        W86504  25.944   4.601   0.811
14922W        W86505  32.653  10.449  13.526
14923W        W86506  19.025  37.350   2.344
14924W        W86507  11.583  18.534  13.871
14925W        W86508  15.326   3.349  11.749
14926W        W86509   0.942  29.811   2.799
14927W        W86510  19.293  20.571  13.995
14928W        W86511  13.099  41.545  10.777
14929W        W86512  18.035  16.634   0.367
14930W        W86513  25.169  32.111  12.587
14931W        W86514   2.378  44.308  10.614
14932W        W86515   2.489  14.226  12.577
14933W        W86516   3.831  31.993  13.988
14934W        W86517  32.830   8.244   4.584
14935W        W86518  16.183   7.310   1.269
14936W        W86519  28.664  41.477  13.928
14937W        W86520  16.223   8.588   1.684
14938W        W86521  11.274   2.910  13.841
14939W        W86522  22.953  37.531   4.021
14940W        W86523   3.290  31.100   0.093
14941W        W86524  23.598  20.150   4.577
14942W        W86525  24.101  18.719   3.782
14943W        W86526  18.204  16.723  10.701
14944W        W86527  20.280  43.901   1.013
14945W        W86528   5.266  14.555  12.720
14946W        W86529   3.974  38.597  14.800
14947W        W86530  24.003  29.110   3.433
14948W        W86531   0.594  32.873  10.818
14949W        W86532   3.544  43.882   1.167
14950W        W86533   1.748   8.168  12.582
14951W        W86534  22.027  15.890  13.771
14952W        W86535  30.897  32.048  12.233
14953W        W86536  38.193  34.011   3.968
14954W        W86537  20.966  30.280  14.006
14955W        W86538  24.431  26.994  11.909
14956W        W86539  29.410  11.080  14.888
14957W        W86540   2.564  21.045  10.956
14958W        W86541  18.604  20.360   0.748
14959W        W86542  28.439  44.271  13.380
14960W        W86543   2.864  19.155  12.851
14961W        W86544  22.632   2.752   3.381
14962W        W86545  33.128   7.853   0.714
14963W        W86546   6.400   5.494   1.290
14964W        W86547  27.088  41.081   0.147
14965W        W86548  36.082   9.340  13.882
14966W        W86549  36.766   9.914   2.690
14967W        W86550   1.494  38.726  13.620
14968W        W86551  21.730  28.898  11.131
14969W        W86552  28.173  23.805   2.886
14970W        W86553  42.403  25.462   3.376
14971W        W86554  40.287  27.846   1.003
14972W        W86555   1.458  25.927  11.710
14973W        W86556  10.667  34.431  11.472
14974W        W86557  17.568  25.028  10.306
14975W        W86558  42.518  29.187   3.300
14976W        W86559   8.851   8.727   0.180
14977W        W86560  15.027  42.560   4.081
14978W        W86561  12.376  34.873  12.937
14979W        W86562  38.289  21.546  12.087
14980W        W86563  26.259  43.421  10.618
14981W        W86564  31.989  21.534   0.368
14982W        W86565  32.155   6.422   2.771
14983W        W86566  42.568   1.314  14.705
14984W        W86567  30.451  21.262   3.183
14985W        W86568  34.484  17.339  10.556
14986W        W86569   6.121  17.188   0.504
14987W        W86570  43.507   8.821  11.694
14988W        W86571   7.728   3.636  13.357
14989W        W86572  19.634  30.658  11.605
14990W        W86573  19.041  19.668  14.306
14991W        W86574  30.046   8.448  13.537
14992W        W86575  28.279  24.660   4.114
14993W        W86576   4.387  37.438  14.234
14994W        W86577  21.968   8.642   2.686
14995W        W86578  43.799   3.513   0.208
14996W        W86579   8.883  43.901   3.593
14997W        W86580   9.429  35.044   4.706
14998W        W86581  11.327  25.529  14.974
14999W        W86582  40.576   2.571  14.336
15000W        W86583  10.298  28.439   4.741
15001W        W86584  34.997  25.637   1.760
15002W        W86585  32.454  19.328  10.592
15003W        W86586  18.548  40.623   5.053
15004W        W86587  22.222  37.124   4.037
15005W        W86588  16.381  40.202  13.821
15006W        W86589   6.940  23.606  11.762
15007W        W86590   4.662  19.467  11.003
15008W        W86591  27.060  14.373   1.832
15009W        W86592  15.793  27.234   4.171
15010W        W86593  31.048  39.730   1.210
15011W        W86594  27.996  34.428   3.187
15012W        W86595  23.621  29.686   4.845
15013W        W86596   4.363  24.984  13.568
15014W        W86597  39.463  33.359   4.591
15015W        W86598  13.785  44.504  12.575
15016W        W86599  38.899  33.903  13.601
15017W        W86600  12.657  37.374  10.617
15018W        W86601  21.778  10.121  10.351
15019W        W86602  14.202  31.389  14.944
15020W        W86603  32.864   6.214   3.411
15021W        W86604  39.286  44.854  11.598
15022W        W86605  12.351  16.217  14.419
15023W        W86606   2.884   4.318   3.430
15024W        W86607  32.909  23.490  12.474
15025W        W86608   4.346  18.158   1.633
15026W        W86609  28.632  22.052  11.661
15027W        W86610  23.184  10.286   1.013
15028W        W86611  27.376  43.756  11.063
15029W        W86612  30.988  37.264   4.104
15030W        W86613  22.511  28.876  10.685
15031W        W86614  44.489  26.265  14.953
15032W        W86615  18.281  10.609  14.302
15033W        W86616   3.914  16.520  14.077
15034W        W86617  38.090  19.688   2.807
15035W        W86618  22.946  20.067   0.268
15036W        W86619  30.319  40.322  11.171
15037W        W86620  36.438   3.740   3.709
15038W        W86621  32.431  31.850   0.072
15039W        W86622  40.273  43.734  14.805
15040W        W86623  18.981  42.379  12.542
15041W        W86624   4.429  27.171  13.430
15042W        W86625  10.743  44.355  10.025
15043W        W86626  21.634  29.240  11.510
15044W        W86627  10.344  32.950  13.883
15045W        W86628  33.423  38.946   1.821
15046W        W86629  33.596  40.288   5.094
15047W        W86630   0.776  11.647  13.016
15048W        W86631  13.594  27.974   0.921
15049W        W86632   6.355   2.675   2.066
15050W        W86633  27.175  31.073  14.445
15051W        W86634  11.846  29.733   1.893
15052W        W86635  16.073  10.012   0.925
15053W        W86636  21.521   3.089   4.065
15054W        W86637  10.617  44.291  11.565
15055W        W86638  23.265   7.280  11.881
15056W        W86639  23.731  39.145  11.291
15057W        W86640  21.305  26.080   3.890
15058W        W86641   0.919  12.573   0.777
15059W        W86642  33.929   0.345   1.630
15060W        W86643   4.741  30.658   4.456
15061W        W86644  40.928  26.747   2.141
15062W        W86645  23.122  23.737  13.569
15063W        W86646  32.643  20.471   5.047
15064W        W86647  39.071  20.193   4.431
15065W        W86648   1.332  27.478  12.882
15066W        W86649  14.764  28.657   0.250
15067W        W86650   9.188  34.947   0.783
15068W        W86651  17.178   7.441   1.743
15069W        W86652  27.569  40.849   4.665
15070W        W86653  26.393   5.086  11.595
15071W        W86654  41.880  21.757  12.537
15072W        W86655  25.067  20.075  13.423
15073W        W86656  13.089  12.348  11.215
15074W        W86657   2.499  18.213  13.560
15075W        W86658  39.760   5.856   3.294
15076W        W86659  12.359  24.577  12.365
15077W        W86660  22.270  31.244   4.593
15078W        W86661   9.695   2.492   0.289
15079W        W86662  17.029  35.317   2.722
15080W        W86663  32.916  28.073  10.501
15081W        W86664  12.188  27.179  13.933
15082W        W86665  29.198  22.078  14.496
15083W        W86666  33.358  10.230   0.157
15084W        W86667  23.131  14.811   0.877
15085W        W86668  30.738  19.607  10.836
15086W        W86669  18.363   6.700   1.346
15087W        W86670   6.000  31.506   4.812
15088W        W86671  11.259  44.718  12.494
15089W        W86672  27.038   4.157   3.622
15090W        W86673  13.793  28.236   3.659
15091W        W86674  24.543  44.014   2.766
15092W        W86675  17.186  16.816  14.271
15093W        W86676  29.850  43.442  11.742
15094W        W86677   0.852  38.060   3.320
15095W        W86678  16.089  41.542  12.545
15096W        W86679   6.178  25.111  11.054
15097W        W86680  20.152   0.432   1.497
15098W        W86681  35.945  39.958   0.914
15099W        W86682   2.082  13.131   2.233
15100W        W86683  30.119  19.220  14.986
15101W        W86684   3.795   6.675   3.684
15102W        W86685  20.932  42.559   0.316
15103W        W86686  32.949   1.401   0.955
15104W        W86687   8.325  26.907   3.996
15105W        W86688  32.343   7.452   0.863
15106W        W86689  34.035  25.554  11.048
15107W        W86690   9.351   0.180   3.827
15108W        W86691  42.229  11.654   0.748
15109W        W86692  19.587   2.388   4.296
15110W        W86693  13.623  23.050   3.105
15111W        W86694   3.435  42.077  14.609
15112W        W86695  21.607   6.289   3.151
15113W        W86696  24.995   9.658   3.642
15114W        W86697  43.872  34.276  13.234
15115W        W86698  33.789   4.675  12.071
15116W        W86699  18.068  12.034  10.638
15117W        W86700  19.711  10.790  10.659
15118W        W86701   1.943  31.461   3.799
15119W        W86702  14.223  37.567  13.199
15120W        W86703  12.820  29.180   3.550
15121W        W86704  12.205  15.700  10.538
15122W        W86705  29.495   3.694  11.523
15123W        W86706  42.365  15.534   0.872
15124W        W86707  20.495   8.584  10.624
15125W        W86708  16.486  13.576  14.121
15126W        W86709   2.968   4.867   2.640
15127W        W86710  36.584  10.133   0.749
15128W        W86711  22.168  42.974  10.689
15129W        W86712  43.789  25.182  14.326
15130W        W86713  11.345   1.760   2.849
15131W        W86714  12.997  26.518   3.140
15132W        W86715  10.573  30.568   3.230
15133W        W86716  29.527   5.493  13.930
15134W        W86717  20.052  18.224  14.639
15135W        W86718   7.604  17.303   2.618
15136W        W86719  44.799  19.510  13.683
15137W        W86720   9.622  40.795   1.371
15138W        W86721  14.442  43.372   1.380
15139W        W86722  37.892  28.321  12.799
15140W        W86723  24.523  25.115   0.691
15141W        W86724   5.948  14.527  14.022
15142W        W86725  12.614   8.684  11.673
15143W        W86726  39.453  13.917   0.032
15144W        W86727  35.498  30.559   4.239
15145W        W86728  25.681  29.635   2.239
15146W        W86729  41.383  29.071  13.101
15147W        W86730  43.311  32.525   1.449
15148W        W86731   1.939  29.161   0.733
15149W        W86732   7.215  14.315  13.206
15150W        W86733  37.899   9.208  11.496
15151W        W86734  21.842  25.026  12.312
15152W        W86735   0.463  17.916  13.382
15153W        W86736   7.473  43.813   3.253
15154W        W86737   0.768  42.914   1.440
15155W        W86738   8.124  13.291   2.416
15156W        W86739  39.417  43.382  13.244
15157W        W86740  26.091  11.013  11.993
15158W        W86741   9.890  15.451  12.986
15159W        W86742  36.040  16.681   2.691
15160W        W86743   7.510  22.743  12.200
15161W        W86744  33.323   5.479   0.422
15162W        W86745  41.465  19.122  13.350
15163W        W86746  26.565  43.012   3.409
15164W        W86747  41.192  30.332   0.557
15165W        W86748  44.343  40.331   0.245
15166W        W86749  21.287  28.023  11.928
15167W        W86750   0.426  21.759  10.844
15168W        W86751  41.586  20.546   0.594
15169W        W86752   1.835  29.613   3.151
15170W        W86753   3.871  43.822   4.109
15171W        W86754  31.302   6.681   1.446
15172W        W86755  43.381  43.321  14.875
15173W        W86756  36.650   9.440  13.301
15174W        W86757  39.284  34.158   2.274
15175W        W86758  22.030  39.470  10.780
15176W        W86759  20.569  38.814   3.194
15177W        W86760  25.478   1.452   1.822
15178W        W86761  31.516   9.731   2.266
15179W        W86762  16.675  27.484  13.933
15180W        W86763  28.160  22.472   1.175
15181W        W86764  22.400  26.487  13.619
15182W        W86765  42.552  16.309  14.466
15183W        W86766  28.211  11.096   0.751
15184W        W86767   0.268  10.871   4.077
15185W        W86768  32.088  21.787   4.961
15186W        W86769  44.664  38.360   0.651
15187W        W86770  36.826   0.676  12.590
15188W        W86771  18.905   8.142   2.642
15189W        W86772  20.782  10.118   0.281
15190W        W86773  43.497  38.461   1.499
15191W        W86774  13.683  22.527  11.628
15192W        W86775   8.951  39.569   4.166
15193W        W86776  18.883   1.806  14.942
15194W        W86777  43.964  41.679  11.651
15195W        W86778   7.701  15.880   1.779
15196W        W86779   6.913  17.059  14.240
15197W        W86780  44.223  28.026  10.473
15198W        W86781  22.260  22.514   4.747
15199W        W86782  27.650  11.153   0.729
15200W        W86783  33.879  41.816  12.617
15201W        W86784  22.641  29.856   0.376
15202W        W86785  20.733  31.245  13.315
15203W        W86786   6.667  32.015   0.895
15204W        W86787  35.475  17.547   1.874
15205W        W86788   1.230  18.228   1.394
15206W        W86789   1.911  39.239   4.304
15207W        W86790  16.792  40.072  12.966
15208W        W86791  42.162   4.152  12.143
15209W        W86792  40.572   5.953   2.347
15210W        W86793  25.180  40.508  12.019
15211W        W86794  28.178  18.162  10.573
15212W        W86795  29.644   5.205   3.130
15213W        W86796  35.031  32.072   3.738
15214W        W86797  30.004   4.181   1.777
15215W        W86798  42.806  26.659   3.639
15216W        W86799  24.137  29.514  13.070
15217W        W86800  12.291  32.559   3.842
15218W        W86801  12.116   8.309  10.404
15219W        W86802  41.107   9.368   3.843
15220W        W86803   2.170  41.362  10.936
15221W        W86804  10.815  35.635  12.596
15222W        W86805  44.107  12.620   5.087
15223W        W86806  32.997  30.752  11.058
15224W        W86807   8.974  23.815  13.976
15225W        W86808   3.709  12.691  12.357
15226W        W86809  20.028  18.309   3.278
15227W        W86810   3.664  43.251  12.526
15228W        W86811  29.096  20.656   2.233
15229W        W86812   3.886  17.139   4.417
15230W        W86813  30.303   5.360  12.761
15231W        W86814  21.117  29.940  13.394
15232W        W86815  13.351  32.428   0.290
15233W        W86816  18.617  27.514   2.719
15234W        W86817  37.108  16.353   4.543
15235W        W86818  21.228  35.388   0.411
15236W        W86819  30.344  35.000   0.017
15237W        W86820  17.627  28.951   3.670
15238W        W86821  27.889   0.507  11.489
15239W        W86822  27.262  10.120  12.283
15240W        W86823  25.086   5.135  11.994
15241W        W86824   9.413  21.000  11.686
15242W        W86825  10.743  38.462   2.878
15243W        W86826   5.646   7.390  11.399
15244W        W86827  40.262   5.643  10.666
15245W        W86828  11.735  12.675  12.969
15246W        W86829  20.191  27.747   3.433
15247W        W86830  22.718   9.207  13.557
15248W        W86831  14.411  26.509  13.034
15249W        W86832   5.181  11.843   0.032
15250W        W86833  36.248  12.063   2.808
15251W        W86834  43.859  16.950  13.960
15252W        W86835  27.484  27.686  11.525
15253W        W86836   1.438   7.342  10.776
15254W        W86837   4.682   5.110   3.431
15255W        W86838  11.716  17.255   1.478
15256W        W86839   8.381  33.541   1.709
15257W        W86840  41.729  14.646   1.509
15258W        W86841   7.189   0.696   2.873
15259W        W86842  20.230  11.161  14.805
15260W        W86843  25.548  17.767  13.620
15261W        W86844  24.435  21.478   0.893
15262W        W86845  40.527  30.192  14.557
15263W        W86846  34.482  37.108   5.155
15264W        W86847  12.551   4.541  11.664
15265W        W86848   5.017   2.837   2.250
15266W        W86849  21.999  35.064   1.760
15267W        W86850  30.129  22.047   4.391
15268W        W86851  21.154  29.434   1.724
15269W        W86852  15.284  17.723   1.995
15270W        W86853  17.669  30.450   1.378
15271W        W86854   2.025  28.207  13.918
15272W        W86855  40.328  27.677  12.535
15273W        W86856   3.351  12.274  13.108
15274W        W86857  41.242  35.577  14.969
15275W        W86858  14.863  34.463  13.400
15276W        W86859  19.582   5.296  13.156
15277W        W86860  19.355  44.666   3.750
15278W        W86861   4.662  42.904   0.371
15279W        W86862   3.433  11.240  11.700
15280W        W86863  23.630   3.922   2.588
15281W        W86864  12.525   8.198   4.318
15282W        W86865   6.850   9.806  13.806
15283W        W86866   1.944  25.607   2.118
15284W        W86867  44.123  29.539   0.479
15285W        W86868  10.576  26.049   0.208
15286W        W86869  32.795   0.830  14.893
15287W        W86870  33.355  26.915  13.047
15288W        W86871  14.730   0.030  14.838
15289W        W86872   3.337  27.607  14.867
15290W        W86873   4.423  12.127  12.314
15291W        W86874  43.792  44.440   4.353
15292W        W86875  14.244   3.758   0.223
15293W        W86876  28.732  25.728  13.051
15294W        W86877  17.092  30.542   1.642
15295W        W86878  29.503  28.851  12.874
15296W        W86879  23.992  21.412  14.704
15297W        W86880  42.745  42.886  14.813
15298W        W86881  20.536  31.566  10.062
15299W        W86882  30.227  35.386  12.870
15300W        W86883  44.396   1.511  11.140
15301W        W86884  33.588  12.578  13.942
15302W        W86885   0.217  44.827  12.081
15303W        W86886  43.251  42.991   3.680
15304W        W86887  21.471   3.414   0.037
15305W        W86888  33.322   1.225  13.685
15306W        W86889   2.429  33.164   3.658
15307W        W86890  28.488  36.006   5.010
15308W        W86891  18.761  43.368   1.655
15309W        W86892  15.661  19.826   3.297
15310W        W86893  20.835   0.628   5.060
15311W        W86894  19.746  40.214  13.907
15312W        W86895  18.729  21.993  11.342
15313W        W86896  23.477  15.583   1.443
15314W        W86897  21.585   5.446  11.165
15315W        W86898  27.445   4.034  10.698
15316W        W86899  34.524  12.966   1.179
15317W        W86900  22.587  20.806  13.998
15318W        W86901  15.674  37.616   2.210
15319W        W86902  11.369  18.545   1.233
15320W        W86903  36.811  37.037  12.064
15321W        W86904  10.832   7.420   2.399
15322W        W86905  12.621   1.312  10.648
15323W        W86906  25.023  27.618  14.190
15324W        W86907   6.805  18.240  13.476
15325W        W86908  21.917  11.801  10.700
15326W        W86909  22.263   7.885  13.102
15327W        W86910   0.203   5.936   0.326
15328W        W86911  26.713  18.744   0.313
15329W        W86912  31.424   1.931  11.639
15330W        W86913  10.705  11.879  14.947
15331W        W86914   1.273  21.220   4.123
15332W        W86915   3.405   3.404  14.461
15333W        W86916  24.426  44.525   2.856
15334W        W86917  22.671  26.928   4.184
15335W        W86918   2.699  36.366  14.729
15336W        W86919  44.405  35.790   3.212
15337W        W86920  10.125  17.459  13.089
15338W        W86921  19.163  42.740   1.741
15339W        W86922  34.451  21.300  14.279
15340W        W86923   9.719  38.607  11.876
15341W        W86924  28.684   4.859   0.564
15342W        W86925  19.132  15.823   0.143
15343W        W86926  18.239  10.056  12.577
15344W        W86927   2.933  28.057   0.898
15345W        W86928  15.904   7.682   2.039
15346W        W86929  27.283  40.928  10.571
15347W        W86930   4.674  40.391  12.116
15348W        W86931  17.312  40.012  14.968
15349W        W86932   3.790   6.142  12.103
15350W        W86933  32.226  37.733   2.843
15351W        W86934  41.224  19.704  12.393
15352W        W86935  25.133  16.024  14.772
15353W        W86936  44.248  27.664  11.770
15354W        W86937  37.489  24.026   0.048
15355W        W86938   7.677  31.829  14.184
15356W        W86939  40.449  24.187   3.355
15357W        W86940   1.796  10.675  12.181
15358W        W86941  36.928   4.963  11.444
15359W        W86942   8.391  20.085   2.183
15360W        W86943   0.386  14.896  10.701
15361W        W86944  16.089  20.691  13.483
15362W        W86945  19.228   0.939  11.188
15363W        W86946   2.179   7.646   0.361
15364W        W86947  13.684   5.298   2.831
15365W        W86948  41.699   6.751   1.909
15366W        W86949  26.448   0.778   3.530
15367W        W86950  10.081  38.503   0.307
15368W        W86951  16.328  37.004  14.039
15369W        W86952  37.628  18.722  13.467
15370W        W86953  15.819  31.550  11.155
15371W        W86954  24.853  11.112  14.229
15372W        W86955  16.275  41.379   2.707
15373W        W86956   6.463   6.954   3.231
15374W        W86957   0.502  26.219   4.132
15375W        W86958  44.690   8.194   1.689
15376W        W86959   1.462  43.431   0.693
15377W        W86960  22.098  19.756   0.817
15378W        W86961  40.113  22.764   4.109
15379W        W86962  24.972  29.524   0.881
15380W        W86963  23.108  16.420   3.154
15381W        W86964  42.294  23.206  13.442
15382W        W86965  24.441  38.364  11.169
15383W        W86966  13.219   3.403   1.798
15384W        W86967  42.869  26.782   0.665
15385W        W86968  42.813  37.478   4.345
15386W        W86969   6.784  16.495   2.408
15387W        W86970  37.835  18.983   4.074
15388W        W86971  38.599  15.888   0.742
15389W        W86972  34.476  14.138   4.922
15390W        W86973   5.967  24.991  13.971
15391W        W86974   9.180  42.447  12.164
15392W        W86975  18.641  28.241   3.913
15393W        W86976  35.627  24.039   3.131
15394W        W86977  33.939  19.203  12.591
15395W        W86978  36.365  14.059   2.853
15396W        W86979  38.561  31.459   2.853
15397W        W86980  19.870  43.985  11.111
15398W        W86981  10.286  37.012   3.103
15399W        W86982  16.316  16.073  12.244
15400W        W86983  40.084   6.675  12.138
15401W        W86984  26.674  40.433  14.496
15402W        W86985  41.873   3.411   3.642
15403W        W86986  23.168   2.955   2.373
15404W        W86987  28.413  14.880  14.953
15405W        W86988  40.400   4.029  11.630
15406W        W86989  26.129   8.849  14.800
15407W        W86990  12.596   6.195  13.541
15408W        W86991  31.835  44.000  11.490
15409W        W86992   6.825   1.278   1.309
15410W        W86993  30.775   5.125   0.276
15411W        W86994  25.265  10.878  13.031
15412W        W86995   5.407  22.609  14.950
15413W        W86996  43.493  31.607   0.687
15414W        W86997  29.822   5.324  12.930
15415W        W86998   4.183  43.988  14.492
15416W        W86999   2.457  16.803  11.086
15417W        W87000  38.051  17.825  12.160
15418W        W87001  37.775  15.077   2.486
15419W        W87002  42.698   3.038   3.315
15420W        W87003  18.772  38.336  10.730
15421W        W87004  43.323  23.559  10.792
15422W        W87005  23.391  38.439  13.400
15423W        W87006  33.146  41.540  11.534
15424W        W87007  32.401  13.324  12.014
15425W        W87008  10.545  19.030  11.912
15426W        W87009  13.544  26.174   3.923
15427W        W87010  34.200  19.882   5.064
15428W        W87011  34.856   2.762  12.914
15429W        W87012   8.410   9.321  11.452
15430W        W87013  29.726  16.760  13.471
15431W        W87014  19.665  42.564   0.975
15432W        W87015  42.276  31.590   1.867
15433W        W87016  11.441  43.271  13.037
15434W        W87017  22.145  39.071   0.743
15435W        W87018  30.548  22.136   0.957
15436W        W87019  25.534  22.569   4.833
15437W        W87020  21.484  30.138   2.117
15438W        W87021  35.181  30.991  13.989
15439W        W87022  16.795  33.058  14.099
15440W        W87023  34.465  18.842   0.441
15441W        W87024  24.495  25.545   2.349
15442W        W87025  44.910   8.750   4.602
15443W        W87026  21.959   7.535   4.982
15444W        W87027   1.267  34.289   2.407
15445W        W87028  31.254  37.562  11.973
15446W        W87029  15.193  31.827   3.610
15447W        W87030   3.062  36.132  11.523
15448W        W87031  14.211  24.919   0.252
15449W        W87032  33.086  39.346   1.939
15450W        W87033  36.778  17.488   2.253
15451W        W87034  39.947  21.641   3.690
15452W        W87035  33.281   2.953   1.781
15453W        W87036   3.757  32.758  11.966
15454W        W87037  40.510  23.162   3.926
15455W        W87038  30.564   4.553   4.381
15456W        W87039  41.271  40.308  12.479
15457W        W87040   1.578  22.507   2.264
15458W        W87041   1.178   9.225   3.639
15459W        W87042  42.850  12.645  10.495
15460W        W87043  15.344  35.107  13.299
15461W        W87044  19.720  12.518   2.249
15462W        W87045  20.391  21.761  13.521
15463W        W87046  40.960  11.146   3.907
15464W        W87047   3.595  38.473   2.650
15465W        W87048  32.855   2.941  12.449
15466W        W87049  43.963   9.782  13.817
15467W        W87050  28.309  17.553   3.386
15468W        W87051   1.292  37.757  13.470
15469W        W87052  35.260  30.606  11.316
15470W        W87053   3.341   0.360  13.622
15471W        W87054  20.700  25.845  12.912
15472W        W87055  33.072  33.041   2.051
15473W        W87056  33.957  18.987   1.634
15474W        W87057  30.405  40.119   4.174
15475W        W87058  41.244  10.724   3.864
15476W        W87059  16.698  30.325  11.453
15477W        W87060  17.038  29.263  12.592
15478W        W87061  37.038  26.887  10.394
15479W        W87062  20.166  23.283   1.554
15480W        W87063  32.898  24.616   3.281
15481W        W87064  30.440   2.500  10.821
15482W        W87065  39.717  24.851   0.636
15483W        W87066  13.527  40.583   1.286
15484W        W87067  29.192   0.998   0.267
15485W        W87068  26.603  25.766  11.381
15486W        W87069  14.663   0.439   4.433
15487W        W87070  44.296  29.360   4.094
15488W        W87071  19.205  25.547   3.632
15489W        W87072   0.895  36.033  11.176
15490W        W87073  12.088  37.582   2.950
15491W        W87074   4.233  29.988  14.809
15492W        W87075  37.165  36.871  12.950
15493W        W87076  33.686  35.129  12.469
15494W        W87077   8.635  18.973  12.023
15495W        W87078  34.645  29.146  11.226
15496W        W87079  43.506   2.599   4.966
15497W        W87080  13.129  41.311   2.732
15498W        W87081  39.494  19.301  14.877
15499W        W87082  12.271  35.471   4.119
15500W        W87083  38.861  36.792  12.487
15501W        W87084  24.405  11.305  14.045
15502W        W87085  37.843   2.339  12.533
15503W        W87086  40.884  13.889   0.865
15504W        W87087  10.159  43.627   4.213
15505W        W87088  21.111  16.115   3.754
15506W        W87089   6.436   0.194   4.632
15507W        W87090   5.175  12.653  12.781
15508W        W87091  28.023  39.508  14.932
15509W        W87092  14.860  15.564   3.190
15510W        W87093   7.596  29.274  10.645
15511W        W87094  23.576  15.248  12.991
15512W        W87095   2.869  31.420   2.801
15513W        W87096   5.276  37.393  10.551
15514W        W87097  40.928  28.416   3.222
15515W        W87098  35.676  25.162  10.646
15516W        W87099  18.856   5.405   1.891
15517W        W87100  12.662  16.364   1.458
15518W        W87101  18.559   6.395   2.627
15519W        W87102   3.223  32.957  14.462
15520W        W87103  36.901  32.770  13.473
15521W        W87104   0.482   1.338  13.369
15522W        W87105   0.078   9.647   1.805
15523W        W87106   8.832  18.167   0.263
15524W        W87107  37.230  15.395  12.041
15525W        W87108  33.386  19.844  14.470
15526W        W87109  22.788   6.376  13.322
15527W        W87110  41.791  40.579   1.150
15528W        W87111  39.339  13.576   4.723
15529W        W87112  34.934   2.682   3.310
15530W        W87113  43.987  28.541   4.400
15531W        W87114  22.184   2.526  11.059
15532W        W87115   7.941  32.683   0.778
15533W        W87116   8.562  19.160   3.376
15534W        W87117  42.976  27.184   2.715
15535W        W87118  44.503  44.227  14.804
15536W        W87119  17.339  34.445   3.911
15537W        W87120  28.944  44.199   3.623
15538W        W87121   3.571  20.281  11.037
15539W        W87122   8.136   1.470  14.447
15540W        W87123  27.308   7.619   4.285
15541W        W87124   0.160  34.581   3.361
15542W        W87125  15.612  24.224  12.814
15543W        W87126  11.381  32.621   0.887
15544W        W87127  35.180   2.235   3.177
15545W        W87128  31.014  20.090  11.559
15546W        W87129  23.180  27.331   2.350
15547W        W87130  24.433  34.899   1.643
15548W        W87131   2.000  42.966   4.197
15549W        W87132   5.707  42.359   0.962
15550W        W87133  12.084  16.588   0.595
15551W        W87134  35.533  31.133  12.058
15552W        W87135  21.178  20.112  13.317
15553W        W87136   8.559  14.628   2.285
15554W        W87137  11.191  42.484  14.175
15555W        W87138  43.751   3.805  12.981
15556W        W87139   0.485  11.409   3.727
15557W        W87140  44.332  12.656   3.290
15558W        W87141  37.391  26.846   1.350
15559W        W87142  26.753  24.400  12.392
15560W        W87143  26.110  42.916  13.584
15561W        W87144  18.693   1.535   3.668
15562W        W87145  30.434  30.919   3.163
15563W        W87146   7.708   8.936  11.773
15564W        W87147  32.815  17.626   3.807
15565W        W87148   9.869   7.983   4.117
15566W        W87149  33.531  19.515   2.695
15567W        W87150  33.189  13.210   4.353
15568W        W87151   8.588   2.004   4.219
15569W        W87152  18.208  36.821   4.115
15570W        W87153   7.508   0.440  11.495
15571W        W87154  19.286  14.399  14.389
15572W        W87155  40.397  21.159   2.911
15573W        W87156   0.238   5.675   3.675
15574W        W87157  11.753  28.532   2.248
15575W        W87158  30.689   9.194   4.231
15576W        W87159  40.849  32.312  11.505
15577W        W87160  28.674  25.287   3.376
15578W        W87161   4.351  16.325  11.966
15579W        W87162  30.145  16.631   2.376
15580W        W87163  18.138  23.769  11.431
15581W        W87164  22.052  17.845   1.129
15582W        W87165  41.609  17.698   3.640
15583W        W87166  41.704   3.905  12.059
15584W        W87167  26.152  44.473  12.095
15585W        W87168  20.511  15.329  13.091
15586W        W87169  17.165  10.602   4.627
15587W        W87170   6.152  32.878  14.996
15588W        W87171  32.620  39.316  10.524
15589W        W87172  24.255  24.490  13.176
15590W        W87173  30.976  29.307  10.954
15591W        W87174   0.948   9.700   3.495
15592W        W87175  44.387  16.136  10.495
15593W        W87176  18.057  26.159  14.765
15594W        W87177  16.849  11.821  12.212
15595W        W87178   4.227  24.780   0.862
15596W        W87179  34.436  13.251   1.641
15597W        W87180   3.315  44.949   4.737
15598W        W87181  42.635  39.046   5.163
15599W        W87182  42.545  10.832  14.962
15600W        W87183  15.269   1.601  13.633
15601W        W87184  28.191  31.851   2.327
15602W        W87185  16.815  19.018  14.341
15603W        W87186   8.671   1.484  11.610
15604W        W87187  36.431  30.912  12.386
15605W        W87188  32.923  32.702   4.133
15606W        W87189  41.112  35.117   3.205
15607W        W87190  38.318  10.070   4.547
15608W        W87191  20.576   1.197  13.328
15609W        W87192  11.149  31.959  14.377
15610W        W87193   8.844  13.165   0.426
15611W        W87194  12.843   4.460   0.280
15612W        W87195   5.251  19.681  13.844
15613W        W87196  33.969  28.167   1.862
15614W        W87197   1.637   0.400   2.150
15615W        W87198  37.473  25.398   2.793
15616W        W87199  11.161  42.022   2.112
15617W        W87200  38.901  13.503  13.887
15618W        W87201  15.658  22.947   3.573
15619W        W87202   8.207   6.688  13.037
15620W        W87203  44.305  24.547  13.893
15621W        W87204  18.104  17.832  12.507
15622W        W87205   8.099  22.632  11.127
15623W        W87206  21.586  11.785   1.846
15624W        W87207  27.165  40.106   4.588
15625W        W87208  15.124  30.851  12.932
15626W        W87209   3.762  36.881   0.341
15627W        W87210  20.184  40.114   2.205
15628W        W87211  22.604  39.703   4.144
15629W        W87212  39.956  43.573  11.537
15630W        W87213   2.797  32.882   4.419
15631W        W87214  24.094  44.879  14.370
15632W        W87215  16.311  27.015  11.045
15633W        W87216  39.291  29.038   1.785
15634W        W87217  42.686   2.167  12.551
15635W        W87218  40.121  31.912   2.195
15636W        W87219  19.772  43.408   0.057
15637W        W87220  27.166   5.269  13.528
15638W        W87221  32.501  18.215  11.985
15639W        W87222  40.662  27.553  11.945
15640W        W87223  22.808  19.154   0.489
15641W        W87224  41.875  23.634   2.984
15642W        W87225  11.802  43.466  10.606
15643W        W87226   1.559  36.985   3.723
15644W        W87227  11.535  23.345  13.971
15645W        W87228  31.571  44.576   0.900
15646W        W87229  38.124  40.585   0.298
15647W        W87230  41.420  17.219   4.437
15648W        W87231   6.107  11.312  13.276
15649W        W87232  11.874  37.174  13.034
15650W        W87233   2.213  37.391   1.563
15651W        W87234  38.855  26.927  14.957
15652W        W87235  42.300  17.796   4.927
15653W        W87236  34.935  39.966   0.396
15654W        W87237  28.273  11.452   5.107
15655W        W87238  12.394  13.726   3.601
15656W        W87239  19.527   4.728   2.896
15657W        W87240   5.770  26.519  11.189
15658W        W87241  42.112   8.780   4.472
15659W        W87242  25.135  12.559   0.509
15660W        W87243   3.049   9.749   3.280
15661W        W87244  34.224  30.983  11.430
15662W        W87245   0.020  30.464   1.931
15663W        W87246  30.217  15.873  10.937
15664W        W87247   8.222  16.572   4.168
15665W        W87248  26.980  34.109   0.948
15666W        W87249   3.298  36.267   2.009
15667W        W87250  23.838  28.849   3.884
15668W        W87251  21.049  20.771   3.356
15669W        W87252   2.772  14.376  14.482
15670W        W87253   3.736  36.538   0.730
15671W        W87254  11.077  19.104   3.350
15672W        W87255  41.076   8.166  13.679
15673W        W87256  14.539   6.244   4.586
15674W        W87257  44.804  43.147  10.743
15675W        W87258   1.235  12.153   1.676
15676W        W87259   2.021  39.450  10.653
15677W        W87260  33.385  25.597  14.942
15678W        W87261  30.731  22.500  14.023
15679W        W87262   8.212   5.184  11.972
15680W        W87263  38.352  19.976  13.002
15681W        W87264   2.353   3.392   3.759
15682W        W87265  16.741  33.264  12.611
15683W        W87266   9.146  36.398  11.393
15684W        W87267  10.196  31.111   4.604
15685W        W87268  40.692   4.852  14.749
15686W        W87269  27.993   4.930  14.402
15687W        W87270   1.458  25.990  13.458
15688W        W87271  31.434  42.761   4.127
15689W        W87272  15.099  10.851   3.431
15690W        W87273  31.502  39.665   0.005
15691W        W87274  34.830  25.476   3.120
15692W        W87275  16.781  26.139  14.329
15693W        W87276  24.551  37.907   0.674
15694W        W87277  10.192   4.332  12.306
15695W        W87278  38.773  22.952   4.450
15696W        W87279  16.920  39.580   0.730
15697W        W87280  10.232  12.575   0.837
15698W        W87281   8.175  11.319  13.840
15699W        W87282  18.860   1.353  11.190
15700W        W87283  25.519   6.603  11.992
15701W        W87284  31.992   6.143  10.457
15702W        W87285  38.625  10.772  14.876
15703W        W87286  29.397  39.195  11.776
15704W        W87287  28.181  24.053   5.097
15705W        W87288  34.321   9.345  13.606
15706W        W87289   4.150  24.252  12.459
15707W        W87290  17.745  21.668   0.199
15708W        W87291   0.023  13.694  10.600
15709W        W87292  42.398  28.849  12.681
15710W        W87293   6.533  16.420   0.104
15711W        W87294   4.428  10.271   4.217
15712W        W87295  26.269  17.620  12.423
15713W        W87296  28.955  14.173  10.775
15714W        W87297  44.242  22.019  11.577
15715W        W87298  13.076  33.014   3.893
15716W        W87299  44.894  17.376   1.625
15717W        W87300  22.124  26.550  10.436
15718W        W87301  25.606  31.200  14.290
15719W        W87302  19.876  15.202   0.350
15720W        W87303  28.346  38.762  12.906
15721W        W87304   6.711  40.951   1.734
15722W        W87305  42.397  32.956  12.032
15723W        W87306  13.838  34.532   1.221
15724W        W87307  39.511   5.175   3.224
15725W        W87308   5.141   5.351  10.966
15726W        W87309  12.499  19.594   2.175
15727W        W87310  16.627  32.573  14.399
15728W        W87311  20.807   9.251   3.286
15729W        W87312  17.087   5.373  10.746
15730W        W87313  27.312  44.538  13.611
15731W        W87314   8.881  32.480   2.642
15732W        W87315   4.648  37.610   4.522
15733W        W87316  37.451  33.670  11.975
15734W        W87317  32.462   0.856   0.349
15735W        W87318   0.800   7.013  13.910
15736W        W87319   7.936  35.457  14.431
15737W        W87320  35.064  34.101  13.999
15738W        W87321  32.603   1.762  11.225
15739W        W87322  30.061   6.924  11.109
15740W        W87323  26.319   9.717   4.203
15741W        W87324  22.814   6.068   4.600
15742W        W87325   0.769  39.884  12.353
15743W        W87326  31.460  18.007   3.273
15744W        W87327  44.443  21.153  12.085
15745W        W87328   3.141  39.243   2.352
15746W        W87329  39.543  19.736   0.824
15747W        W87330  22.437  41.995   1.768
15748W        W87331  33.072  10.192   1.588
15749W        W87332  43.565   5.134   4.396
15750W        W87333  12.364  25.210   1.788
15751W        W87334  16.972  19.609  10.266
15752W        W87335   3.869   8.933  14.086
15753W        W87336  44.498  43.925   0.275
15754W        W87337   1.460  14.299  14.499
15755W        W87338  44.245  22.890  12.504
15756W        W87339  39.903  20.667  10.703
15757W        W87340  18.329   5.275  11.143
15758W        W87341   7.367   2.881   3.220
15759W        W87342   8.813   0.708  13.037
15760W        W87343   1.512  32.155   0.467
15761W        W87344   1.467   2.175  11.025
15762W        W87345  29.664  30.938  12.441
15763W        W87346  42.017  26.004  12.124
15764W        W87347  27.680  32.950   0.358
15765W        W87348  19.110  42.027   4.949
15766W        W87349   9.255  40.001  13.379
15767W        W87350  36.782  44.983   2.607
15768W        W87351  36.770  27.530  14.269
15769W        W87352   5.265   5.892  12.008
15770W        W87353  11.040  27.451   1.950
15771W        W87354  34.928  37.942   1.971
15772W        W87355   0.899   2.735  11.522
15773W        W87356  18.153  28.863   0.824
15774W        W87357  37.389   1.429  11.593
15775W        W87358  36.901  39.515   0.985
15776W        W87359  29.960  10.752  13.878
15777W        W87360  17.027  11.020  12.451
15778W        W87361  22.464  35.191  12.399
15779W        W87362  27.247  35.222  12.455
15780W        W87363  31.822  24.747  14.974
15781W        W87364  27.387  23.766   1.242
15782W        W87365  30.987  43.349   4.750
15783W        W87366  27.416  28.368   2.978
15784W        W87367   9.264  23.992   4.338
15785W        W87368  21.762  25.709   0.522
15786W        W87369  21.610   6.575   1.699
15787W        W87370  21.328   7.011  14.319
15788W        W87371   8.492  42.560   0.713
15789W        W87372   1.143  24.762   0.765
15790W        W87373  26.974  30.439   0.183
15791W        W87374  41.530  36.446  11.993
15792W        W87375  12.174  22.602   3.698
15793W        W87376  40.374   9.677   9.930
15794W        W87377  12.343  31.408   1.356
15795W        W87378  23.346  14.765  11.517
15796W        W87379  10.650  42.251   4.198
15797W        W87380  20.506   5.816   0.445
15798W        W87381  21.219  44.214   3.175
15799W        W87382  19.543  33.533   1.765
15800W        W87383  11.601  23.987  10.853
15801W        W87384  25.483  21.179   1.294
15802W        W87385  15.066  20.437  12.549
15803W        W87386  43.008  32.761  12.583
15804W        W87387  41.849  35.545  13.718
15805W        W87388  23.488   9.791  10.862
15806W        W87389  32.491  27.564  13.556
15807W        W87390  23.538  36.767   2.851
15808W        W87391  17.211   1.507   0.335
15809W        W87392  34.394  35.184  12.988
15810W        W87393  27.424  15.184  12.888
15811W        W87394   7.300  19.518   0.349
15812W        W87395  29.393  19.976   3.282
15813W        W87396   2.264   1.424  11.244
15814W        W87397  23.563  12.349   0.294
15815W        W87398  15.226  31.852   5.210
15816W        W87399  39.866  36.171   3.726
15817W        W87400  29.563   4.971  11.264
15818W        W87401  41.824   3.887  10.756
15819W        W87402   7.323  28.823  12.163
15820W        W87403  22.320  14.851   3.218
15821W        W87404   4.853  24.520   4.071
15822W        W87405  43.878  36.187  14.366
15823W        W87406  41.406  38.782  11.493
15824W        W87407  30.478  20.036  10.715
15825W        W87408   6.051  30.519   0.766
15826W        W87409  44.664  21.581   4.920
15827W        W87410  41.954  40.827  12.969
15828W        W87411   3.655  15.720  14.286
15829W        W87412  39.400   0.464  12.355
15830W        W87413  14.616  35.658   3.764
15831W        W87414  41.538  32.050  13.929
15832W        W87415  44.087  41.985   3.595
15833W        W87416   8.380   6.857   2.841
15834W        W87417  31.845   1.182  12.244
15835W        W87418   2.925  13.574  11.086
15836W        W87419  23.460  16.196  13.801
15837W        W87420  42.317  43.949  10.473
15838W        W87421  10.068   3.841   2.452
15839W        W87422   1.956  30.456  11.639
15840W        W87423  22.171  20.180   4.672
15841W        W87424   0.430  31.928  14.992
15842W        W87425  18.701   0.907   4.605
15843W        W87426  28.575  44.879   3.577
15844W        W87427  19.970  19.065  10.703
15845W        W87428   8.371  26.147   0.525
15846W        W87429  26.023  15.029   2.842
15847W        W87430  36.110   0.231  11.987
15848W        W87431  10.848  19.612   3.247
15849W        W87432   1.012  41.406   3.197
15850W        W87433  30.559  13.246   3.623
15851W        W87434  42.504  21.623  10.737
15852W        W87435  14.565  34.043   1.247
15853W        W87436  35.453  15.301  10.664
15854W        W87437  19.792   1.005   1.798
15855W        W87438  19.728   6.406  12.459
15856W        W87439  40.622  25.320  14.992
15857W        W87440  28.600  32.647  13.072
15858W        W87441  15.106  19.162   2.650
15859W        W87442  20.293  20.530   1.142
15860W        W87443   1.168  10.281   0.448
15861W        W87444   3.753  19.638  13.108
15862W        W87445  14.711  12.199   4.087
15863W        W87446   7.428  38.475  10.642
15864W        W87447   9.256  13.860  13.854
15865W        W87448   5.463  18.318  13.543
15866W        W87449  14.294  13.139  13.301
15867W        W87450  24.743  39.830  10.767
15868W        W87451  19.150  44.361   4.176
15869W        W87452  43.210   3.681   0.096
15870W        W87453   5.991  41.475   4.606
15871W        W87454  33.012   6.032  11.660
15872W        W87455  17.068  23.455  11.953
15873W        W87456  25.886   5.665   1.663
15874W        W87457  16.842   3.674   1.686
15875W        W87458  19.837  11.243   0.233
15876W        W87459  15.681  19.539   0.514
15877W        W87460  39.991  17.072   3.181
15878W        W87461  14.287  39.865   2.356
15879W        W87462  16.911  36.802   1.044
15880W        W87463  25.610  42.973   4.887
15881W        W87464  11.919  42.442   4.383
15882W        W87465   0.467  42.036   3.606
15883W        W87466  24.269  18.643   1.311
15884W        W87467  20.277  18.453  12.655
15885W        W87468   4.748   5.452   3.875
15886W        W87469  30.915  24.825  14.066
15887W        W87470   2.461  22.508  10.283
15888W        W87471  23.192  12.988  13.969
15889W        W87472  39.128  38.026   3.267
15890W        W87473  11.205   5.849  10.684
15891W        W87474  12.758  24.687  12.020
15892W        W87475  22.726   9.582   3.861
15893W        W87476  27.414  18.201   3.903
15894W        W87477  34.911  12.860   3.347
15895W        W87478   7.845  18.806   1.875
15896W        W87479  23.167  14.479  12.050
15897W        W87480   7.702   0.919   3.720
15898W        W87481  36.957  25.089  14.688
15899W        W87482  39.580  22.704  13.385
15900W        W87483  36.657  15.349   3.267
15901W        W87484  14.188  34.098   4.193
15902W        W87485  43.187  42.744  10.250
15903W        W87486  30.116  28.093  14.069
15904W        W87487  36.366   8.294   4.163
15905W        W87488  34.017  29.491   2.462
15906W        W87489  40.725   9.222   4.702
15907W        W87490  18.147  10.277  10.942
15908W        W87491  41.361  16.534   1.930
15909W        W87492  32.594   0.223   4.168
15910W        W87493  29.685  30.116  13.492
15911W        W87494  43.342  24.600   4.839
15912W        W87495  15.736  43.784   1.672
15913W        W87496  25.433   4.713   0.868
15914W        W87497   3.843  39.528  11.057
15915W        W87498  25.697  30.519   4.118
15916W        W87499  10.320  20.390   2.299
15917W        W87500  29.683  10.561   2.706
15918W        W87501  40.283  42.463   0.435
15919W        W87502  19.069   9.404  11.442
15920W        W87503   0.553  22.010   1.262
15921W        W87504  43.526  25.573  12.619
15922W        W87505  38.008  12.719   2.661
15923W        W87506  27.734  33.750  13.214
15924W        W87507  24.279   2.361   4.027
15925W        W87508  12.686  41.933   3.169
15926W        W87509   3.905  30.492  13.431
15927W        W87510   8.361  44.325   4.416
15928W        W87511   4.428   7.364  12.546
15929W        W87512  41.231  17.936  14.363
15930W        W87513   4.858   5.382   0.796
15931W        W87514  43.992  31.621   0.852
15932W        W87515  23.539  19.514   1.931
15933W        W87516  35.382   5.373  14.347
15934W        W87517   8.280  43.784   4.735
15935W        W87518  22.060  37.402   3.617
15936W        W87519   0.944  33.944   1.930
15937W        W87520   3.909   3.304   5.051
15938W        W87521   4.086   9.507   4.070
15939W        W87522  33.718   1.781   2.537
15940W        W87523  18.724  31.748   2.369
15941W        W87524  17.788  20.721   4.120
15942W        W87525  10.534   6.061   4.352
15943W        W87526  15.715   7.099   2.579
15944W        W87527  24.187  16.178  13.907
15945W        W87528   8.332  38.369   0.003
15946W        W87529  10.303  17.401   1.246
15947W        W87530   5.743  33.944  12.394
15948W        W87531  13.172  40.963   1.475
15949W        W87532   7.906  39.961   0.913
15950W        W87533   7.427  41.482  11.622
15951W        W87534  28.472   3.371  13.855
15952W        W87535  10.731  16.655   4.112
15953W        W87536  29.574  26.887   0.459
15954W        W87537  30.077  34.578   2.297
15955W        W87538  40.796  41.950  14.667
15956W        W87539  10.691  31.263  14.848
15957W        W87540  32.851  31.954   2.898
15958W        W87541   5.828   0.367   2.819
15959W        W87542  20.308  43.298   3.879
15960W        W87543  21.096  37.313  12.462
15961W        W87544  24.096  33.101   4.051
15962W        W87545  15.607  39.974   3.844
15963W        W87546  12.418  32.851   2.210
15964W        W87547  33.355   8.958   2.810
15965W        W87548  31.919  23.417   2.440
15966W        W87549  43.902  37.965  14.095
15967W        W87550  34.138  21.575   1.874
15968W        W87551   7.127  37.970  10.575
15969W        W87552  36.335   2.512   0.827
15970W        W87553  15.861  24.911   3.718
15971W        W87554  43.697  13.848  11.164
15972W        W87555   5.278  22.595  10.190
15973W        W87556  39.864   6.992   0.352
15974W        W87557  35.004  16.915  11.625
15975W        W87558  44.321  39.096   1.303
15976W        W87559  18.274   5.614   0.668
15977W        W87560  27.063  43.462   4.508
15978W        W87561  22.520  31.359  11.936
15979W        W87562  23.357  11.888  12.161
15980W        W87563  16.194  21.089  12.769
15981W        W87564   4.834  15.833  12.950
15982W        W87565   5.650  29.394  14.483
15983W        W87566  15.742  21.788   2.236
15984W        W87567  21.359  33.390   2.799
15985W        W87568   0.412  41.610   1.643
15986W        W87569  27.210  17.521   0.833
15987W        W87570  25.701   2.747  12.106
15988W        W87571   3.728  27.586   0.960
15989W        W87572  21.763  39.596  11.606
15990W        W87573  16.689  26.533  12.490
15991W        W87574  32.025  17.716  13.842
15992W        W87575  32.551  29.102   3.917
15993W        W87576  30.836  13.262   0.855
15994W        W87577  26.663  34.031   3.729
15995W        W87578  35.157  36.404  11.589
15996W        W87579  29.139  39.286   3.288
15997W        W87580  27.537  26.081  11.378
15998W        W87581  24.243  41.533   0.105
15999W        W87582  13.357  43.962   3.270
16000W        W87583  44.953  44.510   0.985
16001W        W87584  22.552  39.362   0.886
16002W        W87585  39.272  43.628  10.781
16003W        W87586   3.616  42.904  11.695
16004W        W87587   0.211  38.419  13.500
16005W        W87588  14.062   6.726  13.005
16006W        W87589  33.858   1.187  11.962
16007W        W87590  14.804  36.365   1.692
16008W        W87591  23.524   7.847   4.174
16009W        W87592  41.922   3.358  14.905
16010W        W87593  44.302   9.966   0.472
16011W        W87594  10.091  28.064  13.921
16012W        W87595  21.708  43.781  13.069
16013W        W87596  18.920  25.308   5.056
16014W        W87597  29.631  13.086  14.303
16015W        W87598  35.884  26.358  11.129
16016W        W87599  24.038  29.928   4.648
16017W        W87600  20.608  43.286  11.170
16018W        W87601  24.419   3.957  11.570
16019W        W87602   6.866  31.602  13.865
16020W        W87603  10.149  40.862  11.464
16021W        W87604  34.802  33.908  14.398
16022W        W87605  44.859  17.519  12.303
16023W        W87606   4.302  31.981   3.572
16024W        W87607   8.834  30.470  13.965
16025W        W87608  33.623  28.196  11.084
16026W        W87609  30.854  11.194   1.868
16027W        W87610  10.423  16.726  10.869
16028W        W87611  31.587   9.850   0.225
16029W        W87612  17.271  31.398   4.563
16030W        W87613  11.683  22.495  11.199
16031W        W87614   8.218  19.251  11.921
16032W        W87615  34.039  35.526  14.441
16033W        W87616   7.199  16.847  11.537
16034W        W87617  42.433  13.269  11.962
16035W        W87618  13.691  31.363   1.667
16036W        W87619  44.358  37.498  13.087
16037W        W87620   6.838  11.328   4.543
16038W        W87621  27.230  34.964  13.940
16039W        W87622  23.006  26.685  11.944
16040W        W87623  36.588  21.261  13.874
16041W        W87624  31.420  17.320   1.245
16042W        W87625   6.173  19.447   2.422
16043W        W87626  14.088  17.494   5.072
16044W        W87627   6.813   7.571  14.319
16045W        W87628  22.526   9.266   5.553
16046W        W87629   0.674  37.871  13.074
16047W        W87630  20.572  20.700  10.884
16048W        W87631   8.224   9.204   1.267
16049W        W87632  14.491   9.173   1.869
16050W        W87633   6.927  31.695  12.119
16051W        W87634  37.882  13.684  10.894
16052W        W87635  11.712  27.938   1.071
16053W        W87636  31.498  39.773   0.928
16054W        W87637   2.727  34.058  13.940
16055W        W87638   7.907  30.815   0.079
16056W        W87639  34.602  43.523  14.696
16057W        W87640  26.037  27.915   3.289
16058W        W87641  22.685  15.771   0.459
16059W        W87642  36.047  40.250  13.009
16060W        W87643   9.743  33.096  11.543
16061W        W87644   5.385  37.350  14.144
16062W        W87645  39.068   3.271  10.938
16063W        W87646  12.407  41.837  12.898
16064W        W87647  32.718  27.106  10.768
16065W        W87648  11.408   9.743  12.977
16066W        W87649  20.376  36.320  11.608
16067W        W87650  11.667  21.866   2.439
16068W        W87651  14.293   1.968  11.623
16069W        W87652  20.911  12.888  12.887
16070W        W87653  24.981  44.844   4.898
16071W        W87654  34.041  22.859  12.900
16072W        W87655  26.687  35.651   0.097
16073W        W87656  35.437   4.638  14.037
16074W        W87657  38.482  16.507  14.437
16075W        W87658  19.563  41.098  11.786
16076W        W87659  39.069   9.731   1.969
16077W        W87660  21.509  14.299  12.903
16078W        W87661  10.041  25.549   1.327
16079W        W87662  23.994  33.554  11.479
16080W        W87663  33.745   7.297  13.107
16081W        W87664  14.100  36.598   0.419
16082W        W87665   6.085  12.009  10.483
16083W        W87666  10.400   4.812  14.417
16084W        W87667  21.731  35.321   0.429
16085W        W87668   3.442  15.848   1.771
16086W        W87669   5.182   7.903  14.541
16087W        W87670  15.945  11.839   0.953
16088W        W87671  17.557  15.703  11.371
16089W        W87672  41.467  38.708   4.705
16090W        W87673  13.762   8.581   1.408
16091W        W87674   5.425  19.139  14.923
16092W        W87675  14.714  27.469  13.148
16093W        W87676   2.383   3.015   0.866
16094W        W87677  42.099  19.085  11.209
16095W        W87678  29.430  24.383  14.324
16096W        W87679  22.346  40.993  13.070
16097W        W87680   6.197  25.675  11.580
16098W        W87681  20.261  31.018   2.713
16099W        W87682  39.323   5.626   3.352
16100W        W87683   1.342  40.192  13.042
16101W        W87684  23.640  13.207  12.024
16102W        W87685  35.248   9.717  12.680
16103W        W87686  24.481   1.455  14.806
16104W        W87687  27.490  19.834  12.857
16105W        W87688  13.491  13.073  10.772
16106W        W87689  31.918  21.524  12.404
16107W        W87690  25.520  29.501   2.694
16108W        W87691   2.011  42.433  12.706
16109W        W87692   6.821  26.736   0.232
16110W        W87693  19.739  19.654  11.599
16111W        W87694   9.751   2.151  10.885
16112W        W87695  30.997  25.220  13.397
16113W        W87696   7.118  44.905  13.583
16114W        W87697   3.578  20.619   2.177
16115W        W87698  27.031  10.129   3.090
16116W        W87699  16.766  31.497  12.919
16117W        W87700   5.819  35.429   0.928
16118W        W87701   9.865   6.315  11.898
16119W        W87702  25.920   7.407   2.559
16120W        W87703   4.217  21.238   4.753
16121W        W87704   6.916   5.883   3.305
16122W        W87705  36.846   3.932  12.107
16123W        W87706  23.566  41.756   0.863
16124W        W87707  42.801  16.025   4.545
16125W        W87708   9.961   1.046   3.224
16126W        W87709  40.298   4.797   4.128
16127W        W87710  11.636  29.418  12.448
16128W        W87711  21.529  35.088   4.251
16129W        W87712  28.630  42.255  12.240
16130W        W87713   2.796  16.083   1.251
16131W        W87714  22.888   4.149   3.092
16132W        W87715   4.133  22.588  13.395
16133W        W87716  14.113   0.834  12.983
16134W        W87717   5.119   7.212  10.591
16135W        W87718  10.198  27.107  14.783
16136W        W87719  28.586  41.861  12.640
16137W        W87720  39.412  18.820   3.597
16138W        W87721  38.208  34.556  11.955
16139W        W87722  36.691   3.035   4.363
16140W        W87723  11.563  29.115  10.750
16141W        W87724  10.268  16.850   4.320
16142W        W87725  37.604  39.871   3.048
16143W        W87726  31.295  21.755  14.440
16144W        W87727  16.801   2.226  12.899
16145W        W87728  35.450  31.288   4.651
16146W        W87729  29.830  25.305   3.326
16147W        W87730   9.241  21.979  12.991
16148W        W87731  21.565  34.485   2.578
16149W        W87732  23.164  37.489   4.496
16150W        W87733   4.414  38.974   1.841
16151W        W87734   3.232  20.984   0.956
16152W        W87735  15.346  21.074   2.827
16153W        W87736  42.859  34.479  12.097
16154W        W87737  13.837  30.983  12.178
16155W        W87738  32.910  14.759   2.781
16156W        W87739  35.618  12.101  11.494
16157W        W87740  40.314  16.330   1.402
16158W        W87741   8.330  17.222   2.314
16159W        W87742  16.790  26.557   1.657
16160W        W87743  33.101  21.077  11.411
16161W        W87744  11.401  16.153   1.842
16162W        W87745  16.151  25.195   5.269
16163W        W87746  22.497  23.047  12.054
16164W        W87747  34.428   7.873   4.146
16165W        W87748  14.219  27.991   3.567
16166W        W87749  12.160  43.305   4.733
16167W        W87750   4.763  35.538  12.992
16168W        W87751  15.439  10.267  13.692
16169W        W87752   5.968  11.647   3.727
16170W        W87753  13.890   6.216   3.327
16171W        W87754  23.739  21.146  14.334
16172W        W87755   4.839  31.991  10.269
16173W        W87756  27.664   2.019  11.192
16174W        W87757  40.948   0.439   4.574
16175W        W87758   5.002  19.576   2.738
16176W        W87759  42.560  34.999  13.941
16177W        W87760   9.116   9.802   4.954
16178W        W87761   9.228  44.250   2.723
16179W        W87762  34.830  11.774  11.859
16180W        W87763  21.231  41.947   1.017
16181W        W87764  44.788  22.093  10.658
16182W        W87765  31.472  24.894   1.137
16183W        W87766   4.168  21.936  14.162
16184W        W87767  15.088  21.716   0.737
16185W        W87768  37.133  41.742  14.768
16186W        W87769   8.796   9.406  11.127
16187W        W87770  33.116  13.016  11.141
16188W        W87771   9.340  19.674   0.434
16189W        W87772  13.272  26.949   3.288
16190W        W87773   2.798  25.069  14.730
16191W        W87774  37.304  41.882   1.374
16192W        W87775  16.617  39.531   3.300
16193W        W87776   8.289  28.715   4.134
16194W        W87777  35.912  17.254  12.678
16195W        W87778  38.785   3.432  12.393
16196W        W87779  29.419  13.116  11.207
16197W        W87780  16.447   3.088  11.029
16198W        W87781   6.960  21.696  12.846
16199W        W87782  15.584   4.049   4.574
16200W        W87783  27.210  14.403   0.276
16201W        W87784  31.694  28.271   4.253
16202W        W87785  42.540  38.439  14.880
16203W        W87786   7.785  25.017   4.776
16204W        W87787  41.877   8.751   3.103
16205W        W87788  19.002  20.763  10.769
16206W        W87789  27.513  29.964   4.136
16207W        W87790   1.792  24.026   2.238
16208W        W87791   3.959   9.591  14.764
16209W        W87792  13.918  17.851  12.882
16210W        W87793  18.639  25.702  12.910
16211W        W87794  42.847  20.535  12.495
16212W        W87795  43.931  38.330   4.378
16213W        W87796  31.541  15.848  11.635
16214W        W87797  27.351  31.857   1.495
16215W        W87798  38.991  18.049   2.234
16216W        W87799  27.965  35.320   4.863
16217W        W87800  44.042   9.356  13.080
16218W        W87801  38.984   9.277   3.231
16219W        W87802  21.551  39.596  14.781
16220W        W87803  11.864  29.394  14.934
16221W        W87804  12.599  38.032   4.798
16222W        W87805  18.134  24.581  12.088
16223W        W87806  10.122  31.378   4.178
16224W        W87807  25.385  21.256  13.963
16225W        W87808   5.540  31.164   4.735
16226W        W87809  12.830  32.102  12.899
16227W        W87810  43.732  16.116  11.052
16228W        W87811  11.756  19.068   4.375
16229W        W87812  12.833   7.290   1.642
16230W        W87813   0.845   6.981  12.469
16231W        W87814   9.595  44.271  14.345
16232W        W87815  40.630  23.656  13.748
16233W        W87816  43.351  43.704   4.174
16234W        W87817  11.051  38.955  13.640
16235W        W87818   5.729  25.476  13.842
16236W        W87819  25.576  32.086   2.289
16237W        W87820  16.525  38.358   1.856
16238W        W87821  34.835  36.016   0.309
16239W        W87822  30.839  14.110  10.704
16240W        W87823  28.391   7.405   1.201
16241W        W87824  24.988  33.194   3.784
16242W        W87825  40.022  21.521   0.916
16243W        W87826  36.024  32.350  11.086
16244W        W87827  17.731  16.177  11.200
16245W        W87828  29.593  15.763  12.502
16246W        W87829  39.321  15.314  11.563
16247W        W87830   7.976  18.482   4.246
16248W        W87831  23.352  28.579   4.566
16249W        W87832  37.884  33.574   2.878
16250W        W87833  21.515  29.430   0.745
16251W        W87834  18.840  36.922  10.714
16252W        W87835  14.698  43.284   4.571
16253W        W87836   0.433  44.897   2.671
16254W        W87837  28.367  24.800  14.376
16255W        W87838  10.232  34.462   4.351
16256W        W87839   0.345  20.589   2.378
16257W        W87840  41.756  42.963   4.647
16258W        W87841   0.617  39.514   1.026
16259W        W87842  37.032   3.165   2.234
16260W        W87843  32.914  38.065   3.435
16261W        W87844   6.271  11.206   4.599
16262W        W87845  16.269  35.358   3.691
16263W        W87846  17.154  39.113  11.483
16264W        W87847  36.853  42.532  13.442
16265W        W87848   0.500   1.347   0.782
16266W        W87849  36.282  14.404   9.785
16267W        W87850  16.047  27.529  14.893
16268W        W87851  30.022  11.597   4.533
16269W        W87852   5.999   3.495   0.144
16270W        W87853  37.955  38.557   0.428
16271W        W87854  26.478  26.017   2.647
16272W        W87855   3.256   5.667  13.507
16273W        W87856  38.111  31.469  11.187
16274W        W87857   4.982  15.024   4.223
16275W        W87858   2.763  41.982   4.635
16276W        W87859  36.262  36.401  14.851
16277W        W87860   7.341  12.073   4.181
16278W        W87861  30.163  36.529   2.762
16279W        W87862  19.608  10.093  13.014
16280W        W87863  12.621  37.193  11.796
16281W        W87864  27.345  32.472  14.318
16282W        W87865  20.236  29.831   1.587
16283W        W87866  10.035  11.574  11.903
16284W        W87867  34.083  43.876   0.067
16285W        W87868  16.923   3.967   2.239
16286W        W87869   0.921  34.403   3.169
16287W        W87870   1.522  35.289   2.351
16288W        W87871   4.993  13.057  10.644
16289W        W87872  21.579  37.707   5.078
16290W        W87873  37.167   1.902  10.428
16291W        W87874  35.892  35.861  12.526
16292W        W87875   5.021  25.987   4.072
16293W        W87876  42.257  18.728  10.866
16294W        W87877  17.286  14.274   3.247
16295W        W87878  30.114  16.714   1.788
16296W        W87879  24.986   3.391   0.938
16297W        W87880  15.711  12.284  14.814
16298W        W87881  34.162  28.168  11.164
16299W        W87882  30.041   4.827   3.904
16300W        W87883  27.834  11.243   3.481
16301W        W87884  21.752  22.672  13.063
16302W        W87885   6.078  18.282  11.692
16303W        W87886  17.250  26.750  11.567
16304W        W87887  37.803  30.646   2.726
16305W        W87888  24.879   1.135   2.260
16306W        W87889   6.666  13.000  13.763
16307W        W87890  28.075  40.816   4.833
16308W        W87891  21.534  33.096   4.579
16309W        W87892  31.952  29.635  11.229
16310W        W87893   9.912  21.321   4.943
16311W        W87894  32.995  40.879   2.801
16312W        W87895  41.870  17.136   1.463
16313W        W87896  19.121  16.958  12.165
16314W        W87897  24.456  17.706  10.745
16315W        W87898  30.433  19.652  14.037
16316W        W87899   2.746  15.696   3.857
16317W        W87900   9.623   9.275  11.236
16318W        W87901  27.855  39.459   2.365
16319W        W87902  42.473  26.678  13.451
16320W        W87903  44.296  39.830   4.521
16321W        W87904  32.144  35.071   2.026
16322W        W87905  21.459  33.613   4.168
16323W        W87906  35.023  14.531   4.484
16324W        W87907  20.576  36.356  13.555
16325W        W87908  27.243  30.110  14.794
16326W        W87909  11.376  26.028   1.392
16327W        W87910  13.316   8.118   4.530
16328W        W87911  13.864   8.280   2.903
16329W        W87912   3.866  29.222  11.639
16330W        W87913  15.546  35.244   4.441
16331W        W87914   7.349   1.760   4.501
16332W        W87915  34.572  22.516   3.602
16333W        W87916  20.099  28.584   4.686
16334W        W87917  22.405  13.267   1.126
16335W        W87918  18.847  27.459   0.452
16336W        W87919  28.430   9.463  12.917
16337W        W87920  37.383  33.695   3.810
16338W        W87921  11.542  30.635  13.567
16339W        W87922  23.922  21.476  12.632
16340W        W87923  11.789  21.846  14.456
16341W        W87924   0.483  26.396   0.769
16342W        W87925  35.341   3.521  10.904
16343W        W87926   1.863   3.920   0.629
16344W        W87927  19.263  23.755  10.248
16345W        W87928  24.509  41.842  12.331
16346W        W87929   5.692  34.949  14.741
16347W        W87930  26.004  21.314  12.107
16348W        W87931  16.570  37.310  12.487
16349W        W87932  29.217  36.367  11.354
16350W        W87933  35.341  31.592  11.939
16351W        W87934  16.425  39.905  13.365
16352W        W87935   8.753  27.474  12.634
16353W        W87936  30.706  43.886  13.088
16354W        W87937  41.332  22.938   2.716
16355W        W87938  36.626  38.997   0.312
16356W        W87939  37.808  23.921  11.179
16357W        W87940  37.512   9.243   3.264
16358W        W87941   4.479  19.481  13.468
16359W        W87942  23.013  29.536   2.695
16360W        W87943   6.785  28.157  10.687
16361W        W87944  31.136   3.524   0.265
16362W        W87945  14.831  42.364  14.556
16363W        W87946  18.769  40.611  13.987
16364W        W87947  28.353  32.377   3.963
16365W        W87948  37.036   0.426   4.251
16366W        W87949  22.202  18.744  13.283
16367W        W87950  10.435  21.684   1.546
16368W        W87951  39.407   4.891  14.273
16369W        W87952  19.972  31.307   4.102
16370W        W87953  28.674  10.600  12.039
16371W        W87954  26.802  30.484   1.498
16372W        W87955  30.460   5.788  13.010
16373W        W87956  19.869  18.554   0.162
16374W        W87957  42.548  27.377  12.855
16375W        W87958  28.955  11.238  14.338
16376W        W87959  15.231  21.558  14.065
16377W        W87960  42.084  33.459  10.788
16378W        W87961  11.872   2.314   1.383
16379W        W87962  43.019  38.875  10.889
16380W        W87963   8.431  18.834   1.165
16381W        W87964  11.444  41.869  12.559
16382W        W87965  38.176   5.458   3.627
16383W        W87966  37.058  15.787  12.977
16384W        W87967  32.311  13.839   1.538
16385W        W87968  31.613   1.884   3.290
16386W        W87969  15.609  24.795   4.140
16387W        W87970  13.920  41.398  13.605
16388W        W87971  12.357  19.501  13.582
16389W        W87972  31.167   6.064  12.571
16390W        W87973  38.566  11.877  14.395
16391W        W87974   6.237  41.040   0.461
16392W        W87975   8.437  40.987   0.799
16393W        W87976  41.856  25.719   2.149
16394W        W87977  29.690   1.326   3.248
16395W        W87978   5.512  42.721  14.515
16396W        W87979  27.634  27.009  11.987
16397W        W87980  39.539  32.208   3.594
16398W        W87981  31.451  31.361   2.428
16399W        W87982   6.821  30.689  13.853
16400W        W87983  25.466  24.343  12.456
16401W        W87984   8.628  27.126   0.827
16402W        W87985  13.243  42.399   0.902
16403W        W87986  35.903  29.542   0.764
16404W        W87987   9.840  24.722   0.786
16405W        W87988  16.118  38.908  12.102
16406W        W87989   3.695   5.887  13.601
16407W        W87990  42.409   9.835  14.954
16408W        W87991   0.495  31.086   4.682
16409W        W87992  31.892  28.464   0.231
16410W        W87993  41.952   5.384  11.954
16411W        W87994  33.947  44.612  10.150
16412W        W87995  39.353  28.319  14.254
16413W        W87996  25.151  19.641  14.591
16414W        W87997  27.655  24.660   0.938
16415W        W87998  17.655  37.079   2.605
16416W        W87999  35.132   2.199   1.397
16417W        W88000  30.199  42.414  13.289
16418W        W88001   1.333   1.872   1.887
16419W        W88002  31.355  22.777  10.134
16420W        W88003  36.449   0.826  14.233
16421W        W88004  33.311  41.155  12.883
16422W        W88005  23.226  23.638  11.578
16423W        W88006   0.674  34.369  11.621
16424W        W88007  14.089  22.599   1.687
16425W        W88008  43.989  25.073   4.238
16426W        W88009  27.588  31.031   2.439
16427W        W88010  19.787  17.839  12.102
16428W        W88011  43.444  40.813   0.384
16429W        W88012   6.258  18.591   1.374
16430W        W88013  30.581   6.231  14.642
16431W        W88014  30.736  27.074  11.885
16432W        W88015  24.735  12.361  14.669
16433W        W88016  18.831  26.179  12.945
16434W        W88017   4.785  13.368   1.011
16435W        W88018  19.205  24.520   3.722
16436W        W88019   0.012   9.337   0.956
16437W        W88020  35.998  35.338   3.249
16438W        W88021  15.134  32.141  12.354
16439W        W88022   0.864  32.927   2.426
16440W        W88023  24.699  12.196   0.643
16441W        W88024   5.844  39.518   1.904
16442W        W88025   5.669  26.193   1.196
16443W        W88026  17.077  34.120   2.693
16444W        W88027  40.712  19.928  14.031
16445W        W88028   6.832  37.078   0.691
16446W        W88029  36.635  39.787  11.673
16447W        W88030  11.414   4.418   0.002
16448W        W88031   6.884  24.162  13.436
16449W        W88032  27.647  44.810   0.816
16450W        W88033  12.520   0.280   1.398
16451W        W88034  11.651   7.766   0.955
16452W        W88035  14.706  25.040   2.688
16453W        W88036  30.612  44.846  10.735
16454W        W88037  35.033  19.622  12.054
16455W        W88038  34.060  14.111   3.132
16456W        W88039  44.007   9.177   0.021
16457W        W88040  35.502  41.416  14.089
16458W        W88041  29.703  23.816   0.806
16459W        W88042  16.825  29.147  11.740
16460W        W88043   1.429  14.345   1.008
16461W        W88044   3.499  21.407  12.064
16462W        W88045  29.411  42.691  12.068
16463W        W88046   1.725   1.695   0.836
16464W        W88047  44.343  30.112  10.768
16465W        W88048  14.818  10.746   4.259
16466W        W88049  28.023  30.996  11.693
16467W        W88050   4.373   1.756   3.688
16468W        W88051  23.762  43.822   4.082
16469W        W88052   4.302  25.406  11.714
16470W        W88053  22.630   6.645   1.986
16471W        W88054  11.796  16.542  10.584
16472W        W88055   1.055  10.271  12.686
16473W        W88056  20.881  13.764  14.851
16474W        W88057  15.327  26.126  14.563
16475W        W88058  33.909  21.970  11.022
16476W        W88059  29.139   9.405  10.522
16477W        W88060   5.797   5.322   1.908
16478W        W88061  41.108   1.981  11.429
16479W        W88062  20.548   8.895  11.879
16480W        W88063  22.235   1.387  12.868
16481W        W88064  32.497  17.394  11.475
16482W        W88065  13.348   3.460   4.268
16483W        W88066  32.033  23.116  14.574
16484W        W88067  38.398   5.960   0.434
16485W        W88068  18.715   3.740   3.603
16486W        W88069  13.150  17.218   4.108
16487W        W88070  29.057  22.231   4.936
16488W        W88071  19.248  14.814  13.434
16489W        W88072  27.977  21.495  12.617
16490W        W88073  36.919  41.975   2.405
16491W        W88074   4.799  39.041   4.343
16492W        W88075   7.560  21.371   4.587
16493W        W88076  29.181  44.445  10.619
16494W        W88077   3.249  17.142   2.774
16495W        W88078  27.525  14.766  10.971
16496W        W88079  39.874  19.412   4.819
16497W        W88080  15.140   8.999   3.687
16498W        W88081  23.060  21.012  11.583
16499W        W88082  42.077   8.322   4.203
16500W        W88083  24.086  16.026   4.062
16501W        W88084  28.567  43.968  10.504
16502W        W88085  37.775  11.818  14.849
16503W        W88086   8.231   9.173  14.835
16504W        W88087  26.438  33.516  13.808
16505W        W88088   6.363  31.985   4.211
16506W        W88089  10.982  42.041  11.876
16507W        W88090  27.903   1.159  10.552
16508W        W88091  41.015  28.170  14.806
16509W        W88092  10.965  15.746   3.625
16510W        W88093   6.772  38.615   2.764
16511W        W88094  24.265  28.979  13.069
16512W        W88095  25.082   1.433  14.574
16513W        W88096  39.083  31.696   4.147
16514W        W88097  23.322  13.557   0.749
16515W        W88098  23.126  17.080  12.846
16516W        W88099   4.080   5.354  14.000
16517W        W88100  19.070  37.829  11.563
16518W        W88101  15.345   5.238  14.377
16519W        W88102   2.411  21.091   2.411
16520W        W88103  30.648  41.514  12.879
16521W        W88104  43.430  11.433  14.880
16522W        W88105  12.297  11.451   4.089
16523W        W88106  42.137  17.680   3.646
16524W        W88107  22.809   1.640  10.250
16525W        W88108  14.413  42.801  11.574
16526W        W88109   2.930  23.641  10.425
16527W        W88110   9.447  28.103   0.800
16528W        W88111  24.768  33.534  11.035
16529W        W88112  36.869  23.961  13.293
16530W        W88113  35.761  31.033   4.308
16531W        W88114   1.355  34.461   2.882
16532W        W88115  30.028   7.727   0.250
16533W        W88116  42.471  34.436  10.623
16534W        W88117   7.117  33.621  12.626
16535W        W88118  34.828  32.516   2.718
16536W        W88119  18.933   6.920  13.973
16537W        W88120  21.264  15.207   0.783
16538W        W88121   6.853  18.170  11.076
16539W        W88122  31.595   7.977  12.962
16540W        W88123  15.038  28.878   3.813
16541W        W88124  15.043  18.193  11.906
16542W        W88125  30.893  18.716  13.297
16543W        W88126  29.600  15.271  12.973
16544W        W88127  37.060  44.894  13.200
16545W        W88128   9.783   0.308  13.280
16546W        W88129  44.443  28.868  10.718
16547W        W88130  18.327  42.083  10.896
16548W        W88131  39.358   2.969   4.987
16549W        W88132  23.256   1.796   3.560
16550W        W88133  14.800  19.680   5.152
16551W        W88134  36.123   5.323   2.735
16552W        W88135   0.644  24.981  14.886
16553W        W88136  16.248   6.033   2.969
16554W        W88137  11.339  37.947  13.570
16555W        W88138  29.957  40.371   4.204
16556W        W88139  38.481  15.209  14.078
16557W        W88140  22.805  14.641   3.214
16558W        W88141  20.911   8.720   3.372
16559W        W88142   5.719  10.475   4.624
16560W        W88143  19.719  12.273   1.755
16561W        W88144  12.976   0.358  14.587
16562W        W88145  42.980  27.614  10.990
16563W        W88146  14.305  37.944  14.810
16564W        W88147  31.919   5.849   0.183
16565W        W88148  33.491   6.990   1.997
16566W        W88149  26.239  43.858  13.168
16567W        W88150  33.731   5.199   1.323
16568W        W88151  44.513   4.170   2.157
16569W        W88152   2.079  19.653  10.271
16570W        W88153  16.149   0.884  12.544
16571W        W88154  27.737  12.979  12.063
16572W        W88155  35.099  17.054  10.421
16573W        W88156  26.424  35.527   2.408
16574W        W88157   2.402  42.016   2.318
16575W        W88158  15.206  23.255  14.364
16576W        W88159  32.244  28.327   4.058
16577W        W88160  43.843  22.488   0.745
16578W        W88161  18.525  32.993  12.983
16579W        W88162  31.956  28.914  12.030
16580W        W88163  27.913  34.782  10.598
16581W        W88164  41.273   2.899   0.237
16582W        W88165  24.919  32.634   3.731
16583W        W88166  31.903   2.892   4.778
16584W        W88167  21.659  30.680   4.913
16585W        W88168  20.584  22.005  13.961
16586W        W88169  27.517  27.140  13.765
16587W        W88170   1.068   0.229  10.888
16588W        W88171  21.658  32.503  13.993
16589W        W88172  30.186  18.088  11.370
16590W        W88173  44.737  33.929   2.243
16591W        W88174  39.941  21.667  10.533
16592W        W88175  27.926  15.311  12.837
16593W        W88176  34.510  26.456  13.722
16594W        W88177  13.447  19.737   2.532
16595W        W88178  20.147  18.919  14.039
16596W        W88179  40.035   1.299   2.732
16597W        W88180  40.602  33.505  13.483
16598W        W88181   1.624  36.932   1.359
16599W        W88182  41.043  34.481   2.669
16600W        W88183   7.324   7.623   1.290
16601W        W88184   4.230  34.395  10.163
16602W        W88185   0.364  41.774  13.479
16603W        W88186  16.888  37.449  12.848
16604W        W88187  10.084  43.896  12.441
16605W        W88188   0.766  15.117   4.007
16606W        W88189  14.894  11.830  11.069
16607W        W88190  30.000  23.099  14.606
16608W        W88191  13.600  15.674  11.723
16609W        W88192  24.843  20.870   0.175
16610W        W88193   0.225   8.851   4.182
16611W        W88194  27.245  32.476   3.661
16612W        W88195   3.216  19.721   0.437
16613W        W88196  19.285  42.380  14.869
16614W        W88197   2.949  39.564  12.626
16615W        W88198  30.390  39.152   1.298
16616W        W88199  20.405  29.645   3.716
16617W        W88200  12.337   7.357   1.722
16618W        W88201  13.578  34.196   3.035
16619W        W88202  28.674   3.763   2.839
16620W        W88203   1.462  27.968   1.269
16621W        W88204  43.357  21.668  12.405
16622W        W88205  39.904  19.769  12.386
16623W        W88206   8.021  32.999  11.134
16624W        W88207   1.705   5.911  13.739
16625W        W88208   1.426   5.789  14.909
16626W        W88209  44.544   4.715  11.679
16627W        W88210  40.147  22.759  14.755
16628W        W88211  19.030  20.879   1.112
16629W        W88212  27.184   1.331   4.563
16630W        W88213  30.171  20.198  12.830
16631W        W88214  40.502  13.615   4.530
16632W        W88215  36.017  36.452  10.726
16633W        W88216  38.166  36.389  14.303
16634W        W88217  14.881   0.826  14.316
16635W        W88218  30.274  38.447  11.905
16636W        W88219  39.444  30.889   3.674
16637W        W88220   4.002  17.813   0.432
16638W        W88221  17.096   9.516  14.282
16639W        W88222  27.539   5.357   4.365
16640W        W88223  25.699  26.407  11.108
16641W        W88224  27.612  19.771   2.742
16642W        W88225  21.779   8.233   0.399
16643W        W88226  41.931  35.930   0.231
16644W        W88227  16.085  29.639  11.542
16645W        W88228  19.604  38.393   2.222
16646W        W88229  13.451   7.415   1.002
16647W        W88230  44.032  39.863   3.017
16648W        W88231  34.693  33.308   4.304
16649W        W88232  16.750  37.978  13.990
16650W        W88233   6.398  19.363  11.574
16651W        W88234   2.250   7.579   3.193
16652W        W88235  33.004  16.640  13.970
16653W        W88236  11.088  30.065  14.056
16654W        W88237  19.826  41.868  14.819
16655W        W88238  28.135  15.165   3.189
16656W        W88239  40.463   8.367  12.133
16657W        W88240  14.861  17.579   3.150
16658W        W88241  10.158  16.902   1.305
16659W        W88242  34.814   5.759  13.933
16660W        W88243  37.611  30.191  14.438
16661W        W88244  12.332   6.576   1.172
16662W        W88245  13.229  27.077  14.482
16663W        W88246  22.762   0.151  12.711
16664W        W88247  40.268  37.602   2.314
16665W        W88248  32.891  19.580  10.508
16666W        W88249  42.315  33.447   2.382
16667W        W88250  11.271   3.333   4.859
16668W        W88251  28.576   2.851   0.507
16669W        W88252  35.243   6.904  10.739
16670W        W88253  10.167   3.412   0.815
16671W        W88254  29.928   3.977  10.637
16672W        W88255  10.309   2.341   3.295
16673W        W88256  38.425  20.977  13.297
16674W        W88257   3.003  11.434  14.407
16675W        W88258  15.720  13.268  13.431
16676W        W88259  30.166  38.357  13.285
16677W        W88260  40.842  20.289  10.758
16678W        W88261  29.997  24.371  12.085
16679W        W88262  23.114   8.266   4.880
16680W        W88263   2.301  26.458  14.020
16681W        W88264   3.926   5.884  14.059
16682W        W88265  10.397   7.128   1.580
16683W        W88266  20.945  34.086   3.133
16684W        W88267  41.404  34.012  14.826
16685W        W88268  42.417  26.526  14.837
16686W        W88269  42.660  19.574  12.900
16687W        W88270  44.508  12.260   0.931
16688W        W88271  31.647  33.351  14.400
16689W        W88272  31.487  29.605  10.985
16690W        W88273  13.163  24.757  12.815
16691W        W88274  40.172  16.769   0.235
16692W        W88275  31.143  10.949  12.808
16693W        W88276  14.111  15.199   4.068
16694W        W88277  10.626  37.963   1.681
16695W        W88278   3.067  43.685  14.289
16696W        W88279  11.169  34.579  14.912
16697W        W88280   3.216   8.760  13.070
16698W        W88281  19.379  13.618  14.896
16699W        W88282  31.904  24.600  14.024
16700W        W88283  13.717  16.471  14.409
16701W        W88284  20.642  31.342  11.554
16702W        W88285  25.652  38.947   1.940
16703W        W88286  21.628  14.906  11.884
16704W        W88287   5.106  12.851   1.346
16705W        W88288   7.193  38.684  11.641
16706W        W88289  22.533  14.626  10.899
16707W        W88290   2.002  29.169   2.423
16708W        W88291  18.053  42.350  12.042
16709W        W88292  18.648   2.925   3.988
16710W        W88293  32.035  16.260   4.516
16711W        W88294  15.638  17.594   1.645
16712W        W88295  29.791  27.002   3.339
16713W        W88296  36.604  28.652  12.721
16714W        W88297  11.362  22.024   3.642
16715W        W88298  34.035   0.704  12.435
16716W        W88299  33.472  24.922  10.069
16717W        W88300  22.440  40.466   0.331
16718W        W88301  38.033  36.521   4.926
16719W        W88302  31.191  43.756  12.938
16720W        W88303   8.439  13.881   2.764
16721W        W88304  38.106  35.511   3.681
16722W        W88305  35.461  13.075  11.604
16723W        W88306   5.684  22.000  11.171
16724W        W88307   7.826  11.355   0.275
16725W        W88308  22.799  27.144   1.227
16726W        W88309  11.545  35.759  10.053
16727W        W88310  17.730  14.697  13.039
16728W        W88311   9.687  13.064  11.430
16729W        W88312   6.418   6.847  10.935
16730W        W88313  35.596  16.120  12.023
16731W        W88314  12.947  19.095   1.385
16732W        W88315  43.691  33.436   0.936
16733W        W88316  29.178  14.325   2.651
16734W        W88317   3.680  20.936  14.834
16735W        W88318  27.019  15.194   1.284
16736W        W88319  13.788  29.436  12.407
16737W        W88320  33.693  42.402  10.532
16738W        W88321   8.660  33.999   1.631
16739W        W88322  19.549  32.988  12.289
16740W        W88323  18.849  34.765  14.006
16741W        W88324  35.099  17.382  11.791
16742W        W88325  28.454  10.865  10.705
16743W        W88326   8.769  18.785   3.773
16744W        W88327  40.966  20.095  13.592
16745W        W88328   2.385  31.675  12.873
16746W        W88329   3.824  13.428  11.240
16747W        W88330  17.055  19.763  11.514
16748W        W88331  24.567  22.474   0.812
16749W        W88332  14.367  31.139  13.672
16750W        W88333  21.138  17.159  12.331
16751W        W88334  16.319  38.847  13.415
16752W        W88335  13.831   8.307  11.765
16753W        W88336  15.210   3.014  10.626
16754W        W88337   8.437  17.605   4.271
16755W        W88338  44.841   3.290  12.294
16756W        W88339  17.667  26.471   1.980
16757W        W88340  25.683  39.020  10.678
16758W        W88341  21.513  38.402   2.438
16759W        W88342  25.762  12.258  14.221
16760W        W88343  19.792  40.019  14.920
16761W        W88344  11.513  30.568   0.424
16762W        W88345   5.980  16.517   2.430
16763W        W88346  41.678   9.895  14.408
16764W        W88347  31.364  16.620   3.412
16765W        W88348  22.001  13.875  14.354
16766W        W88349  42.866  17.029   3.369
16767W        W88350  31.826   8.838  12.525
16768W        W88351  28.158  24.187   2.086
16769W        W88352   6.662  43.771   0.458
16770W        W88353  29.545  15.671   4.605
16771W        W88354  34.327  34.016   0.764
16772W        W88355  26.522  18.664  13.855
16773W        W88356  25.025   2.679   2.298
16774W        W88357  13.781   0.252  10.702
16775W        W88358  25.769   3.547  12.420
16776W        W88359  25.691  27.929   1.961
16777W        W88360  36.000  43.999   4.358
16778W        W88361  15.676  20.016   0.266
16779W        W88362   7.719  40.036  13.446
16780W        W88363  20.270  24.385  10.404
16781W        W88364  19.824  28.456  12.671
16782W        W88365  29.914  33.466   0.872
16783W        W88366  42.968  33.101  10.747
16784W        W88367  22.334  40.674  12.045
16785W        W88368   6.194   1.859  10.759
16786W        W88369  21.284   9.319  14.445
16787W        W88370  22.110   1.122   3.434
16788W        W88371   4.453  43.559   0.807
16789W        W88372  44.371   6.149   4.263
16790W        W88373  20.075  30.923   4.472
16791W        W88374  41.305   2.734   3.369
16792W        W88375   9.105   6.958  12.266
16793W        W88376  37.049  39.458  14.518
16794W        W88377  35.197  32.010  11.521
16795W        W88378  41.094  30.976  14.393
16796W        W88379   4.241  18.587   4.306
16797W        W88380   2.511  42.970  11.228
16798W        W88381  22.506  39.256  12.976
16799W        W88382  24.322  14.631   1.935
16800W        W88383  19.148  30.435   0.146
16801W        W88384  33.842  35.061  14.381
16802W        W88385   7.390  25.460   3.268
16803W        W88386  26.261  34.388  11.684
16804W        W88387  13.381  40.448   0.312
16805W        W88388  17.589  40.774  10.612
16806W        W88389  12.768   6.884   1.273
16807W        W88390  18.211  34.570   0.606
16808W        W88391   9.458   2.582  10.747
16809W        W88392  10.273  36.446   2.659
16810W        W88393  41.594  43.211  14.432
16811W        W88394  22.232  21.689  13.804
16812W        W88395  19.497   2.308  10.735
16813W        W88396  25.910  20.229   4.031
16814W        W88397  24.246  43.595   4.468
16815W        W88398  33.973  35.342   4.418
16816W        W88399  13.371   7.430  14.074
16817W        W88400  12.325  15.583   2.728
16818W        W88401  43.883   0.796   4.513
16819W        W88402  27.403  25.121   3.771
16820W        W88403  22.957   9.892   2.147
16821W        W88404  39.786   0.415  11.164
16822W        W88405  16.731   5.366   1.275
16823W        W88406  20.588  22.163  14.475
16824W        W88407  41.042   0.557  10.937
16825W        W88408  17.525   3.575   0.853
16826W        W88409   3.942  44.696   2.239
16827W        W88410  10.707   3.267  12.510
16828W        W88411  30.023  13.078   4.858
16829W        W88412  37.189  32.602  14.334
16830W        W88413  21.576  12.207  14.444
16831W        W88414  41.874  31.555  11.112
16832W        W88415   8.131  38.496  14.403
16833W        W88416  25.527   9.736  12.068
16834W        W88417  43.191  19.920   5.038
16835W        W88418   7.287   5.973  13.532
16836W        W88419  43.927  16.623  14.391
16837W        W88420   6.653  39.318   0.809
16838W        W88421  27.853  16.224   4.369
16839W        W88422   0.236  17.137   3.253
16840W        W88423   1.615   3.945   3.711
16841W        W88424   4.300  16.329  13.156
16842W        W88425   6.810  25.734   1.649
16843W        W88426  20.492   4.779  12.867
16844W        W88427  13.802  15.575   0.864
16845W        W88428  30.181  28.892  11.769
16846W        W88429   6.193   7.874   4.643
16847W        W88430   7.985  11.722  12.445
16848W        W88431  29.128  28.226  14.878
16849W        W88432  36.857   7.257   3.417
16850W        W88433   5.574  13.969  11.395
16851W        W88434  40.827  43.853  12.725
16852W        W88435   5.523  13.863   3.869
16853W        W88436  39.579  13.218  14.405
16854W        W88437   0.496  42.973  12.864
16855W        W88438  32.525  16.837  12.316
16856W        W88439   4.487  10.184   2.229
16857W        W88440  14.259  40.686  12.008
16858W        W88441  39.307  41.513   2.595
16859W        W88442  24.683  19.741  11.083
16860W        W88443  21.368  11.351   0.430
16861W        W88444   7.591  34.505   3.581
16862W        W88445  16.061  43.897  11.667
16863W        W88446  14.298   5.204  12.906
16864W        W88447  43.485   4.238   2.223
16865W        W88448  26.994   4.853  11.849
16866W        W88449   0.495   6.162  14.007
16867W        W88450  16.300  32.143  10.620
16868W        W88451  44.506  40.661   3.862
16869W        W88452  38.073  42.015  12.869
16870W        W88453  24.035   5.335   3.745
16871W        W88454   0.021   4.391  14.980
16872W        W88455  17.635   5.233   3.826
16873W        W88456  18.383  12.582   0.789
16874W        W88457  35.002   3.432   0.026
16875W        W88458   3.322  12.581   1.925
16876W        W88459  29.948   6.278  13.532
16877W        W88460   5.131  40.778   3.626
16878W        W88461  40.957  24.464   3.242
16879W        W88462  21.198   8.209   0.320
16880W        W88463  22.098  27.185   0.295
16881W        W88464  13.765  27.117  13.509
16882W        W88465  44.306  19.950   1.444
16883W        W88466   8.738  34.085   2.654
16884W        W88467  26.635  21.338  11.699
16885W        W88468  43.290  24.700  13.053
16886W        W88469  10.287  15.208   0.187
16887W        W88470  20.507  40.369  10.892
16888W        W88471  15.236   8.479   3.714
16889W        W88472  18.350  19.439  14.820
16890W        W88473  13.830  39.262   0.108
16891W        W88474  12.503  30.157   2.906
16892W        W88475  12.734  35.072   2.436
16893W        W88476  22.964  41.506  14.798
16894W        W88477   8.065  22.105  11.166
16895W        W88478  44.787  19.537  10.803
16896W        W88479  36.716  38.863  12.834
16897W        W88480   7.109   1.306  13.512
16898W        W88481  33.394  26.933  10.669
16899W        W88482  31.984   2.258   2.940
16900W        W88483  37.579  39.415  14.533
16901W        W88484  21.405  18.277   4.094
16902W        W88485  21.197  23.527  12.216
16903W        W88486  39.613  14.802  10.825
16904W        W88487  17.498  42.477  10.710
16905W        W88488  33.675  39.122   0.574
16906W        W88489  11.352  13.680  14.104
16907W        W88490  33.517  13.378  12.785
16908W        W88491  40.395  20.741  12.995
16909W        W88492  34.958  26.756   9.622
16910W        W88493  37.408   0.725  13.661
16911W        W88494  14.935  42.596  12.041
16912W        W88495   0.007  37.625   2.533
16913W        W88496  21.715  37.052   4.097
16914W        W88497  31.350  38.074   4.162
16915W        W88498  41.446  32.153  10.083
16916W        W88499   9.354  27.572   0.774
16917W        W88500  22.750  10.412   4.140
16918W        W88501  19.747  35.080   1.889
16919W        W88502  28.811  28.165  14.476
16920W        W88503  34.915  44.682   1.364
16921W        W88504  38.542  21.654   4.043
16922W        W88505   1.400  19.233  14.551
16923W        W88506  30.107  33.197   2.850
16924W        W88507  33.162  42.352   0.061
16925W        W88508  35.630  14.695   2.110
16926W        W88509  35.854  28.073  12.442
16927W        W88510  16.302  24.642   3.265
16928W        W88511  19.624   9.677   1.237
16929W        W88512  44.476  34.495   3.615
16930W        W88513  30.526  41.137   4.247
16931W        W88514   8.028  30.590  13.354
16932W        W88515  41.813  43.076   3.776
16933W        W88516  39.352  34.050  13.793
16934W        W88517  32.884  35.503  11.426
16935W        W88518  26.591  16.451  12.366
16936W        W88519  43.974  29.060   3.727
16937W        W88520   8.236  10.914   2.914
16938W        W88521  15.269   5.752  12.475
16939W        W88522  12.072  35.611  14.768
16940W        W88523   2.977  13.224   4.415
16941W        W88524  16.080   5.916  11.075
16942W        W88525  36.113  29.369   1.190
16943W        W88526   2.806  36.900  10.923
16944W        W88527  15.175  37.977  14.978
16945W        W88528   4.923  31.570  13.243
16946W        W88529  32.931  33.885  12.884
16947W        W88530   0.562   7.997  14.023
16948W        W88531  19.782  22.851   5.204
16949W        W88532  44.040  40.003   5.067
16950W        W88533  44.016  15.589   0.862
16951W        W88534  14.917   4.430  14.027
16952W        W88535  18.761  39.095   2.913
16953W        W88536  28.954  14.242  13.855
16954W        W88537  14.604   4.852  11.900
16955W        W88538  35.404  24.325  11.975
16956W        W88539   1.305  29.654   3.271
16957W        W88540   4.098  20.188  12.460
16958W        W88541  35.910  36.965  10.576
16959W        W88542  33.102  29.538  14.532
16960W        W88543  25.701  13.316  12.173
16961W        W88544  30.021   3.813  12.431
16962W        W88545  12.267  14.563   2.641
16963W        W88546  41.794   8.531  11.510
16964W        W88547  16.357  41.367  13.388
16965W        W88548  30.511   8.389  14.229
16966W        W88549  21.133  29.914  12.016
16967W        W88550  13.474  38.408   1.811
16968W        W88551   2.981  28.217  13.880
16969W        W88552  32.433  14.323   1.720
16970W        W88553  26.638  26.144  10.533
16971W        W88554  21.601   1.304   0.326
16972W        W88555  19.776   3.669  12.823
16973W        W88556  20.011   6.811   2.454
16974W        W88557  12.410   9.652   2.304
16975W        W88558  18.080  30.981   3.648
16976W        W88559  11.151  35.376  14.541
16977W        W88560  38.668  33.479   3.312
16978W        W88561   7.868  14.035   2.208
16979W        W88562  24.598  15.859  14.016
16980W        W88563  29.440   3.194   3.154
16981W        W88564  34.290   0.208  11.776
16982W        W88565  15.833  18.774   3.263
16983W        W88566  36.378  24.775   2.253
16984W        W88567  42.345  11.320  11.661
16985W        W88568  29.344  36.727  12.572
16986W        W88569  43.472  25.669  14.451
16987W        W88570  14.286  26.030   4.976
16988W        W88571   0.878  22.665   1.774
16989W        W88572  21.222  12.210  14.820
16990W        W88573  36.104   4.603  11.577
16991W        W88574  17.985  11.835   3.223
16992W        W88575  26.683  12.242   2.012
16993W        W88576  28.176   4.887  12.542
16994W        W88577   3.413  32.050   0.142
16995W        W88578   9.961  13.358  11.764
16996W        W88579  43.515  15.318  13.457
16997W        W88580  23.004  19.201   4.784
16998W        W88581  34.111  41.508   2.489
16999W        W88582   6.809  19.109  13.094
17000W        W88583   5.655   3.519   0.522
17001W        W88584  27.556   4.730  11.458
17002W        W88585  36.394  19.740  10.733
17003W        W88586  17.301   8.343  11.183
17004W        W88587  37.835  22.799  13.862
17005W        W88588   0.736  30.846   1.893
17006W        W88589   7.197  25.585  13.810
17007W        W88590  38.276  23.152   4.201
17008W        W88591   0.906  34.492   3.672
17009W        W88592  15.981  25.272  13.368
17010W        W88593  37.542  44.584  11.177
17011W        W88594  32.917  17.290   2.155
17012W        W88595  32.582  34.069   4.910
17013W        W88596  44.707   3.896  14.955
17014W        W88597  39.485  38.567   2.199
17015W        W88598  17.729   9.921  12.438
17016W        W88599  35.354  41.278   2.808
17017W        W88600  11.493  14.201  10.974
17018W        W88601  28.416   1.906   2.902
17019W        W88602  34.383   0.775  12.955
17020W        W88603  31.633  11.171   3.713
17021W        W88604  12.373  17.540   4.548
17022W        W88605   1.109  20.565   2.763
17023W        W88606  14.733  32.005   2.660
17024W        W88607  32.459  42.907  11.848
17025W        W88608  14.115  15.207   3.561
17026W        W88609  35.972   1.885   3.404
17027W        W88610  18.266  15.143   2.344
17028W        W88611  12.534  19.156  12.038
17029W        W88612  21.707   7.277  13.329
17030W        W88613  18.762  19.510   1.115
17031W        W88614  37.803  21.706  12.004
17032W        W88615  41.283  22.762  11.418
17033W        W88616  31.175  36.192   0.812
17034W        W88617  38.371  11.397  13.398
17035W        W88618  24.653  23.479  10.850
17036W        W88619  12.321  30.683   3.937
17037W        W88620  21.946  42.835   3.726
17038W        W88621  20.615  11.678   4.084
17039W        W88622  23.572  36.382  14.924
17040W        W88623   7.929  11.054   3.323
17041W        W88624  10.981  44.538  14.290
17042W        W88625   6.165  31.447   1.676
17043W        W88626  34.858  27.735   2.611
17044W        W88627   0.259   9.382   0.500
17045W        W88628   7.154  20.406  13.419
17046W        W88629  16.156  35.088  12.335
17047W        W88630   8.777  36.054   1.073
17048W        W88631  15.245  32.364   3.769
17049W        W88632  21.635  37.101   1.715
17050W        W88633  35.676   6.692  12.718
17051W        W88634  23.727  21.452   3.947
17052W        W88635   4.907  43.048   1.353
17053W        W88636   2.801   5.406   2.191
17054W        W88637  39.972  30.226  11.458
17055W        W88638  40.805  24.028   0.549
17056W        W88639  27.161  21.585   2.581
17057W        W88640  16.325   4.516  14.211
17058W        W88641  35.675  29.151   1.426
17059W        W88642  28.486  40.868   3.895
17060W        W88643   9.828  42.280  10.937
17061W        W88644   3.499  26.458   4.606
17062W        W88645  44.598  20.101   4.617
17063W        W88646  21.989  43.164  14.140
17064W        W88647  29.229   2.302   1.296
17065W        W88648  11.808  31.989   1.957
17066W        W88649  15.784  16.400  14.289
17067W        W88650  42.090   1.009  11.257
17068W        W88651  33.223  32.057   0.433
17069W        W88652  13.808  22.368   5.141
17070W        W88653  28.208  41.318  11.971
17071W        W88654  39.013  33.046   1.086
17072W        W88655  11.283   8.884   0.859
17073W        W88656  25.544  14.323  14.898
17074W        W88657  24.021  18.550   2.355
17075W        W88658  18.283  22.824   9.803
17076W        W88659  14.750  11.253   1.851
17077W        W88660  36.814  41.024   1.801
17078W        W88661  42.443   2.040   1.920
17079W        W88662  10.736  32.014  13.472
17080W        W88663  14.182  39.238   4.190
17081W        W88664  36.244  18.493   3.306
17082W        W88665  32.691  33.957  12.411
17083W        W88666   1.903  24.219   0.355
17084W        W88667  20.132  35.891   1.765
17085W        W88668  20.568  16.545   2.885
17086W        W88669   6.224  41.101   1.820
17087W        W88670  14.232  26.715   0.893
17088W        W88671   7.175  13.687   0.415
17089W        W88672   2.931  25.867  14.330
17090W        W88673   2.756  32.332   3.813
17091W        W88674  18.390   6.290  11.146
17092W        W88675   9.326  41.062   4.126
17093W        W88676  34.950   9.488  12.122
17094W        W88677   2.203   6.275  12.894
17095W        W88678  27.469  19.319  13.350
17096W        W88679  22.611  19.065  14.524
17097W        W88680  36.526   0.203   3.738
17098W        W88681   7.637  38.551   3.609
17099W        W88682   6.457   2.955   2.477
17100W        W88683  14.809  18.087  14.872
17101W        W88684   5.293  35.436   0.262
17102W        W88685  44.791  41.480  14.491
17103W        W88686  19.118  10.684   0.245
17104W        W88687   4.602  28.952   4.512
17105W        W88688  14.893  36.069   4.498
17106W        W88689  13.938  39.744   4.271
17107W        W88690  20.349   8.207   2.293
17108W        W88691  25.160   2.867   4.089
17109W        W88692   4.435   3.644   1.013
17110W        W88693  32.186  18.701  10.346
17111W        W88694  17.823  29.544  14.213
17112W        W88695   3.771   6.405  11.212
17113W        W88696  31.609  43.442  12.658
17114W        W88697  25.909  38.519  11.502
17115W        W88698  43.440  21.286  12.834
17116W        W88699   9.016  10.301   0.955
17117W        W88700  10.074  22.521  11.118
17118W        W88701   6.845  40.091   1.493
17119W        W88702  25.970  19.505  14.525
17120W        W88703  42.756  34.114  12.851
17121W        W88704  23.345   7.765   5.005
17122W        W88705  41.946  28.242  14.059
17123W        W88706  11.608   8.757  13.578
17124W        W88707   7.739  20.303  12.004
17125W        W88708  34.312   2.892  12.956
17126W        W88709  29.416  11.776   0.361
17127W        W88710   2.916  25.681   3.831
17128W        W88711  15.853  12.809  11.938
17129W        W88712   7.872  15.556   2.306
17130W        W88713  31.890  36.995  11.554
17131W        W88714   7.878  20.198   2.146
17132W        W88715  39.752  29.498  12.043
17133W        W88716  12.788   2.862   0.986
17134W        W88717  17.166  28.413  12.797
17135W        W88718   6.038  40.069  12.426
17136W        W88719  23.145  18.004   1.370
17137W        W88720  38.105  35.475  11.728
17138W        W88721  24.213  19.653  14.247
17139W        W88722  15.816  40.522   1.800
17140W        W88723   5.539  20.194  12.954
17141W        W88724  37.460   1.969  13.072
17142W        W88725  19.298  10.476  10.558
17143W        W88726  33.502   3.374   4.371
17144W        W88727  35.162  32.893  13.437
17145W        W88728  44.346  21.431   1.240
17146W        W88729  34.368   3.883   2.389
17147W        W88730  42.874  20.931  12.024
17148W        W88731  20.036  44.600  11.171
17149W        W88732  20.178  34.043  10.705
17150W        W88733  28.702   0.006   0.956
17151W        W88734   8.812  17.802   2.453
17152W        W88735   4.537  22.836   0.928
17153W        W88736  39.476  20.672   2.574
17154W        W88737  32.962  22.301  12.931
17155W        W88738  29.705  15.220   1.392
17156W        W88739  15.878   3.315   0.623
17157W        W88740  41.522  20.075   2.343
17158W        W88741   1.114   0.964   2.888
17159W        W88742  29.151  44.884  10.864
17160W        W88743   6.428  14.610  10.616
17161W        W88744  44.442  32.362   2.009
17162W        W88745  41.578   5.935   1.613
17163W        W88746   9.418  33.707   1.861
17164W        W88747  15.725  41.981  14.267
17165W        W88748  13.873  43.391  10.978
17166W        W88749  19.667  43.022   0.449
17167W        W88750  25.037  27.579   1.716
17168W        W88751  43.208  37.958   0.269
17169W        W88752   9.013  34.720  10.042
17170W        W88753   0.342  42.495   1.879
17171W        W88754  35.910   8.517   4.032
17172W        W88755  40.080  34.862   4.203
17173W        W88756  41.312  38.450  14.208
17174W        W88757   8.755   9.955   4.104
17175W        W88758  27.251  12.932   2.931
17176W        W88759   2.401  15.553  12.339
17177W        W88760  24.355  31.187  12.924
17178W        W88761  26.629  17.542  10.718
17179W        W88762  30.510  12.661   4.298
17180W        W88763  11.246  19.400   1.895
17181W        W88764  33.421  12.424  13.092
17182W        W88765  43.506  13.618   2.402
17183W        W88766  12.789  13.243  11.753
17184W        W88767   0.229   3.235  11.941
17185W        W88768  17.860  24.576   3.793
17186W        W88769   7.804   2.140  13.588
17187W        W88770  27.988  31.753   4.554
17188W        W88771  43.057  30.819   0.329
17189W        W88772  10.652  36.028   4.649
17190W        W88773  22.153  12.597   2.308
17191W        W88774  36.690   0.706   4.538
17192W        W88775  17.213  37.153  10.639
17193W        W88776  28.581  23.463   2.782
17194W        W88777  12.803  26.445   4.188
17195W        W88778  19.626   2.843  13.806
17196W        W88779  15.231  43.455   4.055
17197W        W88780  16.902  10.661  13.534
17198W        W88781  37.472  24.483  10.685
17199W        W88782   0.137   9.478   2.648
17200W        W88783  20.854  26.329   2.098
17201W        W88784  27.923  36.194   0.852
17202W        W88785  44.323  43.061   5.317
17203W        W88786  33.221  38.595   4.377
17204W        W88787  44.580   8.247  14.930
17205W        W88788  44.262   5.217  11.895
17206W        W88789  44.061  41.363  13.323
17207W        W88790  34.178  23.260  14.036
17208W        W88791  24.161  41.528   1.909
17209W        W88792  14.516  31.222   3.836
17210W        W88793  17.523   3.444  13.760
17211W        W88794  28.930  41.961  10.746
17212W        W88795  18.514  20.077  13.800
17213W        W88796  19.034  20.216   0.495
17214W        W88797  33.495   0.286   3.019
17215W        W88798  31.144  11.659  12.524
17216W        W88799  11.643  27.407   4.794
17217W        W88800  10.220   3.748  10.837
17218W        W88801  41.324   6.298  10.908
17219W        W88802   9.154   0.057   3.326
17220W        W88803  35.100  16.548   2.222
17221W        W88804   4.397   5.888  12.308
17222W        W88805  14.334  25.203  12.390
17223W        W88806   4.806  33.536  12.437
17224W        W88807  43.041   6.385  13.136
17225W        W88808  34.920  23.204   4.892
17226W        W88809  37.825  21.421   1.201
17227W        W88810  42.877  24.317  13.037
17228W        W88811  17.668  12.449  11.113
17229W        W88812  44.301  26.547   3.776
17230W        W88813  34.852  35.466  13.943
17231W        W88814  12.831  36.891  14.865
17232W        W88815  35.672  36.085  12.952
17233W        W88816  41.653  14.098  12.201
17234W        W88817   5.005   1.504  12.068
17235W        W88818  42.572   0.892  14.266
17236W        W88819  41.837  11.337   4.627
17237W        W88820  40.248   1.383  14.016
17238W        W88821  25.103  38.577   2.201
17239W        W88822  15.741  10.105  10.339
17240W        W88823  44.110   4.665   0.685
17241W        W88824   8.389  22.387   0.546
17242W        W88825   2.767   6.185   4.312
17243W        W88826   0.916  16.020  14.387
17244W        W88827  38.530  22.461   0.955
17245W        W88828   1.674  27.537  11.223
17246W        W88829  40.768  35.937   4.821
17247W        W88830  44.960  10.664   4.434
17248W        W88831  22.690  41.096  13.448
17249W        W88832  10.604   5.417  13.304
17250W        W88833  20.027  41.358  13.458
17251W        W88834  36.778  21.591  11.252
17252W        W88835  12.711  18.472  10.661
17253W        W88836  22.777   7.123   2.175
17254W        W88837  12.880  12.672   2.212
17255W        W88838  27.597   4.230  11.465
17256W        W88839  16.797  17.202  14.335
17257W        W88840  26.827   2.353  13.714
17258W        W88841  18.170  11.406   0.263
17259W        W88842  32.319  40.891  12.852
17260W        W88843  39.348  25.924  10.716
17261W        W88844  14.444   2.652   1.472
17262W        W88845  13.783   6.563   1.955
17263W        W88846  18.546   4.160   3.279
17264W        W88847  34.433  10.898   1.360
17265W        W88848  16.332  23.562   3.112
17266W        W88849  21.106  43.185  14.594
17267W        W88850  10.307   9.925  13.596
17268W        W88851  20.123  10.503  10.561
17269W        W88852  25.407  33.421  12.973
17270W        W88853  25.270  23.531  10.071
17271W        W88854  14.468   6.444   0.992
17272W        W88855  44.917  40.781   0.741
17273W        W88856   3.131   7.150   3.530
17274W        W88857  41.546  33.631   4.024
17275W        W88858  41.897  32.865  13.517
17276W        W88859  37.938  16.521  13.500
17277W        W88860  42.439   6.788  12.391
17278W        W88861  10.301  40.701  14.872
17279W        W88862  32.469  15.814   0.901
17280W        W88863  12.270   5.233   1.275
17281W        W88864   2.346  21.301   1.902
17282W        W88865  43.757  41.443  14.278
17283W        W88866  37.917  13.519  12.484
17284W        W88867   3.974   3.902   4.201
17285W        W88868   0.813  33.466  11.580
17286W        W88869  26.314   1.947  12.886
17287W        W88870  34.171  29.035  11.088
17288W        W88871   4.922  33.380   3.643
17289W        W88872  37.498  43.580  11.165
17290W        W88873   9.331   6.902   2.659
17291W        W88874  22.439  12.403  14.468
17292W        W88875  30.180  18.322   1.324
17293W        W88876  28.612  39.519  13.287
17294W        W88877  18.079  35.466  11.078
17295W        W88878  21.514   4.873   0.477
17296W        W88879  29.069  40.805  11.168
17297W        W88880  40.872  27.501   4.649
17298W        W88881  15.065  16.324   0.982
17299W        W88882  22.940  32.704  13.051
17300W        W88883  23.265  12.835   3.676
17301W        W88884  41.391  28.044   1.426
17302W        W88885  21.109  15.181   3.893
17303W        W88886  35.867   8.445  12.118
17304W        W88887  21.424  38.530   1.401
17305W        W88888   5.066   2.399  13.517
17306W        W88889   9.645  14.249   0.310
17307W        W88890  27.044  17.783  11.715
17308W        W88891  17.107  32.699   4.340
17309W        W88892  12.789  26.018   3.281
17310W        W88893  43.384  22.709   4.379
17311W        W88894  12.747  41.493  12.196
17312W        W88895  19.339  27.538   0.330
17313W        W88896  25.664   8.022  14.852
17314W        W88897   0.267  28.182  12.585
17315W        W88898  17.055  18.757   1.753
17316W        W88899  33.207  39.007   3.619
17317W        W88900  22.407  17.298   9.761
17318W        W88901  32.329   9.303  10.544
17319W        W88902  30.924   5.668   2.781
17320W        W88903  35.607  37.691  11.539
17321W        W88904   7.287  43.375  13.373
17322W        W88905  43.023  20.083   4.574
17323W        W88906  40.275  36.461  11.625
17324W        W88907  31.992  10.368  14.890
17325W        W88908  16.645   0.948   1.901
17326W        W88909   0.236   3.273   0.337
17327W        W88910  44.077   3.412  11.238
17328W        W88911  42.432  19.478   2.178
17329W        W88912  11.363  16.583  14.417
17330W        W88913   4.397  17.060  11.100
17331W        W88914   1.306  38.397  10.872
17332W        W88915  31.517   2.278   1.669
17333W        W88916  43.336  27.953   9.608
17334W        W88917  12.781  39.902   2.693
17335W        W88918  18.783  26.634  11.940
17336W        W88919  43.804  32.858  12.003
17337W        W88920  21.723  38.243   3.649
17338W        W88921  14.445   6.183  11.114
17339W        W88922  38.108  28.732  14.223
17340W        W88923   5.690   0.095  11.193
17341W        W88924  44.287  30.113   0.710
17342W        W88925  43.575  20.129   0.848
17343W        W88926  30.078  27.713   0.298
17344W        W88927   3.292  33.977   2.736
17345W        W88928  26.260  29.113   1.796
17346W        W88929   7.004  41.511   4.646
17347W        W88930  18.583  35.708  13.821
17348W        W88931   5.844  34.682  10.643
17349W        W88932  41.869  14.791  14.301
17350W        W88933   9.693  27.711  13.928
17351W        W88934  14.887  24.225   0.384
17352W        W88935   5.819  14.087  14.946
17353W        W88936   1.198  23.292  12.396
17354W        W88937  28.439  23.146   0.787
17355W        W88938   9.411  27.422  11.186
17356W        W88939  18.966  28.601   4.065
17357W        W88940   0.754  35.196  12.646
17358W        W88941  40.953  23.318   2.701
17359W        W88942  23.109  13.391  11.068
17360W        W88943  19.568  10.030   1.603
17361W        W88944  25.240  22.476  14.392
17362W        W88945   8.347  27.461  13.888
17363W        W88946   8.404  16.657  14.389
17364W        W88947  43.552  24.715  14.422
17365W        W88948  39.405  35.831   1.386
17366W        W88949   2.592  11.742  13.488
17367W        W88950  12.725  44.458  12.574
17368W        W88951  22.006  27.939  13.564
17369W        W88952   6.961  22.098  12.508
17370W        W88953  14.429  32.987  10.885
17371W        W88954  33.295  12.923  12.977
17372W        W88955   4.721   3.169   3.709
17373W        W88956  26.142  18.952  13.499
17374W        W88957  41.069  16.520   1.432
17375W        W88958  29.530  25.799  10.651
17376W        W88959  34.448  33.490   2.801
17377W        W88960  17.665  26.740   4.293
17378W        W88961  31.493  34.128  12.482
17379W        W88962  25.057   0.243   2.457
17380W        W88963  34.952  19.606   2.308
17381W        W88964   3.772   2.363  14.708
17382W        W88965   2.557  33.418  12.585
17383W        W88966   9.295  12.563   0.751
17384W        W88967  17.020  37.590  13.717
17385W        W88968  15.477  31.345  13.412
17386W        W88969  15.694  13.825  13.488
17387W        W88970  33.122   0.244   0.216
17388W        W88971  32.848  40.826   4.259
17389W        W88972   6.253   6.737   2.825
17390W        W88973  32.867  24.098   4.791
17391W        W88974  10.449  30.699  12.061
17392W        W88975  30.220   4.949  12.057
17393W        W88976   1.790   8.303   0.233
17394W        W88977  44.559  21.875   2.986
17395W        W88978  36.282  12.945  12.945
17396W        W88979   6.213  32.862  11.238
17397W        W88980  30.236  15.503   4.221
17398W        W88981  18.489  20.632   2.206
17399W        W88982  20.526  21.373   0.604
17400W        W88983  28.017   7.643  12.028
17401W        W88984   8.735  32.600  10.999
17402W        W88985  21.760  37.599   1.829
17403W        W88986  16.755   4.284  11.555
17404W        W88987  35.166  16.497   3.811
17405W        W88988  24.573   9.003  10.843
17406W        W88989  41.877  27.056   3.582
17407W        W88990  12.234  33.574   2.810
17408W        W88991  42.825   8.291   0.362
17409W        W88992  29.187  35.954  11.060
17410W        W88993  14.864   3.199   0.756
17411W        W88994  30.795   6.426   0.594
17412W        W88995  38.325  33.890  10.388
17413W        W88996  32.374  22.965  14.963
17414W        W88997   1.300  29.062   1.801
17415W        W88998  42.909   7.895  14.067
17416W        W88999   0.689  25.503  11.643
17417W        W89000  11.301  23.075  12.682
17418W        W89001  21.928  13.166   4.573
17419W        W89002   7.153   3.222   3.538
17420W        W89003  20.793   7.210  12.562
17421W        W89004   2.738  32.580  10.696
17422W        W89005  43.553   3.285   1.446
17423W        W89006  28.222   9.636  12.432
17424W        W89007  14.641  28.514  11.945
17425W        W89008  41.514  16.742   3.776
17426W        W89009  16.044  26.060   0.054
17427W        W89010  25.238  21.774   2.632
17428W        W89011  27.983  11.940  13.120
17429W        W89012  34.429   4.669  14.933
17430W        W89013  34.467  24.989   4.339
17431W        W89014  33.847  12.129  14.018
17432W        W89015  44.797  23.626  10.523
17433W        W89016   7.103  23.283   1.404
17434W        W89017  38.041  22.244   3.214
17435W        W89018  42.440   2.088   0.878
17436W        W89019   0.050  43.536   1.530
17437W        W89020  44.984  28.630   2.884
17438W        W89021  40.385   6.882   2.679
17439W        W89022  25.883  42.385   3.262
17440W        W89023  15.233  43.711  14.171
17441W        W89024  32.749  11.379   1.842
17442W        W89025  11.456  24.701   4.145
17443W        W89026   4.537  29.724   1.632
17444W        W89027  36.345  32.968  14.316
17445W        W89028   5.299  20.635  13.735
17446W        W89029  15.077   1.846  11.142
17447W        W89030  10.330  18.273  13.635
17448W        W89031  41.978  35.928   3.039
17449W        W89032  11.714  43.440   1.861
17450W        W89033  44.070  15.305  12.471
17451W        W89034   7.091  10.171  11.893
17452W        W89035  28.362  33.191  13.905
17453W        W89036  38.312  28.691  11.570
17454W        W89037  27.710  20.037   4.042
17455W        W89038  25.971  12.343  11.920
17456W        W89039   4.797   9.625  14.889
17457W        W89040  28.700  16.777  10.965
17458W        W89041  37.626   4.739   0.235
17459W        W89042  18.569  11.780  13.943
17460W        W89043  23.109  10.773   3.932
17461W        W89044  10.834  24.714  14.035
17462W        W89045  23.058   1.950   0.633
17463W        W89046  19.598  34.873  12.472
17464W        W89047  21.704  36.095  14.494
17465W        W89048  38.046   5.864  12.048
17466W        W89049  32.536  40.984   1.992
17467W        W89050  28.003   0.694   2.821
17468W        W89051  35.579   1.483   1.290
17469W        W89052  18.015   0.256  14.774
17470W        W89053   2.574  15.621   1.762
17471W        W89054   5.871  44.483   0.756
17472W        W89055  39.385  21.984  14.926
17473W        W89056  37.357  34.065  13.578
17474W        W89057  10.184  30.965  12.412
17475W        W89058  16.642  24.747   1.724
17476W        W89059   3.190  37.894  13.873
17477W        W89060  38.974  19.047   4.508
17478W        W89061   5.461  28.886   0.532
17479W        W89062  31.702  14.844  13.516
17480W        W89063   3.739   9.430  14.242
17481W        W89064  20.912  10.884  13.600
17482W        W89065  35.862  21.667  14.894
17483W        W89066  15.155  15.700  12.454
17484W        W89067  24.064  35.185   1.172
17485W        W89068  21.015  40.438   2.811
17486W        W89069  19.694  13.498   3.732
17487W        W89070  31.033  25.581   2.884
17488W        W89071  38.410   8.796  12.603
17489W        W89072  15.871   0.443  10.694
17490W        W89073  39.814  13.833   1.929
17491W        W89074  10.614  40.583   1.818
17492W        W89075  32.485   7.614  13.987
17493W        W89076  30.017  18.213   2.808
17494W        W89077   8.549   1.003  11.528
17495W        W89078  29.477  38.820  14.383
17496W        W89079   8.729  24.879   0.363
17497W        W89080  16.828   4.754   4.683
17498W        W89081  22.020  28.107   3.197
17499W        W89082  22.793  30.288   4.403
17500W        W89083   9.727  27.250   2.284
17501W        W89084  14.278   7.005   4.486
17502W        W89085  23.148   5.126   4.554
17503W        W89086  10.836  17.532  13.885
17504W        W89087  25.452  10.301  12.167
17505W        W89088  25.245  24.049   9.991
17506W        W89089   6.431  27.889   3.737
17507W        W89090  14.750  24.493  12.658
17508W        W89091   2.168  14.927  13.015
17509W        W89092  31.568  15.222   2.498
17510W        W89093   7.637  20.208  11.503
17511W        W89094  38.904  39.346  10.338
17512W        W89095  32.341   9.505  13.401
17513W        W89096  25.994   8.669   3.756
17514W        W89097   1.861  39.131  11.630
17515W        W89098  18.148  32.126  13.024
17516W        W89099  10.853   3.093  12.985
17517W        W89100   7.273  15.527   2.836
17518W        W89101  29.648  26.402   1.406
17519W        W89102  44.791  44.761  13.943
17520W        W89103  23.250  20.039   3.647
17521W        W89104  42.012  43.951  13.968
17522W        W89105  13.822  22.930  14.965
17523W        W89106  38.106   0.346  11.322
17524W        W89107  23.259  34.906   4.689
17525W        W89108   8.833  32.635  10.508
17526W        W89109  36.613   9.531   3.302
17527W        W89110  29.234  13.670  14.537
17528W        W89111  19.280  25.659   5.012
17529W        W89112  32.926  26.430   4.824
17530W        W89113  40.839  40.567  12.310
17531W        W89114  42.079  13.257   3.697
17532W        W89115  29.595  24.895   3.119
17533W        W89116  10.080  28.053  14.947
17534W        W89117   0.396  44.276  14.793
17535W        W89118  24.493  20.778   2.345
17536W        W89119  36.079  23.778   4.272
17537W        W89120  27.633  43.356   2.667
17538W        W89121  32.097   1.569  14.068
17539W        W89122  21.542   8.367   2.687
17540W        W89123  17.000  15.121   2.796
17541W        W89124  29.871  39.751  14.451
17542W        W89125  41.311  34.887  13.168
17543W        W89126  35.016   0.713   1.399
17544W        W89127  11.103  29.157  14.452
17545W        W89128  31.796  44.264   2.757
17546W        W89129  22.238  31.437   3.723
17547W        W89130   2.475  22.625  14.395
17548W        W89131  34.544   7.691   0.767
17549W        W89132  38.972   8.409  13.376
17550W        W89133   5.962  35.555   3.438
17551W        W89134  22.670   3.384   4.594
17552W        W89135  36.548  14.349  12.826
17553W        W89136  20.153   9.933  14.718
17554W        W89137  16.380  13.068  14.325
17555W        W89138   6.595  32.067   2.211
17556W        W89139   0.658  27.631   0.655
17557W        W89140  20.034  23.349   4.565
17558W        W89141  14.240  15.102  11.715
17559W        W89142  14.766  28.088   4.912
17560W        W89143  18.787  42.434   4.938
17561W        W89144  41.519  35.456   2.655
17562W        W89145  28.559  10.846   3.616
17563W        W89146   6.360  24.963   0.174
17564W        W89147   1.272  40.810   4.646
17565W        W89148  42.401  33.865  12.426
17566W        W89149   7.296  37.387  12.136
17567W        W89150   9.926  11.281  13.728
17568W        W89151  19.043  28.383   3.604
17569W        W89152   5.160   1.987  12.599
17570W        W89153   4.708  31.171  10.724
17571W        W89154   6.713  32.120   3.184
17572W        W89155  41.690  18.828  14.300
17573W        W89156  24.399  23.392  13.933
17574W        W89157  16.752  27.290  11.168
17575W        W89158  32.572  16.644   1.250
17576W        W89159  11.129   0.746   3.873
17577W        W89160  15.639  19.040   2.824
17578W        W89161  34.566  33.953   1.592
17579W        W89162  23.442  36.346  12.371
17580W        W89163  17.773  14.640  14.844
17581W        W89164  14.776   0.176   1.873
17582W        W89165  28.973  34.079  12.779
17583W        W89166  34.377  23.109  14.469
17584W        W89167  32.316  29.472   0.789
17585W        W89168  17.262  36.044  10.189
17586W        W89169  36.472  14.613   1.882
17587W        W89170  22.628   2.497  13.378
17588W        W89171   8.801   4.587   3.737
17589W        W89172  34.386  36.019  12.586
17590W        W89173  19.642  12.812  11.187
17591W        W89174  11.633  23.951   0.790
17592W        W89175  13.188   8.188   2.287
17593W        W89176  12.103   3.752   4.622
17594W        W89177  13.697  37.471   9.874
17595W        W89178  20.147  42.801  11.201
17596W        W89179  44.267  14.636   2.750
17597W        W89180  23.495  43.040  13.320
17598W        W89181  15.276  16.639   4.675
17599W        W89182  41.714  26.005  14.891
17600W        W89183  12.285  30.138   1.445
17601W        W89184  23.815   1.363  13.569
17602W        W89185  27.966  37.067   2.600
17603W        W89186   4.626  23.539   3.596
17604W        W89187  40.747  14.220  14.604
17605W        W89188   6.466  35.060  11.568
17606W        W89189  31.425   2.341  11.941
17607W        W89190  14.797  31.959  13.573
17608W        W89191   2.925   6.767   2.675
17609W        W89192  28.426   8.929  13.927
17610W        W89193  24.510  22.004  14.780
17611W        W89194  36.028  33.174  12.997
17612W        W89195  37.637  30.430  13.531
17613W        W89196  42.396  22.136   4.794
17614W        W89197  17.098  18.289  11.121
17615W        W89198  22.046  12.179   4.529
17616W        W89199  26.540  26.638  10.758
17617W        W89200  44.735   1.906  12.079
17618W        W89201  41.355   0.022   3.797
17619W        W89202  37.393  14.506   4.238
17620W        W89203  21.589  19.994   0.448
17621W        W89204   5.373  29.668  12.389
17622W        W89205  13.985   4.205   2.770
17623W        W89206  39.961  12.347   4.584
17624W        W89207   9.672  20.329   4.500
17625W        W89208  39.923  28.622  11.231
17626W        W89209  27.943   6.137  13.841
17627W        W89210  23.889  37.464  11.051
17628W        W89211  22.142  18.356  13.619
17629W        W89212  40.131   0.487   1.233
17630W        W89213   4.881   9.845   3.191
17631W        W89214  38.823   8.900  10.700
17632W        W89215  22.561  29.171  12.013
17633W        W89216   1.374  14.330   1.525
17634W        W89217  26.909  33.133  13.932
17635W        W89218  27.221  17.350  11.475
17636W        W89219  12.231  30.946  12.548
17637W        W89220  26.083  16.786   2.808
17638W        W89221  26.472  43.750  14.276
17639W        W89222  37.418  22.504  10.730
17640W        W89223  43.743   4.224   0.865
17641W        W89224  20.487  30.089   1.229
17642W        W89225  29.029   8.909   3.504
17643W        W89226  26.258  36.964  14.799
17644W        W89227  16.671  32.455   2.582
17645W        W89228  26.828  41.332  13.367
17646W        W89229  22.265  21.874   4.065
17647W        W89230  25.635  37.169   0.932
17648W        W89231   7.073  44.588  11.114
17649W        W89232  14.388   1.748   4.591
17650W        W89233  16.079   7.226   4.669
17651W        W89234  13.930  43.250   1.398
17652W        W89235  21.234   9.664   5.092
17653W        W89236  37.106  33.155   0.876
17654W        W89237   5.812  37.632  14.262
17655W        W89238  18.055  10.441  13.854
17656W        W89239  28.512   8.444  11.012
17657W        W89240  12.273  37.791  10.607
17658W        W89241   1.888  39.879  13.851
17659W        W89242  40.364  10.660  14.392
17660W        W89243  27.758  23.909   0.856
17661W        W89244  21.059  20.005   0.270
17662W        W89245   3.638  16.236  11.575
17663W        W89246  10.430  25.045  13.233
17664W        W89247  20.009  15.645  12.071
17665W        W89248  31.939  15.891   0.895
17666W        W89249  16.633  22.014  10.681
17667W        W89250  15.071  32.903  12.976
17668W        W89251  20.122   6.460  13.261
17669W        W89252  40.708   7.003   3.430
17670W        W89253  25.473   3.545   2.390
17671W        W89254  19.974  26.261   0.840
17672W        W89255  29.053  10.127   4.660
17673W        W89256   5.956  18.355  13.448
17674W        W89257  33.067  30.036  13.794
17675W        W89258  21.112  12.555   3.151
17676W        W89259  25.500  37.909  14.746
17677W        W89260  29.677   8.161   0.870
17678W        W89261  43.784  14.877   2.245
17679W        W89262  16.842   6.419   3.735
17680W        W89263  17.225   4.324   3.759
17681W        W89264  12.770  22.952   2.455
17682W        W89265   2.376  36.599   1.167
17683W        W89266  25.203  23.478  12.145
17684W        W89267  18.629  40.189   0.297
17685W        W89268  38.123  16.037   4.658
17686W        W89269   9.599  22.065  11.162
17687W        W89270  24.283  29.442  11.625
17688W        W89271  33.341  15.893  12.012
17689W        W89272   4.262   4.022   2.776
17690W        W89273  31.419  29.927  13.883
17691W        W89274  44.697  21.257  11.273
17692W        W89275  25.389  39.142  14.198
17693W        W89276  26.074  22.295   0.278
17694W        W89277  10.434  34.759   1.848
17695W        W89278   8.690  24.232  13.945
17696W        W89279   7.687   6.915  11.970
17697W        W89280  37.393  18.725  10.653
17698W        W89281  32.809   1.222   3.265
17699W        W89282  19.675  13.062  12.594
17700W        W89283   0.510  40.520  11.664
17701W        W89284   8.921   7.222   1.857
17702W        W89285  28.011  24.541  13.500
17703W        W89286  28.323   1.108  13.412
17704W        W89287  21.975  25.561  11.598
17705W        W89288  42.113  41.137   0.396
17706W        W89289  42.829  32.706  14.028
17707W        W89290  14.639  40.532   4.272
17708W        W89291  36.852  17.032   0.019
17709W        W89292  38.328   2.486  12.530
17710W        W89293  25.024  44.362  12.119
17711W        W89294  31.457  21.061  12.887
17712W        W89295  41.644  17.321   2.427
17713W        W89296  44.080  21.614  10.749
17714W        W89297   3.685  31.412  10.642
17715W        W89298   4.422  27.688  11.880
17716W        W89299  28.077  31.590   2.759
17717W        W89300  23.739  17.194   4.858
17718W        W89301  19.980  39.533  11.506
17719W        W89302  37.366   9.177   2.670
17720W        W89303  32.941  24.528   1.865
17721W        W89304  16.668  34.990   4.959
17722W        W89305  25.376  13.022   0.423
17723W        W89306  43.235   7.687   2.880
17724W        W89307  21.667  36.520  12.027
17725W        W89308  39.041  35.857   1.768
17726W        W89309  22.716  21.959   1.852
17727W        W89310   5.334  13.805   4.372
17728W        W89311  12.385   1.767  14.469
17729W        W89312  31.373   5.293   2.800
17730W        W89313   1.920   4.890  13.716
17731W        W89314  19.261  18.261  14.391
17732W        W89315  29.929  10.689   3.698
17733W        W89316  43.581   9.083   1.717
17734W        W89317  28.909  10.787  12.501
17735W        W89318  44.450  33.469  13.286
17736W        W89319  35.088  32.849   4.413
17737W        W89320  42.888  22.105   0.368
17738W        W89321  26.438  43.347   0.693
17739W        W89322  12.301  12.550  13.416
17740W        W89323  24.911   8.945  12.108
17741W        W89324   7.213  30.017   3.680
17742W        W89325  31.347  34.982   0.069
17743W        W89326  34.977  43.010  10.660
17744W        W89327  11.709   5.664  13.485
17745W        W89328  23.426  36.410  12.870
17746W        W89329   6.262  18.990  14.332
17747W        W89330   2.343  37.817   1.908
17748W        W89331  15.813  36.177  10.727
17749W        W89332   7.320  11.254   2.198
17750W        W89333  40.150   3.885  13.025
17751W        W89334  38.893   3.934   2.163
17752W        W89335  17.723  42.303  14.426
17753W        W89336  42.616  44.980  14.382
17754W        W89337  41.825  11.582   5.114
17755W        W89338  38.671  44.520   5.030
17756W        W89339  43.468   0.243   4.079
17757W        W89340  12.221  18.402   3.651
17758W        W89341  26.172  25.082  12.395
17759W        W89342  12.598  12.856  14.450
17760W        W89343   7.850  23.539   2.658
17761W        W89344  32.541   8.110  14.038
17762W        W89345   3.980   0.061   0.315
17763W        W89346  13.221  12.559   4.292
17764W        W89347  23.467  30.900   3.333
17765W        W89348  16.814  42.210  12.483
17766W        W89349  36.970  35.830  14.377
17767W        W89350   1.318  14.539  11.086
17768W        W89351  31.656   3.743   1.838
17769W        W89352  17.440  38.611   1.455
17770W        W89353   8.122  36.432   4.167
17771W        W89354  20.581  20.127  12.667
17772W        W89355  24.977  17.406   3.192
17773W        W89356  34.640  33.012  13.336
17774W        W89357   1.930  40.624  12.466
17775W        W89358   5.097  42.858   2.883
17776W        W89359  24.085   2.222  13.987
17777W        W89360   5.606   9.236   2.705
17778W        W89361  24.926   7.290   0.784
17779W        W89362   7.232  16.175   1.391
17780W        W89363  32.899  13.793   3.624
17781W        W89364  11.333   7.926  10.646
17782W        W89365  32.489  16.400  11.241
17783W        W89366   6.547  36.857  12.086
17784W        W89367   8.646  19.007   4.314
17785W        W89368  16.362  13.097   2.211
17786W        W89369  38.856  28.264   4.067
17787W        W89370  31.969  26.966   4.080
17788W        W89371  10.707  40.285  14.159
17789W        W89372  22.276   8.312   2.462
17790W        W89373  21.574  41.290   0.308
17791W        W89374   9.778  12.574  13.856
17792W        W89375  28.940   1.821   3.663
17793W        W89376  10.805  44.002  14.951
17794W        W89377   6.702  18.989  12.147
17795W        W89378   1.644  21.987  12.946
17796W        W89379  36.838  34.869   4.711
17797W        W89380  37.306  27.532   2.197
17798W        W89381  43.461  16.316  11.435
17799W        W89382  41.856  26.082  12.968
17800W        W89383  22.564  24.856   2.075
17801W        W89384  43.684  36.023   0.310
17802W        W89385  27.490  15.257   4.488
17803W        W89386  28.118  28.980  10.654
17804W        W89387  23.920  24.717   2.085
17805W        W89388  18.051  26.691  12.021
17806W        W89389  30.712   5.162  12.556
17807W        W89390  18.389  20.813   1.695
17808W        W89391  26.999  28.235   4.186
17809W        W89392  44.330   6.801   2.602
17810W        W89393  37.011  36.198  13.273
17811W        W89394  13.219  23.477  10.994
17812W        W89395  41.818  10.536   1.404
17813W        W89396  44.019  39.881  11.235
17814W        W89397  20.338   7.577   1.961
17815W        W89398   6.903  12.326  11.105
17816W        W89399  26.435  19.752  11.458
17817W        W89400   3.993  35.122  12.815
17818W        W89401  34.106  14.933  11.564
17819W        W89402  44.583  39.400   0.952
17820W        W89403  36.043   5.868  12.147
17821W        W89404  43.481  37.527   1.983
17822W        W89405  16.840  44.574   1.504
17823W        W89406  42.561  18.636  14.399
17824W        W89407  37.388   2.238   2.773
17825W        W89408  17.129   1.196   1.928
17826W        W89409  42.671   6.424   3.584
17827W        W89410   5.041   6.524   1.850
17828W        W89411  11.819  19.363   4.814
17829W        W89412   9.315  44.818   0.874
17830W        W89413  29.522  12.167   0.004
17831W        W89414  15.868   4.701  11.841
17832W        W89415  27.487  29.118  10.338
17833W        W89416  17.051   5.342   0.358
17834W        W89417  20.369  34.551  10.652
17835W        W89418  31.731  40.480   0.382
17836W        W89419  11.555  15.536  14.541
17837W        W89420  18.819  42.917   0.772
17838W        W89421   3.791  41.599  13.355
17839W        W89422   0.901  40.368   4.112
17840W        W89423   0.553  18.317  14.945
17841W        W89424  28.519  29.063   3.393
17842W        W89425  16.268  38.946  14.634
17843W        W89426  18.043  32.449  12.628
17844W        W89427  43.290  11.625   4.560
17845W        W89428  14.295   7.624   2.869
17846W        W89429  17.708   9.159   0.704
17847W        W89430  42.035   7.263   2.844
17848W        W89431  10.919   4.269   4.680
17849W        W89432  34.668  38.067  12.374
17850W        W89433   3.216  30.340   2.162
17851W        W89434  24.220  31.211  13.419
17852W        W89435   6.287  30.059   1.714
17853W        W89436  19.514   4.361  11.360
17854W        W89437   2.540   1.596  11.790
17855W        W89438   0.335   3.748   3.537
17856W        W89439  38.492  30.735  13.812
17857W        W89440  14.785  21.728  14.460
17858W        W89441   0.977  14.047  10.825
17859W        W89442  25.956  31.155  11.266
17860W        W89443  12.680  22.603  14.515
17861W        W89444  22.924   7.893   0.975
17862W        W89445  10.074  28.869  12.476
17863W        W89446  19.564  38.732  13.984
17864W        W89447  31.466  43.501  14.168
17865W        W89448  37.156  26.929   4.809
17866W        W89449   7.904  44.178   4.641
17867W        W89450  24.622   7.514   3.309
17868W        W89451  36.134  37.173   1.167
17869W        W89452   5.372  36.808   3.654
17870W        W89453   5.147   8.780   1.394
17871W        W89454  12.387  43.404  10.635
17872W        W89455  34.058   3.823  14.850
17873W        W89456  40.427  25.142  10.318
17874W        W89457  26.559  13.312   3.703
17875W        W89458  20.981  35.684  13.358
17876W        W89459  19.193  18.129   1.346
17877W        W89460  18.614  35.590   4.146
17878W        W89461  19.234  15.160   4.634
17879W        W89462  13.626  36.837  10.128
17880W        W89463  28.885  35.957   0.856
17881W        W89464   7.931  44.940  12.561
17882W        W89465  42.774   2.337   4.134
17883W        W89466  28.586  32.506   1.412
17884W        W89467  36.050  28.542  14.003
17885W        W89468  37.379  22.182  13.169
17886W        W89469  26.659  38.129   3.295
17887W        W89470  25.146  39.973   2.252
17888W        W89471  40.140  15.246   4.199
17889W        W89472  43.810  25.562  13.047
17890W        W89473  31.854  10.732   1.702
17891W        W89474  22.074  36.841  14.489
17892W        W89475  13.309  43.271  13.906
17893W        W89476   9.201  15.217   0.509
17894W        W89477  14.373  36.680   1.677
17895W        W89478  21.770   9.889   5.125
17896W        W89479  29.635  26.666   0.959
17897W        W89480  42.691   2.877   1.380
17898W        W89481   0.232  40.073   0.425
17899W        W89482  26.480  40.544  11.088
17900W        W89483  30.596  38.317   0.532
17901W        W89484  40.779  13.378   0.909
17902W        W89485  25.635  17.428   4.288
17903W        W89486   5.177  23.126  10.743
17904W        W89487  27.545  22.581  12.091
17905W        W89488  10.220  25.800   2.612
17906W        W89489  38.300  43.270  10.733
17907W        W89490  20.175   0.441   0.988
17908W        W89491  32.645  32.227  12.408
17909W        W89492  15.259  40.931  12.079
17910W        W89493  26.170   0.551   2.387
17911W        W89494  14.195  40.952   3.059
17912W        W89495  18.802   1.826  11.765
17913W        W89496  13.649  33.413   3.300
17914W        W89497  41.848  44.887  13.806
17915W        W89498  14.348  34.519   0.303
17916W        W89499  44.422  21.730  14.769
17917W        W89500  20.654  32.581  14.382
17918W        W89501  21.620  24.508  13.561
17919W        W89502   4.809  24.139  12.798
17920W        W89503  12.836  38.249  12.759
17921W        W89504  34.441  31.934  11.629
17922W        W89505  38.535   3.717   0.368
17923W        W89506  38.547  30.495  10.981
17924W        W89507  31.032  28.620   0.974
17925W        W89508   9.940  34.902   1.770
17926W        W89509  23.035  21.639  10.783
17927W        W89510  11.899  44.917  10.242
17928W        W89511  34.921  14.004   0.381
17929W        W89512   7.291  25.290  12.361
17930W        W89513  31.316  21.113   3.363
17931W        W89514  41.904  19.389   1.247
17932W        W89515  12.666  33.045  13.444
17933W        W89516   5.215  20.071  13.356
17934W        W89517   3.717  38.823   2.301
17935W        W89518  39.355   8.149  14.696
17936W        W89519  19.866  10.200  12.151
17937W        W89520   8.767   6.776   0.041
17938W        W89521  31.720  34.738   0.343
17939W        W89522  38.709  11.745   3.728
17940W        W89523  25.661  41.777  14.247
17941W        W89524  28.491   7.497  13.913
17942W        W89525  19.205   4.487   3.782
17943W        W89526   3.839  22.597   4.427
17944W        W89527  20.137  20.773  11.160
17945W        W89528   3.923  24.693   3.832
17946W        W89529  16.221   2.257  14.082
17947W        W89530  31.571  44.878  13.697
17948W        W89531  30.442   5.784   1.350
17949W        W89532   2.904  22.298  14.719
17950W        W89533  38.543  37.302   0.530
17951W        W89534  29.878  29.836   2.253
17952W        W89535  39.247  42.036   1.380
17953W        W89536  21.597  34.452   1.236
17954W        W89537  22.048  25.011  14.975
17955W        W89538   1.525  39.810  14.682
17956W        W89539  19.340   9.922   3.661
17957W        W89540  39.394   7.493   1.939
17958W        W89541  15.145  30.432  12.115
17959W        W89542   1.076  19.571  13.349
17960W        W89543  33.536  33.723  10.332
17961W        W89544  21.456  44.418  14.749
17962W        W89545  15.686  12.785  13.170
17963W        W89546  41.084  26.485   0.892
17964W        W89547  17.302  16.726  10.633
17965W        W89548  37.743  15.829   0.564
17966W        W89549  36.378  32.696   3.155
17967W        W89550  27.006  18.294   0.368
17968W        W89551  22.557  13.587   3.722
17969W        W89552  10.391   9.961  11.284
17970W        W89553   5.361   1.766   2.264
17971W        W89554  28.062  36.295  10.740
17972W        W89555  28.597  30.391  11.166
17973W        W89556   9.207  24.552  13.307
17974W        W89557  22.662  37.327   4.586
17975W        W89558   8.356  37.727  14.146
17976W        W89559  17.182  43.320   2.361
17977W        W89560   0.075  30.789  14.150
17978W        W89561  26.711  21.178  13.119
17979W        W89562   5.834  26.366   4.443
17980W        W89563  42.424  43.894  12.853
17981W        W89564   8.454   7.639  12.843
17982W        W89565   4.175  25.919  13.628
17983W        W89566  14.588  11.804  12.928
17984W        W89567  10.858  35.070   1.727
17985W        W89568  41.660  26.943  11.913
17986W        W89569  23.723   1.483   4.191
17987W        W89570   0.545   4.768   4.547
17988W        W89571  22.669   7.907  13.402
17989W        W89572  22.125  22.991   3.178
17990W        W89573   0.766  18.159   4.621
17991W        W89574  26.515  17.870   0.260
17992W        W89575  38.420  40.934   2.746
17993W        W89576  43.217  19.610   2.764
17994W        W89577  10.237   4.289   2.216
17995W        W89578  24.933   1.657   2.299
17996W        W89579   6.108  21.339   0.008
17997W        W89580  26.496   5.295   1.837
17998W        W89581  43.522  19.638  14.370
17999W        W89582  33.306  11.826  13.450
18000W        W89583   9.929  37.361  14.777
18001W        W89584   2.045   2.857   2.921
18002W        W89585  43.243  24.010  11.508
18003W        W89586  17.487  30.495  11.540
18004W        W89587  13.204  23.621  10.502
18005W        W89588   8.337   0.371  13.418
18006W        W89589  20.268  23.099   2.729
18007W        W89590   4.096  18.994   1.729
18008W        W89591  19.396  30.117   2.944
18009W        W89592  28.154  15.211   1.249
18010W        W89593  16.647  42.080   0.674
18011W        W89594  32.437  20.140   0.390
18012W        W89595  42.316   2.758   3.103
18013W        W89596   2.511  28.929   1.255
18014W        W89597  41.945  29.207  13.458
18015W        W89598  42.048  36.824   1.315
18016W        W89599   7.408   7.969   2.149
18017W        W89600  21.010  39.877  12.904
18018W        W89601  26.090  41.564  13.817
18019W        W89602  24.537  38.078  12.829
18020W        W89603  37.411   8.273   4.187
18021W        W89604  44.464  43.222   0.768
18022W        W89605   4.103  31.616   0.237
18023W        W89606   8.463   4.441  13.604
18024W        W89607  22.998  19.587  11.516
18025W        W89608  39.068   4.696  10.289
18026W        W89609  24.740  24.158  14.626
18027W        W89610  27.795  17.824  14.998
18028W        W89611   2.867  41.574  14.991
18029W        W89612  30.732   9.010   2.324
18030W        W89613  33.457   6.156  11.402
18031W        W89614  10.606  36.172   3.208
18032W        W89615  26.504  21.082  12.138
18033W        W89616  17.142   9.318   0.410
18034W        W89617  31.458  33.134  12.366
18035W        W89618   4.700  19.615  13.944
18036W        W89619  36.962   9.444   1.510
18037W        W89620  44.014  37.150  14.540
18038W        W89621   6.426  38.377   4.706
18039W        W89622  11.866   8.418  13.879
18040W        W89623  43.777  30.997   3.835
18041W        W89624  12.098  15.909   2.276
18042W        W89625  29.931  16.471  11.564
18043W        W89626  40.111  14.721   2.104
18044W        W89627  17.981  23.228  11.100
18045W        W89628  39.057   8.386  10.121
18046W        W89629   8.171  24.675  13.255
18047W        W89630   3.363  26.718   4.186
18048W        W89631  19.227  14.519   5.056
18049W        W89632  30.385   3.242  13.776
18050W        W89633  39.798  13.186   4.163
18051W        W89634   3.350  29.662   0.255
18052W        W89635  23.137  37.982   0.016
18053W        W89636  34.375  29.263  14.736
18054W        W89637  44.350  30.653  10.822
18055W        W89638  41.613  10.398  14.522
18056W        W89639  15.284  26.006   0.371
18057W        W89640  14.043  23.455  11.558
18058W        W89641  25.163  44.854   4.436
18059W        W89642   7.589  22.069   0.867
18060W        W89643  28.952  41.240  12.942
18061W        W89644  33.545  33.154   1.887
18062W        W89645  19.758   3.509  11.155
18063W        W89646   7.366  31.764   2.387
18064W        W89647  17.748  35.573   4.467
18065W        W89648  37.492   5.284  10.651
18066W        W89649   9.811  14.804   1.660
18067W        W89650  21.503  32.556  11.699
18068W        W89651  38.451  34.467  11.525
18069W        W89652  41.747  13.281  14.375
18070W        W89653   2.574  41.466   2.306
18071W        W89654  32.589  23.807  12.888
18072W        W89655  40.466  29.147   4.237
18073W        W89656  24.018  25.152   1.788
18074W        W89657  10.501  21.107   1.340
18075W        W89658  40.179  36.767   2.637
18076W        W89659   5.154  30.942  10.894
18077W        W89660  43.669  14.654   3.911
18078W        W89661  39.049  33.568   1.784
18079W        W89662  43.282   4.893  11.228
18080W        W89663  32.074  28.229  13.849
18081W        W89664  31.016  20.962  11.060
18082W        W89665   6.632  12.700  12.910
18083W        W89666  29.059  42.944  13.417
18084W        W89667   1.762   4.328   1.315
18085W        W89668  27.820   6.980   2.934
18086W        W89669  36.262  10.359   5.071
18087W        W89670   1.848   6.361   1.331
18088W        W89671  28.638  37.174  14.602
18089W        W89672  15.232  19.374   0.689
18090W        W89673  10.215  21.978  13.186
18091W        W89674  12.536  44.841  12.947
18092W        W89675  25.244  18.588  11.136
18093W        W89676   1.230  18.533  11.463
18094W        W89677  14.740  17.070   1.771
18095W        W89678  17.017  33.774  10.175
18096W        W89679  31.047  14.478  11.997
18097W        W89680  31.968   5.716  13.226
18098W        W89681  11.557  17.698   2.203
18099W        W89682   1.605  30.451   1.814
18100W        W89683  14.354  36.828  12.480
18101W        W89684   3.707   6.007   1.163
18102W        W89685   3.186  41.315   1.362
18103W        W89686  11.153  27.497  10.499
18104W        W89687   8.294  17.627   4.804
18105W        W89688  21.448  31.775   4.299
18106W        W89689   2.785  37.960   1.173
18107W        W89690   5.443   4.316   4.420
18108W        W89691  39.675  23.606  13.706
18109W        W89692  34.321  42.553  13.003
18110W        W89693  41.163  44.178   4.150
18111W        W89694  26.615   6.929   1.430
18112W        W89695   0.931   4.391   1.913
18113W        W89696  27.657  16.221   4.832
18114W        W89697  26.025   9.306   2.396
18115W        W89698  15.169  13.686  12.258
18116W        W89699   4.796  38.614  11.613
18117W        W89700   7.748  24.165  11.031
18118W        W89701  44.714  40.983   4.187
18119W        W89702  35.844  35.335   4.750
18120W        W89703  42.522  18.742   0.278
18121W        W89704  38.519  34.347  10.611
18122W        W89705   9.786   0.035  14.139
18123W        W89706  39.051   8.208  12.382
18124W        W89707  15.204  17.178  14.109
18125W        W89708  38.325  40.844   1.294
18126W        W89709   1.954  21.673   1.834
18127W        W89710  44.883  33.980   1.418
18128W        W89711  37.970  17.040   0.104
18129W        W89712  10.661  31.544   1.004
18130W        W89713  37.055   1.567   0.243
18131W        W89714  23.271  37.040  13.906
18132W        W89715   7.287  19.362   1.712
18133W        W89716  36.225  17.432  13.689
18134W        W89717  28.090  13.328   0.003
18135W        W89718  18.279  20.578  13.736
18136W        W89719  40.055  37.849  12.434
18137W        W89720   6.198  35.067  12.005
18138W        W89721  14.275   3.363  14.906
18139W        W89722  13.919  44.266   2.362
18140W        W89723  24.273  33.466   0.931
18141W        W89724  36.472   0.927  11.499
18142W        W89725  40.993  32.336   0.547
18143W        W89726   0.524  16.629  14.766
18144W        W89727   2.831  12.137  13.773
18145W        W89728   4.180  30.804   5.068
18146W        W89729  19.573  15.757  14.307
18147W        W89730  26.768  10.474  13.372
18148W        W89731  12.363  32.541   2.910
18149W        W89732   0.165   0.764   0.209
18150W        W89733  34.350  32.903  14.465
18151W        W89734  18.955   1.331  11.712
18152W        W89735  11.066  23.759  12.464
18153W        W89736  26.130  34.893   0.326
18154W        W89737  33.514   0.961   0.187
18155W        W89738  44.867  26.685  11.864
18156W        W89739   2.575  44.590   1.190
18157W        W89740  44.251   7.708  14.773
18158W        W89741  38.411   0.654   0.300
18159W        W89742  25.643  17.421   0.873
18160W        W89743  34.121  14.753   0.409
18161W        W89744  20.066  30.884   3.176
18162W        W89745  12.756   3.871   3.556
18163W        W89746  33.060  40.595  10.697
18164W        W89747   9.570  41.265   0.144
18165W        W89748  32.356  13.571   4.837
18166W        W89749  32.404  26.698   3.047
18167W        W89750  39.511  17.298   1.480
18168W        W89751  10.845  39.940   1.753
18169W        W89752  39.870   7.911  13.582
18170W        W89753  13.896  36.810  12.915
18171W        W89754  35.343  23.755   2.267
18172W        W89755  18.089  44.481  11.973
18173W        W89756   5.486  38.769  13.451
18174W        W89757   3.150   8.329  10.728
18175W        W89758   3.721  42.411  12.478
18176W        W89759  18.143  41.320  13.869
18177W        W89760  36.964  26.739   2.883
18178W        W89761  13.195   0.921   1.550
18179W        W89762  32.668  19.080  13.084
18180W        W89763  35.870  27.676  14.484
18181W        W89764  10.468  17.697  11.664
18182W        W89765   7.302  10.933   2.811
18183W        W89766  22.992   7.370   5.020
18184W        W89767  33.001   2.644  12.872
18185W        W89768   9.990   5.127   0.136
18186W        W89769  25.974  11.167  14.965
18187W        W89770  39.609   8.818  14.038
18188W        W89771   7.648   4.389   0.885
18189W        W89772  29.816  44.553   3.210
18190W        W89773  23.049  27.592  14.741
18191W        W89774  22.004  20.099  14.896
18192W        W89775   3.132  44.988   4.234
18193W        W89776  15.842   5.726   2.423
18194W        W89777  35.257  33.639  13.938
18195W        W89778   2.686  43.211  11.653
18196W        W89779   0.444  19.268   1.834
18197W        W89780  10.341  13.346   3.296
18198W        W89781  37.000  18.592  10.968
18199W        W89782   3.866  17.342   2.268
18200W        W89783  20.180  41.836  11.924
18201W        W89784   9.170   7.337   4.067
18202W        W89785  25.502  20.037  13.936
18203W        W89786   5.837  36.900   0.307
18204W        W89787  43.851  10.689  14.915
18205W        W89788  16.702   3.987  14.821
18206W        W89789  18.126   2.208  11.158
18207W        W89790   8.002  18.478   2.268
18208W        W89791  10.820  16.990  10.644
18209W        W89792  25.121  15.760   5.090
18210W        W89793  23.478  24.147  12.052
18211W        W89794  41.967  23.794   1.635
18212W        W89795  12.918  40.334  12.466
18213W        W89796  29.563  11.603  11.014
18214W        W89797   7.468  27.673  12.904
18215W        W89798  44.051  25.471   0.777
18216W        W89799  31.985  31.218   4.562
18217W        W89800  20.217  33.950  11.221
18218W        W89801   7.291  23.465  12.939
18219W        W89802  40.526  26.644  14.849
18220W        W89803   2.352  30.016   2.624
18221W        W89804   0.456  11.644  14.456
18222W        W89805  15.190  28.556   1.387
18223W        W89806  37.033  10.613  10.160
18224W        W89807  30.682  11.448  13.295
18225W        W89808  16.499  19.137   1.330
18226W        W89809   5.470   8.298   1.639
18227W        W89810  17.879  16.745   3.680
18228W        W89811  42.759   4.595   1.338
18229W        W89812  17.846   7.491  12.150
18230W        W89813   7.854  30.573  12.328
18231W        W89814  16.661   3.659   3.541
18232W        W89815   6.738  12.647  14.609
18233W        W89816  24.964  27.664   1.208
18234W        W89817  10.669  16.101  14.000
18235W        W89818  43.785   1.321  10.884
18236W        W89819  24.933  33.126  14.816
18237W        W89820  35.035  12.852   1.411
18238W        W89821   6.435   0.687  13.475
18239W        W89822  42.797   6.670  14.975
18240W        W89823  23.174   2.024   4.466
18241W        W89824  13.369   1.821  14.483
18242W        W89825  44.248  26.808   0.900
18243W        W89826  14.330  13.006   2.789
18244W        W89827  34.904  18.154   3.197
18245W        W89828  35.970  21.236   4.022
18246W        W89829  41.049  34.039  12.052
18247W        W89830   3.379  32.427  11.982
18248W        W89831  23.059  26.458  13.964
18249W        W89832  21.513  28.220   2.138
18250W        W89833  39.612   0.203  14.200
18251W        W89834  40.335  11.081   4.759
18252W        W89835  24.897  15.610  14.504
18253W        W89836  15.762  24.064   4.591
18254W        W89837  43.356  38.487   1.995
18255W        W89838  17.602  26.998  14.832
18256W        W89839   5.314  36.354   2.800
18257W        W89840  15.270   3.768  12.558
18258W        W89841  12.158  16.565   2.914
18259W        W89842  42.395  41.581  10.869
18260W        W89843  18.665  37.617   4.694
18261W        W89844  38.594  35.260   1.315
18262W        W89845  40.609  11.656  14.488
18263W        W89846  19.218  17.840   3.226
18264W        W89847   3.470  40.256   2.282
18265W        W89848   0.959  14.206  13.967
18266W        W89849   3.925   4.694   4.977
18267W        W89850  17.951  22.747  13.312
18268W        W89851   2.820  43.980   3.427
18269W        W89852   2.876  27.376  14.336
18270W        W89853  35.895  41.222  13.781
18271W        W89854  29.860   6.444   1.562
18272W        W89855   1.623   2.070  11.509
18273W        W89856  13.128  38.341  14.201
18274W        W89857   1.505  16.324  14.845
18275W        W89858  31.078  35.674  11.924
18276W        W89859  12.614   4.877   3.904
18277W        W89860  41.337  41.020  14.859
18278W        W89861  12.758  37.037   0.992
18279W        W89862  42.435   8.202   2.349
18280W        W89863  28.506  25.950   3.613
18281W        W89864   2.255  16.833  14.869
18282W        W89865   9.313  13.881  11.454
18283W        W89866  13.760  40.998   3.358
18284W        W89867   8.175   9.247   3.255
18285W        W89868  21.145  32.209   0.928
18286W        W89869  30.961  24.191  13.471
18287W        W89870  17.632  28.908   0.718
18288W        W89871  12.455   6.751  10.785
18289W        W89872  42.875   2.439  14.460
18290W        W89873   4.797  22.697  12.058
18291W        W89874   3.878   7.005  11.748
18292W        W89875   7.158   1.167   1.720
18293W        W89876  30.916  17.965   0.710
18294W        W89877  38.271   8.360   4.721
18295W        W89878  19.806  20.212   0.782
18296W        W89879  28.558  14.288   4.359
18297W        W89880  30.940  37.331   2.261
18298W        W89881  31.090  19.674  10.461
18299W        W89882  21.523  17.858   3.816
18300W        W89883   2.923  42.522  12.959
18301W        W89884  10.499  25.061   0.150
18302W        W89885  20.670  28.127  10.693
18303W        W89886  21.804   0.931   0.621
18304W        W89887  25.072  14.190   4.449
18305W        W89888  21.549  44.144   0.707
18306W        W89889  10.564  40.920  11.775
18307W        W89890  32.570  25.436  12.168
18308W        W89891  25.993   4.997  10.405
18309W        W89892  31.657  13.192  11.370
18310W        W89893  44.602  35.321   4.031
18311W        W89894  39.898   8.514   9.776
18312W        W89895  38.424  21.775   4.516
18313W        W89896  11.139  11.866   2.301
18314W        W89897  15.651   0.810   1.347
18315W        W89898  40.585  29.077   1.358
18316W        W89899  42.227   6.356   2.152
18317W        W89900  22.570  12.421   1.385
18318W        W89901  36.060  40.976  12.589
18319W        W89902  14.340   3.698   1.235
18320W        W89903  33.390   8.350   4.359
18321W        W89904  34.475  11.222   1.907
18322W        W89905  33.010  32.065  11.249
18323W        W89906   3.751  30.274   1.479
18324W        W89907  25.198  15.129   1.861
18325W        W89908  40.576   6.208   5.074
18326W        W89909  41.980  25.507  12.306
18327W        W89910  17.636   7.415  10.739
18328W        W89911  36.437  30.396   2.597
18329W        W89912  32.661  12.221   3.860
18330W        W89913  40.847  19.493   0.383
18331W        W89914  15.090  11.613  13.816
18332W        W89915  27.691  43.582  12.019
18333W        W89916   4.383  34.081   2.097
18334W        W89917  31.865  39.412  13.772
18335W        W89918  24.017  38.817  14.343
18336W        W89919  27.610  44.567  14.792
18337W        W89920  21.075  11.787   0.381
18338W        W89921  43.393  37.852  14.788
18339W        W89922  18.767  20.537  13.841
18340W        W89923  16.235  36.480  11.653
18341W        W89924  31.457   3.418  11.256
18342W        W89925  30.605  35.462   3.721
18343W        W89926  40.757  29.896  13.374
18344W        W89927  43.048  26.672   2.765
18345W        W89928  13.779  28.219  12.012
18346W        W89929  39.172  44.566   0.225
18347W        W89930  14.453  29.460   4.166
18348W        W89931  10.408  21.138   3.748
18349W        W89932  14.725   1.381  10.710
18350W        W89933  17.155  30.399  11.067
18351W        W89934   6.798  44.283  13.289
18352W        W89935  21.986  16.711   1.803
18353W        W89936   9.177  10.398  12.833
18354W        W89937  10.937  41.732  11.448
18355W        W89938  28.749   3.495   4.424
18356W        W89939  10.706  13.547  12.905
18357W        W89940  24.888  17.821   2.126
18358W        W89941  40.270  21.015  10.743
18359W        W89942  17.615  17.199   3.736
18360W        W89943  32.716  32.124   0.415
18361W        W89944  24.163  19.976  10.229
18362W        W89945  10.189  26.732   2.330
18363W        W89946  32.340  32.487   2.295
18364W        W89947  34.589  10.565   3.215
18365W        W89948  33.624  29.951  11.878
18366W        W89949  41.175  29.789   4.155
18367W        W89950   2.820  18.724  14.973
18368W        W89951  19.526  14.642   1.290
18369W        W89952  22.249  18.231   3.737
18370W        W89953   3.669  35.101   3.450
18371W        W89954   8.830  19.679   3.814
18372W        W89955  37.476  14.126  13.437
18373W        W89956  24.019   0.039   3.760
18374W        W89957  28.760   5.924  12.668
18375W        W89958  26.983   0.746  10.630
18376W        W89959  29.264  42.600  14.780
18377W        W89960  21.563  20.567   3.175
18378W        W89961   5.263   2.055   1.845
18379W        W89962  12.844  35.649   4.180
18380W        W89963  15.537  35.920   1.648
18381W        W89964  33.542  29.500   3.717
18382W        W89965  25.697  12.350  13.352
18383W        W89966  36.375   8.661   3.113
18384W        W89967  39.536  40.913   1.874
18385W        W89968   4.842  24.095  11.795
18386W        W89969  12.790  27.926  14.923
18387W        W89970  31.959  12.658   3.854
18388W        W89971  34.339   3.469   0.274
18389W        W89972  24.782  37.582   1.406
18390W        W89973  10.303  39.327  13.595
18391W        W89974   9.413  16.185   0.815
18392W        W89975   4.477  18.681   1.563
18393W        W89976  13.733  22.099   3.233
18394W        W89977  34.669  30.569   0.884
18395W        W89978  37.494  23.475  10.930
18396W        W89979  23.457  43.592   0.311
18397W        W89980   1.804  37.314   0.947
18398W        W89981  13.160  18.162   0.377
18399W        W89982  32.689  44.426  13.484
18400W        W89983  40.072  34.274  12.423
18401W        W89984   8.702  19.248   1.344
18402W        W89985   5.768  18.648   3.190
18403W        W89986  32.494  25.247  11.679
18404W        W89987  33.998  38.568  14.728
18405W        W89988  31.691   2.282  13.564
18406W        W89989  31.362  23.573   0.763
18407W        W89990   8.851  22.833   4.790
18408W        W89991  25.184  14.178  11.026
18409W        W89992   3.231  33.484  14.947
18410W        W89993  33.650  40.102  10.186
18411W        W89994  39.487  12.302  12.036
18412W        W89995  10.686  12.451   4.111
18413W        W89996  37.544  35.720  11.085
18414W        W89997  32.048  17.680  14.856
18415W        W89998  29.437   1.347   2.798
18416W        W89999  29.435  18.145   3.471
18417W        W90000  25.573   6.872  11.050
18418W        W90001  12.674   3.391  13.065
18419W        W90002  24.087  42.567  12.902
18420W        W90003  13.216  14.403  13.993
18421W        W90004  26.383  35.713   0.511
18422W        W90005  40.720  36.420   1.238
18423W        W90006  15.197  34.183   0.863
18424W        W90007  29.943  41.931   4.081
18425W        W90008  36.080  31.031  11.599
18426W        W90009  41.012  35.562  12.964
18427W        W90010  31.924   8.217  12.073
18428W        W90011   9.415   5.942  10.909
18429W        W90012  35.300  21.728  13.588
18430W        W90013  17.246  39.933   1.515
18431W        W90014   5.455  40.349  14.731
18432W        W90015   2.365  11.189  11.144
18433W        W90016  12.886   0.775   3.260
18434W        W90017  34.935   9.225  10.638
18435W        W90018  35.141  24.841   4.032
18436W        W90019   4.382  40.271  13.016
18437W        W90020  13.283  26.064   3.329
18438W        W90021  18.123  20.145  10.748
18439W        W90022  21.968  40.036   1.766
18440W        W90023  33.336  22.407   2.415
18441W        W90024  21.194  10.817   1.737
18442W        W90025  26.061   5.832   4.181
18443W        W90026  21.673  20.295   1.845
18444W        W90027  19.744  41.554  11.929
18445W        W90028  42.802  40.288  12.125
18446W        W90029  28.169  28.427  11.985
18447W        W90030  43.685  13.748  14.056
18448W        W90031  34.864   5.256   1.319
18449W        W90032  16.699  11.791  12.702
18450W        W90033   7.827  13.169   3.305
18451W        W90034   6.378  28.578  12.051
18452W        W90035  26.014  14.083   3.370
18453W        W90036   0.304  40.098  11.407
18454W        W90037   3.490  12.086  14.332
18455W        W90038   6.321  28.849   0.222
18456W        W90039  30.534  13.684   4.460
18457W        W90040  31.650  16.063  10.759
18458W        W90041  34.916   9.832   1.479
18459W        W90042  43.508  42.474   3.656
18460W        W90043  38.973   9.421  12.114
18461W        W90044   1.334  36.234   0.658
18462W        W90045   3.899  44.217   2.485
18463W        W90046  33.811   8.834  12.469
18464W        W90047  36.975  34.479  12.907
18465W        W90048  22.319  43.945  12.446
18466W        W90049  30.121   9.671  12.626
18467W        W90050  21.019  41.349  13.435
18468W        W90051  40.769  44.961   4.710
18469W        W90052  24.193  13.557  12.893
18470W        W90053  24.672  26.972  10.387
18471W        W90054   9.397   9.673   1.712
18472W        W90055  12.373  36.470  12.397
18473W        W90056  36.180  30.866   3.198
18474W        W90057   2.942  14.742   2.269
18475W        W90058   2.162   0.750   0.419
18476W        W90059  39.835  37.969  13.295
18477W        W90060  16.845  28.137  10.663
18478W        W90061  26.618  27.517  11.155
18479W        W90062  17.028  17.853  11.612
18480W        W90063  32.961  20.095  10.607
18481W        W90064  35.183  38.963  12.803
18482W        W90065   0.306  25.026  12.327
18483W        W90066   2.600  35.073  14.559
18484W        W90067  31.233  12.292  11.150
18485W        W90068  23.000  41.771   3.759
18486W        W90069  17.264   3.671   1.991
18487W        W90070   2.253  35.092  11.263
18488W        W90071   4.134  23.113  12.898
18489W        W90072   1.450  15.042   3.662
18490W        W90073   0.304  38.678  10.574
18491W        W90074  36.221   4.836  13.458
18492W        W90075  10.938  12.245  13.025
18493W        W90076  42.032  21.032  12.443
18494W        W90077  37.513   2.772   3.719
18495W        W90078  16.821   7.598  12.945
18496W        W90079   8.796  20.576  14.022
18497W        W90080  24.172  18.760  13.749
18498W        W90081  41.189  22.794  12.526
18499W        W90082  30.160  41.020   2.306
18500W        W90083  19.876  34.954  11.130
18501W        W90084  16.110  14.735   3.188
18502W        W90085  28.153  10.145  12.416
18503W        W90086  40.521  21.024   4.153
18504W        W90087   4.935  22.013  11.650
18505W        W90088  26.978  27.180   1.767
18506W        W90089  14.829  41.305   1.637
18507W        W90090  42.928  14.830   2.181
18508W        W90091  18.664  12.841   4.617
18509W        W90092  17.502   9.850  11.979
18510W        W90093  43.842  29.553  11.529
18511W        W90094  14.573  14.828   2.828
18512W        W90095  21.634   5.945  12.559
18513W        W90096  19.824  14.850   2.707
18514W        W90097   8.604  34.282   0.346
18515W        W90098  30.496   4.794  14.949
18516W        W90099   5.494  10.611  12.853
18517W        W90100  38.659   2.523  12.918
18518W        W90101  21.262  33.863  11.723
18519W        W90102  14.442  29.810  12.993
18520W        W90103  19.600  25.748   0.530
18521W        W90104  29.678  42.742  11.178
18522W        W90105  43.566  32.357   0.045
18523W        W90106  11.883  33.197   1.586
18524W        W90107  37.383  12.363  13.026
18525W        W90108  14.213  22.098   1.889
18526W        W90109   5.191   6.812   2.864
18527W        W90110   1.389  29.172  10.656
18528W        W90111  42.471   3.978   4.627
18529W        W90112  39.947   7.634   5.062
18530W        W90113  31.277  21.024  10.577
18531W        W90114  27.567  18.633  10.733
18532W        W90115  15.612  24.550   0.436
18533W        W90116  25.274  43.414  14.411
18534W        W90117   9.208  44.963  10.662
18535W        W90118   0.517  41.527  12.934
18536W        W90119   5.324  39.851  12.966
18537W        W90120  29.103   1.357  11.720
18538W        W90121  16.960  18.087  13.396
18539W        W90122   3.213  37.870  10.317
18540W        W90123   2.360  33.165   0.988
18541W        W90124  18.958   3.343  12.521
18542W        W90125  35.786  22.683  12.596
18543W        W90126   1.179  26.912  12.272
18544W        W90127  30.685   4.294   0.009
18545W        W90128  11.754  16.805  11.963
18546W        W90129  12.650  42.829   2.214
18547W        W90130  42.985  17.166   5.143
18548W        W90131  36.662  34.358   3.696
18549W        W90132  40.269  43.348  13.790
18550W        W90133  24.585   0.430  12.107
18551W        W90134  32.635  33.319  10.741
18552W        W90135   6.638  14.403   3.278
18553W        W90136  12.633  18.194   0.424
18554W        W90137  41.501   9.621   4.625
18555W        W90138  25.495  16.562   3.734
18556W        W90139  21.786  16.853   5.462
18557W        W90140  38.807  42.700  11.091
18558W        W90141  10.376  40.738  12.217
18559W        W90142  31.546   7.003  10.420
18560W        W90143  24.558  38.604   2.475
18561W        W90144   2.089  28.539   3.755
18562W        W90145  18.378  42.361  12.478
18563W        W90146  34.426  22.223   2.192
18564W        W90147   0.156  40.034  13.013
18565W        W90148  29.046  11.544   1.734
18566W        W90149  22.402  23.994  13.113
18567W        W90150   1.903  30.640   2.237
18568W        W90151  40.211  38.369   3.844
18569W        W90152  14.610   3.216   1.236
18570W        W90153  16.035   4.905  14.398
18571W        W90154  35.845   9.358   4.518
18572W        W90155  16.352  31.060  13.421
18573W        W90156  32.001  43.894  13.361
18574W        W90157  13.196  20.315  12.514
18575W        W90158   4.292  44.010   3.863
18576W        W90159  36.035   4.676   1.429
18577W        W90160  36.621  28.166  13.868
18578W        W90161  15.175   6.698  13.212
18579W        W90162  33.782  32.762  13.072
18580W        W90163  12.631  29.539   2.105
18581W        W90164  27.923  23.507  10.088
18582W        W90165  33.286  13.705  13.470
18583W        W90166  36.521  36.432   1.502
18584W        W90167  29.164   8.321  11.552
18585W        W90168   5.772  29.918  14.477
18586W        W90169  41.263  36.361   1.251
18587W        W90170  10.422  40.951  13.026
18588W        W90171  31.154  13.676   0.848
18589W        W90172  25.967  32.956  14.742
18590W        W90173  14.472   7.691  10.676
18591W        W90174  34.428  20.861  12.941
18592W        W90175  24.542  10.828   4.032
18593W        W90176  31.947  25.747  14.253
18594W        W90177  15.857   5.324  13.542
18595W        W90178  37.896  10.293  13.839
18596W        W90179  23.846  15.996   3.584
18597W        W90180  36.610   8.103   1.871
18598W        W90181  24.985  40.411  14.408
18599W        W90182   9.339  30.081   4.886
18600W        W90183  39.959   5.495   1.368
18601W        W90184   4.361  35.574   4.330
18602W        W90185  40.504  38.786   3.758
18603W        W90186  43.774  36.922  12.171
18604W        W90187  24.612  10.918  10.140
18605W        W90188  29.659   6.649  14.911
18606W        W90189  34.918  19.759   1.429
18607W        W90190  40.527  12.973  14.300
18608W        W90191  39.297  29.071   2.711
18609W        W90192  10.630  14.275  12.999
18610W        W90193  42.662  27.363   3.080
18611W        W90194  43.046  13.376  14.264
18612W        W90195  25.731  17.317  11.220
18613W        W90196  25.652  28.380   1.702
18614W        W90197  26.558  44.265   4.381
18615W        W90198   7.794  36.391   4.604
18616W        W90199  44.291   7.951   1.894
18617W        W90200  36.975  17.588   3.670
18618W        W90201  39.748  32.774  10.695
18619W        W90202   4.158  30.631  10.623
18620W        W90203   9.678  37.935  14.031
18621W        W90204  23.883   1.154   3.775
18622W        W90205  38.786  17.465   3.733
18623W        W90206  35.054  41.834   3.182
18624W        W90207  12.214  37.925   0.844
18625W        W90208  12.774  33.039   2.852
18626W        W90209  19.450  26.199   1.744
18627W        W90210  33.197  15.264   2.314
18628W        W90211  15.402  31.563   0.691
18629W        W90212  43.287  14.357   2.791
18630W        W90213  17.634  21.101   1.697
18631W        W90214  16.368  40.457   3.713
18632W        W90215  44.752  37.812   4.728
18633W        W90216  13.074  15.262  13.084
18634W        W90217  19.708  30.117   2.295
18635W        W90218  30.692  16.579   4.669
18636W        W90219  36.500   0.772  13.732
18637W        W90220  21.982  10.163   2.973
18638W        W90221   8.361   3.983  14.879
18639W        W90222  16.035  42.384   4.154
18640W        W90223  28.643   8.444  14.924
18641W        W90224  37.409  23.056   3.391
18642W        W90225  25.541   7.071  10.589
18643W        W90226  27.929  33.532   4.854
18644W        W90227  34.519   3.145   2.893
18645W        W90228  32.188   8.846  12.919
18646W        W90229  34.686  30.568   1.468
18647W        W90230  26.629  43.903  14.762
18648W        W90231  11.518  31.073   1.194
18649W        W90232  44.422  40.428  10.663
18650W        W90233  44.413  26.429   2.712
18651W        W90234  37.613   7.636  11.089
18652W        W90235  20.009   0.492   2.853
18653W        W90236  37.220  36.903   1.806
18654W        W90237  19.319   5.703  12.894
18655W        W90238  34.103  41.994   1.190
18656W        W90239   2.969  36.645   9.755
18657W        W90240  33.893  28.985  11.532
18658W        W90241   6.911  34.008   2.643
18659W        W90242  42.292  44.636   2.888
18660W        W90243  40.571  32.346   0.873
18661W        W90244   3.264   5.891   1.903
18662W        W90245  17.768  30.587  14.005
18663W        W90246  22.820  42.359   0.181
18664W        W90247  17.479  22.025  10.756
18665W        W90248  37.613  14.972  12.909
18666W        W90249   8.032  19.391  10.926
18667W        W90250   7.289  40.011  11.545
18668W        W90251  30.526  35.429  14.743
18669W        W90252  42.280   1.378   2.117
18670W        W90253  13.437  24.263   4.845
18671W        W90254  21.142  40.231  11.573
18672W        W90255  25.461  22.150  14.717
18673W        W90256   5.980  23.804   0.293
18674W        W90257   4.132  37.101  11.077
18675W        W90258  18.778  39.099  13.504
18676W        W90259  26.398  24.153   3.865
18677W        W90260  37.957  16.109   3.620
18678W        W90261   3.143   7.074  11.172
18679W        W90262  38.541  15.002  13.603
18680W        W90263  33.462   4.942  14.711
18681W        W90264  15.258  33.404   4.626
18682W        W90265  25.034  43.888  14.383
18683W        W90266  23.469  18.194  12.491
18684W        W90267  44.043   5.935   2.191
18685W        W90268   8.155   4.297  12.158
18686W        W90269  21.279  26.628  11.088
18687W        W90270   0.321  22.953   0.874
18688W        W90271  21.671  24.226   3.076
18689W        W90272  36.481  39.800   2.670
18690W        W90273  40.706   9.860  10.317
18691W        W90274  25.190  44.019   4.241
18692W        W90275  16.256  30.103  11.655
18693W        W90276  39.818  10.098  12.377
18694W        W90277   6.325  29.898  14.372
18695W        W90278   8.838  12.057   1.266
18696W        W90279  24.677  17.776  12.484
18697W        W90280  17.431  19.513  11.774
18698W        W90281  35.403  27.296   2.316
18699W        W90282  41.362   2.435  11.656
18700W        W90283  35.458   4.346   0.900
18701W        W90284  13.032   7.941  10.699
18702W        W90285  41.441  39.677  10.831
18703W        W90286  13.786  19.342  10.610
18704W        W90287   4.433  17.228  12.861
18705W        W90288  23.619  40.229   0.876
18706W        W90289  39.547  23.551  11.783
18707W        W90290  27.070  44.263  12.671
18708W        W90291  31.540  24.369   0.178
18709W        W90292  30.076  37.601  14.316
18710W        W90293  25.411  27.234   3.248
18711W        W90294  31.250  28.124  13.332
18712W        W90295  10.613  29.940  14.258
18713W        W90296  23.989  14.586   0.022
18714W        W90297  20.621  28.174  12.476
18715W        W90298  37.611  15.904  11.256
18716W        W90299   3.959  11.771  14.339
18717W        W90300  22.558   1.235   3.662
18718W        W90301  10.795  27.947  11.653
18719W        W90302  40.831  11.220  11.516
18720W        W90303  24.630  30.522   0.072
18721W        W90304  12.168  34.596   3.777
18722W        W90305  23.152   4.775  10.627
18723W        W90306   4.490  34.415  11.071
18724W        W90307   6.651  38.880   4.696
18725W        W90308   0.552  27.944  11.631
18726W        W90309  31.874  31.138   0.905
18727W        W90310  18.990  34.509  11.068
18728W        W90311  31.742  42.049  14.767
18729W        W90312  10.663  17.093   3.239
18730W        W90313  34.866  44.322  13.930
18731W        W90314  22.063  26.595  12.988
18732W        W90315  14.710   4.194  11.125
18733W        W90316   1.208  36.946  13.024
18734W        W90317  32.351   2.575   4.572
18735W        W90318  38.385  39.478  13.417
18736W        W90319  39.339  10.661   3.330
18737W        W90320  18.526  14.674   2.256
18738W        W90321   8.151  21.762  12.048
18739W        W90322  27.031  27.420  12.453
18740W        W90323  18.625  25.739   2.904
18741W        W90324  12.102   0.899  12.052
18742W        W90325  24.965  26.035   1.712
18743W        W90326  32.984  18.821   4.308
18744W        W90327  25.485  30.805   0.704
18745W        W90328   1.772  38.979   1.798
18746W        W90329  22.126  31.067  10.375
18747W        W90330  14.242   8.207  14.919
18748W        W90331   5.531  41.374  12.861
18749W        W90332  42.423  42.813   1.797
18750W        W90333  31.100   3.507  12.006
18751W        W90334  42.344  10.174  11.561
18752W        W90335   8.843   3.768   3.210
18753W        W90336  24.134  23.211   0.791
18754W        W90337   3.051  38.284   4.134
18755W        W90338  36.516  10.741   3.408
18756W        W90339  35.292  12.713   4.566
18757W        W90340  24.124  10.602  13.995
18758W        W90341  36.625  15.634   1.896
18759W        W90342  12.124   4.247   2.953
18760W        W90343  33.748  44.828  14.475
18761W        W90344  28.904  15.233  14.061
18762W        W90345  36.911  32.654  10.809
18763W        W90346  33.355  32.179   2.873
18764W        W90347  11.296  27.179  11.762
18765W        W90348  42.987  37.379   0.390
18766W        W90349  42.536  18.151   2.735
18767W        W90350   3.504   3.185  11.044
18768W        W90351  24.703  14.982  14.329
18769W        W90352  11.878   0.862  13.666
18770W        W90353   2.192  30.577   0.052
18771W        W90354  12.935   9.085   4.570
18772W        W90355  20.886  44.491  13.865
18773W        W90356  28.712   6.110  11.183
18774W        W90357   9.870   3.403   2.644
18775W        W90358  26.107   8.982  11.554
18776W        W90359  41.894  29.613  14.821
18777W        W90360  42.513   4.848  10.792
18778W        W90361  40.285  33.376  12.950
18779W        W90362  20.289  31.149  11.893
18780W        W90363  17.239  36.475  13.814
18781W        W90364  40.374  23.706   5.183
18782W        W90365   2.469  26.078  14.375
18783W        W90366  30.535  24.391   3.199
18784W        W90367  21.695  24.281   4.690
18785W        W90368  17.862  33.553  11.984
18786W        W90369  20.560  11.423   0.770
18787W        W90370  29.213  42.349   3.644
18788W        W90371  21.691   6.674  14.419
18789W        W90372   1.884  26.658   0.650
18790W        W90373  38.533  37.624   2.110
18791W        W90374  44.842  33.408  11.335
18792W        W90375  37.308  30.219   1.703
18793W        W90376   4.644   5.340  10.159
18794W        W90377  37.006   3.200   3.195
18795W        W90378  30.599  35.812   2.306
18796W        W90379   5.724  35.622   2.438
18797W        W90380  10.429  23.833   0.807
18798W        W90381  10.679   0.794  13.433
18799W        W90382  17.175  26.607   4.289
18800W        W90383  23.148   0.282   2.672
18801W        W90384  17.595  18.266   4.692
18802W        W90385  36.468   0.999  12.340
18803W        W90386   6.840  34.630   0.056
18804W        W90387   0.312  42.988   4.525
18805W        W90388   1.793  29.062   3.251
18806W        W90389  39.556   7.229  14.974
18807W        W90390  32.078   8.484  14.906
18808W        W90391  32.150  23.008   2.643
18809W        W90392  28.500  35.916  12.541
18810W        W90393  22.738  42.723   4.594
18811W        W90394   4.437   8.486   1.835
18812W        W90395  34.069  43.047  12.980
18813W        W90396  29.087   6.445  14.072
18814W        W90397  13.996  32.347   2.323
18815W        W90398   4.963  24.503  12.073
18816W        W90399  28.611  17.061  12.771
18817W        W90400   0.869  44.461   4.022
18818W        W90401  44.572  42.505   4.616
18819W        W90402  20.969  10.209  10.733
18820W        W90403   6.725  41.287  13.887
18821W        W90404  38.444  44.751  12.648
18822W        W90405  31.676  14.896   2.115
18823W        W90406  24.085   3.032  10.605
18824W        W90407  17.670  22.287   0.912
18825W        W90408  35.727  32.018   1.807
18826W        W90409  37.046  27.417  10.627
18827W        W90410  42.271  37.064   3.330
18828W        W90411  26.338  26.808  12.053
18829W        W90412  11.416  22.662   1.999
18830W        W90413   3.129  23.777   3.851
18831W        W90414  20.531  38.564   1.247
18832W        W90415   7.455  36.122   1.444
18833W        W90416  10.243  22.177   4.583
18834W        W90417  29.456  15.666   1.455
18835W        W90418  44.038   7.218  14.937
18836W        W90419   8.651  12.296  11.186
18837W        W90420  10.368  26.695   4.258
18838W        W90421   0.623  28.926  13.855
18839W        W90422  28.848  40.731  13.943
18840W        W90423   5.161   6.745   1.056
18841W        W90424  28.117  16.088   3.422
18842W        W90425   9.626  26.176  14.282
18843W        W90426  38.455  36.603  10.736
18844W        W90427   1.257  16.588   2.664
18845W        W90428  29.115  22.605  14.564
18846W        W90429  11.793  18.631  13.388
18847W        W90430  21.792  15.356   0.282
18848W        W90431   2.804  20.782   1.229
18849W        W90432   0.843  11.859  10.758
18850W        W90433  15.107  20.652   3.086
18851W        W90434  28.299  28.993   0.940
18852W        W90435   3.626  35.959   1.269
18853W        W90436   2.080  28.577  12.225
18854W        W90437  17.645  31.739   3.410
18855W        W90438  26.766  22.002  12.047
18856W        W90439  35.424  39.419  11.510
18857W        W90440  25.474  25.025   2.871
18858W        W90441  38.132   2.251  14.564
18859W        W90442  44.404  30.702   2.288
18860W        W90443   2.659  19.681  11.444
18861W        W90444  38.411  40.170   4.527
18862W        W90445  11.635  44.461   1.955
18863W        W90446   5.735  31.972   2.184
18864W        W90447  31.212  25.320   5.084
18865W        W90448  37.129  21.173  11.621
18866W        W90449   9.428   3.280   3.386
18867W        W90450  10.290  12.849   3.176
18868W        W90451  28.077   0.631  13.454
18869W        W90452  20.788  29.101   0.878
18870W        W90453  21.409  27.626   2.779
18871W        W90454  24.625  18.125   4.110
18872W        W90455   8.266  38.789  13.944
18873W        W90456  42.479  40.997   2.693
18874W        W90457   8.337  21.651   2.802
18875W        W90458  19.146  32.842  10.815
18876W        W90459  22.981  44.401   3.222
18877W        W90460   1.079   1.344   2.554
18878W        W90461  30.739  27.109   3.092
18879W        W90462   0.792  22.770  11.883
18880W        W90463  14.181  17.654  12.070
18881W        W90464  18.602   5.772  11.622
18882W        W90465  28.286   3.191   2.098
18883W        W90466   4.389  37.098   4.610
18884W        W90467  10.243  41.007  14.470
18885W        W90468   7.151  12.098  14.382
18886W        W90469   0.440  42.384  10.658
18887W        W90470  33.108  25.554  13.008
18888W        W90471  38.885   1.235  10.630
18889W        W90472  27.509  42.790  10.993
18890W        W90473   6.159   8.194  12.629
18891W        W90474  16.055  10.785  14.860
18892W        W90475  10.630  42.553   0.073
18893W        W90476  32.611   5.900   1.700
18894W        W90477  30.134  10.244  10.545
18895W        W90478  16.750  43.452  12.773
18896W        W90479   2.896  26.115   2.970
18897W        W90480   0.023  36.786   2.074
18898W        W90481  16.543  24.035  12.375
18899W        W90482   9.193  24.268  14.113
18900W        W90483  41.473  37.417  14.922
18901W        W90484   0.801  11.732  13.979
18902W        W90485  11.579   3.775   2.283
18903W        W90486  24.277  43.189   2.365
18904W        W90487  31.980  14.671  14.424
18905W        W90488   5.853  42.347   2.628
18906W        W90489  37.502  16.315  13.869
18907W        W90490  41.135  13.868  13.140
18908W        W90491   8.420  13.568  11.531
18909W        W90492  24.580  16.073   2.344
18910W        W90493  13.656  39.273   3.532
18911W        W90494  37.659  10.828   2.624
18912W        W90495  38.097   8.766  11.989
18913W        W90496  42.946   5.313  11.044
18914W        W90497  28.141  34.079   9.770
18915W        W90498  40.069  29.153   2.225
18916W        W90499  33.860  21.178  14.490
18917W        W90500  22.178  10.197   4.257
18918W        W90501  34.613  21.642  10.626
18919W        W90502  30.924  29.410  14.884
18920W        W90503  40.477  15.309  10.502
18921W        W90504  15.808  32.938   3.286
18922W        W90505  23.500   8.813  11.545
18923W        W90506  14.185  25.638  10.576
18924W        W90507  17.207  15.377  12.924
18925W        W90508  25.802  21.409  11.178
18926W        W90509  28.218  24.191  14.934
18927W        W90510  17.323   4.933  11.130
18928W        W90511  42.765   3.397   0.295
18929W        W90512  14.650  41.822  13.604
18930W        W90513  44.688  33.554   1.135
18931W        W90514  24.186  28.449  13.055
18932W        W90515  20.938  24.160  11.005
18933W        W90516   0.391  38.562  13.983
18934W        W90517  36.115   1.842   0.285
18935W        W90518   5.813  21.614   4.854
18936W        W90519  38.290   9.863  14.774
18937W        W90520  12.821   6.675   4.330
18938W        W90521  40.532   4.365   3.187
18939W        W90522  14.577  22.578  11.456
18940W        W90523   3.366  15.243   3.702
18941W        W90524  43.367  16.394  13.310
18942W        W90525  21.394  13.875   0.908
18943W        W90526   4.793   6.910  11.658
18944W        W90527  21.793  38.621  14.839
18945W        W90528  20.209   7.758  11.986
18946W        W90529  25.557  42.208   1.343
18947W        W90530  32.206   2.725   2.871
18948W        W90531  19.930  19.655   5.065
18949W        W90532  11.264  28.646   2.235
18950W        W90533  41.539  30.518  12.477
18951W        W90534   0.006  42.285  13.863
18952W        W90535  42.695  18.712   3.684
18953W        W90536  17.180  12.911   1.412
18954W        W90537  26.038   7.039   0.273
18955W        W90538  10.692  24.615  11.502
18956W        W90539  16.345   1.228   1.350
18957W        W90540  14.329  27.961   0.014
18958W        W90541  39.930  29.616  14.330
18959W        W90542  39.350  40.765   2.400
18960W        W90543  19.784  39.986  11.379
18961W        W90544  20.232   1.307   0.022
18962W        W90545   1.062  35.618   0.840
18963W        W90546  30.076  22.111  14.819
18964W        W90547  21.626  41.046  14.026
18965W        W90548  42.332  21.030  14.845
18966W        W90549  44.888  29.999   0.325
18967W        W90550  39.654  17.325   2.871
18968W        W90551  37.477  14.624   1.851
18969W        W90552  25.942  11.382   1.817
18970W        W90553  42.402  34.984   4.900
18971W        W90554   2.392  34.782   2.464
18972W        W90555   7.314  13.847  11.664
18973W        W90556   1.032   5.900   1.276
18974W        W90557  37.734   0.233  11.667
18975W        W90558  27.052  15.382   1.752
18976W        W90559  43.062   7.515  11.408
18977W        W90560  11.788  10.819   2.025
18978W        W90561  43.392  31.298   4.515
18979W        W90562  44.711  22.443  11.036
18980W        W90563   5.883  13.374   1.241
18981W        W90564   6.117  28.299  11.219
18982W        W90565  12.672  16.295   2.985
18983W        W90566  28.251  44.376   4.536
18984W        W90567  29.448  42.574   4.470
18985W        W90568  44.240  36.352   2.342
18986W        W90569  43.480  34.125   1.357
18987W        W90570  27.123  18.676   2.303
18988W        W90571   1.584  42.211  12.923
18989W        W90572  25.379  36.004   2.703
18990W        W90573  24.499  44.259  13.058
18991W        W90574  16.558  31.041   0.496
18992W        W90575  26.717  25.544   3.825
18993W        W90576  30.974  27.945   0.239
18994W        W90577   6.899  30.736  11.279
18995W        W90578  26.890  27.411  10.730
18996W        W90579  28.098  42.419  14.817
18997W        W90580  34.504  35.342   4.153
18998W        W90581  15.658   2.346  14.702
18999W        W90582  22.015  10.337  13.531
19000W        W90583   2.308  27.421  13.876
19001W        W90584  34.864  33.909  11.290
19002W        W90585  41.077  38.041   2.235
19003W        W90586  34.154  20.181   3.275
19004W        W90587  43.385  11.109  11.096
19005W        W90588  29.640  28.757   4.443
19006W        W90589   8.632  29.128  11.925
19007W        W90590   7.859  13.619  13.400
19008W        W90591   6.186  24.021  13.801
19009W        W90592  37.454   0.338  14.008
19010W        W90593  20.479   7.580   5.068
19011W        W90594  33.541  37.415  11.554
19012W        W90595  18.182  37.878   4.797
19013W        W90596  10.574  33.032   4.600
19014W        W90597  42.412  21.554   4.137
19015W        W90598  37.115  19.544   2.836
19016W        W90599  16.509  41.614  12.178
19017W        W90600   2.065   4.876  12.069
19018W        W90601   0.732  38.956  13.987
19019W        W90602   8.542  25.681  11.592
19020W        W90603  31.200   4.392  13.449
19021W        W90604  42.791   6.791  13.646
19022W        W90605  36.053  40.845  10.728
19023W        W90606   0.277   4.198   0.407
19024W        W90607  23.691  32.371   2.190
19025W        W90608  13.854  43.207  14.972
19026W        W90609  12.265   4.316   2.459
19027W        W90610  43.235   8.686   0.311
19028W        W90611  39.323  29.427   3.129
19029W        W90612   1.507   1.527  13.901
19030W        W90613   6.428  23.236  12.471
19031W        W90614  35.380  29.385   2.187
19032W        W90615  25.276  28.135   3.706
19033W        W90616  35.635  15.243   4.659
19034W        W90617  39.844   6.444  11.674
19035W        W90618  40.926  29.516   0.216
19036W        W90619  25.526   5.454   1.286
19037W        W90620  21.678  29.401   4.294
19038W        W90621  34.125  37.098  11.000
19039W        W90622  39.873  28.977   0.892
19040W        W90623  22.790  10.177   5.088
19041W        W90624   8.195  17.563   0.696
19042W        W90625   8.759  21.941   2.953
19043W        W90626  36.512  42.648   3.816
19044W        W90627   7.353  24.636   2.711
19045W        W90628  15.574  32.574  13.828
19046W        W90629  18.839  30.431  12.647
19047W        W90630  44.602  10.288   4.200
19048W        W90631   3.982  30.130   3.795
19049W        W90632  28.747   7.270  11.693
19050W        W90633  30.685   0.706  13.041
19051W        W90634  37.862  16.671   2.730
19052W        W90635   6.303   3.903   0.027
19053W        W90636  17.873  13.636  13.683
19054W        W90637  42.922  32.466   5.128
19055W        W90638  34.870   4.898   5.008
19056W        W90639  29.672   3.190  10.855
19057W        W90640  29.930  22.613  14.728
19058W        W90641  23.501   3.427  14.298
19059W        W90642  28.838  31.863   0.687
19060W        W90643  19.111  21.763   3.361
19061W        W90644  22.030  39.667  13.134
19062W        W90645   9.259  42.386   4.351
19063W        W90646  27.857  38.397   2.736
19064W        W90647  32.446  22.108   2.435
19065W        W90648  31.640  13.417  12.463
19066W        W90649   4.870  15.563  10.434
19067W        W90650   8.255   4.661   3.255
19068W        W90651  20.134  25.972   3.610
19069W        W90652  42.163  39.032  12.531
19070W        W90653  25.463   1.606  11.089
19071W        W90654  41.805  22.209   3.159
19072W        W90655  25.842   0.010  11.106
19073W        W90656  28.009  22.625   4.624
19074W        W90657  15.148  38.081  11.481
19075W        W90658   2.774  17.340   4.243
19076W        W90659  40.837  12.872   0.882
19077W        W90660   6.663   2.187   3.374
19078W        W90661   8.956   5.258  13.945
19079W        W90662  40.520   8.212   0.421
19080W        W90663   0.741  42.774  11.949
19081W        W90664  11.170  10.892   4.765
19082W        W90665  22.542  18.668   1.757
19083W        W90666  18.814  23.293   4.991
19084W        W90667  30.947  13.175   2.747
19085W        W90668   8.460  13.888   0.920
19086W        W90669  27.936  12.583  14.671
19087W        W90670  36.871  44.277   0.892
19088W        W90671  19.456  28.662   2.062
19089W        W90672  31.791  19.533   0.878
19090W        W90673   8.582  27.530   2.421
19091W        W90674  28.521   8.268  14.389
19092W        W90675   9.684  15.608  12.386
19093W        W90676  33.129  24.155   3.406
19094W        W90677  35.232  18.619   3.178
19095W        W90678  42.446  35.138   2.150
19096W        W90679  29.889  41.080  11.595
19097W        W90680   0.604  41.504  13.885
19098W        W90681   8.102  15.082   1.588
19099W        W90682  28.003  24.283  11.679
19100W        W90683  13.026  20.493  11.161
19101W        W90684  41.989  23.707  14.753
19102W        W90685  21.477  19.242   2.290
19103W        W90686  21.982  32.692   4.463
19104W        W90687  43.756  36.485  13.953
19105W        W90688  29.652   1.622   2.381
19106W        W90689  44.789  23.312   0.141
19107W        W90690  10.350   9.701  14.422
19108W        W90691   6.860  10.967   0.837
19109W        W90692  28.278  32.554   2.816
19110W        W90693  21.495   7.855  12.658
19111W        W90694  35.080  23.443  11.097
19112W        W90695   7.465   9.551   3.789
19113W        W90696   2.315  24.436   4.599
19114W        W90697  34.971   8.573   5.018
19115W        W90698  20.593   5.802  14.932
19116W        W90699  19.891  33.925   1.854
19117W        W90700   5.002   0.544   0.380
19118W        W90701  14.310  28.124   1.444
19119W        W90702  33.184  27.422  11.557
19120W        W90703  35.612  30.587   1.488
19121W        W90704  35.910  25.530  13.452
19122W        W90705  26.426   2.275   2.598
19123W        W90706  41.250  33.932  10.758
19124W        W90707   0.825  21.980  14.003
19125W        W90708  17.781  25.086   0.686
19126W        W90709  11.659  16.492  11.533
19127W        W90710  34.762   9.713  10.931
19128W        W90711  29.379  13.235   4.298
19129W        W90712  44.045   4.713   2.631
19130W        W90713  25.695  13.216   0.051
19131W        W90714  14.363  21.382   4.257
19132W        W90715  42.744  17.314  13.524
19133W        W90716  27.203   0.834  12.614
19134W        W90717  24.652  42.750  14.296
19135W        W90718   6.610  12.687   4.737
19136W        W90719  27.279  19.969   0.867
19137W        W90720  41.147  23.446   0.080
19138W        W90721  10.879  16.062  11.962
19139W        W90722  36.270  38.000   3.714
19140W        W90723  14.376   3.396   3.788
19141W        W90724  40.505  20.329   2.140
19142W        W90725   0.966   6.813  14.422
19143W        W90726   5.202  10.695  12.446
19144W        W90727  25.862  17.229   3.049
19145W        W90728  32.512  22.648   4.099
19146W        W90729  20.463  19.282   0.305
19147W        W90730  22.430  25.052   2.894
19148W        W90731   0.263  23.151   0.396
19149W        W90732  13.106  38.429  11.478
19150W        W90733  17.242  43.008   0.929
19151W        W90734  18.393  27.695   2.283
19152W        W90735   0.782  42.239   0.710
19153W        W90736   5.645  26.710  12.106
19154W        W90737  17.505  32.450   1.574
19155W        W90738  21.677   9.838   1.182
19156W        W90739  19.218   8.843   0.004
19157W        W90740  17.502  25.446   2.505
19158W        W90741   5.653  22.633  11.160
19159W        W90742  35.098  11.389   0.209
19160W        W90743  30.512  39.392   2.598
19161W        W90744  28.529  31.462  14.320
19162W        W90745   5.771  21.194   1.375
19163W        W90746   3.274   9.827   4.318
19164W        W90747   1.306  39.155   1.674
19165W        W90748   5.420  43.537  14.917
19166W        W90749  38.556  33.068  11.348
19167W        W90750   4.933   3.504  10.670
19168W        W90751  18.596  35.790   4.928
19169W        W90752   1.971  18.749   0.892
19170W        W90753  26.130   4.174   1.137
19171W        W90754  30.161   2.435   5.034
19172W        W90755  10.376  23.680  13.864
19173W        W90756  13.171   7.622   3.784
19174W        W90757  15.305  19.166  11.506
19175W        W90758  14.192  14.223   4.451
19176W        W90759   0.356  24.150   0.313
19177W        W90760  44.613  24.152  14.070
19178W        W90761  27.894   6.821   0.464
19179W        W90762  13.264   9.865  12.038
19180W        W90763  20.671  15.732   0.762
19181W        W90764   3.445  27.147   0.081
19182W        W90765  44.474   4.839  10.276
19183W        W90766   1.357  16.809  14.713
19184W        W90767   6.352  36.942   3.152
19185W        W90768  32.553  43.330  12.729
19186W        W90769   5.914  21.933   2.648
19187W        W90770   5.215  27.126   1.295
19188W        W90771  15.290  35.982   4.178
19189W        W90772  42.861  40.808  10.940
19190W        W90773   7.870   4.109  11.254
19191W        W90774  12.699  42.828   3.605
19192W        W90775  22.183   7.256   0.404
19193W        W90776  12.735  11.652  14.801
19194W        W90777  36.789   0.279   0.813
19195W        W90778   3.275   1.419   4.605
19196W        W90779  26.912  43.271  11.644
19197W        W90780   2.964  32.128  13.368
19198W        W90781  15.256  11.672   1.259
19199W        W90782  31.506  27.739   4.216
19200W        W90783  43.030   0.763  13.981
19201W        W90784  14.655   2.703  14.268
19202W        W90785  32.921  12.656   3.685
19203W        W90786  24.067  26.356  11.288
19204W        W90787  10.183  20.982   0.929
19205W        W90788   9.343  36.385  12.268
19206W        W90789   5.678  15.052   4.866
19207W        W90790  27.510   9.940   3.228
19208W        W90791  37.475  40.967   1.053
19209W        W90792  13.325  21.662   0.423
19210W        W90793   5.449  31.331   0.524
19211W        W90794   9.695   4.443  10.591
19212W        W90795  27.089  37.944  13.788
19213W        W90796   9.922  39.573   3.739
19214W        W90797  16.159  32.630   4.380
19215W        W90798  20.611  41.386  10.754
19216W        W90799  44.310   1.242  12.124
19217W        W90800  14.981  12.285  13.522
19218W        W90801  33.865   0.328   0.731
19219W        W90802  38.778   6.278  10.084
19220W        W90803  13.272  22.994  13.300
19221W        W90804  44.312   9.866   4.183
19222W        W90805  35.085  19.545  12.962
19223W        W90806  32.322   5.089  11.145
19224W        W90807  29.128  26.739  10.751
19225W        W90808   9.901  38.145  12.179
19226W        W90809  19.645  33.177   1.401
19227W        W90810   9.171  13.674  14.801
19228W        W90811  18.536  24.026  11.656
19229W        W90812  20.957  24.993  14.983
19230W        W90813  17.350  18.745   2.172
19231W        W90814  33.456   0.199   1.438
19232W        W90815   4.743  27.118  10.672
19233W        W90816  31.929  38.506  13.580
19234W        W90817   9.963  15.846  10.636
19235W        W90818  30.002  39.305  11.147
19236W        W90819   4.867  25.461   4.258
19237W        W90820  27.421   1.196   2.213
19238W        W90821  16.349  23.268   4.649
19239W        W90822  34.359  42.177   2.303
19240W        W90823   7.267  30.702  14.381
19241W        W90824  16.551  37.048   5.647
19242W        W90825  33.010  27.539  13.290
19243W        W90826  17.190  33.093   0.953
19244W        W90827  13.162   9.342  10.888
19245W        W90828  12.145  32.680   4.399
19246W        W90829   2.616  22.812  11.129
19247W        W90830  23.700   4.806  10.712
19248W        W90831   5.869  25.202   1.888
19249W        W90832  19.190  23.091   2.650
19250W        W90833   9.190   9.608  11.424
19251W        W90834   1.768  24.499  10.720
19252W        W90835  11.634  32.514   2.202
19253W        W90836   3.690  16.265   3.560
19254W        W90837  35.093  11.696  10.299
19255W        W90838  23.027   9.235  13.976
19256W        W90839  29.481  42.273  12.470
19257W        W90840  30.037  39.080  10.697
19258W        W90841  40.786  43.442  13.913
19259W        W90842  11.332  15.787  10.598
19260W        W90843  42.940  41.138  13.329
19261W        W90844  30.960   2.736  11.162
19262W        W90845  17.201  37.457   0.031
19263W        W90846  42.414  13.703  12.564
19264W        W90847  27.721  34.356  12.568
19265W        W90848  23.093   1.977  11.046
19266W        W90849  33.930   5.683   1.380
19267W        W90850  38.015  40.711  14.794
19268W        W90851  33.882  42.797   0.271
19269W        W90852  27.100   0.328   4.648
19270W        W90853  21.358  11.698   1.374
19271W        W90854  26.070  21.539  14.363
19272W        W90855  19.108   8.333   0.271
19273W        W90856  39.543  25.435  11.230
19274W        W90857  15.255  35.416  10.638
19275W        W90858   6.403   2.512   2.724
19276W        W90859  32.418   7.155   3.172
19277W        W90860  14.675   7.483  13.318
19278W        W90861   1.564   2.268   1.629
19279W        W90862  20.533  30.000  13.989
19280W        W90863   4.884  23.893   1.301
19281W        W90864   0.871   3.652  14.341
19282W        W90865  32.487   3.834  14.909
19283W        W90866  14.521  39.648   0.817
19284W        W90867   4.532  31.433   1.484
19285W        W90868  40.564  17.950  12.012
19286W        W90869   3.351   3.469   3.855
19287W        W90870  18.323  38.334   1.621
19288W        W90871  12.673  35.173   4.280
19289W        W90872  34.672  16.297   3.737
19290W        W90873  26.750   6.433  11.016
19291W        W90874  31.026  35.237   2.938
19292W        W90875   3.278  25.456   4.643
19293W        W90876  36.097  10.473  11.091
19294W        W90877  40.534  38.265   1.349
19295W        W90878  39.337   9.179  11.558
19296W        W90879  22.676   0.291   3.810
19297W        W90880  15.832  30.366  11.585
19298W        W90881  11.644   2.415   3.424
19299W        W90882   8.959  34.830  11.383
19300W        W90883  21.318  27.233  13.947
19301W        W90884  19.604  41.847   5.067
19302W        W90885  39.788  31.578   1.280
19303W        W90886  34.452   4.690   2.686
19304W        W90887  12.631  22.419   4.277
19305W        W90888  37.884  29.033  14.844
19306W        W90889   0.705  24.727  13.482
19307W        W90890  42.275  20.703  13.408
19308W        W90891  12.767   8.333  12.855
19309W        W90892   2.422  30.604  10.782
19310W        W90893  24.594  16.126   1.388
19311W        W90894  37.474  37.661  13.330
19312W        W90895  28.574   4.062   0.400
19313W        W90896  27.654  18.743  11.797
19314W        W90897  36.417  14.121   1.148
19315W        W90898  13.051  37.103   2.007
19316W        W90899  18.002  16.667  13.085
19317W        W90900  10.103  10.164   0.927
19318W        W90901  13.136  38.669  13.804
19319W        W90902   2.180  21.783  14.434
19320W        W90903  39.294  24.560   0.608
19321W        W90904  17.283  17.379   9.926
19322W        W90905  39.837  44.842  12.351
19323W        W90906  33.899  29.121  10.639
19324W        W90907   8.166   1.821  11.592
19325W        W90908   0.314  18.498   0.368
19326W        W90909  24.725  15.702  10.158
19327W        W90910   5.885  34.051  11.435
19328W        W90911  27.128   4.791  14.249
19329W        W90912  16.277  44.597   2.235
19330W        W90913  14.003  31.568   2.626
19331W        W90914  38.964   1.617   3.039
19332W        W90915  44.937  34.140  12.415
19333W        W90916  11.749   6.702  13.575
19334W        W90917  19.602   5.916  14.041
19335W        W90918  15.227  27.404   4.343
19336W        W90919  41.122  16.532  12.558
19337W        W90920   8.102  36.858   0.783
19338W        W90921  20.620  32.958   2.747
19339W        W90922  26.054  24.341   1.254
19340W        W90923  26.478  36.956   1.212
19341W        W90924  40.528  33.016  14.025
19342W        W90925  43.397  44.515   4.704
19343W        W90926  38.862  37.618   3.391
19344W        W90927  36.161   2.894   4.215
19345W        W90928  13.730  26.016   3.096
19346W        W90929   1.369  20.224   4.217
19347W        W90930  27.731  17.284   3.646
19348W        W90931  12.382  36.430   0.288
19349W        W90932   7.857  33.149   1.007
19350W        W90933  35.050   8.179  14.644
19351W        W90934  22.024  23.031  14.078
19352W        W90935  10.942   1.541   1.804
19353W        W90936   8.633  31.807   3.547
19354W        W90937   4.960  42.104  10.656
19355W        W90938  43.326  39.473   2.375
19356W        W90939   8.814  21.551   5.120
19357W        W90940   0.517  34.596   0.022
19358W        W90941   4.196  36.560   2.399
19359W        W90942   7.181  14.539   4.580
19360W        W90943   4.447  24.758   3.707
19361W        W90944  12.200  24.674   3.545
19362W        W90945  19.094  40.598  14.406
19363W        W90946  15.142  20.744   1.620
19364W        W90947  41.797  32.610  12.561
19365W        W90948  44.081  13.638  14.355
19366W        W90949   9.440   8.175  12.496
19367W        W90950  11.687   0.571   4.610
19368W        W90951  21.096  36.402   4.078
19369W        W90952   9.386  21.830  12.109
19370W        W90953  18.461   6.101   2.040
19371W        W90954  39.280  15.808   4.167
19372W        W90955  35.547  25.957   4.660
19373W        W90956  20.238  14.291   2.338
19374W        W90957  25.663  10.729  14.869
19375W        W90958   2.925  18.815   1.295
19376W        W90959   4.667  22.260   0.521
19377W        W90960  18.622   1.259   0.508
19378W        W90961  25.256  36.126  11.618
19379W        W90962   6.912  12.582   1.860
19380W        W90963  31.868  24.023   0.404
19381W        W90964  34.118  22.830   2.256
19382W        W90965  16.772   7.419  11.540
19383W        W90966   4.862   8.705   0.937
19384W        W90967  24.682  23.648  12.814
19385W        W90968  22.448  37.591   5.036
19386W        W90969  14.457   8.462  13.402
19387W        W90970  32.929  24.342  14.136
19388W        W90971   3.200  24.908  11.918
19389W        W90972   9.460   5.378  11.591
19390W        W90973  35.095   0.893   1.879
19391W        W90974  27.333  37.642   4.298
19392W        W90975  12.173  20.518  14.935
19393W        W90976  33.580  20.799   3.213
19394W        W90977  15.986  15.608   4.280
19395W        W90978  26.413  32.695   3.288
19396W        W90979   9.865  23.515  14.774
19397W        W90980  40.840  14.192   4.104
19398W        W90981  39.705  24.479  10.670
19399W        W90982   5.853  42.003   3.829
19400W        W90983  23.105  36.091  12.074
19401W        W90984  23.242  34.530   2.916
19402W        W90985  31.843  17.818   3.567
19403W        W90986  42.774  17.863  11.709
19404W        W90987   6.355  29.195   4.326
19405W        W90988  18.108  24.419   4.999
19406W        W90989   6.488  33.497   4.184
19407W        W90990  20.888  30.065   4.259
19408W        W90991  24.526  43.296  12.814
19409W        W90992  25.708  32.046  11.007
19410W        W90993   2.313  27.377  14.924
19411W        W90994  13.465  28.033  11.102
19412W        W90995  36.069  15.554   3.910
19413W        W90996  30.208  30.029   1.852
19414W        W90997  11.063  18.629  11.106
19415W        W90998  43.527   1.924   3.216
19416W        W90999  23.153  15.927   0.651
19417W        W91000   0.776  31.497   1.711
19418W        W91001  18.808  13.173  12.988
19419W        W91002   9.196   0.642   4.034
19420W        W91003   2.624  14.250   4.563
19421W        W91004   4.806  17.359   4.882
19422W        W91005   4.806  44.990  11.194
19423W        W91006   0.641   8.626   4.362
19424W        W91007  21.769  39.871   1.257
19425W        W91008  30.757  24.631   1.941
19426W        W91009  26.879  28.887  13.187
19427W        W91010  16.132  24.779  11.442
19428W        W91011   0.924  14.504   3.199
19429W        W91012  12.439  29.545  10.788
19430W        W91013   6.221  18.322  12.983
19431W        W91014  42.627   7.328  13.271
19432W        W91015  43.992  29.396   2.289
19433W        W91016  37.885  26.170  12.517
19434W        W91017  19.841   4.909  13.993
19435W        W91018  24.596   7.624  12.983
19436W        W91019  29.300  16.493  13.528
19437W        W91020  13.086  29.173   3.110
19438W        W91021  10.827   5.423  12.388
19439W        W91022  35.533  38.357  13.141
19440W        W91023  17.606  37.378  12.361
19441W        W91024  44.762  33.039  14.543
19442W        W91025  15.094  44.670   0.865
19443W        W91026   1.238  44.825  14.956
19444W        W91027  21.007  37.371   4.331
19445W        W91028  41.492  20.590   1.154
19446W        W91029  35.054  42.551  13.920
19447W        W91030  27.692  40.069   0.282
19448W        W91031  16.447   9.146  11.176
19449W        W91032  36.437  25.983  13.733
19450W        W91033  36.319  39.244  13.807
19451W        W91034  28.622  10.308   3.762
19452W        W91035  38.322  26.960   4.185
19453W        W91036  11.037   2.362  11.635
19454W        W91037  18.711  21.632   2.135
19455W        W91038  43.777   2.389   3.230
19456W        W91039  42.822  43.932   4.960
19457W        W91040  16.605  12.662   2.959
19458W        W91041   6.757  14.651  14.695
19459W        W91042  21.730  44.870   2.255
19460W        W91043  42.867  16.754   0.732
19461W        W91044   4.376   3.335  11.269
19462W        W91045  16.086   2.031  13.588
19463W        W91046  38.063   7.408   3.744
19464W        W91047   4.839   3.298   1.230
19465W        W91048  32.513  34.961  14.279
19466W        W91049  42.963   9.837  14.091
19467W        W91050  19.167   3.834   0.280
19468W        W91051  14.293  17.574  14.407
19469W        W91052  26.803  43.053  14.742
19470W        W91053  33.255  33.248  13.629
19471W        W91054  12.880  15.441  14.886
19472W        W91055   8.573   2.900  13.881
19473W        W91056  41.496  37.469   1.769
19474W        W91057  12.539   7.840   3.291
19475W        W91058  41.738  43.022  14.904
19476W        W91059  16.382  37.561  12.914
19477W        W91060   5.412  15.588   1.329
19478W        W91061  14.104  10.735  14.818
19479W        W91062  29.297  40.667   2.407
19480W        W91063  22.456  35.467  11.043
19481W        W91064   3.752   8.208  13.443
19482W        W91065  20.967  19.477   0.367
19483W        W91066   4.291  12.912   1.196
19484W        W91067  20.041  41.487   3.475
19485W        W91068   6.499  14.800  12.391
19486W        W91069  39.101  35.377   1.266
19487W        W91070  32.493  30.468   0.925
19488W        W91071  41.103   3.346  10.508
19489W        W91072  39.668  19.535  10.801
19490W        W91073  42.010  36.582   0.846
19491W        W91074  29.397  28.842  10.233
19492W        W91075  39.765  23.971   2.676
19493W        W91076  27.490  40.116   3.320
19494W        W91077   0.394   3.682   1.331
19495W        W91078  29.086  12.269   2.737
19496W        W91079   4.407  44.734   3.357
19497W        W91080  27.223  40.838   2.767
19498W        W91081  35.139  24.979  13.539
19499W        W91082  28.084   6.938   3.779
19500W        W91083  29.000  10.839   1.157
19501W        W91084  43.173  18.319   0.080
19502W        W91085  34.288  10.059   0.664
19503W        W91086  13.801   4.493  13.876
19504W        W91087  14.512   6.844  10.978
19505W        W91088  28.824  29.089  14.795
19506W        W91089  41.254  19.515   4.675
19507W        W91090  16.344  25.755  11.618
19508W        W91091  27.954   0.641  10.581
19509W        W91092  23.449  22.589  10.745
19510W        W91093  10.236  37.554  11.108
19511W        W91094  34.035  32.201   2.165
19512W        W91095  17.442   6.726  11.890
19513W        W91096  39.331  32.112  14.425
19514W        W91097  26.472  18.863  10.448
19515W        W91098   2.530  42.794   3.414
19516W        W91099   7.985  41.369   4.880
19517W        W91100  30.096  40.869   4.375
19518W        W91101  14.541  12.113  13.323
19519W        W91102  20.590   2.771  12.911
19520W        W91103  12.907  36.820   4.527
19521W        W91104  35.667   2.199   4.203
19522W        W91105  38.962  14.331  10.498
19523W        W91106  37.755  19.647   3.214
19524W        W91107  25.446  36.605  12.955
19525W        W91108  36.939   5.471  11.394
19526W        W91109  11.770  42.923   1.821
19527W        W91110   3.407  23.188  11.465
19528W        W91111  21.028  11.423  14.471
19529W        W91112   6.157  34.882  14.546
19530W        W91113   6.879  18.570   1.369
19531W        W91114  32.566   4.449   4.260
19532W        W91115   8.481  25.257   2.303
19533W        W91116  23.983  28.130  10.796
19534W        W91117  18.523  37.580   1.473
19535W        W91118   4.510   2.205  11.842
19536W        W91119  11.798  19.243   2.629
19537W        W91120  32.509  22.551  10.256
19538W        W91121   0.051  35.316  14.391
19539W        W91122   3.826  12.180   4.615
19540W        W91123  22.601  21.690  12.977
19541W        W91124  22.280  18.229   2.897
19542W        W91125  39.044   9.962  13.472
19543W        W91126  32.662   6.768   1.963
19544W        W91127  21.852   7.799   3.868
19545W        W91128  36.356   9.824   4.122
19546W        W91129  29.103  30.661   3.942
19547W        W91130  40.987  13.079   1.885
19548W        W91131  41.507  21.150  14.430
19549W        W91132  36.355  12.375   0.471
19550W        W91133  28.002  44.318  14.547
19551W        W91134  32.930  36.993   3.263
19552W        W91135  26.501   4.696  12.976
19553W        W91136  22.264   2.023   4.711
19554W        W91137  25.155  31.449  11.283
19555W        W91138  30.512   2.383   4.612
19556W        W91139  33.446   6.195  10.907
19557W        W91140  33.231  10.188  11.600
19558W        W91141  33.466  26.523  11.570
19559W        W91142  30.065  39.800  12.000
19560W        W91143   3.827  28.900  14.251
19561W        W91144   3.949  26.538   0.773
19562W        W91145  37.115   7.331   0.959
19563W        W91146  41.431  16.748  13.797
19564W        W91147   0.614  32.046  11.191
19565W        W91148  18.319   9.840  10.703
19566W        W91149  21.546  39.876  12.921
19567W        W91150  12.801  42.782  11.074
19568W        W91151  11.119  39.594  10.704
19569W        W91152  22.416  13.570   2.468
19570W        W91153  18.081  29.362  12.425
19571W        W91154   4.895  26.111   0.764
19572W        W91155  11.057  18.107   3.183
19573W        W91156  23.489  30.407  12.190
19574W        W91157  13.659  38.437  10.639
19575W        W91158  25.743   0.569   2.705
19576W        W91159  24.773  22.373   4.086
19577W        W91160  38.478  13.326   2.340
19578W        W91161  12.772   1.192   4.194
19579W        W91162  39.420  33.128   0.258
19580W        W91163   4.689  22.466   4.593
19581W        W91164  13.208   1.441   2.292
19582W        W91165  16.648  25.504  12.927
19583W        W91166   4.001  16.543  14.889
19584W        W91167  10.709  42.226   0.490
19585W        W91168  19.480  19.085  10.756
19586W        W91169  24.556  34.179   4.641
19587W        W91170   7.776  38.216   1.808
19588W        W91171  40.341  35.915  11.880
19589W        W91172   5.189   0.295  11.564
19590W        W91173  26.130  28.284   0.701
19591W        W91174   4.195  33.131   2.426
19592W        W91175  12.708  28.723   3.206
19593W        W91176  43.776  28.452   0.926
19594W        W91177  16.859   3.494  13.415
19595W        W91178  27.184  26.751   1.348
19596W        W91179  34.044  20.094   0.417
19597W        W91180   8.181  13.722   1.322
19598W        W91181  30.210  34.054  13.535
19599W        W91182   3.298  27.635  14.348
19600W        W91183  42.376  30.945  11.990
19601W        W91184  30.539  22.087   0.053
19602W        W91185  22.087  20.065  12.929
19603W        W91186  34.100  41.342  12.461
19604W        W91187  12.756  38.377   1.289
19605W        W91188  23.742  18.383  12.979
19606W        W91189  29.057   8.596   0.852
19607W        W91190  31.453   3.129  13.961
19608W        W91191  19.194  39.128  14.369
19609W        W91192  20.476  16.297  14.973
19610W        W91193  40.460  18.431  12.151
19611W        W91194  13.883   4.824  14.831
19612W        W91195   0.888  30.458  10.674
19613W        W91196   7.875  43.012  11.600
19614W        W91197  34.661  39.503  14.562
19615W        W91198  30.241  16.719  13.461
19616W        W91199  29.571  40.550   2.931
19617W        W91200  40.051   5.734  11.128
19618W        W91201  10.097  27.602  12.658
19619W        W91202  36.511   9.106   1.615
19620W        W91203   4.454   7.402  13.484
19621W        W91204  37.538  42.235   3.227
19622W        W91205  43.793   7.693   3.744
19623W        W91206  22.463  42.344  13.824
19624W        W91207  22.677  21.257  11.369
19625W        W91208  27.483  38.794  13.974
19626W        W91209   7.089  40.157  11.083
19627W        W91210  20.215   6.456  12.387
19628W        W91211   7.706  18.159   3.097
19629W        W91212  17.740  36.846  11.654
19630W        W91213  18.839  24.540  12.542
19631W        W91214   9.355  39.562   0.565
19632W        W91215   2.991  40.839  14.123
19633W        W91216  16.057  14.866  11.209
19634W        W91217  11.312   3.312  12.815
19635W        W91218  10.695   4.341  12.460
19636W        W91219  12.039  30.040   2.745
19637W        W91220  19.909  13.512  14.966
19638W        W91221   3.903  23.657   2.201
19639W        W91222  19.790  15.334   0.858
19640W        W91223  27.079  43.230   3.432
19641W        W91224  41.032  12.221   1.414
19642W        W91225  24.614   7.691   2.794
19643W        W91226  12.808  29.709  12.890
19644W        W91227  30.923  16.679   3.713
19645W        W91228  30.100  20.948   2.336
19646W        W91229  13.467  38.491   3.104
19647W        W91230  27.891   8.867  13.995
19648W        W91231   1.118   1.231  14.399
19649W        W91232  20.638  39.441   0.872
19650W        W91233  10.227   1.439  10.584
19651W        W91234  32.364   3.736  13.515
19652W        W91235  38.563   8.232  13.071
19653W        W91236  34.546   7.898   1.247
19654W        W91237   3.463  33.703   3.591
19655W        W91238   4.462  14.643   3.437
19656W        W91239  13.815  31.273  12.606
19657W        W91240   1.254  17.819  13.850
19658W        W91241  12.617  38.663  10.520
19659W        W91242   9.826   1.363  13.455
19660W        W91243   2.027  21.085  11.930
19661W        W91244  37.663  34.725   3.719
19662W        W91245  30.678  24.122   1.802
19663W        W91246   1.460  16.004   1.882
19664W        W91247  30.429  38.923  11.699
19665W        W91248  13.388  42.862   0.701
19666W        W91249  22.028  37.549  10.412
19667W        W91250  16.271   4.698   0.418
19668W        W91251  29.963  15.829  12.138
19669W        W91252   5.737  30.290   1.692
19670W        W91253  10.756   0.766  14.354
19671W        W91254  44.965  23.193  11.954
19672W        W91255  39.416  13.195  10.748
19673W        W91256  10.206   1.295   0.641
19674W        W91257  24.756  20.107  11.434
19675W        W91258  33.137   5.739  12.896
19676W        W91259   2.682  33.549  13.850
19677W        W91260  29.152   6.415   2.531
19678W        W91261   1.756  38.591   2.614
19679W        W91262  15.670   4.502  12.587
19680W        W91263   3.554  28.953  12.795
19681W        W91264  28.796  43.018   0.926
19682W        W91265  14.818  21.648   4.155
19683W        W91266  41.643  12.823   1.482
19684W        W91267   2.103  31.360   2.781
19685W        W91268  37.466  31.060  12.952
19686W        W91269  36.612  34.494   1.213
19687W        W91270  20.258   6.403  11.517
19688W        W91271  44.540  20.558  12.300
19689W        W91272  29.618  17.677   1.696
19690W        W91273   0.471  41.391   4.760
19691W        W91274  14.667  40.979  12.086
19692W        W91275  18.271  15.565  12.440
19693W        W91276  28.941   3.166  13.842
19694W        W91277  17.388  44.753   2.481
19695W        W91278  13.915  36.997   2.292
19696W        W91279  17.701  44.283  12.626
19697W        W91280  22.187  28.565  12.539
19698W        W91281  29.902  37.597   1.122
19699W        W91282  13.229  24.109   2.472
19700W        W91283  44.863  24.702   1.431
19701W        W91284  30.496  20.245   0.796
19702W        W91285  35.902  22.501  13.068
19703W        W91286  36.670  30.030  13.436
19704W        W91287   7.260  32.386   2.648
19705W        W91288  30.826  44.809   0.329
19706W        W91289   8.804   1.091  14.865
19707W        W91290  38.152  37.870   0.817
19708W        W91291  36.046  12.226  13.600
19709W        W91292  34.049  14.324   0.075
19710W        W91293   3.407  39.118   9.771
19711W        W91294  31.226  39.544  14.500
19712W        W91295  34.187  36.532  11.461
19713W        W91296  25.099  24.076  14.238
19714W        W91297   2.989  39.963   2.933
19715W        W91298  42.216  31.445  12.063
19716W        W91299  25.260  30.375   3.213
19717W        W91300  18.577  16.399   0.810
19718W        W91301  11.300   0.961   4.914
19719W        W91302  26.074  15.111  10.681
19720W        W91303   9.306  29.558  11.192
19721W        W91304  10.388  30.430   2.150
19722W        W91305   9.382   4.892  12.198
19723W        W91306  24.233  32.999   3.106
19724W        W91307  12.154   0.027  14.015
19725W        W91308  18.756  16.252   2.349
19726W        W91309  40.502   0.797   3.330
19727W        W91310   2.751  38.258  12.015
19728W        W91311  31.115  39.606   0.350
19729W        W91312   7.862  24.381  14.992
19730W        W91313  12.673  36.114   4.062
19731W        W91314   8.810  25.233  11.661
19732W        W91315  31.628  36.385   3.172
19733W        W91316   8.612  37.509   4.800
19734W        W91317  11.798  33.431  10.644
19735W        W91318  11.558  24.020  11.357
19736W        W91319  11.511  24.102  11.863
19737W        W91320   9.910  32.974   3.323
19738W        W91321   3.333  35.863  13.539
19739W        W91322  34.480   0.045  12.246
19740W        W91323  29.735  37.557  11.043
19741W        W91324  12.086  16.668  10.177
19742W        W91325   0.297   0.881   0.687
19743W        W91326  32.966  15.620   2.005
19744W        W91327  33.483  31.624   1.833
19745W        W91328  10.452  11.123   0.276
19746W        W91329  34.813   6.454   5.011
19747W        W91330  28.976  13.281   0.460
19748W        W91331  43.023  23.101   0.445
19749W        W91332  19.622  40.677  12.167
19750W        W91333   2.669   4.892   2.210
19751W        W91334  20.183   2.441   0.417
19752W        W91335  33.389   3.535   9.527
19753W        W91336  29.076  43.544  14.266
19754W        W91337  13.800  15.318  12.510
19755W        W91338  22.660  17.081  12.531
19756W        W91339  41.872  44.426   0.255
19757W        W91340  35.067  40.960   4.575
19758W        W91341  36.692  14.689  13.352
19759W        W91342  41.788  36.874   0.444
19760W        W91343  16.250  32.124   2.589
19761W        W91344  25.817  44.595  13.364
19762W        W91345  39.012  36.334  11.383
19763W        W91346  11.474   1.536  12.577
19764W        W91347  16.319  11.099  12.134
19765W        W91348  33.127  13.116   3.358
19766W        W91349  15.156  37.367  14.871
19767W        W91350  15.563  30.899  13.168
19768W        W91351  24.446   9.121  12.181
19769W        W91352  14.234   8.679   1.214
19770W        W91353   3.530  21.269  11.054
19771W        W91354  33.625  36.958  13.854
19772W        W91355   4.631  44.029   4.845
19773W        W91356  18.070  41.858   4.759
19774W        W91357  14.285  25.964  13.027
19775W        W91358  16.105  21.586  12.045
19776W        W91359   4.740  16.291   0.313
19777W        W91360  11.272  37.876  13.014
19778W        W91361  33.213  30.407   3.638
19779W        W91362  30.471  37.359   3.208
19780W        W91363  29.978   2.939  13.528
19781W        W91364  28.614  41.402  14.955
19782W        W91365  11.725  35.200   1.944
19783W        W91366  38.488   1.439  14.909
19784W        W91367   0.977  36.605  10.571
19785W        W91368  28.704  19.723   5.065
19786W        W91369   8.257  30.604   3.135
19787W        W91370  25.946  13.399   4.986
19788W        W91371  24.852   3.289  11.252
19789W        W91372  21.741  27.382   2.442
19790W        W91373  17.011  13.589  11.195
19791W        W91374   2.502  29.674   2.964
19792W        W91375  17.603  31.561  12.459
19793W        W91376  29.449   8.155   4.359
19794W        W91377  36.755   4.426   2.707
19795W        W91378   6.182  28.191   3.403
19796W        W91379   7.226  14.800  12.888
19797W        W91380  20.358  30.057   0.726
19798W        W91381  22.864  18.097  13.909
19799W        W91382  16.832  27.710  13.488
19800W        W91383  24.555  16.693   2.920
19801W        W91384  28.646   7.880   4.597
19802W        W91385  35.004  20.583  13.829
19803W        W91386  34.079  10.729   2.400
19804W        W91387   1.015  43.484  12.268
19805W        W91388  42.046  24.353   0.405
19806W        W91389  44.578  16.802   0.085
19807W        W91390  13.718  24.759  14.063
19808W        W91391  37.539   9.897   0.349
19809W        W91392  19.721  43.035   4.170
19810W        W91393   8.367  27.183   0.391
19811W        W91394  36.633  27.665   0.945
19812W        W91395  27.709  14.758  13.032
19813W        W91396  19.002  19.598   4.714
19814W        W91397  30.361   3.720   1.213
19815W        W91398  28.593   2.921   3.767
19816W        W91399   4.825  40.041  10.227
19817W        W91400  22.982  29.101  10.818
19818W        W91401  11.659  25.719  14.382
19819W        W91402  32.991  29.449  10.741
19820W        W91403  13.575  42.881   1.382
19821W        W91404  19.742  18.072   5.172
19822W        W91405  37.661  40.691  12.171
19823W        W91406  36.012  39.449   3.690
19824W        W91407  28.095  32.458  14.417
19825W        W91408  21.765  27.946   3.813
19826W        W91409   2.947   6.648  12.056
19827W        W91410  17.527  26.464   4.717
19828W        W91411  28.944   1.638  13.376
19829W        W91412  10.774  39.365   4.282
19830W        W91413  23.596   7.866  14.396
19831W        W91414  10.857  36.390  13.933
19832W        W91415  42.433  30.017  14.165
19833W        W91416  13.224  34.853   0.755
19834W        W91417  33.539  22.270  11.352
19835W        W91418  30.461   4.003  10.563
19836W        W91419   1.767  40.623  11.987
19837W        W91420  12.634  20.734   1.721
19838W        W91421   1.841  12.875  11.898
19839W        W91422   2.283  20.061   2.872
19840W        W91423  29.867  22.836  14.156
19841W        W91424  13.188  13.818   0.949
19842W        W91425  11.825  23.947   4.468
19843W        W91426  42.928   6.888  12.625
19844W        W91427  27.113  43.857  11.682
19845W        W91428   0.002  11.674  12.562
19846W        W91429  33.309  25.500   2.547
19847W        W91430  36.807   0.797   0.772
19848W        W91431  29.373   0.402  13.918
19849W        W91432  40.001  34.333   2.666
19850W        W91433  40.422   1.352   1.713
19851W        W91434  10.671  14.385   0.788
19852W        W91435   5.239  30.648   2.382
19853W        W91436   3.857  19.029   0.087
19854W        W91437  42.963  17.174   2.162
19855W        W91438  44.715  28.413  11.581
19856W        W91439  31.456  19.806   1.709
19857W        W91440  36.019  18.685   2.627
19858W        W91441  43.411  37.932   0.758
19859W        W91442  24.763  24.098  11.194
19860W        W91443  36.336   8.830  12.461
19861W        W91444  39.067  31.111  14.493
19862W        W91445  11.628  31.069  13.340
19863W        W91446   9.563  18.987   2.220
19864W        W91447   7.484   6.964   3.395
19865W        W91448  34.606  28.483  11.398
19866W        W91449  27.621  41.566  12.999
19867W        W91450  15.979  36.714   1.368
19868W        W91451  16.624  38.371  11.557
19869W        W91452  36.062   0.018   3.813
19870W        W91453  20.617  12.650  12.506
19871W        W91454  21.599  15.918   4.670
19872W        W91455  13.127   6.131   1.427
19873W        W91456  35.624  29.139  13.452
19874W        W91457  31.521  23.716   2.635
19875W        W91458   5.780  12.757  12.150
19876W        W91459  39.908   8.859   4.276
19877W        W91460  31.590   1.281  11.425
19878W        W91461   3.338  22.592  14.586
19879W        W91462  18.293  22.897   3.706
19880W        W91463  36.108  28.466  14.997
19881W        W91464  15.374  34.863   1.851
19882W        W91465  23.163  18.333   3.163
19883W        W91466  12.754  43.358  11.037
19884W        W91467   4.293   1.240   4.227
19885W        W91468  36.619  33.378   2.658
19886W        W91469  18.982  22.677   2.891
19887W        W91470  31.011   1.254   4.097
19888W        W91471  23.765  44.459  14.394
19889W        W91472  26.522  31.488   3.852
19890W        W91473  12.273   4.961  10.620
19891W        W91474  26.738  20.567  13.407
19892W        W91475  33.064  32.636  12.086
19893W        W91476  28.415  35.774  10.730
19894W        W91477  43.067  17.068  10.744
19895W        W91478  26.042  41.096  14.004
19896W        W91479  19.708  29.773  13.497
19897W        W91480  24.549   8.130  12.900
19898W        W91481   9.952  23.650  11.086
19899W        W91482  16.022  24.497   4.254
19900W        W91483  34.962  38.110   2.819
19901W        W91484  17.168  15.251   3.282
19902W        W91485  14.716  15.315   2.720
19903W        W91486  34.937  35.115   4.395
19904W        W91487  23.738  27.981   0.872
19905W        W91488  23.592   6.980  13.457
19906W        W91489  32.950   1.447   3.798
19907W        W91490  12.742  22.575   3.209
19908W        W91491  26.985  29.201   4.651
19909W        W91492  17.722   9.387  13.478
19910W        W91493  11.557  39.450  10.965
19911W        W91494   4.845  31.479   4.766
19912W        W91495  21.623  13.829  10.477
19913W        W91496  33.336  35.352   1.328
19914W        W91497  16.515  10.238   5.009
19915W        W91498  44.107  20.825  12.345
19916W        W91499  22.440  29.049   2.283
19917W        W91500  22.436  11.774   2.856
19918W        W91501  24.057  19.128   2.376
19919W        W91502  38.601  36.246   0.263
19920W        W91503   4.416  22.667   3.692
19921W        W91504   0.328   0.384   0.606
19922W        W91505  38.810   6.265   2.374
19923W        W91506   8.813  42.457  13.897
19924W        W91507  37.367  29.726  14.313
19925W        W91508  13.464  24.068  10.392
19926W        W91509  35.844   6.728   0.828
19927W        W91510  42.557  14.765  11.717
19928W        W91511  34.471  18.575  10.751
19929W        W91512   4.154  24.271  11.578
19930W        W91513  31.057  43.001  11.563
19931W        W91514  27.781  38.103   0.341
19932W        W91515  38.907  30.942   4.613
19933W        W91516   1.749  26.578  14.789
19934W        W91517  11.174   0.746  12.291
19935W        W91518  35.903  39.265  11.298
19936W        W91519  17.343  39.532  13.273
19937W        W91520  21.570  12.176  10.630
19938W        W91521  25.429   1.772  12.033
19939W        W91522   7.042  11.299   3.117
19940W        W91523  32.314   0.389  11.852
19941W        W91524  16.114  38.578   2.129
19942W        W91525  12.800  40.746   0.849
19943W        W91526  19.230  42.018   3.288
19944W        W91527   0.658  13.004   3.314
19945W        W91528  19.501  28.605   3.678
19946W        W91529   6.755  18.205   2.698
19947W        W91530  13.171  10.149  10.290
19948W        W91531  33.375  42.763   0.274
19949W        W91532  24.141  20.539  13.779
19950W        W91533   3.535   4.215  11.459
19951W        W91534  33.629  11.401   3.512
19952W        W91535  31.963  24.273  14.865
19953W        W91536  20.576  32.086   4.288
19954W        W91537  15.177  41.585   4.408
19955W        W91538  27.659  18.439  12.220
19956W        W91539   7.309   5.501  14.962
19957W        W91540  21.036  29.950   1.853
19958W        W91541   4.963   3.874   3.240
19959W        W91542   2.021   1.674  11.657
19960W        W91543  39.752  25.713   0.343
19961W        W91544   0.810  20.515   3.203
19962W        W91545  31.075  27.881  12.000
19963W        W91546   7.914  44.177   2.691
19964W        W91547  29.619   4.646   4.139
19965W        W91548  23.025  32.384  10.638
19966W        W91549  31.930  11.266   3.287
19967W        W91550  44.663  37.837  12.837
19968W        W91551  31.191  25.936   2.515
19969W        W91552  15.217  32.500  14.302
19970W        W91553   3.451  14.198  12.641
19971W        W91554  36.930  30.426   2.737
19972W        W91555  44.877   5.840   1.019
19973W        W91556  23.479   2.871   0.096
19974W        W91557   3.402   1.381   2.202
19975W        W91558  39.923  40.285  13.316
19976W        W91559   4.249  10.580   3.075
19977W        W91560  14.199  23.696  12.580
19978W        W91561   5.412  25.280  11.509
19979W        W91562  23.446  39.794   1.686
19980W        W91563  20.207  28.419   0.415
19981W        W91564  18.438   2.538  12.918
19982W        W91565  31.101  33.125   1.869
19983W        W91566  28.908  35.383   3.193
19984W        W91567   6.266  35.184   3.267
19985W        W91568  44.350   0.967  11.284
19986W        W91569  29.118  42.856   2.915
19987W        W91570   6.170  23.330  10.629
19988W        W91571  30.369   5.410  12.254
19989W        W91572  24.202   4.961  10.663
19990W        W91573  13.588   8.830   0.939
19991W        W91574   0.764  30.657  13.417
19992W        W91575   0.362  18.131   1.772
19993W        W91576  30.111  21.237  13.102
19994W        W91577  28.264   4.697   3.064
19995W        W91578   9.888   6.875  12.258
19996W        W91579  35.155  21.263   2.753
19997W        W91580  38.325  19.277   3.622
19998W        W91581  40.831  30.394  13.377
19999W        W91582  40.032  33.651  11.649
20000W        W91583  14.114  36.599  13.443
20001W        W91584   4.329  14.056  11.152
20002W        W91585   2.266  14.278   3.695
20003W        W91586  25.534   1.892   3.251
20004W        W91587  37.882  29.099   1.613
20005W        W91588  40.861  26.892  14.202
20006W        W91589  29.658   7.907   1.360
20007W        W91590  35.822  41.158   4.017
20008W        W91591   1.125  27.210  11.865
20009W        W91592  29.509  19.589  12.883
20010W        W91593  34.055  31.774  13.846
20011W        W91594  33.591  44.300   0.311
20012W        W91595  13.669  31.360   4.043
20013W        W91596  23.118  13.248   4.011
20014W        W91597  41.391   2.805   4.580
20015W        W91598  23.771  34.246   4.202
20016W        W91599  40.776   0.817   0.053
20017W        W91600  42.288  28.261   0.267
20018W        W91601  32.868  15.074  12.412
20019W        W91602  21.494  28.007   5.359
20020W        W91603  15.391  41.926  11.042
20021W        W91604   1.378  29.059   3.609
20022W        W91605  41.380  29.504  14.888
20023W        W91606  40.123   7.154   3.662
20024W        W91607  44.593   2.878  14.915
20025W        W91608   9.422  34.195  12.064
20026W        W91609   6.466  20.667  11.745
20027W        W91610   8.855  39.817  10.696
20028W        W91611   8.649  39.490   0.736
20029W        W91612  39.082   7.646   4.185
20030W        W91613  24.065  22.303  14.633
20031W        W91614  33.430  10.056  12.068
20032W        W91615  31.120  17.793  13.436
20033W        W91616   3.860   0.157   1.963
20034W        W91617  21.472  31.612  12.024
20035W        W91618   1.769  15.169  13.499
20036W        W91619  36.472   6.906   4.739
20037W        W91620  11.790  35.351   3.784
20038W        W91621  22.087   6.719   0.433
20039W        W91622  42.190   7.763  11.125
20040W        W91623  30.663  41.598  11.009
20041W        W91624  20.719  10.081   4.293
20042W        W91625  12.696  36.998   2.771
20043W        W91626  17.898  29.942   3.639
20044W        W91627  21.756   2.876   0.678
20045W        W91628  38.566  17.288   1.310
20046W        W91629  43.473   8.639  14.380
20047W        W91630  30.995  35.361  10.665
20048W        W91631  44.911   1.477   4.183
20049W        W91632  19.580  31.172  14.980
20050W        W91633  26.963   6.055   4.265
20051W        W91634   2.998  18.294   1.660
20052W        W91635  18.425  14.066  14.766
20053W        W91636  44.445  29.635  13.827
20054W        W91637  44.400   7.460  12.237
20055W        W91638  23.964  43.321  14.101
20056W        W91639  27.554  33.508   0.926
20057W        W91640  12.366  28.718   1.372
20058W        W91641  30.569  44.363  12.953
20059W        W91642   3.312  34.366   2.370
20060W        W91643  14.737  17.195  13.885
20061W        W91644  41.455  15.590  14.383
20062W        W91645   8.153  43.484   0.844
20063W        W91646   0.309   7.121  12.028
20064W        W91647  13.905  24.966  12.278
20065W        W91648  17.251   6.765   3.744
20066W        W91649  30.897  42.900   5.071
20067W        W91650  29.539  42.794  13.548
20068W        W91651  38.880  29.398  10.516
20069W        W91652   0.534   9.090   3.821
20070W        W91653  26.914  44.839  13.454
20071W        W91654  10.599  29.001   4.038
20072W        W91655  17.797   9.667   3.662
20073W        W91656  26.511  44.008   5.020
20074W        W91657   9.398  22.514   2.705
20075W        W91658  28.581  33.603   3.843
20076W        W91659  38.323  24.647  13.003
20077W        W91660   0.557  28.155   3.278
20078W        W91661  24.092  38.077  13.927
20079W        W91662   8.142   7.466  11.570
20080W        W91663  19.722  29.662   0.310
20081W        W91664   2.471  39.391  10.429
20082W        W91665  30.723  13.755   1.897
20083W        W91666  36.372  41.474  13.938
20084W        W91667  27.888  42.212  11.551
20085W        W91668  33.976  10.841   4.600
20086W        W91669  38.833  41.868   4.311
20087W        W91670  39.502  18.071   0.862
20088W        W91671  24.329  13.701  12.293
20089W        W91672  29.595  12.296  13.604
20090W        W91673  25.570  12.186   0.718
20091W        W91674  44.246  24.200  11.499
20092W        W91675  26.193  26.381  12.648
20093W        W91676  32.890  15.905   0.567
20094W        W91677  23.991  16.693  10.837
20095W        W91678  34.498   6.932  12.099
20096W        W91679  14.157  18.781  13.326
20097W        W91680   6.190  38.387   0.910
20098W        W91681   6.268  30.466  11.903
20099W        W91682   1.402   0.023   4.681
20100W        W91683  16.886  33.533   3.717
20101W        W91684  39.138  17.652  11.982
20102W        W91685  28.009   2.454   3.190
20103W        W91686   6.743  20.002   0.821
20104W        W91687  27.159  33.836   3.740
20105W        W91688  38.285   5.741  10.484
20106W        W91689  10.291  41.512  14.529
20107W        W91690  15.714   3.438   2.338
20108W        W91691  16.518  24.368   2.856
20109W        W91692   2.387  32.667  12.018
20110W        W91693  14.191  44.381   4.206
20111W        W91694  13.654   7.407   4.074
20112W        W91695  15.143   0.833   4.533
20113W        W91696  38.515  14.556   1.466
20114W        W91697  10.260  13.210  14.390
20115W        W91698  30.839   3.348   3.391
20116W        W91699  19.046  29.518  10.664
20117W        W91700   5.956  23.260  11.101
20118W        W91701  26.307  13.051  13.512
20119W        W91702  31.193  16.760  12.587
20120W        W91703  14.523  20.074   2.620
20121W        W91704  11.778  39.580  14.821
20122W        W91705  36.003  18.371   0.921
20123W        W91706  16.521  25.298   3.122
20124W        W91707  16.229  35.660   3.235
20125W        W91708  35.814  20.969  12.918
20126W        W91709  28.112   7.242  14.709
20127W        W91710  18.438  35.413   0.389
20128W        W91711  16.178  29.109   1.739
20129W        W91712   6.062   5.642  14.949
20130W        W91713   2.399  33.938   1.412
20131W        W91714  38.811  16.844  14.916
20132W        W91715   6.172  37.359  13.349
20133W        W91716  41.282  31.964  13.047
20134W        W91717  11.682  40.048  11.314
20135W        W91718  33.056   4.935  11.699
20136W        W91719  21.166  23.136  11.457
20137W        W91720  21.490  31.796   3.389
20138W        W91721   3.418  17.083   2.231
20139W        W91722  39.309  43.835   3.199
20140W        W91723  23.036  26.711  10.494
20141W        W91724  20.040  24.108  11.507
20142W        W91725  43.074   6.700   4.894
20143W        W91726  33.495  14.386  11.201
20144W        W91727  27.225  30.136   1.905
20145W        W91728  42.508  12.159  12.981
20146W        W91729  16.295  30.289   5.111
20147W        W91730  37.499  27.314  14.439
20148W        W91731  10.329   4.464  13.584
20149W        W91732  38.488  24.144  14.992
20150W        W91733  38.044   0.552  12.388
20151W        W91734  25.898   4.528  13.411
20152W        W91735  20.706  28.761   4.161
20153W        W91736   0.392   6.916  10.672
20154W        W91737  30.586  16.875   2.008
20155W        W91738  15.566   0.744  13.379
20156W        W91739  29.067  33.167   1.753
20157W        W91740  27.994   4.457   1.792
20158W        W91741   4.774  21.692   3.603
20159W        W91742  12.258  33.091   0.719
20160W        W91743  29.291  23.504   0.788
20161W        W91744   9.202  21.271  13.907
20162W        W91745  35.731  21.289  11.207
20163W        W91746  28.017  35.668  13.308
20164W        W91747  19.531  37.460   2.392
20165W        W91748  37.383  18.068  14.326
20166W        W91749  14.769  43.878  13.838
20167W        W91750   8.292   1.094  14.085
20168W        W91751  22.236  22.573   1.275
20169W        W91752  41.522  14.629   3.486
20170W        W91753   6.777  44.045   3.832
20171W        W91754  42.784  14.141   4.158
20172W        W91755  17.185  10.906   2.848
20173W        W91756  34.618  12.912  13.485
20174W        W91757  13.690  43.987  14.995
20175W        W91758   3.847  43.820   2.147
20176W        W91759  13.109  27.183  12.402
20177W        W91760   8.905  16.083   0.552
20178W        W91761  13.113   9.825   3.257
20179W        W91762  44.003  23.764   2.505
20180W        W91763   8.822  25.594   1.962
20181W        W91764  41.666  18.314   5.273
20182W        W91765   7.729  15.939  11.026
20183W        W91766  27.688  31.036  14.387
20184W        W91767   7.747  11.579  11.999
20185W        W91768  10.380  44.335  10.496
20186W        W91769   8.673  35.466  11.548
20187W        W91770  29.230  16.418  11.965
20188W        W91771  26.012   1.044   4.200
20189W        W91772  22.552  10.631   9.998
20190W        W91773  32.716  17.571  10.760
20191W        W91774  25.437   5.714  13.462
20192W        W91775   3.693  19.747  11.351
20193W        W91776   3.772  22.090  11.145
20194W        W91777  16.736  10.307  14.299
20195W        W91778   0.215  40.891   4.255
20196W        W91779  35.865  20.593   2.212
20197W        W91780  14.210  10.974   3.943
20198W        W91781   2.006  32.997  13.044
20199W        W91782  13.642   1.045  12.137
20200W        W91783  16.802  18.233   1.791
20201W        W91784  41.949  28.001   1.297
20202W        W91785  17.269  10.337   0.552
20203W        W91786  20.578  11.784  11.307
20204W        W91787  36.188  25.607   4.111
20205W        W91788  35.708  38.487  13.615
20206W        W91789  18.627   8.833   4.662
20207W        W91790  44.208  39.968   2.513
20208W        W91791  13.333  30.206   2.175
20209W        W91792  36.145  23.215  14.892
20210W        W91793  35.341   2.270   2.274
20211W        W91794  40.076  43.987   2.142
20212W        W91795  20.257  23.128   2.089
20213W        W91796  33.642  25.194  10.497
20214W        W91797   0.682  41.035  10.841
20215W        W91798   0.857   5.469   3.353
20216W        W91799  41.374  11.413  11.596
20217W        W91800  14.237   8.474   1.692
20218W        W91801  22.994   6.335   1.756
20219W        W91802   5.104  22.190  12.358
20220W        W91803  11.269  39.155  11.731
20221W        W91804  23.637   9.610  12.619
20222W        W91805  27.687  31.402  11.633
20223W        W91806  26.069   5.018   0.489
20224W        W91807   9.778  40.063   1.014
20225W        W91808  37.873  28.115   3.591
20226W        W91809  22.284  23.560   5.060
20227W        W91810  24.959   0.616   0.864
20228W        W91811  10.812  28.145  10.701
20229W        W91812  43.490   3.853   0.502
20230W        W91813  23.508  35.534  12.995
20231W        W91814  44.024   0.429   4.152
20232W        W91815  16.682  36.567  12.962
20233W        W91816  22.566  25.903   4.095
20234W        W91817  18.193  43.921   2.913
20235W        W91818  37.022   4.397   4.632
20236W        W91819  39.190  33.847   2.676
20237W        W91820  10.033   6.397  12.362
20238W        W91821  24.292  28.627   3.316
20239W        W91822  16.060  20.686   0.384
20240W        W91823   3.282   7.761   2.283
20241W        W91824  26.927  36.819   1.410
20242W        W91825  20.140  25.881   4.708
20243W        W91826  23.222  42.446   3.693
20244W        W91827   9.402  27.638  14.819
20245W        W91828  43.509  34.168  11.942
20246W        W91829  40.588  38.896   2.748
20247W        W91830  39.691  21.112   1.019
20248W        W91831   2.191  24.283  12.920
20249W        W91832  40.397  19.233  12.863
20250W        W91833   9.585  28.487   3.306
20251W        W91834  10.262  25.678  10.791
20252W        W91835  39.789   0.900  12.299
20253W        W91836  31.338  15.228   4.347
20254W        W91837  37.799  43.976  10.382
20255W        W91838  17.126  42.864   4.922
20256W        W91839  35.592   6.316  14.897
20257W        W91840  21.472  29.705  12.331
20258W        W91841  14.205  18.296  13.101
20259W        W91842  17.595  44.816  11.419
20260W        W91843  34.813   2.296   2.181
20261W        W91844   9.516  32.591  11.574
20262W        W91845   8.697  37.719   1.753
20263W        W91846  21.606  19.606   4.096
20264W        W91847  41.753  16.252  14.750
20265W        W91848  32.412  39.021   4.176
20266W        W91849  13.770  33.202  13.974
20267W        W91850  19.513  32.687  12.891
20268W        W91851  10.701   4.354  14.367
20269W        W91852   8.192  31.904   3.878
20270W        W91853  13.921  10.210  11.552
20271W        W91854  44.052  39.890  14.024
20272W        W91855  23.108  30.784   1.904
20273W        W91856  30.935  24.536  14.519
20274W        W91857  43.600  33.938  13.525
20275W        W91858  13.652  16.652   2.219
20276W        W91859  35.263   9.942   0.300
20277W        W91860  30.451  30.443  13.540
20278W        W91861   5.171  17.797  14.323
20279W        W91862  43.777  22.028  12.498
20280W        W91863   0.001  36.656  12.200
20281W        W91864  25.715  32.054   1.406
20282W        W91865  33.316  34.194  12.028
20283W        W91866  40.109  21.640   3.206
20284W        W91867  33.088   0.932   4.034
20285W        W91868   6.888  12.684   2.805
20286W        W91869  13.746   9.497   2.331
20287W        W91870  22.693   6.886  13.453
20288W        W91871  17.121  44.736   4.601
20289W        W91872  39.922   2.713   2.146
20290W        W91873  40.423  34.445  14.092
20291W        W91874   8.885   0.598   4.473
20292W        W91875  35.197   2.473   1.826
20293W        W91876   7.800  18.696   3.812
20294W        W91877   0.955  28.524   4.108
20295W        W91878  35.554  22.455  10.617
20296W        W91879  16.458  21.985   4.595
20297W        W91880  32.438  34.004   4.267
20298W        W91881  36.236  28.720   0.420
20299W        W91882  35.916  42.822   3.817
20300W        W91883  44.012  40.607   1.275
20301W        W91884  37.796  21.209  12.344
20302W        W91885   7.284  37.665   4.855
20303W        W91886  14.712   7.318   4.083
20304W        W91887  29.333  20.992   0.347
20305W        W91888  16.981  29.471   0.827
20306W        W91889  26.006   8.138  13.552
20307W        W91890  37.596  17.692  13.369
20308W        W91891  18.206   9.855   4.101
20309W        W91892  37.543  18.283  12.530
20310W        W91893  12.580  31.049  11.193
20311W        W91894  42.288   9.772  12.046
20312W        W91895  43.793  10.048   0.543
20313W        W91896  32.707  38.122   0.787
20314W        W91897  21.647   7.389   4.601
20315W        W91898  41.260   5.333  10.778
20316W        W91899  16.113  32.302   4.872
20317W        W91900   5.443  31.184  12.025
20318W        W91901  35.368   8.906  10.599
20319W        W91902   9.972  22.154  14.317
20320W        W91903   0.474  15.353  14.408
20321W        W91904   4.724  34.378   2.837
20322W        W91905  29.345  37.417   2.403
20323W        W91906   8.755  24.697  13.526
20324W        W91907  30.088  14.741  12.631
20325W        W91908  25.041   3.999  11.182
20326W        W91909  16.049  15.579  10.605
20327W        W91910  29.994  37.578   3.224
20328W        W91911  14.492  41.162   5.045
20329W        W91912   0.728  27.555   1.363
20330W        W91913  32.056  34.130  13.540
20331W        W91914  28.893   1.988   0.434
20332W        W91915  39.348  16.016   2.286
20333W        W91916   8.273   5.747   0.424
20334W        W91917  18.926   7.403   4.941
20335W        W91918  18.301  11.249  11.188
20336W        W91919  20.779  35.823  10.742
20337W        W91920  28.572  33.009  11.525
20338W        W91921   5.267   2.816   4.024
20339W        W91922   8.383  22.464  11.518
20340W        W91923  24.356  38.609   0.271
20341W        W91924  35.480  39.418  14.952
20342W        W91925  28.666  31.643  10.711
20343W        W91926  39.978  12.694   3.775
20344W        W91927  37.728  41.627   2.302
20345W        W91928  10.683  32.941   2.838
20346W        W91929  29.334  40.599  13.818
20347W        W91930  10.785   7.512   4.311
20348W        W91931  43.301  33.103   4.239
20349W        W91932  29.700   3.445   3.877
20350W        W91933   2.279  30.477   1.416
20351W        W91934  21.613  22.789   4.216
20352W        W91935   6.924  14.495  14.240
20353W        W91936  39.521  17.068  12.391
20354W        W91937  28.208  21.786  13.966
20355W        W91938  40.573   1.111  14.309
20356W        W91939   3.794  13.639   1.372
20357W        W91940   9.809  22.669   1.043
20358W        W91941  10.285  43.463  10.752
20359W        W91942  25.081  29.001   0.695
20360W        W91943  14.572  12.625  13.442
20361W        W91944   1.648  23.380  12.163
20362W        W91945  16.070  39.573  10.954
20363W        W91946  35.938   7.304  11.668
20364W        W91947  22.436  42.958   1.384
20365W        W91948  20.481  23.052   4.744
20366W        W91949   1.320  31.042  11.072
20367W        W91950  28.757   7.978   2.742
20368W        W91951  24.943   3.459  14.033
20369W        W91952  32.959  30.690   2.261
20370W        W91953  41.416  41.064   4.220
20371W        W91954   3.356  43.674  12.502
20372W        W91955  32.556  26.222  13.021
20373W        W91956  29.592  42.947   0.011
20374W        W91957  10.607   9.329   3.321
20375W        W91958  28.044  10.010   5.600
20376W        W91959  19.264  11.591   3.501
20377W        W91960  14.233  44.181   3.734
20378W        W91961  41.949   5.320   3.299
20379W        W91962  24.982  28.512  12.220
20380W        W91963   5.154  42.380  11.295
20381W        W91964  34.100  34.053  12.465
20382W        W91965  15.702   8.678  13.815
20383W        W91966  10.424  26.511  12.511
20384W        W91967  35.124   1.890  13.963
20385W        W91968  30.432   0.532   1.003
20386W        W91969  13.423  39.623  12.183
20387W        W91970  44.824  37.548  13.896
20388W        W91971  44.261   1.777   0.880
20389W        W91972   7.891  10.447   0.254
20390W        W91973  13.221  27.456   4.032
20391W        W91974  27.058  12.611  13.964
20392W        W91975  16.812  39.753   1.254
20393W        W91976  36.715  11.726  12.137
20394W        W91977  21.673  24.505  13.040
20395W        W91978  43.846  34.788  13.276
20396W        W91979   9.730  42.372  13.523
20397W        W91980  26.675   0.512   3.111
20398W        W91981  17.080  19.434   0.308
20399W        W91982  36.953  12.195   1.817
20400W        W91983  26.989  16.521  14.806
20401W        W91984  26.192  31.134   0.388
20402W        W91985  34.851  25.607   3.631
20403W        W91986  16.043  28.039   3.820
20404W        W91987  33.024  44.115   1.894
20405W        W91988  40.375   4.646  10.733
20406W        W91989  40.308  31.141  13.089
20407W        W91990  25.735  10.437   2.785
20408W        W91991  21.436  38.621  13.515
20409W        W91992  11.190   4.676   4.868
20410W        W91993   4.735  39.897  14.793
20411W        W91994  16.738  38.376   0.099
20412W        W91995  27.030  23.564  11.813
20413W        W91996  15.159   6.336   1.789
20414W        W91997  40.824  40.065  12.451
20415W        W91998  22.548  44.549   0.020
20416W        W91999   2.159  43.729  13.045
20417W        W92000  18.134  37.785  14.375
20418W        W92001   9.869  14.284  10.528
20419W        W92002  31.150  16.294   1.933
20420W        W92003  43.007  25.579  13.531
20421W        W92004   5.393  16.547  12.927
20422W        W92005  35.808   4.201  11.512
20423W        W92006  27.039   1.899   1.886
20424W        W92007  39.427  33.184   0.801
20425W        W92008  10.262  42.462   2.257
20426W        W92009  18.757  15.623  13.813
20427W        W92010  25.564   6.168  10.722
20428W        W92011  34.296  27.041  14.989
20429W        W92012  44.531  23.926  12.454
20430W        W92013  21.960  42.343  13.960
20431W        W92014  16.874  21.573   1.470
20432W        W92015  38.540  40.514  13.362
20433W        W92016  15.217  26.602  12.351
20434W        W92017  35.136  12.390   3.155
20435W        W92018  38.864  18.009   3.701
20436W        W92019  21.613  13.568   1.263
20437W        W92020  37.731  27.047   1.948
20438W        W92021  15.301  25.466   1.346
20439W        W92022  21.432  26.579   4.617
20440W        W92023  19.995  36.390   1.608
20441W        W92024   0.290  32.082   2.233
20442W        W92025  29.592   6.754  13.374
20443W        W92026  18.681  19.375  10.202
20444W        W92027  40.581  43.692   2.978
20445W        W92028  11.892   7.489   1.381
20446W        W92029  13.509  26.887   2.367
20447W        W92030  34.420   2.699   3.149
20448W        W92031  43.944   2.515  12.135
20449W        W92032  18.628  20.804  13.392
20450W        W92033  29.506   9.969   4.427
20451W        W92034  36.226  33.269   0.638
20452W        W92035  16.719  10.745   4.823
20453W        W92036   3.569   2.451   2.264
20454W        W92037   3.770   0.231   4.945
20455W        W92038  18.731  36.575   4.085
20456W        W92039   2.787  40.772   0.372
20457W        W92040  30.868  15.350   3.605
20458W        W92041  12.101  23.712   3.294
20459W        W92042  22.711  38.340   0.889
20460W        W92043   8.296  26.713   0.809
20461W        W92044   9.648  41.310  12.800
20462W        W92045   8.105  40.340   0.635
20463W        W92046  39.198  44.030  10.483
20464W        W92047   7.986  19.783  11.286
20465W        W92048   3.189  44.476   3.810
20466W        W92049   9.249  31.087   3.269
20467W        W92050   8.174  26.973  13.996
20468W        W92051  27.079  12.635   1.288
20469W        W92052   5.738  12.682   1.839
20470W        W92053  13.825  28.427   0.167
20471W        W92054  43.174  13.339  10.740
20472W        W92055  32.925  32.425   2.708
20473W        W92056  30.281  16.272  11.241
20474W        W92057  32.114  24.260   2.638
20475W        W92058  24.940  18.642  14.851
20476W        W92059  29.525   8.954   3.686
20477W        W92060  30.361  35.820   0.956
20478W        W92061  17.016  40.916  14.851
20479W        W92062  21.410  30.081  13.788
20480W        W92063  30.572  18.322  10.598
20481W        W92064  39.519  34.578  10.742
20482W        W92065  17.000  23.034  10.282
20483W        W92066  17.270  40.491  14.707
20484W        W92067   0.336  21.159   4.053
20485W        W92068  15.594  27.641   3.956
20486W        W92069   8.631  39.315  11.591
20487W        W92070  10.759  34.539  12.523
20488W        W92071   6.560  33.485   2.483
20489W        W92072  14.749  10.973  13.933
20490W        W92073   6.823   1.407  10.660
20491W        W92074  39.593  19.000   1.369
20492W        W92075  16.382   6.775  14.960
20493W        W92076  17.201   9.191  11.543
20494W        W92077  10.353  38.523  10.631
20495W        W92078  37.940  19.661  12.426
20496W        W92079  30.231  32.272   1.228
20497W        W92080  16.702  37.470   0.243
20498W        W92081  33.162   7.321  11.343
20499W        W92082  20.297  36.099   3.390
20500W        W92083  18.488  20.304  13.315
20501W        W92084   6.838   0.399  10.748
20502W        W92085   7.132  44.521  12.045
20503W        W92086   7.321   3.448  11.828
20504W        W92087  34.885  16.805  13.438
20505W        W92088  15.010  32.346  11.129
20506W        W92089  37.642  16.120  10.514
20507W        W92090  23.589   4.365   5.011
20508W        W92091  23.741  10.741  11.593
20509W        W92092   9.207  26.429  12.915
20510W        W92093   3.676  35.375  12.428
20511W        W92094  31.176  39.920   4.489
20512W        W92095  29.441   0.292   2.825
20513W        W92096  11.260   2.962  14.358
20514W        W92097  42.979  36.673   3.706
20515W        W92098  32.007  23.779  14.978
20516W        W92099  24.485  16.903  14.950
20517W        W92100   7.256  34.890   3.699
20518W        W92101   1.658  39.273   1.294
20519W        W92102   6.730  17.989  13.911
20520W        W92103  12.554  28.415  13.457
20521W        W92104  17.624  30.684   3.169
20522W        W92105  30.962  38.739  13.101
20523W        W92106  36.389   1.509  12.902
20524W        W92107  15.920  35.279   4.063
20525W        W92108  18.646  31.378  12.528
20526W        W92109   6.387  35.334  14.657
20527W        W92110  38.526  41.427   2.943
20528W        W92111   1.401  34.580  12.971
20529W        W92112  11.656  24.841   1.501
20530W        W92113  16.430  13.106  10.693
20531W        W92114  28.580  10.788  14.920
20532W        W92115   0.879  25.679   2.294
20533W        W92116  35.554  37.578   3.620
20534W        W92117   5.799  44.954   3.622
20535W        W92118  19.125  43.372   4.698
20536W        W92119  24.212   3.808   2.249
20537W        W92120  16.822  22.572   1.343
20538W        W92121  28.369  33.214   0.749
20539W        W92122  30.982  20.726   4.022
20540W        W92123  10.182   7.533   2.747
20541W        W92124   1.632  17.583  11.048
20542W        W92125  15.180  30.662   0.340
20543W        W92126   1.865  13.535   2.596
20544W        W92127   8.164   9.464  12.314
20545W        W92128  44.135  37.753  12.697
20546W        W92129  34.599   9.600   1.841
20547W        W92130  43.396  35.362  10.954
20548W        W92131  30.053  39.485  14.869
20549W        W92132   7.401  13.511   2.594
20550W        W92133  42.622  16.571  13.880
20551W        W92134   1.704  44.215  12.446
20552W        W92135  12.930  32.085   4.214
20553W        W92136  30.895  39.221   1.259
20554W        W92137  27.777  34.568  11.106
20555W        W92138   9.301  34.888  10.966
20556W        W92139  20.764  20.151   4.903
20557W        W92140   8.738  14.302   2.675
20558W        W92141   6.185  15.285  12.918
20559W        W92142  25.140   5.407  11.063
20560W        W92143  10.851   7.873  10.934
20561W        W92144   5.790  11.611  13.585
20562W        W92145  25.608  29.216   1.410
20563W        W92146  42.295  20.817  11.900
20564W        W92147  35.922  37.319   1.645
20565W        W92148  42.251  18.759  12.642
20566W        W92149  15.369   0.957  14.250
20567W        W92150  34.753  33.552  14.004
20568W        W92151   7.947  29.537  11.589
20569W        W92152  14.358  15.313  14.838
20570W        W92153   6.166  27.663   4.517
20571W        W92154  11.419   5.895   1.880
20572W        W92155   5.460   1.363  12.422
20573W        W92156  26.321  15.346   2.561
20574W        W92157  41.493  42.783   0.295
20575W        W92158  11.125  32.167  12.472
20576W        W92159  30.239  21.839  14.419
20577W        W92160  40.008  10.867  13.669
20578W        W92161  39.547   1.282  14.927
20579W        W92162   1.286  36.291   2.377
20580W        W92163  36.307  14.065   4.972
20581W        W92164  14.373   4.184   3.136
20582W        W92165   4.632  43.285  13.549
20583W        W92166  29.942  16.796   2.865
20584W        W92167  18.773  35.889  11.448
20585W        W92168  41.411   1.415   2.723
20586W        W92169  38.825  40.817   1.067
20587W        W92170  40.385  14.666   3.862
20588W        W92171  15.681  16.514   1.798
20589W        W92172  13.232  23.928   4.445
20590W        W92173  41.951  15.867   0.074
20591W        W92174  24.127   3.192   1.398
20592W        W92175  13.047  36.978   3.664
20593W        W92176  38.823  33.947  10.511
20594W        W92177   3.012  19.734   3.255
20595W        W92178  40.880  34.019   4.633
20596W        W92179  11.349   5.174  13.978
20597W        W92180   3.761   4.106  12.044
20598W        W92181  39.747  40.723   0.056
20599W        W92182  36.827  20.092   0.757
20600W        W92183  11.710  17.211   0.958
20601W        W92184   9.678   5.546   2.877
20602W        W92185   6.347  18.022  13.376
20603W        W92186  21.866  17.286  12.028
20604W        W92187  19.401  28.757  12.556
20605W        W92188  26.897  31.138   3.228
20606W        W92189  15.136  36.626  10.821
20607W        W92190  27.161   1.002  12.136
20608W        W92191  22.798  33.822   2.725
20609W        W92192  16.540  30.577   0.760
20610W        W92193  13.302   7.451   3.277
20611W        W92194  21.549  42.960   1.311
20612W        W92195  35.343   8.969   1.416
20613W        W92196   7.775  22.118   1.335
20614W        W92197  26.084  26.395  10.733
20615W        W92198  21.452   7.686   4.977
20616W        W92199  17.572  41.962   3.696
20617W        W92200  43.418  32.401   2.981
20618W        W92201  24.865  19.511   3.358
20619W        W92202  43.106  44.481   5.129
20620W        W92203   5.254  43.520   4.631
20621W        W92204  21.124  19.291   0.871
20622W        W92205   2.291  28.506  12.724
20623W        W92206   1.249   1.185   1.343
20624W        W92207  34.247   8.758   1.818
20625W        W92208  26.607   8.621   5.175
20626W        W92209  26.154   5.072   0.991
20627W        W92210  24.145   5.252   0.892
20628W        W92211   0.898  21.336  12.607
20629W        W92212  14.146  35.030   5.101
20630W        W92213  19.690  37.543  14.969
20631W        W92214  19.790   3.842   2.867
20632W        W92215  42.474  25.067  10.760
20633W        W92216  23.943  10.897  13.340
20634W        W92217  42.473  34.621   2.818
20635W        W92218   5.299  13.358  13.484
20636W        W92219  16.044   2.586  14.450
20637W        W92220  40.115  19.600  11.575
20638W        W92221  35.839  35.089   1.937
20639W        W92222  42.848  34.089  11.412
20640W        W92223  16.691  38.651   0.979
20641W        W92224  24.182  28.943   4.695
20642W        W92225  33.221  26.437   2.343
20643W        W92226  12.342  13.781   0.161
20644W        W92227  29.404  43.781   1.177
20645W        W92228   0.271  28.880   1.829
20646W        W92229  38.729  23.111   3.960
20647W        W92230  39.099   1.252   0.757
20648W        W92231   2.726  39.981   5.139
20649W        W92232  28.165  12.068  11.215
20650W        W92233  18.126  20.671  10.716
20651W        W92234  18.266   9.812  11.598
20652W        W92235  31.916   3.333  12.581
20653W        W92236  21.704  38.543  12.525
20654W        W92237   9.151   0.047  14.486
20655W        W92238   4.753  27.967  11.091
20656W        W92239  29.919  42.601  14.776
20657W        W92240   6.857  18.370   0.227
20658W        W92241  16.359   9.444   4.019
20659W        W92242  13.806  41.929  11.776
20660W        W92243  25.995   3.356  12.837
20661W        W92244  26.059  28.955  12.902
20662W        W92245  17.332  13.917   1.102
20663W        W92246  15.250   4.713   1.274
20664W        W92247  36.874  30.006   0.930
20665W        W92248  28.101   7.793   4.705
20666W        W92249  14.525  16.601  12.990
20667W        W92250  31.984  28.592  12.432
20668W        W92251  43.536  14.443   4.550
20669W        W92252   3.822  24.914   2.805
20670W        W92253  23.448  38.844  13.094
20671W        W92254  34.302  36.060   0.356
20672W        W92255  32.043   2.299  13.150
20673W        W92256  40.996  35.328  10.648
20674W        W92257   7.849   2.429  10.525
20675W        W92258  23.338   7.246  13.838
20676W        W92259  39.945  13.570  13.439
20677W        W92260  17.835   2.385  14.345
20678W        W92261   1.947   0.515  14.780
20679W        W92262   2.343  36.453  12.889
20680W        W92263  19.418  43.236   3.797
20681W        W92264  19.055   0.559   0.329
20682W        W92265  34.074  35.472   3.906
20683W        W92266  22.795  34.526  10.844
20684W        W92267  16.589  23.233  14.327
20685W        W92268  43.476  15.710  14.802
20686W        W92269  22.083   2.517   0.447
20687W        W92270  30.021  16.616   0.779
20688W        W92271   0.436  25.988   1.342
20689W        W92272  11.375  10.314   0.576
20690W        W92273  26.185   0.800   2.842
20691W        W92274  20.111  22.926   3.630
20692W        W92275  44.310   0.619  12.962
20693W        W92276  21.269  11.666  13.988
20694W        W92277  42.053  17.090  10.595
20695W        W92278  27.353  22.624   0.437
20696W        W92279   7.932   1.747  12.915
20697W        W92280  21.243  33.149  12.469
20698W        W92281  36.574  33.524  10.817
20699W        W92282   4.453  26.178  12.865
20700W        W92283  14.743  43.250  11.067
20701W        W92284  32.082  17.122  12.192
20702W        W92285  28.642   3.274  10.773
20703W        W92286  33.433  12.790   4.181
20704W        W92287  38.507   3.699   1.271
20705W        W92288  41.229  17.641   1.530
20706W        W92289   9.382   7.373   1.687
20707W        W92290  14.521  38.930  13.966
20708W        W92291  43.034  42.000   0.843
20709W        W92292   4.251  28.103   1.511
20710W        W92293  14.201  44.664   2.120
20711W        W92294  19.603  20.755  13.390
20712W        W92295   9.612   5.238  11.101
20713W        W92296  25.365  10.293   9.781
20714W        W92297  35.304  22.618   2.864
20715W        W92298  12.094  37.013   0.272
20716W        W92299   1.935  37.161   3.340
20717W        W92300   8.804  19.757   0.396
20718W        W92301  20.083  24.653   2.904
20719W        W92302   9.906  23.966   0.536
20720W        W92303   2.645  16.176   3.728
20721W        W92304  13.836  34.456  13.544
20722W        W92305   3.474  18.242   0.325
20723W        W92306  22.980  19.613   3.690
20724W        W92307   5.050  43.480   3.671
20725W        W92308  27.258  26.149   2.165
20726W        W92309  16.867  12.755  14.120
20727W        W92310  10.119  24.779  10.666
20728W        W92311  13.020  16.253   2.568
20729W        W92312  29.917  13.328   0.807
20730W        W92313   2.552  14.080   2.756
20731W        W92314  29.992  22.323  10.820
20732W        W92315  12.311   9.397  11.974
20733W        W92316  22.021  29.008   0.375
20734W        W92317   6.542  11.188   4.129
20735W        W92318  19.641  22.594   4.419
20736W        W92319   1.776  30.942   4.548
20737W        W92320  28.063  17.284   4.049
20738W        W92321  24.046  24.889   3.432
20739W        W92322  42.339  44.265   0.492
20740W        W92323  30.196  19.882   0.555
20741W        W92324  25.925  13.630  12.977
20742W        W92325  18.102   7.343  12.854
20743W        W92326   6.653   8.291  10.642
20744W        W92327  40.552   1.220   2.681
20745W        W92328  43.250   7.257   0.359
20746W        W92329   8.080  15.430   3.756
20747W        W92330  15.774   7.138   0.845
20748W        W92331  41.859   5.528   3.780
20749W        W92332   2.771   8.421  13.333
20750W        W92333  43.783  30.651   4.632
20751W        W92334  32.016   3.199  14.132
20752W        W92335  29.478  33.134  14.197
20753W        W92336  42.038  15.322   1.296
20754W        W92337   9.710  38.820   0.177
20755W        W92338   7.962  27.509   0.250
20756W        W92339  39.049  21.791   1.675
20757W        W92340  24.072  37.470   3.235
20758W        W92341  27.154  29.697   4.663
20759W        W92342  32.030  17.120   2.101
20760W        W92343   8.825  38.881  13.819
20761W        W92344  19.438  25.493   1.321
20762W        W92345  42.508  15.254  10.625
20763W        W92346  44.385  15.125   0.843
20764W        W92347  20.663  29.222   1.709
20765W        W92348  12.128  13.846  13.014
20766W        W92349  24.930  43.224  13.155
20767W        W92350   7.220  12.184  12.622
20768W        W92351  13.549  23.519   4.403
20769W        W92352  39.537  31.758   3.888
20770W        W92353  35.223  38.759  12.317
20771W        W92354  24.002   2.907   0.197
20772W        W92355  32.843  31.964   3.652
20773W        W92356  26.713  39.815   4.366
20774W        W92357  10.332  13.091  12.995
20775W        W92358  37.099  19.062  13.319
20776W        W92359  39.462  31.115  13.110
20777W        W92360  32.335  44.495   4.444
20778W        W92361  33.425   9.284   4.168
20779W        W92362  43.788  24.598  13.950
20780W        W92363  37.513  26.186  12.151
20781W        W92364   5.259  25.261  13.927
20782W        W92365   1.280  22.026  14.327
20783W        W92366   8.908  12.508  11.966
20784W        W92367  16.758  20.599  13.808
20785W        W92368  12.598  11.673   4.449
20786W        W92369  44.379  15.686  10.749
20787W        W92370   0.239  44.393   4.286
20788W        W92371  17.955   5.907   3.113
20789W        W92372  29.883  13.211   4.371
20790W        W92373  23.602  15.008  14.349
20791W        W92374  38.160  16.656  12.670
20792W        W92375   3.702   9.089   1.114
20793W        W92376  40.928  34.984   3.661
20794W        W92377  24.366   3.508   4.204
20795W        W92378  33.830  44.769   3.304
20796W        W92379   6.296  38.745   3.004
20797W        W92380  44.229   3.206  11.672
20798W        W92381   8.804  23.159   4.353
20799W        W92382  10.358  27.421   3.860
20800W        W92383  25.182  33.841   1.882
20801W        W92384  42.659  28.532   2.684
20802W        W92385  30.411  32.955  14.736
20803W        W92386  32.370  42.115  12.493
20804W        W92387  28.940  10.218  12.890
20805W        W92388  14.062  25.722   3.684
20806W        W92389  30.935  23.281   0.830
20807W        W92390  16.277  16.050   1.344
20808W        W92391  24.831  31.441  14.867
20809W        W92392  41.736   8.665   4.025
20810W        W92393  22.209  12.817  12.000
20811W        W92394  10.225  39.801   2.725
20812W        W92395  34.839  12.178   2.788
20813W        W92396  42.277  22.450   3.105
20814W        W92397  20.035  11.672  13.666
20815W        W92398  18.283  42.349   4.824
20816W        W92399  19.301  37.955  12.360
20817W        W92400  37.864   3.309  12.092
20818W        W92401  16.643  18.064  11.158
20819W        W92402  10.378  31.576   1.452
20820W        W92403  22.703  27.602   0.157
20821W        W92404  36.084  12.760   2.632
20822W        W92405  22.523  22.790  11.558
20823W        W92406  12.168  26.053  11.104
20824W        W92407  38.573  41.539  11.251
20825W        W92408  38.745   4.249  12.058
20826W        W92409  16.111  30.242   4.357
20827W        W92410  43.338  42.400   3.110
20828W        W92411  30.504  30.415  10.574
20829W        W92412  17.098  42.791  13.949
20830W        W92413  13.369  14.720   3.884
20831W        W92414  39.755   5.801   4.996
20832W        W92415  37.778  32.052   2.491
20833W        W92416  43.171  26.284  11.043
20834W        W92417   5.268   0.754   2.189
20835W        W92418  15.356  42.550   1.238
20836W        W92419   1.934  39.378   4.972
20837W        W92420   5.237  28.551   1.497
20838W        W92421  14.211  24.635  10.511
20839W        W92422  21.772  39.566   1.881
20840W        W92423  22.063  26.007   4.668
20841W        W92424  24.181   9.813  14.389
20842W        W92425  16.883  22.430  11.355
20843W        W92426  16.612  42.471   3.299
20844W        W92427   9.184  31.650  14.397
20845W        W92428  29.417  26.615  10.019
20846W        W92429  30.343  27.525   3.615
20847W        W92430  36.929  23.920  12.058
20848W        W92431  39.400   4.071   2.194
20849W        W92432  17.121  13.267   4.541
20850W        W92433  15.400  23.870   1.205
20851W        W92434  15.355  38.519   0.431
20852W        W92435  44.921   7.929  13.390
20853W        W92436   2.840  35.031  12.421
20854W        W92437  35.041  17.712   3.731
20855W        W92438  15.611  33.047  12.138
20856W        W92439  40.855  10.393  13.987
20857W        W92440  29.755  10.650  11.065
20858W        W92441  23.553  25.142  11.430
20859W        W92442  40.032  21.555   1.817
20860W        W92443  37.328  22.046   3.899
20861W        W92444  12.801  25.564  12.888
20862W        W92445  24.284  32.064  13.594
20863W        W92446  11.464  19.707  13.022
20864W        W92447  13.279  39.583   3.711
20865W        W92448  14.637   7.383   2.252
20866W        W92449  40.243  18.589  12.588
20867W        W92450  13.573  21.395  12.342
20868W        W92451  34.751  31.486  12.000
20869W        W92452  41.723   2.390   4.550
20870W        W92453  31.572   1.750   0.801
20871W        W92454  26.882   3.965   0.050
20872W        W92455  31.471  32.195  13.551
20873W        W92456  30.240   2.905   2.778
20874W        W92457  42.382   5.889   2.341
20875W        W92458  30.668   9.380  10.656
20876W        W92459  32.021   5.413  14.884
20877W        W92460   2.864  39.476  13.420
20878W        W92461  16.357  30.409  12.473
20879W        W92462  35.871  39.288  11.799
20880W        W92463  35.996   3.481   3.672
20881W        W92464  12.874  21.577   3.116
20882W        W92465  22.512   1.004  12.566
20883W        W92466  21.117  43.956   0.446
20884W        W92467  18.544  21.944   3.184
20885W        W92468   9.128  36.824   2.435
20886W        W92469  16.754   7.722  12.431
20887W        W92470  23.697  22.906  11.516
20888W        W92471  32.105  36.956   1.075
20889W        W92472  18.671  16.767   2.244
20890W        W92473   6.625  43.249  12.125
20891W        W92474  22.062  11.600   1.884
20892W        W92475  20.966  22.018  14.867
20893W        W92476  32.942  42.907  13.044
20894W        W92477  34.466  22.202   1.185
20895W        W92478  33.534   9.274   0.060
20896W        W92479  29.954   7.647  13.775
20897W        W92480  20.466  44.286   3.720
20898W        W92481  28.658  17.217  10.727
20899W        W92482   3.653  32.614   2.860
20900W        W92483  26.098  32.486  13.313
20901W        W92484  31.187  33.345  11.965
20902W        W92485  17.496  37.046   2.124
20903W        W92486  34.295   0.523   0.916
20904W        W92487  30.477  34.914  12.931
20905W        W92488   2.357   4.869  13.419
20906W        W92489  33.266  29.623  12.031
20907W        W92490  24.129  32.574  12.420
20908W        W92491  37.985   3.198  13.475
20909W        W92492  30.135  21.068   0.038
20910W        W92493  44.860  11.645  10.851
20911W        W92494  12.664  40.251  13.808
20912W        W92495  13.709  40.828   0.840
20913W        W92496   9.312   7.409   3.569
20914W        W92497  41.920   0.005  14.975
20915W        W92498  26.748  29.338  14.143
20916W        W92499   0.724  37.548  13.534
20917W        W92500  27.061  38.450   0.880
20918W        W92501  38.501  14.277  12.555
20919W        W92502  36.819  19.789  10.449
20920W        W92503  32.824  29.728  12.712
20921W        W92504  19.162  21.643   2.369
20922W        W92505  26.413  42.554  10.014
20923W        W92506   8.970  44.250   5.087
20924W        W92507  27.297  40.044   1.277
20925W        W92508  38.838  14.581  13.793
20926W        W92509  11.277  25.793  11.938
20927W        W92510  15.785   8.198  10.644
20928W        W92511   8.854  42.411   2.772
20929W        W92512  27.451  44.332   0.651
20930W        W92513  30.407  12.201   3.162
20931W        W92514   8.302  15.565   0.196
20932W        W92515   3.764  11.531  13.901
20933W        W92516  43.080  20.964   0.738
20934W        W92517  36.176   9.066   0.218
20935W        W92518  31.547  40.413   3.811
20936W        W92519  32.182  17.211   4.687
20937W        W92520  41.510  19.592   0.948
20938W        W92521  39.968   0.324   1.707
20939W        W92522  22.093  28.488  10.651
20940W        W92523  38.565  30.617  12.456
20941W        W92524  12.605  17.052   4.577
20942W        W92525  27.796  21.104  14.202
20943W        W92526  38.815  36.638  14.935
20944W        W92527  43.375  24.081   0.417
20945W        W92528  38.886  11.226   3.730
20946W        W92529  37.425  42.412   1.359
20947W        W92530  37.971  23.192  12.867
20948W        W92531  31.145  19.993  14.238
20949W        W92532  26.243  35.328   4.693
20950W        W92533  38.887  41.826   1.704
20951W        W92534  40.929  19.809   4.401
20952W        W92535  33.655  11.199  14.483
20953W        W92536  35.372  41.917  14.951
20954W        W92537  16.562  41.806   2.752
20955W        W92538  27.402  13.091   4.036
20956W        W92539  32.725   3.459   1.409
20957W        W92540  44.146   1.639  10.691
20958W        W92541  26.107   7.230   3.046
20959W        W92542  22.558  10.392   2.775
20960W        W92543  34.924  29.634   2.287
20961W        W92544  29.997  21.083  12.114
20962W        W92545  43.304   9.305  11.182
20963W        W92546   4.949   4.210   3.641
20964W        W92547  19.505  11.981  10.749
20965W        W92548  10.009  39.346   2.681
20966W        W92549   3.191  29.030  12.431
20967W        W92550  35.082  41.955  13.040
20968W        W92551  34.717  42.648  13.542
20969W        W92552  35.807  26.447   1.529
20970W        W92553  13.904   3.034  13.428
20971W        W92554  23.760  38.790  13.498
20972W        W92555   1.073  15.553   4.084
20973W        W92556  33.520  35.622  12.698
20974W        W92557  38.823  28.676  11.609
20975W        W92558   2.614  16.010  12.536
20976W        W92559  41.532   0.767  12.036
20977W        W92560   4.184  35.504  12.455
20978W        W92561  16.593   6.401  10.575
20979W        W92562  16.834  24.414  10.238
20980W        W92563  13.668  10.530  12.909
20981W        W92564  16.808   5.129  12.039
20982W        W92565  26.624  36.573  14.370
20983W        W92566  24.536  41.498   3.650
20984W        W92567   1.629  37.629   3.299
20985W        W92568  25.147  10.712  14.985
20986W        W92569  39.018  33.943   3.145
20987W        W92570  16.239  10.543   3.047
20988W        W92571  39.451   9.751  12.287
20989W        W92572  40.903   2.967  14.421
20990W        W92573  33.331  44.513   0.946
20991W        W92574  23.157  15.707  12.461
20992W        W92575   2.729   6.385   2.370
20993W        W92576  24.642  38.005   2.290
20994W        W92577  23.216  28.229   1.776
20995W        W92578  19.025  15.191  14.802
20996W        W92579  41.496  24.997  11.544
20997W        W92580   6.228   7.951  13.118
20998W        W92581   4.164  23.919   1.753
20999W        W92582  16.733  30.602   1.269
21000W        W92583  13.065  19.510   2.811
21001W        W92584  30.179   3.419  13.342
21002W        W92585   7.246  15.216   3.276
21003W        W92586  16.191  34.819   5.008
21004W        W92587  20.142  44.114   9.950
21005W        W92588  43.723  35.536   4.168
21006W        W92589   4.761  41.013  11.148
21007W        W92590  28.868  30.077   2.523
21008W        W92591   6.320  20.336  10.927
21009W        W92592  15.661  30.470   3.205
21010W        W92593  33.657  19.285   1.308
21011W        W92594  33.989  27.659   0.455
21012W        W92595  31.018  12.738  10.918
21013W        W92596  44.581  41.835   3.647
21014W        W92597  12.030  17.050  11.013
21015W        W92598   2.628  30.311  12.958
21016W        W92599  14.545   0.023   2.736
21017W        W92600  44.680   7.847  13.852
21018W        W92601  43.026   2.522  11.177
21019W        W92602  19.585  24.429   9.765
21020W        W92603   3.725   4.049   1.577
21021W        W92604  15.709  10.240  11.852
21022W        W92605  17.480  19.095  10.716
21023W        W92606  37.984  39.854  13.341
21024W        W92607  31.579  37.717   2.164
21025W        W92608  24.992   2.224  11.493
21026W        W92609  19.609   1.248  12.925
21027W        W92610  20.832   1.497   4.508
21028W        W92611   4.985  33.005  12.435
21029W        W92612  41.813  24.741  14.023
21030W        W92613  43.853   8.308  14.458
21031W        W92614  38.170  14.908   0.713
21032W        W92615  17.117  11.943  11.802
21033W        W92616  15.618  23.147   2.338
21034W        W92617  18.404   7.315   4.834
21035W        W92618  30.549   2.845  14.973
21036W        W92619   7.503  29.938   3.254
21037W        W92620  19.066  33.944  13.626
21038W        W92621  14.491  24.930  12.832
21039W        W92622   6.117  12.083  14.268
21040W        W92623  44.779   5.637   0.550
21041W        W92624  22.137  40.505  14.423
21042W        W92625  14.587  44.273  11.230
21043W        W92626  19.569  17.734  13.474
21044W        W92627  14.204  43.697  14.328
21045W        W92628  20.614  31.877   2.259
21046W        W92629  25.714  43.316   3.109
21047W        W92630   7.354  44.304   4.170
21048W        W92631  37.342  12.799  13.316
21049W        W92632  35.651  40.449  14.676
21050W        W92633  23.774  31.986  13.591
21051W        W92634   2.519  17.185   9.956
21052W        W92635  16.593  37.768   3.989
21053W        W92636  25.345  16.211   2.677
21054W        W92637  13.076  31.043  11.104
21055W        W92638  31.498  14.668   2.549
21056W        W92639  14.340   4.343   4.934
21057W        W92640  19.150  42.572  10.658
21058W        W92641  11.897  41.926  12.790
21059W        W92642  24.195  20.041  11.577
21060W        W92643  16.674  13.154  13.878
21061W        W92644  27.172   5.678   1.392
21062W        W92645  30.818   2.352   2.345
21063W        W92646   0.298  29.116  12.173
21064W        W92647  19.092  36.545  14.836
21065W        W92648  25.555  26.704  13.925
21066W        W92649  42.497  21.128   4.873
21067W        W92650  30.367  21.421   1.184
21068W        W92651  42.136  39.821   4.131
21069W        W92652  31.044  17.539  11.071
21070W        W92653  17.299  20.008  14.435
21071W        W92654  10.642  22.217  13.358
21072W        W92655  16.133  29.004   4.610
21073W        W92656  11.272  24.452   1.535
21074W        W92657  24.743  35.312   3.115
21075W        W92658  13.906  11.699  12.100
21076W        W92659  18.186  21.767   1.906
21077W        W92660  29.458  15.800  13.987
21078W        W92661  22.558  16.553   5.105
21079W        W92662  23.660  35.288   2.670
21080W        W92663  17.635  22.566   3.198
21081W        W92664  41.367   3.784  14.403
21082W        W92665  17.844  18.684  13.335
21083W        W92666  22.481  22.186  13.013
21084W        W92667   6.784   4.306  10.715
21085W        W92668  34.652  28.973  13.544
21086W        W92669  18.301  43.720  13.656
21087W        W92670   6.266  26.072   4.403
21088W        W92671  36.526  40.372  14.741
21089W        W92672  23.465   9.904  11.398
21090W        W92673  28.019  25.530  14.401
21091W        W92674  22.581  37.668   0.400
21092W        W92675  12.726  14.702  11.462
21093W        W92676  33.861  30.003  13.406
21094W        W92677   9.011  16.207   2.854
21095W        W92678   3.320   3.738  11.464
21096W        W92679   2.611  35.620   3.687
21097W        W92680  32.981   2.005   2.776
21098W        W92681   7.746  41.906   4.058
21099W        W92682  21.528  27.100   2.827
21100W        W92683  13.121  26.706  11.466
21101W        W92684  21.310  16.759   0.705
21102W        W92685  25.668  16.814   0.223
21103W        W92686  15.074   2.578   3.734
21104W        W92687  29.160  16.818   1.323
21105W        W92688  28.145  28.271  11.269
21106W        W92689   3.650  10.063   2.672
21107W        W92690  23.718  43.669   4.568
21108W        W92691  28.861  20.758   9.805
21109W        W92692   1.240  43.418  10.611
21110W        W92693  34.945   2.945   1.811
21111W        W92694  30.496  18.059   4.712
21112W        W92695  13.603   4.292  13.429
21113W        W92696   0.573  13.921  14.487
21114W        W92697  18.521   2.967   0.359
21115W        W92698  16.200  25.664   2.917
21116W        W92699  44.944   6.224  12.592
21117W        W92700  17.235  18.920  13.041
21118W        W92701  37.145  37.580  14.079
21119W        W92702  12.292   1.667  13.080
21120W        W92703   1.429  24.723  13.763
21121W        W92704  40.509  41.295  13.255
21122W        W92705   4.192  36.877  11.533
21123W        W92706  29.730   8.345  11.593
21124W        W92707  37.831  39.537   2.670
21125W        W92708   8.226  35.998   0.877
21126W        W92709  14.233  25.115   0.735
21127W        W92710  12.113  42.436  13.965
21128W        W92711  43.596   2.157  13.018
21129W        W92712  37.507   0.479  12.630
21130W        W92713  16.230  40.380  14.284
21131W        W92714   6.418   7.241   0.977
21132W        W92715   3.889   4.495   1.860
21133W        W92716  20.667  19.563   0.810
21134W        W92717   6.977   0.112  11.160
21135W        W92718   3.148  27.517   2.813
21136W        W92719  42.410  32.110  12.157
21137W        W92720   9.025   9.852   2.556
21138W        W92721  14.937  43.454   3.622
21139W        W92722  41.931  41.865   1.417
21140W        W92723  19.725  22.608  11.680
21141W        W92724  11.817  21.036  11.530
21142W        W92725  32.680   8.820  12.130
21143W        W92726  35.399  43.772   0.492
21144W        W92727  35.922  20.593   4.774
21145W        W92728  29.510  21.320  10.215
21146W        W92729   9.144  36.848  12.474
21147W        W92730  25.682  19.285   0.963
21148W        W92731  11.213  10.908   0.984
21149W        W92732  26.212  44.825  11.697
21150W        W92733  34.315  13.623   0.961
21151W        W92734  13.114  14.658  12.462
21152W        W92735  23.649  39.375   1.220
21153W        W92736   7.074  27.686   3.376
21154W        W92737  31.469   8.495   1.451
21155W        W92738  34.519  41.809   2.614
21156W        W92739  38.955  25.152   1.667
21157W        W92740  12.223  41.535  11.052
21158W        W92741  36.337  10.967  13.281
21159W        W92742  36.014  22.731  10.763
21160W        W92743   3.654  11.006  13.898
21161W        W92744  39.445  43.711  14.422
21162W        W92745   7.253  36.768   2.914
21163W        W92746  36.636  34.148  12.403
21164W        W92747  22.295  24.695  12.454
21165W        W92748  43.049  12.628   1.160
21166W        W92749  34.877   1.892   1.815
21167W        W92750  20.091  34.308   4.781
21168W        W92751  13.683  37.168  10.547
21169W        W92752  37.410  33.365   2.958
21170W        W92753  43.258  39.755   3.567
21171W        W92754  36.351  23.185   4.889
21172W        W92755  34.139  15.787  11.264
21173W        W92756  18.535  43.952  14.221
21174W        W92757  15.117  31.868  11.900
21175W        W92758  35.042   5.784   0.784
21176W        W92759  21.077  44.794  14.756
21177W        W92760   2.964  43.812   2.380
21178W        W92761  31.575  20.046  10.846
21179W        W92762  12.144  21.791   4.241
21180W        W92763  19.367  27.252   3.124
21181W        W92764  39.702  17.576   0.843
21182W        W92765   5.941   0.344   0.421
21183W        W92766  42.455  23.313  12.082
21184W        W92767   8.312   9.310  13.901
21185W        W92768  32.453  22.804  13.546
21186W        W92769  19.047  40.387  12.899
21187W        W92770  36.656  12.226  11.394
21188W        W92771  42.873  25.384   4.989
21189W        W92772  41.929   9.548   4.103
21190W        W92773  28.835  42.659  11.313
21191W        W92774   1.240  12.183  10.610
21192W        W92775   1.759  14.362   4.354
21193W        W92776  39.606  18.391   3.390
21194W        W92777  42.271  16.295   3.972
21195W        W92778  36.326   6.911   2.645
21196W        W92779  14.129  29.160   2.335
21197W        W92780   7.609  19.231  10.687
21198W        W92781   4.520   2.415   3.324
21199W        W92782  20.679  44.034   4.151
21200W        W92783  33.728  10.244  11.435
21201W        W92784  19.763  35.938  11.113
21202W        W92785   5.674  37.698  10.684
21203W        W92786   6.990   5.933   4.210
21204W        W92787  39.351  16.837   4.784
21205W        W92788  42.751  11.228   2.245
21206W        W92789  18.775  19.942  11.598
21207W        W92790  36.539   4.237  13.800
21208W        W92791  29.234  18.577   3.300
21209W        W92792  18.331  34.238  11.370
21210W        W92793  40.554  40.340  11.678
21211W        W92794   9.666  16.267  13.209
21212W        W92795  24.437  35.616  11.225
21213W        W92796   7.215  30.980  13.607
21214W        W92797  38.297  42.378   2.355
21215W        W92798  12.398   8.290  11.392
21216W        W92799  20.503   4.214  11.125
21217W        W92800  10.854  28.931  12.950
21218W        W92801   1.015   2.357  10.746
21219W        W92802  44.871  35.455   3.159
21220W        W92803  23.222  27.046   3.354
21221W        W92804  42.049  42.446  11.190
21222W        W92805  25.178  24.914   2.162
21223W        W92806  13.157  18.076  12.950
21224W        W92807   4.972  16.488  14.241
21225W        W92808  26.480  41.662  10.747
21226W        W92809  27.861   9.560   9.706
21227W        W92810  36.270   1.151   2.938
21228W        W92811  37.570   5.792   2.636
21229W        W92812   2.473  32.546  14.298
21230W        W92813  15.400  22.096   0.918
21231W        W92814   2.972  23.578  11.733
21232W        W92815  17.332  26.782   1.179
21233W        W92816  40.336  36.898  10.556
21234W        W92817   1.477  16.454  12.274
21235W        W92818  33.466  18.955  12.403
21236W        W92819  37.056   9.271  12.398
21237W        W92820  25.137  27.089   4.834
21238W        W92821  10.354  42.471  10.479
21239W        W92822  21.125  10.694  13.147
21240W        W92823  31.483  27.466  11.329
21241W        W92824  44.871  31.513   4.595
21242W        W92825  27.511  44.568  11.436
21243W        W92826   1.978  40.875   1.786
21244W        W92827  40.883  11.953  12.558
21245W        W92828  25.709  39.418   2.858
21246W        W92829  43.335  11.277   0.400
21247W        W92830  20.253  34.455  12.968
21248W        W92831   7.604  44.985   2.435
21249W        W92832  13.326  13.116  12.595
21250W        W92833  44.722   7.586   0.235
21251W        W92834   2.351  39.921   3.723
21252W        W92835  19.504  28.611  11.605
21253W        W92836  40.065  31.433   0.857
21254W        W92837  30.336  17.748  11.734
21255W        W92838  22.002   4.936   3.785
21256W        W92839  19.245  40.036  10.470
21257W        W92840   7.275   9.671  12.173
21258W        W92841  10.902  10.183   0.393
21259W        W92842  38.865  12.673  14.968
21260W        W92843  36.477   0.774   2.160
21261W        W92844  19.122  10.756   4.159
21262W        W92845  11.221   7.514   3.624
21263W        W92846  26.110  39.870   3.076
21264W        W92847  27.986  28.614  13.360
21265W        W92848  17.135  29.937  13.870
21266W        W92849  17.002  36.722  11.970
21267W        W92850  16.656  34.842  10.583
21268W        W92851  41.515   4.871  12.539
21269W        W92852   4.419   8.104  10.453
21270W        W92853  11.258  20.547   4.857
21271W        W92854  24.959  35.650   1.436
21272W        W92855  36.774  38.039  12.064
21273W        W92856  33.769  33.933  12.042
21274W        W92857  43.616  20.216   0.308
21275W        W92858  13.667  12.878  11.658
21276W        W92859   3.800  40.451   1.100
21277W        W92860   5.939  23.744  10.830
21278W        W92861   4.414  17.429   1.394
21279W        W92862  39.522  17.763  13.416
21280W        W92863   4.767  26.516  13.071
21281W        W92864  34.191  24.202  14.967
21282W        W92865  28.181  17.792   3.829
21283W        W92866   4.855  38.035  13.062
21284W        W92867  36.557  33.608   1.390
21285W        W92868  16.204  27.715  13.908
21286W        W92869  36.913  30.944   1.849
21287W        W92870  21.828  32.003  14.859
21288W        W92871   3.166  34.695  10.750
21289W        W92872   3.383  38.824   4.944
21290W        W92873  30.577  43.823   4.064
21291W        W92874  31.569  24.427  12.451
21292W        W92875  20.602  11.712  14.508
21293W        W92876  39.576  43.920   1.378
21294W        W92877   5.043   2.701  11.267
21295W        W92878  44.124  22.211   4.134
21296W        W92879  34.097   8.454  14.307
21297W        W92880  12.849   0.924  11.914
21298W        W92881  25.550  16.345   0.526
21299W        W92882  27.206  24.734   2.699
21300W        W92883  23.537  35.305  13.477
21301W        W92884  21.092  40.589   3.328
21302W        W92885  33.143  21.264  12.943
21303W        W92886  44.419  25.241  14.897
21304W        W92887  36.100  27.116   3.630
21305W        W92888  26.937  16.526   2.262
21306W        W92889   4.811  23.651   1.773
21307W        W92890  27.509  11.621  14.796
21308W        W92891  38.766  17.651   2.866
21309W        W92892  35.809  28.533   3.649
21310W        W92893  11.461  33.683   5.023
21311W        W92894  18.923  18.649  14.261
21312W        W92895   8.373  24.715   2.274
21313W        W92896   7.359  24.066  11.672
21314W        W92897   1.177  24.533  13.362
21315W        W92898   1.331  19.136   0.531
21316W        W92899  42.786  28.507  14.358
21317W        W92900  17.616  12.644   1.857
21318W        W92901  12.921  44.218   3.245
21319W        W92902   7.881  16.463  11.135
21320W        W92903  12.216  33.005   2.737
21321W        W92904   7.643  41.976  11.549
21322W        W92905  21.797  33.000  11.637
21323W        W92906  43.776  21.663  14.808
21324W        W92907  24.729  11.643  14.289
21325W        W92908  44.245  23.681  12.106
21326W        W92909   4.797   7.626   5.369
21327W        W92910   0.037  37.605   4.033
21328W        W92911  12.695  24.142  13.933
21329W        W92912  43.833  12.803  11.520
21330W        W92913  24.205   2.834   0.689
21331W        W92914  32.942  15.524   4.155
21332W        W92915  18.073  22.631   0.824
21333W        W92916  36.304  37.278  10.653
21334W        W92917   3.969  28.511  14.847
21335W        W92918  19.251  43.757  12.131
21336W        W92919  14.277   7.723   1.369
21337W        W92920  25.045  39.951   0.258
21338W        W92921   3.432  22.087   2.223
21339W        W92922  38.025   3.420   1.022
21340W        W92923  13.659  14.259  13.766
21341W        W92924  23.670  35.740   4.609
21342W        W92925  42.411  27.523   0.897
21343W        W92926   3.248   2.315  10.995
21344W        W92927  29.921  41.263  11.118
21345W        W92928  26.733  43.433  10.359
21346W        W92929  40.896  39.092  12.860
21347W        W92930  17.756  27.506  10.228
21348W        W92931  40.896   4.502  10.731
21349W        W92932  19.286  22.122   2.583
21350W        W92933  25.505  41.109  11.148
21351W        W92934  26.038  23.228  11.125
21352W        W92935  42.771  19.956  13.262
21353W        W92936  26.685  24.426  13.513
21354W        W92937  43.005  30.613  12.640
21355W        W92938  30.643  38.402  14.999
21356W        W92939  44.729  12.172   4.802
21357W        W92940  43.733  31.997   3.339
21358W        W92941  29.660  19.580   5.086
21359W        W92942   2.499  31.939   2.327
21360W        W92943  44.800  22.790   4.170
21361W        W92944  19.758  14.395   2.511
21362W        W92945  18.906   5.974   2.737
21363W        W92946  44.464   1.033   2.500
21364W        W92947  23.055  25.929  14.043
21365W        W92948  27.611   3.710   3.411
21366W        W92949  36.043  34.875   0.898
21367W        W92950  14.307   4.670   1.724
21368W        W92951   4.210  13.263   3.360
21369W        W92952   2.444  24.070  12.531
21370W        W92953  41.004  22.733   1.432
21371W        W92954   9.238  22.871   4.445
21372W        W92955  36.184  28.695   3.327
21373W        W92956  36.331  20.660   4.349
21374W        W92957  40.529  11.185  13.700
21375W        W92958  37.363  35.938  14.988
21376W        W92959  42.124   5.086   3.754
21377W        W92960  25.603  13.913  10.169
21378W        W92961   8.456  27.418   1.952
21379W        W92962   5.267  17.282  12.487
21380W        W92963  34.968  25.041   4.502
21381W        W92964  43.369   4.714  14.508
21382W        W92965  21.690  15.420   4.627
21383W        W92966  18.400   7.046  10.337
21384W        W92967  19.503  44.846  12.890
21385W        W92968  28.574  42.000   2.551
21386W        W92969   4.589  12.506   9.951
21387W        W92970  20.827  10.471  11.864
21388W        W92971  25.466  10.233  13.005
21389W        W92972  31.478  17.796  11.175
21390W        W92973  40.932  18.799  12.115
21391W        W92974   3.155  41.472  10.744
21392W        W92975  22.497   4.390   4.768
21393W        W92976  32.395  37.717   0.327
21394W        W92977   6.944  16.743  12.400
21395W        W92978  20.866  15.111  13.396
21396W        W92979  22.009  16.214   4.726
21397W        W92980  25.267  13.305  12.418
21398W        W92981  10.777  21.179  10.472
21399W        W92982  37.273  22.714  13.173
21400W        W92983  37.562  41.868   3.571
21401W        W92984   2.906  44.986   1.297
21402W        W92985  29.685  34.351  12.587
21403W        W92986   4.751   3.220   2.642
21404W        W92987  43.805  29.538   4.009
21405W        W92988  35.505  26.950  14.581
21406W        W92989   6.163  27.893  10.937
21407W        W92990  37.414  14.386  11.151
21408W        W92991   6.822  42.754  14.321
21409W        W92992   1.910  43.986   4.109
21410W        W92993  38.473   4.203   1.317
21411W        W92994  29.999  41.511   2.293
21412W        W92995  37.579  14.195  13.959
21413W        W92996  10.939  29.657  10.777
21414W        W92997  16.292  31.588   3.192
21415W        W92998  12.283  38.015   1.744
21416W        W92999  33.596  34.634   1.871
21417W        W93000  35.513  42.286   1.173
21418W        W93001   1.935   2.177   0.825
21419W        W93002  23.098   1.155   1.847
21420W        W93003  40.075  11.425   1.129
21421W        W93004  13.380  30.390   2.653
21422W        W93005  19.015  37.433   1.454
21423W        W93006  28.606  16.166  13.105
21424W        W93007  24.952   5.600   4.161
21425W        W93008  44.744   9.835   4.562
21426W        W93009  28.092   9.449  10.195
21427W        W93010  38.405  13.266   3.747
21428W        W93011   2.425  21.521   4.771
21429W        W93012  20.722  40.028  12.512
21430W        W93013  38.510   9.252  13.399
21431W        W93014  13.758  35.041   3.405
21432W        W93015   5.177  39.861  10.812
21433W        W93016  43.743  42.018   2.292
21434W        W93017  37.670  21.631   3.704
21435W        W93018  15.888  26.233  10.665
21436W        W93019  12.323  17.983   0.002
21437W        W93020  29.671   2.129   2.347
21438W        W93021  41.024  12.187   2.459
21439W        W93022  36.538  42.251  10.587
21440W        W93023  20.553   4.381   1.158
21441W        W93024   1.415  37.708   1.775
21442W        W93025  22.713  21.728   3.123
21443W        W93026  20.326  24.289   4.650
21444W        W93027  31.014   4.257   1.005
21445W        W93028  26.151  22.738  11.112
21446W        W93029  11.031   8.466   0.233
21447W        W93030   3.910  20.665   0.759
21448W        W93031  36.403  10.271  14.837
21449W        W93032  10.766  20.575   1.407
21450W        W93033   1.016  28.184  13.846
21451W        W93034  14.885   9.471   3.348
21452W        W93035  11.111   9.369   3.287
21453W        W93036  30.703  29.164   1.423
21454W        W93037  30.927  23.758  14.066
21455W        W93038  38.438  37.489  14.940
21456W        W93039  26.848   1.421  11.123
21457W        W93040  44.630  12.217   3.369
21458W        W93041   1.303  42.886   1.511
21459W        W93042  19.097  31.353  13.926
21460W        W93043   8.980  10.263  13.322
21461W        W93044  39.062  13.750  13.003
21462W        W93045  38.260  31.125   0.878
21463W        W93046   1.806  36.783  11.597
21464W        W93047  26.112  43.429  11.987
21465W        W93048  39.003  11.207   1.787
21466W        W93049  12.058  18.513  12.623
21467W        W93050   2.213  36.004   3.781
21468W        W93051   1.953  40.885  13.049
21469W        W93052  34.872   4.946  14.999
21470W        W93053  37.538  24.703  12.020
21471W        W93054   7.690   9.807  13.327
21472W        W93055  13.266  15.080   1.248
21473W        W93056  36.307  17.106   3.727
21474W        W93057  27.398   8.850  13.808
21475W        W93058  25.007  37.146   1.237
21476W        W93059  35.390  43.326   0.814
21477W        W93060  37.033  43.070  14.264
21478W        W93061  17.191   9.726  12.449
21479W        W93062  35.042  40.434  14.097
21480W        W93063  12.520  19.093  13.279
21481W        W93064  10.221  35.323  13.622
21482W        W93065  35.609   4.719   3.243
21483W        W93066  19.699  41.652   2.657
21484W        W93067  24.514   6.644   3.099
21485W        W93068   6.395  21.758   2.341
21486W        W93069  31.687   3.878   0.862
21487W        W93070  31.394  18.194   0.665
21488W        W93071  17.097   6.551   4.187
21489W        W93072   0.346   6.585   1.787
21490W        W93073   0.877   1.264  12.544
21491W        W93074  20.596  28.030   3.552
21492W        W93075  25.933  27.126   2.658
21493W        W93076   2.677  27.963   4.272
21494W        W93077   2.608  13.301   2.314
21495W        W93078   6.297   9.770  10.392
21496W        W93079  28.321  32.932   1.192
21497W        W93080   6.903  14.296  13.631
21498W        W93081   6.374  21.821   2.858
21499W        W93082  37.650   5.573   5.069
21500W        W93083   3.827  41.043  11.136
21501W        W93084  36.517   7.859   0.447
21502W        W93085   4.731  22.669   2.833
21503W        W93086  37.510  13.461   0.717
21504W        W93087  15.366  10.397   0.730
21505W        W93088  42.053  29.700   1.740
21506W        W93089  11.202  13.729   2.290
21507W        W93090  30.707  44.303  11.502
21508W        W93091  38.310   0.832   1.410
21509W        W93092   7.922   7.451  12.835
21510W        W93093  18.871  33.359  12.931
21511W        W93094   1.735  19.184   0.849
21512W        W93095  35.782  40.370  13.427
21513W        W93096  22.746   2.975  13.991
21514W        W93097  42.997   2.213  14.930
21515W        W93098  21.313  41.175   4.097
21516W        W93099  27.895  18.183   3.602
21517W        W93100  23.560  22.072   1.321
21518W        W93101  40.489  15.053   2.049
21519W        W93102  19.900  43.278  13.059
21520W        W93103   6.205  41.845  14.897
21521W        W93104  32.886  44.053  12.246
21522W        W93105  28.573  20.348  10.555
21523W        W93106  34.487  11.052   3.322
21524W        W93107   6.943  22.790   4.346
21525W        W93108  20.597  31.256  14.258
21526W        W93109  35.544  33.869   2.118
21527W        W93110  17.606  37.329   4.616
21528W        W93111  24.001  42.997  11.630
21529W        W93112  35.583  40.440   3.879
21530W        W93113   4.963  40.627  11.762
21531W        W93114  42.643  20.242  13.919
21532W        W93115  27.171  29.580   4.155
21533W        W93116  30.494  12.457  14.597
21534W        W93117  10.318  39.757  11.399
21535W        W93118  15.636  29.073   0.464
21536W        W93119  44.835  37.316  12.955
21537W        W93120  39.720  43.739  14.869
21538W        W93121   9.390  12.243  13.860
21539W        W93122   9.346  19.370  13.535
21540W        W93123   7.179   3.891  14.516
21541W        W93124  11.706  15.923   1.297
21542W        W93125  11.304   7.750   2.318
21543W        W93126  10.271  42.807   3.305
21544W        W93127  17.859  11.202   4.673
21545W        W93128  21.985  17.085  14.069
21546W        W93129  10.381  44.802   2.713
21547W        W93130  27.539   5.726  14.451
21548W        W93131  28.516  28.397   2.829
21549W        W93132   3.836   3.407   4.043
21550W        W93133   7.832  33.091   0.460
21551W        W93134   3.521   1.780   4.942
21552W        W93135  44.973   5.737  12.832
21553W        W93136  30.890  31.618  14.571
21554W        W93137  18.238   8.154  12.309
21555W        W93138  44.829  21.047   3.980
21556W        W93139  31.538   2.406   3.179
21557W        W93140  44.294  36.362  14.646
21558W        W93141   1.412  27.705   3.557
21559W        W93142  13.593  40.478  13.933
21560W        W93143  38.943  23.525  13.426
21561W        W93144  21.800  21.605   0.430
21562W        W93145  31.478  33.591   3.148
21563W        W93146  22.607  29.603  14.674
21564W        W93147  16.666  20.033   3.309
21565W        W93148  38.937  12.574   1.236
21566W        W93149  21.604  20.236  12.125
21567W        W93150  28.530  11.376  10.668
21568W        W93151   1.456  40.688  12.936
21569W        W93152   2.244  34.894  10.801
21570W        W93153  16.557  28.935   3.743
21571W        W93154  44.443  16.840   3.606
21572W        W93155  21.649  30.135  13.300
21573W        W93156  19.692  30.750  14.373
21574W        W93157  19.033  14.814   3.669
21575W        W93158   7.952   8.744  14.953
21576W        W93159  37.587  39.491   3.718
21577W        W93160  31.373  41.222  12.562
21578W        W93161  33.100  28.123   1.293
21579W        W93162  25.579  13.392  10.118
21580W        W93163   7.454  11.149   4.321
21581W        W93164  43.394   1.277  13.156
21582W        W93165   2.825  26.362  14.122
21583W        W93166  31.548  11.124   2.304
21584W        W93167  37.988   5.667  14.521
21585W        W93168  30.876   7.638  11.232
21586W        W93169  13.069  41.969  13.982
21587W        W93170   9.380  24.269   2.844
21588W        W93171  14.111  31.878   3.705
21589W        W93172  38.382  10.571  13.875
21590W        W93173  26.208  34.384   4.736
21591W        W93174  25.931   8.326   4.167
21592W        W93175  19.094  28.436   4.535
21593W        W93176  26.110  10.439  11.686
21594W        W93177  26.174   0.767   1.920
21595W        W93178  41.245   6.842   1.685
21596W        W93179  20.085   1.056  14.002
21597W        W93180   0.326  27.982   4.142
21598W        W93181  30.224  39.376  14.385
21599W        W93182   3.370  19.787  13.936
21600W        W93183  18.280  42.866   0.872
21601W        W93184  18.904  19.270   5.694
21602W        W93185   3.442  26.692  14.874
21603W        W93186  18.321  11.160  12.576
21604W        W93187  29.603  21.342   2.939
21605W        W93188   5.799   6.100  14.917
21606W        W93189  14.608  34.674  14.231
21607W        W93190  21.486  21.590  12.650
21608W        W93191  34.930   4.847   0.507
21609W        W93192  42.623  26.666   4.185
21610W        W93193   4.448  19.702   0.738
21611W        W93194  10.574   5.491  14.802
21612W        W93195  32.712  26.690   2.043
21613W        W93196  16.323  17.180   4.260
21614W        W93197  24.945   1.147   1.431
21615W        W93198   1.387  19.659   1.409
21616W        W93199  27.366   0.742   3.991
21617W        W93200  22.400  28.125  12.977
21618W        W93201  14.115   4.634   4.048
21619W        W93202   2.967  42.014  12.883
21620W        W93203   5.656  22.685  13.518
21621W        W93204  16.946  21.131  11.613
21622W        W93205  22.438   6.250   2.644
21623W        W93206  34.652  27.339   0.895
21624W        W93207  39.588   5.352  13.560
21625W        W93208   3.154  29.919  13.587
21626W        W93209  18.713  15.582  13.299
21627W        W93210  35.087  31.580  14.719
21628W        W93211  13.392  44.429  13.919
21629W        W93212  37.623   1.202  11.134
21630W        W93213   2.376   6.051   1.387
21631W        W93214   7.718  40.629   1.291
21632W        W93215  11.174  18.755  12.675
21633W        W93216  15.806   1.914  14.985
21634W        W93217  28.858  10.337   5.091
21635W        W93218   0.035  42.913   4.112
21636W        W93219  44.740   8.740  14.822
21637W        W93220  44.907  15.644   2.005
21638W        W93221  38.673  11.219  12.442
21639W        W93222  15.710   3.351   3.754
21640W        W93223   0.606  10.355   0.248
21641W        W93224  11.509  34.681   5.058
21642W        W93225  37.099   3.628  12.513
21643W        W93226   6.821  15.575   2.504
21644W        W93227  21.139   5.968   4.813
21645W        W93228  20.831   2.356  13.098
21646W        W93229  29.584  14.175   2.253
21647W        W93230  25.967  33.205   4.861
21648W        W93231  31.017  22.806   1.022
21649W        W93232  14.597   8.804   0.831
21650W        W93233  20.304  44.937   0.866
21651W        W93234  11.772  26.009  11.608
21652W        W93235  24.194  28.231   0.886
21653W        W93236   7.768  24.406   2.888
21654W        W93237  30.688  36.071   4.573
21655W        W93238   0.880  15.555  14.153
21656W        W93239  37.880  42.730  11.221
21657W        W93240  39.387   0.241   1.788
21658W        W93241  10.471  11.888  13.660
21659W        W93242  38.859   6.855   2.380
21660W        W93243  40.970   5.276   4.835
21661W        W93244  16.833  23.165   0.680
21662W        W93245  29.949  36.161  11.470
21663W        W93246   6.580  23.070   4.146
21664W        W93247   0.510  19.286   3.684
21665W        W93248  14.584  23.513   2.860
21666W        W93249  11.730  12.099  14.068
21667W        W93250  32.438  25.489  14.324
21668W        W93251  16.339  29.532  14.007
21669W        W93252  16.339  43.173   2.019
21670W        W93253   3.968  36.302   1.102
21671W        W93254  10.770  11.359  14.942
21672W        W93255   4.668  41.044  11.650
21673W        W93256  44.707   2.264  10.903
21674W        W93257  12.876  36.633   0.352
21675W        W93258  44.312  10.890  12.459
21676W        W93259  33.915  30.631  10.565
21677W        W93260   0.272  34.133  11.122
21678W        W93261  15.679  27.928   2.478
21679W        W93262   5.251  26.986  10.570
21680W        W93263   3.260  12.142  10.723
21681W        W93264   8.627  15.107  14.311
21682W        W93265  32.947  36.546  11.195
21683W        W93266  16.149  37.389   4.768
21684W        W93267  33.962   7.967   3.425
21685W        W93268  41.296  16.681  10.661
21686W        W93269  33.849  28.974  13.018
21687W        W93270  21.953  35.931   4.550
21688W        W93271  26.000   7.917   2.817
21689W        W93272  21.275  31.351   5.416
21690W        W93273  27.000  22.661  13.164
21691W        W93274  40.459   3.150  12.008
21692W        W93275  24.700  31.161  12.067
21693W        W93276  16.702  11.285  14.037
21694W        W93277  31.393  18.809  11.585
21695W        W93278  35.361  23.169   2.665
21696W        W93279  26.230  29.206  14.193
21697W        W93280  11.345  25.574   4.667
21698W        W93281   7.986  13.258   0.333
21699W        W93282  18.770  26.680   2.840
21700W        W93283  12.543  16.190   2.305
21701W        W93284  39.965  32.517   3.597
21702W        W93285  40.779  42.298   0.511
21703W        W93286  10.778   7.824  13.122
21704W        W93287   8.845  34.104   4.057
21705W        W93288  25.473  21.266   3.325
21706W        W93289  12.009  36.881   3.610
21707W        W93290  43.847  37.480  13.903
21708W        W93291  23.836  31.409   1.406
21709W        W93292  12.160  10.839  11.901
21710W        W93293  36.320  17.094  14.922
21711W        W93294  20.544  31.422  14.972
21712W        W93295   0.996  12.547  12.375
21713W        W93296   3.656  26.571   1.856
21714W        W93297  38.060   2.806   3.627
21715W        W93298  14.316  22.009  14.379
21716W        W93299  12.200  19.033   4.602
21717W        W93300  11.905  12.840   4.614
21718W        W93301  42.366  27.217  14.101
21719W        W93302  18.690   7.893  12.172
21720W        W93303  41.825   8.229   3.248
21721W        W93304  26.748  33.204   5.295
21722W        W93305   4.886  30.205  12.558
21723W        W93306  31.139  41.810   0.873
21724W        W93307  23.674   7.211   0.479
21725W        W93308  27.125  20.679   0.961
21726W        W93309  10.688   1.713  10.674
21727W        W93310  20.657  19.036   0.738
21728W        W93311  31.103  30.356  14.757
21729W        W93312   2.070  40.538  13.418
21730W        W93313  43.873  13.416   3.447
21731W        W93314  22.069  16.853  11.078
21732W        W93315   8.376  15.145   2.969
21733W        W93316  41.547  13.606   2.378
21734W        W93317  42.082  36.927  11.266
21735W        W93318  13.664  18.740   4.538
21736W        W93319   4.501  37.029  10.195
21737W        W93320  34.522  35.983   3.095
21738W        W93321  35.495  34.192   4.377
21739W        W93322  19.699  30.449   0.950
21740W        W93323  40.798  35.342   4.008
21741W        W93324  11.413  42.485  10.626
21742W        W93325  39.481   9.633  10.609
21743W        W93326   2.425   7.279  12.484
21744W        W93327  11.976  44.293  14.497
21745W        W93328  41.709  40.828  13.433
21746W        W93329  38.876  14.251   4.328
21747W        W93330  12.602  19.769   2.705
21748W        W93331  25.734  34.973  10.735
21749W        W93332  24.726  14.960  11.183
21750W        W93333  39.695  13.749  13.024
21751W        W93334  26.458  23.525  11.114
21752W        W93335  41.473  33.089  12.407
21753W        W93336  20.653  30.097   2.824
21754W        W93337   8.195  40.551  14.207
21755W        W93338  33.595  22.282  12.390
21756W        W93339  34.987  36.014   2.823
21757W        W93340  11.204  13.542  13.121
21758W        W93341  39.548  37.815   4.166
21759W        W93342  20.948  19.801  12.368
21760W        W93343   9.668  21.864   3.313
21761W        W93344   4.615  10.740   4.133
21762W        W93345  20.299  25.770  12.432
21763W        W93346  37.294   1.173  14.442
21764W        W93347   3.409  44.891  13.385
21765W        W93348  23.739  22.098  14.275
21766W        W93349   5.284  25.211  14.433
21767W        W93350   0.247  27.955   1.766
21768W        W93351  21.186  16.706  11.086
21769W        W93352  13.233   2.060  11.418
21770W        W93353  42.686  23.944   1.465
21771W        W93354  34.303   8.359   3.292
21772W        W93355  37.355  23.652  11.958
21773W        W93356  40.030  40.627  12.918
21774W        W93357  21.217  25.910   4.375
21775W        W93358  19.549  39.514  11.237
21776W        W93359  23.631  38.254  11.975
21777W        W93360  24.107   2.494  14.893
21778W        W93361  10.965  29.375   4.065
21779W        W93362  44.242  11.391  12.482
21780W        W93363   1.772  15.377   2.532
21781W        W93364  20.699  37.086  12.198
21782W        W93365  19.120  13.548   3.259
21783W        W93366  35.579  20.490   2.927
21784W        W93367   5.235   2.262  13.022
21785W        W93368  17.880  42.373   3.695
21786W        W93369  28.662  14.249  13.418
21787W        W93370  17.879  32.015  11.601
21788W        W93371  33.556  44.410  11.410
21789W        W93372   8.953  18.984  14.877
21790W        W93373  37.525   0.298   4.154
21791W        W93374   5.015  26.156  12.801
21792W        W93375  27.449  13.287   2.632
21793W        W93376   3.349  30.205   0.332
21794W        W93377  35.189  15.284   1.770
21795W        W93378  40.743   2.432  11.185
21796W        W93379   6.961  37.879   3.251
21797W        W93380  15.842  13.120   1.844
21798W        W93381  17.749  44.558   3.249
21799W        W93382  12.435   7.707   4.200
21800W        W93383  29.221  24.053   2.857
21801W        W93384  23.487  33.565  12.897
21802W        W93385   1.291  35.694  14.429
21803W        W93386  16.288  21.684   0.453
21804W        W93387  29.121  37.131   4.457
21805W        W93388  20.013   4.771  13.071
21806W        W93389  35.100   8.002   3.900
21807W        W93390  23.485   8.881   0.882
21808W        W93391  26.129  10.753   4.935
21809W        W93392   3.306  39.414  10.179
21810W        W93393  41.592   7.941   4.770
21811W        W93394   8.435  39.073  12.007
21812W        W93395  27.682   1.296   4.521
21813W        W93396  21.054  31.505  14.939
21814W        W93397  15.716  39.357   0.474
21815W        W93398  28.656  37.269   4.831
21816W        W93399  18.955  25.956   1.703
21817W        W93400  37.834  27.047  11.123
21818W        W93401  34.379  20.498  12.005
21819W        W93402  13.205  12.897  14.956
21820W        W93403  44.516   7.256  13.047
21821W        W93404  44.914  26.356   2.854
21822W        W93405  39.152  23.058  14.097
21823W        W93406  19.710   1.368   2.200
21824W        W93407  12.792  37.570   4.649
21825W        W93408  29.997  42.550   2.209
21826W        W93409  20.661  35.254  13.302
21827W        W93410  38.422  44.259   0.409
21828W        W93411  10.157  18.593  11.055
21829W        W93412  44.206  11.848   0.928
21830W        W93413   3.923  10.356   4.943
21831W        W93414  12.413  25.699   3.102
21832W        W93415  21.983  12.615  12.410
21833W        W93416  14.754  17.275  13.074
21834W        W93417  29.723   2.750  10.596
21835W        W93418  29.482  30.216   1.026
21836W        W93419  42.454  17.105   2.124
21837W        W93420   5.339  23.260   0.787
21838W        W93421  42.085  14.165   4.799
21839W        W93422  33.563  37.584   4.578
21840W        W93423  13.267   8.675  11.087
21841W        W93424   1.478  30.603   3.177
21842W        W93425  18.212  13.661   3.247
21843W        W93426  42.759  10.362   4.667
21844W        W93427  27.638  18.349  14.899
21845W        W93428  41.016  28.878   2.396
21846W        W93429  30.956  41.408  13.290
21847W        W93430   8.578  17.115   2.743
21848W        W93431   8.061  24.283   0.454
21849W        W93432  15.635  22.801  14.543
21850W        W93433  20.772   1.973  14.825
21851W        W93434   6.279  26.474  11.261
21852W        W93435  24.613  44.248   0.941
21853W        W93436  14.776   8.244   2.814
21854W        W93437  30.560  29.711  11.132
21855W        W93438  33.940  42.322  10.970
21856W        W93439  42.558   4.886  12.612
21857W        W93440  24.738  34.825  11.589
21858W        W93441  21.134  18.940  14.390
21859W        W93442   7.993   0.236  13.932
21860W        W93443  35.101   2.248  11.053
21861W        W93444   7.120  18.626   0.904
21862W        W93445   7.226   7.449   4.117
21863W        W93446  42.675   9.940   1.330
21864W        W93447  42.924   2.315   0.804
21865W        W93448   6.923  33.698  13.118
21866W        W93449  16.224  40.599   0.301
21867W        W93450  35.580  18.019   2.589
21868W        W93451   7.729   2.349   4.156
21869W        W93452  24.171  42.465  11.648
21870W        W93453  18.652   2.355   4.642
21871W        W93454  14.142  30.081   2.216
21872W        W93455  36.785  25.219   1.373
21873W        W93456  43.037   6.438  11.871
21874W        W93457  41.018  42.955   1.921
21875W        W93458  23.158  39.244   4.085
21876W        W93459  28.054  35.952  14.942
21877W        W93460  12.243  29.922  13.532
21878W        W93461  44.836  21.202  11.751
21879W        W93462   0.721   5.897   0.839
21880W        W93463  12.696  34.416   2.552
21881W        W93464  20.281   4.804   3.155
21882W        W93465   9.876  13.604   1.471
21883W        W93466   1.863   1.845   1.889
21884W        W93467  10.682  41.492   0.942
21885W        W93468  42.682  40.526   4.975
21886W        W93469   0.843  44.899  11.236
21887W        W93470  18.717  39.887  10.765
21888W        W93471  31.136   5.261  13.370
21889W        W93472  33.918  42.341  14.455
21890W        W93473   7.312  18.849   1.756
21891W        W93474   6.708  34.478   2.110
21892W        W93475  40.707   9.528   0.798
21893W        W93476  29.694  30.023   1.810
21894W        W93477  27.714   2.427   3.631
21895W        W93478  28.704  41.002   2.925
21896W        W93479  40.914  42.503   1.007
21897W        W93480   9.942  31.451  10.828
21898W        W93481  27.797   1.600   5.165
21899W        W93482  21.161  35.916   0.325
21900W        W93483  13.723  17.618   0.898
21901W        W93484  39.522   6.658   1.194
21902W        W93485   0.324  33.414  14.840
21903W        W93486   8.891  35.838   2.469
21904W        W93487  37.059   7.896  11.909
21905W        W93488   1.685  13.269  14.498
21906W        W93489  38.386  14.113   1.933
21907W        W93490  33.176  38.543   3.867
21908W        W93491  43.630   7.331  13.224
21909W        W93492  14.047  11.807   5.248
21910W        W93493  27.577  16.140   0.455
21911W        W93494  39.758  10.359   0.467
21912W        W93495   9.268  35.870  11.089
21913W        W93496  25.643  44.407   1.203
21914W        W93497   5.716  28.968   2.725
21915W        W93498  43.760  30.129  10.963
21916W        W93499   1.998   4.394   0.853
21917W        W93500  15.164  22.749  12.126
21918W        W93501   7.165   1.816  11.540
21919W        W93502  31.778  43.619   0.688
21920W        W93503  43.905  17.650   4.442
21921W        W93504  29.881  12.717  13.443
21922W        W93505  20.523  37.733  12.981
21923W        W93506  17.773  42.995   0.880
21924W        W93507  10.365  10.820   3.390
21925W        W93508  43.124  24.581  10.427
21926W        W93509  39.940   6.449  13.504
21927W        W93510  20.706  38.371  10.689
21928W        W93511  40.269   1.845   0.989
21929W        W93512  17.246   8.494   5.026
21930W        W93513  41.225  33.515  12.073
21931W        W93514  24.166  31.967  11.911
21932W        W93515  27.113  19.581  10.575
21933W        W93516  32.592   3.781  12.654
21934W        W93517   2.461  39.310   0.945
21935W        W93518  16.310  43.195  12.134
21936W        W93519   4.326  29.748   3.730
21937W        W93520  22.659  15.650   3.176
21938W        W93521  20.511  34.445  12.516
21939W        W93522  14.842  34.722  12.970
21940W        W93523   8.681   9.257   0.955
21941W        W93524  36.526  16.798   2.917
21942W        W93525  12.357   4.747   2.161
21943W        W93526  34.992  15.652  13.671
21944W        W93527  34.692  18.418   4.156
21945W        W93528  34.374   3.901  11.163
21946W        W93529  20.728  39.952  10.663
21947W        W93530  38.558  28.521  12.917
21948W        W93531  43.554  39.482  12.363
21949W        W93532  23.723  20.925   1.945
21950W        W93533   7.924  34.577   0.787
21951W        W93534   9.337  34.497   2.225
21952W        W93535   4.634  17.833  11.976
21953W        W93536  40.987   4.410  13.919
21954W        W93537   6.247  20.459   2.690
21955W        W93538  14.464  40.004  13.281
21956W        W93539  20.489  17.252  10.181
21957W        W93540  16.789  36.511  11.553
21958W        W93541  22.333  16.198   0.370
21959W        W93542  32.046  40.311   4.749
21960W        W93543  12.804   0.279  12.963
21961W        W93544  29.150  30.953  11.104
21962W        W93545   2.052   5.935  11.603
21963W        W93546  22.853  13.244  14.479
21964W        W93547  19.663  35.995  14.401
21965W        W93548  35.857  24.664  13.810
21966W        W93549  34.740   9.208  14.806
21967W        W93550   6.739  16.064   0.471
21968W        W93551   7.868  31.426  13.861
21969W        W93552  37.089  38.407  11.883
21970W        W93553  19.267  36.820  14.330
21971W        W93554  15.904  36.416  10.267
21972W        W93555  40.034  36.604   4.033
21973W        W93556  38.842  12.169  12.896
21974W        W93557  27.171  16.704   3.164
21975W        W93558  37.317  34.512   3.421
21976W        W93559   5.233  15.056   0.519
21977W        W93560  35.931  25.268   3.359
21978W        W93561   4.300  34.588   2.177
21979W        W93562   1.087  15.136   4.409
21980W        W93563  38.131  36.999   0.553
21981W        W93564  30.400  24.150  11.670
21982W        W93565  36.594   2.201   3.679
21983W        W93566  16.787  20.806   4.199
21984W        W93567   8.279  15.791   4.530
21985W        W93568  26.947  39.246   2.179
21986W        W93569  24.580  32.285   3.858
21987W        W93570  29.664  30.944  11.116
21988W        W93571  38.376  21.732  13.947
21989W        W93572  11.825  13.075  10.634
21990W        W93573  17.280  41.998  12.153
21991W        W93574  34.030  12.215  10.771
21992W        W93575  27.183  18.301  10.624
21993W        W93576   5.984  40.994   4.846
21994W        W93577  41.507   3.958   2.248
21995W        W93578  16.269  44.035  13.364
21996W        W93579  23.070  37.530   0.305
21997W        W93580  19.743  43.980   2.317
21998W        W93581  10.807  21.948  13.791
21999W        W93582  35.112  38.925  10.705
22000W        W93583  42.742  10.591   3.751
22001W        W93584   4.241  37.905  14.968
22002W        W93585  16.022   2.418   1.956
22003W        W93586  38.891  40.532  10.484
22004W        W93587  38.363  25.092   0.369
22005W        W93588   5.976  19.913  12.122
22006W        W93589  28.727  18.923   2.752
22007W        W93590  42.863  27.334   2.228
22008W        W93591  22.220  32.451   3.588
22009W        W93592  43.257   9.398   0.706
22010W        W93593  14.101  37.136   0.335
22011W        W93594  38.388  26.061  13.920
22012W        W93595  34.146  16.295  13.386
22013W        W93596   8.026   6.292   0.463
22014W        W93597  28.440  35.538   4.752
22015W        W93598  14.243  30.257   0.276
22016W        W93599  18.592  31.106   3.723
22017W        W93600  21.826  31.550  11.577
22018W        W93601  13.163  37.614   2.129
22019W        W93602  23.994  10.715   3.396
22020W        W93603  10.886  34.257   0.747
22021W        W93604  35.852  26.657  11.577
22022W        W93605   7.862  26.690   4.146
22023W        W93606  35.616  14.865  13.431
22024W        W93607  20.764  37.876   3.658
22025W        W93608  30.105  13.177  13.400
22026W        W93609  20.799  11.985  12.254
22027W        W93610  14.123  44.241   0.304
22028W        W93611   7.802  43.405   4.199
22029W        W93612  43.783   3.878   3.206
22030W        W93613  39.280  26.584  11.532
22031W        W93614   1.933  33.919   3.343
22032W        W93615  40.421  36.355   4.888
22033W        W93616  41.867  12.817   4.528
22034W        W93617  16.383   1.298  12.334
22035W        W93618  25.604  25.703   1.360
22036W        W93619  13.712  41.481  12.585
22037W        W93620  23.719  26.562   2.727
22038W        W93621  21.048   4.589   0.452
22039W        W93622  13.915  30.985   0.139
22040W        W93623  42.177  19.497  14.018
22041W        W93624   6.853  28.134   3.902
22042W        W93625  41.147  42.514   3.453
22043W        W93626  21.439  10.686   2.184
22044W        W93627  28.584  16.547   1.738
22045W        W93628  25.288  20.177   3.725
22046W        W93629   1.798  23.211  14.438
22047W        W93630  38.058   3.776  12.117
22048W        W93631  14.077  29.134  13.589
22049W        W93632  12.678   0.773   1.399
22050W        W93633   1.298   4.908   0.474
22051W        W93634  16.325  43.377   4.744
22052W        W93635  44.384  27.288  14.053
22053W        W93636   0.367  24.601  14.007
22054W        W93637  34.692   0.215   2.271
22055W        W93638  35.369  13.213   2.238
22056W        W93639  12.809   3.766  12.031
22057W        W93640  20.816  28.769   5.098
22058W        W93641  12.141   1.846  12.632
22059W        W93642  36.492  18.772   2.421
22060W        W93643  34.860  11.399   4.188
22061W        W93644  44.027  37.515   1.944
22062W        W93645  32.901  26.309   1.374
22063W        W93646  29.199   8.235  14.104
22064W        W93647  19.760  14.091  11.484
22065W        W93648  43.202  12.038   0.742
22066W        W93649   3.018  33.652  12.539
22067W        W93650  17.091   1.805   2.813
22068W        W93651  29.369  25.026  12.630
22069W        W93652   5.892   5.040   3.179
22070W        W93653  25.972  22.370  14.773
22071W        W93654  27.712   3.925  12.903
22072W        W93655  33.556  19.464   3.721
22073W        W93656  11.159  13.342   0.351
22074W        W93657  26.910  43.497  14.946
22075W        W93658  33.564  27.410   1.720
22076W        W93659  16.698  28.385   1.437
22077W        W93660   2.766   9.666  14.741
22078W        W93661  32.115  38.290  14.953
22079W        W93662  21.962   5.817   1.356
22080W        W93663  31.162   9.795   3.680
22081W        W93664  26.561  23.223   5.101
22082W        W93665  34.381  31.488  14.454
22083W        W93666  19.589   1.077   4.826
22084W        W93667  12.655   0.898   0.895
22085W        W93668  42.739  25.589  13.994
22086W        W93669   5.591  28.632  12.565
22087W        W93670  22.995  15.179  12.554
22088W        W93671  32.376   6.893   1.509
22089W        W93672  37.045  22.375  12.278
22090W        W93673  44.585   2.584  12.815
22091W        W93674  13.730  41.351   4.961
22092W        W93675  42.953  33.322   0.397
22093W        W93676  30.231   9.519   3.436
22094W        W93677  16.274  44.502  12.412
22095W        W93678  17.209  35.312  14.517
22096W        W93679  33.996   3.214   0.564
22097W        W93680   6.662   3.374  14.017
22098W        W93681  19.402  22.962   2.183
22099W        W93682  18.815  15.819   2.653
22100W        W93683  27.795  39.200  10.027
22101W        W93684   6.834  21.954   1.207
22102W        W93685  32.575  35.708   9.899
22103W        W93686  15.641  36.876   0.884
22104W        W93687  16.897  14.214  14.837
22105W        W93688   9.314  11.300  13.081
22106W        W93689  13.109   3.429  11.208
22107W        W93690   1.967  39.498   0.894
22108W        W93691  19.859   0.398  14.340
22109W        W93692  15.752  44.175  12.027
22110W        W93693  41.932   4.810   3.274
22111W        W93694  23.211  44.355   3.679
22112W        W93695  35.629   2.280   1.596
22113W        W93696  24.258  37.508   0.519
22114W        W93697  22.153   4.256  11.524
22115W        W93698  36.550   3.996   3.266
22116W        W93699  33.456  30.395  11.694
22117W        W93700  17.093   3.911   0.648
22118W        W93701  35.997   9.549   3.586
22119W        W93702  15.616  34.639   5.034
22120W        W93703  29.529  35.701   2.179
22121W        W93704   2.288   7.423  14.713
22122W        W93705  10.358  40.127   1.841
22123W        W93706  22.618   3.005  13.503
22124W        W93707  23.097  34.517  11.715
22125W        W93708  32.293  20.040  10.094
22126W        W93709  44.705  42.097   1.327
22127W        W93710   5.222  28.308   0.045
22128W        W93711  40.368  27.065  14.341
22129W        W93712  31.838  13.743   2.855
22130W        W93713  42.772  13.595   1.437
22131W        W93714   3.840   7.912   1.620
22132W        W93715   2.665  30.829   1.245
22133W        W93716  19.262  13.711  10.450
22134W        W93717  11.670  34.373   2.743
22135W        W93718  24.182  37.766   2.327
22136W        W93719   6.776   1.431  14.100
22137W        W93720   2.871  25.604   3.159
22138W        W93721  20.286  25.199  13.335
22139W        W93722  31.570  16.129   2.190
22140W        W93723  12.426  26.324  12.382
22141W        W93724  20.201  32.802   4.713
22142W        W93725  31.216  31.256  12.661
22143W        W93726  42.390  10.699   3.374
22144W        W93727   3.013  35.541  11.037
22145W        W93728  42.939  43.867   3.901
22146W        W93729  42.429   8.686   2.121
22147W        W93730  25.757   6.256   4.777
22148W        W93731  40.270  38.422   4.654
22149W        W93732  19.253   0.264  13.519
22150W        W93733  14.643  41.938   0.516
22151W        W93734  44.351  30.291   1.366
22152W        W93735  37.929  35.819  12.360
22153W        W93736  39.996  36.197  14.692
22154W        W93737  34.845   1.060   0.398
22155W        W93738  29.897  10.289   0.165
22156W        W93739  16.191  22.266  10.928
22157W        W93740  12.067  21.255   2.820
22158W        W93741  33.517  31.754   9.821
22159W        W93742  10.362   3.970  11.975
22160W        W93743   4.144   0.697   1.186
22161W        W93744   3.471  39.037   2.701
22162W        W93745  10.215  33.007  12.908
22163W        W93746  31.361  31.972   3.690
22164W        W93747  26.581  43.821  10.664
22165W        W93748  37.840  23.927  12.580
22166W        W93749  38.066  41.011  12.120
22167W        W93750   7.512  17.607  14.304
22168W        W93751  16.177  40.267   3.260
22169W        W93752  23.448  13.311  10.685
22170W        W93753  15.802   9.218  12.895
22171W        W93754  13.053  26.477   0.393
22172W        W93755   3.423   0.461  12.024
22173W        W93756  23.265  39.312   1.604
22174W        W93757  14.211   9.536  13.784
22175W        W93758   6.410  25.441  11.985
22176W        W93759  29.666  21.855  12.079
22177W        W93760  26.949  20.726   3.238
22178W        W93761   3.684  32.119   2.757
22179W        W93762  33.037  24.997   4.534
22180W        W93763  23.667  44.750  12.921
22181W        W93764   6.631  25.508   2.796
22182W        W93765   0.625  17.157  11.615
22183W        W93766   8.669  36.990  14.204
22184W        W93767  22.237  21.329   3.701
22185W        W93768  34.793   8.018  11.528
22186W        W93769  26.130  29.377  14.908
22187W        W93770  40.977  30.895   1.296
22188W        W93771  43.357  25.504   0.391
22189W        W93772  34.872  20.519   3.716
22190W        W93773  31.457  28.752   0.226
22191W        W93774  15.298   5.776  11.503
22192W        W93775  14.497  38.245   1.793
22193W        W93776   9.311   8.784   1.471
22194W        W93777  10.143  20.570   4.598
22195W        W93778  17.545  21.301   4.660
22196W        W93779   1.455   6.704   3.656
22197W        W93780   8.333  15.968  14.780
22198W        W93781  23.272  22.049   3.905
22199W        W93782   4.862   7.049  12.566
22200W        W93783  32.974   7.344  12.870
22201W        W93784   9.077  26.670   2.414
22202W        W93785   2.489   2.202  10.582
22203W        W93786  19.167   5.941  13.748
22204W        W93787  10.259  13.699   9.751
22205W        W93788  24.251  24.106   2.778
22206W        W93789  41.246  32.969  12.891
22207W        W93790  39.317  37.012  11.670
22208W        W93791   8.311  26.953  11.769
22209W        W93792  13.288  36.007  14.963
22210W        W93793  17.571  42.531   0.815
22211W        W93794   7.199  33.172   1.195
22212W        W93795  13.783   2.757  11.622
22213W        W93796  33.639  36.490  12.520
22214W        W93797  37.490  14.861   2.891
22215W        W93798  42.706  26.174  12.849
22216W        W93799   2.682  21.731   4.388
22217W        W93800   8.894  33.578  11.032
22218W        W93801  32.528  31.646   1.505
22219W        W93802  31.210  29.005   3.615
22220W        W93803  17.313   6.865  12.805
22221W        W93804  39.893   7.937   1.503
22222W        W93805  13.070  31.939  11.068
22223W        W93806  40.333  17.133   3.570
22224W        W93807   2.834  14.540  13.973
22225W        W93808  27.487  22.141  12.380
22226W        W93809  22.268  28.010  12.191
22227W        W93810   2.176  21.959  12.969
22228W        W93811  38.213  11.257  11.509
22229W        W93812   7.325  32.512   0.570
22230W        W93813   6.634  26.762   1.397
22231W        W93814  19.230   7.740  11.561
22232W        W93815   1.833  28.978  12.533
22233W        W93816  12.815  26.919  14.718
22234W        W93817  17.647  33.162  14.002
22235W        W93818  15.317   5.124  14.896
22236W        W93819  41.761  12.632  11.958
22237W        W93820  17.168   2.717   2.801
22238W        W93821  43.405  10.913   2.470
22239W        W93822  42.026  41.081   3.175
22240W        W93823  17.996  41.896  13.837
22241W        W93824   3.274  19.848  11.031
22242W        W93825   3.819  11.956  11.641
22243W        W93826  11.238  39.801  11.196
22244W        W93827  30.135  40.265   3.250
22245W        W93828   1.421  44.436   1.952
22246W        W93829   9.306   2.863  10.318
22247W        W93830  23.422  18.175   1.811
22248W        W93831  33.625  14.663   0.276
22249W        W93832  14.171   9.349  10.695
22250W        W93833   1.360  22.723  14.988
22251W        W93834   1.391   4.451   4.738
22252W        W93835   7.163  19.129  14.285
22253W        W93836   3.979   6.673  12.664
22254W        W93837  42.975  22.612   0.263
22255W        W93838   9.770  12.086   0.062
22256W        W93839   6.198  41.779  11.325
22257W        W93840  24.747  37.136   3.181
22258W        W93841  21.853   3.179  11.278
22259W        W93842  40.967  37.282  12.714
22260W        W93843  18.172  10.639  11.710
22261W        W93844  24.699   7.599  10.707
22262W        W93845  34.918  11.674  10.807
22263W        W93846  43.322  26.750  10.611
22264W        W93847  27.638  38.397   3.205
22265W        W93848  35.682  40.619   0.222
22266W        W93849  15.335   0.718  11.059
22267W        W93850  25.968  43.951  11.237
22268W        W93851   6.383   1.776   0.446
22269W        W93852  41.972  16.246   2.757
22270W        W93853  15.835   0.403   3.658
22271W        W93854   7.788  22.182  10.725
22272W        W93855  32.631  42.427   0.283
22273W        W93856  38.908  30.118  13.650
22274W        W93857  21.671  12.266   2.691
22275W        W93858   4.481  39.941   4.235
22276W        W93859  25.252   6.299   4.613
22277W        W93860  16.501  28.777   4.297
22278W        W93861  43.239   6.476  12.676
22279W        W93862  43.000  21.518   1.792
22280W        W93863  32.708  11.538  14.959
22281W        W93864   2.851  17.392  13.175
22282W        W93865  12.873  31.452  10.866
22283W        W93866   5.979   3.285   4.189
22284W        W93867  35.280  41.445  13.152
22285W        W93868   1.127  20.715  10.411
22286W        W93869  29.669   0.447   4.805
22287W        W93870  16.942  29.558  12.051
22288W        W93871   9.276  16.350   0.287
22289W        W93872  24.010  35.391  10.901
22290W        W93873  22.515  22.086   0.913
22291W        W93874  22.303  27.591   5.001
22292W        W93875  32.138   0.600  13.981
22293W        W93876  41.325  34.906  10.677
22294W        W93877  29.496  19.188   2.364
22295W        W93878  41.452   1.128  12.437
22296W        W93879  43.019  43.311   2.137
22297W        W93880  25.878  44.817  14.618
22298W        W93881  37.659   7.357   0.806
22299W        W93882  26.309  17.613  14.750
22300W        W93883  37.882  16.537  12.152
22301W        W93884  31.569  32.145   4.119
22302W        W93885   4.732  43.444  11.420
22303W        W93886  40.333  32.396   2.274
22304W        W93887   1.979  14.241  11.839
22305W        W93888  37.810  35.316  12.374
22306W        W93889  11.646  37.032  13.937
22307W        W93890   5.961  26.583   2.166
22308W        W93891   9.460  23.966   3.730
22309W        W93892  31.049  34.071  10.976
22310W        W93893  26.437  11.385   1.740
22311W        W93894  25.282  18.609  12.507
22312W        W93895   7.846  44.657  10.658
22313W        W93896  42.775  39.628   0.021
22314W        W93897  35.938  27.190  12.456
22315W        W93898  39.362   0.253   0.750
22316W        W93899  20.097  19.110   3.805
22317W        W93900  25.878   9.629  12.489
22318W        W93901  35.499  28.948  12.179
22319W        W93902   5.853  39.020  12.796
22320W        W93903  32.889  30.151   1.535
22321W        W93904  14.565  16.263   0.755
22322W        W93905  13.834  39.279  10.749
22323W        W93906   0.232   6.491   2.896
22324W        W93907  30.120  13.637  14.526
22325W        W93908  25.707  12.820   3.583
22326W        W93909  36.488   5.261   0.874
22327W        W93910   1.859  36.839  12.094
22328W        W93911  20.071  26.201   2.599
22329W        W93912  10.444  19.032   4.077
22330W        W93913  24.542  24.562   2.758
22331W        W93914  30.572  36.071   1.835
22332W        W93915  16.349   1.607   3.741
22333W        W93916  30.495  12.514  14.085
22334W        W93917  43.425  14.093   2.186
22335W        W93918  20.604  40.594  13.309
22336W        W93919  25.680  17.978   1.597
22337W        W93920  26.541  37.422  14.885
22338W        W93921   0.458   7.617   0.885
22339W        W93922   6.841  23.367   2.259
22340W        W93923  36.189  14.835  13.288
22341W        W93924  42.341   0.616  11.495
22342W        W93925  26.394  42.927  14.009
22343W        W93926   5.457  41.789  10.658
22344W        W93927  30.326  39.454   4.539
22345W        W93928  35.729  14.352   3.730
22346W        W93929  15.747   9.489  12.467
22347W        W93930  28.426  38.194   0.804
22348W        W93931  41.404  36.053  11.123
22349W        W93932  24.153  40.935   2.311
22350W        W93933  42.313  40.344   0.967
22351W        W93934  37.918  26.659  11.431
22352W        W93935  26.733  11.171   0.567
22353W        W93936  29.685   2.218   3.372
22354W        W93937   6.843  17.995  11.945
22355W        W93938  11.402   3.227  11.979
22356W        W93939  44.382   2.273   1.491
22357W        W93940  23.595  31.499  12.572
22358W        W93941  14.315  32.667  12.405
22359W        W93942   1.079  41.568   0.175
22360W        W93943  29.138  16.615  11.156
22361W        W93944  29.411  44.354  11.097
22362W        W93945  27.178   6.188   1.212
22363W        W93946  12.218  29.456   3.440
22364W        W93947  41.674  34.607   4.985
22365W        W93948  22.626  36.154  10.774
22366W        W93949  36.622  41.388  14.815
22367W        W93950  26.347  33.028  10.636
22368W        W93951  17.847  36.528   1.370
22369W        W93952  16.968  17.680  11.129
22370W        W93953  38.750  28.543   2.327
22371W        W93954  11.882  39.046   3.658
22372W        W93955   6.218  18.239   1.771
22373W        W93956  27.694  34.091  14.200
22374W        W93957  25.114  29.490  13.119
22375W        W93958  26.038  39.412   1.142
22376W        W93959  42.885   3.717  11.526
22377W        W93960  17.777   9.373  14.688
22378W        W93961  14.413  36.692  12.990
22379W        W93962  10.050   2.375   2.779
22380W        W93963   3.378  21.080  10.583
22381W        W93964   2.769  11.269  12.291
22382W        W93965   9.707  16.078   0.340
22383W        W93966  34.870  18.606   3.547
22384W        W93967  17.591  11.776  13.776
22385W        W93968  13.143  21.134   2.593
22386W        W93969  21.462  37.182  11.455
22387W        W93970   5.235  20.463   3.016
22388W        W93971  40.789  27.481  12.437
22389W        W93972  38.777  19.612  12.904
22390W        W93973  27.977  42.560  11.152
22391W        W93974  12.357  21.810  12.051
22392W        W93975  35.856  44.782   3.030
22393W        W93976   8.438  13.018   0.153
22394W        W93977  43.403  13.866  13.637
22395W        W93978  29.404  43.467  13.863
22396W        W93979   7.325  13.520  12.082
22397W        W93980   5.925  43.895   3.602
22398W        W93981  20.213  43.991   0.506
22399W        W93982   5.754  24.904   4.934
22400W        W93983  35.744  15.220   1.770
22401W        W93984  17.052  42.210   3.107
22402W        W93985  24.138  27.705  13.388
22403W        W93986   5.784   7.871  11.519
22404W        W93987  37.035  23.241  14.392
22405W        W93988   3.778  42.162   4.549
22406W        W93989  41.144  15.041   4.251
22407W        W93990   2.830   4.408   2.405
22408W        W93991  40.747   9.734  14.244
22409W        W93992  12.761  21.754  13.506
22410W        W93993  33.570  31.859  12.075
22411W        W93994   9.891   4.434   4.552
22412W        W93995  27.135  18.754   3.268
22413W        W93996  21.053   2.916   3.286
22414W        W93997   0.794  22.227  13.514
22415W        W93998  25.426  37.631   2.244
22416W        W93999  37.803   4.201  12.027
22417W        W94000   4.920  44.341   2.691
22418W        W94001   8.762  35.951  11.191
22419W        W94002   9.917  19.648   0.722
22420W        W94003  18.338  40.870   4.357
22421W        W94004  14.249  37.841   4.806
22422W        W94005   5.657  28.026   4.370
22423W        W94006  10.191  11.314   5.348
22424W        W94007  36.547   5.739  10.980
22425W        W94008  33.905  42.931  13.466
22426W        W94009  26.554  29.370   2.631
22427W        W94010   0.835   8.201  11.614
22428W        W94011   7.733   2.494   1.791
22429W        W94012   2.080   7.719  12.455
22430W        W94013   9.649  13.437   0.151
22431W        W94014  16.034  17.193  12.063
22432W        W94015  17.384  36.909   3.712
22433W        W94016   0.979  29.883   3.841
22434W        W94017  18.788  30.961  12.032
22435W        W94018  35.148  30.558   1.216
22436W        W94019  13.996  33.033   0.450
22437W        W94020  40.226  14.479  13.420
22438W        W94021  20.223   0.820   4.247
22439W        W94022   8.930  13.763   1.916
22440W        W94023  37.275  32.372  13.509
22441W        W94024  41.937  17.762  14.820
22442W        W94025  32.724  35.685   3.195
22443W        W94026  16.478  23.880   2.740
22444W        W94027   9.288   0.616  10.331
22445W        W94028   0.764  10.909   2.259
22446W        W94029  33.540  19.265  10.148
22447W        W94030  23.826   3.749   0.346
22448W        W94031  16.704   1.418   4.673
22449W        W94032  30.054  10.745  10.666
22450W        W94033  43.913  42.471  10.978
22451W        W94034  44.177  16.865   4.098
22452W        W94035  41.026  44.880   0.446
22453W        W94036  33.528  40.600   4.680
22454W        W94037  12.746  27.735   3.944
22455W        W94038  17.287  42.559  14.372
22456W        W94039  36.475  21.657  12.618
22457W        W94040  18.241   8.680  13.962
22458W        W94041  10.870  22.453  13.762
22459W        W94042   9.179  34.997  13.293
22460W        W94043  44.684  40.721  12.603
22461W        W94044  21.628  43.418  14.812
22462W        W94045  12.769  25.669   0.166
22463W        W94046  18.893  16.253   3.615
22464W        W94047  32.989  21.567   3.774
22465W        W94048  40.810  23.491   0.469
22466W        W94049  27.390   0.480   1.883
22467W        W94050   9.467  21.504   0.267
22468W        W94051  33.052  25.635  14.041
22469W        W94052   6.232   9.707   4.712
22470W        W94053   1.376  15.660  13.399
22471W        W94054  40.045  14.298   2.822
22472W        W94055  22.484  44.361  10.749
22473W        W94056  21.660  43.919   3.277
22474W        W94057  36.768  28.855   3.503
22475W        W94058  13.644  14.813  12.556
22476W        W94059  26.433  24.205   0.346
22477W        W94060   1.342  18.175   3.862
22478W        W94061  44.225  15.140   4.233
22479W        W94062   7.393  36.123  13.421
22480W        W94063  21.042  39.974   4.195
22481W        W94064  24.489  40.250  14.414
22482W        W94065  13.856  16.906  14.191
22483W        W94066   2.049   2.996  12.136
22484W        W94067  31.959  43.946   3.890
22485W        W94068  30.352  20.515   4.639
22486W        W94069  43.928  19.672   5.008
22487W        W94070  13.474  43.022   2.715
22488W        W94071  25.687  43.006   2.442
22489W        W94072  34.186  39.410   4.253
22490W        W94073   4.860  31.220  13.755
22491W        W94074  44.939  34.205   3.670
22492W        W94075   6.921  19.756   1.805
22493W        W94076  23.483  21.242  12.899
22494W        W94077  26.395  13.856  12.984
22495W        W94078   0.369  22.955  12.169
22496W        W94079   1.025   1.203   1.814
22497W        W94080  16.789   9.805  13.439
22498W        W94081  32.962  27.104   0.834
22499W        W94082  38.110   6.552  10.740
22500W        W94083  37.477   1.951  11.652
22501W        W94084  38.982  32.143  10.654
22502W        W94085  12.699  27.663   1.901
22503W        W94086  42.676  26.376  14.355
22504W        W94087  14.981  36.811   9.998
22505W        W94088  19.262  23.789  11.067
22506W        W94089   3.063  41.006  13.072
22507W        W94090  16.681  36.333   5.079
22508W        W94091  25.013  20.695   2.336
22509W        W94092   8.407  15.036   4.044
22510W        W94093  14.921   9.946  12.907
22511W        W94094  19.707  23.166   0.311
22512W        W94095   3.036  27.191   1.497
22513W        W94096  38.056  11.629   0.283
22514W        W94097  20.727  15.752  12.867
22515W        W94098  39.788  18.104   0.380
22516W        W94099  31.145  14.168   2.863
22517W        W94100  19.026  29.159  13.521
22518W        W94101  18.121  42.380  14.043
22519W        W94102  18.144  27.706   2.786
22520W        W94103  29.141  24.544  14.735
22521W        W94104   5.688  18.034  11.473
22522W        W94105  24.983  31.640   3.905
22523W        W94106   3.676  29.136   4.361
22524W        W94107   4.172  10.722  12.350
22525W        W94108  26.010   7.238   3.554
22526W        W94109  15.399  18.792   2.417
22527W        W94110  30.567  21.247  13.345
22528W        W94111  44.415   6.911   0.744
22529W        W94112  31.612  41.781  11.167
22530W        W94113  27.172  11.693   1.294
22531W        W94114  44.383  29.137  13.008
22532W        W94115  20.776  20.076   4.252
22533W        W94116  40.981  44.448   3.693
22534W        W94117  20.588   8.970   3.680
22535W        W94118  36.846   1.456   3.717
22536W        W94119  37.100  40.006  13.284
22537W        W94120  25.614  24.818   4.955
22538W        W94121   3.311   8.986   2.662
22539W        W94122  21.029  13.234   2.437
22540W        W94123   5.196  10.232  13.075
22541W        W94124  36.092  44.345  12.069
22542W        W94125  15.324  22.967  10.773
22543W        W94126  14.778  18.802   1.249
22544W        W94127  10.697  21.257  14.852
22545W        W94128  37.553  11.863  13.940
22546W        W94129  30.129   1.585  12.868
22547W        W94130  29.077  42.845   0.529
22548W        W94131   4.950  12.253   2.655
22549W        W94132  25.626  38.688  13.348
22550W        W94133  18.204  40.527  14.306
22551W        W94134   6.651  19.532   1.388
22552W        W94135  35.365  44.512   1.179
22553W        W94136  37.887  18.810  12.129
22554W        W94137   9.434  24.725  11.891
22555W        W94138  31.444  22.830   1.849
22556W        W94139  11.542   2.061  12.514
22557W        W94140  29.365  20.217   2.182
22558W        W94141  43.921  11.864   3.722
22559W        W94142  31.899   1.748   4.226
22560W        W94143  17.605  43.132  14.813
22561W        W94144  15.580   4.929   3.279
22562W        W94145   6.669  29.344   2.291
22563W        W94146  31.517   7.642   1.341
22564W        W94147  35.356   2.391  13.931
22565W        W94148  43.249  29.502   1.184
22566W        W94149  28.452  41.933  14.123
22567W        W94150  11.800  38.222   2.355
22568W        W94151  26.727  30.445   4.902
22569W        W94152  24.452  27.398  14.483
22570W        W94153  24.056  15.200  13.528
22571W        W94154  33.657  17.866   3.569
22572W        W94155   2.348  27.468   3.597
22573W        W94156  30.040  29.072   4.303
22574W        W94157  13.259  24.234  12.524
22575W        W94158   2.160  38.380   5.473
22576W        W94159  23.560  10.233  12.771
22577W        W94160   2.798  13.082   2.819
22578W        W94161  28.414  20.819   0.743
22579W        W94162  15.819  15.468  12.602
22580W        W94163  40.919   6.828  14.030
22581W        W94164  21.772  29.475   0.282
22582W        W94165  36.695  32.010  11.542
22583W        W94166   6.851  26.894  14.723
22584W        W94167   0.257  22.151  11.551
22585W        W94168  35.188  30.446   3.829
22586W        W94169  26.471   4.391  12.109
22587W        W94170   4.013  39.876   3.995
22588W        W94171  42.296  15.547  12.757
22589W        W94172  20.679  43.501   1.694
22590W        W94173  22.361   9.216  14.526
22591W        W94174  37.944   3.046  10.398
22592W        W94175  33.542  14.330   5.005
22593W        W94176   0.773  28.954   4.352
22594W        W94177  10.643  12.339  13.447
22595W        W94178   8.938  34.095  10.740
22596W        W94179   1.778  35.082   0.081
22597W        W94180  17.720  40.037   1.286
22598W        W94181  12.653  43.898  14.275
22599W        W94182  19.670  20.628   3.369
22600W        W94183  28.198  16.238   4.789
22601W        W94184  11.590  11.814   4.562
22602W        W94185   5.095  10.081   0.364
22603W        W94186  33.373  33.373   2.665
22604W        W94187   7.029  37.590   1.405
22605W        W94188  37.415   6.137  11.940
22606W        W94189  32.178  11.606  10.680
22607W        W94190  37.522  10.446   2.323
22608W        W94191  26.419  11.773  13.386
22609W        W94192  14.738   7.743   1.622
22610W        W94193   0.373  41.028  12.010
22611W        W94194   4.924   9.928   1.683
22612W        W94195  11.457  37.648   3.226
22613W        W94196  43.900  24.009   4.112
22614W        W94197  39.459  21.333   1.935
22615W        W94198  19.118  34.835  10.690
22616W        W94199  27.150  15.324  10.765
22617W        W94200  10.884  19.154  12.833
22618W        W94201  28.384  25.000   3.699
22619W        W94202  24.560  23.395  13.278
22620W        W94203   4.879  32.200  14.015
22621W        W94204  14.551   8.171   1.367
22622W        W94205  12.755  28.593   0.770
22623W        W94206  43.530  22.299   1.987
22624W        W94207  14.887  20.292   3.698
22625W        W94208  24.144  16.543   2.294
22626W        W94209  18.633  18.520  13.824
22627W        W94210  23.692   1.544   0.277
22628W        W94211  36.236  29.960  11.503
22629W        W94212  28.127  28.468  10.779
22630W        W94213  11.239   1.353   3.127
22631W        W94214  39.896  35.157  12.625
22632W        W94215  24.981  14.453   2.678
22633W        W94216   7.272  14.559   4.074
22634W        W94217  33.601  35.193   4.091
22635W        W94218  37.438  25.201  12.070
22636W        W94219   0.950   8.761   3.689
22637W        W94220   8.779  28.901   3.316
22638W        W94221  40.486  32.982  13.462
22639W        W94222  35.522   7.229  14.433
22640W        W94223  17.788  14.874   4.493
22641W        W94224  27.028  39.271   1.301
22642W        W94225  26.934  36.508   2.745
22643W        W94226  13.597  33.757  14.379
22644W        W94227  29.579  27.019  10.601
22645W        W94228  21.680  21.816  14.377
22646W        W94229  10.357  32.523  13.584
22647W        W94230  15.552   7.731  10.734
22648W        W94231   8.836  40.848   2.801
22649W        W94232   3.819  10.116   1.276
22650W        W94233  16.746  26.771  11.127
22651W        W94234  31.418  23.097   5.170
22652W        W94235  31.970  33.974   4.054
22653W        W94236  37.473  22.609   4.184
22654W        W94237  27.010  17.778   0.408
22655W        W94238  22.006  12.331  14.182
22656W        W94239  43.337  16.104  13.764
22657W        W94240   8.424  36.520   1.799
22658W        W94241  23.085   3.536   0.949
22659W        W94242  32.919   1.052   1.809
22660W        W94243  24.678  20.575   2.956
22661W        W94244  12.025  25.520  13.381
22662W        W94245  24.464  32.126   1.819
22663W        W94246  15.761  37.589  13.419
22664W        W94247  38.353   3.607  13.850
22665W        W94248  18.229  22.733  14.363
22666W        W94249  38.066  12.831  13.876
22667W        W94250  24.180  29.980   2.613
22668W        W94251  26.721  41.406  14.976
22669W        W94252  11.647  14.649   1.888
22670W        W94253  15.679  33.009  14.907
22671W        W94254  22.631  21.097  11.843
22672W        W94255   2.680   8.794  12.966
22673W        W94256   0.123   3.722   1.758
22674W        W94257   6.425   5.917  14.707
22675W        W94258  43.297  20.797  12.501
22676W        W94259  44.963  10.290   3.844
22677W        W94260  43.289  21.279   3.375
22678W        W94261  24.966  44.786  12.445
22679W        W94262  41.190  38.942   0.961
22680W        W94263  41.327  23.164  10.438
22681W        W94264  42.292   0.332   1.141
22682W        W94265  22.340   4.133   1.298
22683W        W94266  39.039  23.537  10.736
22684W        W94267   0.969  26.167   0.819
22685W        W94268  10.613  10.083   0.820
22686W        W94269  36.522  25.236  11.742
22687W        W94270  21.228  18.052   1.339
22688W        W94271  34.446  28.075   2.650
22689W        W94272   2.421   1.394   3.931
22690W        W94273  13.426  18.907   1.364
22691W        W94274  24.633  37.459   0.910
22692W        W94275  12.156   0.673   1.319
22693W        W94276  18.672  34.531   0.351
22694W        W94277   9.321  22.016   4.515
22695W        W94278  30.755  19.465  13.392
22696W        W94279  43.391  33.203  11.989
22697W        W94280  27.241  12.092  11.174
22698W        W94281  25.780  44.382   1.720
22699W        W94282  27.197   4.148  11.133
22700W        W94283   8.322   9.462   1.765
22701W        W94284  40.925  18.969   1.087
22702W        W94285   1.025  23.986   2.682
22703W        W94286  21.767   9.627  13.007
22704W        W94287  28.082  28.530   2.083
22705W        W94288  30.752  41.079  13.648
22706W        W94289  18.755  17.584   3.219
22707W        W94290   0.987  20.469  13.849
22708W        W94291  21.812   3.310   0.404
22709W        W94292   0.056  20.824   1.975
22710W        W94293   1.051  36.122  14.641
22711W        W94294  11.130  35.639  11.428
22712W        W94295  26.523   3.346   3.461
22713W        W94296  20.067  20.261  14.284
22714W        W94297  17.888  13.410  14.491
22715W        W94298   2.470   7.222  13.397
22716W        W94299  22.835  44.791   3.767
22717W        W94300  18.827  29.117  11.509
22718W        W94301  37.032  14.236  12.534
22719W        W94302   2.299  18.642   4.061
22720W        W94303  31.418  29.571   2.450
22721W        W94304  22.556  11.227   3.405
22722W        W94305  31.067  42.843   3.144
22723W        W94306   7.336  38.337  12.022
22724W        W94307  23.538  28.236   1.269
22725W        W94308  23.974   4.676  11.602
22726W        W94309   8.860   3.296   2.866
22727W        W94310   8.904  43.222   1.314
22728W        W94311  26.552  19.270  13.411
22729W        W94312  23.978  13.837   0.481
22730W        W94313  37.644  36.975   3.864
22731W        W94314  10.165  41.093  13.943
22732W        W94315  15.841  38.341  12.044
22733W        W94316   3.657  29.030   2.790
22734W        W94317  35.072  26.636  10.498
22735W        W94318   4.498  20.852  13.538
22736W        W94319  44.544  32.668   2.425
22737W        W94320  14.754  29.190   1.664
22738W        W94321  39.777  23.648   3.635
22739W        W94322  12.038  13.423   3.116
22740W        W94323  28.042  18.169   2.580
22741W        W94324  11.655  26.549  10.573
22742W        W94325  11.167  23.043  14.840
22743W        W94326  41.896  29.709  13.770
22744W        W94327  34.545  44.827   1.025
22745W        W94328  23.054   1.437  11.945
22746W        W94329  39.548  20.308  14.885
22747W        W94330  14.288  23.006  11.496
22748W        W94331  38.536  42.869   2.289
22749W        W94332   7.840   2.185   2.757
22750W        W94333   5.574  39.745   4.476
22751W        W94334  36.844  40.461   1.014
22752W        W94335  41.825  39.799  13.538
22753W        W94336  25.232  33.675  12.551
22754W        W94337  12.390  35.913  14.520
22755W        W94338  33.129  13.690  12.449
22756W        W94339  20.251  14.252  12.467
22757W        W94340  30.080  35.936   0.471
22758W        W94341   2.310  18.267   4.866
22759W        W94342  15.260  36.875   2.570
22760W        W94343  32.389  31.890   1.958
22761W        W94344  12.823  12.599   1.352
22762W        W94345  38.814  19.727  10.337
22763W        W94346  25.047  38.403  13.929
22764W        W94347  21.739  21.084  11.467
22765W        W94348  21.658  20.567  12.531
22766W        W94349   9.894  15.571   1.158
22767W        W94350   2.791  36.629   1.929
22768W        W94351  10.243  26.080   0.812
22769W        W94352  25.909  30.455  12.389
22770W        W94353   2.716  37.478   4.670
22771W        W94354  16.659  10.801   0.770
22772W        W94355  40.385   2.200   1.760
22773W        W94356  42.430   1.788   3.383
22774W        W94357  21.287  43.707  13.712
22775W        W94358  14.340  38.983   5.073
22776W        W94359   6.019  36.578  14.457
22777W        W94360   1.249  16.183  13.452
22778W        W94361   3.931  21.662   3.234
22779W        W94362   5.352   9.860  12.110
22780W        W94363  10.103  37.932   2.602
22781W        W94364  29.444  25.770   0.674
22782W        W94365  40.302  30.647  14.511
22783W        W94366  36.569   0.243   4.802
22784W        W94367  22.322  14.693  12.454
22785W        W94368  20.939   2.574   2.419
22786W        W94369  25.428  44.054   1.516
22787W        W94370  26.685  36.296   0.420
22788W        W94371  28.380  25.628  11.218
22789W        W94372   8.697  31.675  13.090
22790W        W94373  32.368  11.043   1.971
22791W        W94374  38.511  17.030  14.491
22792W        W94375  22.052  17.128   3.226
22793W        W94376   9.464  12.734   3.761
22794W        W94377  38.954   7.209   0.296
22795W        W94378  12.662   3.747  14.290
22796W        W94379  14.614  28.229  11.531
22797W        W94380  34.913  17.333   2.601
22798W        W94381   3.709  26.597  13.994
22799W        W94382  19.951  24.193   5.041
22800W        W94383  20.620  42.575   1.853
22801W        W94384  35.543  24.484   0.867
22802W        W94385  21.020  19.100   1.350
22803W        W94386  10.794  14.888  12.390
22804W        W94387   1.766  15.328   0.666
22805W        W94388  37.190  27.992  11.713
22806W        W94389   2.450  32.065  11.614
22807W        W94390  43.039   6.327  10.538
22808W        W94391  18.173  28.335   0.885
22809W        W94392  29.587  33.967  11.571
22810W        W94393   5.332  25.985  11.926
22811W        W94394  19.322  32.531   3.597
22812W        W94395  34.183   0.980   2.863
22813W        W94396  36.330  11.337   2.234
22814W        W94397  30.430   7.134  11.952
22815W        W94398   5.902  20.555  12.853
22816W        W94399  36.973  14.232   4.132
22817W        W94400  39.519  27.588   3.158
22818W        W94401  12.906  30.993   0.310
22819W        W94402   3.735  36.016   0.757
22820W        W94403  39.841  24.984   1.108
22821W        W94404  10.376  40.252  12.104
22822W        W94405   6.824  23.993  14.398
22823W        W94406   7.535   8.433  12.906
22824W        W94407   0.324   0.833  11.936
22825W        W94408  23.646  26.063   2.220
22826W        W94409   1.674  20.511   3.339
22827W        W94410  16.558  14.170   1.091
22828W        W94411  40.858  39.947  11.159
22829W        W94412  38.661  36.934   2.691
22830W        W94413  36.646   5.922   0.456
22831W        W94414   8.111  19.935  14.058
22832W        W94415  44.331   5.740   1.420
22833W        W94416  33.464  44.919  11.478
22834W        W94417  25.478  22.176  13.923
22835W        W94418  35.400  40.036  10.879
22836W        W94419  43.845  26.192   1.279
22837W        W94420  30.568   7.797   1.462
22838W        W94421  23.572   3.150  11.220
22839W        W94422  18.307  21.210  13.368
22840W        W94423   8.225  21.612  11.187
22841W        W94424  34.427  19.046   3.424
22842W        W94425   0.843  34.669  10.797
22843W        W94426  16.559  13.334  13.405
22844W        W94427  16.628  23.494   1.494
22845W        W94428   1.520  13.207   4.375
22846W        W94429  36.513  25.087  14.973
22847W        W94430  32.122   2.011  13.748
22848W        W94431   7.453  15.257   0.359
22849W        W94432   6.323  22.530  10.793
22850W        W94433   5.346  26.239   2.092
22851W        W94434  16.753  39.546  13.084
22852W        W94435  33.569  28.293   5.166
22853W        W94436  13.803  14.335  10.650
22854W        W94437  38.318  38.022  12.052
22855W        W94438  20.213  31.298   1.255
22856W        W94439  16.225  28.034   1.778
22857W        W94440  40.144  29.161  10.607
22858W        W94441  31.670   3.720  10.455
22859W        W94442  16.836  19.530   2.413
22860W        W94443   6.735  35.629  10.778
22861W        W94444  35.682  39.874   1.360
22862W        W94445  23.071   2.730  13.493
22863W        W94446  12.454  36.040  13.617
22864W        W94447  40.671  25.722  12.917
22865W        W94448  32.555   4.380   4.790
22866W        W94449   4.353   0.343   3.605
22867W        W94450  27.548   5.162  14.299
22868W        W94451  23.684  36.994  12.984
22869W        W94452  17.136  40.370  13.444
22870W        W94453   9.590  33.040   1.670
22871W        W94454   6.190   5.651   1.766
22872W        W94455  34.094  21.591  11.365
22873W        W94456  36.877  25.665  14.440
22874W        W94457  13.291  11.238  12.494
22875W        W94458  35.266  13.901  11.111
22876W        W94459  25.410  22.100   2.245
22877W        W94460  37.752  22.876  13.235
22878W        W94461   8.300  31.028   4.449
22879W        W94462  44.445  39.999   3.337
22880W        W94463  29.153   6.948   1.445
22881W        W94464  15.057  29.663   2.432
22882W        W94465  22.906  24.004  13.089
22883W        W94466  27.477  44.964   2.727
22884W        W94467  23.099  13.203  12.311
22885W        W94468  10.052  12.967   1.808
22886W        W94469  31.746  10.202   0.970
22887W        W94470   4.486  16.696  14.781
22888W        W94471  41.900  22.996  14.494
22889W        W94472  30.469  26.185   1.784
22890W        W94473  39.913  29.722   0.373
22891W        W94474  40.326  35.436  11.112
22892W        W94475  39.895   9.601  12.068
22893W        W94476   7.451  22.627   2.479
22894W        W94477  13.260  42.768   3.120
22895W        W94478   2.511  18.733  11.042
22896W        W94479  31.709  21.041  12.416
22897W        W94480  13.228  34.000  14.881
22898W        W94481  35.800  43.964  11.374
22899W        W94482   9.115  19.101   4.536
22900W        W94483  34.821  41.871  12.473
22901W        W94484  25.664   3.829   4.573
22902W        W94485  35.922   5.881  13.651
22903W        W94486   1.578   5.639   4.069
22904W        W94487  37.379  27.201   4.432
22905W        W94488  15.236  34.102  13.473
22906W        W94489  11.756  12.877  12.032
22907W        W94490   6.616  26.449   2.783
22908W        W94491  27.550   9.796   1.281
22909W        W94492  32.882  34.540   1.282
22910W        W94493  41.131   3.516  13.584
22911W        W94494  22.018  13.309   2.750
22912W        W94495  33.345  14.889  11.188
22913W        W94496  25.831   6.298   1.625
22914W        W94497  18.659  16.896   4.095
22915W        W94498  22.332  44.904   3.686
22916W        W94499  19.108  25.017  14.055
22917W        W94500  10.803  15.752  13.275
22918W        W94501   6.252  37.489   0.929
22919W        W94502   5.642  20.583   3.755
22920W        W94503  13.431   7.126   0.533
22921W        W94504  22.245   9.989  10.595
22922W        W94505  33.546  28.998   3.560
22923W        W94506  31.378  31.623  12.349
22924W        W94507  17.600  18.591  13.953
22925W        W94508  40.542  34.485  10.750
22926W        W94509  35.941  16.835   0.860
22927W        W94510   5.466  29.202   2.247
22928W        W94511  22.518   5.348   0.768
22929W        W94512   0.860  41.719   4.575
22930W        W94513  35.390  22.990   1.750
22931W        W94514  14.522  12.742   3.221
22932W        W94515   5.296   8.803  13.051
22933W        W94516   3.817  11.915  13.542
22934W        W94517   7.947   1.391   3.800
22935W        W94518   5.360  13.407  12.135
22936W        W94519  25.892   8.288   3.190
22937W        W94520  39.251  14.763  14.277
22938W        W94521  20.487  23.387   0.175
22939W        W94522   2.301  23.317  12.820
22940W        W94523  21.167  36.522   2.371
22941W        W94524  36.957   9.848  13.677
22942W        W94525  43.890  17.457  14.050
22943W        W94526  32.000  24.270  11.186
22944W        W94527  14.784  16.347  14.354
22945W        W94528   8.436  40.807   3.863
22946W        W94529  14.395  38.377  13.392
22947W        W94530  37.152   5.344   2.728
22948W        W94531  30.781  38.552  11.921
22949W        W94532  20.440  11.754   1.624
22950W        W94533  24.639  41.898   1.226
22951W        W94534  20.964  32.253   3.561
22952W        W94535  27.429   8.275   0.236
22953W        W94536  39.236   7.775  13.032
22954W        W94537  16.197   1.255  11.856
22955W        W94538  41.241  15.917  11.126
22956W        W94539  29.066  41.913   3.876
22957W        W94540  18.556  30.890  10.511
22958W        W94541  11.848  10.617  11.550
22959W        W94542  12.904  39.414  13.368
22960W        W94543   7.207  29.036  12.614
22961W        W94544  17.106  18.761  11.468
22962W        W94545  36.213  44.476  11.541
22963W        W94546  28.994  30.117   3.057
22964W        W94547  31.392  26.591  10.566
22965W        W94548   2.785  27.225  13.851
22966W        W94549  35.350  39.419  10.656
22967W        W94550   8.427  30.165   4.458
22968W        W94551  16.707  20.064   2.478
22969W        W94552  33.110  10.602   4.532
22970W        W94553  23.488   9.098   1.386
22971W        W94554  21.983  36.331   0.530
22972W        W94555   3.756   1.465   0.544
22973W        W94556  25.237  18.804  14.354
22974W        W94557  32.384  20.772   3.882
22975W        W94558  21.207  10.875   0.379
22976W        W94559  24.856   4.655   4.364
22977W        W94560  18.173  43.819  13.166
22978W        W94561   6.338  31.410  11.084
22979W        W94562  17.992  11.365   1.368
22980W        W94563   2.762  24.341   1.516
22981W        W94564  13.074   2.785  12.493
22982W        W94565   1.032   1.883   0.331
22983W        W94566  17.571  11.864  13.262
22984W        W94567  39.074  27.007  11.318
22985W        W94568  21.144  19.793  14.006
22986W        W94569  36.136  24.558  14.255
22987W        W94570  43.598  21.560  11.965
22988W        W94571  26.582   9.606   3.776
22989W        W94572  43.324  29.523  13.845
22990W        W94573  41.930   7.813   4.242
22991W        W94574  30.354  10.827  12.481
22992W        W94575   9.010  13.907   0.957
22993W        W94576  16.192  31.162  11.693
22994W        W94577  39.456   5.881  14.893
22995W        W94578  32.343  19.116   3.212
22996W        W94579  11.339  36.006   1.277
22997W        W94580  41.625  42.355  12.053
22998W        W94581  39.944   4.314   1.329
22999W        W94582  26.243  18.867  12.495
23000W        W94583  37.299   4.118  12.001
23001W        W94584  13.027   6.479   3.197
23002W        W94585  34.451  13.539  12.340
23003W        W94586  14.749  31.842   2.144
23004W        W94587  16.610  29.884  14.326
23005W        W94588  26.564  44.409  12.450
23006W        W94589   7.788  17.806   4.923
23007W        W94590  39.430   6.294  10.917
23008W        W94591  34.859  41.836   4.887
23009W        W94592  12.189  44.978   0.539
23010W        W94593  14.314  16.027  12.144
23011W        W94594   7.399  36.839  14.404
23012W        W94595  38.612   9.477  14.942
23013W        W94596  20.078   2.293   4.443
23014W        W94597  42.898  21.472   4.874
23015W        W94598   0.103  27.506   4.000
23016W        W94599  15.924   0.699  10.048
23017W        W94600  13.092   1.180   0.734
23018W        W94601  42.892  17.160  13.032
23019W        W94602  40.369  22.723   3.648
23020W        W94603  16.749  19.545  11.186
23021W        W94604  37.544  35.008   2.145
23022W        W94605  26.437  27.953  13.982
23023W        W94606  27.167  30.396  11.069
23024W        W94607  28.458  16.766  11.417
23025W        W94608  42.162   6.464   4.114
23026W        W94609  37.239   3.133   2.732
23027W        W94610  44.414  36.809  13.774
23028W        W94611  43.897   3.818  12.477
23029W        W94612  20.209  13.794   2.622
23030W        W94613  30.115  33.101   0.540
23031W        W94614  25.050  17.861   1.417
23032W        W94615  28.602  27.783   1.188
23033W        W94616  40.703   7.351  12.074
23034W        W94617  42.450  17.318   3.131
23035W        W94618  14.117  34.904   3.057
23036W        W94619   5.411  16.796  14.117
23037W        W94620  13.780  26.078  14.456
23038W        W94621  18.694  32.607  13.775
23039W        W94622   0.813  35.416   4.503
23040W        W94623  37.348  29.998   0.697
23041W        W94624  21.239   4.536  11.566
23042W        W94625  41.005  41.414  14.971
23043W        W94626   7.914   3.842  12.068
23044W        W94627   5.225  36.894   5.469
23045W        W94628  34.146   5.649   1.851
23046W        W94629   4.380  38.236   3.700
23047W        W94630  43.924  17.700  10.909
23048W        W94631   5.988   1.401  11.701
23049W        W94632  33.611  42.535   4.156
23050W        W94633  14.709   6.254  13.294
23051W        W94634   4.807  41.819   3.952
23052W        W94635  43.271   7.174   2.354
23053W        W94636  28.655  40.487   0.257
23054W        W94637  17.911  39.395   0.272
23055W        W94638  11.173  32.714   1.794
23056W        W94639  44.976   3.260   4.820
23057W        W94640  12.245  37.313  13.462
23058W        W94641  15.188  35.491   2.809
23059W        W94642  14.575  32.974  12.078
23060W        W94643  26.673  32.457   3.676
23061W        W94644  20.130   9.736   3.154
23062W        W94645   5.587  30.963  10.612
23063W        W94646  33.398  42.225   2.614
23064W        W94647   2.324   8.943   0.706
23065W        W94648  18.236  40.003  11.258
23066W        W94649  12.852  24.469   0.382
23067W        W94650   1.945  25.016  14.886
23068W        W94651   6.448  32.275   4.633
23069W        W94652   0.940  37.862   1.175
23070W        W94653  23.137  38.446  12.881
23071W        W94654  44.301   5.924   3.790
23072W        W94655  39.275  42.982  12.834
23073W        W94656   3.360  15.627  13.095
23074W        W94657  31.393  26.989  11.132
23075W        W94658  13.290  15.595  13.423
23076W        W94659   4.459   6.215  12.985
23077W        W94660  36.591  41.498  12.048
23078W        W94661  29.454  18.230  14.002
23079W        W94662   3.322  41.147   1.839
23080W        W94663   2.000  35.542  12.339
23081W        W94664  42.722   3.161   4.515
23082W        W94665  43.339  35.876  13.326
23083W        W94666  38.812  43.373   3.611
23084W        W94667  21.644  17.659   3.328
23085W        W94668   5.380  33.981  11.421
23086W        W94669  43.306  14.355   0.330
23087W        W94670   4.158  39.036  10.459
23088W        W94671  29.944  40.437   1.379
23089W        W94672  22.621   3.157   3.066
23090W        W94673  43.379  34.041  11.465
23091W        W94674  44.801  20.761   0.551
23092W        W94675  15.126  21.074   2.335
23093W        W94676  16.069  18.176   3.647
23094W        W94677   4.039  19.244  13.291
23095W        W94678  29.782   2.575   2.144
23096W        W94679   0.971  34.519  13.377
23097W        W94680   8.722  29.476   4.574
23098W        W94681  44.811   0.167  13.579
23099W        W94682  31.693  25.421   4.169
23100W        W94683  12.109  44.339   1.278
23101W        W94684  15.131   7.825   0.866
23102W        W94685   3.517  29.961  10.569
23103W        W94686  39.629  42.431  11.117
23104W        W94687  32.633  21.205   2.395
23105W        W94688   2.501  11.922   3.758
23106W        W94689  15.290  18.769   3.941
23107W        W94690  42.886  40.767  12.964
23108W        W94691  38.773  15.945  12.310
23109W        W94692  12.238   7.958  12.131
23110W        W94693   1.944  19.472  13.862
23111W        W94694  31.368  44.262  11.854
23112W        W94695  23.491  11.031  14.001
23113W        W94696  37.800  37.594  11.352
23114W        W94697  32.197   1.397   2.439
23115W        W94698  40.008  24.262   1.751
23116W        W94699  16.527  15.616   1.252
23117W        W94700  28.894  24.203  11.904
23118W        W94701  16.192   7.240  14.754
23119W        W94702  42.207  26.493   3.393
23120W        W94703  30.734   3.840   0.313
23121W        W94704  24.765  19.682   2.439
23122W        W94705  41.767  37.319   1.334
23123W        W94706  14.134  38.817   4.632
23124W        W94707  30.180   3.002  10.709
23125W        W94708  32.823   4.800  13.840
23126W        W94709   1.579  34.900  14.453
23127W        W94710  28.091  24.754  13.030
23128W        W94711  32.908  40.081  10.654
23129W        W94712  31.599  16.204  11.251
23130W        W94713   1.286  23.174  11.464
23131W        W94714  19.603  24.594   1.745
23132W        W94715  29.862  29.442   3.578
23133W        W94716  43.283  29.282   1.649
23134W        W94717  19.539  12.113  13.821
23135W        W94718  34.493  11.357  11.363
23136W        W94719  12.877  11.806   4.038
23137W        W94720  21.585   6.658   3.543
23138W        W94721  33.327  42.993  12.362
23139W        W94722  22.401  26.136   1.753
23140W        W94723   8.853  14.812   4.231
23141W        W94724  33.301  36.290   0.450
23142W        W94725  23.150  34.229   0.640
23143W        W94726  38.476   5.696  10.943
23144W        W94727  24.454   4.424   1.932
23145W        W94728   2.325  26.754   1.842
23146W        W94729  37.511  23.627   4.375
23147W        W94730  33.107  33.126  10.667
23148W        W94731  43.049  40.384  10.628
23149W        W94732  38.803  37.073  10.755
23150W        W94733  34.786  29.542  12.008
23151W        W94734  14.083  14.998  14.319
23152W        W94735  23.233  44.821   2.415
23153W        W94736  28.066  33.710   2.830
23154W        W94737  16.792   4.658   3.764
23155W        W94738  43.098  17.852   1.260
23156W        W94739  21.437  18.121   3.352
23157W        W94740  26.643  19.773  13.317
23158W        W94741  32.124   6.746  12.061
23159W        W94742  44.812  18.370   0.363
23160W        W94743  24.017  21.877   1.799
23161W        W94744   5.940  22.977   1.457
23162W        W94745  12.607  21.139  12.720
23163W        W94746   0.763  25.282   4.120
23164W        W94747   5.529  32.997   2.604
23165W        W94748   9.194  30.052  14.447
23166W        W94749  41.419   9.160  11.967
23167W        W94750  15.172   2.861   1.925
23168W        W94751  17.650  10.352  11.099
23169W        W94752  14.781  16.869   2.749
23170W        W94753   6.454  26.948  11.201
23171W        W94754  22.729  19.654   3.241
23172W        W94755  38.427  22.240  11.345
23173W        W94756  32.816  23.021   0.764
23174W        W94757  28.816  22.534   4.565
23175W        W94758   4.804  36.101   3.824
23176W        W94759  37.463  26.625   5.084
23177W        W94760  36.307   2.869  13.015
23178W        W94761  34.365  17.024  11.501
23179W        W94762  15.978   8.158   2.275
23180W        W94763  27.248  16.528   0.672
23181W        W94764  12.742   5.599   3.707
23182W        W94765   1.459  36.059   4.275
23183W        W94766  38.916   8.728   3.907
23184W        W94767   8.202  35.654  10.677
23185W        W94768  24.797  36.367  11.602
23186W        W94769  37.694   4.666   5.055
23187W        W94770  34.791  37.072   1.653
23188W        W94771  11.565  39.430  10.460
23189W        W94772   8.990   6.575  11.917
23190W        W94773  17.570   8.909  12.565
23191W        W94774  26.517  13.460   0.309
23192W        W94775  19.068  39.615   3.055
23193W        W94776  32.156  24.561   1.500
23194W        W94777  16.397  20.066   1.943
23195W        W94778   6.443  40.920   9.829
23196W        W94779  38.559  22.689  11.115
23197W        W94780   0.542  16.519  12.471
23198W        W94781  32.565  31.882   4.188
23199W        W94782  26.634  23.278   1.825
23200W        W94783  13.155  21.456  11.061
23201W        W94784  12.667   6.851   3.299
23202W        W94785  39.976  10.813   0.445
23203W        W94786  14.424  41.747   3.773
23204W        W94787  33.536  38.980   1.313
23205W        W94788  14.808  33.586   1.359
23206W        W94789  15.125  13.393   3.717
23207W        W94790  27.690   2.707  14.978
23208W        W94791  36.364  33.525   3.569
23209W        W94792  33.720  28.385   3.227
23210W        W94793   3.737   8.201   1.207
23211W        W94794  26.895   3.254  11.165
23212W        W94795  37.523  31.952  13.319
23213W        W94796  31.489  11.176  14.923
23214W        W94797  30.454  13.108   3.147
23215W        W94798  14.762   8.331  11.180
23216W        W94799  39.712  40.309   0.809
23217W        W94800  36.213  28.587   4.598
23218W        W94801  18.361  32.057  12.552
23219W        W94802  38.816  38.912  11.987
23220W        W94803  24.893  39.901  14.237
23221W        W94804  35.403  43.188  11.311
23222W        W94805  21.769   6.597   5.019
23223W        W94806  30.526  42.366   0.984
23224W        W94807  26.006  23.845   4.080
23225W        W94808  40.678   9.035  12.400
23226W        W94809   0.442   1.216   0.243
23227W        W94810  22.563  20.556   3.368
23228W        W94811  11.365  38.457  13.269
23229W        W94812  44.746  36.606  11.350
23230W        W94813  27.365  32.966  14.941
23231W        W94814  11.659  30.073  10.943
23232W        W94815  18.859   6.075  11.174
23233W        W94816  17.217  35.126  11.927
23234W        W94817   9.383  13.568   1.661
23235W        W94818   0.381  22.447   0.934
23236W        W94819  14.698  20.571   1.790
23237W        W94820  22.131  14.068   1.637
23238W        W94821  32.560   8.652  12.619
23239W        W94822  32.664  34.477  12.908
23240W        W94823  16.062   9.423  12.031
23241W        W94824  25.998  11.398  11.631
23242W        W94825  24.738  35.988  14.302
23243W        W94826  12.668  25.457  10.739
23244W        W94827  34.295  20.665  10.614
23245W        W94828  28.444  32.471  12.585
23246W        W94829   3.248  33.452   2.171
23247W        W94830  44.836  33.645  10.823
23248W        W94831  21.719   8.372  11.206
23249W        W94832  19.185  31.661   2.651
23250W        W94833  11.395  21.055  13.482
23251W        W94834  14.318  21.875   4.098
23252W        W94835   2.313  33.628  11.979
23253W        W94836  16.231  24.065  10.705
23254W        W94837  41.300  42.958   3.726
23255W        W94838  39.068  42.802  13.670
23256W        W94839   7.296  34.559  14.782
23257W        W94840   9.185  26.410  11.122
23258W        W94841  42.829   1.768   0.922
23259W        W94842  22.806  32.841  13.799
23260W        W94843   8.376  25.238   0.471
23261W        W94844  17.622  10.130   0.240
23262W        W94845  11.683   7.411  12.165
23263W        W94846  37.632   8.695   2.687
23264W        W94847  39.738  32.478   0.535
23265W        W94848   8.670  10.291  12.897
23266W        W94849   7.874   8.589  14.446
23267W        W94850  36.133  43.067  14.460
23268W        W94851  44.806  31.167   1.368
23269W        W94852  39.538  24.762   4.253
23270W        W94853  24.865  26.900  12.768
23271W        W94854  24.413  12.077  12.540
23272W        W94855  27.236  30.071   2.781
23273W        W94856  30.388  44.592  11.120
23274W        W94857   4.907  39.538  13.024
23275W        W94858  37.668   6.571  11.038
23276W        W94859  42.414  40.606  12.263
23277W        W94860  18.109  38.129  14.762
23278W        W94861  16.077  13.841   2.581
23279W        W94862  42.840   7.964   3.698
23280W        W94863  19.177  40.706  10.962
23281W        W94864   2.464  33.331   2.689
23282W        W94865  15.662   5.440   3.362
23283W        W94866  27.667  37.904  12.535
23284W        W94867  36.333  44.563  12.960
23285W        W94868   7.622  27.932   0.359
23286W        W94869  25.976   4.183  14.929
23287W        W94870   3.279   9.678  13.075
23288W        W94871  19.585  34.668  11.900
23289W        W94872  41.178  23.961   0.181
23290W        W94873  17.533  43.067  13.928
23291W        W94874  18.280   5.255   2.476
23292W        W94875  41.234   2.323   1.966
23293W        W94876  31.139  19.087  12.201
23294W        W94877  31.186  33.007   4.970
23295W        W94878  13.256  12.620   2.609
23296W        W94879  11.848   6.404   4.694
23297W        W94880  20.216  41.053  13.853
23298W        W94881  21.536  18.549   1.885
23299W        W94882   8.763  16.200   2.329
23300W        W94883  42.527  37.420   0.069
23301W        W94884  35.551  12.234  14.514
23302W        W94885  12.616   9.342  12.937
23303W        W94886  38.069  27.418   1.064
23304W        W94887  34.763  32.346  11.617
23305W        W94888  42.156  20.040  13.971
23306W        W94889  35.869  37.910  13.035
23307W        W94890  15.729  38.689   4.549
23308W        W94891  42.790  15.932   2.469
23309W        W94892  12.553  43.094   2.647
23310W        W94893   3.311  36.575   3.148
23311W        W94894  11.201  22.597  14.577
23312W        W94895  30.143  18.248  11.863
23313W        W94896  41.884   7.401   4.543
23314W        W94897  28.086  28.712   2.575
23315W        W94898   8.423  30.553   1.762
23316W        W94899  43.714  23.417   2.811
23317W        W94900  18.817  12.392  11.407
23318W        W94901   5.882  38.136   3.657
23319W        W94902  11.149  43.909  12.329
23320W        W94903  39.054   1.416  13.408
23321W        W94904  30.840  41.381   0.815
23322W        W94905  36.067  31.353   1.858
23323W        W94906  43.188   5.181  14.067
23324W        W94907   7.262  16.399  10.596
23325W        W94908  25.602   9.525  10.697
23326W        W94909  42.707  10.844   2.973
23327W        W94910  33.460  36.160   4.616
23328W        W94911  24.195  27.420   4.601
23329W        W94912   2.058  41.805  12.122
23330W        W94913  21.695  43.970   4.184
23331W        W94914  24.029  41.076   0.220
23332W        W94915  14.788  15.227  10.467
23333W        W94916   7.056  15.903  11.464
23334W        W94917  43.188  13.951  14.971
23335W        W94918  18.343  36.663   1.198
23336W        W94919  26.754   9.753   2.472
23337W        W94920  21.818   6.792  13.485
23338W        W94921   6.654  36.856  11.158
23339W        W94922  14.385   2.786  12.485
23340W        W94923   3.386  17.574  14.259
23341W        W94924  10.668   1.512   0.764
23342W        W94925  22.172  17.743   2.696
23343W        W94926  42.460   0.351   3.695
23344W        W94927  43.889  14.352   2.236
23345W        W94928  30.294  18.720  14.993
23346W        W94929   1.912  14.377   0.367
23347W        W94930  41.243  19.804   0.532
23348W        W94931  13.204  41.392  12.417
23349W        W94932  32.142  36.536   3.154
23350W        W94933  16.688   8.209   4.584
23351W        W94934  42.926  22.479   4.554
23352W        W94935  11.626  25.645   1.630
23353W        W94936  37.611  41.955  11.660
23354W        W94937  30.364  30.640  11.721
23355W        W94938  22.771  40.935  14.832
23356W        W94939  39.952  31.610  12.388
23357W        W94940  12.634  32.642  10.942
23358W        W94941  38.521  40.793  11.946
23359W        W94942  39.851  30.630  14.259
23360W        W94943  11.685  35.503  14.398
23361W        W94944  21.954  38.234  13.295
23362W        W94945  12.774   1.520  11.095
23363W        W94946   9.783  43.315   4.416
23364W        W94947  41.979  25.976   2.577
23365W        W94948  13.851  24.881   1.067
23366W        W94949  29.358  44.887  10.373
23367W        W94950   8.900  18.327  10.756
23368W        W94951  21.593  34.812   3.412
23369W        W94952  19.402  28.388  14.813
23370W        W94953  26.105  39.695   2.138
23371W        W94954  42.812   5.236  13.017
23372W        W94955  31.036  23.878  11.117
23373W        W94956  32.802  21.695   2.452
23374W        W94957  13.672   0.505   3.662
23375W        W94958  20.262   1.730  14.737
23376W        W94959  28.130  19.257   0.189
23377W        W94960  41.696  13.622  14.888
23378W        W94961  33.461  18.118  13.002
23379W        W94962  35.487  12.577   0.543
23380W        W94963   2.462  32.464   2.334
23381W        W94964  43.399  17.215  13.954
23382W        W94965  26.142  38.783   2.321
23383W        W94966  17.785   3.636   2.019
23384W        W94967  28.673  29.696  12.410
23385W        W94968  30.933  12.316  12.132
23386W        W94969  19.575  16.771  12.341
23387W        W94970  13.731  16.259  13.937
23388W        W94971  40.645  31.613   0.055
23389W        W94972  42.463   2.229   3.727
23390W        W94973  40.604  14.797  14.797
23391W        W94974  30.633  24.014   2.811
23392W        W94975  24.334  18.019  12.072
23393W        W94976  29.069  32.650   1.692
23394W        W94977  18.732   8.679   0.236
23395W        W94978  43.954  28.985   1.232
23396W        W94979   5.335  11.256  14.254
23397W        W94980  41.967  20.085  12.611
23398W        W94981  19.944  14.849   0.803
23399W        W94982  24.504  34.339  14.790
23400W        W94983  36.154  16.774  14.011
23401W        W94984  12.747   1.439  13.068
23402W        W94985  33.138  35.884  12.040
23403W        W94986  36.616  22.513   1.789
23404W        W94987  21.035   5.700   2.641
23405W        W94988   5.773  31.595   3.883
23406W        W94989  19.247   2.432   3.896
23407W        W94990  16.655  24.433   0.439
23408W        W94991  18.162  38.393   0.218
23409W        W94992  33.316   2.430   1.962
23410W        W94993  37.790   6.614   0.754
23411W        W94994   6.802   8.184   3.734
23412W        W94995   2.423  44.561  12.479
23413W        W94996  32.110  15.894   4.130
23414W        W94997  17.106  28.301   4.075
23415W        W94998  19.269  42.407   4.111
23416W        W94999  12.090  21.128  12.769
23417W        W95000   1.898  14.082  14.236
23418W        W95001   0.038  15.252   0.110
23419W        W95002   0.412  21.311  10.549
23420W        W95003  11.716  22.380  13.850
23421W        W95004   8.849  29.403  11.538
23422W        W95005   6.348  18.280   3.960
23423W        W95006  18.792  16.644   2.721
23424W        W95007  13.816   0.780  11.730
23425W        W95008  19.735  43.534   2.013
23426W        W95009   4.268  42.760   2.650
23427W        W95010  41.885  28.547   2.306
23428W        W95011  12.826  36.420   2.760
23429W        W95012  10.177   6.472  12.835
23430W        W95013  20.210  40.967   3.310
23431W        W95014  39.793  14.738  13.410
23432W        W95015   0.286  11.032   4.584
23433W        W95016  15.628   3.005   0.308
23434W        W95017  13.232   7.341  11.531
23435W        W95018  23.481   8.209   9.414
23436W        W95019  37.073  25.368  12.881
23437W        W95020  29.412  31.438  12.408
23438W        W95021  13.656  23.515   0.857
23439W        W95022   9.981   6.621   0.632
23440W        W95023  13.087  37.298   2.558
23441W        W95024  35.608  15.525   4.221
23442W        W95025  11.201  16.007   4.651
23443W        W95026   3.471   1.382  14.009
23444W        W95027  21.645  35.379   4.869
23445W        W95028  21.142  36.158   0.791
23446W        W95029  41.400  25.500  11.462
23447W        W95030  14.511   1.626   5.114
23448W        W95031  18.246  27.632  12.104
23449W        W95032  36.397  29.164   3.349
23450W        W95033  15.063  19.668  14.287
23451W        W95034  14.152  18.999   3.654
23452W        W95035  15.993  38.447   4.151
23453W        W95036  22.848  15.838   4.049
23454W        W95037  10.389  28.641   2.181
23455W        W95038  40.149   8.538   5.181
23456W        W95039  44.942   0.279   0.294
23457W        W95040  16.061  43.272  13.032
23458W        W95041   8.390  16.596   4.763
23459W        W95042  15.819  24.450   2.236
23460W        W95043  40.709   2.315  14.872
23461W        W95044  40.447  41.809  11.154
23462W        W95045  21.933  28.633  11.548
23463W        W95046  30.184  33.891  10.856
23464W        W95047  16.787  44.863  10.786
23465W        W95048  17.100  38.848   4.667
23466W        W95049   6.816  32.153  13.838
23467W        W95050   8.960  16.197  12.038
23468W        W95051  22.100   0.861   4.348
23469W        W95052  34.572   6.444  10.457
23470W        W95053   9.800  13.765  11.505
23471W        W95054  25.118  42.828   5.018
23472W        W95055   8.525  13.584   3.296
23473W        W95056  40.766  42.762   3.682
23474W        W95057  28.573  38.369   2.248
23475W        W95058   9.655  24.960   4.182
23476W        W95059  21.672  23.604  13.097
23477W        W95060  21.207   6.339   1.459
23478W        W95061  21.114  16.918   5.073
23479W        W95062  24.119  22.604  13.618
23480W        W95063  39.811  10.528  11.042
23481W        W95064  41.556  15.603  14.895
23482W        W95065   7.748  21.129   5.035
23483W        W95066  32.631  38.056  11.963
23484W        W95067   2.900  12.207   3.585
23485W        W95068  40.395   0.363   2.667
23486W        W95069  16.213  19.288   0.300
23487W        W95070  26.566  12.797  13.921
23488W        W95071   7.449  23.315  10.569
23489W        W95072  36.069   3.267   3.195
23490W        W95073   5.331  22.732  13.944
23491W        W95074  11.176   7.099   0.272
23492W        W95075  16.277  40.698   1.666
23493W        W95076  30.080  29.491  11.140
23494W        W95077  25.740   9.931   9.802
23495W        W95078  22.069  24.459  14.044
23496W        W95079  41.358  42.329   0.789
23497W        W95080  44.875  11.290   0.353
23498W        W95081  16.041  39.395  14.726
23499W        W95082  22.078   1.466  10.958
23500W        W95083  41.036  19.926  11.506
23501W        W95084   4.870  31.625   3.438
23502W        W95085  17.853   4.766  13.785
23503W        W95086  30.624  11.182   0.942
23504W        W95087  25.149  39.468  12.496
23505W        W95088   9.662  18.691  11.033
23506W        W95089  41.607  22.737  12.265
23507W        W95090  43.337   6.269   3.742
23508W        W95091  26.415  13.763   3.468
23509W        W95092  42.277  34.434  12.119
23510W        W95093  34.780   2.406  11.439
23511W        W95094   2.484   0.865  13.473
23512W        W95095  21.598  14.160   4.621
23513W        W95096  44.369  20.555   0.351
23514W        W95097  18.083  34.325  12.806
23515W        W95098  43.999  30.968   0.311
23516W        W95099   7.759   9.718   2.975
23517W        W95100  38.821  24.667  13.160
23518W        W95101  25.458  19.083  11.951
23519W        W95102  37.820  13.220  13.094
23520W        W95103  17.871  22.703  11.077
23521W        W95104  38.459  22.276   4.626
23522W        W95105  16.826  21.400   1.946
23523W        W95106  26.487   6.870  11.062
23524W        W95107  43.193   7.009  14.897
23525W        W95108  15.233  23.656  13.389
23526W        W95109   2.978  20.712  12.927
23527W        W95110  13.535   1.750   0.329
23528W        W95111   8.595  44.775  11.927
23529W        W95112   4.718  25.665   1.846
23530W        W95113  39.251  27.142  12.964
23531W        W95114  14.515  18.948   0.006
23532W        W95115   5.501  26.222  11.508
23533W        W95116   5.884  36.088  12.078
23534W        W95117  13.559  16.814   4.733
23535W        W95118   4.218  30.064  13.428
23536W        W95119  31.437  29.197   3.136
23537W        W95120  37.411  26.459  14.036
23538W        W95121  33.620  29.620  14.391
23539W        W95122  34.843  12.715   4.336
23540W        W95123  34.428  13.591  12.861
23541W        W95124  24.870  29.745   4.971
23542W        W95125  34.669   0.277  13.541
23543W        W95126  10.122   3.891   0.613
23544W        W95127  11.992   5.732  13.050
23545W        W95128  29.430  39.264   4.620
23546W        W95129  40.259  26.651  13.943
23547W        W95130  33.164  33.390  11.117
23548W        W95131  13.184  15.567  14.411
23549W        W95132  14.669  14.420  12.630
23550W        W95133  34.925  29.123   4.462
23551W        W95134  34.903  34.831   1.458
23552W        W95135   5.210  34.425   0.385
23553W        W95136  11.771  23.041  12.487
23554W        W95137   1.823  19.829   0.315
23555W        W95138  19.590  44.237   3.551
23556W        W95139   7.941  43.382  14.087
23557W        W95140  31.522   1.546  13.051
23558W        W95141  23.379  23.842  11.132
23559W        W95142  25.611   5.938   2.439
23560W        W95143  22.045   4.347   3.334
23561W        W95144  37.833   2.891  10.873
23562W        W95145  30.052  12.367   0.243
23563W        W95146  42.017  17.687   0.350
23564W        W95147  18.597   5.649   2.274
23565W        W95148  10.165  40.510  13.019
23566W        W95149   5.848  13.003  13.956
23567W        W95150  21.747  32.550   0.494
23568W        W95151  32.599  29.370  13.457
23569W        W95152  34.033  17.683  13.381
23570W        W95153  21.203  31.903   2.662
23571W        W95154   1.355   6.153  11.528
23572W        W95155  26.496  33.949  14.784
23573W        W95156   4.383   1.021  10.706
23574W        W95157   6.155  17.064   3.583
23575W        W95158  18.719  20.335  14.795
23576W        W95159   0.172   4.235  11.079
23577W        W95160  38.060  27.177  13.387
23578W        W95161  43.765   0.549   3.735
23579W        W95162   9.666  38.573  12.878
23580W        W95163   0.733  11.747  12.115
23581W        W95164  17.406  23.139  14.538
23582W        W95165  28.190  43.563   2.314
23583W        W95166   3.197  14.096  14.388
23584W        W95167  36.075  42.527   4.671
23585W        W95168  32.585  20.868  10.418
23586W        W95169   4.462  25.282   2.161
23587W        W95170  18.189  37.488   1.950
23588W        W95171  30.503  15.566   1.507
23589W        W95172  16.380  24.714   0.779
23590W        W95173  17.696  19.763  12.150
23591W        W95174  26.737  23.280  10.727
23592W        W95175  33.003  20.120   3.841
23593W        W95176  38.728   5.621   4.155
23594W        W95177   3.461   7.925  14.840
23595W        W95178   2.571   5.930  11.656
23596W        W95179   1.215   4.387   0.418
23597W        W95180   9.234  44.389  11.464
23598W        W95181  10.234  16.082   0.012
23599W        W95182  39.915   1.703   4.036
23600W        W95183   4.419  29.962  12.565
23601W        W95184   6.911   6.598  11.048
23602W        W95185  30.477  12.044  13.876
23603W        W95186  20.796  24.717   1.015
23604W        W95187  40.030   2.740   0.705
23605W        W95188  24.544  12.066   1.649
23606W        W95189   8.128  17.327  11.635
23607W        W95190  32.074  17.825  10.706
23608W        W95191  26.517  33.119   1.268
23609W        W95192  42.989   5.899  12.961
23610W        W95193  39.441  22.159  12.503
23611W        W95194  27.363  38.568   2.061
23612W        W95195  17.998  15.818   1.608
23613W        W95196   5.700  35.177  12.062
23614W        W95197   0.509  41.130   3.912
23615W        W95198  23.514   0.992  13.378
23616W        W95199  33.641  44.907   0.888
23617W        W95200   1.693   8.923  10.828
23618W        W95201  20.401  27.229  14.168
23619W        W95202   4.701  13.694   1.409
23620W        W95203  11.775  20.197  13.070
23621W        W95204  15.139  32.847   4.728
23622W        W95205  23.151  17.162  12.342
23623W        W95206  23.081  12.121   0.460
23624W        W95207  42.666   9.313  13.244
23625W        W95208  16.341   0.390  11.560
23626W        W95209  12.280  14.832  14.349
23627W        W95210  39.678  16.776   2.859
23628W        W95211  19.952  25.692   0.159
23629W        W95212   4.511  42.553  13.056
23630W        W95213  16.467  36.877   1.353
23631W        W95214  11.164   4.117  12.462
23632W        W95215  18.519  22.181  10.579
23633W        W95216  11.810  18.150  13.571
23634W        W95217  38.560  12.666  11.602
23635W        W95218  39.904  39.104  11.073
23636W        W95219  33.130  27.617  14.884
23637W        W95220  35.418  42.828   1.126
23638W        W95221  11.328  40.159   1.778
23639W        W95222  15.216  44.971   1.704
23640W        W95223  26.383  43.263  11.454
23641W        W95224  33.066   7.915   3.780
23642W        W95225  23.800  26.197  10.687
23643W        W95226  43.491  33.375  14.883
23644W        W95227   7.511   7.710   4.884
23645W        W95228   0.243  44.047  12.311
23646W        W95229  26.196  19.520  12.139
23647W        W95230  34.385  19.639  10.716
23648W        W95231   3.272   9.146   0.822
23649W        W95232  20.646   4.824   4.654
23650W        W95233  35.596  20.557   1.308
23651W        W95234   4.606  28.697  11.637
23652W        W95235  39.553  24.886   2.424
23653W        W95236  41.960  38.450   1.763
23654W        W95237  27.450  10.497  10.660
23655W        W95238   3.709  18.927  12.954
23656W        W95239  43.846  19.464   4.556
23657W        W95240  33.950  16.455   4.048
23658W        W95241  44.308  15.881   4.615
23659W        W95242   1.017  22.601  10.618
23660W        W95243   1.655  37.628  11.507
23661W        W95244   4.265  16.345  14.443
23662W        W95245  16.810   1.852   3.741
23663W        W95246  22.923  39.414   1.979
23664W        W95247  39.383   6.536  11.861
23665W        W95248  40.369  15.766   4.940
23666W        W95249  10.141   2.806   4.518
23667W        W95250  38.451  10.100  12.977
23668W        W95251  28.349   8.236  10.531
23669W        W95252   7.260   2.074  11.967
23670W        W95253   1.076  32.599  10.682
23671W        W95254  11.140  27.434   3.289
23672W        W95255  18.470  13.114   2.305
23673W        W95256  42.845  28.042   4.097
23674W        W95257  40.026  17.082  11.592
23675W        W95258  35.852  26.940  12.899
23676W        W95259  10.477  37.521   1.386
23677W        W95260  11.740  41.396   1.013
23678W        W95261   4.395   1.009  14.840
23679W        W95262  22.655   6.545   4.711
23680W        W95263  11.110   3.722  11.579
23681W        W95264  39.317   8.833   9.942
23682W        W95265  35.189  22.533  11.546
23683W        W95266  28.223  29.956  13.684
23684W        W95267  14.781  28.033   2.890
23685W        W95268  31.055  35.840  13.027
23686W        W95269  31.291  19.967   4.113
23687W        W95270  32.370  35.608   1.207
23688W        W95271  12.819   5.012  11.450
23689W        W95272  19.603  30.536   0.429
23690W        W95273  21.034  27.617   3.761
23691W        W95274  38.498  14.688   3.279
23692W        W95275  17.869  21.759  14.394
23693W        W95276  19.076  44.182  13.559
23694W        W95277  16.147  25.398   1.302
23695W        W95278   6.695  30.032   3.721
23696W        W95279  16.708  34.925   9.714
23697W        W95280  33.295  12.654  10.216
23698W        W95281  33.108  27.575   3.722
23699W        W95282  39.715  24.159  13.917
23700W        W95283  17.573  30.321   0.880
23701W        W95284  30.209  26.058   2.234
23702W        W95285  29.181  37.814   0.198
23703W        W95286  18.272  22.291   1.815
23704W        W95287  39.069  29.667   2.769
23705W        W95288  22.936  13.314  10.582
23706W        W95289  31.042  31.729  11.408
23707W        W95290  14.629   4.247  13.590
23708W        W95291  37.570  10.355   0.837
23709W        W95292  27.735   4.327  13.281
23710W        W95293   7.230   9.162   0.455
23711W        W95294  40.051  28.691   3.622
23712W        W95295  18.400  40.930   0.864
23713W        W95296  13.045  39.209  13.848
23714W        W95297   6.639  30.115   2.828
23715W        W95298  17.675  21.714  13.886
23716W        W95299  16.330  33.064   4.157
23717W        W95300  15.236  10.074  14.754
23718W        W95301   8.959  25.992  12.521
23719W        W95302  22.984  29.220   9.818
23720W        W95303   3.034  18.230   0.661
23721W        W95304  25.179   0.932   0.494
23722W        W95305  38.505  18.567   0.015
23723W        W95306  26.942  33.901   1.411
23724W        W95307  21.048   0.801   4.558
23725W        W95308  23.802  11.383  13.428
23726W        W95309  28.933  30.938   3.528
23727W        W95310  26.241  32.880  12.962
23728W        W95311  12.984   4.097  14.922
23729W        W95312  29.532  27.868   0.432
23730W        W95313  23.447   1.929   4.024
23731W        W95314  27.056  17.698  13.960
23732W        W95315   1.596  19.141  12.956
23733W        W95316   7.952  42.043  13.525
23734W        W95317  16.330  33.139  13.883
23735W        W95318   3.224  43.325  11.614
23736W        W95319  29.615  38.281  12.493
23737W        W95320  26.564  32.868  12.085
23738W        W95321  23.181   7.910  12.604
23739W        W95322  16.657  43.975  14.024
23740W        W95323  43.040  11.907   4.963
23741W        W95324  12.111  18.165   0.442
23742W        W95325  30.073  19.993   3.504
23743W        W95326  41.474  12.893  13.389
23744W        W95327  12.634  25.477  14.185
23745W        W95328  31.137  44.918  10.787
23746W        W95329  27.893   0.444   4.139
23747W        W95330  28.171  19.644   1.882
23748W        W95331  42.877  21.516  14.395
23749W        W95332  20.259  42.021  13.510
23750W        W95333  10.244  39.002   0.396
23751W        W95334  17.171  30.096  11.582
23752W        W95335   5.933  41.053   4.294
23753W        W95336  24.401   2.391  14.483
23754W        W95337  28.722  34.295   1.405
23755W        W95338   2.126  26.546   2.772
23756W        W95339  26.535   1.346  12.521
23757W        W95340  11.292  35.495  10.432
23758W        W95341  41.945   8.489  13.419
23759W        W95342   4.525   1.472  10.904
23760W        W95343   6.194   8.666   3.981
23761W        W95344   1.754  29.329  13.187
23762W        W95345  29.963   4.890   1.372
23763W        W95346  15.527   1.620  11.016
23764W        W95347   2.347  32.683   1.861
23765W        W95348   9.388  37.301   2.376
23766W        W95349  16.840  19.206  14.855
23767W        W95350  29.531  37.439   1.439
23768W        W95351  27.588  37.454  12.282
23769W        W95352  17.831  36.634   2.384
23770W        W95353  33.428   4.639   0.127
23771W        W95354  35.489  32.073  11.970
23772W        W95355   9.749  28.265  11.948
23773W        W95356  32.415   8.312  14.562
23774W        W95357  22.273  36.539   3.224
23775W        W95358  26.850  17.246  11.098
23776W        W95359  18.331   5.849  12.232
23777W        W95360  20.734  25.984   0.429
23778W        W95361  29.573  36.893  13.016
23779W        W95362   1.553  13.776  14.494
23780W        W95363   2.310   9.262  11.602
23781W        W95364  15.151  33.886   3.580
23782W        W95365  28.716  44.195  14.739
23783W        W95366  24.568  44.585  12.088
23784W        W95367  16.774  36.463   1.437
23785W        W95368  30.097  38.437   3.360
23786W        W95369  29.641   0.102   3.952
23787W        W95370  42.994   9.228   0.287
23788W        W95371   1.384  12.114   3.551
23789W        W95372  31.297  11.683  13.351
23790W        W95373  10.403  27.790  13.625
23791W        W95374  17.058   4.861   2.209
23792W        W95375  19.129   2.445   2.332
23793W        W95376   5.761  38.943  14.852
23794W        W95377  39.007  29.290   3.977
23795W        W95378  10.279  43.815  10.356
23796W        W95379  19.027   4.682  14.488
23797W        W95380   4.898  22.990  13.837
23798W        W95381  25.105   1.599  14.064
23799W        W95382  43.051  31.067  14.868
23800W        W95383  13.888  22.544   2.964
23801W        W95384  15.083   1.291  14.552
23802W        W95385  20.132   7.377  10.256
23803W        W95386  36.412  14.660   4.597
23804W        W95387  20.220  41.570  13.906
23805W        W95388  18.642  24.593   4.160
23806W        W95389  39.612  15.413  12.977
23807W        W95390  21.131  11.916  14.413
23808W        W95391  14.969  35.180  10.196
23809W        W95392  26.521  16.713   1.331
23810W        W95393  17.244  31.195  10.627
23811W        W95394  20.934   4.943   4.210
23812W        W95395  21.783   2.736   2.696
23813W        W95396  39.766  25.460   1.310
23814W        W95397  44.002  19.061  10.752
23815W        W95398  28.876   9.328   3.794
23816W        W95399   4.725  17.489  14.407
23817W        W95400   2.773  30.713  14.889
23818W        W95401   9.675  12.238   3.748
23819W        W95402  30.033  20.209   1.741
23820W        W95403  33.068  32.589   1.758
23821W        W95404   7.756  11.646  13.822
23822W        W95405  11.649  39.511  11.961
23823W        W95406  18.085  40.409   2.407
23824W        W95407  31.623  32.660  13.294
23825W        W95408  13.668  22.249   0.493
23826W        W95409   0.817  18.652  13.450
23827W        W95410  21.908  31.504  10.196
23828W        W95411  43.985  19.780  14.219
23829W        W95412  12.717  14.060   3.849
23830W        W95413  42.203  22.735  11.165
23831W        W95414  44.480   4.639   2.359
23832W        W95415  21.305  20.677  14.842
23833W        W95416  44.980   3.383  11.000
23834W        W95417  15.087  26.075   4.294
23835W        W95418  32.643   7.882   0.900
23836W        W95419  43.620   5.819  11.353
23837W        W95420  14.815  30.195   5.310
23838W        W95421   1.313  29.571   1.879
23839W        W95422  42.237   0.739  12.583
23840W        W95423  24.160  16.366   0.957
23841W        W95424  28.236  32.936  10.716
23842W        W95425  41.802  42.009   2.908
23843W        W95426   2.292  35.807  10.680
23844W        W95427  44.288  31.716  10.683
23845W        W95428  40.318  16.519   4.492
23846W        W95429  12.639  20.215   3.438
23847W        W95430  38.735  30.987  11.668
23848W        W95431  42.069  30.209   1.717
23849W        W95432  26.564  31.608  14.231
23850W        W95433  11.259  30.020   2.220
23851W        W95434   9.784   5.920   4.208
23852W        W95435  40.658  12.339  13.303
23853W        W95436  36.354  40.295   0.900
23854W        W95437  43.979   6.943   2.271
23855W        W95438  10.147   5.752   2.895
23856W        W95439  42.269  19.123   1.504
23857W        W95440   8.224  18.758  12.405
23858W        W95441  13.226  17.348   2.150
23859W        W95442  26.463  21.309  10.390
23860W        W95443  32.657   7.328  11.612
23861W        W95444  33.385  10.731  10.799
23862W        W95445  43.343   9.273   2.159
23863W        W95446  34.812  23.503   1.216
23864W        W95447  10.273   0.792  14.926
23865W        W95448   8.702  42.032   2.467
23866W        W95449  21.715  32.171   3.712
23867W        W95450   6.871  43.834   0.929
23868W        W95451  44.317  26.857  13.043
23869W        W95452   5.282   2.288  11.461
23870W        W95453   8.545  40.850   3.347
23871W        W95454  30.441  43.709  12.365
23872W        W95455  37.147  29.445   1.210
23873W        W95456  19.632  14.270  13.529
23874W        W95457   0.598  41.379   0.253
23875W        W95458  20.764  28.449   1.219
23876W        W95459  13.085  22.729   0.888
23877W        W95460  15.190  37.827   2.311
23878W        W95461  25.942  42.233   0.938
23879W        W95462  42.860  18.634   2.106
23880W        W95463  15.992  33.559   9.870
23881W        W95464   0.135   5.792  13.907
23882W        W95465  44.491   8.552   9.807
23883W        W95466   8.219  42.127  10.777
23884W        W95467   0.319  15.612  14.817
23885W        W95468  40.978  29.371   3.166
23886W        W95469  11.191   7.309   0.757
23887W        W95470   4.994   3.638  14.451
23888W        W95471  20.025   4.263  12.358
23889W        W95472  37.874   3.268   1.963
23890W        W95473  17.521  22.870  10.273
23891W        W95474  22.189  21.534   3.212
23892W        W95475  12.747   9.203   1.226
23893W        W95476  20.110  32.324   4.249
23894W        W95477  28.166   4.293  10.857
23895W        W95478  24.550  43.746   0.816
23896W        W95479   1.047  43.101   4.037
23897W        W95480  28.923  30.843  12.906
23898W        W95481   3.881  30.891   4.258
23899W        W95482  35.866  31.567   4.565
23900W        W95483  11.578  29.393   0.820
23901W        W95484  40.648  34.292   2.100
23902W        W95485  34.548  17.376   3.858
23903W        W95486  22.722  43.826  13.066
23904W        W95487  25.730  23.858   1.681
23905W        W95488  33.924  39.405   4.703
23906W        W95489  28.613  25.270   2.794
23907W        W95490  12.123  41.691   4.167
23908W        W95491  10.148  23.648   3.156
23909W        W95492   6.731  39.459  12.061
23910W        W95493  18.307  27.456  14.125
23911W        W95494  41.532   0.878  12.929
23912W        W95495   7.031  31.111  14.082
23913W        W95496  30.060   5.334   4.234
23914W        W95497  37.341  24.172  11.170
23915W        W95498  29.522   3.866   2.361
23916W        W95499   4.941  40.736  14.484
23917W        W95500  43.704  32.680  14.080
23918W        W95501  19.641  25.884  12.499
23919W        W95502  34.855   8.368  13.302
23920W        W95503  14.127  15.744  12.569
23921W        W95504  10.474  36.527   2.136
23922W        W95505  31.723   4.376   3.674
23923W        W95506  19.106  17.769  12.716
23924W        W95507  10.386  10.440  13.361
23925W        W95508  20.585  29.477  13.992
23926W        W95509  17.097   4.147   3.299
23927W        W95510  35.781   3.962   3.660
23928W        W95511   7.183  14.744   2.393
23929W        W95512  20.237   6.887  11.390
23930W        W95513  36.766  33.047   3.146
23931W        W95514  38.389  30.548   4.424
23932W        W95515   1.948  12.048   2.309
23933W        W95516   1.940  19.235   2.831
23934W        W95517   5.821  15.610  11.889
23935W        W95518  42.208  22.236  13.298
23936W        W95519  21.705  26.807  11.944
23937W        W95520  18.470  18.110   2.748
23938W        W95521  39.645  15.427   4.255
23939W        W95522  23.026   8.073   4.124
23940W        W95523  27.947  41.745   2.260
23941W        W95524   4.311   3.155  14.280
23942W        W95525  27.996  11.042  14.355
23943W        W95526  37.549  37.122   3.354
23944W        W95527   4.711   5.492  11.203
23945W        W95528  17.000   5.490   3.375
23946W        W95529  30.111  27.071   3.735
23947W        W95530  39.332  15.794  12.741
23948W        W95531  27.465   1.782  12.490
23949W        W95532  24.182   5.258  14.099
23950W        W95533   5.091  25.677  13.576
23951W        W95534   2.651   1.901  14.806
23952W        W95535  17.765  23.568   9.851
23953W        W95536  22.309  18.794  13.816
23954W        W95537  21.073  30.751   1.378
23955W        W95538  17.842  20.994   2.798
23956W        W95539  34.470  26.485   4.566
23957W        W95540  34.141   4.691   9.861
23958W        W95541  28.012  32.107   2.772
23959W        W95542  37.990  27.149  14.024
23960W        W95543  26.198  42.756   3.140
23961W        W95544  33.980  44.798  11.615
23962W        W95545  27.696  36.450  11.605
23963W        W95546   9.737  30.523   1.437
23964W        W95547   2.348  37.162  11.111
23965W        W95548  34.847  25.504  14.397
23966W        W95549  13.996   7.924  10.659
23967W        W95550  23.577  32.525  10.637
23968W        W95551   2.400   3.823   2.779
23969W        W95552  39.997  39.982   1.089
23970W        W95553  22.928  24.969  13.929
23971W        W95554  13.654  38.545   4.693
23972W        W95555   3.476  37.760   0.449
23973W        W95556  32.108  27.488  14.993
23974W        W95557   6.385  30.967  12.039
23975W        W95558  27.847  36.183   2.671
23976W        W95559  31.119  16.725   2.216
23977W        W95560  44.063  15.568   1.875
23978W        W95561  35.547  29.548   1.727
23979W        W95562  25.469  10.617   4.303
23980W        W95563  28.444   3.100   4.250
23981W        W95564  34.102  12.261  11.726
23982W        W95565  18.579  11.857   4.581
23983W        W95566  44.743  28.226  14.904
23984W        W95567  14.812  26.549  11.395
23985W        W95568  39.348  20.920  14.072
23986W        W95569  16.152  17.045   0.671
23987W        W95570  43.916   6.222  11.887
23988W        W95571  30.863  39.928  13.486
23989W        W95572  14.777  10.452  12.858
23990W        W95573  35.855  37.376  10.917
23991W        W95574  40.021  11.375  13.823
23992W        W95575   6.950  18.754  11.599
23993W        W95576  31.569  41.834  12.969
23994W        W95577   5.462  38.010  14.431
23995W        W95578  25.190   1.237   4.121
23996W        W95579  33.792  24.379  11.578
23997W        W95580  15.780  12.207  11.420
23998W        W95581  27.418  29.540   3.535
23999W        W95582  38.988  41.109  12.991
24000W        W95583  32.462   8.701   2.571
24001W        W95584  11.195  18.283  14.113
24002W        W95585  10.114  26.631  14.972
24003W        W95586  37.989  44.348   4.305
24004W        W95587  41.991   1.067   3.259
24005W        W95588  19.134  25.652  11.243
24006W        W95589  15.389  12.342   4.868
24007W        W95590  34.065   1.869   2.164
24008W        W95591  17.013  33.081   0.447
24009W        W95592  32.072  13.711  11.677
24010W        W95593  38.013  30.621   3.190
24011W        W95594  29.542  14.977   2.883
24012W        W95595  36.811  26.000   2.345
24013W        W95596   3.328  25.196   0.003
24014W        W95597   5.865  34.663  12.012
24015W        W95598  20.362  37.325  13.811
24016W        W95599  18.705   1.789   2.771
24017W        W95600  40.679  30.592  12.122
24018W        W95601  44.532  32.944  14.063
24019W        W95602  29.898   0.937   4.649
24020W        W95603  30.565   2.252  12.090
24021W        W95604   3.308  35.828   9.770
24022W        W95605  38.645  30.537   3.645
24023W        W95606  18.587  36.542  12.808
24024W        W95607  14.222   7.750   2.305
24025W        W95608  22.518  18.835  12.016
24026W        W95609  17.511  38.966   2.328
24027W        W95610  21.628  15.776  13.434
24028W        W95611  25.055   6.924  12.521
24029W        W95612   9.473  18.704   0.334
24030W        W95613   2.772  43.220  13.408
24031W        W95614  43.719  15.697  12.500
24032W        W95615  34.630  26.752  11.179
24033W        W95616   8.164   0.065  14.415
24034W        W95617  36.283  11.641  11.851
24035W        W95618   6.411  17.093  14.346
24036W        W95619  27.281  26.516  11.173
24037W        W95620  30.884  25.361   3.341
24038W        W95621  44.282  34.244  11.187
24039W        W95622  23.766  32.247  14.945
24040W        W95623  21.949  26.512   4.568
24041W        W95624   5.761  34.421   3.684
24042W        W95625  32.297  37.307  14.364
24043W        W95626  17.037  17.203  12.210
24044W        W95627   9.839  22.971  13.862
24045W        W95628  20.096   7.277  11.714
24046W        W95629  42.929   5.961   3.655
24047W        W95630   3.445  24.443   4.601
24048W        W95631   2.838  26.178   2.436
24049W        W95632  22.153   7.127  11.608
24050W        W95633  15.031  40.869   2.801
24051W        W95634  15.323  17.584  13.839
24052W        W95635  42.756  24.764  14.960
24053W        W95636  35.164  42.836  14.458
24054W        W95637  41.524   1.946   3.725
24055W        W95638   2.230   6.384   0.981
24056W        W95639  37.946  42.510  12.981
24057W        W95640  30.216   8.753  10.954
24058W        W95641  19.020  31.359  11.603
24059W        W95642   5.192  44.387   3.116
24060W        W95643  34.164  43.674   4.165
24061W        W95644  38.013  23.226   0.460
24062W        W95645   3.755  39.740  10.173
24063W        W95646   8.675  42.601   3.272
24064W        W95647   0.779  40.042  11.553
24065W        W95648  13.165  43.988   0.144
24066W        W95649  36.969  36.560   3.784
24067W        W95650  28.519  14.191  10.461
24068W        W95651  19.370  24.568  12.462
24069W        W95652   6.650  18.508  14.774
24070W        W95653  19.025   8.638   1.526
24071W        W95654  26.501  43.417  13.808
24072W        W95655  12.382  44.462   4.078
24073W        W95656  43.861   4.646   1.684
24074W        W95657   5.931   0.714   3.200
24075W        W95658  38.460  36.363  12.138
24076W        W95659  15.236  41.837  11.510
24077W        W95660  39.489  31.110   1.293
24078W        W95661  38.394   7.070   1.550
24079W        W95662  13.805   0.913   2.390
24080W        W95663  24.650  24.426  12.472
24081W        W95664  35.807  16.214   2.756
24082W        W95665  21.942  36.383   2.817
24083W        W95666  27.876   4.437   0.044
24084W        W95667  38.547  16.011  14.527
24085W        W95668  39.162  36.379   4.578
24086W        W95669  16.916  39.780   3.632
24087W        W95670  15.268  33.663  11.775
24088W        W95671  36.441  33.596   4.643
24089W        W95672  39.502  34.257   2.858
24090W        W95673  20.970  14.770   0.815
24091W        W95674  24.423  17.141   1.943
24092W        W95675   2.935  41.270   0.398
24093W        W95676   2.269   6.704   4.728
24094W        W95677  27.234  40.536  13.633
24095W        W95678  34.975  26.458  12.960
24096W        W95679   9.877  21.218  13.426
24097W        W95680  36.089  39.459  14.224
24098W        W95681  13.719  21.829   1.806
24099W        W95682  17.632  13.213  13.487
24100W        W95683  28.143  44.213  10.732
24101W        W95684  28.367  10.131   2.572
24102W        W95685  36.297  10.305   2.164
24103W        W95686   3.369  36.059  14.007
24104W        W95687   8.075  30.642  11.142
24105W        W95688   7.903  41.788   1.833
24106W        W95689  21.204  34.825  11.615
24107W        W95690  22.491  36.801   4.795
24108W        W95691  44.317  44.218  12.957
24109W        W95692  43.805  39.213   2.323
24110W        W95693  17.844  38.380  14.126
24111W        W95694  41.072  35.014  13.934
24112W        W95695  19.811  29.414  12.021
24113W        W95696   9.608  11.777   2.227
24114W        W95697  17.619  35.397   9.757
24115W        W95698   0.700  33.353  11.077
24116W        W95699   9.706  13.972   2.909
24117W        W95700   6.454   9.876   3.458
24118W        W95701  37.761  13.264  13.960
24119W        W95702   9.575  42.882  13.567
24120W        W95703   5.358  41.875  12.796
24121W        W95704  21.416  20.392   4.961
24122W        W95705  25.609  41.918   0.259
24123W        W95706  33.654  21.680   1.677
24124W        W95707  41.359  12.792   3.788
24125W        W95708  34.815  23.876  11.087
24126W        W95709  15.253  15.345  14.903
24127W        W95710  34.860  22.063   0.803
24128W        W95711  28.317   8.534   5.198
24129W        W95712   3.078  17.796  12.944
24130W        W95713  13.676  17.856   0.198
24131W        W95714  41.287   3.611   3.095
24132W        W95715  27.069  44.229   2.422
24133W        W95716  17.521  13.265   2.228
24134W        W95717   5.731  13.143   0.752
24135W        W95718   3.752  28.049   2.763
24136W        W95719   8.744  38.321  12.406
24137W        W95720   8.627  41.981  13.944
24138W        W95721  40.866   3.309  14.828
24139W        W95722   3.212  25.680  13.296
24140W        W95723  42.436  27.648   2.258
24141W        W95724   3.352  27.266   4.110
24142W        W95725   8.373  34.198   0.859
24143W        W95726  33.541  34.568  13.093
24144W        W95727  17.693   0.814  13.939
24145W        W95728  27.545  37.426   2.012
24146W        W95729  21.959   4.624   2.838
24147W        W95730  25.440  43.396   0.808
24148W        W95731  40.617   5.721  13.819
24149W        W95732  15.561  41.746   3.060
24150W        W95733  10.111   2.535  12.513
24151W        W95734  12.644  39.035   0.447
24152W        W95735  24.979  32.131   0.043
24153W        W95736  17.566  10.099   2.306
24154W        W95737  15.623   8.829   3.768
24155W        W95738  31.057  16.313  13.390
24156W        W95739  14.877   0.573  13.076
24157W        W95740  13.661   1.978  14.874
24158W        W95741  42.477  25.198   4.727
24159W        W95742  10.658  31.637  12.084
24160W        W95743  12.676  21.340   3.957
24161W        W95744  34.177  20.562  12.487
24162W        W95745  24.624   4.698  12.036
24163W        W95746  36.888  36.481   4.738
24164W        W95747  21.430  42.384  13.014
24165W        W95748  15.196  36.430   2.880
24166W        W95749  14.427  29.438   1.993
24167W        W95750  43.255  41.458  14.455
24168W        W95751   8.376  25.059  13.602
24169W        W95752  34.332  32.701  12.085
24170W        W95753  32.077   9.679   1.144
24171W        W95754  22.035  18.575   5.246
24172W        W95755  17.200  31.295   1.292
24173W        W95756  35.815  27.190  13.888
24174W        W95757   1.790  41.978  13.899
24175W        W95758  35.497  40.064  12.035
24176W        W95759   0.909  31.918   1.325
24177W        W95760  25.521  40.285   9.918
24178W        W95761  16.866  37.506  12.077
24179W        W95762   2.819  22.791   0.868
24180W        W95763  30.744  17.323  11.435
24181W        W95764  31.009  11.340   3.969
24182W        W95765  24.757   6.224  12.856
24183W        W95766  23.834  24.454  13.486
24184W        W95767  44.965   6.953   2.371
24185W        W95768   8.624  29.025   0.032
24186W        W95769  34.083  29.514   4.505
24187W        W95770  27.612  44.330   1.144
24188W        W95771   1.071  39.337   0.844
24189W        W95772  10.700  38.568  13.513
24190W        W95773   7.627  15.782  13.569
24191W        W95774  11.263  24.252   2.217
24192W        W95775   0.086   8.139  14.957
24193W        W95776  24.895  33.481  12.938
24194W        W95777   7.742  37.932   4.766
24195W        W95778  31.494  26.991   1.718
24196W        W95779  10.095  18.701  13.381
24197W        W95780   6.365  24.489   1.183
24198W        W95781  41.263  13.690  11.086
24199W        W95782  15.261   8.420   2.783
24200W        W95783  14.722  35.031  13.400
24201W        W95784  27.999   8.185   0.227
24202W        W95785   0.135   0.385  11.443
24203W        W95786   7.265  28.893   4.469
24204W        W95787  13.318  18.831   0.100
24205W        W95788  30.097  17.789   4.922
24206W        W95789   7.441  29.603  11.450
24207W        W95790  20.297  18.098   1.418
24208W        W95791  26.117   3.544   2.722
24209W        W95792  19.170  31.395   4.040
24210W        W95793  15.754  25.479   2.622
24211W        W95794  25.012  11.319  11.523
24212W        W95795  27.863   2.971  11.092
24213W        W95796   8.915  10.238  11.554
24214W        W95797  20.535   6.769   2.443
24215W        W95798  10.462  14.149  10.693
24216W        W95799   6.873  34.655  10.709
24217W        W95800  18.044   0.860  10.390
24218W        W95801  38.476  31.237  13.986
24219W        W95802  38.101   7.221  13.432
24220W        W95803  44.096  15.508  13.963
24221W        W95804  25.215  23.136   3.689
24222W        W95805  44.917  25.747   3.634
24223W        W95806  24.747  34.652  14.441
24224W        W95807  23.078  30.299  14.370
24225W        W95808  18.190  32.927  12.598
24226W        W95809  12.187  20.352  12.417
24227W        W95810  41.025  30.370   4.267
24228W        W95811  35.143  29.518   3.654
24229W        W95812  30.037  20.614  13.793
24230W        W95813   4.940  20.157  11.217
24231W        W95814  27.661   6.026   5.087
24232W        W95815   2.039  11.388   1.227
24233W        W95816  37.874  17.739   3.708
24234W        W95817  30.764  30.884  13.591
24235W        W95818   1.735  17.176  14.832
24236W        W95819  38.338   5.247   4.240
24237W        W95820  38.593  15.873  13.534
24238W        W95821   4.269  19.621  10.659
24239W        W95822  24.098  26.461  14.091
24240W        W95823  21.752  41.982  13.143
24241W        W95824   6.266  37.624  14.531
24242W        W95825   2.450  39.139   5.053
24243W        W95826  27.444   6.647   2.729
24244W        W95827   1.816  21.957  12.023
24245W        W95828  16.621  41.823   3.747
24246W        W95829  37.009  15.623   0.348
24247W        W95830   0.381  41.761   2.190
24248W        W95831  22.591   7.665   0.654
24249W        W95832  16.484  21.093  10.694
24250W        W95833  44.350  36.149   1.852
24251W        W95834   4.674  21.985  12.555
24252W        W95835  17.138  28.186  14.384
24253W        W95836  40.365  21.979  13.409
24254W        W95837  39.773  43.454   1.731
24255W        W95838  33.388  26.186  11.176
24256W        W95839  20.731  31.364   5.404
24257W        W95840  38.610  41.027  13.349
24258W        W95841   1.299  35.186   0.366
24259W        W95842  30.697  32.946   4.731
24260W        W95843  10.218  29.643  14.454
24261W        W95844  20.257   9.024   2.693
24262W        W95845  35.290  39.946  11.373
24263W        W95846  12.377  40.608  11.203
24264W        W95847  33.861  14.378   1.363
24265W        W95848  41.423  44.835   1.286
24266W        W95849  10.376   3.255  10.704
24267W        W95850  20.483  39.257   2.205
24268W        W95851   1.805  39.775   1.321
24269W        W95852   4.640  25.763  11.498
24270W        W95853  17.796  39.397  10.650
24271W        W95854  16.069  24.180  12.548
24272W        W95855  40.415  23.712   2.259
24273W        W95856  31.020  17.819   4.689
24274W        W95857  19.775  43.910  12.487
24275W        W95858  44.482   6.418   3.855
24276W        W95859  31.793  25.089   3.713
24277W        W95860  21.290   8.300  14.416
24278W        W95861  19.535  33.833   3.303
24279W        W95862  35.784  14.664  12.967
24280W        W95863  38.486   3.889  10.863
24281W        W95864  41.794  27.187   2.085
24282W        W95865  20.642  18.972   2.672
24283W        W95866   0.651  18.582   1.745
24284W        W95867  30.324   3.406   2.327
24285W        W95868   4.962  38.872  14.382
24286W        W95869  22.324  16.790   9.706
24287W        W95870  15.577  43.816  11.591
24288W        W95871  24.030  25.896  11.082
24289W        W95872   7.927  15.015  11.072
24290W        W95873  17.222   5.010   1.707
24291W        W95874  40.817   1.555  11.260
24292W        W95875  31.724  25.518  11.702
24293W        W95876  28.257  25.460  11.678
24294W        W95877  12.843  29.884  10.746
24295W        W95878   5.440  37.504  14.617
24296W        W95879   1.966  35.028   4.641
24297W        W95880   7.226  10.359   1.911
24298W        W95881  27.019  41.534  13.806
24299W        W95882  30.777  16.170  12.860
24300W        W95883  42.678  31.087   4.298
24301W        W95884   8.346  29.708   4.956
24302W        W95885  22.528   6.890   0.223
24303W        W95886  17.571  41.056  13.444
24304W        W95887   4.740  27.907  14.423
24305W        W95888  36.198  31.614  10.885
24306W        W95889  12.570  17.165   4.072
24307W        W95890   2.444   8.711  12.498
24308W        W95891   3.771   6.142   3.612
24309W        W95892  24.663  43.906   3.690
24310W        W95893  35.833  34.824  14.343
24311W        W95894  30.950  34.634  10.130
24312W        W95895  17.640  20.291  12.114
24313W        W95896  14.971  10.301   3.122
24314W        W95897   4.175  35.141  11.981
24315W        W95898  22.036   5.867   3.976
24316W        W95899  30.697  22.574   0.704
24317W        W95900   3.364  44.910  11.056
24318W        W95901  44.980   5.154   3.699
24319W        W95902   5.864   8.284   4.497
24320W        W95903  18.249  37.329  12.206
24321W        W95904   1.537  39.619   1.731
24322W        W95905  44.918  43.484   0.991
24323W        W95906  29.822  43.080  13.909
24324W        W95907   4.621  11.664   3.397
24325W        W95908  27.631   1.979   0.789
24326W        W95909   0.680  43.167   0.279
24327W        W95910  26.035   8.198  14.530
24328W        W95911  43.177  17.787   4.602
24329W        W95912  34.268   7.404   0.356
24330W        W95913  22.624   2.642   1.740
24331W        W95914  36.539  38.564  14.540
24332W        W95915   7.459  37.407  13.147
24333W        W95916   9.663   0.306   2.807
24334W        W95917  18.996  11.818   4.254
24335W        W95918  12.472  27.706   4.600
24336W        W95919  17.917  29.883  12.076
24337W        W95920  15.489  21.975   1.820
24338W        W95921   6.146  36.961   0.772
24339W        W95922  27.137  29.421   2.139
24340W        W95923  20.588   9.382   2.847
24341W        W95924  31.381  30.507  11.691
24342W        W95925   8.004   7.671   3.671
24343W        W95926  23.758  24.620  13.969
24344W        W95927  11.619  31.492  12.040
24345W        W95928   4.508  31.062   4.732
24346W        W95929  21.285  35.039  14.027
24347W        W95930  18.022  42.902  14.002
24348W        W95931   4.731   4.739  14.134
24349W        W95932   7.698  26.597  12.084
24350W        W95933   3.737  40.651   2.803
24351W        W95934  14.193   6.298   0.108
24352W        W95935   7.829   0.451  12.547
24353W        W95936  27.167  24.468  10.614
24354W        W95937   9.314  42.896   1.204
24355W        W95938  16.793  21.722  12.857
24356W        W95939  41.568   3.194   3.247
24357W        W95940  40.995  34.589  12.888
24358W        W95941   7.773  31.371  11.630
24359W        W95942  38.444  30.070  10.720
24360W        W95943  27.604  12.669   5.278
24361W        W95944  43.480  37.741  12.122
24362W        W95945   0.495   5.363  13.865
24363W        W95946  21.741  34.480   4.867
24364W        W95947  19.729  24.689  14.448
24365W        W95948  42.404  29.867   0.755
24366W        W95949  44.011  22.690   1.205
24367W        W95950  32.676  21.301  11.235
24368W        W95951  12.951  26.965   4.240
24369W        W95952  40.318  35.175   0.429
24370W        W95953  17.156   8.177  10.738
24371W        W95954  12.166   6.442   3.397
24372W        W95955  12.229  17.132  11.463
24373W        W95956   7.516  41.736   1.271
24374W        W95957   8.629   7.394   1.433
24375W        W95958   6.816  18.174  12.453
24376W        W95959  44.766  40.360  14.554
24377W        W95960  18.887  20.462  11.600
24378W        W95961  28.978  30.427   0.803
24379W        W95962  34.514   9.256  12.048
24380W        W95963   5.984  20.941   0.393
24381W        W95964  36.184  44.809  11.103
24382W        W95965   5.752   3.460  12.604
24383W        W95966   7.686  43.259   0.772
24384W        W95967   8.725  31.154   4.210
24385W        W95968   9.751   9.142  13.623
24386W        W95969  33.324   8.058  14.374
24387W        W95970  28.082  39.928   2.310
24388W        W95971  18.841   9.756   0.224
24389W        W95972   2.217   6.664   3.464
24390W        W95973  37.631   5.753   0.214
24391W        W95974   0.837  44.499  13.880
24392W        W95975   6.407  15.068  11.950
24393W        W95976  44.152  17.087  14.365
24394W        W95977  17.081  42.985   1.445
24395W        W95978   8.142  11.796  11.726
24396W        W95979  13.466  28.986  11.591
24397W        W95980   0.263  28.375  11.611
24398W        W95981   3.184  22.692   2.789
24399W        W95982  21.011  38.351   2.205
24400W        W95983  20.800   8.599   2.120
24401W        W95984  19.480   1.297  11.498
24402W        W95985  30.554  22.752   2.287
24403W        W95986   6.637  21.594  11.133
24404W        W95987  28.880  36.098  13.956
24405W        W95988  24.600  43.237  10.564
24406W        W95989  35.044  22.809   4.558
24407W        W95990  22.001  40.894  12.403
24408W        W95991  36.790  37.956  10.693
24409W        W95992  26.440  42.764  14.940
24410W        W95993   2.950  36.067  12.334
24411W        W95994  23.568  27.928  12.556
24412W        W95995  18.594  28.155  12.983
24413W        W95996   4.190  12.360  14.968
24414W        W95997   7.454  19.633   4.469
24415W        W95998  23.090  36.179   3.342
24416W        W95999   9.169  11.774  13.904
24417W        W96000  30.913  27.139   1.298
24418W        W96001   5.777  43.463   3.196
24419W        W96002   6.883  27.647  11.323
24420W        W96003   1.710  32.021   3.780
24421W        W96004  16.295   4.272   4.637
24422W        W96005  24.556  24.727   3.286
24423W        W96006  11.529   7.428   1.762
24424W        W96007  42.992  42.194  13.152
24425W        W96008  34.410  36.535   2.684
24426W        W96009   0.097  34.575   4.607
24427W        W96010   8.709  30.510   1.322
24428W        W96011  33.217  27.364  12.846
24429W        W96012  10.078   5.644  12.044
24430W        W96013  37.838  34.092   1.068
24431W        W96014  20.500  25.724  13.404
24432W        W96015  36.555  25.793   0.725
24433W        W96016  37.671  13.749   1.386
24434W        W96017  22.023  33.404  11.902
24435W        W96018  41.423   2.629  14.405
24436W        W96019  30.440  20.624  14.969
24437W        W96020   1.435  20.632   1.174
24438W        W96021   6.157  17.507  10.724
24439W        W96022  31.195   9.221   0.442
24440W        W96023  16.718  43.245  11.834
24441W        W96024   4.952  35.100   2.836
24442W        W96025  28.430   5.361   1.921
24443W        W96026  21.964  22.313   0.905
24444W        W96027  13.663  37.309   2.876
24445W        W96028  17.576  37.321  13.572
24446W        W96029  40.475  22.825   2.162
24447W        W96030  14.908  18.677   2.544
24448W        W96031   2.195  12.769  14.090
24449W        W96032  17.291  41.535   3.727
24450W        W96033  25.091  40.450   1.004
24451W        W96034  42.443  23.563  10.619
24452W        W96035  15.429  11.871  12.007
24453W        W96036   7.648  38.687  12.243
24454W        W96037  24.972  34.619   4.693
24455W        W96038  27.625  16.532  12.424
24456W        W96039   9.426  24.285  12.152
24457W        W96040   2.312   1.019  12.816
24458W        W96041   8.408  10.569   1.004
24459W        W96042   3.404  10.733  12.940
24460W        W96043   5.020   2.847  13.824
24461W        W96044  17.389  41.571   1.342
24462W        W96045  40.418  43.580  12.907
24463W        W96046  38.369  19.312  12.331
24464W        W96047  38.266   9.874   1.163
24465W        W96048  17.289   8.427   4.028
24466W        W96049  14.554  28.513  14.366
24467W        W96050  44.366  44.823  10.970
24468W        W96051   5.808  11.174   1.813
24469W        W96052  44.352  30.846   1.219
24470W        W96053  37.332  35.123   3.601
24471W        W96054  27.283  10.279  11.126
24472W        W96055   9.760  36.074   0.721
24473W        W96056  14.789  34.995   0.995
24474W        W96057  19.549   5.064  10.230
24475W        W96058  42.771  20.569   1.842
24476W        W96059  35.559  20.045  12.867
24477W        W96060  24.392  15.669  10.575
24478W        W96061  32.109  32.734   0.005
24479W        W96062   1.823  39.970  11.425
24480W        W96063  10.956  13.309  11.666
24481W        W96064  19.196  22.633   3.343
24482W        W96065  33.497   2.212   2.816
24483W        W96066  32.029   7.872   5.129
24484W        W96067   0.392  15.225   1.361
24485W        W96068  40.573  15.731   4.063
24486W        W96069   5.986  12.893   0.382
24487W        W96070   7.841   3.157   4.470
24488W        W96071  34.953  38.602  14.942
24489W        W96072  16.135  41.873   3.958
24490W        W96073  24.577   7.245   4.297
24491W        W96074   6.350   1.187   3.707
24492W        W96075  11.628  38.838   0.327
24493W        W96076   2.415  32.086   3.245
24494W        W96077  21.995   6.388  11.051
24495W        W96078  35.509   2.734  12.583
24496W        W96079   9.293   6.641   3.117
24497W        W96080  21.652  25.427  13.882
24498W        W96081  33.624   2.010   4.610
24499W        W96082  16.996  19.171  10.541
24500W        W96083   7.370  30.809  12.033
24501W        W96084   7.210  38.855   4.761
24502W        W96085  42.957  32.053   4.756
24503W        W96086  31.723  27.779  10.110
24504W        W96087  15.783  19.817   2.498
24505W        W96088  30.070  12.644   4.571
24506W        W96089  25.951  13.172  11.341
24507W        W96090   6.180  10.814  13.597
24508W        W96091  39.795  31.894   0.864
24509W        W96092  31.041   1.338  12.974
24510W        W96093  24.714  42.615   3.695
24511W        W96094   1.098  16.613   1.223
24512W        W96095  30.916  41.146  14.132
24513W        W96096  25.797  41.371  14.642
24514W        W96097  17.469   3.907  12.056
24515W        W96098  19.754  13.073   2.706
24516W        W96099   0.530  29.020  12.620
24517W        W96100  18.561  14.096   1.713
24518W        W96101  33.861  12.369  14.885
24519W        W96102  36.614  10.630  11.059
24520W        W96103  37.722   7.704   1.317
24521W        W96104  25.951   7.704  12.860
24522W        W96105  35.412   3.439  11.396
24523W        W96106  31.842  23.682  14.049
24524W        W96107  21.723   8.204  13.501
24525W        W96108   4.436  10.728  14.062
24526W        W96109  12.850  20.326  12.922
24527W        W96110   1.616   9.348   3.353
24528W        W96111   9.348   3.700   3.116
24529W        W96112  41.319  43.827  12.446
24530W        W96113  17.893  38.372   2.913
24531W        W96114   1.311  21.930   1.941
24532W        W96115  27.054  37.977   3.598
24533W        W96116  41.327  18.423   2.354
24534W        W96117  17.739   7.238   2.958
24535W        W96118  16.542   4.738   4.212
24536W        W96119  39.536  21.073  11.464
24537W        W96120  17.050  23.813   1.640
24538W        W96121  10.638  19.690  12.559
24539W        W96122   8.197  32.944   3.260
24540W        W96123  40.602  38.939  11.718
24541W        W96124  22.012  35.502   1.491
24542W        W96125  30.947  40.359   4.681
24543W        W96126  11.431  17.196   2.184
24544W        W96127   3.138   4.693   1.388
24545W        W96128  10.932   4.980   3.249
24546W        W96129  20.448  11.577   2.578
24547W        W96130  32.353  39.385  13.962
24548W        W96131   4.801  40.980   0.465
24549W        W96132  44.319  25.514  13.889
24550W        W96133  10.407  34.248   1.798
24551W        W96134  24.225  36.471  12.527
24552W        W96135  25.278   0.771  12.202
24553W        W96136  35.198  42.404  14.766
24554W        W96137  35.501  43.425   3.301
24555W        W96138  43.023  24.083  12.000
24556W        W96139  24.216   7.774   3.537
24557W        W96140  23.236  12.221   1.475
24558W        W96141  33.927  17.325  11.632
24559W        W96142   8.568  24.165   1.784
24560W        W96143  14.112   0.756  13.900
24561W        W96144  21.733  35.074   1.283
24562W        W96145  43.371  13.280   3.262
24563W        W96146  26.202  26.578  11.189
24564W        W96147  37.388  34.679  11.122
24565W        W96148  44.540  35.949  14.829
24566W        W96149  38.776  29.493   2.384
24567W        W96150  20.949   7.775  11.734
24568W        W96151  44.523   3.411  13.105
24569W        W96152  30.499  40.454   0.833
24570W        W96153   2.047  11.665   0.336
24571W        W96154  19.587  29.609  12.450
24572W        W96155  32.958  22.134   1.701
24573W        W96156   2.926  27.959  11.992
24574W        W96157  18.222   7.370   2.699
24575W        W96158  26.815  28.934  12.364
24576W        W96159  43.543   0.191  13.924
24577W        W96160   3.761  41.392  11.589
24578W        W96161  39.860  15.796  11.182
24579W        W96162  18.475  32.103   4.684
24580W        W96163  20.242  23.543   2.402
24581W        W96164  20.136  16.169  10.841
24582W        W96165  37.301   5.704   2.204
24583W        W96166  43.110  33.150   2.406
24584W        W96167  13.012  42.629  14.878
24585W        W96168  37.295  43.511  10.687
24586W        W96169  24.950  44.846  11.200
24587W        W96170  37.896   5.120  12.529
24588W        W96171   5.934  44.528  14.439
24589W        W96172   3.221  20.684   4.151
24590W        W96173  43.049  39.851  10.789
24591W        W96174   4.063   6.175  12.573
24592W        W96175   6.839  14.609  11.429
24593W        W96176   6.872   5.237  14.802
24594W        W96177   8.741  23.455   0.277
24595W        W96178   2.830  10.437   1.909
24596W        W96179  34.453  17.661   4.379
24597W        W96180  18.283  36.256  14.259
24598W        W96181  26.597  23.601   4.574
24599W        W96182  24.637  41.724  10.477
24600W        W96183   4.202  14.573   1.752
24601W        W96184  22.988   4.785   1.367
24602W        W96185   6.911  43.121   4.825
24603W        W96186  37.975   0.530  14.015
24604W        W96187  14.991   9.312   2.867
24605W        W96188  12.327   1.760  10.631
24606W        W96189  34.069  11.325  12.154
24607W        W96190  39.905   2.258   3.941
24608W        W96191  36.305   7.659  11.538
24609W        W96192  20.677  29.044  11.937
24610W        W96193   4.395  30.888   4.139
24611W        W96194  43.034  19.435  11.514
24612W        W96195  38.737  36.232   2.424
24613W        W96196  15.565   5.827  14.759
24614W        W96197  26.664  40.536   1.935
24615W        W96198   5.060  30.592   0.969
24616W        W96199   1.911  31.540  13.051
24617W        W96200  19.143  13.109  14.068
24618W        W96201  14.231  39.222   0.827
24619W        W96202  34.974  36.594  11.135
24620W        W96203  13.524   5.707   1.296
24621W        W96204   2.015  39.401   1.641
24622W        W96205  29.814   0.649  12.851
24623W        W96206  11.939  43.206  11.394
24624W        W96207  15.131   4.931  13.510
24625W        W96208  29.091  20.759  14.909
24626W        W96209  35.957   6.151   1.324
24627W        W96210  28.970  33.881   3.113
24628W        W96211  40.764  24.142  13.653
24629W        W96212  26.053  25.679   2.475
24630W        W96213  40.024  41.871   4.075
24631W        W96214  40.288  11.768   2.877
24632W        W96215   3.935   4.232  14.483
24633W        W96216  19.126   0.287   2.784
24634W        W96217  29.753  13.882   3.157
24635W        W96218   3.293  11.655   4.586
24636W        W96219  32.888   2.222  12.038
24637W        W96220   4.923   1.813   0.379
24638W        W96221  19.627   3.399  13.686
24639W        W96222   9.140  34.100  14.314
24640W        W96223  24.027   0.863   4.182
24641W        W96224   2.276  31.846   1.859
24642W        W96225  21.943  34.963   4.678
24643W        W96226   9.092  31.493   4.513
24644W        W96227  31.837  25.492  12.988
24645W        W96228   6.141  42.812   4.277
24646W        W96229  13.716  41.314  14.940
24647W        W96230  22.971  19.911  13.691
24648W        W96231   4.001  37.606   2.726
24649W        W96232  10.488  37.853   5.112
24650W        W96233  37.029  25.513   2.319
24651W        W96234   7.813  38.003   3.292
24652W        W96235  35.219   7.752  10.637
24653W        W96236  39.508  36.609   2.864
24654W        W96237  39.979  23.093   2.797
24655W        W96238  21.207  44.349  11.370
24656W        W96239  27.954   2.045  12.462
24657W        W96240  13.093   3.735  14.565
24658W        W96241  12.356  10.313  10.730
24659W        W96242  12.577  28.260  14.370
24660W        W96243  21.049  10.391   4.062
24661W        W96244   2.316  25.293  12.986
24662W        W96245  38.358  11.121  13.896
24663W        W96246  18.790  36.774   0.829
24664W        W96247  20.581  41.706   0.214
24665W        W96248  30.346   8.424  12.716
24666W        W96249  10.834  43.402   2.493
24667W        W96250   5.523  32.582  14.413
24668W        W96251  15.596   6.173  11.672
24669W        W96252  39.929  21.853  14.836
24670W        W96253   5.199  43.857  13.016
24671W        W96254  41.365  19.047   2.927
24672W        W96255   1.947  43.942  13.543
24673W        W96256  23.304  13.471  13.813
24674W        W96257  21.672  15.108  14.849
24675W        W96258  10.438  30.552  10.662
24676W        W96259  11.270   4.882  10.561
24677W        W96260  41.823  23.013  13.512
24678W        W96261  18.072   0.781  12.286
24679W        W96262   7.408  16.572  13.354
24680W        W96263   5.048  39.497  13.899
24681W        W96264  34.052  38.884   1.283
24682W        W96265  34.301  24.429  11.463
24683W        W96266  28.015  17.273   2.692
24684W        W96267  14.228  29.361   2.815
24685W        W96268  21.718  10.955   1.799
24686W        W96269  41.044  34.446  10.755
24687W        W96270  38.866  42.321   4.561
24688W        W96271   4.575  27.813   2.646
24689W        W96272   9.333  41.549  11.261
24690W        W96273  10.304  30.049  13.377
24691W        W96274  39.332  20.430  14.252
24692W        W96275  43.418  17.730   1.676
24693W        W96276  40.484   0.986  11.675
24694W        W96277  13.205   3.246   0.835
24695W        W96278  17.585  16.078   1.794
24696W        W96279   5.736  30.004  12.719
24697W        W96280  40.543  14.852  10.718
24698W        W96281  19.720  12.092   2.731
24699W        W96282  31.632  15.523  10.728
24700W        W96283  25.861  13.123  10.813
24701W        W96284  37.436  29.159  10.675
24702W        W96285  39.689  35.798   0.525
24703W        W96286  31.484  22.759   2.418
24704W        W96287   5.831  11.454  11.559
24705W        W96288  37.520  10.664   3.451
24706W        W96289  36.996  17.155  14.140
24707W        W96290  27.549  22.596  13.113
24708W        W96291  41.398  31.351  14.579
24709W        W96292  12.046  40.377  11.580
24710W        W96293  34.945  14.825  12.604
24711W        W96294  16.632   8.919  10.751
24712W        W96295  31.164  31.187   4.242
24713W        W96296  33.531  24.415   1.839
24714W        W96297  31.290  37.244  14.480
24715W        W96298  35.984  42.402   4.174
24716W        W96299  34.340  32.909   4.202
24717W        W96300   3.279  18.467  10.879
24718W        W96301  35.855  34.162   3.968
24719W        W96302  11.901  15.960  14.517
24720W        W96303  31.472  38.426  13.810
24721W        W96304   6.330  43.776   3.922
24722W        W96305   8.613  19.780  14.919
24723W        W96306   8.354  26.085  14.987
24724W        W96307  10.617  35.201  14.522
24725W        W96308  34.382  27.234   4.172
24726W        W96309  19.853  23.314  11.155
24727W        W96310  18.013   0.654   4.056
24728W        W96311  36.255  10.090   2.650
24729W        W96312  40.908   5.392  11.176
24730W        W96313  37.423  33.532  13.745
24731W        W96314  22.538  19.250   1.496
24732W        W96315  18.152  23.700  11.922
24733W        W96316  44.937  24.536  12.958
24734W        W96317  10.341  39.785   3.227
24735W        W96318  38.050   3.820   0.221
24736W        W96319  38.992  41.625  13.044
24737W        W96320  44.165   5.769  11.994
24738W        W96321  41.229  43.753  11.130
24739W        W96322   6.761  31.938  12.537
24740W        W96323  26.933   4.483   0.325
24741W        W96324  44.798  10.351  10.554
24742W        W96325  44.509   9.608   3.318
24743W        W96326  31.902  39.463   2.149
24744W        W96327  20.029  28.965  14.370
24745W        W96328  26.671  28.128  12.586
24746W        W96329  23.701  10.882   1.912
24747W        W96330  15.601  24.968  12.225
24748W        W96331  35.605   9.652  13.947
24749W        W96332  26.002  34.536  14.038
24750W        W96333  15.124  44.889  10.639
24751W        W96334  43.229  31.529  14.734
24752W        W96335  19.078  41.606  14.447
24753W        W96336   6.148  23.006  12.069
24754W        W96337  21.792  28.118   1.709
24755W        W96338  24.166  33.604   2.728
24756W        W96339  21.408  31.224   4.246
24757W        W96340   4.176  25.573   0.738
24758W        W96341  39.527   9.858   1.248
24759W        W96342  33.067  23.102   2.904
24760W        W96343  37.953  24.711   0.454
24761W        W96344  29.048  17.163  12.397
24762W        W96345  23.944  39.492  12.038
24763W        W96346  13.330  22.964  11.878
24764W        W96347  19.342  14.213   2.241
24765W        W96348   7.902  40.150   2.943
24766W        W96349   4.309  33.027   0.543
24767W        W96350  37.461  40.261   3.368
24768W        W96351  31.561  40.454  10.684
24769W        W96352  25.462   2.839   0.289
24770W        W96353  21.426  18.107  11.944
24771W        W96354   5.733  44.459   2.217
24772W        W96355  41.809  18.225  12.040
24773W        W96356  32.643  23.251  12.860
24774W        W96357  32.562   1.875  14.679
24775W        W96358   5.643  28.627   3.132
24776W        W96359  10.894  39.907  12.899
24777W        W96360  29.026  30.899   2.016
24778W        W96361  13.387  25.217   1.891
24779W        W96362   0.268  14.063   1.809
24780W        W96363  41.116  33.141   3.180
24781W        W96364  32.167   7.901   0.688
24782W        W96365  24.033  11.437  12.561
24783W        W96366   5.908  30.935   3.281
24784W        W96367  22.175   7.755   0.198
24785W        W96368  36.577  28.966  13.553
24786W        W96369   5.977  42.833   2.400
24787W        W96370  36.869  18.679  14.062
24788W        W96371  44.103  44.688  12.891
24789W        W96372  23.720  32.429   1.320
24790W        W96373  29.932   7.283  14.982
24791W        W96374  24.011  41.543   2.930
24792W        W96375   7.739  19.295  11.700
24793W        W96376  26.718   9.747  12.776
24794W        W96377   5.896  36.437  14.971
24795W        W96378  32.942  17.585  12.458
24796W        W96379  16.798   1.980  14.771
24797W        W96380  18.016  19.493   4.223
24798W        W96381  16.676  19.096  11.866
24799W        W96382  36.097  27.959   2.017
24800W        W96383  39.516  16.789  12.951
24801W        W96384   2.531  44.894   0.281
24802W        W96385  19.531  12.809   5.002
24803W        W96386  20.122  11.549  14.479
24804W        W96387  26.540   1.878  10.522
24805W        W96388   7.505   9.562   0.250
24806W        W96389  18.722  19.072   9.736
24807W        W96390  42.978  16.224   1.701
24808W        W96391  40.026  21.236   4.898
24809W        W96392  34.106  17.137   1.505
24810W        W96393  24.015  13.472  13.787
24811W        W96394  44.407   1.833   0.373
24812W        W96395  39.050  22.894   0.153
24813W        W96396   7.237  23.505   1.865
24814W        W96397  29.990  15.044   3.197
24815W        W96398  29.132  41.134  13.825
24816W        W96399  28.727  38.890  12.566
24817W        W96400   7.581  26.660  12.577
24818W        W96401  25.055  38.378   1.195
24819W        W96402  17.908  12.780   0.821
24820W        W96403  29.126  41.354   0.422
24821W        W96404  12.599  41.848   1.823
24822W        W96405  38.565  38.359   2.795
24823W        W96406  29.943  37.824   4.565
24824W        W96407  40.443   8.672   2.198
24825W        W96408   9.425  39.895  12.327
24826W        W96409  24.582  23.899  12.393
24827W        W96410  31.109  40.174  13.899
24828W        W96411  29.125  16.114   3.747
24829W        W96412  40.863  43.820   4.429
24830W        W96413  15.653   9.980  14.459
24831W        W96414  37.446  11.184  10.727
24832W        W96415  17.153  11.915   4.758
24833W        W96416  23.059  30.406   2.687
24834W        W96417  29.107  34.407   0.669
24835W        W96418  29.743  14.329  12.500
24836W        W96419  11.894  44.081   9.978
24837W        W96420  15.173  14.626  12.168
24838W        W96421  42.335  29.769   1.289
24839W        W96422   1.667  30.605  14.081
24840W        W96423  36.277   0.466  14.847
24841W        W96424  37.837  39.411   3.181
24842W        W96425  39.942  13.783  14.829
24843W        W96426  43.893  34.122  10.628
24844W        W96427  18.032   4.206  14.871
24845W        W96428  17.703   1.532  14.460
24846W        W96429  27.753  21.528   4.647
24847W        W96430   4.725  15.789   0.500
24848W        W96431  11.542  18.183  14.563
24849W        W96432  40.427  42.700  14.842
24850W        W96433   0.868  37.361   0.040
24851W        W96434  44.574  12.711  10.713
24852W        W96435   7.831  26.369  12.963
24853W        W96436  38.563  19.730   1.396
24854W        W96437  27.545  17.077   4.589
24855W        W96438  32.551  11.832   4.730
24856W        W96439  23.186  21.858   3.442
24857W        W96440  25.009   7.820   3.133
24858W        W96441  10.641   1.931   2.395
24859W        W96442  43.505  40.682  11.514
24860W        W96443  21.613  33.443   0.003
24861W        W96444  19.199  38.927  14.845
24862W        W96445  21.448  43.292  11.484
24863W        W96446  29.664  36.498   2.775
24864W        W96447  44.663   7.606  12.685
24865W        W96448  25.541  13.440   4.656
24866W        W96449  28.999  29.199   1.954
24867W        W96450   9.182  39.194  14.063
24868W        W96451  23.572   2.526   3.234
24869W        W96452  40.316  31.161   4.620
24870W        W96453  41.011  15.601  12.087
24871W        W96454  17.036  30.931   2.426
24872W        W96455  13.962  43.745  11.529
24873W        W96456  42.257  28.402  12.422
24874W        W96457   4.702  35.413  14.397
24875W        W96458  18.275   4.456  12.396
24876W        W96459  27.001  32.017   3.716
24877W        W96460   7.410  21.252   1.922
24878W        W96461   4.856  29.672  12.553
24879W        W96462  13.878  19.704   2.249
24880W        W96463  34.920   3.432   2.733
24881W        W96464  33.877  38.622   1.724
24882W        W96465   8.630   3.959  13.844
24883W        W96466  24.720  20.147   1.754
24884W        W96467  24.777   2.376  11.062
24885W        W96468  28.183  26.406   0.532
24886W        W96469  37.838  29.482   1.972
24887W        W96470  36.948  40.376   3.422
24888W        W96471  30.953  36.335   5.100
24889W        W96472  23.093  42.495   0.653
24890W        W96473  12.669  23.232  13.778
24891W        W96474  19.251  26.431   3.392
24892W        W96475  21.527  34.857   0.313
24893W        W96476  20.162  31.125   4.930
24894W        W96477  16.114  19.514   4.286
24895W        W96478  32.366  31.079  12.848
24896W        W96479  22.253   8.846   2.277
24897W        W96480  34.240  11.993   4.407
24898W        W96481  39.218  22.279  14.526
24899W        W96482  44.711  17.311   0.258
24900W        W96483   2.860  36.901   2.357
24901W        W96484  18.168  42.598  14.519
24902W        W96485   3.958  30.245  12.579
24903W        W96486   5.204  34.056   2.018
24904W        W96487   2.903  15.401  13.011
24905W        W96488   6.672  37.354   3.265
24906W        W96489  26.711   2.883  11.485
24907W        W96490  19.071   7.085   2.224
24908W        W96491  44.295  42.421  14.432
24909W        W96492  33.149  34.208  11.541
24910W        W96493  13.037  30.585   1.312
24911W        W96494   3.476  31.734   3.382
24912W        W96495  33.423  38.443   1.325
24913W        W96496  39.481   3.023   4.454
24914W        W96497   6.107   4.189   2.856
24915W        W96498  38.400   4.810  10.911
24916W        W96499  33.351  26.058   1.472
24917W        W96500  27.545  41.579  14.356
24918W        W96501  34.327  14.639  12.854
24919W        W96502   0.385  14.930  11.599
24920W        W96503  44.211  26.894  12.101
24921W        W96504   0.704  10.059   3.780
24922W        W96505   2.418  27.619  14.348
24923W        W96506   1.554  11.584  12.503
24924W        W96507  19.937  35.269  12.602
24925W        W96508  21.445   2.775  13.477
24926W        W96509  19.502   4.382  14.108
24927W        W96510  29.002  37.041  10.794
24928W        W96511  18.851  20.534  13.009
24929W        W96512  21.142  27.576   3.220
24930W        W96513  13.258  21.067  14.655
24931W        W96514  11.327   8.447  13.903
24932W        W96515   4.736   3.654  11.141
24933W        W96516  40.358  11.323  12.275
24934W        W96517  23.262  10.814  12.075
24935W        W96518   8.287  16.767   3.684
24936W        W96519  19.577  26.588   2.547
24937W        W96520   7.178  38.241   2.322
24938W        W96521  37.879  19.024   0.896
24939W        W96522  23.656  38.978   2.380
24940W        W96523  22.196  24.023   3.130
24941W        W96524  42.339  10.855  12.502
24942W        W96525  11.740  31.805  10.442
24943W        W96526  37.545  36.697   4.825
24944W        W96527  19.278  27.574  11.256
24945W        W96528  35.563  31.359   2.000
24946W        W96529  17.664  39.602   1.630
24947W        W96530  28.607  40.706  12.523
24948W        W96531   9.675  18.006   1.431
24949W        W96532   0.287  42.303  13.413
24950W        W96533  35.162   6.793   1.241
24951W        W96534  25.412  30.700   1.402
24952W        W96535   1.216   9.501  11.446
24953W        W96536  12.610   8.641   2.861
24954W        W96537   2.747   8.272  12.383
24955W        W96538  13.331  17.778   1.858
24956W        W96539  10.696   4.790   3.679
24957W        W96540  42.245  24.669   4.142
24958W        W96541   4.191  16.215   3.394
24959W        W96542   1.568   0.400  12.015
24960W        W96543   5.702  16.104   4.569
24961W        W96544   3.718  22.174  14.574
24962W        W96545  27.387  42.793   4.758
24963W        W96546  28.976  22.808   1.713
24964W        W96547   0.585  43.251  12.050
24965W        W96548  24.452  43.508   2.727
24966W        W96549  33.630  10.143   0.828
24967W        W96550   0.856  10.505   3.527
24968W        W96551   7.875  12.618   0.911
24969W        W96552   5.795  25.246  12.428
24970W        W96553   9.886   6.237  14.344
24971W        W96554   1.893   3.386   1.734
24972W        W96555  12.825  21.527   0.384
24973W        W96556   7.841  38.961   3.327
24974W        W96557  28.061  18.657  13.494
24975W        W96558   6.961   5.880   1.028
24976W        W96559   3.802  24.757   4.881
24977W        W96560  29.507  41.367  14.499
24978W        W96561  28.781  21.209  11.683
24979W        W96562   0.338   9.391   2.173
24980W        W96563  11.750   8.256  13.003
24981W        W96564  35.851  23.961   2.331
24982W        W96565   0.688  41.363   2.003
24983W        W96566  33.269  41.843   0.127
24984W        W96567  29.012  23.354   0.373
24985W        W96568  35.407  33.372   0.372
24986W        W96569  39.391  21.017   1.435
24987W        W96570   3.840  16.088  12.967
24988W        W96571  40.726  39.967  12.938
24989W        W96572   8.273  12.147   3.297
24990W        W96573   1.338   0.796   2.425
24991W        W96574  30.009  14.405  13.011
24992W        W96575   4.829  18.270   1.449
24993W        W96576  42.927   3.040   3.794
24994W        W96577   0.051  17.814   3.902
24995W        W96578  15.967  26.543   0.232
24996W        W96579  21.130  37.241  14.382
24997W        W96580   9.971  16.869  10.606
24998W        W96581  39.861  35.592   4.604
24999W        W96582  30.156  29.138   1.492
25000W        W96583  14.618  22.315   0.265
25001W        W96584  35.941   3.499  14.962
25002W        W96585   8.439  40.492   2.950
25003W        W96586  42.317  11.321  10.790
25004W        W96587  32.730  16.597   3.229
25005W        W96588   0.368  29.629   2.280
25006W        W96589  36.315  33.693  12.487
25007W        W96590  38.485  33.661   3.753
25008W        W96591  42.799  19.209   1.422
25009W        W96592  28.349  42.818   0.008
25010W        W96593  12.276  34.087   0.999
25011W        W96594  18.682  39.509  12.977
25012W        W96595  13.367   0.130   2.235
25013W        W96596   1.044   4.403  14.806
25014W        W96597   5.810  20.518  11.061
25015W        W96598  29.684  25.830  12.385
25016W        W96599  33.835  38.480  10.382
25017W        W96600   0.580   0.360   1.460
25018W        W96601  40.370  33.154   3.888
25019W        W96602   5.388  24.794  11.545
25020W        W96603  25.935  11.232  13.762
25021W        W96604  14.220  24.477   1.905
25022W        W96605  35.680  43.545  12.542
25023W        W96606  18.831  33.947  14.542
25024W        W96607  40.740  21.570   2.590
25025W        W96608   2.287  24.651  12.542
25026W        W96609  13.796  33.592  11.060
25027W        W96610  19.583   3.914   1.255
25028W        W96611  21.310  17.232  10.943
25029W        W96612   5.078   9.269   4.840
25030W        W96613  27.748  25.674  12.133
25031W        W96614  21.807  22.068   0.204
25032W        W96615  10.821  17.773   2.808
25033W        W96616   5.354  34.177   0.873
25034W        W96617  44.092  24.706  12.617
25035W        W96618  34.520  18.020  13.018
25036W        W96619   3.955  37.520  13.866
25037W        W96620  24.525  44.190   3.268
25038W        W96621  11.414   6.731  10.684
25039W        W96622  28.548  22.310  13.286
25040W        W96623  39.680  40.309   2.496
25041W        W96624  12.875  41.695  12.682
25042W        W96625  37.244  25.998   3.651
25043W        W96626  23.088  44.425   4.556
25044W        W96627   4.534  24.163   2.670
25045W        W96628  35.420  27.890  13.536
25046W        W96629  30.900  17.248   2.727
25047W        W96630  22.389  11.593   4.733
25048W        W96631   0.463   4.270  10.665
25049W        W96632  30.166   8.141   1.436
25050W        W96633  23.123  19.655   0.541
25051W        W96634   6.944  18.528  10.725
25052W        W96635  43.528  24.804  12.101
25053W        W96636  13.731  11.184   4.103
25054W        W96637  14.634  22.830   2.333
25055W        W96638   0.452  22.685  10.564
25056W        W96639  33.371  20.684  10.915
25057W        W96640  39.893  14.066  11.474
25058W        W96641  32.173   0.054  12.436
25059W        W96642   7.924  39.379  10.789
25060W        W96643  36.996  14.908   1.183
25061W        W96644   4.389  36.942  14.883
25062W        W96645  34.427  22.262   3.142
25063W        W96646   9.915  21.113   3.904
25064W        W96647   9.748  38.012   4.390
25065W        W96648  32.649  37.462  12.493
25066W        W96649   9.621  34.938   3.833
25067W        W96650  23.679   3.084   2.360
25068W        W96651  24.978  32.537   0.377
25069W        W96652  27.173   6.697  14.896
25070W        W96653  35.606   9.969  14.388
25071W        W96654  35.898   8.292   2.938
25072W        W96655  19.540  14.736   2.208
25073W        W96656   1.169  35.418   1.848
25074W        W96657  36.813  29.402  14.855
25075W        W96658   5.737  33.522   2.177
25076W        W96659  12.115  38.705   1.290
25077W        W96660   2.758  23.782  10.881
25078W        W96661   3.925   6.687  12.164
25079W        W96662  33.173  23.371  11.029
25080W        W96663  33.391  41.036   3.260
25081W        W96664   4.148  20.581   1.225
25082W        W96665  25.070  31.849  10.653
25083W        W96666  23.254   5.872   1.782
25084W        W96667  18.507  36.711   2.590
25085W        W96668  29.293   8.846   1.840
25086W        W96669  27.378   0.249   0.957
25087W        W96670  17.825  27.654  13.362
25088W        W96671   7.223  39.337  13.895
25089W        W96672   4.076  38.623   2.738
25090W        W96673  24.685   1.551  12.493
25091W        W96674   4.859  43.025   1.876
25092W        W96675  12.040   3.946  14.753
25093W        W96676  36.797  34.083   0.935
25094W        W96677  11.199  27.648   1.496
25095W        W96678   6.478  24.687   3.332
25096W        W96679  18.079   3.483  10.699
25097W        W96680  16.545   5.249   4.148
25098W        W96681  23.638  21.032  11.992
25099W        W96682  34.430  26.482  12.246
25100W        W96683   2.752  19.773  10.954
25101W        W96684  11.629  21.404  11.829
25102W        W96685  32.130  27.859  12.889
25103W        W96686  40.382  24.999   0.325
25104W        W96687  35.363  15.062   4.223
25105W        W96688   5.032   2.251  10.981
25106W        W96689  42.999   3.019  11.090
25107W        W96690  25.238  29.365   3.101
25108W        W96691  41.278   9.160   2.306
25109W        W96692  30.601  25.900   3.595
25110W        W96693   1.958  13.619   0.877
25111W        W96694  12.589  10.884   2.729
25112W        W96695  26.808  19.168   1.833
25113W        W96696   2.027  20.596  13.051
25114W        W96697   8.855  33.396   2.730
25115W        W96698   5.024  28.966  13.009
25116W        W96699  44.535  20.092   0.819
25117W        W96700  36.334  40.697  12.937
25118W        W96701  34.074  10.213  11.050
25119W        W96702  29.596  18.265   0.039
25120W        W96703   0.529  30.361   1.908
25121W        W96704  30.460  20.021   5.059
25122W        W96705   2.481  22.572  12.221
25123W        W96706  19.754  30.478   5.529
25124W        W96707  10.670  12.671  12.971
25125W        W96708  18.180  10.896  12.147
25126W        W96709   5.763  34.541  14.354
25127W        W96710  13.043  25.019  11.501
25128W        W96711  19.768  16.809   4.737
25129W        W96712  36.356  30.581  11.441
25130W        W96713  23.283  32.364  14.835
25131W        W96714  31.659  10.831   3.221
25132W        W96715  41.924  13.193  13.313
25133W        W96716  20.447  20.227  10.738
25134W        W96717  39.461   9.866   2.755
25135W        W96718  17.760  15.981  13.339
25136W        W96719  11.250  31.464   0.320
25137W        W96720   2.795  29.847   1.352
25138W        W96721   2.859  28.307   4.968
25139W        W96722  12.366  29.760   4.251
25140W        W96723   5.128  16.259  11.464
25141W        W96724  25.261  30.299   2.694
25142W        W96725  43.115  34.075  14.117
25143W        W96726  19.221  21.319  11.609
25144W        W96727  42.070  32.799   1.354
25145W        W96728  39.942  21.775  11.642
25146W        W96729  12.181  28.863   2.301
25147W        W96730  30.985   5.900  10.711
25148W        W96731   2.149  31.940  13.402
25149W        W96732  39.998  31.087   1.249
25150W        W96733   7.349  12.974  12.086
25151W        W96734  26.682  22.028  11.144
25152W        W96735  19.110   8.832  12.943
25153W        W96736  36.108   7.263   0.031
25154W        W96737  27.478  33.285  10.657
25155W        W96738  27.069  19.189   1.390
25156W        W96739  10.198   5.834  10.715
25157W        W96740   3.078  15.667   0.981
25158W        W96741  25.980  11.550   4.137
25159W        W96742  17.868   3.068   1.979
25160W        W96743   3.385  14.170   0.240
25161W        W96744  11.399   8.246   2.567
25162W        W96745  23.106  12.528   2.745
25163W        W96746   1.900   7.639   3.628
25164W        W96747  30.494   8.530  10.571
25165W        W96748   8.030  28.737  14.436
25166W        W96749  42.195  40.992   2.266
25167W        W96750  41.963  36.311   2.656
25168W        W96751  26.742  10.676   4.832
25169W        W96752  11.515   8.240  11.668
25170W        W96753   3.228   9.208   3.105
25171W        W96754   5.909  27.050  14.419
25172W        W96755  17.591  26.204  13.789
25173W        W96756  21.241   9.686  13.014
25174W        W96757  34.842   1.060  12.871
25175W        W96758  41.812  40.779  10.738
25176W        W96759  19.283  28.494   5.444
25177W        W96760  33.911  12.837   4.926
25178W        W96761   3.777  12.259  10.743
25179W        W96762  33.400  11.228  14.023
25180W        W96763   3.699  27.671   4.139
25181W        W96764  23.037   8.858   1.267
25182W        W96765  21.975  41.791   4.593
25183W        W96766   3.381  17.847  13.809
25184W        W96767  18.811  42.996  10.644
25185W        W96768   8.662  31.972   2.597
25186W        W96769  44.125  29.531   3.614
25187W        W96770  28.591  36.749  12.766
25188W        W96771  29.010   9.815  12.148
25189W        W96772  36.424  32.877  12.816
25190W        W96773  23.699  21.922  12.468
25191W        W96774  24.724  38.259   0.346
25192W        W96775  31.132  22.325   4.554
25193W        W96776  44.434  14.373  13.117
25194W        W96777  19.079  27.642   2.912
25195W        W96778  38.545  15.323  12.132
25196W        W96779   9.846  43.450  12.370
25197W        W96780  18.803  28.630   0.330
25198W        W96781  11.229  14.748  12.655
25199W        W96782  23.251  39.749   3.380
25200W        W96783  26.663   6.346   4.576
25201W        W96784  26.869  38.865  12.450
25202W        W96785  28.884  44.222   3.117
25203W        W96786  33.275   7.944  13.443
25204W        W96787  12.945  25.245   0.987
25205W        W96788   2.662   0.297   2.285
25206W        W96789  23.324  13.590   2.301
25207W        W96790   9.505  32.467   0.875
25208W        W96791  24.628  22.104  13.710
25209W        W96792  39.795  38.145  12.800
25210W        W96793   3.345  14.210  13.163
25211W        W96794  27.538  30.537  14.760
25212W        W96795  22.757  19.790   2.339
25213W        W96796  37.230  34.734  11.951
25214W        W96797  20.834  14.364  14.119
25215W        W96798   0.039  44.441   1.514
25216W        W96799  16.585   2.573   4.498
25217W        W96800  20.807  29.523  12.057
25218W        W96801  10.000  25.293  13.436
25219W        W96802   5.419  11.729  12.479
25220W        W96803  20.194  31.661   1.619
25221W        W96804  11.305  27.606   0.486
25222W        W96805   4.341  39.354   0.927
25223W        W96806  30.057  26.677   0.304
25224W        W96807  38.762   9.212  13.862
25225W        W96808  17.119  13.609   2.194
25226W        W96809  17.237  36.606   0.199
25227W        W96810   5.707  24.224   0.457
25228W        W96811  10.985  44.734   2.696
25229W        W96812  24.550  13.298  13.969
25230W        W96813  31.300  38.462   4.553
25231W        W96814   7.784   9.107  10.888
25232W        W96815  16.121  42.063  12.522
25233W        W96816  34.260  19.708  13.251
25234W        W96817  20.315  20.008  11.537
25235W        W96818  24.792   3.175   3.033
25236W        W96819  36.628   4.906  14.466
25237W        W96820   5.817  20.099  13.887
25238W        W96821  39.788  21.663   2.256
25239W        W96822  18.211  15.735  13.321
25240W        W96823  23.174  16.470   2.221
25241W        W96824  33.686  16.879   4.011
25242W        W96825  11.679  34.177   1.836
25243W        W96826  30.145   1.039   0.222
25244W        W96827   6.301  12.898   2.291
25245W        W96828   0.347  19.027  11.227
25246W        W96829  43.780  32.042  13.490
25247W        W96830  11.610  24.636  13.482
25248W        W96831  26.705  43.691  13.258
25249W        W96832  29.243  22.576   0.811
25250W        W96833  44.177  13.155  11.616
25251W        W96834  35.821   9.448  12.050
25252W        W96835  29.727  42.568   2.645
25253W        W96836  17.812  24.133   5.314
25254W        W96837  15.348   6.913   3.499
25255W        W96838  27.134  10.913   3.680
25256W        W96839   9.771  23.982   4.139
25257W        W96840   7.255  18.593   4.679
25258W        W96841  17.426  19.573   3.159
25259W        W96842  15.255   5.712  10.938
25260W        W96843  23.619  11.833  10.709
25261W        W96844   4.423  18.924  13.426
25262W        W96845   5.324  44.734  12.995
25263W        W96846  12.184  36.053   3.399
25264W        W96847  43.841  24.834   3.712
25265W        W96848  30.553  32.299   3.002
25266W        W96849  33.007  31.382  12.527
25267W        W96850  27.395  44.237   0.122
25268W        W96851  43.526  34.663  12.899
25269W        W96852  11.806  21.580   1.017
25270W        W96853  37.352  13.760   2.366
25271W        W96854  35.809  29.286   4.880
25272W        W96855  26.173  14.527   2.197
25273W        W96856  41.809  42.265   1.073
25274W        W96857  19.430  31.413  12.053
25275W        W96858  25.217  15.075  14.448
25276W        W96859  43.361  31.844  12.576
25277W        W96860   0.744  18.152  10.840
25278W        W96861  33.907  30.891  12.364
25279W        W96862  19.086  33.463   4.127
25280W        W96863   4.222   1.445   0.793
25281W        W96864  28.152  24.640  10.383
25282W        W96865   1.150  15.749   1.408
25283W        W96866  14.267  14.105  12.573
25284W        W96867  37.890   6.360  11.985
25285W        W96868  28.806  16.642   3.610
25286W        W96869  38.362  42.010  11.620
25287W        W96870  42.250  29.035  14.797
25288W        W96871  15.211   9.986   4.539
25289W        W96872   7.619  27.496  12.008
25290W        W96873   9.616   1.326   4.620
25291W        W96874  23.125  13.215  12.835
25292W        W96875   0.231  14.715  14.856
25293W        W96876  14.519  41.871  14.096
25294W        W96877   7.930  36.797   3.140
25295W        W96878   0.771  16.292   0.836
25296W        W96879  32.148  28.151  11.068
25297W        W96880   7.743  36.916   4.530
25298W        W96881  41.500  26.588  14.278
25299W        W96882  27.299   6.162  13.528
25300W        W96883   2.270  38.822   1.684
25301W        W96884  23.732   1.019   0.274
25302W        W96885   4.282  30.523  11.627
25303W        W96886  21.217  36.798  14.103
25304W        W96887  20.672  14.321   4.504
25305W        W96888  41.815  29.699   4.763
25306W        W96889   5.709   7.967  13.372
25307W        W96890  37.950  27.985   4.130
25308W        W96891   4.996  33.071  10.075
25309W        W96892  32.390  14.352   2.250
25310W        W96893  19.590  11.113   0.713
25311W        W96894  31.675  31.116   4.166
25312W        W96895  20.307   9.380  12.737
25313W        W96896  43.030   7.932   1.316
25314W        W96897  37.411  11.409  11.579
25315W        W96898  19.545  12.154  12.047
25316W        W96899  43.147  37.384  14.478
25317W        W96900  38.458  29.677  12.595
25318W        W96901  31.039  40.061  12.978
25319W        W96902  40.130  37.306   2.717
25320W        W96903   0.488   1.821   1.338
25321W        W96904   3.750  40.510  10.977
25322W        W96905  32.687  23.810  12.090
25323W        W96906  36.360  25.945  11.035
25324W        W96907  19.170  23.257  12.393
25325W        W96908  41.034  27.650  13.895
25326W        W96909   5.459  21.065  10.491
25327W        W96910  23.482  23.206  13.883
25328W        W96911  29.433   5.231  12.591
25329W        W96912   0.937  35.952   5.225
25330W        W96913  31.150  14.863  12.298
25331W        W96914   7.777  31.410   1.321
25332W        W96915  38.308   5.931   2.377
25333W        W96916  23.798  15.828  13.952
25334W        W96917  24.566  19.203   2.622
25335W        W96918  44.656  44.328   2.507
25336W        W96919  12.530  24.230   0.725
25337W        W96920  19.665  20.158  12.902
25338W        W96921   6.788  26.545  13.021
25339W        W96922   0.685  40.278  14.368
25340W        W96923  31.721  29.920  13.466
25341W        W96924  30.890  29.665   1.900
25342W        W96925  25.121  24.759  11.679
25343W        W96926  23.688   9.112  12.600
25344W        W96927  31.185  23.533   4.996
25345W        W96928  40.308  22.550   0.270
25346W        W96929   7.310  25.395  14.339
25347W        W96930  23.690  20.402   0.819
25348W        W96931  17.074  41.993   4.628
25349W        W96932  37.324   7.228  10.192
25350W        W96933  39.861  29.684  11.582
25351W        W96934  18.677  18.609  12.865
25352W        W96935  39.684   5.377   3.695
25353W        W96936  15.868   1.417   3.778
25354W        W96937  23.494  43.985  14.438
25355W        W96938   2.214  25.022  13.995
25356W        W96939  18.226  31.908  13.870
25357W        W96940  23.732   0.243  12.971
25358W        W96941  34.915  14.189  14.887
25359W        W96942   2.360  35.043  12.973
25360W        W96943   2.522  12.035   4.596
25361W        W96944   4.407  41.107   1.226
25362W        W96945  27.179   2.347   1.636
25363W        W96946  14.594   6.302  12.483
25364W        W96947   3.474   9.126   4.987
25365W        W96948  24.769   9.432  13.938
25366W        W96949  24.055   1.628  11.789
25367W        W96950  43.022  13.792   2.352
25368W        W96951  31.953  25.212  13.436
25369W        W96952  22.430  35.354  13.586
25370W        W96953   2.481  33.007   1.459
25371W        W96954  23.085   1.323  13.358
25372W        W96955  13.203   6.461   4.599
25373W        W96956  21.751  28.745  10.269
25374W        W96957   9.652  26.678  12.239
25375W        W96958  16.644  40.278   0.327
25376W        W96959  12.605  10.219   0.093
25377W        W96960  27.501  20.682  11.033
25378W        W96961   3.625  25.404  13.382
25379W        W96962  36.422  40.614   1.316
25380W        W96963   3.342  34.976  12.322
25381W        W96964  44.201   0.731   0.593
25382W        W96965  23.052  13.173   1.885
25383W        W96966  25.974   1.903  14.268
25384W        W96967  16.807  29.110   4.564
25385W        W96968  40.544  14.196   3.700
25386W        W96969  23.108   6.404  14.255
25387W        W96970   9.970  41.835  12.063
25388W        W96971  21.790  18.821   2.346
25389W        W96972   3.340  11.952   3.677
25390W        W96973  39.023   9.689  12.558
25391W        W96974  26.201  13.725   2.671
25392W        W96975  29.709  15.397  14.377
25393W        W96976  44.346  35.049   0.991
25394W        W96977  37.049  32.597   2.413
25395W        W96978  28.606  38.018   4.340
25396W        W96979  17.871   2.776  14.010
25397W        W96980  23.330  10.102   4.903
25398W        W96981  14.161  38.498  12.542
25399W        W96982   9.158  17.793  13.888
25400W        W96983  19.203   2.592  13.985
25401W        W96984  18.268   0.764  13.420
25402W        W96985  30.662   5.406   3.688
25403W        W96986  17.264  25.056   0.254
25404W        W96987  18.494  31.852   2.835
25405W        W96988   2.026  27.395  12.074
25406W        W96989   2.793   5.192  12.394
25407W        W96990  22.286  31.736  11.697
25408W        W96991  35.503  26.229   2.332
25409W        W96992  37.974   6.050  10.778
25410W        W96993   6.942  22.592  13.026
25411W        W96994  24.553   8.022   3.239
25412W        W96995  24.489  12.382   2.630
25413W        W96996  34.060   2.362   1.037
25414W        W96997  38.476   8.804  13.128
25415W        W96998  25.895  36.875  12.751
25416W        W96999  21.983  10.829   1.284
25417W        W97000  12.338  35.351  13.104
25418W        W97001   8.066   4.446  14.921
25419W        W97002   2.401  37.419   3.724
25420W        W97003  11.068  33.048   3.679
25421W        W97004  39.316  29.064  14.900
25422W        W97005  15.387   4.214  12.261
25423W        W97006  41.611  44.188  13.338
25424W        W97007  29.433  35.116   1.209
25425W        W97008  16.246  33.144  12.507
25426W        W97009  44.164   0.164   2.914
25427W        W97010  31.474  22.776   4.670
25428W        W97011  21.467  30.657  10.482
25429W        W97012   7.383   2.797  14.465
25430W        W97013  42.064  35.103  14.893
25431W        W97014  20.766  27.570   0.302
25432W        W97015  24.161  35.057   2.886
25433W        W97016  38.946  27.163   0.424
25434W        W97017  23.548  43.270  11.651
25435W        W97018   5.788  12.019  14.981
25436W        W97019  14.895  19.514  10.984
25437W        W97020  14.241  33.355   3.689
25438W        W97021  21.287   7.246   1.412
25439W        W97022  19.507  17.004  11.700
25440W        W97023  26.002   4.266   2.162
25441W        W97024  40.292   9.365   2.797
25442W        W97025  42.546  27.480   1.782
25443W        W97026  30.100   3.845   2.161
25444W        W97027  42.276   2.937  10.658
25445W        W97028   6.680  14.706   4.721
25446W        W97029   6.194  13.099  12.589
25447W        W97030  29.901  28.104  12.883
25448W        W97031   9.185   8.770  10.670
25449W        W97032  31.970  42.088  10.976
25450W        W97033  27.587  39.990  12.954
25451W        W97034  37.680  38.964   4.616
25452W        W97035  24.627  40.357  10.779
25453W        W97036  35.845  38.251   2.386
25454W        W97037  18.914  29.975   0.550
25455W        W97038  13.213   0.268   0.609
25456W        W97039  24.001  23.090   1.337
25457W        W97040  13.581  23.635  14.265
25458W        W97041  15.178   9.436   4.564
25459W        W97042  10.708   3.186  11.521
25460W        W97043  43.507  33.668  11.800
25461W        W97044   3.955   6.631   2.197
25462W        W97045  24.708   6.233  11.874
25463W        W97046  10.416  24.518   2.403
25464W        W97047   2.890  21.570  12.457
25465W        W97048  23.370  10.249   2.894
25466W        W97049  23.030  20.132  11.086
25467W        W97050   2.755  32.561  14.766
25468W        W97051  25.290   3.727  14.306
25469W        W97052   6.678  29.220   2.833
25470W        W97053   2.920  26.976   4.150
25471W        W97054  44.219  43.926   1.302
25472W        W97055   8.290  43.313   4.989
25473W        W97056  17.394  25.728   4.235
25474W        W97057  33.036  44.623   1.959
25475W        W97058   2.696  33.859  11.168
25476W        W97059  29.984   1.334  12.165
25477W        W97060  40.482  11.287   2.696
25478W        W97061  27.695  28.506  11.123
25479W        W97062   5.322  10.732   1.828
25480W        W97063  40.654  16.405  12.342
25481W        W97064   7.789   0.162  10.700
25482W        W97065   4.885  37.007  13.085
25483W        W97066  27.155  27.983   3.727
25484W        W97067  37.936   4.544  11.662
25485W        W97068   3.940   8.330   4.705
25486W        W97069  34.623  13.232   3.908
25487W        W97070  11.523  22.280  14.314
25488W        W97071  11.862   9.274   3.818
25489W        W97072  25.437  11.097   4.513
25490W        W97073  21.227  30.086   5.262
25491W        W97074  41.841  34.900   3.521
25492W        W97075  20.622  28.174  13.416
25493W        W97076  20.253  18.747   3.454
25494W        W97077   6.930  17.718   1.316
25495W        W97078  38.604  37.629   0.940
25496W        W97079   5.479  28.495  13.939
25497W        W97080  15.182  34.813   3.522
25498W        W97081  40.893  24.963  14.044
25499W        W97082  17.524  31.056  12.491
25500W        W97083  35.268  31.108  11.127
25501W        W97084  33.538   7.472   2.177
25502W        W97085  33.125  36.537  12.485
25503W        W97086   5.425  31.895  14.044
25504W        W97087  23.650   7.655   2.139
25505W        W97088  35.512  16.208   3.479
25506W        W97089   8.629  28.691   1.724
25507W        W97090  21.590  10.290   3.268
25508W        W97091  39.529  35.425  14.791
25509W        W97092  40.903  24.866   4.582
25510W        W97093  37.926   2.506  13.878
25511W        W97094  29.576  20.915  12.840
25512W        W97095  23.213  18.768  14.595
25513W        W97096  43.003  33.547  11.660
25514W        W97097  19.392   2.085  11.626
25515W        W97098  22.670  17.094  13.058
25516W        W97099  27.260  40.952   5.059
25517W        W97100   8.591  31.560  12.035
25518W        W97101  21.463  39.910  12.021
25519W        W97102   2.464  16.517   1.405
25520W        W97103  34.567   1.918   3.626
25521W        W97104  11.291  11.706   4.094
25522W        W97105  32.175  41.138   3.768
25523W        W97106   1.800   3.482  12.082
25524W        W97107  21.625  26.640  10.672
25525W        W97108  37.005  13.739  11.480
25526W        W97109   7.301  20.090  11.877
25527W        W97110  39.967  38.592   2.013
25528W        W97111   5.068  30.364  14.363
25529W        W97112  31.192   1.356   2.367
25530W        W97113  33.073  43.689   1.001
25531W        W97114  21.014  16.763   2.683
25532W        W97115  13.752  20.458   1.893
25533W        W97116  42.709  15.881  12.638
25534W        W97117  21.613  42.459  13.481
25535W        W97118  40.880  41.002   0.878
25536W        W97119  10.670   6.695  12.828
25537W        W97120  10.979  28.926   0.357
25538W        W97121  34.964  43.867  11.963
25539W        W97122   2.024  28.707  13.971
25540W        W97123   2.716  11.630  11.211
25541W        W97124  18.166  26.410   5.403
25542W        W97125  20.581  39.777   2.204
25543W        W97126  12.906  10.768  10.928
25544W        W97127  10.675  26.548   1.729
25545W        W97128   5.945  34.087   0.178
25546W        W97129   6.610  22.637  11.231
25547W        W97130  21.566  10.177   5.512
25548W        W97131  27.498  25.025  11.892
25549W        W97132  17.266  18.654   3.553
25550W        W97133  35.693  37.390  12.893
25551W        W97134  31.921  20.681  12.082
25552W        W97135  24.156  39.502   0.502
25553W        W97136  36.539   3.294  13.263
25554W        W97137  25.306  35.031   4.569
25555W        W97138  41.987  21.283   1.032
25556W        W97139  29.817   8.884   1.818
25557W        W97140  27.994  35.821   4.949
25558W        W97141  38.643  18.529  12.002
25559W        W97142  28.578  21.814  14.334
25560W        W97143  20.562  10.356   3.898
25561W        W97144   7.178  33.027  10.812
25562W        W97145  29.503  21.853  10.176
25563W        W97146  27.912  19.784  11.231
25564W        W97147   9.151   1.248   4.935
25565W        W97148  21.599  20.070  12.637
25566W        W97149  20.001  25.686  13.271
25567W        W97150   2.743  31.936   2.812
25568W        W97151  26.804  39.371   4.941
25569W        W97152   3.184  31.081  13.359
25570W        W97153  17.348  21.247  13.446
25571W        W97154  35.599   3.440  11.877
25572W        W97155  44.555   5.317  14.770
25573W        W97156  37.820  15.567  13.328
25574W        W97157   6.741   1.000   4.649
25575W        W97158  21.075   0.916   3.092
25576W        W97159  23.290  15.730  11.557
25577W        W97160  33.897  33.362   2.235
25578W        W97161  35.150  44.219   3.109
25579W        W97162   3.722  42.319  11.616
25580W        W97163  33.603  12.825  14.842
25581W        W97164   4.920  37.557  13.979
25582W        W97165  40.563   6.614   3.095
25583W        W97166  44.343  36.535  13.318
25584W        W97167   0.943   3.064   3.700
25585W        W97168  36.779  34.071  10.710
25586W        W97169  11.133  40.620   1.908
25587W        W97170  21.584  31.542  14.937
25588W        W97171   4.264  41.924   4.614
25589W        W97172   6.998  10.329   4.363
25590W        W97173  22.643   3.012  14.785
25591W        W97174   0.758  33.564   2.262
25592W        W97175   1.968   5.776   3.132
25593W        W97176  18.342  18.840   2.272
25594W        W97177  31.558   0.190   3.654
25595W        W97178  22.239  36.805   0.526
25596W        W97179  30.370  21.936   4.967
25597W        W97180  31.620  43.496   3.135
25598W        W97181  21.612   8.645   4.067
25599W        W97182  32.031  14.889   4.269
25600W        W97183   5.828  30.191  13.203
25601W        W97184  25.524   1.924  13.953
25602W        W97185  24.426  42.031  13.533
25603W        W97186  28.912  33.630   2.657
25604W        W97187   3.466  23.045  14.258
25605W        W97188  24.722  29.592   4.138
25606W        W97189  43.965   3.956  14.536
25607W        W97190   6.198   4.702  14.734
25608W        W97191  28.842  39.899   4.553
25609W        W97192  33.358  19.542   2.194
25610W        W97193  43.897  20.597   0.727
25611W        W97194  34.930  12.574  11.252
25612W        W97195  41.194  11.844   2.798
25613W        W97196  16.788  38.145   0.968
25614W        W97197   4.311  28.985  14.020
25615W        W97198  43.311   0.335   2.220
25616W        W97199  13.228  13.339   2.365
25617W        W97200  42.535  19.921  11.968
25618W        W97201  30.202  20.682   0.442
25619W        W97202   6.196  21.284   2.164
25620W        W97203  15.031  17.277   2.161
25621W        W97204  12.171  31.874  11.225
25622W        W97205  16.023  18.096   2.246
25623W        W97206  40.841   9.319  11.976
25624W        W97207  36.501  14.442   4.133
25625W        W97208  32.529  31.483   3.259
25626W        W97209  31.206   6.881  13.944
25627W        W97210  35.736  31.385  12.912
25628W        W97211  41.489  19.615   0.088
25629W        W97212  16.586   6.826   2.788
25630W        W97213   3.709  23.416  14.886
25631W        W97214  35.319  37.765   4.030
25632W        W97215  26.717  37.442   5.073
25633W        W97216  39.999   6.880  14.381
25634W        W97217  44.648   5.237  11.535
25635W        W97218   6.964   0.792  13.413
25636W        W97219  27.712  32.086   2.325
25637W        W97220  24.718  29.110   2.881
25638W        W97221  14.110   2.294   2.896
25639W        W97222   2.390   9.968  12.595
25640W        W97223  32.039  15.996   1.955
25641W        W97224  33.467  22.186   4.169
25642W        W97225  18.579  30.922   2.270
25643W        W97226  15.848  27.647   1.726
25644W        W97227  14.880  20.584   4.880
25645W        W97228  34.892  27.104  12.463
25646W        W97229  33.585  43.947   1.876
25647W        W97230  21.430  37.523   1.438
25648W        W97231  33.605  26.910   3.645
25649W        W97232   3.249   3.233   1.936
25650W        W97233  24.971  37.325  14.745
25651W        W97234  44.027  20.720   1.741
25652W        W97235  14.306  33.139   0.054
25653W        W97236  19.095  17.800  14.246
25654W        W97237  24.133  27.101  10.722
25655W        W97238  31.699  30.731  13.949
25656W        W97239  19.027   3.358   0.932
25657W        W97240  28.527  21.230   1.060
25658W        W97241  39.806   3.803   1.406
25659W        W97242   7.704   7.328   4.321
25660W        W97243  16.629   1.980   3.276
25661W        W97244   7.105   7.267  14.019
25662W        W97245  43.308  24.253  13.332
25663W        W97246   9.705  43.760   2.167
25664W        W97247  19.645   6.605   1.275
25665W        W97248  28.864  15.311  10.756
25666W        W97249  33.417  34.116   1.873
25667W        W97250  16.305  26.112   3.179
25668W        W97251  24.253  19.091  10.764
25669W        W97252   8.757   1.086   4.594
25670W        W97253  27.784  44.660  11.852
25671W        W97254  37.262   7.013   5.287
25672W        W97255  39.932  35.116   3.759
25673W        W97256   4.373  40.800  13.912
25674W        W97257  25.202  15.102  10.959
25675W        W97258  15.708  10.363   3.708
25676W        W97259  31.404   3.782   1.273
25677W        W97260  43.059   6.260   4.630
25678W        W97261  33.490  16.362   4.232
25679W        W97262  13.048  21.086   3.123
25680W        W97263  23.331  34.942  14.897
25681W        W97264  16.273  44.329  10.483
25682W        W97265  27.172   9.919  12.937
25683W        W97266  33.498   5.430   4.218
25684W        W97267  42.029  44.984  12.079
25685W        W97268  36.004  21.731  12.451
25686W        W97269  35.806  20.622   4.265
25687W        W97270   2.687  21.788   1.199
25688W        W97271  12.197  27.681   4.163
25689W        W97272   1.000   0.159  10.390
25690W        W97273   3.229  12.153   2.653
25691W        W97274  18.211  35.397   2.911
25692W        W97275  20.232   6.716   1.995
25693W        W97276  11.702  31.324  10.146
25694W        W97277  41.711  25.054   0.782
25695W        W97278   9.492  26.019   2.391
25696W        W97279  27.287  32.393   2.357
25697W        W97280  34.929  25.157   2.640
25698W        W97281  37.143  24.668  14.446
25699W        W97282  10.338  18.687   1.333
25700W        W97283  26.892   5.827  12.011
25701W        W97284  15.610  25.402   2.132
25702W        W97285  24.672  42.499  11.847
25703W        W97286  18.791  17.169  14.386
25704W        W97287   2.949   2.168   4.165
25705W        W97288   5.687  21.704   3.068
25706W        W97289  27.433  24.084  14.404
25707W        W97290  27.175   6.333   4.630
25708W        W97291  44.931  20.230   1.113
25709W        W97292   3.405  39.069   1.945
25710W        W97293  24.419   9.291   4.168
25711W        W97294  21.399   8.212  10.574
25712W        W97295  20.246  32.492   1.304
25713W        W97296  11.086  11.329  12.680
25714W        W97297  15.450   0.234   3.991
25715W        W97298  23.474  41.747  11.132
25716W        W97299   1.891  23.020   3.277
25717W        W97300  10.770  15.898   0.851
25718W        W97301  40.276   3.678  10.642
25719W        W97302   7.913  25.040   0.640
25720W        W97303  38.856  12.601  10.320
25721W        W97304  42.958  28.458  10.660
25722W        W97305  16.294  21.166  12.275
25723W        W97306  18.348  37.640  13.934
25724W        W97307  18.132   8.355   0.241
25725W        W97308   3.503  18.356   0.840
25726W        W97309   1.792   3.452   3.739
25727W        W97310  39.432  20.611   3.088
25728W        W97311  21.560   5.700   3.746
25729W        W97312  21.278  27.114  11.892
25730W        W97313  38.406  31.110   4.370
25731W        W97314  41.387  32.076  10.657
25732W        W97315  20.941   2.035   4.863
25733W        W97316  36.817  38.216   4.446
25734W        W97317  26.196  32.131  12.529
25735W        W97318  28.261  26.512   1.085
25736W        W97319  37.995  32.119   3.484
25737W        W97320  22.320   1.303   4.533
25738W        W97321  14.142  26.588   0.009
25739W        W97322   6.635  44.979   2.316
25740W        W97323  21.932  30.604  14.166
25741W        W97324   2.457  34.661   0.843
25742W        W97325   6.992  32.444  13.382
25743W        W97326  21.232  29.084  14.956
25744W        W97327   8.983  32.000  13.514
25745W        W97328  15.930  19.505  12.083
25746W        W97329  25.745  29.171  12.522
25747W        W97330  35.090   7.374  10.971
25748W        W97331   5.368  33.014  11.872
25749W        W97332  40.599   1.986  11.398
25750W        W97333  22.209  39.763   4.995
25751W        W97334  20.715  18.834   0.250
25752W        W97335  13.628  36.609   3.321
25753W        W97336  15.531  43.262  12.947
25754W        W97337  32.142  25.908  12.983
25755W        W97338  43.804  41.623   2.648
25756W        W97339  29.800   7.140  11.915
25757W        W97340  18.839  40.404  11.922
25758W        W97341  17.666  18.900  14.907
25759W        W97342  34.687   4.855  11.089
25760W        W97343  13.379  41.362   4.559
25761W        W97344  11.643  39.935   2.497
25762W        W97345  11.736  26.176  12.908
25763W        W97346  20.265  31.158   1.763
25764W        W97347  35.313  20.330  11.173
25765W        W97348  34.115  28.120  13.451
25766W        W97349  39.264  12.779  12.034
25767W        W97350  28.032  37.113  11.140
25768W        W97351  17.573  25.822   9.731
25769W        W97352  21.496   2.714   3.443
25770W        W97353   0.276  26.198  14.439
25771W        W97354  13.316  20.604   3.911
25772W        W97355  44.316  28.637   3.552
25773W        W97356   8.176  25.787  10.529
25774W        W97357  25.987  18.195  11.451
25775W        W97358  42.753  28.053   0.159
25776W        W97359   0.284  24.823  14.512
25777W        W97360  41.267   6.942   2.870
25778W        W97361  34.160   4.922   1.292
25779W        W97362  11.751  19.145   0.182
25780W        W97363  13.198  42.497   4.830
25781W        W97364   4.101  15.943  13.433
25782W        W97365  34.081   1.684  14.685
25783W        W97366  13.764  26.960   1.015
25784W        W97367  14.274  12.906   4.653
25785W        W97368   3.923  16.030  14.929
25786W        W97369   0.909  28.025   4.249
25787W        W97370  43.088  42.552  12.153
25788W        W97371  12.595  31.958   0.289
25789W        W97372   8.319   9.639   4.782
25790W        W97373  14.993  33.582   0.880
25791W        W97374  26.101  25.172  11.385
25792W        W97375  26.551  40.978   0.254
25793W        W97376  34.801  11.535  12.968
25794W        W97377  26.569  41.730   1.231
25795W        W97378  11.194  11.513  14.319
25796W        W97379  12.719  16.114  12.645
25797W        W97380  25.222   0.985   1.865
25798W        W97381  29.017  28.725   2.202
25799W        W97382  21.660  25.686   4.600
25800W        W97383  10.909  36.286   2.302
25801W        W97384  33.634  15.161   1.808
25802W        W97385   9.349  11.854   3.682
25803W        W97386  10.557  42.957   4.607
25804W        W97387  36.611   2.389  14.295
25805W        W97388  37.988  23.144   2.254
25806W        W97389  33.039  15.130   1.809
25807W        W97390  34.851  44.068  10.574
25808W        W97391   9.641  41.268   2.160
25809W        W97392  22.607  30.526   5.397
25810W        W97393   3.231  11.214   2.404
25811W        W97394  37.708  41.996   2.675
25812W        W97395  17.781   1.026  14.457
25813W        W97396   5.703   8.710   3.842
25814W        W97397   6.413  31.808  13.998
25815W        W97398  30.676  30.384  12.046
25816W        W97399  11.927  31.989   4.600
25817W        W97400  10.770  36.461   2.801
25818W        W97401  36.271  38.315   3.257
25819W        W97402  27.664  25.938  10.917
25820W        W97403  33.075  31.008   1.407
25821W        W97404  11.654  13.740  14.513
25822W        W97405  37.608  32.320  11.532
25823W        W97406  11.132  39.400   2.957
25824W        W97407   1.206  33.780   2.410
25825W        W97408  41.440  14.248   0.306
25826W        W97409  29.937  30.831   3.330
25827W        W97410  16.626   5.724  13.406
25828W        W97411  33.501   3.159   0.843
25829W        W97412   1.457  40.402   2.300
25830W        W97413  12.197  25.723  11.491
25831W        W97414  22.085  40.451  13.856
25832W        W97415   9.025  21.281   3.793
25833W        W97416   8.195  24.855   5.144
25834W        W97417  23.044   8.747  10.168
25835W        W97418  21.737  40.379   1.423
25836W        W97419  36.912  21.282   4.119
25837W        W97420  40.234  25.733   1.368
25838W        W97421  43.274  10.331   3.250
25839W        W97422   8.815  25.472  11.212
25840W        W97423   2.170  31.360  12.482
25841W        W97424  43.104   4.379   3.032
25842W        W97425  15.132  10.179  12.026
25843W        W97426  11.399  39.038   3.865
25844W        W97427  28.106   9.391  14.790
25845W        W97428   3.744  29.545   2.123
25846W        W97429  16.175  16.796   2.560
25847W        W97430  44.838   3.633  10.574
25848W        W97431  33.921  17.049  11.208
25849W        W97432  40.884  18.472   1.200
25850W        W97433  25.245   2.105   1.341
25851W        W97434   3.851   7.696   2.598
25852W        W97435  33.573  34.717   5.034
25853W        W97436   4.250  24.807  10.985
25854W        W97437  29.993   9.208  12.420
25855W        W97438  13.287  26.628   1.716
25856W        W97439   6.218  30.113   3.867
25857W        W97440   9.127   8.315  13.469
25858W        W97441  41.866  19.854   4.139
25859W        W97442   4.387  32.467  13.392
25860W        W97443  17.278  16.755  13.774
25861W        W97444  12.545  25.036   1.295
25862W        W97445  15.119  14.782  10.783
25863W        W97446  18.770  24.812   2.947
25864W        W97447  40.276   2.342   2.241
25865W        W97448  14.787   7.236  14.377
25866W        W97449  33.899   6.830   4.880
25867W        W97450  31.341  38.556  12.819
25868W        W97451  35.088  38.998   2.266
25869W        W97452  32.471  25.625   5.137
25870W        W97453   9.987  18.264  13.085
25871W        W97454  32.554  12.859   2.322
25872W        W97455  18.532  12.853   3.284
25873W        W97456   5.336  11.185  12.349
25874W        W97457  10.634  17.833   1.284
25875W        W97458  19.230  14.162  14.868
25876W        W97459   7.268  41.842  12.846
25877W        W97460   3.617   6.302   0.700
25878W        W97461   4.196  38.487  13.506
25879W        W97462  44.562  23.753   0.320
25880W        W97463  16.547  29.589  10.630
25881W        W97464  15.526  22.513   1.258
25882W        W97465  25.514  41.593   4.683
25883W        W97466  27.640  20.788   0.977
25884W        W97467  35.073  28.612   1.986
25885W        W97468  36.479  23.594  10.666
25886W        W97469   8.955   8.967   3.330
25887W        W97470  21.505  22.029   4.786
25888W        W97471  14.372  28.850   2.879
25889W        W97472  37.544  32.611  14.729
25890W        W97473  25.297  13.738   4.307
25891W        W97474  37.629  34.368   4.591
25892W        W97475  41.577  16.619  12.838
25893W        W97476  41.062  44.942  12.854
25894W        W97477   0.951  35.551  13.606
25895W        W97478   7.228  20.321  14.905
25896W        W97479  22.591  11.276   2.423
25897W        W97480  40.965  12.265   4.319
25898W        W97481  23.150  34.496  12.536
25899W        W97482  18.180  15.071   1.212
25900W        W97483  35.649   7.730  14.869
25901W        W97484  15.083  30.347  14.358
25902W        W97485  30.428  13.192  13.013
25903W        W97486  26.201  33.944   2.394
25904W        W97487  36.972  18.156  14.031
25905W        W97488  32.541  32.813  14.734
25906W        W97489   1.814   2.477   3.707
25907W        W97490  37.465   4.017   3.150
25908W        W97491  44.800  33.998   0.264
25909W        W97492   2.573   8.196   4.157
25910W        W97493  39.569  15.309   3.276
25911W        W97494  36.084   4.669   3.982
25912W        W97495  34.579  13.709  14.018
25913W        W97496  21.025   3.444   3.309
25914W        W97497  39.886   8.926   0.374
25915W        W97498  13.216  40.485  14.816
25916W        W97499  42.991  12.684   2.111
25917W        W97500  44.610  25.954   2.656
25918W        W97501  29.598   9.150   0.058
25919W        W97502  16.120  12.761  12.845
25920W        W97503  35.156  22.667  14.455
25921W        W97504  13.835  30.507  13.085
25922W        W97505  42.791  19.267   0.311
25923W        W97506  13.832   9.916   4.520
25924W        W97507   5.253  22.715   0.883
25925W        W97508  34.271  18.106  13.624
25926W        W97509  34.790  13.634   1.855
25927W        W97510   4.290   5.267  10.948
25928W        W97511  43.257  10.594   3.761
25929W        W97512   8.593   0.237  12.963
25930W        W97513  31.185  25.426   2.410
25931W        W97514  17.612  36.865  10.715
25932W        W97515   9.165   9.103  13.376
25933W        W97516  30.108  37.396   1.927
25934W        W97517   4.025  18.843   1.224
25935W        W97518   0.543  22.180  11.095
25936W        W97519  11.322  41.861  11.102
25937W        W97520  14.573   3.806  14.807
25938W        W97521  17.094  25.978   9.804
25939W        W97522  20.490  15.307  14.550
25940W        W97523   6.796  16.876   2.772
25941W        W97524   6.728  43.989  13.841
25942W        W97525  15.463   2.539  13.018
25943W        W97526  28.262  37.070  12.495
25944W        W97527  16.432  16.515   3.662
25945W        W97528   6.736  35.436  13.460
25946W        W97529  36.306  31.830   0.973
25947W        W97530  12.048  40.564  12.535
25948W        W97531  40.318  13.324  11.212
25949W        W97532   9.289  31.904   4.240
25950W        W97533   0.991  16.771  11.568
25951W        W97534  12.897  44.280  14.023
25952W        W97535  36.616  44.560   1.237
25953W        W97536  27.310  19.653   3.771
25954W        W97537  13.443  17.304   5.079
25955W        W97538  16.649  21.883  13.405
25956W        W97539  29.076   5.722   3.854
25957W        W97540  22.163   3.190  11.785
25958W        W97541  36.505   5.672  12.001
25959W        W97542  38.344   6.156   1.443
25960W        W97543  40.363   3.927  11.129
25961W        W97544  21.526  19.126   5.026
25962W        W97545   8.811  33.445   1.355
25963W        W97546  25.410  31.754   2.666
25964W        W97547  19.868   2.301   3.880
25965W        W97548  28.422   2.512   0.910
25966W        W97549  40.094  22.825   1.803
25967W        W97550   9.666  33.092   4.279
25968W        W97551   8.745   2.563   0.782
25969W        W97552  38.757  44.737  11.662
25970W        W97553  11.372  42.738  12.900
25971W        W97554   6.748  37.505  14.333
25972W        W97555  12.759   1.515  11.977
25973W        W97556  24.255  26.478   3.287
25974W        W97557  14.291   8.017   0.388
25975W        W97558  31.371  13.727   2.624
25976W        W97559  26.739   9.253   0.351
25977W        W97560  10.239  15.343   1.458
25978W        W97561   7.850   5.169  14.240
25979W        W97562  21.648  10.606   0.330
25980W        W97563  31.034   3.742  11.162
25981W        W97564  33.440  25.050   2.803
25982W        W97565  33.543  43.316  13.644
25983W        W97566  42.482  43.743   4.124
25984W        W97567  13.687  42.347   1.875
25985W        W97568  38.372  44.650  10.980
25986W        W97569  37.584  38.190   3.169
25987W        W97570  22.925   5.009  13.177
25988W        W97571  17.661  24.205   2.974
25989W        W97572  34.220  30.485  12.350
25990W        W97573  16.884  42.041  12.978
25991W        W97574  17.824   0.589   3.567
25992W        W97575  35.190  35.818   4.911
25993W        W97576  21.853  35.923   1.278
25994W        W97577  18.800  40.817   4.168
25995W        W97578  38.434  19.199  10.521
25996W        W97579  28.194  10.642  13.603
25997W        W97580  28.683  23.254  12.242
25998W        W97581  14.287   6.233  12.055
25999W        W97582  40.086  23.738   1.787
26000W        W97583  20.056  29.483  14.349
26001W        W97584  44.337  13.323  13.123
26002W        W97585  15.814  17.098   4.201
26003W        W97586   0.292  40.426   3.350
26004W        W97587   6.313  29.637   4.045
26005W        W97588  42.784  28.702  11.071
26006W        W97589  21.072  40.988  13.991
26007W        W97590   0.583   3.460  13.940
26008W        W97591  11.427  37.656  12.456
26009W        W97592  16.534  44.844   4.359
26010W        W97593  19.153  24.571  13.793
26011W        W97594  11.789  24.302   4.120
26012W        W97595  41.045  38.217   1.400
26013W        W97596  32.916  41.064  12.003
26014W        W97597  20.172  30.864   9.915
26015W        W97598  40.922   4.720   1.382
26016W        W97599   7.703  15.354  12.094
26017W        W97600  24.884   3.714  11.583
26018W        W97601   4.876  21.220  12.106
26019W        W97602  24.723  23.720   4.703
26020W        W97603  26.519  34.142   1.173
26021W        W97604  29.666  26.779   2.601
26022W        W97605  22.517  15.548  10.474
26023W        W97606  14.388  37.083   2.079
26024W        W97607   2.271   7.343  11.207
26025W        W97608  33.013  35.047   1.048
26026W        W97609  18.158   1.725   2.713
26027W        W97610   4.446  26.631   2.322
26028W        W97611  19.070  41.816   0.267
26029W        W97612   5.408  19.511  10.556
26030W        W97613   1.665  42.971  11.533
26031W        W97614  43.990  10.816   0.744
26032W        W97615  36.855   3.965   0.886
26033W        W97616  21.034   8.327   3.052
26034W        W97617  13.690  31.062   1.145
26035W        W97618  23.218  19.566  13.359
26036W        W97619  18.154  40.936  12.098
26037W        W97620  27.121  10.202   4.573
26038W        W97621  35.043  27.966  13.041
26039W        W97622  31.860  16.818   3.510
26040W        W97623   2.864  24.246   2.420
26041W        W97624  37.774   8.009  12.385
26042W        W97625   5.407  15.365   2.690
26043W        W97626  36.023  36.800  11.564
26044W        W97627  10.752  30.095   3.773
26045W        W97628   2.486  20.046   1.724
26046W        W97629   9.208  37.826  12.419
26047W        W97630  10.156  42.987   0.937
26048W        W97631  19.934   1.665  12.399
26049W        W97632  33.687  35.696   4.138
26050W        W97633  35.314  31.402   2.808
26051W        W97634  15.203  30.713   3.227
26052W        W97635  24.057  26.733  12.189
26053W        W97636  33.924  21.970   4.335
26054W        W97637  31.562  39.973  10.870
26055W        W97638   4.703  25.198  10.777
26056W        W97639  30.376  36.570  12.118
26057W        W97640   4.266   2.267   3.759
26058W        W97641  29.680  33.899   3.918
26059W        W97642  18.646  22.654  13.001
26060W        W97643   2.837   5.715  11.006
26061W        W97644  36.933  12.239  12.204
26062W        W97645  13.067  42.296   2.438
26063W        W97646  28.576  33.951   1.807
26064W        W97647  40.824  27.129   1.750
26065W        W97648   1.981  18.762   3.682
26066W        W97649  44.580  39.124  14.069
26067W        W97650   5.996  37.619  11.500
26068W        W97651  41.851  30.662  13.435
26069W        W97652  12.525  43.375   0.265
26070W        W97653   7.873  33.206  12.799
26071W        W97654   7.822  21.993   2.644
26072W        W97655  29.483   3.966   4.709
26073W        W97656  18.022  10.229  11.428
26074W        W97657   9.592  16.417   1.570
26075W        W97658  42.053  31.002   0.429
26076W        W97659  32.023  39.891  11.195
26077W        W97660  38.538   6.808  10.620
26078W        W97661  20.480  31.366  10.690
26079W        W97662  14.636   4.575   9.765
26080W        W97663  29.549  26.209  10.980
26081W        W97664  38.057  36.925   3.587
26082W        W97665  25.900   5.925  13.508
26083W        W97666  10.945   3.597  10.128
26084W        W97667   8.358   4.050  10.749
26085W        W97668  22.107  36.473  14.110
26086W        W97669  24.659  19.969   1.049
26087W        W97670  32.705  18.348   2.873
26088W        W97671  36.360  38.062  14.529
26089W        W97672  20.753  33.512   3.624
26090W        W97673  41.153   0.218   2.113
26091W        W97674  38.028  29.074  10.833
26092W        W97675  38.502  19.718  11.568
26093W        W97676  29.191   5.004   3.273
26094W        W97677  29.539   5.253   1.369
26095W        W97678  10.593  25.448   3.880
26096W        W97679  27.104  39.603   0.051
26097W        W97680  10.799   1.331   4.565
26098W        W97681  24.902   4.542   1.720
26099W        W97682  43.922  18.312   0.807
26100W        W97683  33.931  18.200  13.239
26101W        W97684  18.393  35.863  11.081
26102W        W97685   1.628   0.909   2.891
26103W        W97686  30.114  39.743   2.600
26104W        W97687   2.979   6.134  13.402
26105W        W97688   8.588  24.998  12.302
26106W        W97689  44.478  16.671  11.158
26107W        W97690  33.415  42.967   4.359
26108W        W97691  11.730  27.267  12.024
26109W        W97692  23.167  38.119   2.748
26110W        W97693  30.727   1.705   1.765
26111W        W97694  39.989  29.773   2.694
26112W        W97695  41.397  28.093   4.310
26113W        W97696  35.814   0.693  12.055
26114W        W97697  31.348  27.253  14.964
26115W        W97698   6.606   0.398   4.140
26116W        W97699  41.527  43.943  14.220
26117W        W97700  37.992  27.118   1.494
26118W        W97701  16.330  10.000  12.846
26119W        W97702  38.066   4.785  10.501
26120W        W97703  27.364  43.016  12.923
26121W        W97704  33.918  28.102   0.858
26122W        W97705  12.349   9.092   3.869
26123W        W97706  18.601  10.610   0.415
26124W        W97707  31.943  24.354  12.039
26125W        W97708  44.085   1.627   2.671
26126W        W97709  34.990  36.319   2.389
26127W        W97710  16.044  30.056   2.750
26128W        W97711  27.065  37.527   3.876
26129W        W97712   3.200  26.618  13.841
26130W        W97713  37.871  39.798  12.393
26131W        W97714  14.555  41.982   2.840
26132W        W97715  10.394  23.504   4.484
26133W        W97716   1.353  16.248   0.371
26134W        W97717  41.654   6.005   3.734
26135W        W97718  41.792  27.383  14.339
26136W        W97719  18.719   4.690  12.484
26137W        W97720   1.386  19.693  13.743
26138W        W97721   3.940  29.021  10.130
26139W        W97722   8.547   8.137  12.823
26140W        W97723  32.900   8.358  12.352
26141W        W97724   3.001  10.741   2.300
26142W        W97725  15.542  44.158   4.185
26143W        W97726  30.651  13.115  11.108
26144W        W97727  23.006  25.121   0.911
26145W        W97728  37.980  24.099   3.150
26146W        W97729  20.474  27.482  10.109
26147W        W97730  44.988  18.127  14.943
26148W        W97731  27.509  11.041   4.995
26149W        W97732  42.738  22.089  10.776
26150W        W97733  10.387  39.804  14.882
26151W        W97734  41.605  13.915  11.422
26152W        W97735  33.807  35.614  11.836
26153W        W97736  27.162  44.589   2.783
26154W        W97737  42.914  41.994   3.502
26155W        W97738  22.970  32.096  12.405
26156W        W97739  33.392  19.929  12.663
26157W        W97740  24.166  12.799   2.745
26158W        W97741  28.111  23.114   2.120
26159W        W97742   9.592   1.465  14.370
26160W        W97743  36.421  24.390   4.150
26161W        W97744   6.677  41.297   2.130
26162W        W97745  25.395  27.093   0.413
26163W        W97746  25.953  10.632   1.439
26164W        W97747  18.336  20.155   3.227
26165W        W97748  34.341  40.055   4.621
26166W        W97749  40.888  38.879  12.391
26167W        W97750  43.793  22.734  11.064
26168W        W97751  24.943  12.540   2.343
26169W        W97752  15.568   7.175  12.010
26170W        W97753  35.275  31.467   1.244
26171W        W97754  14.750   7.145   0.315
26172W        W97755  11.865  26.757  12.893
26173W        W97756  42.960  25.620   1.262
26174W        W97757  23.623  43.275  10.761
26175W        W97758  31.628  23.100   5.655
26176W        W97759  20.574  44.392  10.090
26177W        W97760   2.008   2.125   2.328
26178W        W97761  19.428  42.165   2.766
26179W        W97762  14.583  43.364   2.131
26180W        W97763   1.511  36.588  12.796
26181W        W97764  38.070  29.147  11.333
26182W        W97765   2.787  23.469  14.420
26183W        W97766   9.927  20.278   4.015
26184W        W97767  44.986  44.887  14.431
26185W        W97768  17.601  14.794  11.659
26186W        W97769  36.853  40.460  12.146
26187W        W97770  43.875  16.499  13.085
26188W        W97771  26.791  21.630   3.267
26189W        W97772  16.357   0.409   1.809
26190W        W97773  20.739   1.460  14.873
26191W        W97774   7.780  11.512   2.178
26192W        W97775  17.795  37.591   4.223
26193W        W97776   9.775  12.105   1.863
26194W        W97777  10.080  28.096  12.829
26195W        W97778  30.939  19.325   0.594
26196W        W97779  13.245   0.705  12.133
26197W        W97780  32.392  31.123   0.748
26198W        W97781  35.491  23.950   0.788
26199W        W97782  20.798  36.318   0.283
26200W        W97783  37.494  33.384  10.694
26201W        W97784   4.698   5.621   3.387
26202W        W97785  10.666  44.708   1.370
26203W        W97786  29.635  41.466  12.970
26204W        W97787  21.159  14.593   1.843
26205W        W97788  13.538  13.787   2.342
26206W        W97789   0.120   3.789  13.572
26207W        W97790   4.308  24.540  13.310
26208W        W97791  27.193  36.480  13.727
26209W        W97792  17.757  44.927  10.953
26210W        W97793  39.752  31.678  11.637
26211W        W97794  31.262  29.079   1.347
26212W        W97795  33.888  43.958  11.482
26213W        W97796  44.839  12.935   1.208
26214W        W97797  21.328   3.337   2.283
26215W        W97798  34.098   0.689  13.688
26216W        W97799  33.351  18.475   2.612
26217W        W97800  27.028   0.489  12.247
26218W        W97801  20.007  13.833  11.088
26219W        W97802  37.798  42.298   1.044
26220W        W97803  41.923   6.345   1.681
26221W        W97804   5.226  34.045   1.391
26222W        W97805  10.270  21.054  11.261
26223W        W97806   9.350  37.970   4.726
26224W        W97807  19.218   7.123   4.580
26225W        W97808  25.984  23.009   1.059
26226W        W97809  40.299  11.856  12.111
26227W        W97810  37.783  34.325  11.188
26228W        W97811   1.468  17.701   2.346
26229W        W97812  32.080  25.388   2.258
26230W        W97813  42.977  43.427   3.640
26231W        W97814  22.031   4.864   0.410
26232W        W97815  10.798  18.870  14.823
26233W        W97816  25.001  41.450   1.255
26234W        W97817  32.681   1.347   1.398
26235W        W97818  14.851  14.293  10.897
26236W        W97819  15.076   0.921  10.645
26237W        W97820  25.614  25.762   4.631
26238W        W97821  39.305  24.089   0.380
26239W        W97822  21.351  17.300  13.355
26240W        W97823  14.636  18.579  13.425
26241W        W97824  26.487  30.117   0.249
26242W        W97825   8.614  16.106  14.369
26243W        W97826  15.338  21.714   2.569
26244W        W97827   2.829   7.708  14.047
26245W        W97828  17.849   1.142  11.028
26246W        W97829  24.539  28.836  10.951
26247W        W97830  30.373  27.117  11.054
26248W        W97831  34.470  20.153   1.997
26249W        W97832  26.813  38.575  14.722
26250W        W97833  37.735  19.764  11.077
26251W        W97834  41.287  44.255  11.120
26252W        W97835  40.439  44.218  12.052
26253W        W97836  13.852  32.528   0.305
26254W        W97837  38.449  14.147   0.063
26255W        W97838  10.425  13.887   4.149
26256W        W97839  18.513  30.865  12.502
26257W        W97840  14.162  31.470   4.119
26258W        W97841  31.889  22.975   2.174
26259W        W97842  12.526  31.416  12.562
26260W        W97843  38.910   2.859   3.299
26261W        W97844   3.878  30.063  11.722
26262W        W97845  13.211   5.765  12.500
26263W        W97846   6.692  16.420   3.546
26264W        W97847   8.416  18.825  11.569
26265W        W97848  10.546   0.300  14.439
26266W        W97849   7.854  35.981   4.270
26267W        W97850  12.075  27.683  12.743
26268W        W97851  41.414  41.075   1.865
26269W        W97852  23.114  18.682  13.414
26270W        W97853   8.812  27.715   2.834
26271W        W97854  13.387   1.342   1.265
26272W        W97855  44.434  39.628  13.798
26273W        W97856  27.575  41.249  11.141
26274W        W97857  26.758   9.052   5.459
26275W        W97858  36.923  36.133  14.775
26276W        W97859   3.022  17.574   1.277
26277W        W97860  20.300  38.075  13.369
26278W        W97861   8.230   2.211  12.599
26279W        W97862   4.353  14.299  10.645
26280W        W97863  29.983  15.358   3.745
26281W        W97864   3.458  17.824   3.142
26282W        W97865  29.933  43.818   1.142
26283W        W97866  14.105  41.552  11.948
26284W        W97867  22.071  27.455  13.424
26285W        W97868   5.340  33.865  10.364
26286W        W97869   7.142  32.897  11.296
26287W        W97870  36.759  39.023  14.646
26288W        W97871  17.286  35.057   2.359
26289W        W97872   3.949  33.814   1.989
26290W        W97873  42.820   5.147   5.095
26291W        W97874  36.824  28.948  11.452
26292W        W97875   8.617  21.740  14.469
26293W        W97876  17.626  19.536   4.558
26294W        W97877  22.096  22.946   4.080
26295W        W97878  14.753  39.935   2.131
26296W        W97879  12.368   4.855  12.110
26297W        W97880  44.018  26.031  14.961
26298W        W97881  26.106   6.213  14.880
26299W        W97882  20.350  23.687   4.039
26300W        W97883   9.736  44.840   3.728
26301W        W97884  20.295  16.206   0.470
26302W        W97885   3.031  42.754   4.176
26303W        W97886   0.316  28.953   2.634
26304W        W97887   9.826  28.323   0.477
26305W        W97888   5.377  44.772   3.400
26306W        W97889  17.200   3.988  14.658
26307W        W97890  17.391  41.857  14.796
26308W        W97891  11.097   8.735   2.768
26309W        W97892   8.645   2.557  11.036
26310W        W97893  43.427  27.381  11.691
26311W        W97894  34.357  38.187   0.617
26312W        W97895   5.847  18.994  14.637
26313W        W97896  39.386  41.536   0.171
26314W        W97897   1.534  40.326  12.572
26315W        W97898  41.609  23.011  11.818
26316W        W97899   4.239  35.978   3.562
26317W        W97900  26.212  33.868  11.906
26318W        W97901  35.697  43.326   1.247
26319W        W97902  11.136  32.011   1.431
26320W        W97903  30.161  19.753  13.090
26321W        W97904   1.347  31.068   4.851
26322W        W97905  20.948   3.015  13.580
26323W        W97906  39.111  34.531   4.827
26324W        W97907  31.097  16.064  13.855
26325W        W97908   1.443  22.536  14.452
26326W        W97909   2.220  33.578  12.947
26327W        W97910   4.726  26.428   0.386
26328W        W97911  21.831  12.255   0.410
26329W        W97912   0.006  19.767  13.305
26330W        W97913   2.746  33.456   3.221
26331W        W97914  21.168  28.885  12.002
26332W        W97915  40.243  22.792   4.679
26333W        W97916  43.079   4.724   0.849
26334W        W97917   4.502  29.738  10.855
26335W        W97918  36.834  34.969   1.189
26336W        W97919  33.886  29.290   1.992
26337W        W97920  23.255  29.445  11.157
26338W        W97921  14.334  27.070   2.207
26339W        W97922  44.352   8.519  14.526
26340W        W97923   0.278   5.944  14.426
26341W        W97924  17.047   7.029   2.683
26342W        W97925  32.292  28.868   1.403
26343W        W97926  32.471  19.624   2.472
26344W        W97927  33.696   4.738   1.655
26345W        W97928  40.474  29.565   3.928
26346W        W97929  33.913  17.343  12.146
26347W        W97930  15.209  38.796   0.861
26348W        W97931  32.069   4.361  12.370
26349W        W97932   7.932  37.631  10.375
26350W        W97933  12.630  13.962  13.395
26351W        W97934  43.900  40.537   0.406
26352W        W97935  14.109  34.444   0.783
26353W        W97936  22.544  11.178  13.681
26354W        W97937  25.210   7.230  10.970
26355W        W97938   1.308  24.758   2.342
26356W        W97939  41.468  10.859  13.389
26357W        W97940  13.099  29.766   2.319
26358W        W97941  25.379  31.511  10.377
26359W        W97942  25.137  20.380  13.846
26360W        W97943  16.640  41.541  11.694
26361W        W97944  42.156  30.992   3.000
26362W        W97945  29.432  13.887  10.640
26363W        W97946  23.931  20.166   1.345
26364W        W97947  19.552  34.933  14.900
26365W        W97948   9.365  29.649   2.552
26366W        W97949   3.468  32.867   4.477
26367W        W97950  26.442  37.971   0.983
26368W        W97951   5.799  42.251  12.022
26369W        W97952   6.399  42.797   4.737
26370W        W97953  18.241  31.071   0.871
26371W        W97954   1.516  16.258  10.880
26372W        W97955  11.641  21.060   4.077
26373W        W97956  42.767   7.838  13.052
26374W        W97957   1.659  15.825   0.499
26375W        W97958   1.988  33.183   2.823
26376W        W97959   6.844  12.850   4.301
26377W        W97960  42.796  34.411   1.730
26378W        W97961  19.075  11.155   2.982
26379W        W97962  44.330  31.116  14.348
26380W        W97963  24.182  44.018  10.753
26381W        W97964  30.084  37.462   5.038
26382W        W97965   6.460  35.722  10.319
26383W        W97966  40.596  32.479   2.749
26384W        W97967   9.807   9.785   4.547
26385W        W97968  39.420   5.381   0.022
26386W        W97969  22.647  16.335   4.122
26387W        W97970  26.493   5.948  12.383
26388W        W97971  16.634  39.243   0.259
26389W        W97972  26.319   8.492  10.290
26390W        W97973   5.567   8.844  12.262
26391W        W97974  14.563  17.367   0.373
26392W        W97975   0.544  19.516   0.499
26393W        W97976  25.718  36.002   3.667
26394W        W97977  29.164  15.303   0.379
26395W        W97978  23.928  13.737   1.527
26396W        W97979  11.627  36.221   1.683
26397W        W97980  33.598  16.313  11.822
26398W        W97981  43.330  32.174  10.757
26399W        W97982  17.829  10.303  11.888
26400W        W97983  33.052  28.145  14.002
26401W        W97984  33.443  35.291   0.432
26402W        W97985  40.385  29.995  12.837
26403W        W97986  32.699  13.670   0.291
26404W        W97987  28.312  44.885   2.566
26405W        W97988  26.187  15.996   2.847
26406W        W97989  26.492  33.951  11.461
26407W        W97990  19.271  20.107  11.498
26408W        W97991   0.440  32.185   4.589
26409W        W97992  26.235  10.265  11.200
26410W        W97993  41.317   3.271  14.393
26411W        W97994  32.392  17.710  12.073
26412W        W97995   8.579  41.298   0.385
26413W        W97996  19.735  18.704   3.704
26414W        W97997  35.435  27.962  14.286
26415W        W97998  15.805  16.903   1.492
26416W        W97999  33.004  17.716   4.806
26417W        W98000  15.586  26.442  12.004
26418W        W98001  38.085  37.925  11.606
26419W        W98002  29.656  35.109   4.610
26420W        W98003  13.844  15.499   0.057
26421W        W98004  15.200  36.418   2.310
26422W        W98005  13.010  32.684  10.601
26423W        W98006  15.791  10.251  14.052
26424W        W98007  12.785  15.159  11.668
26425W        W98008  36.322   3.449  11.397
26426W        W98009  22.188  23.496   3.218
26427W        W98010  21.757   4.990  10.968
26428W        W98011  27.973  42.983   2.587
26429W        W98012  35.666  31.103  14.072
26430W        W98013  33.524   5.299   1.810
26431W        W98014  43.878  37.729  14.969
26432W        W98015  44.952  22.840   0.094
26433W        W98016  40.915  37.515  13.526
26434W        W98017   8.822  25.450   4.365
26435W        W98018  37.260   2.910  11.705
26436W        W98019   9.634  37.537   4.581
26437W        W98020  35.415  31.331   0.757
26438W        W98021  20.141  27.153  14.993
26439W        W98022  14.029  37.164  10.156
26440W        W98023  15.210  33.003  13.989
26441W        W98024  16.811  15.435   0.216
26442W        W98025  34.894  28.685   4.172
26443W        W98026  30.741   6.645   1.393
26444W        W98027   3.708  21.174   2.230
26445W        W98028  12.835   5.027   1.489
26446W        W98029  26.593  25.461   4.333
26447W        W98030  13.598  14.891  11.161
26448W        W98031  21.621  21.550   4.586
26449W        W98032   3.437  37.449  14.642
26450W        W98033   8.341   7.958   4.854
26451W        W98034  25.730  26.113   2.222
26452W        W98035  31.143  30.116   1.909
26453W        W98036   1.199  24.857   3.627
26454W        W98037  35.012  11.310   1.129
26455W        W98038   5.600  24.069   4.160
26456W        W98039  26.754  41.153   4.151
26457W        W98040  28.093  18.742   4.287
26458W        W98041  12.115  42.258   0.153
26459W        W98042   2.471  38.019  11.583
26460W        W98043  41.811  24.557  10.801
26461W        W98044   3.184  17.117  11.610
26462W        W98045  31.963  19.564   2.498
26463W        W98046  34.572   7.195  13.409
26464W        W98047  15.135  34.694   0.716
26465W        W98048  24.594  21.952   0.801
26466W        W98049  28.532  20.744  12.616
26467W        W98050   3.251   1.888  13.384
26468W        W98051   0.200  23.635   2.895
26469W        W98052   9.776  10.675   4.861
26470W        W98053  44.021  11.566   1.493
26471W        W98054   6.909  20.135  13.052
26472W        W98055  35.264  36.321   5.070
26473W        W98056  37.814   1.880   1.536
26474W        W98057  30.671  34.142  14.905
26475W        W98058  27.003  25.493  14.333
26476W        W98059  24.439  13.787  13.799
26477W        W98060   4.623   1.649   4.141
26478W        W98061  14.237  24.545   4.919
26479W        W98062   4.330  17.640  13.808
26480W        W98063  12.253  32.570   0.851
26481W        W98064  14.960  23.921  13.032
26482W        W98065  25.107  29.525   3.596
26483W        W98066  40.518  27.458  14.658
26484W        W98067   7.366  27.128  12.801
26485W        W98068   9.899  27.115  12.554
26486W        W98069   0.710  17.645  10.703
26487W        W98070  26.500  42.827   0.537
26488W        W98071   4.167   8.428   1.378
26489W        W98072   8.602  30.951  12.472
26490W        W98073  25.590  12.706  14.442
26491W        W98074  17.896  36.018  13.458
26492W        W98075  18.788  40.520   3.755
26493W        W98076  21.772   4.389  12.842
26494W        W98077  24.029   1.214   3.267
26495W        W98078   1.544   8.364   2.650
26496W        W98079  13.193  34.194  12.100
26497W        W98080  16.582  33.505   4.122
26498W        W98081   3.467  41.056  10.744
26499W        W98082  30.692  28.928  12.491
26500W        W98083   1.160   2.417  12.774
26501W        W98084   3.772   0.044  11.959
26502W        W98085  43.022  25.868   1.734
26503W        W98086   8.860  21.131  12.803
26504W        W98087  29.563  32.503   1.273
26505W        W98088  29.352  14.802  13.758
26506W        W98089  33.793  17.467  14.755
26507W        W98090  22.768  42.206  11.138
26508W        W98091   6.205  17.246  11.515
26509W        W98092  13.831   4.697   4.476
26510W        W98093  27.790  19.063  13.717
26511W        W98094   9.698   5.845   3.290
26512W        W98095   9.985  29.845   0.333
26513W        W98096  32.221  37.479   1.086
26514W        W98097  31.544  19.526  14.931
26515W        W98098   5.982   3.265  10.686
26516W        W98099   2.443   7.637  13.702
26517W        W98100  27.636  31.798   4.188
26518W        W98101  37.110  44.391  12.051
26519W        W98102   5.841  37.139  12.907
26520W        W98103  37.967  19.796   4.228
26521W        W98104  12.591  42.462  11.515
26522W        W98105   0.835  33.899   4.834
26523W        W98106  40.441  19.772  12.952
26524W        W98107  12.694  12.396   1.815
26525W        W98108  13.205  26.677  12.376
26526W        W98109  38.536   3.784  11.924
26527W        W98110  25.507   2.148   3.795
26528W        W98111  15.815  28.146   0.971
26529W        W98112  19.513  21.395  11.110
26530W        W98113   8.970  29.057  10.661
26531W        W98114   0.389  26.882   0.913
26532W        W98115   7.514  44.912   0.350
26533W        W98116  29.910  40.311  12.030
26534W        W98117  30.199  36.411  12.604
26535W        W98118  37.039  24.141   2.645
26536W        W98119  35.025  32.843  12.494
26537W        W98120  16.412   3.536  13.183
26538W        W98121  12.282  40.746   2.827
26539W        W98122  25.486  27.898  14.460
26540W        W98123  20.762   2.049   2.378
26541W        W98124  23.518  17.507  13.946
26542W        W98125   4.286  38.798   3.177
26543W        W98126  27.198  41.829   2.860
26544W        W98127  21.614  19.506   0.793
26545W        W98128   5.675  44.593  11.239
26546W        W98129  19.621  39.640  12.867
26547W        W98130  23.979   0.423   1.024
26548W        W98131  11.347  44.285  10.739
26549W        W98132  28.426  30.191  14.107
26550W        W98133  18.719  30.430   2.334
26551W        W98134  35.408  41.227   1.921
26552W        W98135  10.158  32.272  12.405
26553W        W98136  29.268   4.143  11.606
26554W        W98137   9.779  30.803   4.675
26555W        W98138   5.181  34.365   3.669
26556W        W98139  18.168  37.886   2.306
26557W        W98140  32.699   4.434  10.431
26558W        W98141  38.843  15.564  12.635
26559W        W98142   4.803  14.312  12.890
26560W        W98143  19.577  24.071   4.120
26561W        W98144  19.126  22.657   1.890
26562W        W98145  44.829   9.274   2.281
26563W        W98146  42.383  39.209   2.367
26564W        W98147  38.836  25.562   3.283
26565W        W98148  16.618  13.850  13.394
26566W        W98149  33.541  24.149   1.224
26567W        W98150  40.431  29.759   4.948
26568W        W98151  38.300  15.392  14.933
26569W        W98152  36.111  23.458  14.338
26570W        W98153  11.117  25.595  14.467
26571W        W98154  29.139  24.496   4.591
26572W        W98155  42.359  20.267   1.733
26573W        W98156  25.914  35.961   4.141
26574W        W98157   9.618  43.883   1.115
26575W        W98158   8.750   1.971  11.502
26576W        W98159  32.352  13.326   3.257
26577W        W98160  22.006  25.330   2.793
26578W        W98161   1.506  20.093  14.460
26579W        W98162   7.644  14.754   4.420
26580W        W98163  14.766  22.177  11.175
26581W        W98164  16.607  32.894   1.696
26582W        W98165   5.877  18.822  12.494
26583W        W98166   4.788  31.113  11.597
26584W        W98167  36.599  14.135   4.523
26585W        W98168  36.334  30.530   4.872
26586W        W98169   5.283  14.938   2.401
26587W        W98170  13.227  32.051   1.767
26588W        W98171  25.974  28.106  14.263
26589W        W98172   6.866  16.207  12.641
26590W        W98173  19.291  44.060  12.528
26591W        W98174  19.335  19.426  12.874
26592W        W98175  10.954  43.627  11.974
26593W        W98176  42.971  20.104  12.220
26594W        W98177  23.701  11.204   3.167
26595W        W98178  10.238  29.167  14.231
26596W        W98179  11.087  12.946  11.163
26597W        W98180  26.524  15.978  13.488
26598W        W98181  36.486  23.260  12.889
26599W        W98182  25.730  19.505  12.400
26600W        W98183  10.315   6.167   1.172
26601W        W98184  38.031  33.298  14.332
26602W        W98185  26.688  35.617  14.575
26603W        W98186  37.800  22.946   3.699
26604W        W98187  41.961   5.715   1.340
26605W        W98188  10.813  12.060   1.269
26606W        W98189  21.173  16.199  11.854
26607W        W98190   5.443  31.685   4.752
26608W        W98191   3.964   4.949   0.733
26609W        W98192   2.646  32.236   1.894
26610W        W98193  44.433  10.390   1.357
26611W        W98194  37.265  22.419   5.132
26612W        W98195  28.761  27.501   4.065
26613W        W98196   8.290  16.516  10.634
26614W        W98197  42.420  26.984   1.852
26615W        W98198  14.093  43.307   4.133
26616W        W98199   8.368  43.908   3.723
26617W        W98200  19.813  37.095  12.412
26618W        W98201  41.702   4.860  11.110
26619W        W98202  39.369   2.332  12.490
26620W        W98203   1.398   8.570   0.453
26621W        W98204  23.180  29.092   2.892
26622W        W98205  29.436  10.546  13.909
26623W        W98206  22.229   0.067   2.114
26624W        W98207  33.404   4.174  11.250
26625W        W98208  31.846   7.158  12.141
26626W        W98209  38.117  12.731  10.480
26627W        W98210  13.052  42.400  11.833
26628W        W98211  37.467  29.943   3.648
26629W        W98212  13.428   7.675   0.403
26630W        W98213  33.068  24.269   1.434
26631W        W98214   6.702  42.535  10.525
26632W        W98215  33.468   5.690  11.606
26633W        W98216  26.414  29.568  12.030
26634W        W98217  30.509  25.661  14.675
26635W        W98218  32.042  23.643   3.729
26636W        W98219  35.556  10.729   2.235
26637W        W98220   0.384   1.491   2.405
26638W        W98221  26.446   3.231  14.038
26639W        W98222  40.436   9.337  13.599
26640W        W98223  17.758   6.801  14.516
26641W        W98224  23.206   1.442   2.809
26642W        W98225   0.438  40.592  10.781
26643W        W98226  29.690  43.374  12.588
26644W        W98227  41.237  28.959  11.477
26645W        W98228  13.266   5.272   3.158
26646W        W98229  39.995  28.014   4.638
26647W        W98230   9.123  28.570   3.577
26648W        W98231  16.685  12.690  14.600
26649W        W98232  24.119  22.227   0.657
26650W        W98233   9.177  18.112   2.666
26651W        W98234  15.654  31.119   0.474
26652W        W98235   9.219  37.794   0.936
26653W        W98236  42.566  15.732  10.765
26654W        W98237  30.229  33.880  12.023
26655W        W98238  42.692  10.686   1.997
26656W        W98239  24.983  16.250  13.415
26657W        W98240   9.735  25.189   1.049
26658W        W98241  22.125  33.396   0.284
26659W        W98242  13.694  16.626   1.702
26660W        W98243   3.832   5.223   3.920
26661W        W98244   3.659   5.387   2.395
26662W        W98245  28.707  32.841   0.846
26663W        W98246  18.128   9.165  10.517
26664W        W98247  23.355   9.542  12.157
26665W        W98248  24.191  12.230   4.312
26666W        W98249  24.470  36.611  12.092
26667W        W98250  19.201   3.927   3.716
26668W        W98251  15.816   1.332  10.370
26669W        W98252  20.552  44.757  13.055
26670W        W98253  10.078  25.790  13.493
26671W        W98254  40.241  15.461  13.664
26672W        W98255  10.358  37.569  11.973
26673W        W98256  29.517   5.541   2.659
26674W        W98257  31.155  37.842  14.907
26675W        W98258   8.305  28.207  12.105
26676W        W98259  33.459  36.821  14.774
26677W        W98260  14.341  35.528  11.553
26678W        W98261  21.604  30.124   4.913
26679W        W98262  28.906  18.469  14.836
26680W        W98263  37.119  35.788   4.504
26681W        W98264   1.159  19.544   3.207
26682W        W98265  30.788  27.764   3.597
26683W        W98266   5.682  43.002  13.852
26684W        W98267   4.922  25.307   9.927
26685W        W98268  29.230  32.695   3.501
26686W        W98269  40.911  43.716   3.418
26687W        W98270   7.312  20.822   3.244
26688W        W98271  39.073  42.134   2.444
26689W        W98272  18.210  17.333   0.113
26690W        W98273  30.927  15.674  11.733
26691W        W98274  32.258   8.308   0.365
26692W        W98275   0.060   4.255  14.346
26693W        W98276  24.603   5.251  11.888
26694W        W98277  29.900  35.467  12.466
26695W        W98278  12.580  28.734  13.039
26696W        W98279  29.000  34.644  13.878
26697W        W98280   8.832  44.546   4.168
26698W        W98281  14.219  40.456  13.353
26699W        W98282  40.077  16.572  11.646
26700W        W98283  18.612  34.486   4.188
26701W        W98284  41.159  44.948   2.875
26702W        W98285  30.761  42.857   1.677
26703W        W98286  37.402  20.071   2.342
26704W        W98287  42.856  41.439  13.738
26705W        W98288  35.434   2.453   4.620
26706W        W98289  40.623  34.942   4.835
26707W        W98290  43.912  10.133  12.441
26708W        W98291  13.882  15.342  10.941
26709W        W98292  28.451   3.857  14.025
26710W        W98293  20.822  20.016   9.899
26711W        W98294   3.817  24.331  13.492
26712W        W98295  25.177  26.076   4.837
26713W        W98296  21.017  18.469   1.915
26714W        W98297  24.188  22.312   0.151
26715W        W98298   3.358  24.281   5.233
26716W        W98299  27.077  39.098  14.103
26717W        W98300   1.695   6.427  10.399
26718W        W98301  16.903  34.425  13.989
26719W        W98302  10.415  10.666  12.001
26720W        W98303   2.436  11.723   1.327
26721W        W98304  43.786   9.703   1.341
26722W        W98305   2.470  37.575   4.215
26723W        W98306   2.012  26.139   2.349
26724W        W98307  12.901  16.191   0.412
26725W        W98308  21.162  39.397   0.841
26726W        W98309   3.486  38.845  11.067
26727W        W98310  36.996  17.747  14.567
26728W        W98311   4.198  26.800  13.744
26729W        W98312  28.351  21.406  10.989
26730W        W98313  42.259  30.090  13.658
26731W        W98314   0.702   2.841   3.280
26732W        W98315  16.283   0.258   1.295
26733W        W98316  21.026  32.157  14.460
26734W        W98317   2.227  23.018   2.464
26735W        W98318  39.594  22.299   1.625
26736W        W98319   4.278  14.222   0.856
26737W        W98320  19.443  32.463  10.991
26738W        W98321  42.744   4.908  11.258
26739W        W98322  41.358  18.573   0.989
26740W        W98323  33.817  14.780  12.898
26741W        W98324  24.185   5.326  13.041
26742W        W98325  28.361  22.992  11.494
26743W        W98326  33.943  44.115  12.813
26744W        W98327  28.952  12.102  12.885
26745W        W98328  34.709   8.513   1.853
26746W        W98329  18.485   9.672   4.528
26747W        W98330  36.815  21.033   2.278
26748W        W98331  29.521  17.700  12.791
26749W        W98332  17.700   4.843   4.173
26750W        W98333   3.214  16.072   2.158
26751W        W98334   9.988  20.628  14.736
26752W        W98335  11.282   0.499   0.504
26753W        W98336  36.853  18.382   4.662
26754W        W98337   2.274  25.266  13.516
26755W        W98338  17.846  27.993   4.550
26756W        W98339  33.336  39.856   1.806
26757W        W98340  35.501  41.941  14.025
26758W        W98341   3.709  34.469   1.317
26759W        W98342  40.959  39.039   3.592
26760W        W98343  44.052  40.092  11.700
26761W        W98344   2.694  25.037  13.734
26762W        W98345  17.534  15.733   1.377
26763W        W98346  10.069  41.512   2.389
26764W        W98347   7.305   7.665  12.159
26765W        W98348  14.830  39.014   3.084
26766W        W98349  39.468   6.720   0.681
26767W        W98350   7.419  44.241   2.776
26768W        W98351  40.538  28.355  10.473
26769W        W98352  15.241  15.588  11.946
26770W        W98353  20.492  20.953   1.371
26771W        W98354  33.267   9.755   4.349
26772W        W98355  15.913  33.590  10.555
26773W        W98356   0.438  25.405   2.723
26774W        W98357   2.446  10.778  13.108
26775W        W98358   1.261  44.754  10.926
26776W        W98359   4.781  26.380   4.257
26777W        W98360  35.071  18.781  14.203
26778W        W98361   2.317  32.119   0.929
26779W        W98362   6.026   3.939  12.290
26780W        W98363  22.541  33.070   2.336
26781W        W98364  20.155  26.926  14.521
26782W        W98365   5.993  20.615  11.533
26783W        W98366  20.985   9.815   2.753
26784W        W98367  34.870  18.683   0.179
26785W        W98368   1.797  25.814   3.104
26786W        W98369  16.967  23.572   4.621
26787W        W98370  39.398  12.191  14.519
26788W        W98371  40.836  10.924  14.050
26789W        W98372   2.034  32.094   0.444
26790W        W98373  39.536  44.224  14.432
26791W        W98374  33.668  13.176   3.593
26792W        W98375  35.325   4.765  10.400
26793W        W98376  29.449   1.641   3.628
26794W        W98377   1.784  34.299   4.149
26795W        W98378   6.872   8.631  11.141
26796W        W98379  34.875  44.245  11.049
26797W        W98380  30.611  19.132  14.839
26798W        W98381  26.455   8.594   4.685
26799W        W98382  43.851  32.014  10.686
26800W        W98383  11.870  25.675   1.176
26801W        W98384  30.029  23.012   4.211
26802W        W98385  15.174  30.740   0.884
26803W        W98386  24.258  24.273  14.804
26804W        W98387  16.341  17.612  11.999
26805W        W98388  20.024  20.562  10.708
26806W        W98389  23.776  20.050   3.708
26807W        W98390  21.793   9.405  11.918
26808W        W98391  33.404  19.339  10.921
26809W        W98392  31.371   4.721   3.760
26810W        W98393  27.142  18.277  12.419
26811W        W98394   4.817   4.963   4.038
26812W        W98395  21.093  34.365  14.518
26813W        W98396  14.730  41.015  10.761
26814W        W98397  31.157  26.444  11.022
26815W        W98398   4.519  19.534  11.503
26816W        W98399   4.482  37.305  11.428
26817W        W98400  18.751  21.280   2.549
26818W        W98401  10.346  10.181   2.797
26819W        W98402  15.085  15.682  10.479
26820W        W98403  15.545  10.870  12.547
26821W        W98404  10.148  10.226  12.061
26822W        W98405  30.990  43.903  11.656
26823W        W98406   9.438   9.897  14.780
26824W        W98407   1.730  33.026   0.411
26825W        W98408  25.230  28.347  13.088
26826W        W98409  43.594   7.652  10.547
26827W        W98410   0.891  39.142   2.415
26828W        W98411  15.237  34.365  10.780
26829W        W98412  37.959  26.627   3.353
26830W        W98413  19.225   3.891   4.637
26831W        W98414   8.631  39.033   3.244
26832W        W98415  14.266  25.445  11.923
26833W        W98416  12.284  17.393  13.618
26834W        W98417  16.000  12.887   0.629
26835W        W98418  21.187   9.178  13.018
26836W        W98419   4.542  18.305   2.955
26837W        W98420   4.631  43.088   2.761
26838W        W98421  11.195   0.222  12.377
26839W        W98422   4.521  19.967  10.950
26840W        W98423  24.166  23.479  14.399
26841W        W98424  24.208  12.355   0.878
26842W        W98425  42.071  31.048  12.407
26843W        W98426  19.010   2.429   0.923
26844W        W98427   2.873  25.729  11.562
26845W        W98428   3.547  18.681  14.440
26846W        W98429  40.298   3.296   2.703
26847W        W98430  21.222  34.377  10.406
26848W        W98431  25.541  29.586  12.280
26849W        W98432  25.419  33.433   0.418
26850W        W98433  13.071  28.362  10.963
26851W        W98434  41.925  28.925  13.012
26852W        W98435  37.495  40.946  12.583
26853W        W98436  25.212  44.769   1.255
26854W        W98437  43.399  22.613  14.345
26855W        W98438   0.311  27.380   0.927
26856W        W98439   4.429  37.912   0.783
26857W        W98440  18.483   3.223   1.869
26858W        W98441  28.445  11.899   3.708
26859W        W98442  39.993   7.386   2.789
26860W        W98443   7.384  13.693  10.707
26861W        W98444  37.940  37.570   4.852
26862W        W98445  29.404   1.891   4.879
26863W        W98446  41.330  14.687   1.099
26864W        W98447  11.809  11.635  10.190
26865W        W98448  24.996  16.371   3.263
26866W        W98449   9.733  35.336   1.383
26867W        W98450  32.465   6.310  10.291
26868W        W98451  22.129  26.068  13.818
26869W        W98452  27.566  21.655  14.426
26870W        W98453  32.611  19.678  11.014
26871W        W98454  24.488   7.862  12.427
26872W        W98455   6.979  17.116  12.755
26873W        W98456  22.949  20.965   0.369
26874W        W98457  15.325   0.430  12.421
26875W        W98458  30.014  23.730   0.405
26876W        W98459   1.715  26.725  10.666
26877W        W98460   7.931   4.417  13.618
26878W        W98461  25.987  43.715  12.445
26879W        W98462  15.675  15.371   3.725
26880W        W98463  34.629  30.499   2.998
26881W        W98464   7.273   8.204  12.155
26882W        W98465  14.647  31.080  10.673
26883W        W98466  23.635  20.549   0.244
26884W        W98467  24.778   5.376   0.445
26885W        W98468  43.399  22.251   0.989
26886W        W98469  11.871  14.835   2.843
26887W        W98470  20.715  14.895  12.888
26888W        W98471  38.855  31.649   4.634
26889W        W98472  19.227  34.067  11.096
26890W        W98473   8.124  11.668   1.835
26891W        W98474  27.744  34.945  14.074
26892W        W98475   2.518  18.266   1.878
26893W        W98476  33.176  39.366  13.390
26894W        W98477  35.871  33.384   4.273
26895W        W98478  44.483  22.075   2.018
26896W        W98479  26.497  30.094  11.914
26897W        W98480  14.680  12.192   1.750
26898W        W98481  23.197  34.526   3.430
26899W        W98482  23.013  10.252  14.995
26900W        W98483  40.970   7.217   3.840
26901W        W98484  44.291   0.012   4.574
26902W        W98485  32.166   8.907   4.390
26903W        W98486  21.797  20.069   9.759
26904W        W98487  25.089  23.545  14.535
26905W        W98488   7.171  43.804   4.115
26906W        W98489  44.271  11.819   3.308
26907W        W98490  14.191  28.915  14.501
26908W        W98491  15.578  13.580   1.895
26909W        W98492  29.635  21.537   4.420
26910W        W98493  16.959   1.811  13.549
26911W        W98494  23.631  40.877   4.500
26912W        W98495   3.650  40.011   1.831
26913W        W98496  27.255  23.032   3.054
26914W        W98497   1.900  17.139   2.220
26915W        W98498  32.094   9.921   0.126
26916W        W98499  25.473  39.486  10.783
26917W        W98500  17.289   3.134  12.010
26918W        W98501   6.832  22.530   3.866
26919W        W98502   9.452   0.313   0.556
26920W        W98503  39.387  11.837  13.315
26921W        W98504  13.631  25.384  14.999
26922W        W98505  28.532  17.610   2.599
26923W        W98506   9.177  24.755   2.762
26924W        W98507  43.257  10.933  11.577
26925W        W98508  11.327  30.974  10.328
26926W        W98509  35.985  32.466   4.812
26927W        W98510   3.409  37.321   0.145
26928W        W98511  14.208  39.820  12.324
26929W        W98512  40.294  43.196  10.295
26930W        W98513   9.657  26.989   0.774
26931W        W98514  36.379  10.278   1.662
26932W        W98515  38.632   2.482  10.825
26933W        W98516   5.078  18.226   2.844
26934W        W98517  20.054  23.215   3.198
26935W        W98518  42.447  13.690   0.512
26936W        W98519   8.653  37.873  10.746
26937W        W98520  38.019  26.649  14.271
26938W        W98521   4.786  43.783  10.799
26939W        W98522  23.744  18.546   1.631
26940W        W98523  10.216  43.398   4.703
26941W        W98524  19.702  37.517  12.096
26942W        W98525  18.660   5.929   0.811
26943W        W98526   1.553   2.530   0.752
26944W        W98527  29.042  27.307  11.537
26945W        W98528  38.991  41.689   2.200
26946W        W98529   7.089  41.871  14.346
26947W        W98530  19.166   9.640  12.589
26948W        W98531  24.623  10.598  11.960
26949W        W98532  22.938  28.934   2.319
26950W        W98533  15.150  30.152   4.188
26951W        W98534  14.200  27.132   1.226
26952W        W98535  29.614   7.193   4.062
26953W        W98536  43.027  38.931  13.945
26954W        W98537  10.615  42.950  13.479
26955W        W98538  29.180  17.129  11.358
26956W        W98539  27.673  21.207  10.921
26957W        W98540  23.108  28.550  10.930
26958W        W98541  40.557  29.446  13.889
26959W        W98542   9.865  44.845   2.680
26960W        W98543  23.550   0.348   2.300
26961W        W98544   1.129  13.169   4.732
26962W        W98545  24.261  29.566   3.283
26963W        W98546  33.584  32.441   0.546
26964W        W98547   4.504  20.516  13.124
26965W        W98548   6.748   5.976   4.680
26966W        W98549  41.582  43.863  13.722
26967W        W98550  44.101  24.661   0.449
26968W        W98551   8.862  41.306  14.458
26969W        W98552  40.273  30.564  11.201
26970W        W98553  37.026  20.343  12.921
26971W        W98554  18.738  23.496   0.512
26972W        W98555  14.791  12.704   0.931
26973W        W98556  34.086  32.031   2.654
26974W        W98557  29.332  41.055  11.642
26975W        W98558  28.076  42.845  14.515
26976W        W98559  17.907  35.055   1.784
26977W        W98560  32.291  32.545  11.530
26978W        W98561   8.851  35.497   3.378
26979W        W98562  12.187  37.332   2.041
26980W        W98563  26.031   5.839  13.995
26981W        W98564  32.905   8.749   2.813
26982W        W98565  18.527   6.944  13.570
26983W        W98566   6.809  26.304   1.661
26984W        W98567  17.475  15.823  12.920
26985W        W98568   3.336  44.725   1.400
26986W        W98569  13.393  25.549  12.352
26987W        W98570  27.093  43.002  12.082
26988W        W98571  26.595  27.626   4.958
26989W        W98572  32.041  25.091   1.278
26990W        W98573   2.258  22.179   1.892
26991W        W98574  10.401  22.835  12.928
26992W        W98575  14.013   9.289  14.203
26993W        W98576  43.322  39.795   1.926
26994W        W98577  31.656  23.610  11.637
26995W        W98578  19.613  38.218   1.716
26996W        W98579  27.469  24.723   0.444
26997W        W98580  36.525   9.408   4.999
26998W        W98581   2.647  30.960   2.750
26999W        W98582  18.141  24.963  12.478
27000W        W98583  31.549  42.637  13.349
27001W        W98584   4.888  23.523  12.510
27002W        W98585  10.761  32.921  13.557
27003W        W98586  27.021  36.800   2.266
27004W        W98587   9.811  32.528  14.566
27005W        W98588  36.454  29.528   2.476
27006W        W98589   0.288   5.305  11.613
27007W        W98590  14.034   1.439  13.375
27008W        W98591   6.797  28.464  12.938
27009W        W98592  24.557   0.822  14.748
27010W        W98593  20.048  20.437   4.236
27011W        W98594  35.041   8.290  12.820
27012W        W98595  21.158  34.461  13.090
27013W        W98596   2.323  29.533  11.943
27014W        W98597  43.297   2.002   2.769
27015W        W98598  18.834  28.254  10.343
27016W        W98599  37.366  17.787  12.518
27017W        W98600  16.752  25.465  11.554
27018W        W98601   9.626   6.940   0.860
27019W        W98602   7.876  17.736  10.709
27020W        W98603  21.132  21.489  14.253
27021W        W98604  44.600  35.626  12.252
27022W        W98605  38.903   7.259  11.352
27023W        W98606  12.093   2.180  14.399
27024W        W98607  20.713  10.805   4.122
27025W        W98608   8.989  20.168   5.084
27026W        W98609  24.683   4.934  14.750
27027W        W98610  33.968  41.541   1.907
27028W        W98611   2.379  18.339   0.021
27029W        W98612  41.233  16.786   2.792
27030W        W98613  29.846   6.833   3.718
27031W        W98614   3.332   8.059  11.134
27032W        W98615   5.834  26.053  11.865
27033W        W98616  42.788  43.149  11.403
27034W        W98617   4.842  36.282  12.580
27035W        W98618   5.738  36.117   2.631
27036W        W98619  33.033   4.433  11.627
27037W        W98620  41.638  40.919  12.501
27038W        W98621  19.509  39.898  10.917
27039W        W98622  26.178  36.877  14.282
27040W        W98623  41.390   4.314  11.618
27041W        W98624  23.175  22.817  11.133
27042W        W98625  39.108  39.386  12.500
27043W        W98626  15.136   4.134  13.658
27044W        W98627  34.384  16.818   2.400
27045W        W98628  32.285  33.368   0.609
27046W        W98629   9.091  28.488   4.898
27047W        W98630   3.898  33.679  11.977
27048W        W98631   8.665  25.167   3.078
27049W        W98632   2.796  24.520  12.487
27050W        W98633  43.013   5.262  14.983
27051W        W98634  44.738   0.929  13.592
27052W        W98635  41.795  35.864  14.310
27053W        W98636  39.561  21.623  12.864
27054W        W98637  43.914  37.999   0.842
27055W        W98638  11.180  19.709   4.148
27056W        W98639  37.033  11.768   1.370
27057W        W98640   7.801  16.268   0.815
27058W        W98641  22.827  39.885   2.667
27059W        W98642  15.346  27.404  14.311
27060W        W98643  11.169  44.203   1.670
27061W        W98644   0.602   8.114   2.232
27062W        W98645   0.938   0.259   3.291
27063W        W98646   0.846  13.714  11.624
27064W        W98647  41.335  22.313   3.375
27065W        W98648   1.725  44.854  10.722
27066W        W98649  27.243  36.757   0.047
27067W        W98650  25.260  37.288  13.488
27068W        W98651  33.564  42.212  12.788
27069W        W98652   1.872   8.190   0.739
27070W        W98653  30.586   8.387  11.055
27071W        W98654   1.893  30.626  13.178
27072W        W98655  11.677   3.514  11.661
27073W        W98656  35.348  18.664  12.926
27074W        W98657  24.181  26.885  11.192
27075W        W98658  18.028  22.790  11.820
27076W        W98659  26.684  22.806  11.591
27077W        W98660  38.679   5.784  10.149
27078W        W98661   6.917  13.788  13.504
27079W        W98662   4.347  20.460  10.787
27080W        W98663  25.696  31.049   0.285
27081W        W98664  41.820  17.863  12.403
27082W        W98665  26.728   4.287   4.841
27083W        W98666  35.699  42.761  11.322
27084W        W98667  20.235  40.002  11.616
27085W        W98668  17.135  21.988   1.684
27086W        W98669   2.903  15.731  11.578
27087W        W98670  33.611  11.881   3.717
27088W        W98671  13.491  26.071  13.151
27089W        W98672  10.413   4.327  13.100
27090W        W98673  14.755  15.521   1.840
27091W        W98674   1.297  40.455   0.297
27092W        W98675   4.593  44.756   2.794
27093W        W98676  17.079   6.260   4.620
27094W        W98677   4.363  14.315  13.711
27095W        W98678  41.641  24.047   0.368
27096W        W98679  27.851   2.296   4.120
27097W        W98680   4.717  31.798   0.241
27098W        W98681  29.654   2.534   4.320
27099W        W98682  13.951  32.915  13.587
27100W        W98683  29.648  33.359  13.767
27101W        W98684   7.331   7.905  11.705
27102W        W98685  12.114  20.251   3.948
27103W        W98686  24.151  13.712   2.880
27104W        W98687  35.793  14.039   4.190
27105W        W98688  13.394  33.967   2.443
27106W        W98689   0.984  26.988  14.096
27107W        W98690  44.770  16.813  14.082
27108W        W98691  24.817  19.978   3.072
27109W        W98692  39.962  22.012   1.372
27110W        W98693  34.475  39.330  13.869
27111W        W98694  34.525  44.938  11.392
27112W        W98695   2.376   4.994   0.366
27113W        W98696  15.652  39.943   4.928
27114W        W98697  10.747  40.065  10.384
27115W        W98698  17.676  41.741   0.371
27116W        W98699   5.829  34.969   0.672
27117W        W98700   9.759   6.103   2.842
27118W        W98701  36.982  19.184  14.402
27119W        W98702  23.200  17.815  11.439
27120W        W98703  13.433   6.129  13.886
27121W        W98704   6.143  14.017   2.720
27122W        W98705   7.240  20.191  10.579
27123W        W98706  35.315  17.125  14.837
27124W        W98707   5.693  24.544   3.603
27125W        W98708  22.944   3.966  11.060
27126W        W98709  19.906   7.516  11.072
27127W        W98710  31.813  29.605   3.738
27128W        W98711   5.675  19.798   4.666
27129W        W98712  15.380  19.555   3.648
27130W        W98713  44.949  26.186   0.783
27131W        W98714  10.848  32.908   2.159
27132W        W98715  30.955  16.174  10.478
27133W        W98716  27.992  11.440   3.014
27134W        W98717  14.129  41.821   1.902
27135W        W98718   3.388   4.935  14.021
27136W        W98719   0.406  42.048   4.607
27137W        W98720  10.376  27.448   4.797
27138W        W98721  28.576  25.163  11.420
27139W        W98722  14.397  25.211  11.449
27140W        W98723  41.189  36.718  14.457
27141W        W98724  12.475  22.584   2.732
27142W        W98725  35.018  32.161  13.874
27143W        W98726  44.730  40.860  11.234
27144W        W98727  38.557   2.853   3.803
27145W        W98728  16.805  14.592  13.012
27146W        W98729  17.040  26.633  13.453
27147W        W98730   9.437  15.585   3.618
27148W        W98731  40.952  31.635   2.411
27149W        W98732  20.396  22.592  11.051
27150W        W98733  15.604  42.308  10.768
27151W        W98734  10.423   9.145  11.580
27152W        W98735   2.887  15.515  12.494
27153W        W98736  13.644  20.715  11.953
27154W        W98737  43.375  34.824   0.931
27155W        W98738  20.906  18.083   3.794
27156W        W98739  21.008  17.162   0.861
27157W        W98740  35.389  13.972   3.708
27158W        W98741   3.718   1.780  10.922
27159W        W98742  43.457  33.893  14.931
27160W        W98743  44.042  34.577  12.828
27161W        W98744  23.204  11.603  13.522
27162W        W98745  32.821  27.099  13.069
27163W        W98746  19.714  44.131  13.914
27164W        W98747   8.476  18.001   0.876
27165W        W98748  21.491  30.965  14.296
27166W        W98749  22.808  28.548   1.482
27167W        W98750  18.263  12.357  13.158
27168W        W98751  34.650  33.771   0.448
27169W        W98752  40.851   0.102  11.099
27170W        W98753  33.700  30.323   1.262
27171W        W98754   1.052   4.726  11.561
27172W        W98755  25.353   0.587   4.795
27173W        W98756  20.917  19.416  11.521
27174W        W98757  16.990  18.937   1.274
27175W        W98758   2.555   3.143   4.203
27176W        W98759  20.493   9.728   1.160
27177W        W98760  32.807  21.779   1.070
27178W        W98761   8.834  13.809  10.738
27179W        W98762  17.787  18.171   1.909
27180W        W98763  40.949  36.425   4.882
27181W        W98764  16.617   0.969   3.440
27182W        W98765   5.389  20.079  14.995
27183W        W98766  29.653  32.877   4.636
27184W        W98767  11.234  39.799   4.498
27185W        W98768  43.807  13.736  12.399
27186W        W98769  16.645  37.169   2.679
27187W        W98770  29.096  14.854   2.611
27188W        W98771  26.602  37.136   2.339
27189W        W98772  33.930   6.469   0.749
27190W        W98773  21.393  42.896  10.321
27191W        W98774   5.984  39.127   2.697
27192W        W98775  41.390  29.639   1.298
27193W        W98776  36.008   4.346   1.012
27194W        W98777  30.608   1.176   1.747
27195W        W98778  19.550  29.175   1.305
27196W        W98779   3.812  43.082  14.515
27197W        W98780  31.829  32.668  11.682
27198W        W98781   0.887  13.724  13.801
27199W        W98782   4.782  32.403   0.962
27200W        W98783   6.147  37.420   3.267
27201W        W98784  35.519  15.767  14.471
27202W        W98785  24.853  44.997  12.012
27203W        W98786  25.028  25.016  14.751
27204W        W98787  44.024   8.117  11.095
27205W        W98788  27.436  40.272   3.828
27206W        W98789  21.658  20.271  13.119
27207W        W98790  24.581   5.696  13.123
27208W        W98791  39.066  12.794  10.770
27209W        W98792  26.154  24.644   0.014
27210W        W98793  18.217  33.395  14.889
27211W        W98794  11.560   5.951   3.252
27212W        W98795   3.503  21.693  14.441
27213W        W98796  34.507  22.943   0.483
27214W        W98797  43.479  16.214   0.352
27215W        W98798  41.051  11.709   1.356
27216W        W98799   3.284  35.506   2.733
27217W        W98800  15.454  17.072   4.893
27218W        W98801  17.563   7.691   3.171
27219W        W98802  41.495  21.267   2.286
27220W        W98803  13.161  43.542  11.301
27221W        W98804  17.007   1.278  11.128
27222W        W98805   1.530  33.474   2.684
27223W        W98806  19.794   1.579  14.974
27224W        W98807   8.504  44.911   4.111
27225W        W98808  13.782  44.763  13.942
27226W        W98809  33.773   8.870  14.333
27227W        W98810  42.700  37.520  11.735
27228W        W98811  31.982  30.232  12.547
27229W        W98812  36.339  20.250   0.739
27230W        W98813   3.751  44.267  12.371
27231W        W98814  22.764  36.187   1.305
27232W        W98815  27.010  42.755   2.632
27233W        W98816  29.484  19.050   0.507
27234W        W98817  31.590  16.396  13.272
27235W        W98818  31.254   0.013   0.716
27236W        W98819   7.731  40.943   2.789
27237W        W98820  12.206  10.413  11.227
27238W        W98821  15.765   9.930  13.454
27239W        W98822   8.855   6.910   3.223
27240W        W98823  10.530  36.544   4.635
27241W        W98824  36.624   0.053  11.025
27242W        W98825   6.629   1.755   4.099
27243W        W98826   5.287   1.262   4.559
27244W        W98827   5.855  26.069   2.162
27245W        W98828  27.976   1.669  10.638
27246W        W98829   8.671  43.227  13.416
27247W        W98830  34.861  37.984   3.895
27248W        W98831  24.563  43.293   0.540
27249W        W98832  26.122  27.290  13.276
27250W        W98833  23.257  42.867  13.746
27251W        W98834  42.464  37.571  10.761
27252W        W98835  43.989  11.836  10.970
27253W        W98836   0.657   1.155  14.604
27254W        W98837  37.758  40.987  13.024
27255W        W98838  38.938   1.442  12.020
27256W        W98839  13.826  27.970  12.900
27257W        W98840  15.374   8.995   1.969
27258W        W98841  13.224  23.579   0.537
27259W        W98842  29.669  22.673   3.737
27260W        W98843  31.047  32.507  13.518
27261W        W98844  38.720  38.903  13.833
27262W        W98845  20.054   2.186   4.947
27263W        W98846  29.682  19.551  10.756
27264W        W98847  43.284  31.097   3.679
27265W        W98848  31.666  15.590   4.146
27266W        W98849  24.968  42.951  12.616
27267W        W98850   6.878   1.306  14.984
27268W        W98851  14.897  13.115   3.336
27269W        W98852  37.535  44.481   4.554
27270W        W98853  25.287  29.567  14.465
27271W        W98854  30.661  33.676   1.186
27272W        W98855  30.943  17.898   3.354
27273W        W98856  30.264  27.113   3.212
27274W        W98857  30.493  44.477  14.854
27275W        W98858  30.043  42.905   1.286
27276W        W98859  25.739  25.576   3.769
27277W        W98860   0.335  17.972   0.288
27278W        W98861  17.301  24.620   3.188
27279W        W98862   4.383  35.987  10.308
27280W        W98863   1.261   3.636   1.236
27281W        W98864  30.671  39.946   1.874
27282W        W98865  30.115  44.861  11.877
27283W        W98866   0.910  37.518   2.386
27284W        W98867   5.706  43.741  12.982
27285W        W98868   7.526  39.606  11.061
27286W        W98869  40.441  32.006  11.547
27287W        W98870  34.788  20.019   4.978
27288W        W98871  43.250   5.547  13.235
27289W        W98872  30.661  37.887   0.036
27290W        W98873  26.617  33.525  10.415
27291W        W98874  20.708  12.258   4.377
27292W        W98875   2.879  31.411   4.262
27293W        W98876  31.786  34.886  11.064
27294W        W98877   5.270  35.007   2.406
27295W        W98878  22.772   0.576   2.853
27296W        W98879  25.528  15.703   3.837
27297W        W98880  15.378  34.376   3.310
27298W        W98881  24.290   4.414   2.788
27299W        W98882   2.922   6.123  14.243
27300W        W98883  32.781  24.693  12.511
27301W        W98884  12.270   8.467   0.682
27302W        W98885  11.066   2.974  12.268
27303W        W98886  31.552  20.982  13.385
27304W        W98887  43.354  20.618  10.511
27305W        W98888   9.142  38.966   1.233
27306W        W98889  33.938  29.043   0.466
27307W        W98890   0.749  24.111  14.761
27308W        W98891  43.060  37.023   1.296
27309W        W98892   5.625   4.464   0.416
27310W        W98893  41.598  18.298  13.152
27311W        W98894   2.411   1.924  11.407
27312W        W98895  22.513  40.926  10.884
27313W        W98896   3.832  28.049  11.277
27314W        W98897  16.145   0.891   1.713
27315W        W98898  44.209  27.616  14.433
27316W        W98899   6.688  35.491  12.575
27317W        W98900   5.441   8.761   2.831
27318W        W98901  36.883  32.496   4.372
27319W        W98902  10.189  35.853   0.534
27320W        W98903  10.377  41.806   2.989
27321W        W98904   0.571  18.839  14.920
27322W        W98905  25.618  22.905  11.127
27323W        W98906  18.378  15.897   0.783
27324W        W98907  19.324  28.662   0.266
27325W        W98908   1.870  11.337  14.361
27326W        W98909  35.207  40.360  11.716
27327W        W98910  14.879  40.001   0.294
27328W        W98911  40.317  32.505   1.332
27329W        W98912  44.415   8.363  12.107
27330W        W98913  23.678  37.294   4.498
27331W        W98914  30.360  26.165   3.193
27332W        W98915  14.807  12.017  14.964
27333W        W98916   2.971  22.955  14.402
27334W        W98917  20.561  23.227   3.818
27335W        W98918  38.945   7.863  10.111
27336W        W98919  33.845  44.734   0.124
27337W        W98920  12.233   9.838   3.297
27338W        W98921  18.478   9.801   2.237
27339W        W98922  37.492  40.863   0.557
27340W        W98923  40.289  21.488  13.507
27341W        W98924  41.324  38.828  14.583
27342W        W98925   9.146  15.778  11.073
27343W        W98926  31.655   6.834  13.317
27344W        W98927  21.121  24.563  13.775
27345W        W98928  27.288  38.287   1.631
27346W        W98929   4.136  21.699  13.320
27347W        W98930  20.605  27.642  11.570
27348W        W98931  28.782  40.060   2.888
27349W        W98932  12.628  30.151  13.774
27350W        W98933  31.110  14.764   4.305
27351W        W98934   5.983   7.098  11.133
27352W        W98935  23.153  34.201   1.157
27353W        W98936  11.674  33.992  14.002
27354W        W98937  19.122  31.110   0.733
27355W        W98938  11.376  10.816  10.894
27356W        W98939   7.721  28.333  10.766
27357W        W98940  38.182   3.785  14.294
27358W        W98941   2.285  34.316  14.889
27359W        W98942  10.031  34.462  14.347
27360W        W98943  34.278  33.171  11.812
27361W        W98944  43.190  36.535  10.686
27362W        W98945  29.998  15.705  14.706
27363W        W98946  43.617  18.999  13.746
27364W        W98947   6.595  31.093   1.584
27365W        W98948  14.644   2.000   2.380
27366W        W98949  39.660  12.835  12.969
27367W        W98950  14.347  37.427  13.681
27368W        W98951  20.492   0.396   2.683
27369W        W98952  16.171   6.226   0.684
27370W        W98953   4.939  12.202   0.309
27371W        W98954  27.081  11.758  12.504
27372W        W98955  18.611   6.778   3.968
27373W        W98956  12.575   4.131  10.677
27374W        W98957  15.059  21.145   3.854
27375W        W98958  39.103  11.721  12.892
27376W        W98959  21.935  38.741   0.322
27377W        W98960  10.791  42.942   1.853
27378W        W98961  32.390  33.124  14.316
27379W        W98962   5.916  10.883   2.829
27380W        W98963  27.672  10.360  12.480
27381W        W98964   3.739  12.146   2.789
27382W        W98965  19.727  39.875   3.150
27383W        W98966   9.754   4.245   2.381
27384W        W98967  25.989  10.264  14.895
27385W        W98968   6.770   7.922  12.464
27386W        W98969   2.163  29.259   2.923
27387W        W98970  20.159  43.806  10.617
27388W        W98971  18.725  24.244   0.183
27389W        W98972  25.933   3.260  14.506
27390W        W98973  28.449  23.913  11.966
27391W        W98974   8.841  37.085  13.007
27392W        W98975  34.547  29.448   1.936
27393W        W98976  24.300   5.304   1.379
27394W        W98977  12.564  43.124  14.825
27395W        W98978  14.749  31.024  11.180
27396W        W98979  18.728  38.679   4.699
27397W        W98980   7.138  37.798  12.898
27398W        W98981  32.171  22.560  10.641
27399W        W98982  27.624  29.635  12.427
27400W        W98983  18.688  31.671  13.799
27401W        W98984  30.948  32.091   2.359
27402W        W98985   2.705   4.764   3.646
27403W        W98986  40.172  14.155   4.894
27404W        W98987  10.170  34.817   0.451
27405W        W98988  14.086  14.283   3.957
27406W        W98989  37.910  32.686   0.620
27407W        W98990  17.776   3.435  13.292
27408W        W98991  20.988   1.830   9.979
27409W        W98992  11.206  38.945  12.452
27410W        W98993  15.783   0.164  14.471
27411W        W98994   5.757   2.993   0.944
27412W        W98995  20.129  18.726   2.958
27413W        W98996  24.116  26.964   4.884
27414W        W98997  14.679  28.816  14.762
27415W        W98998  13.484  21.049   2.160
27416W        W98999  10.102   0.349  14.699
27417W        W99000  31.395  24.626  14.737
27418W        W99001  36.835   2.434   0.213
27419W        W99002   8.634  32.770   2.272
27420W        W99003  27.960  25.963  12.578
27421W        W99004  20.960   3.755   4.226
27422W        W99005  32.020   3.417   0.352
27423W        W99006   0.348   4.320  13.813
27424W        W99007  33.451  43.015   1.515
27425W        W99008  44.852  42.788  11.534
27426W        W99009  34.012  16.687   1.750
27427W        W99010  21.751   9.598   0.284
27428W        W99011  17.532  42.054  13.999
27429W        W99012  15.863  11.357  10.267
27430W        W99013  34.957  22.274   2.373
27431W        W99014  30.856  17.822  10.687
27432W        W99015   8.300  44.452   2.874
27433W        W99016  22.273  15.401   3.432
27434W        W99017  34.089  42.016  10.573
27435W        W99018  17.158  40.489  11.165
27436W        W99019  38.287  12.319   2.371
27437W        W99020  19.648  19.707   3.626
27438W        W99021  26.466  16.441   2.866
27439W        W99022  19.380   3.785   0.800
27440W        W99023  36.860  30.606  11.607
27441W        W99024  31.157   2.811  10.684
27442W        W99025   7.106  44.024  12.247
27443W        W99026  25.223  23.184  14.988
27444W        W99027   9.366  21.621   2.673
27445W        W99028  20.558  24.408   2.992
27446W        W99029  30.099  26.487   0.787
27447W        W99030  40.485  27.014   2.411
27448W        W99031  43.357   1.960   0.553
27449W        W99032  15.295  35.998  12.102
27450W        W99033  32.592  40.970   1.490
27451W        W99034   3.309   3.647   2.776
27452W        W99035   1.672  23.902  12.206
27453W        W99036  36.328   3.152   2.738
27454W        W99037  42.215  16.293  14.962
27455W        W99038   7.423   5.166   3.626
27456W        W99039  32.668  24.237   0.674
27457W        W99040  34.848  15.617  11.992
27458W        W99041  32.458  20.263   2.619
27459W        W99042  16.064  21.149  13.252
27460W        W99043  15.149  44.529   1.394
27461W        W99044  29.681  40.971   2.626
27462W        W99045  12.089  19.719  14.511
27463W        W99046  21.701  37.342  13.221
27464W        W99047  20.111  24.467   3.741
27465W        W99048  29.281  27.930   4.633
27466W        W99049  13.250   3.512   1.298
27467W        W99050   9.658  38.550  14.740
27468W        W99051  28.636  34.494   0.457
27469W        W99052  12.059  22.321  14.409
27470W        W99053  20.059  43.936   2.766
27471W        W99054  19.794   7.692   5.539
27472W        W99055  17.510   9.680   4.595
27473W        W99056  40.411  15.313  11.039
27474W        W99057  41.382  36.961  13.135
27475W        W99058  42.803  39.256   2.736
27476W        W99059  27.541  24.310  13.425
27477W        W99060  36.458  22.287   1.354
27478W        W99061  40.971   0.535   1.748
27479W        W99062   0.002   9.778  13.139
27480W        W99063  34.842  28.486  13.565
27481W        W99064  32.888  28.440  14.425
27482W        W99065  36.945  28.099   3.067
27483W        W99066  20.237  32.893  12.682
27484W        W99067  40.922  38.408  12.591
27485W        W99068  24.538   0.201  14.456
27486W        W99069  15.560  11.141   2.251
27487W        W99070   7.315  27.274   2.349
27488W        W99071  25.619   2.030  13.457
27489W        W99072  32.710  20.515   4.183
27490W        W99073  24.698  28.168   4.546
27491W        W99074  13.815  39.455  13.943
27492W        W99075  33.161  37.634   1.311
27493W        W99076  24.105  14.943  14.549
27494W        W99077  14.305   5.349   0.575
27495W        W99078  14.754  34.417   1.626
27496W        W99079  14.606   8.453   2.355
27497W        W99080  41.878  42.867   1.754
27498W        W99081  21.327   1.579  13.062
27499W        W99082  43.281  14.408  13.567
27500W        W99083   1.152   5.978   4.084
27501W        W99084  31.660  21.391  10.569
27502W        W99085  22.673  14.931   4.147
27503W        W99086  37.153  28.680  14.224
27504W        W99087  27.131  37.347  14.297
27505W        W99088  29.663  36.482   3.634
27506W        W99089  36.519   8.445   2.250
27507W        W99090  39.939  38.835   4.772
27508W        W99091   8.646  24.109  14.868
27509W        W99092  23.441  37.306  11.658
27510W        W99093   1.592  41.536   3.427
27511W        W99094  38.877   9.336   1.688
27512W        W99095  22.452   6.146  11.147
27513W        W99096   0.040   0.362   1.654
27514W        W99097  23.910   8.812   3.819
27515W        W99098  33.545   7.948  13.873
27516W        W99099  25.912  38.840  11.094
27517W        W99100  23.384   3.904   3.798
27518W        W99101   1.238  10.368  13.588
27519W        W99102  20.801   6.837  12.919
27520W        W99103   3.940  16.702  11.633
27521W        W99104   4.376  13.736   3.228
27522W        W99105  31.971  44.244   0.211
27523W        W99106  18.036   0.777   2.770
27524W        W99107   4.882  38.149   0.523
27525W        W99108  24.543  44.830   1.855
27526W        W99109  41.521  14.227   1.270
27527W        W99110  10.091  12.707   2.632
27528W        W99111   3.308   9.819   3.776
27529W        W99112   5.695  12.558  13.651
27530W        W99113  16.178  30.695  10.780
27531W        W99114  22.827  41.879   2.838
27532W        W99115  13.524  16.648  12.664
27533W        W99116  16.603   7.207   2.407
27534W        W99117   6.911  10.234   2.316
27535W        W99118  12.413  28.978   0.549
27536W        W99119  30.657  34.077  12.319
27537W        W99120  30.706  10.321   1.034
27538W        W99121  20.806  12.039  11.713
27539W        W99122  41.824  29.700  14.302
27540W        W99123  16.762  25.491  10.650
27541W        W99124   4.259   6.978   2.436
27542W        W99125   3.833   3.384  14.101
27543W        W99126  34.288   7.725  14.350
27544W        W99127   6.895  21.514   3.667
27545W        W99128  26.398   6.009  11.816
27546W        W99129  24.238   1.254  12.594
27547W        W99130  16.589  33.421   1.707
27548W        W99131  35.445  27.741   1.285
27549W        W99132   6.347  38.539  10.676
27550W        W99133  40.260  39.066  10.211
27551W        W99134  32.187  23.463  13.014
27552W        W99135  10.202   8.094  11.992
27553W        W99136  13.564  24.568   1.387
27554W        W99137  44.222  10.303   1.829
27555W        W99138  31.409  29.408   0.949
27556W        W99139  34.883  24.888  11.084
27557W        W99140  18.986  19.885  11.115
27558W        W99141  11.758  23.294   1.317
27559W        W99142  31.089  42.024   2.663
27560W        W99143  34.220   2.704  10.712
27561W        W99144   9.675   9.309  12.118
27562W        W99145  42.612   8.902   4.663
27563W        W99146   3.191   0.390  11.548
27564W        W99147  42.846   9.750   1.800
27565W        W99148  37.005   5.612  12.514
27566W        W99149   9.811  42.281   4.134
27567W        W99150  42.759   4.356  13.434
27568W        W99151  42.316  36.447  13.751
27569W        W99152  11.170  43.062  12.587
27570W        W99153  20.751  23.166   2.949
27571W        W99154  18.148   1.716  11.985
27572W        W99155  26.146  42.729   3.670
27573W        W99156   8.048  26.933  10.571
27574W        W99157  13.158  28.748   2.236
27575W        W99158  16.446  42.305  12.121
27576W        W99159  12.683  30.025   0.708
27577W        W99160  36.559  42.847   9.792
27578W        W99161  34.082  22.642   0.441
27579W        W99162  23.583  28.456  12.554
27580W        W99163  29.539  41.522   3.360
27581W        W99164  31.400   8.458  12.990
27582W        W99165   5.617  28.433  13.407
27583W        W99166  42.856  12.207   2.373
27584W        W99167  21.536   0.723  12.943
27585W        W99168  23.177  38.496  11.873
27586W        W99169  15.243   8.674   1.300
27587W        W99170  12.403  28.051  12.932
27588W        W99171  32.620  41.630  12.461
27589W        W99172  38.024  29.515  14.956
27590W        W99173  26.003   1.871   3.641
27591W        W99174  30.743   1.271   3.223
27592W        W99175  37.894  11.671   4.073
27593W        W99176  23.433  29.011  12.848
27594W        W99177  41.633  39.021  13.039
27595W        W99178  35.916  17.098   4.707
27596W        W99179  23.965  26.693  14.543
27597W        W99180  44.965  18.250   1.445
27598W        W99181   0.748   6.253  10.829
27599W        W99182  11.229  25.133   0.893
27600W        W99183  15.864  40.312   4.585
27601W        W99184  12.785  38.071   4.331
27602W        W99185  27.137  15.345   3.519
27603W        W99186  31.525   5.090   1.779
27604W        W99187  39.968  15.236   1.962
27605W        W99188   0.515  20.986  13.435
27606W        W99189   9.397  27.224   1.186
27607W        W99190  19.670   2.028  13.376
27608W        W99191  24.778  10.605  12.967
27609W        W99192  20.312  30.517   3.696
27610W        W99193   4.881  29.124  11.617
27611W        W99194  32.362   4.902   1.866
27612W        W99195  24.902  35.458  13.086
27613W        W99196  23.603  38.742  12.121
27614W        W99197  38.241   6.075  11.629
27615W        W99198  21.968  22.984   1.423
27616W        W99199   5.278  38.486   5.491
27617W        W99200  40.464  38.573   0.922
27618W        W99201  29.873  39.594  11.570
27619W        W99202  25.986  37.341  13.096
27620W        W99203   1.442  36.157  14.277
27621W        W99204   8.192  25.385   5.104
27622W        W99205  15.522  23.819   5.051
27623W        W99206  36.568  24.122  10.577
27624W        W99207   8.157  29.620  13.080
27625W        W99208  24.913  35.925   4.134
27626W        W99209  24.694   6.052  14.431
27627W        W99210  24.474  24.585   4.238
27628W        W99211   1.840  30.950   1.829
27629W        W99212  20.004  33.669   3.136
27630W        W99213  43.493   1.966  11.483
27631W        W99214  22.139   1.458  14.429
27632W        W99215   4.362  28.935  12.498
27633W        W99216  33.702  13.540   0.213
27634W        W99217  32.322  11.710   0.285
27635W        W99218  33.646  38.335  10.846
27636W        W99219   6.989  11.248  11.121
27637W        W99220  31.625  12.347   0.203
27638W        W99221   7.274  30.405  12.961
27639W        W99222  34.940  17.132   3.064
27640W        W99223  26.201  34.800  10.916
27641W        W99224  25.704  41.627   2.738
27642W        W99225  22.701  34.984  11.138
27643W        W99226  41.806  18.294   2.223
27644W        W99227  32.041  39.626   4.924
27645W        W99228  11.682   5.835   2.334
27646W        W99229  23.513  14.674  13.023
27647W        W99230  18.779  17.541  13.488
27648W        W99231   0.952  24.368   0.472
27649W        W99232  21.582  31.547   1.278
27650W        W99233   1.690  13.369  12.428
27651W        W99234  12.689   7.045  11.128
27652W        W99235  35.545  19.820   3.626
27653W        W99236  13.890  17.774   4.077
27654W        W99237  27.828  44.269   1.617
27655W        W99238  15.512   4.056  13.330
27656W        W99239  24.137   6.241   3.812
27657W        W99240  27.908  27.555  10.715
27658W        W99241  22.240  16.773  13.747
27659W        W99242  15.554  10.858   1.809
27660W        W99243   6.295   0.977  13.873
27661W        W99244  29.590  16.890  14.410
27662W        W99245   1.407  15.825  10.618
27663W        W99246  36.570  31.450  13.523
27664W        W99247  24.532   6.193   2.761
27665W        W99248  26.127   7.533   0.376
27666W        W99249   3.423  28.963  13.931
27667W        W99250  14.808  32.161   3.607
27668W        W99251  13.954  35.391  13.016
27669W        W99252  39.283  17.709   1.721
27670W        W99253  16.191  10.713   1.368
27671W        W99254  21.718  43.262  10.498
27672W        W99255  32.164  23.716   0.950
27673W        W99256  39.319  40.806  11.521
27674W        W99257  37.977  38.605  11.026
27675W        W99258   9.962  42.416   4.596
27676W        W99259  25.730  40.512  12.093
27677W        W99260  21.732  27.986   2.623
27678W        W99261   3.748  35.100   4.655
27679W        W99262  17.755  15.681  11.842
27680W        W99263  26.728  36.244   3.572
27681W        W99264   1.487   7.079   4.070
27682W        W99265  31.088   1.829   9.812
27683W        W99266  17.083  12.385  12.293
27684W        W99267  18.265   2.149   4.361
27685W        W99268  38.256  25.076   5.191
27686W        W99269  38.090  33.145   0.248
27687W        W99270  27.219  26.763  13.483
27688W        W99271  16.955  14.799  13.499
27689W        W99272   8.160  26.104  10.921
27690W        W99273  24.289  11.571   2.326
27691W        W99274   6.474   7.723   2.474
27692W        W99275  23.207  43.509   0.784
27693W        W99276  43.331   0.333  13.030
27694W        W99277  18.609  37.086   3.933
27695W        W99278  35.573  19.560  11.293
27696W        W99279   3.787   9.310  12.397
27697W        W99280   5.764  27.424  11.634
27698W        W99281  32.129  39.445  10.451
27699W        W99282   3.226   6.348  12.978
27700W        W99283  29.118  38.189   2.988
27701W        W99284  44.780  43.900  12.077
27702W        W99285  20.685  11.404  14.899
27703W        W99286  41.269   0.408  12.859
27704W        W99287  33.346   5.515  12.484
27705W        W99288  36.094  15.797   2.876
27706W        W99289   5.689   3.985   0.884
27707W        W99290  40.983  28.909   4.348
27708W        W99291  21.830  44.526  11.523
27709W        W99292  15.059  10.754   1.915
27710W        W99293  40.450  33.552   3.116
27711W        W99294  32.877  39.387   3.743
27712W        W99295  44.382   2.795  14.046
27713W        W99296  32.801  39.501   1.382
27714W        W99297  15.805  19.032   0.519
27715W        W99298   1.287  12.171  11.500
27716W        W99299  22.114  28.663   4.141
27717W        W99300  20.628  38.363  12.577
27718W        W99301  29.698  39.042   2.762
27719W        W99302   1.262  11.304   0.081
27720W        W99303  42.355   8.109   3.344
27721W        W99304  35.810  23.212  12.489
27722W        W99305  33.631   1.317   1.707
27723W        W99306   7.758   5.194  13.352
27724W        W99307   2.980  23.164   0.248
27725W        W99308  13.885  31.033   4.381
27726W        W99309  30.974  27.616  11.576
27727W        W99310  32.484  30.489   4.802
27728W        W99311  42.549  19.751  13.746
27729W        W99312  20.216  42.303  11.053
27730W        W99313  11.107  34.054  13.291
27731W        W99314  18.260   8.229  13.351
27732W        W99315  19.579  36.082   2.872
27733W        W99316   1.298  25.626   1.304
27734W        W99317  32.856  22.895   1.532
27735W        W99318  34.059  38.357   4.491
27736W        W99319  18.219   7.803  14.013
27737W        W99320   1.805  27.168  13.005
27738W        W99321  31.888  42.817  10.462
27739W        W99322  41.366  12.188  12.088
27740W        W99323  13.201   0.771   3.693
27741W        W99324  17.707  11.638   0.235
27742W        W99325  26.843  42.322   1.519
27743W        W99326   1.193   8.585  11.561
27744W        W99327   0.025  16.610  14.489
27745W        W99328   5.663  28.064   3.841
27746W        W99329   5.206  35.086   3.304
27747W        W99330  41.366  28.515   2.287
27748W        W99331   1.317  42.399  14.933
27749W        W99332  31.290  30.212   0.632
27750W        W99333  23.254  24.373  10.728
27751W        W99334  33.600  37.077   5.033
27752W        W99335  22.726   3.325  14.376
27753W        W99336  17.112  28.879   1.514
27754W        W99337  18.907  38.170  13.491
27755W        W99338  30.451  26.183  10.653
27756W        W99339  23.287  27.958  14.183
27757W        W99340  22.064  13.366   3.648
27758W        W99341  28.097  29.588  14.409
27759W        W99342  38.840  43.029   4.194
27760W        W99343  29.521  41.329   2.283
27761W        W99344   8.315  25.212  11.588
27762W        W99345  39.438  14.050  11.747
27763W        W99346  22.269  28.758  10.249
27764W        W99347   8.816  19.803  13.082
27765W        W99348  31.823  20.668  13.081
27766W        W99349   5.862  27.869  11.376
27767W        W99350  31.192   6.394  10.755
27768W        W99351  10.240   8.711  14.964
27769W        W99352  31.956   4.049  11.976
27770W        W99353  35.331   9.233  13.511
27771W        W99354  29.171  25.007   0.010
27772W        W99355  19.169  35.066   3.079
27773W        W99356  30.961  24.163  11.548
27774W        W99357  34.263  23.725   2.201
27775W        W99358  34.004  37.923  13.946
27776W        W99359  29.008   8.432   2.645
27777W        W99360  18.911  17.572  10.154
27778W        W99361  27.025   5.170   4.437
27779W        W99362   2.853  43.038  12.902
27780W        W99363   8.265  18.516   1.630
27781W        W99364  29.169  42.840  10.289
27782W        W99365  31.445  44.373   4.240
27783W        W99366  10.602  35.145  10.904
27784W        W99367   3.408  41.371  11.174
27785W        W99368  27.980  19.184   0.814
27786W        W99369  33.874  43.884  14.554
27787W        W99370  35.282  12.840   0.944
27788W        W99371  15.713  14.872  13.456
27789W        W99372  34.394   5.934   1.346
27790W        W99373  41.061   5.447   3.280
27791W        W99374  27.429  15.283  14.892
27792W        W99375  15.843  22.222  13.970
27793W        W99376   4.177  25.606  14.812
27794W        W99377  29.407   4.763   5.091
27795W        W99378  40.685  20.771  11.427
27796W        W99379  12.867  22.942   4.286
27797W        W99380  29.585  44.689   1.876
27798W        W99381  42.067  15.365  12.347
27799W        W99382  31.493  32.061   2.299
27800W        W99383  34.812   3.571  14.117
27801W        W99384  32.962  16.334  11.039
27802W        W99385  10.205  38.578  14.014
27803W        W99386  38.573   6.167   1.899
27804W        W99387   7.880  38.049   4.287
27805W        W99388  30.754  10.370   4.602
27806W        W99389  35.655  42.439   3.532
27807W        W99390  25.263   9.461  12.484
27808W        W99391   1.779  10.688   3.176
27809W        W99392  18.701  40.536  11.139
27810W        W99393  12.270  21.542   4.704
27811W        W99394  27.978   1.453  10.122
27812W        W99395   9.053  12.692   3.411
27813W        W99396  18.866  16.223  11.825
27814W        W99397  28.451  21.270  12.601
27815W        W99398  34.542   4.588   4.707
27816W        W99399  30.989  43.724  14.370
27817W        W99400  26.125  24.966  14.391
27818W        W99401  28.092  40.050  14.943
27819W        W99402   9.565  41.498   3.892
27820W        W99403  20.822  36.591  14.820
27821W        W99404  15.757  41.987   2.128
27822W        W99405   3.773   0.337   3.870
27823W        W99406  29.338  39.928   0.985
27824W        W99407  10.133  40.836   1.368
27825W        W99408  21.081  42.844   3.771
27826W        W99409  26.877  34.055   4.210
27827W        W99410  24.427  17.027  12.037
27828W        W99411   4.750  38.638   0.441
27829W        W99412   9.408   4.436  12.005
27830W        W99413  26.523  25.003  14.983
27831W        W99414  44.334  25.210  13.410
27832W        W99415  11.234  44.720   1.759
27833W        W99416  15.949  14.761   3.715
27834W        W99417  32.899  37.601   3.177
27835W        W99418   0.964   0.796  11.638
27836W        W99419  14.221   3.269  14.404
27837W        W99420  32.584   2.737   0.985
27838W        W99421  14.947  10.847  12.058
27839W        W99422  30.959   6.840   0.307
27840W        W99423  36.643  25.052  10.294
27841W        W99424  28.007  15.551  10.222
27842W        W99425   1.977  13.911  11.136
27843W        W99426  27.706  12.869  11.119
27844W        W99427   3.508  36.718   5.433
27845W        W99428  12.595   2.400  13.531
27846W        W99429  26.597  27.149  12.339
27847W        W99430  19.525  23.030  12.096
27848W        W99431  18.273   1.365   0.864
27849W        W99432  33.740  12.841   2.384
27850W        W99433  41.804  17.006   4.141
27851W        W99434  40.987   7.999   3.168
27852W        W99435  15.183  21.586  11.680
27853W        W99436  19.054  38.061   0.686
27854W        W99437   7.165  20.458  11.333
27855W        W99438  29.144  36.972   2.245
27856W        W99439  32.817   7.455   3.681
27857W        W99440   6.722  32.870  10.630
27858W        W99441  30.623  21.066   1.922
27859W        W99442  18.094  41.046  13.423
27860W        W99443  41.971  40.838  12.077
27861W        W99444  10.128  14.117   2.171
27862W        W99445  23.438  18.215  13.352
27863W        W99446  12.272   9.497  14.950
27864W        W99447  24.514  19.602   0.675
27865W        W99448  16.125  18.710  14.544
27866W        W99449  44.752  36.758   4.001
27867W        W99450   1.415  30.197  14.633
27868W        W99451  17.587  11.695  14.754
27869W        W99452  27.427  40.318   2.744
27870W        W99453  36.546  31.191   3.386
27871W        W99454   3.836   2.287   1.842
27872W        W99455  20.745   3.105   0.710
27873W        W99456   9.261  30.739   0.215
27874W        W99457  39.976  43.075  11.541
27875W        W99458   4.659  35.291  13.475
27876W        W99459  27.273  42.462   4.381
27877W        W99460  13.134   7.613  13.035
27878W        W99461   0.352  10.391  14.787
27879W        W99462  42.227   5.975   4.855
27880W        W99463  23.564  27.089  14.420
27881W        W99464  23.463  40.310   1.787
27882W        W99465  33.859  40.585   1.305
27883W        W99466  22.699  10.862   1.856
27884W        W99467  23.249  19.770   4.158
27885W        W99468  15.167  20.654  13.325
27886W        W99469  37.520   8.226  13.854
27887W        W99470  34.677  19.693   1.874
27888W        W99471  27.365   7.575   0.812
27889W        W99472  34.078  26.151   0.359
27890W        W99473  26.248  22.571  12.331
27891W        W99474  11.349  36.471   3.634
27892W        W99475  33.528  32.026   0.855
27893W        W99476   0.891  38.624  11.739
27894W        W99477  32.941   1.489   2.840
27895W        W99478  41.202   0.682  12.450
27896W        W99479  18.475   6.297  14.368
27897W        W99480  20.775   2.771   1.153
27898W        W99481  36.530  11.147  11.106
27899W        W99482   1.002   5.827  13.238
27900W        W99483  11.275  44.019   1.205
27901W        W99484   5.936   4.483  12.942
27902W        W99485   6.363  37.872   1.697
27903W        W99486  40.829  11.985  12.043
27904W        W99487  10.415   4.896   3.212
27905W        W99488  44.565  15.079  14.406
27906W        W99489  13.103   3.901  11.394
27907W        W99490  14.040   2.392  12.440
27908W        W99491  24.553   1.082  13.869
27909W        W99492  26.432  21.052  14.906
27910W        W99493  21.272  41.492   2.766
27911W        W99494  17.133  41.111   1.541
27912W        W99495  28.572  17.699   4.661
27913W        W99496  42.831   5.547  14.010
27914W        W99497  14.742  37.433  13.351
27915W        W99498  27.123   9.761  10.279
27916W        W99499  22.119  25.550  12.089
27917W        W99500  24.750  11.591  10.507
27918W        W99501  37.368  31.860  12.324
27919W        W99502   5.954  33.327  13.850
27920W        W99503  41.925  24.953  14.524
27921W        W99504  41.517  16.098  14.302
27922W        W99505   1.270  33.135   4.584
27923W        W99506  30.453  26.931  12.360
27924W        W99507  30.122  18.522  14.304
27925W        W99508  26.607  33.434   1.870
27926W        W99509   1.545  42.922   0.835
27927W        W99510  20.727   5.724  14.062
27928W        W99511  26.556  28.157   5.028
27929W        W99512  36.725  31.490   1.307
27930W        W99513  31.028  12.718  12.483
27931W        W99514  22.203  41.944  11.591
27932W        W99515   7.828   7.151   0.763
27933W        W99516  41.568  37.981   2.399
27934W        W99517  42.829   0.217  11.578
27935W        W99518  19.602  27.958  12.386
27936W        W99519  16.249  30.233  13.047
27937W        W99520  21.146  12.800   3.804
27938W        W99521  28.334  24.931   0.623
27939W        W99522   6.913  22.259   4.283
27940W        W99523  24.217  30.220  11.188
27941W        W99524  34.522  34.084  14.793
27942W        W99525  14.901   3.240  13.441
27943W        W99526  27.600  10.712  14.787
27944W        W99527  39.457   4.346  13.509
27945W        W99528   3.520   6.824  11.417
27946W        W99529  15.120   3.297  12.751
27947W        W99530   8.545  20.127  13.860
27948W        W99531  17.146  29.921  14.939
27949W        W99532  36.645  19.936  11.480
27950W        W99533  12.857  27.035  10.584
27951W        W99534  13.652  42.008  10.398
27952W        W99535  20.011  44.955  12.993
27953W        W99536  12.533  24.884   0.366
27954W        W99537  40.721  16.258  13.806
27955W        W99538  24.154   6.515   4.746
27956W        W99539  21.719  22.609  11.197
27957W        W99540  25.402  18.093   2.877
27958W        W99541  13.589  32.613  14.856
27959W        W99542  26.157  18.702   2.134
27960W        W99543  28.468  44.359  14.280
27961W        W99544   3.770  42.861   3.352
27962W        W99545  42.945  35.220   3.313
27963W        W99546  39.838  27.153  14.594
27964W        W99547   6.361  19.437  13.066
27965W        W99548   0.434  44.572   1.162
27966W        W99549  36.593  25.571   2.656
27967W        W99550  38.508  15.210   3.296
27968W        W99551  23.263  43.980   4.036
27969W        W99552  26.223   4.404  11.192
27970W        W99553  30.367  41.246  13.944
27971W        W99554  13.722  19.775  10.323
27972W        W99555  12.261   2.561   2.183
27973W        W99556  10.379  14.601  11.547
27974W        W99557  23.775  16.719   4.560
27975W        W99558  28.432  13.204  10.979
27976W        W99559  16.552  44.956  12.525
27977W        W99560   5.452  38.973  14.437
27978W        W99561  44.235  28.123   1.765
27979W        W99562  19.779  13.574  11.464
27980W        W99563   2.348  22.591   1.132
27981W        W99564  38.055  25.245  11.064
27982W        W99565  28.999  32.487  13.665
27983W        W99566  17.748  18.023   3.298
27984W        W99567  29.601   9.604   4.951
27985W        W99568  21.389  21.937  10.554
27986W        W99569  23.466  24.150   1.482
27987W        W99570  33.479  39.222  10.572
27988W        W99571   8.151  41.328  12.089
27989W        W99572   1.599  17.540   0.311
27990W        W99573   1.823  11.031   2.225
27991W        W99574  40.889   3.977   1.682
27992W        W99575  11.278  34.361  14.028
27993W        W99576  43.374  35.102   1.364
27994W        W99577   3.447  30.053  14.003
27995W        W99578  23.997  17.589   2.223
27996W        W99579  12.095   5.935   0.619
27997W        W99580  32.914  25.603   2.871
27998W        W99581  17.467  21.183   0.336
27999W        W99582  39.827   2.679  12.014
28000W        W99583  42.252   3.406  13.024
28001W        W99584   9.805  12.165  14.163
28002W        W99585  22.618  28.455  13.955
28003W        W99586  30.932  20.208   5.274
28004W        W99587  28.616  37.124   4.335
28005W        W99588  36.722  12.858   3.691
28006W        W99589   5.738  37.376   0.032
28007W        W99590  44.790  40.344   0.470
28008W        W99591  44.599   6.548  14.306
28009W        W99592  24.970   2.959   4.574
28010W        W99593  37.844  13.300   4.420
28011W        W99594  40.924  14.725  12.647
28012W        W99595  26.769  38.394   4.820
28013W        W99596   3.682  32.871   3.307
28014W        W99597  22.016  15.827   1.631
28015W        W99598  28.690   0.395   3.661
28016W        W99599  37.450   8.393  11.585
28017W        W99600   5.230   9.234   0.325
28018W        W99601   3.272  40.064  10.610
28019W        W99602  43.933  15.819   2.306
28020W        W99603  40.526  16.267   0.016
28021W        W99604  43.307   3.470  10.859
28022W        W99605  43.231  19.807   3.661
28023W        W99606  34.556  11.282   3.776
28024W        W99607  28.036   7.417   3.495
28025W        W99608  39.988  38.922  14.786
28026W        W99609  27.754  19.295  14.845
28027W        W99610  41.788   0.432  12.954
28028W        W99611  37.043  42.281  14.791
28029W        W99612  43.822  12.173  10.415
28030W        W99613   7.541  30.981  14.047
28031W        W99614  14.675  35.466   4.633
28032W        W99615   4.229   6.877   0.875
28033W        W99616  21.414  14.385   3.320
28034W        W99617  37.303  44.751   4.146
28035W        W99618  31.921  18.048  11.166
28036W        W99619  11.403   8.166  11.127
28037W        W99620   4.424  19.590   4.200
28038W        W99621  18.395  42.237  13.587
28039W        W99622  11.536  34.506  11.392
28040W        W99623  40.268  40.032  14.523
28041W        W99624  10.273  18.659  12.892
28042W        W99625  20.452  18.971  10.784
28043W        W99626  24.418  37.382   2.866
28044W        W99627  40.917   7.875   0.506
28045W        W99628  27.627   6.388   1.434
28046W        W99629  22.391   0.917  13.098
28047W        W99630  42.473  35.334  10.672
28048W        W99631   6.202  30.635  10.538
28049W        W99632  25.829  32.536  11.070
28050W        W99633  23.160   1.955  11.953
28051W        W99634  27.224  11.131   1.495
28052W        W99635  25.209  23.630   4.547
28053W        W99636  43.593  37.362  14.740
28054W        W99637  23.024   4.374   2.215
28055W        W99638  23.442  18.719   0.674
28056W        W99639  29.002  42.817   1.385
28057W        W99640  27.821   2.280  13.943
28058W        W99641  30.833  39.912  12.528
28059W        W99642  41.296  10.372  10.634
28060W        W99643  15.095  29.154   3.371
28061W        W99644  38.314   8.137  14.470
28062W        W99645  44.957   0.453   4.140
28063W        W99646   3.681  43.297  14.995
28064W        W99647   1.100   9.802   1.796
28065W        W99648  23.210  41.947  10.733
28066W        W99649  12.703   3.970   0.341
28067W        W99650  30.700  23.623   1.971
28068W        W99651  13.001  24.037  10.707
28069W        W99652  23.206  15.508   0.951
28070W        W99653  10.707  37.833  10.679
28071W        W99654  24.182   0.946  13.509
28072W        W99655   2.361  33.686   0.958
28073W        W99656   7.164  42.027  13.862
28074W        W99657  18.681  18.378   2.331
28075W        W99658  32.453  37.788  10.686
28076W        W99659  18.975  19.325   5.171
28077W        W99660  19.476  32.078  14.509
28078W        W99661  43.954  43.768  14.304
28079W        W99662  30.450  13.633  13.286
28080W        W99663  23.181  27.152  12.172
28081W        W99664  29.020  15.653   2.287
28082W        W99665  17.770  26.426  14.394
28083W        W99666  21.492  36.409   3.713
28084W        W99667  36.593  10.754   3.905
28085W        W99668  21.104  29.866   2.875
28086W        W99669  20.694  12.655   4.014
28087W        W99670  18.660  30.195   4.917
28088W        W99671  38.360  41.742   4.587
28089W        W99672  29.123   2.771   1.962
28090W        W99673   4.263  35.938  14.382
28091W        W99674   6.147  24.981  11.889
28092W        W99675  33.176  25.132  13.882
28093W        W99676  22.171  39.235  13.394
28094W        W99677  40.598  44.033   2.241
28095W        W99678  37.586  12.353  13.501
28096W        W99679  43.204   7.509  13.873
28097W        W99680  36.540   4.396  10.477
28098W        W99681   0.591  17.724   0.693
28099W        W99682  26.004  13.620  11.014
28100W        W99683   4.758  28.686  10.726
28101W        W99684  20.527   2.664  13.424
28102W        W99685  31.200  21.535   4.119
28103W        W99686  35.559  43.269   3.925
28104W        W99687  11.352  11.165   4.134
28105W        W99688  26.611  18.509   2.328
28106W        W99689  44.496  16.104   0.353
28107W        W99690  18.671  18.632   3.243
28108W        W99691  34.568   2.775   4.094
28109W        W99692  15.549  27.904   2.969
28110W        W99693  40.521   0.130  13.463
28111W        W99694  27.687   3.326  13.463
28112W        W99695  20.253  18.036   0.073
28113W        W99696  30.046  12.380  13.860
28114W        W99697   1.997  21.156   2.752
28115W        W99698  22.816  28.973   0.811
28116W        W99699  19.617  42.747   4.760
28117W        W99700   7.420  33.003   0.748
28118W        W99701  17.120   8.225   3.080
28119W        W99702  39.899   7.618   3.701
28120W        W99703  40.340  11.579   4.626
28121W        W99704   2.863  40.975   2.082
28122W        W99705  11.358   7.771   1.401
28123W        W99706  13.417  24.155  14.254
28124W        W99707   0.744  40.004   1.988
28125W        W99708  35.920   2.727  11.317
28126W        W99709  26.588  15.018   2.856
28127W        W99710  27.516  27.182   1.074
28128W        W99711  27.999  29.806   4.167
28129W        W99712  24.413  15.413  14.359
28130W        W99713  13.857  35.697  11.519
28131W        W99714  39.043  21.330  12.030
28132W        W99715  35.101  17.296  14.285
28133W        W99716  16.317  26.397   1.459
28134W        W99717  37.693  31.568   2.673
28135W        W99718  22.611  25.433   0.154
28136W        W99719   0.332   3.396  12.420
28137W        W99720  11.861  26.461   5.042
28138W        W99721  37.656  28.052   0.216
28139W        W99722  17.416  33.840  14.340
28140W        W99723  15.549  42.744  13.849
28141W        W99724  34.117  41.115  13.309
28142W        W99725   5.236  19.704   1.335
28143W        W99726  41.457  18.913   2.414
28144W        W99727  28.009   2.960   2.449
28145W        W99728  25.186  16.446  11.228
28146W        W99729   1.148  40.544   1.560
28147W        W99730  23.229  34.367  13.363
28148W        W99731  42.015  43.521  12.933
28149W        W99732  23.980  25.084  13.803
28150W        W99733   9.021  42.829   4.517
28151W        W99734  42.409  41.110  12.125
28152W        W99735  28.656  34.232  11.231
28153W        W99736  17.529  34.930   3.715
28154W        W99737  41.011  21.259   4.923
28155W        W99738  29.451  41.954  10.775
28156W        W99739  31.955   7.289   1.771
28157W        W99740   8.605   2.276  14.452
28158W        W99741  21.680  40.102  11.605
28159W        W99742  33.453  15.663   1.784
28160W        W99743  32.563  35.491  14.319
28161W        W99744  43.977  20.464   2.199
28162W        W99745  24.059  31.255   0.801
28163W        W99746   0.972  16.777  11.049
28164W        W99747  42.908  35.178   1.949
28165W        W99748  35.023  31.517  11.551
28166W        W99749   3.341  17.579  13.367
28167W        W99750  11.584   9.820  10.686
28168W        W99751  23.065   0.228   2.162
28169W        W99752   6.678   6.856   3.681
28170W        W99753  16.084  36.955  11.827
28171W        W99754  15.795  18.000  12.415
28172W        W99755   4.294  12.097   0.942
28173W        W99756  18.467  41.988  14.022
28174W        W99757  43.934   6.747   3.866
28175W        W99758  26.255  10.341   2.738
28176W        W99759  27.631  34.522   1.884
28177W        W99760   6.907  39.397   0.253
28178W        W99761   8.294   8.950   1.793
28179W        W99762  39.206  24.082  13.944
28180W        W99763  29.447   3.396   2.635
28181W        W99764  11.200   0.547  14.183
28182W        W99765  10.577  41.564  14.966
28183W        W99766  38.888  10.641   1.842
28184W        W99767  28.352  43.395   0.300
28185W        W99768   3.923  16.744   1.373
28186W        W99769   7.189  22.744   1.474
28187W        W99770  33.414  27.760  11.887
28188W        W99771  35.002  43.062  13.974
28189W        W99772   3.468  36.012  10.224
28190W        W99773   6.402  40.118   5.008
28191W        W99774   4.690  20.974   4.751
28192W        W99775  37.010  44.883   2.134
28193W        W99776  16.211  37.891   1.530
28194W        W99777  37.525  13.784   1.886
28195W        W99778  26.539  40.022  10.158
28196W        W99779   1.724  41.303   1.979
28197W        W99780  39.546  44.502   3.979
28198W        W99781   4.948  17.811  13.065
28199W        W99782  27.046  40.827  11.834
28200W        W99783  26.526  19.546   3.572
28201W        W99784  33.796  44.741  13.519
28202W        W99785  16.227  18.698   1.370
28203W        W99786  14.097  18.398   2.300
28204W        W99787  22.619   7.050   4.615
28205W        W99788   0.941  31.523  13.916
28206W        W99789  28.997  39.950   0.553
28207W        W99790  20.455  21.193   2.241
28208W        W99791  23.776  43.082   4.596
28209W        W99792  42.503  30.950  14.277
28210W        W99793   9.170   1.798   2.195
28211W        W99794  17.205  33.426  14.062
28212W        W99795  29.395  19.544   3.565
28213W        W99796  32.498  29.007   2.380
28214W        W99797   1.086  18.298  14.378
28215W        W99798  11.272  16.249   3.299
28216W        W99799  13.378  33.517  14.899
28217W        W99800  16.993   8.796   3.763
28218W        W99801  22.433   6.519  11.508
28219W        W99802  12.134   9.082   1.942
28220W        W99803  36.360  17.854  12.404
28221W        W99804   5.555  18.639  10.520
28222W        W99805  44.889   8.861   0.749
28223W        W99806  42.406  29.886  12.178
28224W        W99807  42.362  10.660   2.400
28225W        W99808   5.675  36.475   4.755
28226W        W99809  40.976   2.415  10.724
28227W        W99810  30.067  13.786   3.705
28228W        W99811  30.043   1.978   1.995
28229W        W99812  38.582   7.914   4.650
28230W        W99813  23.811  44.404  13.560
28231W        W99814  17.539  37.540   2.330
28232W        W99815  10.188  39.416  12.692
28233W        W99816  33.701   3.912   3.268
28234W        W99817  12.223  11.767  11.063
28235W        W99818  42.238   5.670  12.454
28236W        W99819  33.897  19.317  13.517
28237W        W99820  20.342  18.712   4.753
28238W        W99821  38.796   5.971  13.373
28239W        W99822  12.526  26.587   3.350
28240W        W99823  27.779  14.497  11.326
28241W        W99824   3.941  31.482  11.089
28242W        W99825  23.358  16.563  10.587
28243W        W99826  40.361  39.299  10.913
28244W        W99827  40.542  22.597   1.209
28245W        W99828  29.154   3.803   1.079
28246W        W99829  44.961   2.469   0.771
28247W        W99830  18.034  24.828  10.186
28248W        W99831  20.651  34.985  10.783
28249W        W99832  25.582  13.203  11.686
28250W        W99833   3.740   9.757  10.723
28251W        W99834   2.678  37.042  10.432
28252W        W99835  13.684  12.885   2.728
28253W        W99836  26.863  38.558   1.766
28254W        W99837  31.421  33.506  10.693
28255W        W99838  36.433  10.343   3.079
28256W        W99839  20.524  35.667   4.736
28257W        W99840  14.439  40.385   1.429
28258W        W99841   3.483   0.078   0.663
28259W        W99842  17.335   4.715   1.246
28260W        W99843  34.819  44.714   4.446
28261W        W99844  39.037  20.606  14.867
28262W        W99845  38.845  27.940   3.650
28263W        W99846  17.438   6.937   3.280
28264W        W99847  18.917  34.886   1.716
28265W        W99848  19.619  15.191  13.617
28266W        W99849  10.043  37.682   1.655
28267W        W99850   3.500  28.154   4.201
28268W        W99851  37.395   7.729  13.952
28269W        W99852  14.357  14.116   4.928
28270W        W99853  33.315  44.494   4.624
28271W        W99854  37.273  11.423   2.111
28272W        W99855   3.141  31.312   0.546
28273W        W99856  38.007  24.036   0.725
28274W        W99857  28.723   3.402   3.630
28275W        W99858  22.495  19.315   4.885
28276W        W99859  33.872  39.144   3.102
28277W        W99860   5.275   1.022   2.651
28278W        W99861  30.425   5.499   0.364
28279W        W99862  41.406  41.512  13.921
28280W        W99863  34.551  16.658   1.942
28281W        W99864  35.551  20.799  11.196
28282W        W99865  39.854   9.430   0.348
28283W        W99866   1.509   0.938   1.813
28284W        W99867  27.163  31.224  13.496
28285W        W99868  29.943  43.066   2.338
28286W        W99869  42.274  30.398   3.118
28287W        W99870   3.823  28.222   1.220
28288W        W99871  38.021   6.859   1.187
28289W        W99872  21.278  22.029  13.459
28290W        W99873   2.503  14.867  14.852
28291W        W99874  17.766  39.954  11.043
28292W        W99875  28.639  21.121  12.164
28293W        W99876  35.441  25.152   2.565
28294W        W99877   4.908  21.180   0.270
28295W        W99878  21.138  11.515   3.096
28296W        W99879  41.342  37.606  12.380
28297W        W99880   2.033  38.554  13.756
28298W        W99881   3.205  43.774  10.947
28299W        W99882  29.228   1.772   4.080
28300W        W99883  23.494  44.955   1.932
28301W        W99884  15.425  16.862  13.469
28302W        W99885   7.245  17.633   3.662
28303W        W99886  32.552  24.471  14.530
28304W        W99887   2.636  27.043  10.711
28305W        W99888  35.381  15.027  14.964
28306W        W99889  11.349  31.503   3.720
28307W        W99890   3.535  16.847  11.929
28308W        W99891   6.221  28.085  12.166
28309W        W99892  15.283  16.617  12.774
28310W        W99893  17.873  17.345  12.511
28311W        W99894   6.862  26.140  11.611
28312W        W99895  18.093  20.679   3.652
28313W        W99896  18.736  16.765   3.621
28314W        W99897  35.849  15.698   3.357
28315W        W99898  17.016  40.819   1.106
28316W        W99899  23.778  26.755   3.204
28317W        W99900  16.067  21.182   3.164
28318W        W99901  27.684  12.378   4.731
28319W        W99902  11.625  44.322   1.451
28320W        W99903  12.504  13.276   3.298
28321W        W99904   8.429  14.686  13.132
28322W        W99905  23.123   2.181  13.607
28323W        W99906   7.255  44.183  13.019
28324W        W99907  26.107  43.185   4.878
28325W        W99908   4.298  31.964  13.254
28326W        W99909  20.033  16.137   0.915
28327W        W99910  28.353  37.579  14.789
28328W        W99911   8.822  22.244  11.656
28329W        W99912   8.329   6.455  11.284
28330W        W99913   6.601  29.137  14.443
28331W        W99914  39.618  43.424   4.184
28332W        W99915  22.429  11.632   9.993
28333W        W99916  36.344  39.088  11.098
28334W        W99917   7.302  43.291   3.362
28335W        W99918  14.774  41.293   2.159
28336W        W99919  29.146   4.489   3.290
28337W        W99920  40.209   9.235   4.535
28338W        W99921  16.168  29.974  14.961
28339W        W99922  12.155   1.049   2.263
28340W        W99923  29.668  11.208  13.502
28341W        W99924  13.749   2.510  14.886
28342W        W99925   3.199   5.385  13.074
28343W        W99926   5.417  37.936   0.925
28344W        W99927  13.755   8.352   0.888
28345W        W99928  40.873  18.137   3.603
28346W        W99929  10.784   9.577   0.747
28347W        W99930  16.083  22.320   4.504
28348W        W99931  19.252  17.020  12.679
28349W        W99932  17.049  26.121  14.815
28350W        W99933   1.317  12.897  13.026
28351W        W99934   8.685  14.331  13.403
28352W        W99935  22.655  17.562  11.568
28353W        W99936   2.337  33.170   4.668
28354W        W99937  36.142  15.331   3.118
28355W        W99938  34.393  31.692  11.135
28356W        W99939  27.494  32.389  13.816
28357W        W99940  38.534  38.388  14.327
28358W        W99941  15.232  37.008   5.060
28359W        W99942  40.109  22.432   3.039
28360W        W99943   8.478  31.787  10.662
28361W        W99944   8.107   4.319  13.139
28362W        W99945  20.097  36.193   2.287
28363W        W99946  43.768   8.258  10.666
28364W        W99947  15.628  25.551  14.325
28365W        W99948   0.324  18.957   3.335
28366W        W99949   6.490   5.828  10.965
28367W        W99950   3.087  35.277  14.463
28368W        W99951   0.376  21.483  13.388
28369W        W99952  20.065   4.273   3.036
28370W        W99953  28.175  41.621  14.784
28371W        W99954  30.876  35.564  14.005
28372W        W99955  32.003  38.066   2.250
28373W        W99956   8.388  21.718   2.287
28374W        W99957   8.702   9.168   4.574
28375W        W99958   9.909  42.718  13.139
28376W        W99959   9.379  13.123  11.004
28377W        W99960   6.818  42.968  13.279
28378W        W99961  32.482   8.599  14.135
28379W        W99962  26.948  28.358  14.451
28380W        W99963  18.061  11.335   4.091
28381W        W99964  35.841  26.932  12.016
28382W        W99965  32.861  11.298  12.364
28383W        W99966   5.030   6.169  13.559
28384W        W99967   6.240  21.779   4.620
28385W        W99968  39.907  24.026   2.186
28386W        W99969   8.123  20.141  11.643
28387W        W99970  28.995  16.598  13.121
28388W        W99971  29.940  20.792   4.782
28389W        W99972  36.326  18.787   5.168
28390W        W99973   5.610  14.397  13.100
28391W        W99974  33.557  12.333   3.989
28392W        W99975  28.501  13.829  12.406
28393W        W99976  21.754  25.862  14.180
28394W        W99977  23.223  28.622   1.164
28395W        W99978  24.632   1.585  13.861
28396W        W99979  23.563  25.643  13.016
28397W        W99980  25.514   9.863   1.871
28398W        W99981   9.500   7.202  11.135
28399W        W99982  26.033  35.008   1.737
28400W        W99983  19.597  15.094  11.583
28401W        W99984   1.811  20.783  13.498
28402W        W99985   4.966   0.798   3.246
28403W        W99986   9.969  40.985  12.073
28404W        W99987  19.641   5.459   2.779
28405W        W99988  21.645  11.251  11.111
28406W        W99989  29.159  12.460   4.610
28407W        W99990  37.462  26.946  12.570
28408W        W99991  42.233  42.314   0.773
28409W        W99992   5.787  10.472  14.284
28410W        W99993   3.263  37.406  13.594
28411W        W99994   0.524  15.612  12.397
28412W        W99995   6.926  20.306  14.443
28413W        W99996  18.887  10.837   4.620
28414W        W99997  30.088   5.239   4.776
28415W        W99998  19.733  17.966   0.086
28416W        W99999  15.610  27.421  12.984
28417W        W    0  41.947  14.869  12.445
28418W        W    1  34.461  15.271  11.744
28419W        W    2  31.757   9.819  14.716
28420W        W    3  25.629  12.498   5.033
28421W        W    4  33.549  12.651   0.397
28422W        W    5  33.900  19.618  11.891
28423W        W    6  20.584  35.769   3.048
28424W        W    7   8.036  43.335  12.642
28425W        W    8  27.262  20.290   3.984
28426W        W    9   9.283  10.145   3.706
28427W        W   10  32.945  40.825   0.259
28428W        W   11   3.922  12.370   0.651
28429W        W   12   5.934   7.607   0.215
28430W        W   13  29.088  24.509  12.349
28431W        W   14  28.270  43.901   2.748
28432W        W   15   0.914  43.265   2.780
28433W        W   16   6.200  26.545   4.134
28434W        W   17  19.513  38.797   0.853
28435W        W   18  42.926  18.376  11.645
28436W        W   19   3.319  19.195  13.842
28437W        W   20  34.362  41.936  14.871
28438W        W   21  13.708   1.168  12.936
28439W        W   22   3.918  29.731  12.587
28440W        W   23  22.678  34.381  13.957
28441W        W   24   0.061  22.198   1.232
28442W        W   25   5.124  16.325   2.608
28443W        W   26  28.311   4.213   2.117
28444W        W   27   8.591  30.697   0.861
28445W        W   28   0.116   8.263   2.279
28446W        W   29  42.211  13.591  14.907
28447W        W   30  24.181  38.655  10.753
28448W        W   31  20.788  30.751   3.657
28449W        W   32  41.479   7.417   3.650
28450W        W   33  38.971   1.770   0.665
28451W        W   34  19.070  40.554   3.311
28452W        W   35   5.299  13.739  13.948
28453W        W   36  40.911  34.387   0.316
28454W        W   37   0.899  34.009  13.280
28455W        W   38  12.956   0.215  11.199
28456W        W   39  18.056  21.684  12.471
28457W        W   40  12.672  25.634   0.770
28458W        W   41  34.691   3.158  14.683
28459W        W   42  33.732  26.045  14.913
28460W        W   43  25.960  19.036  12.034
28461W        W   44  22.149  10.462  10.251
28462W        W   45  23.906   8.095   1.020
28463W        W   46  24.555  21.034  10.955
28464W        W   47  38.221  27.424  11.138
28465W        W   48  37.260   5.610  13.311
28466W        W   49  27.769  32.646   2.699
28467W        W   50  31.666  35.378  11.194
28468W        W   51  32.072   1.271  11.260
28469W        W   52  18.375   0.384  12.150
28470W        W   53  38.476  31.995   1.419
28471W        W   54  22.505  27.578  12.033
28472W        W   55  39.911  15.271  11.193
28473W        W   56   1.785  32.068   0.904
28474W        W   57   9.831  39.073  12.072
28475W        W   58  16.638  36.852   4.999
28476W        W   59   0.281  38.213   3.991
28477W        W   60  31.057   1.819   2.153
28478W        W   61   2.445   6.682  12.036
28479W        W   62  28.900  28.775   1.670
28480W        W   63  21.748  15.658   3.394
28481W        W   64  41.581  26.704  10.554
28482W        W   65  26.521  38.379  10.657
28483W        W   66  17.236  39.937   0.960
28484W        W   67  35.773   4.288  13.366
28485W        W   68  43.921  39.871   3.637
28486W        W   69  22.723  37.865  13.493
28487W        W   70  44.182   1.936  14.928
28488W        W   71   3.345   3.317  10.572
28489W        W   72  14.764   3.809   0.296
28490W        W   73   2.077  37.878  12.838
28491W        W   74   6.610  22.756  12.094
28492W        W   75   4.466  24.207   4.904
28493W        W   76  22.252  44.124  13.948
28494W        W   77  25.782  24.252  12.038
28495W        W   78  38.011   2.217   1.921
28496W        W   79  36.475  12.227  10.930
28497W        W   80  32.534   6.758  13.324
28498W        W   81  10.646   5.172   1.257
28499W        W   82  19.332  33.171  13.045
28500W        W   83  17.122  34.888  10.035
28501W        W   84  33.473   2.319  11.390
28502W        W   85  36.509   6.784   4.245
28503W        W   86  35.723  38.023   0.327
28504W        W   87  12.831  35.427  11.654
28505W        W   88  44.337  26.449   3.272
28506W        W   89  41.351   7.568   0.444
28507W        W   90  37.107   4.639   2.379
28508W        W   91  11.472  34.306   4.280
28509W        W   92  35.581   6.901  11.632
28510W        W   93  18.022  20.528  13.298
28511W        W   94   0.243  43.399  10.768
28512W        W   95  36.932   1.799   2.016
28513W        W   96  15.227  37.825  14.015
28514W        W   97  41.801  11.403   2.342
28515W        W   98   2.478  26.283  13.583
28516W        W   99  43.410  29.455   4.328
28517W        W  100  20.828  21.554   0.052
28518W        W  101  30.174   0.401   3.321
28519W        W  102  44.273  39.776  12.783
28520W        W  103  32.848  12.882  14.373
28521W        W  104  26.942  42.802   3.699
28522W        W  105  24.902  36.114   2.858
28523W        W  106   8.740  12.086   2.668
28524W        W  107   7.607   3.728   1.373
28525W        W  108  21.334  31.102   0.348
28526W        W  109   6.314  21.474  13.713
28527W        W  110  23.801  36.952   4.097
28528W        W  111   0.055   7.712   3.036
28529W        W  112  18.444  23.187   1.338
28530W        W  113  18.629  13.230  14.017
28531W        W  114  33.138  25.065  10.460
28532W        W  115   5.698  33.974  14.255
28533W        W  116  24.409   9.207   2.727
28534W        W  117   2.718  16.818  14.637
28535W        W  118  39.650  14.228   4.917
28536W        W  119  31.110  34.314  13.059
28537W        W  120   0.003  27.114  11.590
28538W        W  121  18.299  14.235  12.711
28539W        W  122  34.139  16.664  10.867
28540W        W  123  26.464  33.533   0.309
28541W        W  124  35.411  44.571  14.763
28542W        W  125  26.056  28.056  10.709
28543W        W  126  11.258  44.292   0.736
28544W        W  127  15.876  25.563   4.542
28545W        W  128  25.192  21.740  13.904
28546W        W  129   7.235  17.995   3.315
28547W        W  130  31.031  38.910  11.625
28548W        W  131  16.976  17.317   1.933
28549W        W  132  39.444  19.465   1.272
28550W        W  133   5.199  37.918  10.958
28551W        W  134   9.324   4.378  13.462
28552W        W  135   7.625  43.489  12.390
28553W        W  136  10.765   6.674   4.849
28554W        W  137   7.497  12.051   2.695
28555W        W  138  26.208  17.724  11.548
28556W        W  139  25.485   7.636   1.839
28557W        W  140  22.467  19.771   4.537
28558W        W  141  13.719  35.524   2.636
28559W        W  142  44.336  10.682  11.016
28560W        W  143  16.986  43.381  13.397
28561W        W  144  40.542  42.763   1.858
28562W        W  145   5.724   2.802  10.731
28563W        W  146  25.717  36.107   4.606
28564W        W  147  23.106  32.887  14.473
28565W        W  148  15.044   8.772  14.836
28566W        W  149   0.481   3.011  12.722
28567W        W  150  14.680  29.468   3.317
28568W        W  151   5.907   9.457  11.581
28569W        W  152  18.214   3.606   2.730
28570W        W  153  19.145  12.206   2.802
28571W        W  154  42.904  20.531  10.773
28572W        W  155  33.949  33.028  12.175
28573W        W  156   6.492  27.505   0.441
28574W        W  157   8.717  23.634  12.465
28575W        W  158  22.121  19.286   3.648
28576W        W  159  24.109  21.090   5.026
28577W        W  160  17.174   1.459   1.467
28578W        W  161  28.865  20.655  12.194
28579W        W  162  13.433  20.819   4.798
28580W        W  163   6.460  28.147   1.806
28581W        W  164   2.951  36.943   0.882
28582W        W  165  25.493  16.503   2.271
28583W        W  166  13.041  44.726   2.197
28584W        W  167  36.860  32.215   2.063
28585W        W  168  21.042  16.033   9.878
28586W        W  169  29.345   4.291   1.045
28587W        W  170  12.174  36.967  11.704
28588W        W  171   0.316  34.915  10.841
28589W        W  172  40.477   0.860  12.887
28590W        W  173   3.995  30.212  13.882
28591W        W  174  43.153  23.620   4.093
28592W        W  175  18.185  23.896   5.025
28593W        W  176  33.363  36.977  12.508
28594W        W  177  35.323   4.739   2.802
28595W        W  178  28.523  13.176   0.230
28596W        W  179   3.374   9.434  11.483
28597W        W  180   1.935  40.080   0.927
28598W        W  181   0.859   5.036   1.252
28599W        W  182  35.646   2.890   2.112
28600W        W  183   9.128  17.316  14.274
28601W        W  184  10.097  29.957   1.317
28602W        W  185  22.480  19.688   2.780
28603W        W  186  17.744  44.941  13.506
28604W        W  187  36.292   6.464   5.072
28605W        W  188   3.157  28.638  11.266
28606W        W  189  24.445   4.893  12.850
28607W        W  190  39.052  37.279   4.920
28608W        W  191   4.773  21.469   1.275
28609W        W  192   4.222  41.505  10.709
28610W        W  193  15.681  19.081  12.371
28611W        W  194   9.352   6.757  13.785
28612W        W  195  34.777  42.192  12.033
28613W        W  196   8.024   3.670   1.080
28614W        W  197  26.342  42.920  13.113
28615W        W  198  21.700  40.086  14.852
28616W        W  199  38.647  44.261  11.875
28617W        W  200  12.759  17.439  10.667
28618W        W  201  27.958  14.106   3.618
28619W        W  202  12.995  33.766   4.942
28620W        W  203   1.420  21.531   3.761
28621W        W  204  23.911   6.709   1.702
28622W        W  205  30.080  33.321  10.272
28623W        W  206  40.438   3.736   0.958
28624W        W  207  24.960   3.188  12.111
28625W        W  208  28.419  25.540   4.891
28626W        W  209   2.368  27.990   3.714
28627W        W  210  24.608  22.995   0.818
28628W        W  211  27.075  28.317  11.885
28629W        W  212  11.962  36.047  13.769
28630W        W  213   3.713  40.070   3.584
28631W        W  214  15.577  27.683   4.999
28632W        W  215  38.707  41.190  10.373
28633W        W  216  19.777  16.580   0.866
28634W        W  217  22.199  26.970  12.016
28635W        W  218  35.338  37.343  14.853
28636W        W  219  27.244  10.549   5.170
28637W        W  220   3.697  19.235   0.997
28638W        W  221  44.203  18.746   4.267
28639W        W  222  35.440   4.187   1.810
28640W        W  223  37.880  32.811  14.336
28641W        W  224  19.319  25.716   2.179
28642W        W  225  43.512  42.376  11.914
28643W        W  226   8.836  10.558  14.981
28644W        W  227  36.163   9.530  13.414
28645W        W  228   2.744  16.345  14.467
28646W        W  229   8.378  28.668   1.225
28647W        W  230   4.138  35.119   0.920
28648W        W  231  27.969  29.100  10.152
28649W        W  232   8.907  37.108   1.092
28650W        W  233  26.215  43.262   3.109
28651W        W  234  14.903   7.277   1.368
28652W        W  235  27.711   0.042   3.816
28653W        W  236   7.338  14.779  14.024
28654W        W  237  20.997  17.175  14.886
28655W        W  238  18.315  40.626   2.009
28656W        W  239   3.492  10.297   2.206
28657W        W  240   0.989  24.012  13.877
28658W        W  241  24.728  37.823   4.525
28659W        W  242  12.519  12.924  12.574
28660W        W  243  27.878   7.729   0.836
28661W        W  244  12.688   9.207   0.206
28662W        W  245  31.951  29.863   3.245
28663W        W  246  37.584  25.267  13.453
28664W        W  247  39.853  29.946   3.169
28665W        W  248  38.087   6.313  11.195
28666W        W  249   5.840  32.506  13.067
28667W        W  250  40.715   9.019  14.914
28668W        W  251  31.145   4.954   2.296
28669W        W  252  38.666  12.276   4.295
28670W        W  253  18.718  27.084  14.159
28671W        W  254  22.502   9.843  11.429
28672W        W  255  21.976  36.458  13.624
28673W        W  256  11.477   3.257   2.281
28674W        W  257  11.541  32.649   3.279
28675W        W  258  34.135  32.269  13.926
28676W        W  259  39.522  37.078   4.606
28677W        W  260   2.442   4.198   0.018
28678W        W  261  25.711   2.841  13.912
28679W        W  262  39.275  32.508   0.344
28680W        W  263  30.050  44.847  11.386
28681W        W  264  29.077  10.255  10.860
28682W        W  265   7.194  26.517  12.086
28683W        W  266  38.328  26.909   1.917
28684W        W  267  23.742  40.433   1.347
28685W        W  268  21.147  44.475   4.625
28686W        W  269  28.146  33.393   1.482
28687W        W  270  41.138  39.069   0.470
28688W        W  271  44.308  32.378  12.583
28689W        W  272  30.019  38.817  13.485
28690W        W  273   7.552  13.699  11.216
28691W        W  274  34.079  12.153  14.480
28692W        W  275  41.071  14.423  14.947
28693W        W  276  35.086  22.192  10.641
28694W        W  277  43.245  29.876  12.403
28695W        W  278  15.588  33.471   1.757
28696W        W  279  34.971  35.436  14.461
28697W        W  280   4.368   1.945   0.875
28698W        W  281  23.089  10.737   2.848
28699W        W  282  26.706  32.082  12.601
28700W        W  283  43.260  19.798  10.750
28701W        W  284  13.120  31.612  13.011
28702W        W  285  16.746  26.547  13.856
28703W        W  286  19.659  39.130  13.048
28704W        W  287   0.669  22.298   0.296
28705W        W  288  29.946  15.690  13.458
28706W        W  289  38.934  18.084  11.181
28707W        W  290   1.311  24.778  12.841
28708W        W  291   9.659  40.433   0.066
28709W        W  292  28.028  44.612  12.614
28710W        W  293   7.839  31.694   3.179
28711W        W  294  43.824  27.226   4.748
28712W        W  295  31.968  38.072   3.330
28713W        W  296   6.050  40.994  14.594
28714W        W  297  33.089  37.609   3.697
28715W        W  298  21.051   4.380   0.935
28716W        W  299  11.655  42.478   2.832
28717W        W  300  34.161  22.331  13.900
28718W        W  301  16.312  31.699  13.996
28719W        W  302  41.363  16.942  14.267
28720W        W  303  27.687  42.300   4.092
28721W        W  304  29.027  19.148   4.129
28722W        W  305  32.723  19.813   1.689
28723W        W  306  28.542  21.314  14.252
28724W        W  307  33.882   0.158   2.124
28725W        W  308  32.394  34.676   1.390
28726W        W  309  22.269   2.885  10.506
28727W        W  310   1.649  25.799   3.826
28728W        W  311  12.374  26.890  14.327
28729W        W  312   8.398  42.435   2.498
28730W        W  313  19.701   1.422  11.948
28731W        W  314  19.430  12.109  12.550
28732W        W  315   8.355  44.859  13.995
28733W        W  316  35.996  32.118  13.972
28734W        W  317  27.636  31.749   1.930
28735W        W  318  10.350  20.866  14.416
28736W        W  319  42.993   1.353   4.370
28737W        W  320   3.684  19.561  12.059
28738W        W  321  19.797  34.453   0.764
28739W        W  322  40.371  44.058   2.695
28740W        W  323  38.122  29.556   1.531
28741W        W  324  34.928  22.392   4.198
28742W        W  325  10.087  21.501  13.049
28743W        W  326   5.809  28.198  12.918
28744W        W  327  38.748  42.089   1.223
28745W        W  328  34.886  39.552  14.087
28746W        W  329  29.071  20.784   2.781
28747W        W  330   8.298  11.824   1.367
28748W        W  331  21.174  21.058   5.097
28749W        W  332  20.057  38.294   2.790
28750W        W  333  26.072   1.895   3.091
28751W        W  334   8.862  42.456  14.765
28752W        W  335   9.784  10.839   4.366
28753W        W  336   1.759  16.812  12.012
28754W        W  337  19.236  33.281   4.623
28755W        W  338   7.465  12.325   0.639
28756W        W  339   7.384  12.580   2.706
28757W        W  340  24.536  32.051  10.731
28758W        W  341  28.157  38.404  11.554
28759W        W  342   4.691  39.969   1.872
28760W        W  343   5.201   8.848  14.031
28761W        W  344  17.076  26.228   3.594
28762W        W  345   6.092  26.028  12.638
28763W        W  346   1.916  32.945   4.937
28764W        W  347   5.936  34.644   4.125
28765W        W  348  30.060  26.948  13.128
28766W        W  349   2.250   7.588   4.961
28767W        W  350   5.282   9.841  11.092
28768W        W  351   9.579   0.974  12.023
28769W        W  352  44.313  21.647   4.536
28770W        W  353  12.808  31.931   4.754
28771W        W  354  40.301   5.220   2.837
28772W        W  355   4.564   4.151  11.245
28773W        W  356   0.019  18.543  11.041
28774W        W  357  26.585  37.386   3.698
28775W        W  358  13.239  39.925  10.680
28776W        W  359  10.596  30.889  14.347
28777W        W  360  27.299  34.976   4.114
28778W        W  361  21.119   5.069   4.666
28779W        W  362  39.789  44.952   4.101
28780W        W  363  16.775   2.052   1.848
28781W        W  364  43.868   4.212  13.378
28782W        W  365  27.533  23.069  13.337
28783W        W  366  38.335  43.463   4.514
28784W        W  367  29.675   3.178  14.425
28785W        W  368   8.332  30.058  13.836
28786W        W  369  42.673  40.828  14.419
28787W        W  370  32.662  41.410   1.213
28788W        W  371  19.301  32.396  13.704
28789W        W  372  40.099  39.901  10.536
28790W        W  373  33.364  27.722   2.624
28791W        W  374  35.921  42.325   0.196
28792W        W  375  11.610   3.677  14.720
28793W        W  376  18.233  22.804   1.806
28794W        W  377  38.303  38.341  11.400
28795W        W  378   3.133  23.017   2.235
28796W        W  379  34.846   9.114   0.762
28797W        W  380  33.551  14.538   2.645
28798W        W  381   7.086  19.836  10.925
28799W        W  382   6.647  36.549  12.494
28800W        W  383  19.196  35.166   0.696
28801W        W  384  13.131  16.595  13.009
28802W        W  385  41.321   3.348  13.118
28803W        W  386  26.873  42.882  13.013
28804W        W  387  24.757  32.663  11.912
28805W        W  388   3.436  21.749   1.793
28806W        W  389  39.977  35.427   0.754
28807W        W  390  35.198  11.109  13.452
28808W        W  391  20.227  24.681  14.931
28809W        W  392  28.720   1.721   0.021
28810W        W  393  22.622  11.775   0.269
28811W        W  394  40.808  27.964   4.951
28812W        W  395  22.028  22.157   2.324
28813W        W  396  22.224  42.402   3.743
28814W        W  397  26.071  43.737   3.839
28815W        W  398  13.063  38.330   0.885
28816W        W  399  44.744  33.125   0.462
28817W        W  400  35.972  32.967   4.592
28818W        W  401  13.005   9.307  12.605
28819W        W  402   1.947   0.708  11.767
28820W        W  403  26.900  42.880   5.274
28821W        W  404  23.466  43.658   2.659
28822W        W  405  44.029  36.606   1.943
28823W        W  406   5.717  27.550   1.818
28824W        W  407   6.874  36.364  12.062
28825W        W  408  32.363  26.741  13.955
28826W        W  409   4.941  40.478   0.442
28827W        W  410  11.623  26.226  14.331
28828W        W  411  30.111  32.436   3.300
28829W        W  412  39.855  43.302   0.815
28830W        W  413  33.422   2.281  10.855
28831W        W  414  10.237  15.900   4.146
28832W        W  415  38.853  26.516   3.703
28833W        W  416  20.217   8.027   0.160
28834W        W  417   3.955  38.380  13.963
28835W        W  418  41.005   7.412   4.664
28836W        W  419  18.791   2.785   2.750
28837W        W  420  43.802  35.997   2.635
28838W        W  421  20.235  25.636   0.877
28839W        W  422  12.192  26.433   2.580
28840W        W  423  31.912  14.379   4.184
28841W        W  424  36.386  36.601  12.090
28842W        W  425  37.985  16.539   2.248
28843W        W  426  20.264  43.130  10.807
28844W        W  427  30.565  28.753   0.800
28845W        W  428  24.751   5.120   4.163
28846W        W  429  19.337  26.757  12.017
28847W        W  430  17.332   4.425  13.341
28848W        W  431  18.061   6.289   4.330
28849W        W  432   2.433  12.214   2.150
28850W        W  433  16.644  44.378   1.947
28851W        W  434   0.218   3.891  12.547
28852W        W  435   0.332   3.472   2.170
28853W        W  436   0.270   8.422  10.778
28854W        W  437  22.427  20.581  13.539
28855W        W  438  35.648   0.499  12.511
28856W        W  439  25.301  43.908  12.898
28857W        W  440  14.827   5.802   4.476
28858W        W  441  13.621  31.690   3.648
28859W        W  442  14.321  37.582   0.182
28860W        W  443  34.995  24.075   2.033
28861W        W  444  11.545  16.789  10.198
28862W        W  445   0.202  27.726   2.755
28863W        W  446  39.077  35.964   0.231
28864W        W  447  39.980  20.568   0.848
28865W        W  448  39.280  41.118  10.767
28866W        W  449  14.765  30.540   4.297
28867W        W  450  29.373  21.927   4.680
28868W        W  451  37.363  12.689   0.535
28869W        W  452   9.403  14.681  11.782
28870W        W  453  13.520   4.998   0.765
28871W        W  454  37.790  39.798  13.823
28872W        W  455  28.627  42.530   0.788
28873W        W  456  34.860  20.200   1.171
28874W        W  457  13.319  26.574   4.139
28875W        W  458  17.773  40.976  11.088
28876W        W  459   7.770  31.579   4.125
28877W        W  460   9.791  29.253   3.809
28878W        W  461  11.126  39.945   1.293
28879W        W  462  32.262  22.414   0.291
28880W        W  463   3.027  15.669   1.488
28881W        W  464  24.643  43.776  10.629
28882W        W  465  14.320  42.926   2.186
28883W        W  466  43.812  39.476  14.860
28884W        W  467   3.204  33.006  13.506
28885W        W  468  20.530   5.871   2.668
28886W        W  469  21.043  33.991   1.296
28887W        W  470  36.414  38.568  13.135
28888W        W  471  40.614  25.043   1.444
28889W        W  472   1.064  14.311  14.840
28890W        W  473  25.730   0.521  11.122
28891W        W  474   8.336  24.544  14.830
28892W        W  475  34.145  21.046   4.935
28893W        W  476  44.984  16.624   2.345
28894W        W  477  22.224  14.262  12.678
28895W        W  478  13.965  33.389   2.461
28896W        W  479  22.226  36.488   0.100
28897W        W  480   8.236  37.868   0.045
28898W        W  481  35.543   0.930  14.763
28899W        W  482   0.336  36.532  12.605
28900W        W  483  24.823  16.716  12.051
28901W        W  484  43.582  32.917   2.254
28902W        W  485  20.940  20.743   2.695
28903W        W  486  21.131  18.293  13.832
28904W        W  487  41.118  44.045   2.447
28905W        W  488  17.902  21.720   4.830
28906W        W  489   0.950  30.842   4.567
28907W        W  490  18.810  10.053   2.713
28908W        W  491  30.137  19.343  12.550
28909W        W  492  35.474  32.154  13.291
28910W        W  493  44.445   5.678   2.361
28911W        W  494  41.712  36.404  10.710
28912W        W  495   5.212  21.787  11.130
28913W        W  496  29.915  32.033   1.965
28914W        W  497   5.657  21.896   0.596
28915W        W  498  25.739  15.080  14.466
28916W        W  499  18.425  34.700  12.553
28917W        W  500  42.585  44.937   1.302
28918W        W  501   6.752  10.176   1.778
28919W        W  502  29.427  36.547   2.325
28920W        W  503  12.826  41.845   2.288
28921W        W  504  11.667   2.283   0.918
28922W        W  505  13.132  22.981  13.822
28923W        W  506   6.784   9.783   2.567
28924W        W  507  10.746  12.249   2.211
28925W        W  508  14.561   3.318   0.333
28926W        W  509  28.396   1.624  13.301
28927W        W  510  36.936   2.859   0.908
28928W        W  511   4.237  43.073   4.072
28929W        W  512  36.435  12.076   1.899
28930W        W  513  40.374  29.031   2.714
28931W        W  514  41.741  31.546   1.466
28932W        W  515  15.138  23.243   0.241
28933W        W  516  31.973  18.174   0.020
28934W        W  517  42.424  15.608  11.995
28935W        W  518  31.965   7.847   1.706
28936W        W  519  36.514  13.857  11.969
28937W        W  520  35.010  32.363   0.313
28938W        W  521   8.936   5.718   1.030
28939W        W  522  11.822   3.892  12.922
28940W        W  523  14.886  27.548  14.134
28941W        W  524  35.093  29.341  11.115
28942W        W  525   5.980   3.948   0.430
28943W        W  526   9.863   1.377  11.876
28944W        W  527  12.993  34.461  14.819
28945W        W  528  15.682  41.271   0.055
28946W        W  529  28.336  15.506  11.033
28947W        W  530   9.846   7.728   1.332
28948W        W  531  10.728   5.678  12.831
28949W        W  532   4.694  14.657  11.933
28950W        W  533  34.864  32.862   1.250
28951W        W  534  20.985  21.174   3.672
28952W        W  535   4.237  33.446   2.855
28953W        W  536   2.069  27.240  11.127
28954W        W  537  19.344  28.034   0.445
28955W        W  538  22.977  38.979  12.988
28956W        W  539  16.966  26.995  12.440
28957W        W  540   3.981  27.338  11.990
28958W        W  541  22.571  37.416  10.065
28959W        W  542   3.717   9.905  14.447
28960W        W  543  19.048  25.306  12.916
28961W        W  544  36.943  27.598   3.214
28962W        W  545  15.230  14.748   1.157
28963W        W  546  44.211  25.044   2.909
28964W        W  547  21.599   2.308   3.806
28965W        W  548  17.378  31.087  13.502
28966W        W  549  27.504  35.111   3.680
28967W        W  550  30.816  44.960   2.306
28968W        W  551  43.059  23.943   2.977
28969W        W  552   7.878  20.603   4.982
28970W        W  553   5.427  34.527  14.914
28971W        W  554  41.860  30.975   1.314
28972W        W  555  33.328  43.430  14.100
28973W        W  556  36.499  35.376  11.913
28974W        W  557  36.504  34.896  12.113
28975W        W  558   4.222  10.222   0.373
28976W        W  559  29.847  27.805  14.436
28977W        W  560   4.762  43.475   3.235
28978W        W  561  15.185  26.256   1.795
28979W        W  562  42.102  11.832   3.738
28980W        W  563   7.773   2.763  11.641
28981W        W  564  42.635  22.972  13.085
28982W        W  565  20.033  36.646  10.877
28983W        W  566   0.775  36.918   1.183
28984W        W  567  37.933   3.776   3.053
28985W        W  568   3.384  35.746   5.591
28986W        W  569  17.842  33.410   2.321
28987W        W  570  14.707  40.507  10.689
28988W        W  571  14.229  17.081   1.883
28989W        W  572  24.218   4.272   0.225
28990W        W  573  42.476  42.029  12.608
28991W        W  574  16.643  16.880   0.558
28992W        W  575   6.296   9.073   2.392
28993W        W  576  29.060  16.994   0.011
28994W        W  577  39.446   5.520   4.662
28995W        W  578  36.518   9.606  13.806
28996W        W  579   2.348  24.056   1.703
28997W        W  580  40.321  37.386   1.453
28998W        W  581  14.100  32.838  11.927
28999W        W  582  42.622  16.090   1.340
29000W        W  583  36.621  14.234  10.521
29001W        W  584  13.244  33.925  11.660
29002W        W  585   2.374  44.686  10.205
29003W        W  586  44.330  16.965   2.851
29004W        W  587  32.693  10.823  14.496
29005W        W  588   1.360  30.444   1.358
29006W        W  589  15.156  22.950  12.979
29007W        W  590  15.188   5.491  13.941
29008W        W  591  12.142  29.300   2.014
29009W        W  592   5.450  12.765  10.451
29010W        W  593   6.989   6.200   2.641
29011W        W  594  26.471  29.162   3.934
29012W        W  595   2.569  34.919   3.260
29013W        W  596   0.830  39.009   0.509
29014W        W  597  18.533  23.467   4.214
29015W        W  598  17.112  34.627  10.476
29016W        W  599  36.027   6.357   2.825
29017W        W  600  37.848  37.486  14.731
29018W        W  601  41.571   0.169   4.238
29019W        W  602  41.198  24.922   4.160
29020W        W  603  33.365  24.810   4.135
29021W        W  604   4.728  43.062   4.197
29022W        W  605  34.971  32.886  11.586
29023W        W  606   5.586  34.813  13.432
29024W        W  607  27.941  28.883   1.723
29025W        W  608  34.748   0.376  11.619
29026W        W  609  29.198   5.556  14.327
29027W        W  610   8.799  19.976   4.221
29028W        W  611   2.849   9.093  14.011
29029W        W  612  16.032   4.828  12.372
29030W        W  613  44.095   6.628  11.101
29031W        W  614   7.553  41.781   0.005
29032W        W  615   0.190  30.549   1.155
29033W        W  616   1.721  36.868  14.450
29034W        W  617  12.896  32.963   3.358
29035W        W  618  21.998   4.167  14.440
29036W        W  619  34.426   0.752  11.603
29037W        W  620   8.645  44.044   0.101
29038W        W  621  31.669   5.828  11.928
29039W        W  622   7.796   9.186   1.782
29040W        W  623  42.037  17.488   4.123
29041W        W  624  41.925  43.504   0.004
29042W        W  625  20.234  34.838  14.799
29043W        W  626  37.952  35.517  14.935
29044W        W  627  22.519  26.700  11.722
29045W        W  628  26.600  23.209  13.023
29046W        W  629  36.326  37.417   0.076
29047W        W  630  38.920   2.040  14.176
29048W        W  631  29.382   0.875   4.592
29049W        W  632   6.980  20.422   3.108
29050W        W  633  39.770  30.432  11.893
29051W        W  634  17.845  21.791  12.009
29052W        W  635   2.175  33.837  11.083
29053W        W  636  24.722   1.100  12.747
29054W        W  637  27.099  27.012   3.631
29055W        W  638   7.813   9.353   2.280
29056W        W  639  18.780  19.744  14.789
29057W        W  640  13.743  44.954   1.367
29058W        W  641  12.391  18.655   2.113
29059W        W  642  38.063  26.112  12.044
29060W        W  643   6.747  13.696  13.012
29061W        W  644  18.347  29.001   2.312
29062W        W  645  22.512  22.966   0.449
29063W        W  646  18.859  13.784  14.817
29064W        W  647  15.419   9.701  13.792
29065W        W  648  28.899  17.366   1.806
29066W        W  649  37.329  11.059  11.199
29067W        W  650   7.259  18.010  13.454
29068W        W  651  37.073  19.365  10.634
29069W        W  652  32.213  32.799   4.841
29070W        W  653  16.225   9.177   4.443
29071W        W  654   3.976  35.024  11.497
29072W        W  655   8.636  39.909   1.674
29073W        W  656  13.550   1.835   1.166
29074W        W  657   5.944  29.064   3.203
29075W        W  658  37.023   1.996  13.866
29076W        W  659  34.934  24.899   1.201
29077W        W  660  33.623  44.976  13.021
29078W        W  661  23.002  30.214   0.227
29079W        W  662  41.713   3.396  12.193
29080W        W  663   9.111  36.423  10.561
29081W        W  664  13.586   9.278   2.770
29082W        W  665  40.849  17.332   1.699
29083W        W  666  36.246  43.420  10.846
29084W        W  667   6.742  39.104  10.262
29085W        W  668  12.564   5.929   0.389
29086W        W  669  16.875  18.780   4.552
29087W        W  670   9.837  30.548  13.157
29088W        W  671  36.959  10.803  12.034
29089W        W  672  11.679  18.057  14.070
29090W        W  673  35.965  34.955   0.346
29091W        W  674  43.313  43.490  13.030
29092W        W  675  38.411  41.825   0.401
29093W        W  676  39.445   0.463   0.243
29094W        W  677  35.842  35.609  13.054
29095W        W  678  33.402  10.393  10.401
29096W        W  679  23.654   6.725   2.676
29097W        W  680  43.865  14.733   0.034
29098W        W  681  43.965  41.201  14.882
29099W        W  682   6.850   7.217   1.737
29100W        W  683  40.033  12.059  12.623
29101W        W  684  12.625  21.016   1.260
29102W        W  685  27.138  13.651  14.854
29103W        W  686  18.978  44.877  12.879
29104W        W  687  26.936  30.603   1.967
29105W        W  688  15.257  11.830   0.763
29106W        W  689  21.715  44.394  14.266
29107W        W  690  27.913  30.179  14.015
29108W        W  691  16.926   8.998   1.894
29109W        W  692  23.711  28.471  10.465
29110W        W  693  38.628  39.810   1.354
29111W        W  694  14.711  40.027   4.199
29112W        W  695   7.629   7.168   2.899
29113W        W  696   7.205  26.024   0.093
29114W        W  697   9.766  14.418   4.896
29115W        W  698   7.664  13.859   1.368
29116W        W  699  25.653  34.186   1.186
29117W        W  700  10.168  30.497  13.576
29118W        W  701   7.600  20.667  13.476
29119W        W  702  36.428  30.887   0.678
29120W        W  703   6.304  27.732   0.911
29121W        W  704  34.804  21.276  10.294
29122W        W  705  40.990  27.631  14.808
29123W        W  706  18.826  19.526  12.950
29124W        W  707  10.511  22.773   2.198
29125W        W  708  27.276  14.611   2.772
29126W        W  709  19.301  17.059   1.557
29127W        W  710   7.684  15.474  10.810
29128W        W  711  12.964  36.521   4.094
29129W        W  712  26.094  41.963   2.986
29130W        W  713   6.925   5.789  10.678
29131W        W  714  16.769  38.569   3.303
29132W        W  715  27.556  34.592   4.859
29133W        W  716   2.808  39.477   4.797
29134W        W  717  20.193  24.971  11.622
29135W        W  718   0.687  15.314   2.266
29136W        W  719  15.715  14.342  13.450
29137W        W  720  32.906  38.494   2.966
29138W        W  721  28.166   8.652   3.862
29139W        W  722  35.608  30.325   4.881
29140W        W  723  30.111  33.448   3.326
29141W        W  724   2.678  14.705  12.642
29142W        W  725  23.900  33.952   3.466
29143W        W  726  27.950  35.040  12.029
29144W        W  727  20.092  11.177   0.746
29145W        W  728   5.137  23.209  12.898
29146W        W  729   4.884  17.772   2.660
29147W        W  730  22.188  22.264  13.547
29148W        W  731  32.212  38.335  12.103
29149W        W  732  35.582  17.734   4.529
29150W        W  733  23.189  24.481   4.845
29151W        W  734  24.247  38.667   3.861
29152W        W  735  12.505  43.695  11.945
29153W        W  736  18.210  20.478  14.718
29154W        W  737   9.770  39.896  10.586
29155W        W  738  42.976  13.711   0.438
29156W        W  739  27.677  33.453  14.418
29157W        W  740  24.307   4.412  11.318
29158W        W  741  11.384  39.474   1.228
29159W        W  742  40.440   6.157   4.238
29160W        W  743   7.866  12.085  12.099
29161W        W  744   0.078  32.356   3.262
29162W        W  745   2.006  44.794  14.472
29163W        W  746   8.083   8.179  10.709
29164W        W  747  36.883  32.009   3.133
29165W        W  748  19.861  22.726   2.168
29166W        W  749  36.738  13.730  13.390
29167W        W  750  27.979  37.937  14.871
29168W        W  751  17.506   0.951   3.353
29169W        W  752  38.856  34.023  13.097
29170W        W  753  40.793  39.366   2.838
29171W        W  754  32.352  14.073   0.301
29172W        W  755   8.655  40.348   5.286
29173W        W  756  17.754  27.865  12.060
29174W        W  757  16.585  33.953   2.837
29175W        W  758   6.121  28.444   0.450
29176W        W  759  10.056  14.240  12.454
29177W        W  760  44.994  22.148  14.553
29178W        W  761  34.532  28.767   1.107
29179W        W  762  19.255  13.559   1.722
29180W        W  763  44.891  11.192   3.212
29181W        W  764  41.690  17.549   1.761
29182W        W  765  15.338  41.425  14.375
29183W        W  766   2.264  15.855  13.908
29184W        W  767   6.817  35.934  14.999
29185W        W  768  40.562  34.889   0.764
29186W        W  769  33.062  23.985  12.378
29187W        W  770  12.350  41.332  13.031
29188W        W  771  40.827  43.216   1.478
29189W        W  772  21.707  34.710   2.134
29190W        W  773  31.644   8.279  12.508
29191W        W  774  44.538  43.223  14.739
29192W        W  775  21.796   4.022   2.990
29193W        W  776  10.009  19.124  13.995
29194W        W  777  34.405  38.793  11.925
29195W        W  778  20.803  37.475   3.305
29196W        W  779  26.621  37.622   3.235
29197W        W  780   3.537  22.236  12.892
29198W        W  781  13.057  36.954  11.430
29199W        W  782   7.580  40.028  14.494
29200W        W  783  34.242  30.051  11.122
29201W        W  784  16.223  11.126  14.134
29202W        W  785  20.249   9.507   0.537
29203W        W  786  12.205   7.320  14.545
29204W        W  787  33.531  37.987  13.595
29205W        W  788  13.729   8.734   3.741
29206W        W  789  30.627  41.204  14.968
29207W        W  790   5.850  37.936  11.113
29208W        W  791  16.568  10.214  12.027
29209W        W  792  29.443  12.893  13.646
29210W        W  793   2.285  17.476  12.496
29211W        W  794  43.783  44.939  12.563
29212W        W  795  30.892  10.851   4.124
29213W        W  796  44.839  32.043   2.468
29214W        W  797   7.378  15.002   2.828
29215W        W  798  13.401  20.227  12.004
29216W        W  799  20.675  17.781   3.388
29217W        W  800  14.613  34.013   1.932
29218W        W  801  15.860  38.302  11.184
29219W        W  802   6.440  38.383   1.400
29220W        W  803  21.988  25.026   0.889
29221W        W  804  29.143  30.137   4.621
29222W        W  805  34.054  38.189  12.950
29223W        W  806  43.913  29.166   3.167
29224W        W  807   8.475  34.004  10.544
29225W        W  808   5.926  19.686   0.634
29226W        W  809  39.088  37.555  14.252
29227W        W  810  33.073   9.721   1.341
29228W        W  811  28.289  31.076   1.826
29229W        W  812  37.504  40.160  13.589
29230W        W  813   8.964  34.546  14.464
29231W        W  814   3.052   6.895  11.636
29232W        W  815  35.892  11.987  14.905
29233W        W  816   2.768  44.500  14.417
29234W        W  817  21.261  29.032   5.039
29235W        W  818  19.227  34.295   4.585
29236W        W  819  20.276  24.150   5.457
29237W        W  820  38.960  44.097   0.274
29238W        W  821  22.044  37.887   4.882
29239W        W  822  27.130  36.551  10.696
29240W        W  823  17.192   8.306  12.039
29241W        W  824  42.698  31.491   1.320
29242W        W  825  31.326  19.563   3.280
29243W        W  826   8.666  40.418  14.395
29244W        W  827  36.239  10.045  12.609
29245W        W  828   1.183   2.758   4.044
29246W        W  829  44.610  17.675   3.672
29247W        W  830  14.835   6.523  12.861
29248W        W  831  31.482  11.082   4.740
29249W        W  832  34.730  21.214  11.092
29250W        W  833  35.112  11.287  11.099
29251W        W  834  12.584  11.903   1.816
29252W        W  835  37.015  22.442  11.770
29253W        W  836  11.382  28.125  12.151
29254W        W  837  32.648  31.040   4.023
29255W        W  838  15.221  10.419  12.515
29256W        W  839  31.889   0.814   2.165
29257W        W  840  40.677   7.998  12.809
29258W        W  841  37.497  28.534  11.968
29259W        W  842   2.479  39.340  12.529
29260W        W  843  18.528  27.879  11.285
29261W        W  844  29.899   1.764  14.318
29262W        W  845  26.503   5.882   4.435
29263W        W  846  40.755  20.025   0.426
29264W        W  847  21.555  16.042   0.772
29265W        W  848  36.832   2.262   2.224
29266W        W  849  15.212  14.288   1.404
29267W        W  850  14.286  32.304   4.524
29268W        W  851  16.029  10.937   3.304
29269W        W  852  41.982  27.161   1.605
29270W        W  853  32.856   5.677   3.359
29271W        W  854  28.971  29.617   1.652
29272W        W  855  25.718   4.131  13.096
29273W        W  856   8.739  29.624  13.005
29274W        W  857   0.878  10.762  12.601
29275W        W  858  30.898  23.568  14.533
29276W        W  859  14.518  18.021  11.767
29277W        W  860  18.476   3.179   2.819
29278W        W  861  34.909   7.263  10.506
29279W        W  862  29.005  20.470   4.586
29280W        W  863  16.772  41.084   4.503
29281W        W  864   9.159  23.161  13.456
29282W        W  865  39.105  27.753   2.727
29283W        W  866  12.369  10.630  13.313
29284W        W  867  28.651  36.356  13.547
29285W        W  868  17.659  42.272   2.355
29286W        W  869  29.057  32.503   1.175
29287W        W  870  44.717  37.114  12.093
29288W        W  871  12.328  29.634   2.915
29289W        W  872  37.309  39.854  11.088
29290W        W  873  10.039  19.265  10.419
29291W        W  874  10.364  26.592  10.733
29292W        W  875  26.339  24.488  11.156
29293W        W  876  18.745  38.620  11.158
29294W        W  877  19.315  24.488  10.642
29295W        W  878  39.616  29.634   3.489
29296W        W  879   8.336  11.294  11.162
29297W        W  880  44.695  42.747  11.045
29298W        W  881  31.097  16.198   0.552
29299W        W  882  36.513   7.455   9.893
29300W        W  883  29.987  34.478   3.174
29301W        W  884  37.822  30.315   1.756
29302W        W  885  22.328  32.941  13.939
29303W        W  886   6.322   2.325   0.718
29304W        W  887   9.711  27.692  13.013
29305W        W  888  28.736   8.473  13.957
29306W        W  889  16.779  32.767  12.473
29307W        W  890  35.799  34.052  10.518
29308W        W  891  33.890  19.676  10.395
29309W        W  892  34.654   3.291  12.096
29310W        W  893   8.928  32.909  13.425
29311W        W  894  18.255  10.213  14.997
29312W        W  895  40.060  16.753  14.266
29313W        W  896   1.834  44.569  13.349
29314W        W  897  34.280  39.636  13.006
29315W        W  898  44.400  12.034   3.782
29316W        W  899  30.682  34.204  13.386
29317W        W  900   0.287  35.036  13.912
29318W        W  901  15.747  39.856   2.843
29319W        W  902  25.473   8.327   1.333
29320W        W  903  16.704  40.139  14.423
29321W        W  904  39.898  30.916   5.050
29322W        W  905   7.478  27.177   4.490
29323W        W  906  25.732  22.400  11.076
29324W        W  907  15.154  24.429  12.966
29325W        W  908   1.435  39.714  13.207
29326W        W  909   1.968   7.118   2.704
29327W        W  910  32.995  10.351  12.054
29328W        W  911  34.967  20.262  10.778
29329W        W  912  20.465  17.196  10.686
29330W        W  913   3.278  13.887  14.834
29331W        W  914  36.488  40.236   3.603
29332W        W  915  11.086  19.133  11.071
29333W        W  916  35.148  30.445   0.725
29334W        W  917  40.856  32.612  14.109
29335W        W  918   6.758  23.691   0.615
29336W        W  919   7.406   6.110   1.168
29337W        W  920  35.945  10.118  13.378
29338W        W  921  37.444  18.571   2.095
29339W        W  922   5.301  35.119  11.236
29340W        W  923  33.515   4.918  13.023
29341W        W  924  27.448  38.527  10.607
29342W        W  925  24.513   1.905  14.267
29343W        W  926   4.111   3.930   3.671
29344W        W  927  30.585  42.792  14.363
29345W        W  928   3.313  11.633   4.085
29346W        W  929  38.971  37.763   2.404
29347W        W  930  39.620   4.399  11.147
29348W        W  931  30.385   2.512   0.824
29349W        W  932  29.919  36.941   4.687
29350W        W  933  39.170  23.301  12.075
29351W        W  934  34.329  22.974   1.814
29352W        W  935  26.038  37.546   0.963
29353W        W  936  12.615   9.467  13.826
29354W        W  937  15.648  44.019   0.887
29355W        W  938  33.417  20.325  12.351
29356W        W  939  14.143  16.927   4.568
29357W        W  940  23.054  44.237  11.403
29358W        W  941  28.508   8.806   1.264
29359W        W  942  16.137  35.616  14.360
29360W        W  943   1.998   6.711  13.042
29361W        W  944  24.638  10.996   0.933
29362W        W  945   0.718  33.128   1.956
29363W        W  946  10.612  14.550  13.934
29364W        W  947   0.279  33.894   0.511
29365W        W  948  40.404   4.535   4.553
29366W        W  949  41.790  32.392  10.515
29367W        W  950  21.221  21.461   1.486
29368W        W  951  17.671  10.388  14.255
29369W        W  952  24.295  27.960   2.679
29370W        W  953  27.723  36.078   0.380
29371W        W  954   5.857   3.432  14.649
29372W        W  955  30.439  17.770   1.305
29373W        W  956  19.173  35.353   4.660
29374W        W  957  16.565   0.889  10.383
29375W        W  958  44.264  24.216  14.461
29376W        W  959  25.793  22.324  11.968
29377W        W  960  12.657  32.299   1.031
29378W        W  961  11.679  25.964   4.558
29379W        W  962  41.842  33.036  11.624
29380W        W  963   9.380  31.637   1.233
29381W        W  964  24.753   4.136   0.985
29382W        W  965  40.647  37.029  14.921
29383W        W  966  43.942  27.740   5.006
29384W        W  967  23.810  36.362  11.538
29385W        W  968  25.767  24.388   1.716
29386W        W  969  43.347   4.749   2.250
29387W        W  970  17.479  24.146  13.419
29388W        W  971  15.288   3.844  14.071
29389W        W  972  22.523  34.991   3.384
29390W        W  973  20.766  31.015   2.644
29391W        W  974  35.581  30.192  12.059
29392W        W  975   2.392  20.474   0.845
29393W        W  976  39.950  17.859  13.714
29394W        W  977  28.602  15.731  14.031
29395W        W  978  29.665  35.850   4.079
29396W        W  979   8.568   6.376  13.301
29397W        W  980  18.590  25.530   1.725
29398W        W  981  44.399  11.191   2.279
29399W        W  982  19.698  14.333   4.164
29400W        W  983  38.090  18.014   1.548
29401W        W  984  33.631  43.786   4.209
29402W        W  985   8.140  31.453  13.407
29403W        W  986  26.328  41.788   3.419
29404W        W  987   7.258  17.699  12.121
29405W        W  988   0.402  24.496   4.227
29406W        W  989  13.726  44.693  11.575
29407W        W  990   3.025  15.617   2.001
29408W        W  991  37.318  29.393  12.001
29409W        W  992  14.064  42.377  11.640
29410W        W  993  29.623  35.510  12.025
29411W        W  994  16.731  44.034  12.119
29412W        W  995  23.865   5.246   3.268
29413W        W  996   4.032   9.016   4.210
29414W        W  997   2.825  41.875   2.657
29415W        W  998  32.310  26.211   2.728
29416W        W  999  33.074  40.036   2.226
29417W        W 1000  12.282  43.392   4.206
29418W        W 1001  19.059  36.843   4.651
29419W        W 1002  41.396   8.079   0.415
29420W        W 1003  29.128  17.802   1.613
29421W        W 1004  40.393  31.410  14.055
29422W        W 1005   5.670  18.628  14.963
29423W        W 1006  33.776  17.746   2.208
29424W        W 1007  12.537  36.605   0.795
29425W        W 1008  25.641  34.059   1.685
29426W        W 1009  13.774  18.548  14.050
29427W        W 1010  37.287  38.075  10.664
29428W        W 1011  25.154  23.154  13.388
29429W        W 1012  28.281  31.058   4.290
29430W        W 1013   3.802  36.038   9.812
29431W        W 1014  42.266  26.055  10.443
29432W        W 1015   5.001  41.344   0.144
29433W        W 1016  39.472  10.376  10.221
29434W        W 1017  21.949  30.142   2.349
29435W        W 1018  42.891  38.908  11.872
29436W        W 1019  43.312  24.141  10.658
29437W        W 1020  16.532  29.658   0.998
29438W        W 1021  44.258  26.996  11.081
29439W        W 1022  34.388   1.593   1.790
29440W        W 1023  44.367  30.817  12.414
29441W        W 1024   8.139  10.247   1.316
29442W        W 1025  44.506  34.003  13.440
29443W        W 1026  38.956  43.356  12.982
29444W        W 1027  36.307   6.706  14.710
29445W        W 1028   3.506  35.456  11.066
29446W        W 1029   4.771  15.357   3.339
29447W        W 1030  39.011   9.877  10.974
29448W        W 1031  43.679  44.416   2.412
29449W        W 1032  24.256  29.617  14.423
29450W        W 1033  13.532  29.989  14.564
29451W        W 1034  20.477  19.657   4.195
29452W        W 1035  14.073  21.583  12.610
29453W        W 1036  25.186  42.688   4.115
29454W        W 1037  21.453  28.567   2.780
29455W        W 1038   0.846  29.429   4.103
29456W        W 1039  22.963  12.498  10.368
29457W        W 1040  11.346  25.056  13.640
29458W        W 1041  19.859  35.361   0.038
29459W        W 1042  15.270  21.167  11.936
29460W        W 1043  23.987   2.828  11.062
29461W        W 1044  20.046  36.075   3.846
29462W        W 1045   0.457   0.788   4.133
29463W        W 1046  39.747  20.283  13.961
29464W        W 1047  42.612   3.906   0.230
29465W        W 1048  32.189   5.471   2.410
29466W        W 1049  21.639  37.844   0.235
29467W        W 1050   2.464  33.359  11.138
29468W        W 1051   0.002  38.016   4.345
29469W        W 1052   7.759  25.925  11.720
29470W        W 1053   8.926  29.404   3.288
29471W        W 1054  17.773  11.945  11.057
29472W        W 1055  38.790  33.510  11.150
29473W        W 1056  35.738  10.528   0.425
29474W        W 1057  22.037  30.593  13.186
29475W        W 1058  13.671  35.563   1.626
29476W        W 1059  11.077  17.319   3.000
29477W        W 1060  37.597  33.640  14.856
29478W        W 1061  41.774   2.553  13.939
29479W        W 1062  12.138   7.308  12.502
29480W        W 1063  22.734  34.515   3.641
29481W        W 1064  30.820  42.312  14.372
29482W        W 1065   6.905   2.297  11.535
29483W        W 1066   6.767  21.063   4.220
29484W        W 1067   1.825   3.742   1.113
29485W        W 1068  38.503   5.895  13.818
29486W        W 1069  31.163  16.114   4.541
29487W        W 1070  33.158  10.245   1.093
29488W        W 1071  14.915  14.866   3.694
29489W        W 1072  25.744  28.485  13.868
29490W        W 1073  24.131  42.844  14.995
29491W        W 1074  39.906  33.297   0.957
29492W        W 1075  13.196  33.153  10.762
29493W        W 1076  17.708   5.779  11.540
29494W        W 1077   9.306  19.024  10.497
29495W        W 1078  31.982  26.288   4.866
29496W        W 1079   7.884  15.817  14.994
29497W        W 1080  31.065  20.309   3.747
29498W        W 1081  43.983  10.959  12.078
29499W        W 1082  29.088  24.088  10.889
29500W        W 1083  39.556  28.762   4.497
29501W        W 1084  34.832  13.203   0.266
29502W        W 1085  44.352  34.505   2.184
29503W        W 1086  26.858  31.202   4.127
29504W        W 1087  10.359  35.601  11.929
29505W        W 1088   0.187   0.979  14.721
29506W        W 1089  34.108  17.516  11.148
29507W        W 1090  21.991  10.041  14.631
29508W        W 1091  36.993   6.839  12.122
29509W        W 1092  38.214  18.385   3.200
29510W        W 1093  17.637   6.246  13.979
29511W        W 1094  15.756  28.100   9.956
29512W        W 1095   5.619   4.455   3.565
29513W        W 1096  29.635  37.232   3.329
29514W        W 1097  40.429  33.175   4.413
29515W        W 1098  22.573   0.710  11.158
29516W        W 1099  30.257  43.017  14.711
29517W        W 1100   7.199  11.397   3.588
29518W        W 1101   4.953   8.279  14.269
29519W        W 1102  32.923  35.977  11.592
29520W        W 1103   2.706  35.667  14.452
29521W        W 1104  14.399  37.957   4.334
29522W        W 1105  14.377  18.763  11.923
29523W        W 1106  32.342  43.904  11.488
29524W        W 1107  28.961  23.610  11.115
29525W        W 1108  43.958  24.683   1.503
29526W        W 1109  23.569  39.734  13.482
29527W        W 1110  14.326   0.862  11.195
29528W        W 1111  14.773  10.615   0.689
29529W        W 1112  39.112  17.566   4.175
29530W        W 1113   1.264  19.030  11.545
29531W        W 1114   7.396  11.118  12.041
29532W        W 1115  17.544  25.431   4.862
29533W        W 1116  34.954  23.021  13.282
29534W        W 1117  26.495  17.611  11.968
29535W        W 1118  43.923  30.552  12.537
29536W        W 1119   0.608   5.293   1.944
29537W        W 1120  32.730  38.566   4.247
29538W        W 1121  20.863   8.107   2.229
29539W        W 1122   8.812  30.051  13.616
29540W        W 1123  29.402  42.929  12.549
29541W        W 1124   6.730  10.124  11.057
29542W        W 1125  35.822   1.329   4.203
29543W        W 1126  30.678  23.412   0.057
29544W        W 1127  22.662  36.335  12.120
29545W        W 1128  32.056  44.989   2.727
29546W        W 1129  31.483  36.910  14.846
29547W        W 1130   4.055  31.142   3.829
29548W        W 1131  40.558  35.567   1.450
29549W        W 1132  25.981  11.684   0.017
29550W        W 1133   7.169  23.556   3.602
29551W        W 1134  10.717  14.793   1.765
29552W        W 1135  24.691  22.610   3.313
29553W        W 1136  24.039   5.911  14.759
29554W        W 1137  17.568  28.509   1.494
29555W        W 1138  14.986  22.241   3.746
29556W        W 1139  35.858  15.422  13.914
29557W        W 1140   2.568  41.894  12.039
29558W        W 1141  29.979  26.630  10.751
29559W        W 1142   0.872  28.921   4.868
29560W        W 1143   6.379   4.924   3.281
29561W        W 1144  38.040  38.757  11.506
29562W        W 1145  25.717  20.889   1.737
29563W        W 1146  38.278  21.751   2.708
29564W        W 1147  31.935  38.577   1.980
29565W        W 1148  10.667  37.950   9.918
29566W        W 1149   2.337  13.977  12.141
29567W        W 1150   9.435  17.760  14.301
29568W        W 1151  28.705  28.369   1.927
29569W        W 1152  32.927  10.102   3.385
29570W        W 1153  15.881  41.556  13.519
29571W        W 1154  40.996  38.456   2.932
29572W        W 1155  11.907  15.590   3.638
29573W        W 1156  20.187  17.034   1.348
29574W        W 1157   3.027  14.072   4.263
29575W        W 1158  23.531  41.048   0.411
29576W        W 1159  42.266  42.972   4.655
29577W        W 1160  21.242  39.386   3.757
29578W        W 1161  17.832  28.095  12.528
29579W        W 1162  29.588  18.753  13.759
29580W        W 1163  38.028  34.316  12.368
29581W        W 1164  29.172  39.790  14.201
29582W        W 1165  28.180  33.023   0.270
29583W        W 1166  35.990  24.008  12.031
29584W        W 1167  21.180   9.675  11.017
29585W        W 1168  30.392  15.252   1.923
29586W        W 1169  28.341  29.519  12.933
29587W        W 1170  26.707  24.101   2.995
29588W        W 1171  33.664  27.034  11.605
29589W        W 1172  31.978  19.723  13.499
29590W        W 1173  41.841   8.384   4.673
29591W        W 1174  28.567  32.409   4.832
29592W        W 1175  29.193  14.092   0.847
29593W        W 1176  13.712  35.519   2.130
29594W        W 1177  17.576  11.500   3.273
29595W        W 1178  25.445  28.027   0.334
29596W        W 1179  27.508  12.613  12.925
29597W        W 1180  43.084   7.177  10.720
29598W        W 1181   7.215   2.642   1.854
29599W        W 1182  20.275  13.847   4.553
29600W        W 1183  24.210  22.129  13.391
29601W        W 1184  15.837  38.932   3.285
29602W        W 1185  24.024  31.884   2.137
29603W        W 1186  26.560  12.588   4.297
29604W        W 1187  43.520  42.848   3.282
29605W        W 1188  19.196  22.071  12.110
29606W        W 1189   5.641  31.488  10.467
29607W        W 1190  23.273  22.816  13.588
29608W        W 1191   9.219  23.518   3.638
29609W        W 1192  11.925   0.807   5.021
29610W        W 1193   0.510   6.796   3.223
29611W        W 1194  22.472  42.876  10.288
29612W        W 1195  43.077  34.011   3.062
29613W        W 1196   0.847  23.723   4.349
29614W        W 1197   5.864  10.184   0.765
29615W        W 1198  31.907  31.038   1.766
29616W        W 1199  39.070  23.613  14.824
29617W        W 1200  27.112  35.951  14.558
29618W        W 1201  32.560  15.759   3.390
29619W        W 1202  25.291  42.894   9.947
29620W        W 1203  29.755  36.130   2.327
29621W        W 1204   0.800  35.795   3.458
29622W        W 1205  21.634  19.728  11.982
29623W        W 1206  40.418  23.747   0.758
29624W        W 1207   9.817  10.684   3.491
29625W        W 1208  22.567  22.622   2.591
29626W        W 1209  44.915  27.154   1.261
29627W        W 1210  40.792  30.701  14.763
29628W        W 1211  41.854  11.661  11.524
29629W        W 1212   6.122  24.371   4.891
29630W        W 1213  26.714  14.286  12.110
29631W        W 1214  43.876  22.582   1.693
29632W        W 1215  24.727   4.099   0.306
29633W        W 1216  29.509  23.313   2.244
29634W        W 1217  39.437  18.128   1.447
29635W        W 1218  39.993   1.353   1.409
29636W        W 1219  28.603   2.674   0.007
29637W        W 1220  10.655   3.176  10.196
29638W        W 1221  35.845  35.032   1.379
29639W        W 1222  20.362  20.061   3.476
29640W        W 1223  20.314  25.516   2.253
29641W        W 1224  23.505   3.673  13.032
29642W        W 1225  34.029  11.860   3.417
29643W        W 1226  43.586  33.357   2.542
29644W        W 1227   3.898  12.723  14.728
29645W        W 1228   8.799  27.421  10.588
29646W        W 1229  37.049  42.280  10.541
29647W        W 1230  16.290  28.935   3.244
29648W        W 1231  12.251  24.592  12.872
29649W        W 1232   9.743   6.004  10.526
29650W        W 1233  30.702   0.924  10.748
29651W        W 1234   2.832  30.982  12.594
29652W        W 1235  20.693   5.653  11.045
29653W        W 1236  41.024  32.149  13.928
29654W        W 1237  38.987  18.577  13.048
29655W        W 1238  31.368  41.375   3.543
29656W        W 1239  29.589   1.257  11.848
29657W        W 1240   8.769  35.091  14.967
29658W        W 1241  36.510  20.067  13.757
29659W        W 1242   1.876  24.758  14.445
29660W        W 1243   7.718  19.578   1.406
29661W        W 1244  43.468  34.876  14.444
29662W        W 1245   7.674  29.536   2.214
29663W        W 1246   5.129   5.498  11.720
29664W        W 1247  18.745  22.018   4.450
29665W        W 1248  11.897  36.509  14.437
29666W        W 1249  43.477   1.041   4.288
29667W        W 1250  17.260   9.434   1.814
29668W        W 1251  16.889  24.671  11.048
29669W        W 1252   8.930  41.079  13.065
29670W        W 1253  11.447   9.870   1.257
29671W        W 1254  41.979  19.771  14.993
29672W        W 1255  35.495  22.960  11.634
29673W        W 1256  16.679  21.727   4.191
29674W        W 1257   4.476  44.183  11.670
29675W        W 1258  43.812  25.170  13.392
29676W        W 1259  27.575  14.498  13.889
29677W        W 1260   4.353  18.640  13.835
29678W        W 1261  13.608   9.415  10.601
29679W        W 1262  30.721  27.467  14.414
29680W        W 1263  21.154  21.995  14.360
29681W        W 1264   3.989  19.505  14.956
29682W        W 1265  20.385   5.293  13.831
29683W        W 1266  34.489   8.186  12.953
29684W        W 1267  16.541  26.073  13.857
29685W        W 1268  21.788  32.963  13.317
29686W        W 1269   0.001  38.071   3.324
29687W        W 1270  34.385  37.935   0.169
29688W        W 1271  29.580  11.251   0.494
29689W        W 1272  13.422  21.676  11.440
29690W        W 1273  39.478   0.895   3.330
29691W        W 1274  40.894   3.332   4.098
29692W        W 1275  24.688  19.381  10.716
29693W        W 1276  34.410  44.025   4.508
29694W        W 1277   6.576  15.666  14.349
29695W        W 1278  28.473  32.390  14.913
29696W        W 1279  34.520  21.699  11.128
29697W        W 1280  44.015  21.561  11.678
29698W        W 1281  34.360   5.342  12.621
29699W        W 1282  42.035  24.093   3.719
29700W        W 1283  15.781   9.201   0.762
29701W        W 1284  43.970  29.445  12.020
29702W        W 1285  18.981  33.338  10.756
29703W        W 1286  16.050  26.030   4.770
29704W        W 1287  25.449  22.740  11.608
29705W        W 1288   0.095   2.980  14.939
29706W        W 1289  33.688  27.563  11.504
29707W        W 1290  30.881  32.764   0.312
29708W        W 1291  10.940  12.751  10.699
29709W        W 1292  37.057  30.344  14.866
29710W        W 1293  32.607   9.088   3.128
29711W        W 1294   4.386  29.425  12.626
29712W        W 1295  27.061   5.721  14.251
29713W        W 1296  15.626  43.777  12.995
29714W        W 1297  14.293   8.575  11.130
29715W        W 1298  20.129  15.912  14.959
29716W        W 1299   4.065   7.597   0.378
29717W        W 1300  11.820  18.250  13.038
29718W        W 1301   5.198   5.196   3.182
29719W        W 1302  43.801  26.972  14.410
29720W        W 1303   0.466  31.382  14.837
29721W        W 1304  20.902  18.465  14.304
29722W        W 1305  36.886  36.052  10.965
29723W        W 1306  10.885  21.411   0.393
29724W        W 1307  34.082   2.522  14.312
29725W        W 1308   2.860  41.863   2.130
29726W        W 1309  39.495  41.870   4.117
29727W        W 1310  12.317   8.299   3.281
29728W        W 1311   9.274  33.410  10.748
29729W        W 1312  18.600   9.064  12.861
29730W        W 1313  43.890  29.907   2.187
29731W        W 1314  11.701  22.264  14.801
29732W        W 1315  33.105  21.208   1.304
29733W        W 1316  24.096   2.063  10.367
29734W        W 1317   2.853  42.547   0.351
29735W        W 1318  42.456  24.986   1.381
29736W        W 1319   7.159  29.507   2.383
29737W        W 1320  21.996  36.886   2.816
29738W        W 1321   6.339  25.391   0.465
29739W        W 1322  40.403  28.115  14.361
29740W        W 1323  24.221   0.041  10.693
29741W        W 1324   6.921  27.070  14.217
29742W        W 1325  32.551   9.647   0.002
29743W        W 1326  21.493  40.828  12.206
29744W        W 1327  30.561  25.202  13.045
29745W        W 1328  34.471  21.744  14.015
29746W        W 1329   0.451  16.747  11.004
29747W        W 1330  29.864   0.938   2.329
29748W        W 1331  21.052  42.434   3.197
29749W        W 1332  25.168   5.312  14.478
29750W        W 1333  39.501  18.367   2.409
29751W        W 1334  36.448  39.762   0.915
29752W        W 1335  13.473  36.036  11.560
29753W        W 1336  34.486  24.629  13.542
29754W        W 1337  34.032  35.929   2.344
29755W        W 1338   8.944   8.915  12.925
29756W        W 1339  21.613  43.541   1.383
29757W        W 1340  28.417  31.814  10.297
29758W        W 1341   5.022  44.842  11.736
29759W        W 1342  38.600  16.139   3.269
29760W        W 1343  21.071  37.951  12.842
29761W        W 1344   8.712  13.871  14.982
29762W        W 1345   0.257  43.737   3.721
29763W        W 1346  33.204   2.235   0.347
29764W        W 1347   2.470  14.231  11.700
29765W        W 1348  37.919  28.004   4.695
29766W        W 1349  14.695  44.048  14.898
29767W        W 1350   0.571  12.109  14.301
29768W        W 1351   6.484  44.320   2.614
29769W        W 1352  35.170   9.915  14.075
29770W        W 1353  26.953  21.791  13.390
29771W        W 1354  37.356  27.234  11.213
29772W        W 1355  32.549  28.942   1.872
29773W        W 1356  19.759  17.749  12.610
29774W        W 1357   8.379  43.020   3.647
29775W        W 1358  13.211  33.509   2.211
29776W        W 1359  32.861  13.762   1.400
29777W        W 1360  12.387   5.886   1.892
29778W        W 1361  29.897  32.005  11.965
29779W        W 1362  36.459  23.576   4.574
29780W        W 1363  10.879  13.951  10.448
29781W        W 1364  17.762  38.453  12.597
29782W        W 1365  22.260  40.396   1.335
29783W        W 1366  27.650  32.894  13.090
29784W        W 1367   9.068  41.377   0.224
29785W        W 1368  23.458  17.390  13.079
29786W        W 1369  38.588  21.865   3.568
29787W        W 1370  31.932  44.557  13.931
29788W        W 1371  30.183  43.415   4.067
29789W        W 1372  22.116  22.031  10.584
29790W        W 1373  37.307  42.011  12.512
29791W        W 1374   7.989  37.460  13.137
29792W        W 1375  18.358  15.550   1.323
29793W        W 1376  29.986  32.882  14.471
29794W        W 1377  38.974  34.400   0.438
29795W        W 1378  38.322  32.399   0.427
29796W        W 1379   7.761  27.060   3.703
29797W        W 1380  29.144   9.692  14.815
29798W        W 1381  17.327  42.810   4.359
29799W        W 1382  15.782  24.928   2.435
29800W        W 1383  25.127  40.435   2.491
29801W        W 1384  27.066  35.385   3.889
29802W        W 1385  17.366  37.949   5.092
29803W        W 1386  20.739   9.485   3.759
29804W        W 1387   9.911  16.310   4.178
29805W        W 1388  44.391  27.212  12.497
29806W        W 1389   7.936  18.163  12.404
29807W        W 1390  20.390  26.806   4.493
29808W        W 1391  40.560  27.660  13.086
29809W        W 1392  41.846  28.409   4.101
29810W        W 1393  36.907  34.982  13.482
29811W        W 1394  22.143  16.689   0.261
29812W        W 1395  38.952  12.574  12.482
29813W        W 1396  28.951   8.883  10.740
29814W        W 1397  39.295   2.675  12.101
29815W        W 1398  34.595  19.377  13.007
29816W        W 1399  35.605  28.670   3.166
29817W        W 1400  24.152  15.038  14.022
29818W        W 1401  16.765  19.745   0.906
29819W        W 1402  19.185  14.063   3.223
29820W        W 1403  42.271  35.022  11.019
29821W        W 1404   4.292  27.079   2.475
29822W        W 1405   4.271  32.915  14.417
29823W        W 1406   4.749   0.722   9.746
29824W        W 1407  40.485   5.926   4.668
29825W        W 1408   9.838  29.588  11.763
29826W        W 1409   5.323  22.265   4.474
29827W        W 1410  22.204   9.676  14.305
29828W        W 1411  32.822  11.890   0.310
29829W        W 1412  14.403  11.382  10.805
29830W        W 1413   8.653  26.683   2.781
29831W        W 1414   2.981  16.661  11.286
29832W        W 1415  20.745  23.807   1.128
29833W        W 1416   7.495   7.655   3.699
29834W        W 1417  26.438   7.257  10.688
29835W        W 1418   1.057  22.242  12.470
29836W        W 1419  24.702  31.597   4.670
29837W        W 1420  13.578  41.013  12.369
29838W        W 1421  11.468  19.475   1.415
29839W        W 1422  16.059  23.062  11.092
29840W        W 1423   0.122   0.963  13.216
29841W        W 1424  36.812  30.419  13.067
29842W        W 1425  16.629  40.369  13.366
29843W        W 1426  35.785   3.425  12.386
29844W        W 1427  26.947  15.993   2.393
29845W        W 1428  35.802  10.622   3.767
29846W        W 1429  43.369  20.585   0.998
29847W        W 1430  41.920  23.596   3.641
29848W        W 1431  44.813  19.086  12.533
29849W        W 1432  11.766   4.051   1.831
29850W        W 1433   0.959  17.631   2.294
29851W        W 1434  16.843  12.184   2.709
29852W        W 1435   4.143   7.276  10.927
29853W        W 1436  27.222  40.120  14.853
29854W        W 1437   2.117   9.244  13.326
29855W        W 1438  24.529  40.057   4.041
29856W        W 1439  28.505  11.426   1.348
29857W        W 1440  42.001  39.299  11.613
29858W        W 1441  29.691   8.803  13.563
29859W        W 1442   3.325  42.800  12.769
29860W        W 1443   8.447  39.041   2.756
29861W        W 1444  17.168  36.077   0.924
29862W        W 1445  39.433  41.823   3.269
29863W        W 1446   1.110  28.707  13.887
29864W        W 1447  10.073  28.626   0.833
29865W        W 1448  22.226   9.726   4.035
29866W        W 1449  32.923  25.148   2.608
29867W        W 1450   1.990  32.431  13.344
29868W        W 1451  16.834   6.160   1.847
29869W        W 1452   5.485  17.038   4.186
29870W        W 1453  27.132  39.792  11.744
29871W        W 1454  24.947  37.555   2.955
29872W        W 1455  11.596  38.154  11.114
29873W        W 1456  31.026  12.139   4.523
29874W        W 1457  29.955  27.523   3.285
29875W        W 1458  18.496   6.624  13.974
29876W        W 1459  37.374   3.720   4.110
29877W        W 1460  39.198  21.108   0.893
29878W        W 1461  27.136  25.684   1.182
29879W        W 1462  23.998  26.476   0.980
29880W        W 1463  18.853  43.772  12.434
29881W        W 1464  29.667  34.567   5.234
29882W        W 1465   1.395   9.103  12.265
29883W        W 1466   2.783  25.516  12.459
29884W        W 1467  30.625  38.119   3.863
29885W        W 1468  26.495  16.729  14.029
29886W        W 1469   1.501   6.629  14.321
29887W        W 1470  21.471  44.791  11.244
29888W        W 1471   1.850  32.190  12.414
29889W        W 1472  25.627  17.674  10.712
29890W        W 1473   4.316  36.523   2.880
29891W        W 1474  12.959  17.943   4.179
29892W        W 1475  32.590  43.376   0.273
29893W        W 1476  17.733  32.523   2.828
29894W        W 1477   5.776  20.837  14.919
29895W        W 1478  21.037  44.024  14.024
29896W        W 1479  21.624  43.353  12.783
29897W        W 1480   1.899  21.709   2.529
29898W        W 1481  12.595  39.728   1.402
29899W        W 1482  44.062  42.754  12.621
29900W        W 1483  18.801   9.704  10.876
29901W        W 1484  30.039  41.578   3.239
29902W        W 1485  15.800  33.033  13.942
29903W        W 1486  16.025  35.464  11.025
29904W        W 1487   4.648  40.957   3.616
29905W        W 1488  25.254   6.306   2.428
29906W        W 1489  16.155   7.052  13.407
29907W        W 1490  17.543  10.449   4.952
29908W        W 1491   2.427  43.002  14.788
29909W        W 1492   2.061  36.280   3.119
29910W        W 1493  16.037   3.799   4.710
29911W        W 1494   4.929  26.946  12.029
29912W        W 1495  29.362  44.461  14.034
29913W        W 1496  22.970  41.740  11.135
29914W        W 1497  11.837  20.762   3.701
29915W        W 1498  42.781  28.462  13.838
29916W        W 1499   8.742   8.973  10.832
29917W        W 1500  13.053  12.644  14.524
29918W        W 1501  26.992  12.429   9.606
29919W        W 1502  44.423  14.812   3.389
29920W        W 1503  28.160  40.486   4.440
29921W        W 1504  21.463  31.531   9.950
29922W        W 1505  10.759   4.202   4.192
29923W        W 1506   7.743   4.287   3.795
29924W        W 1507  12.669  28.473  14.866
29925W        W 1508  15.305  14.896   0.671
29926W        W 1509  18.395  15.709   4.621
29927W        W 1510  37.395  15.645  14.781
29928W        W 1511  31.075  26.184  11.478
29929W        W 1512  16.519   7.307  12.635
29930W        W 1513  35.642  40.121   3.225
29931W        W 1514   5.024  18.968  11.155
29932W        W 1515  38.937  19.888  10.820
29933W        W 1516  15.700  36.593   3.661
29934W        W 1517  36.419  19.207   2.136
29935W        W 1518   4.901  42.246   4.209
29936W        W 1519  13.665  40.105   2.938
29937W        W 1520   8.660  44.843  14.433
29938W        W 1521  28.873  10.165   2.408
29939W        W 1522   1.875  25.202  11.691
29940W        W 1523  26.582  12.467  12.977
29941W        W 1524  37.521  12.190  10.439
29942W        W 1525  10.316  33.693  13.421
29943W        W 1526  11.561  23.079   0.847
29944W        W 1527  39.359  17.833  11.542
29945W        W 1528   0.651   4.463   3.241
29946W        W 1529  17.521  40.396  12.545
29947W        W 1530  35.542  43.837   2.946
29948W        W 1531  24.629  29.627  12.840
29949W        W 1532  34.480  28.665   3.851
29950W        W 1533  14.735  21.679   3.191
29951W        W 1534  31.082  26.578   4.892
29952W        W 1535  44.332  20.873   3.802
29953W        W 1536  36.469  31.185  10.991
29954W        W 1537  37.407  38.491   1.428
29955W        W 1538  15.609  14.858   0.245
29956W        W 1539  38.109  19.975   4.716
29957W        W 1540   3.833  33.119  11.078
29958W        W 1541  37.881  10.791   3.087
29959W        W 1542   9.117  11.004  12.713
29960W        W 1543  37.050  39.067   3.299
29961W        W 1544  19.163  29.591  14.568
29962W        W 1545   0.754  29.629  13.381
29963W        W 1546  43.697  29.211  14.904
29964W        W 1547  44.587  27.506   4.085
29965W        W 1548  15.106   4.829   3.172
29966W        W 1549   2.223  39.307  14.764
29967W        W 1550  26.617  44.143  13.473
29968W        W 1551   8.918  26.402  10.684
29969W        W 1552  11.910  30.226   0.393
29970W        W 1553   3.385   6.583   4.380
29971W        W 1554   8.633   1.432  12.502
29972W        W 1555  14.810  26.622   0.232
29973W        W 1556  40.916  13.730  12.064
29974W        W 1557  32.437  35.044  12.921
29975W        W 1558  15.192  25.006   2.992
29976W        W 1559  14.050  37.095  13.328
29977W        W 1560   1.924   2.206  12.419
29978W        W 1561   3.477  19.703   4.442
29979W        W 1562   9.925  13.794   4.284
29980W        W 1563  36.476   7.290   3.051
29981W        W 1564   1.339  31.641   3.602
29982W        W 1565   8.596   0.796  13.615
29983W        W 1566  11.691  37.568   4.563
29984W        W 1567   5.914  24.731  12.285
29985W        W 1568  26.583  18.696   1.832
29986W        W 1569  34.486  26.379   1.677
29987W        W 1570  43.474   3.117   4.948
29988W        W 1571  16.271   6.181  12.330
29989W        W 1572  26.112  40.750   3.560
29990W        W 1573  20.095   0.555  13.895
29991W        W 1574  11.147  22.294  10.528
29992W        W 1575  21.109   4.129   9.976
29993W        W 1576  43.377  36.315  14.312
29994W        W 1577  27.590   4.425   0.495
29995W        W 1578   2.440   2.597  13.916
29996W        W 1579   6.241  33.850  14.091
29997W        W 1580  44.707  43.008  13.493
29998W        W 1581  19.304   5.435  10.495
29999W        W 1582  27.585   2.385  10.446
30000W        W 1583  12.536  40.307  11.582
30001W        W 1584  14.350  39.156   2.877
30002W        W 1585  41.663  39.018  12.508
30003W        W 1586   8.921  16.015  13.948
30004W        W 1587  14.824  24.974  11.660
30005W        W 1588   6.368  11.399  11.954
30006W        W 1589  25.253  41.428   2.514
30007W        W 1590   9.711   6.787   4.657
30008W        W 1591  30.178  14.719  11.637
30009W        W 1592  20.012   1.545   0.436
30010W        W 1593  13.250  22.161  11.448
30011W        W 1594  37.907  33.099  10.587
30012W        W 1595   3.637  30.544   1.913
30013W        W 1596  27.562  16.072  13.378
30014W        W 1597   2.752  37.230  11.870
30015W        W 1598  27.438  33.391  13.453
30016W        W 1599  17.281   9.132   2.255
30017W        W 1600   8.185  11.900  12.886
30018W        W 1601  23.205  10.115   0.469
30019W        W 1602  27.663   5.478  11.728
30020W        W 1603  42.415   5.375  13.742
30021W        W 1604  22.677  17.603   3.122
30022W        W 1605  10.756  15.645   2.149
30023W        W 1606  34.493  20.475   1.431
30024W        W 1607  19.957   0.160  11.179
30025W        W 1608  41.263  20.603  14.463
30026W        W 1609  42.685  31.884  11.356
30027W        W 1610  16.318   7.844  14.775
30028W        W 1611   6.478  14.360  11.648
30029W        W 1612   4.391  31.016  14.246
30030W        W 1613   4.419  41.873  13.966
30031W        W 1614  31.890  41.342   1.681
30032W        W 1615  15.105  43.224   0.832
30033W        W 1616  31.983  31.877   0.447
30034W        W 1617  34.623  38.110  11.619
30035W        W 1618  21.685  38.652  10.311
30036W        W 1619  17.569  11.622   4.670
30037W        W 1620  13.107  24.281  13.024
30038W        W 1621  28.310  43.695  10.082
30039W        W 1622  29.097  42.252   0.836
30040W        W 1623   6.874  31.881   4.198
30041W        W 1624  16.366  19.033  14.869
30042W        W 1625   7.741  31.694  11.197
30043W        W 1626  31.023  15.555  13.921
30044W        W 1627  43.785   5.957   0.407
30045W        W 1628  16.873  33.713  14.954
30046W        W 1629  36.613  33.869  13.986
30047W        W 1630   5.296  40.310   2.184
30048W        W 1631  31.211  34.574   0.354
30049W        W 1632   5.094  24.575   0.400
30050W        W 1633  18.690  44.401   3.882
30051W        W 1634  13.548  35.443  11.164
30052W        W 1635  40.835  44.550  12.028
30053W        W 1636   6.955  38.107   3.719
30054W        W 1637   0.508  11.829  10.353
30055W        W 1638  33.686  33.466  12.979
30056W        W 1639  43.393   0.045   4.696
30057W        W 1640  38.329  35.126   2.155
30058W        W 1641  27.948  21.729  11.700
30059W        W 1642  34.663  31.888   3.208
30060W        W 1643   7.345  18.278   3.745
30061W        W 1644   3.414  33.463   2.677
30062W        W 1645  20.305  20.114  10.264
30063W        W 1646  21.175  23.619  12.935
30064W        W 1647  27.178  23.278   1.262
30065W        W 1648  18.600  36.064   3.965
30066W        W 1649  41.724  23.995  11.712
30067W        W 1650   6.379   5.970   0.264
30068W        W 1651  31.958  13.890   1.129
30069W        W 1652  15.132  41.893  14.531
30070W        W 1653  43.976  27.036  14.917
30071W        W 1654  36.343  39.374  14.825
30072W        W 1655   3.180  44.709  14.894
30073W        W 1656  41.052   6.411  12.399
30074W        W 1657  12.100  20.577   0.810
30075W        W 1658  30.172  10.728  11.981
30076W        W 1659  18.048   3.663   4.092
30077W        W 1660  15.831  19.167  12.850
30078W        W 1661  19.029  18.883  13.800
30079W        W 1662  27.096  25.849  13.927
30080W        W 1663  15.010  20.123  14.541
30081W        W 1664  30.415   7.846   4.583
30082W        W 1665  37.926  25.626  13.339
30083W        W 1666  16.664  30.827  13.786
30084W        W 1667   8.163  19.335   1.170
30085W        W 1668  11.628   6.774  11.977
30086W        W 1669   1.983  22.975   0.389
30087W        W 1670  41.887  19.184  12.064
30088W        W 1671  16.337  33.620   3.146
30089W        W 1672  32.551  17.100  10.554
30090W        W 1673   2.662  16.636   0.933
30091W        W 1674  42.864  16.238   3.778
30092W        W 1675  24.033  30.495  13.656
30093W        W 1676  10.839  40.374   0.467
30094W        W 1677  11.595   1.857   1.254
30095W        W 1678   1.205  43.952   2.857
30096W        W 1679  28.373  39.370   2.405
30097W        W 1680  17.042  29.116   2.808
30098W        W 1681  11.137  39.794   0.371
30099W        W 1682   8.252  33.466   3.362
30100W        W 1683  23.059  43.424  10.760
30101W        W 1684  29.505  22.688   4.254
30102W        W 1685  26.635  20.598   3.629
30103W        W 1686   9.000   5.267   0.328
30104W        W 1687  20.170  22.138   0.925
30105W        W 1688  30.391  42.932  10.638
30106W        W 1689   8.879  15.288   4.033
30107W        W 1690  31.437   5.175   3.284
30108W        W 1691   0.687  22.595   3.932
30109W        W 1692  31.633  20.494   2.819
30110W        W 1693  11.865  25.501  13.948
30111W        W 1694  25.987   0.653  12.475
30112W        W 1695  38.806  30.698   4.136
30113W        W 1696   2.749  29.157  12.176
30114W        W 1697  35.378  41.810   4.694
30115W        W 1698  15.409   6.567   3.122
30116W        W 1699  19.741  25.226  13.411
30117W        W 1700  10.823  23.056  14.447
30118W        W 1701  11.683  15.032  14.443
30119W        W 1702  38.917   6.456  13.238
30120W        W 1703  35.284  14.816  12.993
30121W        W 1704  34.858  17.050  13.909
30122W        W 1705  43.350  11.211  12.867
30123W        W 1706  10.257  21.576  12.558
30124W        W 1707  13.498  23.464   1.887
30125W        W 1708  27.155  37.390   0.756
30126W        W 1709  24.171  21.813  14.445
30127W        W 1710  44.823  21.963   4.576
30128W        W 1711  14.843  35.093  14.986
30129W        W 1712  32.432  24.015  14.768
30130W        W 1713  44.095  12.897  12.887
30131W        W 1714   9.217  13.839   3.677
30132W        W 1715  14.155   7.320  11.518
30133W        W 1716  20.565  40.847  10.680
30134W        W 1717  38.708  34.774  14.727
30135W        W 1718   2.446  20.312  14.890
30136W        W 1719  37.632  44.468   2.672
30137W        W 1720   0.235  35.712  11.426
30138W        W 1721   1.305  44.899  12.579
30139W        W 1722  23.186  17.755  13.631
30140W        W 1723  27.053  10.917  11.888
30141W        W 1724  15.352  42.446   2.723
30142W        W 1725   8.712  18.281  14.178
30143W        W 1726  30.889  26.103   2.932
30144W        W 1727  15.344  30.481  11.657
30145W        W 1728  33.088  28.186   2.626
30146W        W 1729  24.617  20.482   0.935
30147W        W 1730  16.798   0.247   4.598
30148W        W 1731  31.698  20.637   0.483
30149W        W 1732  26.226  12.332  12.614
30150W        W 1733   0.467  16.319   0.179
30151W        W 1734  34.970  26.161   2.807
30152W        W 1735  36.430  39.835  10.593
30153W        W 1736  25.544  37.625   4.559
30154W        W 1737  28.414  17.104  14.303
30155W        W 1738   8.336  19.527   1.604
30156W        W 1739  10.278  39.696   5.000
30157W        W 1740  35.803  24.990   1.003
30158W        W 1741   4.432  41.300  12.894
30159W        W 1742  39.379   7.141  11.173
30160W        W 1743  37.158  20.068   4.684
30161W        W 1744   6.142   7.278  10.687
30162W        W 1745   2.891   5.326   1.300
30163W        W 1746  43.826  23.013   2.486
30164W        W 1747  26.469  31.441  11.324
30165W        W 1748  24.764  22.098  13.218
30166W        W 1749  17.806  36.150   3.951
30167W        W 1750  14.742  32.034  11.602
30168W        W 1751  14.362  41.458  14.361
30169W        W 1752  19.924   5.464  11.548
30170W        W 1753   8.627  38.559   0.746
30171W        W 1754  34.094  17.080  13.057
30172W        W 1755  35.950  28.137  14.290
30173W        W 1756  41.264  41.248  10.822
30174W        W 1757  36.856   8.836  10.778
30175W        W 1758  23.830  35.555  11.857
30176W        W 1759  32.448  33.025  12.930
30177W        W 1760   9.183   5.523  11.148
30178W        W 1761   0.680  14.722   2.768
30179W        W 1762  25.070  29.363  12.148
30180W        W 1763  41.698   7.280   4.093
30181W        W 1764  11.261  33.348  11.094
30182W        W 1765  26.595  44.520  11.458
30183W        W 1766   0.217  27.035  13.018
30184W        W 1767  37.038  23.916  12.810
30185W        W 1768  25.372  14.173  12.441
30186W        W 1769   3.901  44.411   4.903
30187W        W 1770  10.367  43.498   2.739
30188W        W 1771  24.216  22.735   0.540
30189W        W 1772  24.923  21.566   1.734
30190W        W 1773   2.456  35.172   2.792
30191W        W 1774   3.409  31.489  12.860
30192W        W 1775  20.145  42.091  14.005
30193W        W 1776   4.219  37.432  14.736
30194W        W 1777  20.645   9.571   4.279
30195W        W 1778  15.835   0.699  11.138
30196W        W 1779  19.017   4.813   4.931
30197W        W 1780  11.849   4.411   0.449
30198W        W 1781  15.329  42.268  12.107
30199W        W 1782  38.357  22.041   1.307
30200W        W 1783  10.799  33.928   1.929
30201W        W 1784  43.526  36.706   3.665
30202W        W 1785  18.883  34.015  12.279
30203W        W 1786  12.687  15.410   3.679
30204W        W 1787   4.255  38.992   9.958
30205W        W 1788  31.091   0.316  12.903
30206W        W 1789  10.165  44.068  12.905
30207W        W 1790  43.813  26.907  12.876
30208W        W 1791  18.063  30.549   0.713
30209W        W 1792  38.738  38.832   2.283
30210W        W 1793   4.313  32.928  11.172
30211W        W 1794  21.609  13.720   0.434
30212W        W 1795   0.716  35.455   1.203
30213W        W 1796  22.665   0.361   4.330
30214W        W 1797   8.430  41.732  13.481
30215W        W 1798   4.121  24.991  13.094
30216W        W 1799  25.611  17.283   3.801
30217W        W 1800   7.336  26.606  10.758
30218W        W 1801  44.778   6.713  12.643
30219W        W 1802  11.732  42.449   3.650
30220W        W 1803   3.504   7.276  12.537
30221W        W 1804  43.663  41.309  10.710
30222W        W 1805   8.900  23.063  14.348
30223W        W 1806  16.175  34.354  11.946
30224W        W 1807  40.973  28.515  11.271
30225W        W 1808  33.072  19.724   4.179
30226W        W 1809  19.074  37.330  13.460
30227W        W 1810  27.481   4.421   1.836
30228W        W 1811   1.315  11.727   3.209
30229W        W 1812  24.644   7.458   0.372
30230W        W 1813  25.197  23.297  11.661
30231W        W 1814  32.125  34.556   3.322
30232W        W 1815   1.380  38.774   2.074
30233W        W 1816  27.522  28.070   1.570
30234W        W 1817  41.413  43.777   3.214
30235W        W 1818  23.632  27.751  11.167
30236W        W 1819  29.266  21.285  11.550
30237W        W 1820  43.288  14.282  11.472
30238W        W 1821  17.965  32.218   3.261
30239W        W 1822   4.030   3.773   0.651
30240W        W 1823  36.061  11.098  11.294
30241W        W 1824  39.282  26.435  13.426
30242W        W 1825  24.819   7.104  12.112
30243W        W 1826   2.202  14.790  11.053
30244W        W 1827  18.724  29.095  10.586
30245W        W 1828  34.628  15.095  14.252
30246W        W 1829   1.944  22.720  14.368
30247W        W 1830   3.469  14.669   2.248
30248W        W 1831  33.905  15.366  12.478
30249W        W 1832  25.123  21.727  10.689
30250W        W 1833  28.886  32.063  10.480
30251W        W 1834  13.436  32.833  13.528
30252W        W 1835  40.464  13.685   3.184
30253W        W 1836  22.128   0.336  13.458
30254W        W 1837  24.016  40.769  13.796
30255W        W 1838  29.016  14.099  12.143
30256W        W 1839  34.905   8.590  14.368
30257W        W 1840  26.108   0.049   4.274
30258W        W 1841  23.977  19.146  13.464
30259W        W 1842  32.607  36.875   2.378
30260W        W 1843  28.486  37.540  14.267
30261W        W 1844  13.315  25.627  12.886
30262W        W 1845  15.756   1.094  12.066
30263W        W 1846  13.271  43.921   4.136
30264W        W 1847  14.068  43.659   3.685
30265W        W 1848  44.071  21.804  14.393
30266W        W 1849  16.175  37.047   1.769
30267W        W 1850  43.308  42.548  13.438
30268W        W 1851  22.689  36.643   0.299
30269W        W 1852  41.193   2.159  14.979
30270W        W 1853  44.477  17.611  13.105
30271W        W 1854   4.672  30.445  13.913
30272W        W 1855  27.463  22.944  14.945
30273W        W 1856   9.872  40.332   3.314
30274W        W 1857  43.888  12.183  12.253
30275W        W 1858  12.325   3.225  14.350
30276W        W 1859  10.210  11.322  14.526
30277W        W 1860  22.201  20.573  10.057
30278W        W 1861   3.909  17.416  11.131
30279W        W 1862  12.367  33.856   2.366
30280W        W 1863   4.698  36.207  14.310
30281W        W 1864  25.624  40.620  12.942
30282W        W 1865  37.032  14.866   1.699
30283W        W 1866   1.849   1.882   1.332
30284W        W 1867   1.059   2.842  14.999
30285W        W 1868  34.532   6.677   3.786
30286W        W 1869  17.600  35.928  10.683
30287W        W 1870  11.169  21.776  10.607
30288W        W 1871  40.396  38.614   2.318
30289W        W 1872  34.687  23.360   3.963
30290W        W 1873  43.230  29.564  10.696
30291W        W 1874  23.935   2.036   0.102
30292W        W 1875  30.377   4.294  14.015
30293W        W 1876  39.666   6.134  12.675
30294W        W 1877  34.611  31.390  12.588
30295W        W 1878  22.033  43.996   0.743
30296W        W 1879  38.412  15.261  12.622
30297W        W 1880   9.366   3.627  10.740
30298W        W 1881  10.936  22.509   2.037
30299W        W 1882  17.675   6.599  13.104
30300W        W 1883  36.167  35.428  13.404
30301W        W 1884  20.267  43.826  13.445
30302W        W 1885  25.482   0.286   1.738
30303W        W 1886  35.461   4.690   0.499
30304W        W 1887   3.280  26.226  14.974
30305W        W 1888  19.698   5.743   2.355
30306W        W 1889  20.175   1.380  13.589
30307W        W 1890  43.629  17.792   1.213
30308W        W 1891  31.529  24.204   2.378
30309W        W 1892  35.673  20.730  12.478
30310W        W 1893   5.194  27.667  13.939
30311W        W 1894  27.417   4.264   0.971
30312W        W 1895  28.118  17.756   4.371
30313W        W 1896   6.446   8.260   1.897
30314W        W 1897  27.631  15.286   3.305
30315W        W 1898   1.364  35.196  11.967
30316W        W 1899  14.233  29.774   4.587
30317W        W 1900  18.140   6.400   1.729
30318W        W 1901  18.677  29.145   1.942
30319W        W 1902  28.592  12.687  12.929
30320W        W 1903  22.741  32.942   1.370
30321W        W 1904  23.049  44.222  13.940
30322W        W 1905  29.998  13.611   4.685
30323W        W 1906  34.758  12.621   4.973
30324W        W 1907  40.389  39.831   3.751
30325W        W 1908   7.724  40.923   1.717
30326W        W 1909   1.446   6.771   2.732
30327W        W 1910  24.745  21.732   4.593
30328W        W 1911  43.271  15.648   4.995
30329W        W 1912  13.331   4.256  13.880
30330W        W 1913   8.231  11.282  11.655
30331W        W 1914   2.538   4.383  13.331
30332W        W 1915  27.635   6.387   0.551
30333W        W 1916  27.083  30.745   4.630
30334W        W 1917  42.869  23.780   0.608
30335W        W 1918  25.435  10.225   5.182
30336W        W 1919  28.440  13.543  11.973
30337W        W 1920  25.868  30.923   1.251
30338W        W 1921  26.560  37.448   0.983
30339W        W 1922  15.358  31.531   4.824
30340W        W 1923  44.385  32.898   4.217
30341W        W 1924  30.886  22.957  13.049
30342W        W 1925  44.023  35.907  14.752
30343W        W 1926  24.698  32.446   4.347
30344W        W 1927   0.235  33.478   3.264
30345W        W 1928  43.011   5.255   0.874
30346W        W 1929  31.076  39.917  11.092
30347W        W 1930  18.151  37.035   2.757
30348W        W 1931   3.817  37.987  12.102
30349W        W 1932  29.167  21.639  12.003
30350W        W 1933   9.208  32.978   3.840
30351W        W 1934   9.259  16.676   1.232
30352W        W 1935   0.562   0.166   3.626
30353W        W 1936  27.160   8.201  11.697
30354W        W 1937   3.430   1.887   0.504
30355W        W 1938  28.630  12.356  14.845
30356W        W 1939  17.552  44.708   0.443
30357W        W 1940  14.497  42.368   3.175
30358W        W 1941  22.969  40.832  11.194
30359W        W 1942  42.958   6.897  12.119
30360W        W 1943  34.140  37.990  12.435
30361W        W 1944  10.410  13.297  14.876
30362W        W 1945   4.931  25.930   2.251
30363W        W 1946  12.127   8.576   4.395
30364W        W 1947  20.250  39.252  11.822
30365W        W 1948  28.963   5.433   0.679
30366W        W 1949  26.959   4.271  11.985
30367W        W 1950  16.208  37.843  14.101
30368W        W 1951  21.607  40.769   4.223
30369W        W 1952  22.203  25.005   2.421
30370W        W 1953  39.797  41.017   4.526
30371W        W 1954   0.974  17.981   0.962
30372W        W 1955   8.872  12.857   1.986
30373W        W 1956  16.693   6.915  10.599
30374W        W 1957  37.977  13.542   3.778
30375W        W 1958  29.492  41.671   4.090
30376W        W 1959   2.325  44.325   4.124
30377W        W 1960  24.233   9.594  13.866
30378W        W 1961  28.153  41.118  14.916
30379W        W 1962  41.907  12.291   1.921
30380W        W 1963   2.070  12.322  14.316
30381W        W 1964   8.802  18.165   3.373
30382W        W 1965  12.842  19.191   3.405
30383W        W 1966  22.002   5.753  13.522
30384W        W 1967  25.214  16.291   4.629
30385W        W 1968  34.093  24.995  13.851
30386W        W 1969  24.644   6.030   3.737
30387W        W 1970  28.809  21.079   1.501
30388W        W 1971  29.455  29.513   2.376
30389W        W 1972  27.685   5.565   4.842
30390W        W 1973  16.049   5.872   1.387
30391W        W 1974  11.881  40.937  13.992
30392W        W 1975  38.067   3.710  11.111
30393W        W 1976  40.577  24.171  12.952
30394W        W 1977  25.427  39.981   1.699
30395W        W 1978  13.251  19.720  12.104
30396W        W 1979  11.506  37.562   1.253
30397W        W 1980  24.615  40.081  12.592
30398W        W 1981  29.837  26.243  13.551
30399W        W 1982  24.657  11.754   2.026
30400W        W 1983   2.225  16.156  13.471
30401W        W 1984  39.541   0.598   2.418
30402W        W 1985  19.150  17.119   1.064
30403W        W 1986  10.258  36.514  14.756
30404W        W 1987   8.448  12.794  12.018
30405W        W 1988  12.691  23.764   4.051
30406W        W 1989  42.265  22.220   3.948
30407W        W 1990   1.873  40.292   1.421
30408W        W 1991  39.033  25.962   1.159
30409W        W 1992  12.193  16.117   1.347
30410W        W 1993   9.201  27.434   1.630
30411W        W 1994   5.363  28.146  12.670
30412W        W 1995  30.100  12.596  12.382
30413W        W 1996  33.465  21.850  14.989
30414W        W 1997  42.412   5.878  11.587
30415W        W 1998  22.461  10.198   4.671
30416W        W 1999  12.182  42.096  10.998
30417W        W 2000  16.013  13.136   1.347
30418W        W 2001  20.584  40.946   4.138
30419W        W 2002  20.519  22.103   1.307
30420W        W 2003  42.017  14.522   4.428
30421W        W 2004   6.964   1.566   0.831
30422W        W 2005  28.907  33.384  14.734
30423W        W 2006  27.549  12.112  12.874
30424W        W 2007  15.687  38.421  10.245
30425W        W 2008  22.619   7.086   3.654
30426W        W 2009  26.440  22.020  12.464
30427W        W 2010  38.774  27.658   0.481
30428W        W 2011  36.505  32.665  12.334
30429W        W 2012  23.640   0.189   2.777
30430W        W 2013  33.916  22.035  11.656
30431W        W 2014   9.664   3.260  14.890
30432W        W 2015  32.603   9.832  12.641
30433W        W 2016  32.092  21.166   0.966
30434W        W 2017  33.929   4.316   0.726
30435W        W 2018  41.329  30.899   0.864
30436W        W 2019  17.294  16.557  11.129
30437W        W 2020  34.392  14.615   1.766
30438W        W 2021  18.099  42.932  13.009
30439W        W 2022  40.895  44.577  11.134
30440W        W 2023  21.341  18.184   4.767
30441W        W 2024  25.172  32.591   4.170
30442W        W 2025   8.111  28.209   4.175
30443W        W 2026  23.776  38.865   3.886
30444W        W 2027  43.493  30.645  11.917
30445W        W 2028   8.594  11.675   3.206
30446W        W 2029  25.158  12.459  10.130
30447W        W 2030  33.829  12.420  12.711
30448W        W 2031   2.943  35.283   3.498
30449W        W 2032  22.246  30.406  14.539
30450W        W 2033  28.476  35.092  12.105
30451W        W 2034  34.511  28.244  10.779
30452W        W 2035   5.232  40.747   0.782
30453W        W 2036   6.180  18.497   2.243
30454W        W 2037  28.402   6.929   1.952
30455W        W 2038  21.923  29.910  12.436
30456W        W 2039  30.961  29.429  12.028
30457W        W 2040  31.416  44.257   2.395
30458W        W 2041   3.389  28.045  11.551
30459W        W 2042  18.455  30.078  12.893
30460W        W 2043  24.480  15.350  12.793
30461W        W 2044  30.157   4.390   1.261
30462W        W 2045  29.033  25.009  11.230
30463W        W 2046  40.461  31.727   9.945
30464W        W 2047  15.226  27.916   4.163
30465W        W 2048   2.944  12.794   4.718
30466W        W 2049  30.965  44.400  12.139
30467W        W 2050  31.794  24.056   4.994
30468W        W 2051  18.635  38.488  12.707
30469W        W 2052  39.300  11.648   1.783
30470W        W 2053  26.461  34.669   1.157
30471W        W 2054   6.823   6.730   0.580
30472W        W 2055  31.053  28.424  12.959
30473W        W 2056  30.238  25.556   2.065
30474W        W 2057  41.502  43.091   2.037
30475W        W 2058  28.656  17.525  14.117
30476W        W 2059   2.848  25.173   4.716
30477W        W 2060  21.160  26.071   1.412
30478W        W 2061  42.735   8.816  13.005
30479W        W 2062  30.502  17.014   2.493
30480W        W 2063  40.963  34.340  12.455
30481W        W 2064  27.525  12.222   1.793
30482W        W 2065  44.376  32.584   3.810
30483W        W 2066  42.120  15.821   3.664
30484W        W 2067   9.561   3.691  13.953
30485W        W 2068  25.504  24.045  12.877
30486W        W 2069  32.608  23.434   1.165
30487W        W 2070  22.955  20.242   1.315
30488W        W 2071  30.448   2.834   1.241
30489W        W 2072  19.109  25.970   0.466
30490W        W 2073  22.533  37.279  11.400
30491W        W 2074  37.978  27.093   0.082
30492W        W 2075  37.033  12.207  13.564
30493W        W 2076   5.337  18.631  11.892
30494W        W 2077  15.514  20.701   1.262
30495W        W 2078  31.290  27.636   3.689
30496W        W 2079  37.797   1.922   1.023
30497W        W 2080  29.003   4.283   4.250
30498W        W 2081  39.878  30.917   4.386
30499W        W 2082  39.449  24.630   1.098
30500W        W 2083  21.677  43.164   1.786
30501W        W 2084  29.292  35.047   1.748
30502W        W 2085  15.618   0.874  12.487
30503W        W 2086  41.545   0.601  10.766
30504W        W 2087  43.523  20.007  13.952
30505W        W 2088   4.651   5.663  14.477
30506W        W 2089  42.360  33.024   0.907
30507W        W 2090  10.403  41.996   5.014
30508W        W 2091  28.979  11.209  12.809
30509W        W 2092  11.200  22.365   4.654
30510W        W 2093   2.299   9.492  12.426
30511W        W 2094  40.012   3.378  11.276
30512W        W 2095  36.093  43.321   1.631
30513W        W 2096  16.619   0.922   2.914
30514W        W 2097  28.941  38.594  11.932
30515W        W 2098  34.854  12.574   1.012
30516W        W 2099   0.100   2.995   0.765
30517W        W 2100  25.488  24.185  10.482
30518W        W 2101   6.527  24.063   4.873
30519W        W 2102  19.202  32.896  14.571
30520W        W 2103  30.613  39.248  12.584
30521W        W 2104  16.116  24.146   3.097
30522W        W 2105  40.951  44.859  14.391
30523W        W 2106  23.361  10.387  11.526
30524W        W 2107  14.018   8.968   1.706
30525W        W 2108   4.305   4.892  12.377
30526W        W 2109  20.927   0.444  14.058
30527W        W 2110  28.176  44.701  10.496
30528W        W 2111  26.916  37.580  11.702
30529W        W 2112  12.248  34.281  11.539
30530W        W 2113  32.299  30.785   2.675
30531W        W 2114  28.184  36.962   2.140
30532W        W 2115  29.244   9.777  11.710
30533W        W 2116   1.515  41.857   0.863
30534W        W 2117  11.340  17.769  11.113
30535W        W 2118  42.028   5.831   3.368
30536W        W 2119  30.427  18.161  14.531
30537W        W 2120  35.481  36.189   2.373
30538W        W 2121  28.310  13.177  13.985
30539W        W 2122   2.208  41.830   3.615
30540W        W 2123  15.287   3.277   4.966
30541W        W 2124  29.039  37.006   0.766
30542W        W 2125  38.545  33.507   0.877
30543W        W 2126  43.418  30.708  11.411
30544W        W 2127  40.543  31.082  11.996
30545W        W 2128  30.362  13.385   1.101
30546W        W 2129  36.584   9.112  13.756
30547W        W 2130   7.651  39.458   2.388
30548W        W 2131   2.766   7.391  11.050
30549W        W 2132  29.799  27.457  14.938
30550W        W 2133  15.671  13.318   3.724
30551W        W 2134  32.827  12.164  13.916
30552W        W 2135  36.945  34.071  13.229
30553W        W 2136  31.438   8.420  11.204
30554W        W 2137  27.100  22.178   1.293
30555W        W 2138   5.851  35.087   3.857
30556W        W 2139  39.640  19.631  13.293
30557W        W 2140  28.519  40.845  11.153
30558W        W 2141  10.800   6.772   1.203
30559W        W 2142   6.326  29.571   2.580
30560W        W 2143  17.981  18.197  13.503
30561W        W 2144  44.268  34.527  13.474
30562W        W 2145  33.613   9.869   2.272
30563W        W 2146  40.030  44.360  14.379
30564W        W 2147   9.025  25.547  14.588
30565W        W 2148  26.248  37.926  14.446
30566W        W 2149  13.221  20.730  11.625
30567W        W 2150  29.654  24.214   1.933
30568W        W 2151  39.374  41.775   1.836
30569W        W 2152  30.989  28.146   1.705
30570W        W 2153   1.679  35.390  14.318
30571W        W 2154  14.682  44.806   2.250
30572W        W 2155   7.414  40.331   4.178
30573W        W 2156  27.710  12.106  14.818
30574W        W 2157  38.812  40.477   0.675
30575W        W 2158  20.777  21.815   4.243
30576W        W 2159  25.346  19.339   3.196
30577W        W 2160  19.558  10.629  12.107
30578W        W 2161  29.673  33.727  12.828
30579W        W 2162  40.542  23.017   0.261
30580W        W 2163   1.079  28.561   3.605
30581W        W 2164  33.613  28.523  11.565
30582W        W 2165   8.135   9.792   2.161
30583W        W 2166   6.784   0.083   0.966
30584W        W 2167  33.115  19.318   4.515
30585W        W 2168  33.866  43.940   0.593
30586W        W 2169  35.149  20.674  12.474
30587W        W 2170  12.170  10.956   0.189
30588W        W 2171   8.809  44.531   2.783
30589W        W 2172  12.088  17.030   3.860
30590W        W 2173  33.825   2.129  14.549
30591W        W 2174   5.728  38.533  14.540
30592W        W 2175  25.588  29.142  13.029
30593W        W 2176  22.277  31.948   1.791
30594W        W 2177  32.891   8.862   3.749
30595W        W 2178   0.360  33.855  12.512
30596W        W 2179  13.114  16.047   1.303
30597W        W 2180  29.591   0.440   0.624
30598W        W 2181   3.009  39.456   9.758
30599W        W 2182  10.889  42.701   0.495
30600W        W 2183  35.017   0.217  11.216
30601W        W 2184  29.966   0.522   1.809
30602W        W 2185  31.377  41.147   2.584
30603W        W 2186  32.595  18.145  13.521
30604W        W 2187   4.011   9.418  11.957
30605W        W 2188  38.357   6.897   3.682
30606W        W 2189  30.930  40.478  14.372
30607W        W 2190  23.668  22.986  11.016
30608W        W 2191  21.884  39.981   2.668
30609W        W 2192  25.360  32.418  11.256
30610W        W 2193   8.913  38.362  13.996
30611W        W 2194  29.229  17.545   0.790
30612W        W 2195   1.709  40.878   1.163
30613W        W 2196  25.977  40.120  13.706
30614W        W 2197   5.838   6.315   3.453
30615W        W 2198  44.883  44.791   0.469
30616W        W 2199  17.000  21.239   4.035
30617W        W 2200   8.364  23.318   2.805
30618W        W 2201  23.030   9.882  10.179
30619W        W 2202  23.215   6.220   3.806
30620W        W 2203  34.803  26.602   3.732
30621W        W 2204  32.955  33.466  12.456
30622W        W 2205  16.562  28.231   2.116
30623W        W 2206  13.443   2.816   3.375
30624W        W 2207  26.953  31.670  13.329
30625W        W 2208  39.879  31.439   3.648
30626W        W 2209   6.390  11.879   1.962
30627W        W 2210  26.909  39.438  13.217
30628W        W 2211  21.313  10.714  11.928
30629W        W 2212  20.749  12.199   1.749
30630W        W 2213  31.029  19.328   4.745
30631W        W 2214  21.272  41.736  12.874
30632W        W 2215  14.198  39.773  14.123
30633W        W 2216  28.679  13.441  13.722
30634W        W 2217  19.035  19.783  12.545
30635W        W 2218  32.200  42.616   0.101
30636W        W 2219  12.702  19.277   2.537
30637W        W 2220  32.581  28.138   1.283
30638W        W 2221  38.592  36.067  12.940
30639W        W 2222  38.531  28.431  11.997
30640W        W 2223  11.774  11.169   3.301
30641W        W 2224   0.288  20.307   1.900
30642W        W 2225  40.529   8.834  11.924
30643W        W 2226  11.537  12.134  12.548
30644W        W 2227  23.524   7.162   3.428
30645W        W 2228  32.028  12.639   0.514
30646W        W 2229  39.520   3.982  14.295
30647W        W 2230   0.989  26.368  11.119
30648W        W 2231  33.589  35.626   0.805
30649W        W 2232  39.297  35.011  14.587
30650W        W 2233   7.345  11.766   2.039
30651W        W 2234  18.441  42.693  12.066
30652W        W 2235  32.443   6.792  14.385
30653W        W 2236  14.669  43.287   0.338
30654W        W 2237   9.715  34.570   4.599
30655W        W 2238  20.276   3.797   4.706
30656W        W 2239  43.066  35.038   4.563
30657W        W 2240  18.792   5.922   1.679
30658W        W 2241   0.201  13.221   2.201
30659W        W 2242   5.924   8.486   0.719
30660W        W 2243  27.933  38.009   3.562
30661W        W 2244  24.452   4.660   3.195
30662W        W 2245   9.646   7.721   4.615
30663W        W 2246   3.696  10.755   0.831
30664W        W 2247  41.963  18.756   2.353
30665W        W 2248  26.040   4.305  13.884
30666W        W 2249  13.327  42.371   3.804
30667W        W 2250  33.543   3.785  12.490
30668W        W 2251  22.422  33.369   4.990
30669W        W 2252  33.451  17.779   0.008
30670W        W 2253  13.626   8.761   2.837
30671W        W 2254  30.628  25.459   1.283
30672W        W 2255  24.515  20.599   1.843
30673W        W 2256  41.554  30.141  12.038
30674W        W 2257  10.909  44.364  12.415
30675W        W 2258  39.917  33.851   3.152
30676W        W 2259  24.216  29.177  13.553
30677W        W 2260  43.731  12.361   0.495
30678W        W 2261  32.942  39.109  14.784
30679W        W 2262   4.237  18.497   3.358
30680W        W 2263   1.382  34.170  13.371
30681W        W 2264   6.624  16.521  12.043
30682W        W 2265  17.089   8.662   2.260
30683W        W 2266   4.489   3.333   2.213
30684W        W 2267   6.369   1.698   4.541
30685W        W 2268  43.256  12.481  14.783
30686W        W 2269  35.578  41.517   2.329
30687W        W 2270  13.955  32.184  10.154
30688W        W 2271   8.708  35.506  10.637
30689W        W 2272  38.064  37.557  10.913
30690W        W 2273  10.930   5.297   0.161
30691W        W 2274  44.320  33.270   5.050
30692W        W 2275  30.181   0.588  11.258
30693W        W 2276  16.513  28.937  13.330
30694W        W 2277  26.086   7.594   4.764
30695W        W 2278  29.885  43.332   0.232
30696W        W 2279  33.509  30.828  11.999
30697W        W 2280  39.794   0.833  14.828
30698W        W 2281  19.789  43.007  14.342
30699W        W 2282  41.490  14.501  10.617
30700W        W 2283   4.734   7.617   1.199
30701W        W 2284  35.726  22.981  11.140
30702W        W 2285  36.757   6.746  13.114
30703W        W 2286  28.504  41.428  11.554
30704W        W 2287   7.636  33.024  11.499
30705W        W 2288  26.926  26.616  13.921
30706W        W 2289  21.378  27.057  11.390
30707W        W 2290   6.957  17.783   4.626
30708W        W 2291  10.892   7.714  13.616
30709W        W 2292  20.248  20.231   3.020
30710W        W 2293  12.254  14.799   3.205
30711W        W 2294  43.985  40.996   4.571
30712W        W 2295  13.609   5.408   3.916
30713W        W 2296  18.257  29.176  11.924
30714W        W 2297  11.684  16.589  12.447
30715W        W 2298  29.527  43.628   0.467
30716W        W 2299  15.765  17.797  13.679
30717W        W 2300   9.798  43.677  12.857
30718W        W 2301   2.432  17.387   4.664
30719W        W 2302  13.651  33.575   1.162
30720W        W 2303  31.117  33.887  10.466
30721W        W 2304  15.131  18.775  13.510
30722W        W 2305  43.547  25.952  10.880
30723W        W 2306  12.249  20.184   2.642
30724W        W 2307  15.773   2.781   1.624
30725W        W 2308  42.681  19.158  14.377
30726W        W 2309   9.295   0.438  10.845
30727W        W 2310  17.563   3.880   3.417
30728W        W 2311  23.626  24.038   3.269
30729W        W 2312  34.845  17.101  12.164
30730W        W 2313  43.881  31.264  14.103
30731W        W 2314  13.373  28.910   1.345
30732W        W 2315  21.529  36.201  11.562
30733W        W 2316  23.286  34.449  14.262
30734W        W 2317  25.452  18.587   2.719
30735W        W 2318  22.191  30.010   3.763
30736W        W 2319  34.876  22.025   1.919
30737W        W 2320  39.193  43.203   1.632
30738W        W 2321   8.879   2.326   1.261
30739W        W 2322   3.251   9.051   1.742
30740W        W 2323  34.131  24.224   2.316
30741W        W 2324  34.020  39.064  13.847
30742W        W 2325   6.884  16.578  13.417
30743W        W 2326  11.321   1.417   4.442
30744W        W 2327  30.487  18.495  13.061
30745W        W 2328  29.086  39.456   1.316
30746W        W 2329  42.844  44.699  11.571
30747W        W 2330   7.170   6.962  14.943
30748W        W 2331  25.205  10.117   1.505
30749W        W 2332  39.581  26.458   4.272
30750W        W 2333   1.283  35.872  13.871
30751W        W 2334  25.953  13.744  12.001
30752W        W 2335  32.938  14.576   3.264
30753W        W 2336  25.463   7.355   2.310
30754W        W 2337  17.339   6.758   2.300
30755W        W 2338  24.313  13.637   4.378
30756W        W 2339  22.791  11.816   4.260
30757W        W 2340   4.424  23.354  12.419
30758W        W 2341  36.165   5.153  10.728
30759W        W 2342   9.902  41.397  12.376
30760W        W 2343  44.304  16.265  13.450
30761W        W 2344  21.653  28.893   4.167
30762W        W 2345  17.110  38.968  12.015
30763W        W 2346   6.880  27.716   1.637
30764W        W 2347  41.991  43.803   4.325
30765W        W 2348  22.638   2.283  12.895
30766W        W 2349  15.082   1.202   2.581
30767W        W 2350  14.652  41.745   1.916
30768W        W 2351  31.904  33.606  14.790
30769W        W 2352   7.309  13.262  12.933
30770W        W 2353  36.613  40.715  14.316
30771W        W 2354  20.157  11.102  12.314
30772W        W 2355  16.875   5.180  11.166
30773W        W 2356  10.587  30.470   4.177
30774W        W 2357  31.671  13.466  13.352
30775W        W 2358  15.019  17.319   0.108
30776W        W 2359  31.214  13.237   1.364
30777W        W 2360  31.094   8.380   1.814
30778W        W 2361  16.994  44.936  10.283
30779W        W 2362  40.910  38.932  14.253
30780W        W 2363  42.478  20.041   2.230
30781W        W 2364  21.059  40.507   0.376
30782W        W 2365  10.361   9.287   2.801
30783W        W 2366  43.511   4.454   2.697
30784W        W 2367  39.414  24.161  12.138
30785W        W 2368  33.888  16.748   2.249
30786W        W 2369  36.106  39.095   0.344
30787W        W 2370  11.223  35.893   2.429
30788W        W 2371  16.844  34.533  14.915
30789W        W 2372  30.088  39.812  11.139
30790W        W 2373  13.968  23.943  11.619
30791W        W 2374  28.015  14.895   2.607
30792W        W 2375   3.343  15.754   2.967
30793W        W 2376  38.136  17.032   1.370
30794W        W 2377  16.804   0.823  12.796
30795W        W 2378  36.006  29.503   2.704
30796W        W 2379   6.607  18.179   2.196
30797W        W 2380  41.434   9.712   4.122
30798W        W 2381  36.122   5.390  14.966
30799W        W 2382   9.834  39.428  10.858
30800W        W 2383  33.606  28.507   3.771
30801W        W 2384  36.449  34.546  14.751
30802W        W 2385  20.559  18.120  10.201
30803W        W 2386   4.382  27.475   1.342
30804W        W 2387  14.258  15.522  11.450
30805W        W 2388  40.998  28.138  11.666
30806W        W 2389  44.923  32.049   1.424
30807W        W 2390  11.218  29.589   0.453
30808W        W 2391  27.916   5.705  14.892
30809W        W 2392  25.647  14.884  13.121
30810W        W 2393  12.858  29.404   1.140
30811W        W 2394   7.740  35.499   4.397
30812W        W 2395   5.676  17.585  14.921
30813W        W 2396  22.896  29.585  10.193
30814W        W 2397  19.491  20.351  11.901
30815W        W 2398  27.478  36.659   2.045
30816W        W 2399  17.088  19.177  11.049
30817W        W 2400  37.993  29.980   2.409
30818W        W 2401   2.865   9.439   1.019
30819W        W 2402   3.262   5.039  12.661
30820W        W 2403  31.799   0.064   0.123
30821W        W 2404  20.179  19.217  14.493
30822W        W 2405   7.635  15.181   3.638
30823W        W 2406  20.473  18.142   3.069
30824W        W 2407  21.215   4.968  10.851
30825W        W 2408  41.939  37.193   3.826
30826W        W 2409  37.602  40.111  12.029
30827W        W 2410   6.625  20.199   1.804
30828W        W 2411   6.309  19.733   0.989
30829W        W 2412  34.580  16.663  11.124
30830W        W 2413  16.021  43.178   0.637
30831W        W 2414  24.291   8.071   2.257
30832W        W 2415  17.238  11.528  10.313
30833W        W 2416  40.472  17.873   3.379
30834W        W 2417  24.582  18.545   3.786
30835W        W 2418  44.728  14.674   3.800
30836W        W 2419  21.013   2.487  13.552
30837W        W 2420  32.439   9.142  12.455
30838W        W 2421  25.686  13.761   2.772
30839W        W 2422  30.595  34.063   1.512
30840W        W 2423  27.661  42.889  12.528
30841W        W 2424  20.718  24.461  10.660
30842W        W 2425  33.992  36.958   1.253
30843W        W 2426  39.401   5.109  11.607
30844W        W 2427  36.140  42.026   2.960
30845W        W 2428  18.732  37.107  12.086
30846W        W 2429   4.852   3.428   4.176
30847W        W 2430  39.534  23.523  10.857
30848W        W 2431  23.225  28.035   3.836
30849W        W 2432  30.014   2.924   0.923
30850W        W 2433  36.997  22.689   3.946
30851W        W 2434  32.662  10.997  11.859
30852W        W 2435  21.914  15.278  14.416
30853W        W 2436  44.972  10.832   4.950
30854W        W 2437  27.909   6.837  12.482
30855W        W 2438   4.711  21.742  11.229
30856W        W 2439  15.118  34.430  14.030
30857W        W 2440  22.032  42.202   2.893
30858W        W 2441   1.499  24.068  11.741
30859W        W 2442  32.610  38.901  11.494
30860W        W 2443  42.441  41.580   0.323
30861W        W 2444  24.071  26.616   9.921
30862W        W 2445  12.639  22.902  12.474
30863W        W 2446  31.363  19.030   5.019
30864W        W 2447  15.297  42.267   3.731
30865W        W 2448  23.112  44.436   1.118
30866W        W 2449  31.395  32.083  12.124
30867W        W 2450  27.105  29.748   0.746
30868W        W 2451  17.998  37.968   1.780
30869W        W 2452  17.432  14.649  14.326
30870W        W 2453  36.486  14.126   1.682
30871W        W 2454  36.628  41.788   0.553
30872W        W 2455  12.292  21.785  14.420
30873W        W 2456  43.945  10.211   1.398
30874W        W 2457  10.296  20.900   2.215
30875W        W 2458  10.724   5.783   0.214
30876W        W 2459  38.722  42.668   0.899
30877W        W 2460  35.172   9.372  13.989
30878W        W 2461  22.641  38.306  10.091
30879W        W 2462  16.508  30.412  14.116
30880W        W 2463   4.814  42.441   2.702
30881W        W 2464   8.092  28.604   0.753
30882W        W 2465   8.855  12.965  13.718
30883W        W 2466  10.910  35.299   2.245
30884W        W 2467   5.692  25.780  12.341
30885W        W 2468   3.812  35.421   3.034
30886W        W 2469  39.311  22.605   2.829
30887W        W 2470  20.959  20.307  14.866
30888W        W 2471  36.048  37.802   2.223
30889W        W 2472  22.708  35.915   0.876
30890W        W 2473  19.051  23.738   4.886
30891W        W 2474  23.614  20.949  11.086
30892W        W 2475   5.352  29.928   1.686
30893W        W 2476  15.974  25.613  14.750
30894W        W 2477  11.192  38.540   1.744
30895W        W 2478  38.255  44.807  10.469
30896W        W 2479  11.123  10.891  13.454
30897W        W 2480  38.957   3.371  11.432
30898W        W 2481   1.238  24.584  11.566
30899W        W 2482   0.232  35.373   1.415
30900W        W 2483  24.459  39.890  13.468
30901W        W 2484  16.128   6.911   4.131
30902W        W 2485   1.555   4.465   2.832
30903W        W 2486  31.933  29.244  13.760
30904W        W 2487  32.708   7.369   2.777
30905W        W 2488  26.891   6.761   0.355
30906W        W 2489   9.666  10.316   4.473
30907W        W 2490  17.538  30.188   3.356
30908W        W 2491   5.636  10.796   1.400
30909W        W 2492  16.574  39.768   0.388
30910W        W 2493  39.394  15.043   3.671
30911W        W 2494  30.980  28.547   2.043
30912W        W 2495   7.443   6.697   2.971
30913W        W 2496  31.010  34.580   4.179
30914W        W 2497  44.228  19.789  12.526
30915W        W 2498  23.842  16.245   0.225
30916W        W 2499  38.390   1.963  10.756
30917W        W 2500   7.520  17.117   0.889
30918W        W 2501   0.339   1.705   4.325
30919W        W 2502  42.414  24.955   3.177
30920W        W 2503  24.189   3.206   4.588
30921W        W 2504  22.775  18.099   2.917
30922W        W 2505  41.794   2.124  12.545
30923W        W 2506  44.183  13.248   1.939
30924W        W 2507  32.596  27.956   4.086
30925W        W 2508  14.182  44.262   2.817
30926W        W 2509   0.961  33.108  10.548
30927W        W 2510  33.617  11.442   1.270
30928W        W 2511  25.780  42.124  11.154
30929W        W 2512  23.594  11.062  11.202
30930W        W 2513  17.606  17.272   0.946
30931W        W 2514   9.334  18.359   4.918
30932W        W 2515  32.278  31.730  14.573
30933W        W 2516  25.097  28.980   4.403
30934W        W 2517  37.361  21.248   5.002
30935W        W 2518   8.231  40.288   4.978
30936W        W 2519  34.865  12.763   0.545
30937W        W 2520   9.842  28.523  14.989
30938W        W 2521   1.746  33.788  11.919
30939W        W 2522  42.359  27.579  12.397
30940W        W 2523  40.556  36.346  12.087
30941W        W 2524   0.470  17.817  14.790
30942W        W 2525  15.063  19.241  13.276
30943W        W 2526   9.166  32.428  11.233
30944W        W 2527  42.026  15.993   3.197
30945W        W 2528   5.214  31.410   2.805
30946W        W 2529  22.712  11.951  14.240
30947W        W 2530  11.875  13.325  13.253
30948W        W 2531  13.263  28.975  14.474
30949W        W 2532  32.577  21.705   5.064
30950W        W 2533   8.606  33.758   0.321
30951W        W 2534  37.356   8.276  12.103
30952W        W 2535   5.546  12.677   0.527
30953W        W 2536  31.507   5.550   2.013
30954W        W 2537   3.438  20.034  10.558
30955W        W 2538   5.327   3.852  10.729
30956W        W 2539  24.406  23.984   1.306
30957W        W 2540  13.181   6.287  12.452
30958W        W 2541  17.223  31.504  13.789
30959W        W 2542  29.110  25.437   3.640
30960W        W 2543  33.642  40.293  10.721
30961W        W 2544   1.231  19.335   1.017
30962W        W 2545  41.762  28.208  12.547
30963W        W 2546  37.308  11.217   2.585
30964W        W 2547   1.007   8.724   1.128
30965W        W 2548  14.262  34.992  13.135
30966W        W 2549   1.790  26.198  13.051
30967W        W 2550   3.369  13.297   4.040
30968W        W 2551  21.030  37.402  10.637
30969W        W 2552   0.751   5.521   1.491
30970W        W 2553   2.335  28.661  14.395
30971W        W 2554  44.436   9.155   5.064
30972W        W 2555  30.161  33.775   4.669
30973W        W 2556  30.819   6.006  10.192
30974W        W 2557  24.006  43.980  14.457
30975W        W 2558  17.317  33.670   4.657
30976W        W 2559  31.548   4.492   4.194
30977W        W 2560  23.987   1.941  14.396
30978W        W 2561   7.662   3.249  11.514
30979W        W 2562  11.444   9.658  14.344
30980W        W 2563  16.519  39.492   3.825
30981W        W 2564  39.390  14.094   0.996
30982W        W 2565  25.184  22.366   3.256
30983W        W 2566  41.397  40.518  11.156
30984W        W 2567   5.763  16.523  13.765
30985W        W 2568  34.329  21.748  14.963
30986W        W 2569   9.120   7.864  11.502
30987W        W 2570   3.814  21.456  12.500
30988W        W 2571  30.666  21.713  10.652
30989W        W 2572  13.594  13.497  11.033
30990W        W 2573   5.910  15.293  11.082
30991W        W 2574  22.283  22.058   3.272
30992W        W 2575  22.123  27.572  14.935
30993W        W 2576  31.639  42.528   1.890
30994W        W 2577  39.541  27.207  13.827
30995W        W 2578  17.026  12.441  10.549
30996W        W 2579  23.652   9.059   3.309
30997W        W 2580  30.665   8.318   4.585
30998W        W 2581  10.756  41.758   2.318
30999W        W 2582  31.885  26.093   1.405
31000W        W 2583  12.592  25.094  12.934
31001W        W 2584   3.650  27.528   2.671
31002W        W 2585  14.729  15.541  11.722
31003W        W 2586  25.721  19.045   3.443
31004W        W 2587  32.054  41.579  11.339
31005W        W 2588  10.143   7.004   0.962
31006W        W 2589  19.297  41.235  11.033
31007W        W 2590  19.360  36.851  10.637
31008W        W 2591  13.589  38.552  14.044
31009W        W 2592  11.151  33.865   0.406
31010W        W 2593  42.476   0.856   3.375
31011W        W 2594  36.952  31.157   3.743
31012W        W 2595  38.218  28.532   2.322
31013W        W 2596  11.241  43.669   1.657
31014W        W 2597   8.407   6.683   3.314
31015W        W 2598  15.593  26.563  13.861
31016W        W 2599  44.032   5.286  14.887
31017W        W 2600  17.972  17.606   1.363
31018W        W 2601  13.843  43.366  10.476
31019W        W 2602  24.969  43.320  11.390
31020W        W 2603  31.266  24.717   3.637
31021W        W 2604  39.323  38.294   3.665
31022W        W 2605  29.342  13.354   1.707
31023W        W 2606  15.361   0.759   0.229
31024W        W 2607  10.371  20.211   3.719
31025W        W 2608  31.958  34.906   1.522
31026W        W 2609  36.151  27.475   0.910
31027W        W 2610   5.304  22.230  13.863
31028W        W 2611   7.479   0.890   0.349
31029W        W 2612  17.803  11.396  11.025
31030W        W 2613  22.159   6.528  10.549
31031W        W 2614  12.844   3.124   1.583
31032W        W 2615   1.792  12.153  13.430
31033W        W 2616  17.517  44.842   4.235
31034W        W 2617  22.133  14.410  14.338
31035W        W 2618  22.433  44.328  10.246
31036W        W 2619  28.231  34.609   4.170
31037W        W 2620   0.811   1.727  13.513
31038W        W 2621  36.982  13.866  14.575
31039W        W 2622  39.634  16.179   3.190
31040W        W 2623  15.304  38.840   3.725
31041W        W 2624  25.070  12.811   4.990
31042W        W 2625  27.903  22.686   0.774
31043W        W 2626  39.726  32.417  11.082
31044W        W 2627   2.237  38.446   2.792
31045W        W 2628  29.070   1.275  12.622
31046W        W 2629  20.590  25.438  13.914
31047W        W 2630  36.818  27.746   0.471
31048W        W 2631  23.761   2.378   4.074
31049W        W 2632  11.356  28.154  13.000
31050W        W 2633   2.366  35.306  10.502
31051W        W 2634   2.931  29.759  14.018
31052W        W 2635  11.343  26.855  13.253
31053W        W 2636  24.199  37.695  11.565
31054W        W 2637   7.706  21.692  11.229
31055W        W 2638  20.812   3.934   0.957
31056W        W 2639  41.509   7.282   1.813
31057W        W 2640  34.807  28.050  12.577
31058W        W 2641  29.529  14.221  13.005
31059W        W 2642  42.337   0.440  14.328
31060W        W 2643   1.681  18.382   2.990
31061W        W 2644  15.624  14.098  13.911
31062W        W 2645  31.402  39.868  12.369
31063W        W 2646  22.620  40.474   3.717
31064W        W 2647  20.596  29.711  13.534
31065W        W 2648  33.365  30.430   0.363
31066W        W 2649   3.202  44.700   0.889
31067W        W 2650   2.725  15.931  14.186
31068W        W 2651  28.709  18.467  11.121
31069W        W 2652  29.940  27.257   1.186
31070W        W 2653  43.547   0.956  11.642
31071W        W 2654  19.096  18.777  10.657
31072W        W 2655  28.648  13.830   4.093
31073W        W 2656  21.631  18.335   2.373
31074W        W 2657  33.898  28.616  11.142
31075W        W 2658  31.394  39.994  13.374
31076W        W 2659  34.396  13.566  10.650
31077W        W 2660  13.725   4.347   0.347
31078W        W 2661  22.961   2.211  10.587
31079W        W 2662  20.349  24.804   4.636
31080W        W 2663  43.579  35.791  14.236
31081W        W 2664   1.863   7.623  12.928
31082W        W 2665  42.850  18.635  14.828
31083W        W 2666   9.088  31.394   3.640
31084W        W 2667   3.411  34.474  11.138
31085W        W 2668  33.481  27.774   1.279
31086W        W 2669  37.987  21.698   4.123
31087W        W 2670   0.228  34.013   2.366
31088W        W 2671  12.681  26.252   3.720
31089W        W 2672   4.799   2.494  12.281
31090W        W 2673  31.014  27.964   2.733
31091W        W 2674   5.938  26.527  11.680
31092W        W 2675  33.328  43.879   2.366
31093W        W 2676  25.453  36.391  10.827
31094W        W 2677   0.248  16.778  10.507
31095W        W 2678  27.465  24.493  11.872
31096W        W 2679   0.193  41.957  13.017
31097W        W 2680  14.051  17.279  13.430
31098W        W 2681  42.740   8.936  13.983
31099W        W 2682  41.939   2.013  13.038
31100W        W 2683   7.871  31.535   5.024
31101W        W 2684  12.046  28.376  13.633
31102W        W 2685  41.568  22.102   1.386
31103W        W 2686   4.112   1.670   1.261
31104W        W 2687   1.226  40.101   3.771
31105W        W 2688  33.029  14.572  13.995
31106W        W 2689  29.946  15.264  12.550
31107W        W 2690  15.842   7.226   1.724
31108W        W 2691  21.761   2.725   1.719
31109W        W 2692  26.571  43.462   3.698
31110W        W 2693  44.866  19.293  14.455
31111W        W 2694  32.813  15.224  11.541
31112W        W 2695  38.134  11.522   2.282
31113W        W 2696  16.689  41.992   4.245
31114W        W 2697  29.321  34.413   5.585
31115W        W 2698  19.234  27.592  14.517
31116W        W 2699  14.815  26.492   2.689
31117W        W 2700   7.785   1.456  11.583
31118W        W 2701  30.429  35.770  13.149
31119W        W 2702  10.917  31.104   2.945
31120W        W 2703  17.370  41.262   3.301
31121W        W 2704  43.330  24.251  12.781
31122W        W 2705  29.872  30.006   1.322
31123W        W 2706  20.921   6.278   5.158
31124W        W 2707   5.954  11.621   4.631
31125W        W 2708   5.339  21.622  12.913
31126W        W 2709  25.139  32.941  12.118
31127W        W 2710  42.848  42.229   1.275
31128W        W 2711   3.788  19.796  10.845
31129W        W 2712  12.885  30.039   3.765
31130W        W 2713  10.522  21.026   3.224
31131W        W 2714  42.362  32.445  13.857
31132W        W 2715  23.772  12.550  11.350
31133W        W 2716  35.789  22.031   3.834
31134W        W 2717  23.021   6.450   3.327
31135W        W 2718  27.449   4.859   4.609
31136W        W 2719  34.095  30.082   3.312
31137W        W 2720  21.014   2.540  12.657
31138W        W 2721  25.685  15.481   2.185
31139W        W 2722  32.093  34.920   4.653
31140W        W 2723  34.365  28.037   3.771
31141W        W 2724  31.953  33.314   0.236
31142W        W 2725  41.767  41.680  13.148
31143W        W 2726  29.149  10.830  12.005
31144W        W 2727   8.670  30.800   2.199
31145W        W 2728  15.401  20.621  14.315
31146W        W 2729  29.732   6.234   0.378
31147W        W 2730  25.260  22.287  13.090
31148W        W 2731   5.187  22.131  12.857
31149W        W 2732  25.142  18.740   4.644
31150W        W 2733  33.945   4.805   2.142
31151W        W 2734  25.553   0.995  11.016
31152W        W 2735  29.695  36.315  12.671
31153W        W 2736  11.224   0.758   1.974
31154W        W 2737  21.850  21.147   3.413
31155W        W 2738  30.609  25.599   0.712
31156W        W 2739  38.890  24.694   1.921
31157W        W 2740  28.145   3.534  10.236
31158W        W 2741  34.401   6.672   4.691
31159W        W 2742   3.136  21.771  12.021
31160W        W 2743  40.500  27.538  14.118
31161W        W 2744  10.311  11.333  11.545
31162W        W 2745  34.884   4.084   4.046
31163W        W 2746  43.764   6.815  11.516
31164W        W 2747  20.514  37.570  14.801
31165W        W 2748  17.299   1.281   0.797
31166W        W 2749  25.433  26.735   3.316
31167W        W 2750   6.253  12.692  13.815
31168W        W 2751  18.655  30.497  11.655
31169W        W 2752  35.425  32.618   3.194
31170W        W 2753  13.167  28.705  11.304
31171W        W 2754  32.650  29.583   4.630
31172W        W 2755  16.761  28.929  12.873
31173W        W 2756  44.026   4.460  14.363
31174W        W 2757  27.074   1.188   2.614
31175W        W 2758  33.579   1.472   0.230
31176W        W 2759  44.167  18.733   3.441
31177W        W 2760  30.996  19.947  13.411
31178W        W 2761  41.974  21.643  10.675
31179W        W 2762  25.623  23.595   2.654
31180W        W 2763  17.080  21.745  10.561
31181W        W 2764  43.695   5.602   4.274
31182W        W 2765  12.617  44.427   2.354
31183W        W 2766  36.476  14.835   2.364
31184W        W 2767  18.564  27.155   0.752
31185W        W 2768  34.072  25.774   0.711
31186W        W 2769   8.795  27.593   3.711
31187W        W 2770  29.113  21.984   0.434
31188W        W 2771   5.163   9.545   1.000
31189W        W 2772  16.640   3.884  12.544
31190W        W 2773  12.211  44.344  12.578
31191W        W 2774  15.563  33.517  10.156
31192W        W 2775  35.625  27.813   4.656
31193W        W 2776   4.376  33.338  13.089
31194W        W 2777  14.718   2.937  12.874
31195W        W 2778  44.412  24.390   1.454
31196W        W 2779   8.685  29.060   4.244
31197W        W 2780  41.933  25.914   0.400
31198W        W 2781  33.392  28.632  14.388
31199W        W 2782  13.422  23.317  12.935
31200W        W 2783  17.622   8.239   0.295
31201W        W 2784   2.892  25.217   0.724
31202W        W 2785  10.654  35.905   3.694
31203W        W 2786  10.301  33.270   3.701
31204W        W 2787   7.283  11.253  10.680
31205W        W 2788  22.847  35.279  14.193
31206W        W 2789  39.296   9.647  11.794
31207W        W 2790  41.375  31.548  11.364
31208W        W 2791   6.176  31.346   2.592
31209W        W 2792   9.405  20.346   4.055
31210W        W 2793   2.214  16.607  11.961
31211W        W 2794  12.674  14.152   3.342
31212W        W 2795  38.856  41.584   3.347
31213W        W 2796  20.149   0.642   1.965
31214W        W 2797   3.484  12.197  11.177
31215W        W 2798   9.760  13.887   4.804
31216W        W 2799  28.139  10.834  11.964
31217W        W 2800   7.089  27.458  10.638
31218W        W 2801   5.609   2.971  14.816
31219W        W 2802  12.528   1.121  12.242
31220W        W 2803   4.703  23.923   3.108
31221W        W 2804  44.948  19.801   0.240
31222W        W 2805  26.634   2.668   4.701
31223W        W 2806   9.367  31.691   0.409
31224W        W 2807  14.890  19.267   0.321
31225W        W 2808   0.051   3.403  13.207
31226W        W 2809   0.881  40.524  13.951
31227W        W 2810  32.968  38.549   1.535
31228W        W 2811   0.502  30.313  11.580
31229W        W 2812  27.411  33.258   1.395
31230W        W 2813   9.320  18.042  14.829
31231W        W 2814  28.164  10.984   2.814
31232W        W 2815  31.020  17.272  13.366
31233W        W 2816  36.077   8.849   1.755
31234W        W 2817  24.183  37.928  11.123
31235W        W 2818   8.817  16.830   1.923
31236W        W 2819  22.170  35.399  12.977
31237W        W 2820  22.035  36.645   4.082
31238W        W 2821  29.560  12.740  11.693
31239W        W 2822  26.241  16.255  14.277
31240W        W 2823   4.401  20.307   3.805
31241W        W 2824   9.489  34.460  14.390
31242W        W 2825   6.813  15.118  11.647
31243W        W 2826  27.183  22.751   2.574
31244W        W 2827  44.287  44.373  12.468
31245W        W 2828  27.751  14.476   4.844
31246W        W 2829  41.326  26.464   2.350
31247W        W 2830  22.663   2.772  11.151
31248W        W 2831  43.164  17.261  12.585
31249W        W 2832   0.954  32.138  11.602
31250W        W 2833  26.093  13.097   0.356
31251W        W 2834  43.308  19.291   0.196
31252W        W 2835   9.387   6.852  10.571
31253W        W 2836   2.281  17.163  14.454
31254W        W 2837  26.130   8.202  11.119
31255W        W 2838  22.299  23.200  12.532
31256W        W 2839   4.777  15.117   3.779
31257W        W 2840  36.358  24.288  12.795
31258W        W 2841  35.429  27.431  14.361
31259W        W 2842  42.344  12.836  13.798
31260W        W 2843   1.683   1.973   3.713
31261W        W 2844  14.081  22.910   3.313
31262W        W 2845  39.693  37.041   2.668
31263W        W 2846  27.132  14.501  11.180
31264W        W 2847   7.815  19.927  12.314
31265W        W 2848  32.152  22.595  13.191
31266W        W 2849   9.264   6.833   1.788
31267W        W 2850  13.689  32.349  14.401
31268W        W 2851  15.036  11.168   2.261
31269W        W 2852  43.004   1.806   2.329
31270W        W 2853  14.296   1.981   1.990
31271W        W 2854  10.400   6.866  10.727
31272W        W 2855   1.324  43.856   1.475
31273W        W 2856  31.799  39.482  11.434
31274W        W 2857  25.278  18.177   0.699
31275W        W 2858  28.259   4.654  14.747
31276W        W 2859  28.349   5.576  10.367
31277W        W 2860  20.247  10.039  11.307
31278W        W 2861  35.388   0.418   1.769
31279W        W 2862  28.070   9.535   3.872
31280W        W 2863   3.904  17.280   1.333
31281W        W 2864  43.068   0.411  12.417
31282W        W 2865  30.460   0.148   3.708
31283W        W 2866  29.523  43.865  11.181
31284W        W 2867  21.753  40.284   0.350
31285W        W 2868  35.380  16.130   1.879
31286W        W 2869   7.175  32.316   3.138
31287W        W 2870  17.763   0.671   0.404
31288W        W 2871   5.717  10.077  13.884
31289W        W 2872   2.434  36.967   3.980
31290W        W 2873   3.823  42.840   3.856
31291W        W 2874  17.541   7.176   3.875
31292W        W 2875   6.212  14.153  14.253
31293W        W 2876   6.308  15.749   2.205
31294W        W 2877  34.361  29.110  12.989
31295W        W 2878  35.530  25.915  13.788
31296W        W 2879   4.833  41.571  14.089
31297W        W 2880  20.959  37.458  12.946
31298W        W 2881  35.573  26.062  14.281
31299W        W 2882  40.972   4.727  11.548
31300W        W 2883  31.851   4.407  14.085
31301W        W 2884  23.213   2.501   2.850
31302W        W 2885  16.710  26.258  11.118
31303W        W 2886  20.596  24.034   2.636
31304W        W 2887  36.278  22.103   3.684
31305W        W 2888  28.184  16.829   1.573
31306W        W 2889  11.849   5.231   5.124
31307W        W 2890  10.363  18.259   1.892
31308W        W 2891  44.988  14.303   1.023
31309W        W 2892  29.612   5.998  10.328
31310W        W 2893   3.021  36.601   5.538
31311W        W 2894  25.026  31.572   2.957
31312W        W 2895  44.304  26.674  12.570
31313W        W 2896  35.398  26.982   4.572
31314W        W 2897  19.543  21.628   1.435
31315W        W 2898  31.209  11.865   1.896
31316W        W 2899  26.474  12.640  14.830
31317W        W 2900   9.592  35.835   1.132
31318W        W 2901  19.669  38.310   3.161
31319W        W 2902  30.423  36.960  14.843
31320W        W 2903  37.140  32.529  11.653
31321W        W 2904  40.817  44.866  11.559
31322W        W 2905  26.090  38.333  10.350
31323W        W 2906  36.028  11.065   3.604
31324W        W 2907   8.213  21.557  12.516
31325W        W 2908  44.893   0.033  11.719
31326W        W 2909  36.578  20.110   0.278
31327W        W 2910  11.777   8.656   3.389
31328W        W 2911  20.601  13.883  11.984
31329W        W 2912  24.933  39.523  12.017
31330W        W 2913  21.615   8.258   3.734
31331W        W 2914  13.319  29.827   0.020
31332W        W 2915  30.982  31.520   1.144
31333W        W 2916  42.932  10.866   1.552
31334W        W 2917   3.779  18.546  14.915
31335W        W 2918   8.157  39.809   4.106
31336W        W 2919  12.082  29.486   0.835
31337W        W 2920  29.589  40.858  11.242
31338W        W 2921   9.228  17.846   1.205
31339W        W 2922  11.323  38.006   2.455
31340W        W 2923   4.276  33.135   1.899
31341W        W 2924  42.828  29.407  13.910
31342W        W 2925  12.651  44.296  11.134
31343W        W 2926  31.070   9.380   2.422
31344W        W 2927   9.979  42.490   1.816
31345W        W 2928   0.512  16.374  14.312
31346W        W 2929  28.998  24.075  11.392
31347W        W 2930  44.080  25.583  12.603
31348W        W 2931   3.246   5.150   2.179
31349W        W 2932  39.813  12.880   4.710
31350W        W 2933   9.589  33.381   0.742
31351W        W 2934  14.743   5.840   2.238
31352W        W 2935  22.696  10.836  14.006
31353W        W 2936  31.161   2.806   3.693
31354W        W 2937   2.083   8.382   4.123
31355W        W 2938  19.555  16.382   4.588
31356W        W 2939  17.215  27.311  11.493
31357W        W 2940  44.786   8.348  12.561
31358W        W 2941  33.928  21.492  13.507
31359W        W 2942  36.859  34.379   4.170
31360W        W 2943  17.983   3.494  12.381
31361W        W 2944   7.936  40.114  12.951
31362W        W 2945  38.507  15.730  10.954
31363W        W 2946  22.132  37.485  11.602
31364W        W 2947  12.291  39.975  13.577
31365W        W 2948   8.884   7.667   3.697
31366W        W 2949  38.423   4.702   1.347
31367W        W 2950  16.317   4.545  11.603
31368W        W 2951  14.993  32.404  14.841
31369W        W 2952  24.531  31.598   0.690
31370W        W 2953  11.876  32.999   3.145
31371W        W 2954  15.417  28.196  11.108
31372W        W 2955  12.050  23.688  13.425
31373W        W 2956  32.149  20.204  12.827
31374W        W 2957  19.522  15.876   4.564
31375W        W 2958   9.439  29.171  10.858
31376W        W 2959  27.534  34.386   3.392
31377W        W 2960  16.662   8.203   0.085
31378W        W 2961  43.269  25.670   2.927
31379W        W 2962  21.537  18.168  14.561
31380W        W 2963  11.338  32.473   1.365
31381W        W 2964  18.428  13.667   1.409
31382W        W 2965  44.885   6.272   4.122
31383W        W 2966  33.948  32.908   2.682
31384W        W 2967  20.304  13.458  13.124
31385W        W 2968   0.334  39.051   0.709
31386W        W 2969  19.876  34.466   3.774
31387W        W 2970   1.954   3.814  13.000
31388W        W 2971  35.985  36.916  12.330
31389W        W 2972  26.770  34.018  10.510
31390W        W 2973  33.772  26.187  13.983
31391W        W 2974  37.016  37.941  11.637
31392W        W 2975  19.187   3.090  14.112
31393W        W 2976   7.662   8.236   0.341
31394W        W 2977  15.182  20.016  11.172
31395W        W 2978  30.918  44.443  13.983
31396W        W 2979  10.118  29.147   4.199
31397W        W 2980  34.201  25.070   3.723
31398W        W 2981  16.196   4.123  14.553
31399W        W 2982  15.808  18.162   0.832
31400W        W 2983  12.307  21.564   1.128
31401W        W 2984   8.269   3.908  12.510
31402W        W 2985  10.877  27.873  13.001
31403W        W 2986  10.755  29.735  14.714
31404W        W 2987   7.329  18.079  14.354
31405W        W 2988  40.174   7.222   2.330
31406W        W 2989  31.154  24.152   2.756
31407W        W 2990  30.488  30.653   1.799
31408W        W 2991  10.762  39.519   3.348
31409W        W 2992   1.752  12.732   3.237
31410W        W 2993   2.387  29.866   2.132
31411W        W 2994  11.305  23.598   1.505
31412W        W 2995  37.473   1.306   0.475
31413W        W 2996  42.899  37.108  11.966
31414W        W 2997  11.586  33.514  13.856
31415W        W 2998  40.055  38.320   1.148
31416W        W 2999  35.768  11.289   4.068
31417W        W 3000  36.068  39.294   2.301
31418W        W 3001   0.942  30.343   0.427
31419W        W 3002  27.013  26.073  11.177
31420W        W 3003  17.769  36.370  11.443
31421W        W 3004  14.018  19.277  12.042
31422W        W 3005  32.282   1.762  13.342
31423W        W 3006  31.727  30.879   1.308
31424W        W 3007  31.780  36.483  10.762
31425W        W 3008  41.018   3.208   2.205
31426W        W 3009  25.071  20.306  12.962
31427W        W 3010   7.985  26.191  13.578
31428W        W 3011  41.816  19.235   2.192
31429W        W 3012  17.088  21.032   4.564
31430W        W 3013  29.399  11.607   3.830
31431W        W 3014  40.006  35.878  10.669
31432W        W 3015  22.311   3.871  12.558
31433W        W 3016  14.132  33.847  14.414
31434W        W 3017   2.138  23.419  12.028
31435W        W 3018  24.930   9.879  12.614
31436W        W 3019  26.035  20.628   0.844
31437W        W 3020  35.418  23.183  10.766
31438W        W 3021  29.156  38.431   4.293
31439W        W 3022   7.008  26.015   0.774
31440W        W 3023  19.577   7.125   3.339
31441W        W 3024   3.952  31.791   2.164
31442W        W 3025  23.286  19.671   1.472
31443W        W 3026  29.545  29.182  11.179
31444W        W 3027  18.681   6.130  13.899
31445W        W 3028   3.125  27.664   1.716
31446W        W 3029   3.725  28.414  14.406
31447W        W 3030   5.208  37.478   0.922
31448W        W 3031   0.707  26.501   1.398
31449W        W 3032   0.508   8.787   3.422
31450W        W 3033  22.013  12.834   3.720
31451W        W 3034  32.798   5.281   1.279
31452W        W 3035  17.715  20.430  14.922
31453W        W 3036  17.238  30.199  13.443
31454W        W 3037  34.549   2.962  12.490
31455W        W 3038  24.705  35.550   0.788
31456W        W 3039   9.316  34.394  14.877
31457W        W 3040  16.382   2.986   4.996
31458W        W 3041  10.992  35.326  12.988
31459W        W 3042   1.819  13.303  10.441
31460W        W 3043  17.410  10.687  12.495
31461W        W 3044  36.656  41.422   4.560
31462W        W 3045  30.063  16.511   4.188
31463W        W 3046   6.470   0.529  11.079
31464W        W 3047   8.466  20.832  10.827
31465W        W 3048  20.702  23.593  13.843
31466W        W 3049   1.690  10.620  12.699
31467W        W 3050   7.193  23.817  13.864
31468W        W 3051  17.365  40.883  12.470
31469W        W 3052  33.269  22.088   4.647
31470W        W 3053  28.339  21.229   4.037
31471W        W 3054  32.116   6.329  11.109
31472W        W 3055  40.355  21.821   4.311
31473W        W 3056  22.457  20.255   1.466
31474W        W 3057  32.789  31.207  11.197
31475W        W 3058   6.868   2.665  14.659
31476W        W 3059  28.920  41.859   0.214
31477W        W 3060  19.228  23.957   2.355
31478W        W 3061  16.341  25.990  10.871
31479W        W 3062  37.346  19.126   4.870
31480W        W 3063  25.741  42.331  13.540
31481W        W 3064  42.868  24.956   0.453
31482W        W 3065  12.625  13.705   4.302
31483W        W 3066   9.751  18.834  11.853
31484W        W 3067   4.615   9.276  14.499
31485W        W 3068  41.833  33.864  13.844
31486W        W 3069  17.564  22.223   0.321
31487W        W 3070   5.521  33.010  13.809
31488W        W 3071  14.021  20.806   1.577
31489W        W 3072  43.423  16.431   2.728
31490W        W 3073   9.883  42.054   3.104
31491W        W 3074  26.584  42.140  10.590
31492W        W 3075   8.360  44.428   3.398
31493W        W 3076   6.283  42.022  10.430
31494W        W 3077   1.896   0.484   2.999
31495W        W 3078   2.967  27.500  10.743
31496W        W 3079   1.935  12.661  13.424
31497W        W 3080  39.671  22.109  12.998
31498W        W 3081  37.376  35.705   3.232
31499W        W 3082  38.881   3.267   5.031
31500W        W 3083  23.031  30.861   2.408
31501W        W 3084  27.392  18.563   0.844
31502W        W 3085  29.082  34.730   0.268
31503W        W 3086  26.932  42.725  11.682
31504W        W 3087  37.934   3.818  14.726
31505W        W 3088  27.131  36.311   3.219
31506W        W 3089  21.545  40.435   2.915
31507W        W 3090   2.955  12.319   4.499
31508W        W 3091  12.206  13.879  11.158
31509W        W 3092   0.926  34.493  12.058
31510W        W 3093  16.929  11.868  11.230
31511W        W 3094  31.050  16.893   3.109
31512W        W 3095  25.248   9.203   3.773
31513W        W 3096  13.506  18.272   4.674
31514W        W 3097  17.281   9.721  13.299
31515W        W 3098   9.180  20.646   2.373
31516W        W 3099  42.885  32.257   0.501
31517W        W 3100  23.078  41.989   0.799
31518W        W 3101  35.906  41.024  14.263
31519W        W 3102  29.169  15.742  10.743
31520W        W 3103  15.860  43.190  14.865
31521W        W 3104  31.280  30.422  13.933
31522W        W 3105  19.659  39.955   2.248
31523W        W 3106   9.140  30.084  10.560
31524W        W 3107  37.312  40.394  12.378
31525W        W 3108   7.698  29.573   1.645
31526W        W 3109  16.027  40.476   1.266
31527W        W 3110  34.082  33.030   3.177
31528W        W 3111  20.040  38.444   1.881
31529W        W 3112  31.287   5.213   0.231
31530W        W 3113  27.084   9.714   5.473
31531W        W 3114  44.465  23.405  12.474
31532W        W 3115  32.885  16.637   1.669
31533W        W 3116   0.930  19.886  11.022
31534W        W 3117  40.451  30.895  13.507
31535W        W 3118   9.343  27.291  10.699
31536W        W 3119  11.169   2.308   3.605
31537W        W 3120   7.899  25.498  10.891
31538W        W 3121   3.891  26.162   1.451
31539W        W 3122   4.854   5.960   0.468
31540W        W 3123  28.211  28.385  14.863
31541W        W 3124   8.383   1.407  14.896
31542W        W 3125   2.820  43.066   3.773
31543W        W 3126  31.111   9.892  13.856
31544W        W 3127  10.063  11.446  10.699
31545W        W 3128   6.558  31.110  11.454
31546W        W 3129  18.086   1.892  14.468
31547W        W 3130   3.638  21.907  12.097
31548W        W 3131  41.084  13.344   4.653
31549W        W 3132  30.957   5.645   1.258
31550W        W 3133  38.063   5.805  11.225
31551W        W 3134  39.776  36.924   1.705
31552W        W 3135  24.156  26.586  10.758
31553W        W 3136   0.841   3.943   1.257
31554W        W 3137  37.305  34.431   0.288
31555W        W 3138  31.177   0.165  13.417
31556W        W 3139   9.186  18.783   3.444
31557W        W 3140  17.331   2.681  13.485
31558W        W 3141  26.629   5.363  11.086
31559W        W 3142  23.951  12.805  12.375
31560W        W 3143   0.036  31.589   1.158
31561W        W 3144  10.366  11.195  12.938
31562W        W 3145  33.185   7.428   4.047
31563W        W 3146  23.827  28.903  14.868
31564W        W 3147  36.132  23.534  11.138
31565W        W 3148  13.127  11.286   3.198
31566W        W 3149   2.026  40.740  10.744
31567W        W 3150  21.497  25.085  14.896
31568W        W 3151  17.732  35.453   2.743
31569W        W 3152   0.444  24.520  14.931
31570W        W 3153  41.438  30.607  14.572
31571W        W 3154  26.483  20.117   2.210
31572W        W 3155   4.517  14.778  13.860
31573W        W 3156  35.796  40.726  12.990
31574W        W 3157  36.677  37.354   4.746
31575W        W 3158   2.371  40.830  11.609
31576W        W 3159  30.734   5.635  13.430
31577W        W 3160   8.208   2.458  13.483
31578W        W 3161  24.686   5.245  13.793
31579W        W 3162  20.437  44.973  11.106
31580W        W 3163  31.196  13.235  11.689
31581W        W 3164  25.262  43.210   2.189
31582W        W 3165  20.536  38.323   1.932
31583W        W 3166  31.937   3.998  13.755
31584W        W 3167  25.233  27.599  11.988
31585W        W 3168  24.999  20.817  13.039
31586W        W 3169  22.278  24.527   0.021
31587W        W 3170  16.153  33.051   4.681
31588W        W 3171   9.268  20.493   3.447
31589W        W 3172   0.447  23.490  10.835
31590W        W 3173   4.273  38.776   2.287
31591W        W 3174   1.862  41.468   4.596
31592W        W 3175  35.902  22.105   1.982
31593W        W 3176  22.541  16.145  13.450
31594W        W 3177  19.786  18.110   0.592
31595W        W 3178   4.778  37.949   0.028
31596W        W 3179  21.494  31.483  10.519
31597W        W 3180  15.364  26.970   4.071
31598W        W 3181  14.925   4.127  13.177
31599W        W 3182  43.897   5.455   1.309
31600W        W 3183  33.409  39.951   0.808
31601W        W 3184  40.797   1.808  12.299
31602W        W 3185  14.259  19.185  12.991
31603W        W 3186  11.585  41.416  14.950
31604W        W 3187  44.733  38.069  14.772
31605W        W 3188  44.791  41.290   2.858
31606W        W 3189  14.618  13.184   1.595
31607W        W 3190  30.465  10.580   2.430
31608W        W 3191  11.834  34.863  10.712
31609W        W 3192   6.145  29.924   0.341
31610W        W 3193  11.716  40.650   9.840
31611W        W 3194  29.475  14.308   3.301
31612W        W 3195  12.793  42.926   0.258
31613W        W 3196   0.010   6.358  14.574
31614W        W 3197  39.041  31.114  13.472
31615W        W 3198  27.745  40.314  11.142
31616W        W 3199  12.516  21.981   4.552
31617W        W 3200   4.284  12.669  14.278
31618W        W 3201   9.259  24.103  13.614
31619W        W 3202  30.110  21.840   0.925
31620W        W 3203   9.833  25.228  14.384
31621W        W 3204  30.931  44.725  13.539
31622W        W 3205  30.069  42.768  14.278
31623W        W 3206  14.894   4.713   0.785
31624W        W 3207  42.361  18.930  12.167
31625W        W 3208  11.814  25.480  14.794
31626W        W 3209   3.249  13.182  11.256
31627W        W 3210  39.077  23.478  11.600
31628W        W 3211   3.636  20.970  13.506
31629W        W 3212  44.028   3.434   3.120
31630W        W 3213   0.394  30.733   2.275
31631W        W 3214   6.485  31.536   0.778
31632W        W 3215  11.107  40.386  12.868
31633W        W 3216  38.642  30.497  10.438
31634W        W 3217  16.517  32.941  11.630
31635W        W 3218  29.434  30.667   0.736
31636W        W 3219  22.679  20.167   4.826
31637W        W 3220   1.455   7.962  12.944
31638W        W 3221  41.876  34.875   1.298
31639W        W 3222  15.440  27.069  13.938
31640W        W 3223  28.954  38.573  11.423
31641W        W 3224  44.139  23.714  11.606
31642W        W 3225  44.044  34.621  10.682
31643W        W 3226  23.646  18.567  14.813
31644W        W 3227  20.197  33.213   3.296
31645W        W 3228  19.188  32.432   1.772
31646W        W 3229  38.538  27.171   0.793
31647W        W 3230  24.099  29.132   5.179
31648W        W 3231  15.102  44.990  12.350
31649W        W 3232  33.372  13.065  13.986
31650W        W 3233  33.370  34.713  12.596
31651W        W 3234  40.991  21.147  14.497
31652W        W 3235  25.233   2.824  12.422
31653W        W 3236  26.633  36.832  12.529
31654W        W 3237  23.932  29.694   0.707
31655W        W 3238  29.272  21.071  10.645
31656W        W 3239  41.979  33.530  13.142
31657W        W 3240  10.263   9.793   1.722
31658W        W 3241  22.657  38.848   0.843
31659W        W 3242  12.158  38.734  12.380
31660W        W 3243  29.865   7.865   2.720
31661W        W 3244   6.308  17.798  11.699
31662W        W 3245  41.762   3.588  12.897
31663W        W 3246  28.501  39.000   0.411
31664W        W 3247   8.218  35.582   2.118
31665W        W 3248  40.329   7.360   4.505
31666W        W 3249  10.220  22.642  14.734
31667W        W 3250   8.765  33.960   1.112
31668W        W 3251  20.266  42.233   3.960
31669W        W 3252  17.573   8.380   1.840
31670W        W 3253  20.641  21.092   0.182
31671W        W 3254  32.458  25.678   4.616
31672W        W 3255  35.533  17.257   4.307
31673W        W 3256  42.302  11.661  12.059
31674W        W 3257  16.009  37.947  14.557
31675W        W 3258  44.695  30.488   2.859
31676W        W 3259  24.004   7.304   3.639
31677W        W 3260   6.696  27.621  11.805
31678W        W 3261  27.651  27.529  13.359
31679W        W 3262  24.021   1.233  13.092
31680W        W 3263  31.929   9.128  14.437
31681W        W 3264  14.171  24.599  14.277
31682W        W 3265  38.046  38.773   5.023
31683W        W 3266  29.746   7.865  14.225
31684W        W 3267  32.907  39.502   4.719
31685W        W 3268  15.853  21.778   0.863
31686W        W 3269  16.326  22.020   1.003
31687W        W 3270  23.921  38.301  13.460
31688W        W 3271   7.830  17.122   4.205
31689W        W 3272  35.579  41.787   1.326
31690W        W 3273   4.647  36.839  14.417
31691W        W 3274  33.588  29.555  13.368
31692W        W 3275  34.071  29.562  13.607
31693W        W 3276  32.563  20.666  12.554
31694W        W 3277   8.381  11.698  13.512
31695W        W 3278   0.082  20.324  12.818
31696W        W 3279  42.593  18.453   0.839
31697W        W 3280   2.824   3.274   0.220
31698W        W 3281  41.263   3.652  12.237
31699W        W 3282  17.560  30.628   1.852
31700W        W 3283  27.971  43.039   1.715
31701W        W 3284   5.694  33.131   0.265
31702W        W 3285  22.548   1.252  12.013
31703W        W 3286  43.156  40.947  14.350
31704W        W 3287  26.563  35.556  14.079
31705W        W 3288  36.009   7.121  14.554
31706W        W 3289  41.807  10.721  10.964
31707W        W 3290  10.657  38.020  13.731
31708W        W 3291  34.959  27.480   1.286
31709W        W 3292   3.811  17.535  13.890
31710W        W 3293  35.369  43.706  11.222
31711W        W 3294  18.829  42.395  13.901
31712W        W 3295   6.726  13.359   4.164
31713W        W 3296  15.188  41.061  14.734
31714W        W 3297  10.955  19.971  13.412
31715W        W 3298  30.399  40.493  14.494
31716W        W 3299  22.827  18.773  13.873
31717W        W 3300  17.825  34.137   4.042
31718W        W 3301   4.309  37.412  12.744
31719W        W 3302  39.521  40.473   3.798
31720W        W 3303  32.605  14.619  12.475
31721W        W 3304  20.067  42.872   1.377
31722W        W 3305  14.567  26.533   5.340
31723W        W 3306  16.585  22.188  14.438
31724W        W 3307  40.942   6.203   4.033
31725W        W 3308   7.050   1.917   3.133
31726W        W 3309   2.205  30.131   3.634
31727W        W 3310  18.783  12.761   1.129
31728W        W 3311  18.612  22.086  11.817
31729W        W 3312  12.342   4.561   0.366
31730W        W 3313   0.206  17.633  10.508
31731W        W 3314   8.620  43.030   4.739
31732W        W 3315  32.165   2.239  11.299
31733W        W 3316  14.703  26.106   4.704
31734W        W 3317  29.730  39.966   1.337
31735W        W 3318  12.731  30.528   0.537
31736W        W 3319  27.749  19.761   0.989
31737W        W 3320  26.746   0.668   1.234
31738W        W 3321  40.957  25.890   1.743
31739W        W 3322  15.113  41.183  13.825
31740W        W 3323  16.267  30.192   3.855
31741W        W 3324  32.440  16.866   1.878
31742W        W 3325  44.801   3.037   3.478
31743W        W 3326   9.742  29.993   2.659
31744W        W 3327   7.092  42.781   2.241
31745W        W 3328   8.789  28.654  12.766
31746W        W 3329  33.175  10.383  13.516
31747W        W 3330  24.483  22.173   3.147
31748W        W 3331  10.695  23.491  10.687
31749W        W 3332  21.764  29.636   2.319
31750W        W 3333   5.252  31.401  14.064
31751W        W 3334  44.668  44.772  12.103
31752W        W 3335  40.972  38.443  12.098
31753W        W 3336  35.073  37.717  14.027
31754W        W 3337   3.799  35.506   2.527
31755W        W 3338  44.034   7.234   0.928
31756W        W 3339  28.372   5.708   4.845
31757W        W 3340  39.484  23.642   0.753
31758W        W 3341   5.377  15.780   3.928
31759W        W 3342   7.013  17.684  14.479
31760W        W 3343  25.493  29.474   0.950
31761W        W 3344  29.743  15.974   1.862
31762W        W 3345   2.750  20.132   2.185
31763W        W 3346  30.438   9.473   2.283
31764W        W 3347  36.926  21.646  12.865
31765W        W 3348  41.007  42.415   4.860
31766W        W 3349   1.477  38.566   1.183
31767W        W 3350   4.021   4.291  11.612
31768W        W 3351  18.108  29.425   4.538
31769W        W 3352  39.013  20.043  14.387
31770W        W 3353  25.651  15.876  14.843
31771W        W 3354  40.225   2.404  14.728
31772W        W 3355  21.801  20.064   5.023
31773W        W 3356  30.397  27.080  14.582
31774W        W 3357  37.004  37.576   0.883
31775W        W 3358   4.812  18.790  13.070
31776W        W 3359   4.166   7.078  12.908
31777W        W 3360  35.603  23.550   4.385
31778W        W 3361  30.845  24.930  11.722
31779W        W 3362  29.146  11.400  11.291
31780W        W 3363   0.411   0.232  13.038
31781W        W 3364  20.654  44.510  11.149
31782W        W 3365  17.803  40.787   3.599
31783W        W 3366   3.832   7.893  13.019
31784W        W 3367   1.248  27.218  13.710
31785W        W 3368   8.584  15.986   4.925
31786W        W 3369   8.254  32.830   4.284
31787W        W 3370   6.326  40.105  14.256
31788W        W 3371  43.508  25.655   1.802
31789W        W 3372   8.056  41.296   1.826
31790W        W 3373   0.416  40.487  12.942
31791W        W 3374   1.360  42.228   2.301
31792W        W 3375  26.202  29.412   3.141
31793W        W 3376   9.073   6.115  12.139
31794W        W 3377  20.551  18.144  12.973
31795W        W 3378  19.056  29.454   4.155
31796W        W 3379  11.951  27.167  14.478
31797W        W 3380  21.672   1.728  11.224
31798W        W 3381  19.582  23.440  14.902
31799W        W 3382  40.472   1.407   1.193
31800W        W 3383  17.008  42.435  12.035
31801W        W 3384  20.557  29.136  10.515
31802W        W 3385  20.727  14.176   0.172
31803W        W 3386  35.073  16.850   0.853
31804W        W 3387   0.332   9.899   1.437
31805W        W 3388  44.936  26.006  14.868
31806W        W 3389  38.958   3.778  11.101
31807W        W 3390  34.952  35.160   4.900
31808W        W 3391  17.074  36.921  12.857
31809W        W 3392   3.043   4.631   4.873
31810W        W 3393  17.223  32.068   1.800
31811W        W 3394   2.342   0.998  14.776
31812W        W 3395  40.947  20.713   3.865
31813W        W 3396  35.464   9.076   4.716
31814W        W 3397   7.697  35.384  14.871
31815W        W 3398  44.571   9.410  10.778
31816W        W 3399   3.311  38.091   1.219
31817W        W 3400   7.555  31.490   4.604
31818W        W 3401  30.036  17.218   2.604
31819W        W 3402  26.449  27.191  12.878
31820W        W 3403  40.483  25.315  13.816
31821W        W 3404  43.290  21.148   3.958
31822W        W 3405  18.761  20.687   4.919
31823W        W 3406  33.651   4.661  13.477
31824W        W 3407  39.720  37.830   4.835
31825W        W 3408  11.968  11.709  11.736
31826W        W 3409   7.716  11.287  12.963
31827W        W 3410  28.370  14.725  12.176
31828W        W 3411  10.728   4.484   3.249
31829W        W 3412  27.425  15.737   1.182
31830W        W 3413  15.636  34.476   0.820
31831W        W 3414   1.811   2.241   2.796
31832W        W 3415  43.412  37.485  10.705
31833W        W 3416  21.227  18.027   0.220
31834W        W 3417  27.608  26.580   4.354
31835W        W 3418  29.209   5.307   4.504
31836W        W 3419  13.879  32.941   3.240
31837W        W 3420  22.011  24.427   3.413
31838W        W 3421   7.860  10.889   4.056
31839W        W 3422  26.289  30.282   4.626
31840W        W 3423  16.265  44.973  14.541
31841W        W 3424  16.255   8.169  12.354
31842W        W 3425  36.028  23.629   1.749
31843W        W 3426   1.001  44.381  12.917
31844W        W 3427  34.598  27.403   3.242
31845W        W 3428   8.707   5.153  13.492
31846W        W 3429   7.391   1.928   2.707
31847W        W 3430  24.289  20.046  13.915
31848W        W 3431  27.216  30.702   5.124
31849W        W 3432   2.685  33.479   1.331
31850W        W 3433  14.287  38.896   1.297
31851W        W 3434   9.888  21.761   1.491
31852W        W 3435  27.521   0.184   0.457
31853W        W 3436  12.071  43.861  13.735
31854W        W 3437  26.383  27.162   4.843
31855W        W 3438   0.987  33.954  11.488
31856W        W 3439  31.443  21.266  14.343
31857W        W 3440  27.124  34.183   2.799
31858W        W 3441  26.274  30.098  13.581
31859W        W 3442  41.655  12.724   3.080
31860W        W 3443  19.737  15.228   2.356
31861W        W 3444   3.949  41.140  12.014
31862W        W 3445  44.343  34.410  14.385
31863W        W 3446   7.166  25.190   2.163
31864W        W 3447  13.420   8.934  10.680
31865W        W 3448  18.321  21.230  11.571
31866W        W 3449   5.726  18.131   1.929
31867W        W 3450  13.318   0.969   4.279
31868W        W 3451  42.216  13.176  14.522
31869W        W 3452   7.794  18.072  12.914
31870W        W 3453  21.967  22.452  10.001
31871W        W 3454  40.163   0.755  10.886
31872W        W 3455  29.566  33.557   5.477
31873W        W 3456  35.967  28.459  12.957
31874W        W 3457  35.641  34.532   4.862
31875W        W 3458  18.190  22.093  10.180
31876W        W 3459  42.006  38.908   2.207
31877W        W 3460  17.607  24.975  14.803
31878W        W 3461   5.031  32.557  13.488
31879W        W 3462   5.559  26.106  12.762
31880W        W 3463  16.551  16.716  13.484
31881W        W 3464  28.853   6.731   2.814
31882W        W 3465  43.176  39.995   2.408
31883W        W 3466  29.081  42.088   1.778
31884W        W 3467  41.905  31.148  13.294
31885W        W 3468   5.105  25.568   3.810
31886W        W 3469  30.691   6.729  14.839
31887W        W 3470  19.737  30.914   2.746
31888W        W 3471  12.705  14.404   1.698
31889W        W 3472  21.571  23.641  11.075
31890W        W 3473  19.684   4.296   2.642
31891W        W 3474  16.726  20.138   0.584
31892W        W 3475  28.204  37.092   1.189
31893W        W 3476   6.232  42.292  11.239
31894W        W 3477   7.893   6.794   1.304
31895W        W 3478   5.901  10.225  10.947
31896W        W 3479   8.688  12.795  12.859
31897W        W 3480   9.217  25.028  13.537
31898W        W 3481  17.595  26.280   3.408
31899W        W 3482  23.434   7.188   0.006
31900W        W 3483   9.743   0.024  14.959
31901W        W 3484  19.520  35.551  14.093
31902W        W 3485   9.673  23.076  11.902
31903W        W 3486   0.166  42.401  14.735
31904W        W 3487  28.741   0.510  13.010
31905W        W 3488  30.021   7.477  13.277
31906W        W 3489  42.436   1.215  13.296
31907W        W 3490  40.510   6.453  12.813
31908W        W 3491  41.335  22.015   0.895
31909W        W 3492  34.896  24.749  13.950
31910W        W 3493  41.045  21.757  13.843
31911W        W 3494   7.616  23.905  13.012
31912W        W 3495   7.442  12.199   1.177
31913W        W 3496  26.091  17.303   4.059
31914W        W 3497  16.095   1.536   2.395
31915W        W 3498   4.973  41.445   9.935
31916W        W 3499   2.378  40.261  11.567
31917W        W 3500  16.393   2.852  14.965
31918W        W 3501   3.721  35.501   9.743
31919W        W 3502  36.377   7.152  11.387
31920W        W 3503  17.008  43.935   1.377
31921W        W 3504  35.831  27.446   0.407
31922W        W 3505   1.734   0.416   4.492
31923W        W 3506   3.674   5.244  12.901
31924W        W 3507  40.752   7.040   2.341
31925W        W 3508   4.264  44.661  11.102
31926W        W 3509  35.958  31.890  14.468
31927W        W 3510  41.833   8.953   3.576
31928W        W 3511  41.849  33.434   2.846
31929W        W 3512   9.233  27.442   0.288
31930W        W 3513  24.065  40.476   0.755
31931W        W 3514  30.420  39.608  13.464
31932W        W 3515  23.263  17.852   0.880
31933W        W 3516   8.690  23.224  12.144
31934W        W 3517  23.405  23.694  14.043
31935W        W 3518  20.388  25.041  11.168
31936W        W 3519  23.440  16.851   0.981
31937W        W 3520  38.952  28.438   1.003
31938W        W 3521  21.251   4.707  13.332
31939W        W 3522  15.789  15.147  10.719
31940W        W 3523   8.876  25.167   3.808
31941W        W 3524  25.634  18.618   2.214
31942W        W 3525  40.086   8.089   3.668
31943W        W 3526   8.274   4.289   2.902
31944W        W 3527   8.891  10.747  13.115
31945W        W 3528   6.666  40.043  14.634
31946W        W 3529  43.878  19.775   0.181
31947W        W 3530  27.992  37.073   3.119
31948W        W 3531  35.595  29.266  12.596
31949W        W 3532  22.274  18.255   1.415
31950W        W 3533  42.733   6.497  11.448
31951W        W 3534  14.122   0.784   3.674
31952W        W 3535  13.349  41.693   0.159
31953W        W 3536  19.215  22.974   3.732
31954W        W 3537  25.582  38.123   4.711
31955W        W 3538  38.524  32.979  13.430
31956W        W 3539  30.055  35.098  10.392
31957W        W 3540   0.784  17.075   3.174
31958W        W 3541  21.162  17.118  12.890
31959W        W 3542   2.958  12.586   3.246
31960W        W 3543  15.248  39.781   3.563
31961W        W 3544  26.916  37.895  10.566
31962W        W 3545  38.045  28.417   0.810
31963W        W 3546  17.552  14.099  10.389
31964W        W 3547  24.012  10.159   0.334
31965W        W 3548  11.766  11.504   4.139
31966W        W 3549  39.078  43.809   3.701
31967W        W 3550  22.651  39.958   2.191
31968W        W 3551  21.540  31.299   0.811
31969W        W 3552  27.845  35.933   1.796
31970W        W 3553  28.780  37.929   0.528
31971W        W 3554  21.058  19.468  13.055
31972W        W 3555  38.004  44.019  11.594
31973W        W 3556  30.505   5.629   4.134
31974W        W 3557  15.530  27.433  11.442
31975W        W 3558  33.290   8.060  12.647
31976W        W 3559  20.858  17.052  11.847
31977W        W 3560  36.010  24.985  11.947
31978W        W 3561  18.665  38.368  11.687
31979W        W 3562  23.493  25.755  14.271
31980W        W 3563  11.131  21.141  11.811
31981W        W 3564  42.011  36.450  14.398
31982W        W 3565  22.098  37.393   2.780
31983W        W 3566  26.848   0.508  14.872
31984W        W 3567  39.031   7.726  14.831
31985W        W 3568  19.293  19.415   0.944
31986W        W 3569  43.669   6.695  13.978
31987W        W 3570  41.330   5.777   4.166
31988W        W 3571   3.260  13.659  11.481
31989W        W 3572   7.713  13.595  12.915
31990W        W 3573   6.592  31.524  13.428
31991W        W 3574   0.521   9.287   4.275
31992W        W 3575  27.073   0.758   2.870
31993W        W 3576   0.354   6.640  11.116
31994W        W 3577  41.115  12.673   2.263
31995W        W 3578  31.536   8.746  14.943
31996W        W 3579  29.578  34.618   0.392
31997W        W 3580  39.073  24.033   3.259
31998W        W 3581  44.046  37.258   0.085
31999W        W 3582   1.784  29.969  11.529
32000W        W 3583  21.004  27.416  12.205
32001W        W 3584  40.785  26.135   3.156
32002W        W 3585  12.099   4.991  12.620
32003W        W 3586   2.876  13.266   0.321
32004W        W 3587  40.089  38.877  13.441
32005W        W 3588  43.436  22.955  13.485
32006W        W 3589  15.713  29.650  13.333
32007W        W 3590  16.332  42.291   3.714
32008W        W 3591   8.408  19.111  10.701
32009W        W 3592  25.629  43.980  13.379
32010W        W 3593  24.691  29.206  14.877
32011W        W 3594  34.899  20.504   4.734
32012W        W 3595  17.294  14.756  12.102
32013W        W 3596  34.522  36.280   1.667
32014W        W 3597   1.053   7.783   1.521
32015W        W 3598   0.267  18.619   2.751
32016W        W 3599  19.739  39.444  14.437
32017W        W 3600  32.100  10.281   1.376
32018W        W 3601  38.926  14.550  12.406
32019W        W 3602  35.911   0.520  12.945
32020W        W 3603   3.951  33.995  10.450
32021W        W 3604  26.563   4.036  10.934
32022W        W 3605  42.741  33.178   3.842
32023W        W 3606  24.732  35.074   4.634
32024W        W 3607  16.715  33.801  10.609
32025W        W 3608   0.383  36.326  12.101
32026W        W 3609  11.551  12.496   1.821
32027W        W 3610  33.869   9.783  12.086
32028W        W 3611  34.233  11.111   0.060
32029W        W 3612   2.309  11.397  12.083
32030W        W 3613  34.337  28.988   1.969
32031W        W 3614  31.909  12.777   4.376
32032W        W 3615  41.291  20.248  10.495
32033W        W 3616  27.563  19.820  12.350
32034W        W 3617   5.449   4.350  13.409
32035W        W 3618  16.791  22.195   3.374
32036W        W 3619  17.938   1.919   2.279
32037W        W 3620  26.692  36.865  11.646
32038W        W 3621  26.543  27.313   1.005
32039W        W 3622  36.701  44.109  13.537
32040W        W 3623  24.485  14.849  12.986
32041W        W 3624   6.852   6.851  12.360
32042W        W 3625  13.599  27.695   0.034
32043W        W 3626  17.854   0.230  11.395
32044W        W 3627  21.730  40.021  13.418
32045W        W 3628  31.569  21.981  13.239
32046W        W 3629  32.458   6.489  14.878
32047W        W 3630  29.881  34.159   0.357
32048W        W 3631  11.463  19.617   2.339
32049W        W 3632  35.961  15.540   1.350
32050W        W 3633   4.928  34.493  14.741
32051W        W 3634   1.013   3.900  13.443
32052W        W 3635   8.774  25.204  10.786
32053W        W 3636  18.887  41.558  11.047
32054W        W 3637  21.555  11.178  13.984
32055W        W 3638   9.715   4.496  12.421
32056W        W 3639  14.357  19.265   0.976
32057W        W 3640  20.584  18.515  10.969
32058W        W 3641  37.405  12.920  11.522
32059W        W 3642  22.004  10.631  11.565
32060W        W 3643  13.115  19.333   4.766
32061W        W 3644   3.907  27.731   1.449
32062W        W 3645   9.376  40.595  14.104
32063W        W 3646  27.576  23.126  10.788
32064W        W 3647  14.455   9.794   0.636
32065W        W 3648  22.503  42.583  14.803
32066W        W 3649  28.156  41.934   3.221
32067W        W 3650   5.420  13.534  13.015
32068W        W 3651  12.511  40.944   1.966
32069W        W 3652  35.317  22.815   3.354
32070W        W 3653  44.022  43.660   2.009
32071W        W 3654  36.879  33.944   2.359
32072W        W 3655  28.325  12.841  10.174
32073W        W 3656  40.133  34.910  11.280
32074W        W 3657   0.859   0.743  12.515
32075W        W 3658  11.331  36.446   0.356
32076W        W 3659  39.037  13.925   3.455
32077W        W 3660  41.052  22.968   0.342
32078W        W 3661  40.313  39.111   2.370
32079W        W 3662  12.598  20.259  10.511
32080W        W 3663  38.008  37.394   3.348
32081W        W 3664  40.582  39.565   3.278
32082W        W 3665  15.810  41.027   1.886
32083W        W 3666  44.572   9.917  10.728
32084W        W 3667   2.051  44.197   4.543
32085W        W 3668  24.778   2.719   1.841
32086W        W 3669   6.680  43.476  13.226
32087W        W 3670  27.534  17.628  10.541
32088W        W 3671  44.661  35.887   4.098
32089W        W 3672  11.820  30.565   4.551
32090W        W 3673  19.613  35.355   2.330
32091W        W 3674   9.885  43.384  10.440
32092W        W 3675  39.991   6.843  10.387
32093W        W 3676   3.625   9.738  12.117
32094W        W 3677   6.764   2.823  10.690
32095W        W 3678  12.839  24.258  11.129
32096W        W 3679  27.006   3.463   4.752
32097W        W 3680   2.360   5.142   3.639
32098W        W 3681  19.766  13.322   1.749
32099W        W 3682   0.855  33.857   4.315
32100W        W 3683  30.821  15.219  12.499
32101W        W 3684   5.399   3.729  12.890
32102W        W 3685  29.508   3.161  10.335
32103W        W 3686  34.445   9.300   2.256
32104W        W 3687  21.645  38.019   4.127
32105W        W 3688  21.179  35.498  12.887
32106W        W 3689   9.284  24.994   0.877
32107W        W 3690  28.910  25.282  12.871
32108W        W 3691   9.110  24.914   4.189
32109W        W 3692  27.672  35.558   0.770
32110W        W 3693  38.276  29.465  13.052
32111W        W 3694   2.869  36.034   4.676
32112W        W 3695   7.676  15.496  12.609
32113W        W 3696  15.871  43.936  11.179
32114W        W 3697  44.091  40.305   4.628
32115W        W 3698  12.704  14.451   2.918
32116W        W 3699   6.253  14.775  12.863
32117W        W 3700   8.317  13.886  10.576
32118W        W 3701  32.628   4.181  11.354
32119W        W 3702   9.824  27.051   3.255
32120W        W 3703   5.756  26.541   3.416
32121W        W 3704  44.112   1.212  13.831
32122W        W 3705  19.165  41.367  11.976
32123W        W 3706   7.176  11.568  11.958
32124W        W 3707  17.611  28.648  10.742
32125W        W 3708  33.643  29.476   0.499
32126W        W 3709  31.619  25.122   2.315
32127W        W 3710   3.781  20.169   3.077
32128W        W 3711   0.357  32.985   2.302
32129W        W 3712  22.942  40.361   4.595
32130W        W 3713  41.400  42.991   1.513
32131W        W 3714  19.548  41.403   3.210
32132W        W 3715  20.665  31.006  13.822
32133W        W 3716  26.433  24.243  10.703
32134W        W 3717  36.602  14.822  14.725
32135W        W 3718  38.841  23.879   0.267
32136W        W 3719  18.293  22.102   4.695
32137W        W 3720  14.824  18.366  13.873
32138W        W 3721  37.849  43.416  13.344
32139W        W 3722  12.890  31.149  12.978
32140W        W 3723  22.952  29.973  14.771
32141W        W 3724  22.895  37.576  14.820
32142W        W 3725  13.813  44.473   3.645
32143W        W 3726  35.348  41.000  12.897
32144W        W 3727   0.431  44.242   3.811
32145W        W 3728  32.356  38.911  13.442
32146W        W 3729  19.376  14.582  13.905
32147W        W 3730  18.121  21.997   3.703
32148W        W 3731  24.521  28.374  14.996
32149W        W 3732  43.476   4.377   3.865
32150W        W 3733  38.771  26.017   3.804
32151W        W 3734   2.851  27.825   4.734
32152W        W 3735  37.514  42.432  13.985
32153W        W 3736   5.998  17.717   1.789
32154W        W 3737   7.425  12.414   1.810
32155W        W 3738   4.746  10.174   3.792
32156W        W 3739   3.196  17.099  12.681
32157W        W 3740  33.996  14.330  12.542
32158W        W 3741  44.532  21.806  10.307
32159W        W 3742  42.237  42.792   2.712
32160W        W 3743  14.023  37.428   0.817
32161W        W 3744  38.618  18.725  14.340
32162W        W 3745  39.581  25.656   2.739
32163W        W 3746  15.198  40.707  10.713
32164W        W 3747  24.544  22.820   3.782
32165W        W 3748  44.652  28.156   4.521
32166W        W 3749   0.962   3.328   3.238
32167W        W 3750  28.230  44.228  10.199
32168W        W 3751  43.915  16.039   1.719
32169W        W 3752   4.952  10.904  11.461
32170W        W 3753   3.821  36.629  10.641
32171W        W 3754   5.660  28.877  14.507
32172W        W 3755  24.366   1.010   3.802
32173W        W 3756   6.456  17.124   5.023
32174W        W 3757  29.519  12.230  14.479
32175W        W 3758  29.907  16.214  12.484
32176W        W 3759  41.475  10.960   1.253
32177W        W 3760  20.724  35.184   3.855
32178W        W 3761  17.233  16.864  11.889
32179W        W 3762  15.425  33.319  10.630
32180W        W 3763  27.034  13.825  13.865
32181W        W 3764  29.883  11.627   1.803
32182W        W 3765   9.350  42.477   2.408
32183W        W 3766  15.315  23.114   2.756
32184W        W 3767  38.575  41.020  13.880
32185W        W 3768   5.837  39.756   1.030
32186W        W 3769  29.171  40.263   4.768
32187W        W 3770   6.781  18.849  12.640
32188W        W 3771  19.337  14.155   1.398
32189W        W 3772  25.548  19.573  10.980
32190W        W 3773  27.505  38.405  12.939
32191W        W 3774  33.028  38.142  13.862
32192W        W 3775  17.621  39.103   1.375
32193W        W 3776  30.249   3.700   0.465
32194W        W 3777  34.854  38.910   1.799
32195W        W 3778  36.934  19.476  11.449
32196W        W 3779  41.922  22.644  13.160
32197W        W 3780  25.212  17.759  13.222
32198W        W 3781  35.636   5.930   3.583
32199W        W 3782  27.875   7.387   1.278
32200W        W 3783  10.486   4.659   4.139
32201W        W 3784  13.325  41.248  12.896
32202W        W 3785  12.224  11.087   1.985
32203W        W 3786  26.285  41.507   1.651
32204W        W 3787  34.506  32.975   2.873
32205W        W 3788  26.473   9.201   5.057
32206W        W 3789  35.611  15.822   3.801
32207W        W 3790  18.991  20.985  13.981
32208W        W 3791   9.308  25.420   1.867
32209W        W 3792  35.872   7.714  13.816
32210W        W 3793  17.850  10.908  13.465
32211W        W 3794   5.308   9.632   2.933
32212W        W 3795  41.987   8.009   0.839
32213W        W 3796  18.328   2.421   0.272
32214W        W 3797   2.493  30.694  11.574
32215W        W 3798  36.544  36.886   1.219
32216W        W 3799   0.507  41.518   3.551
32217W        W 3800   1.033  44.611   4.984
32218W        W 3801  17.149  15.798   1.734
32219W        W 3802  39.374  38.808   2.930
32220W        W 3803  22.326   9.433   5.103
32221W        W 3804  24.161  31.695   1.094
32222W        W 3805  44.005  37.819   2.351
32223W        W 3806  25.577  26.719  14.949
32224W        W 3807   8.945  38.033  12.042
32225W        W 3808   2.545   3.914  12.355
32226W        W 3809  33.740  11.800  10.863
32227W        W 3810   4.301   9.924   3.836
32228W        W 3811  18.795  18.684  12.361
32229W        W 3812  21.987  28.907   4.581
32230W        W 3813  19.032   4.933   1.302
32231W        W 3814  23.284  27.580   3.187
32232W        W 3815  26.889  18.576   0.788
32233W        W 3816  15.236  43.373  10.964
32234W        W 3817  41.333   4.920   4.112
32235W        W 3818   4.006  33.449   0.398
32236W        W 3819   3.570  10.581  13.592
32237W        W 3820  39.861  40.504  11.965
32238W        W 3821  22.612  30.425   1.323
32239W        W 3822  10.539  27.519   2.641
32240W        W 3823  28.409   9.213  13.447
32241W        W 3824   3.872  15.555  12.967
32242W        W 3825  18.808  41.564  14.898
32243W        W 3826  26.352  11.089  10.205
32244W        W 3827  37.765  33.824   1.764
32245W        W 3828  14.217  31.473  10.539
32246W        W 3829  34.696  26.509   0.865
32247W        W 3830  30.833  20.315   3.275
32248W        W 3831  11.549  34.797   4.449
32249W        W 3832  32.883  11.855  14.390
32250W        W 3833   3.253   8.239  14.043
32251W        W 3834  26.772   7.705   3.024
32252W        W 3835  13.480  12.158   0.381
32253W        W 3836  35.587  21.529   2.665
32254W        W 3837  17.803  20.324   4.478
32255W        W 3838  15.272  12.153  13.023
32256W        W 3839  41.847  41.077  14.919
32257W        W 3840   6.247  29.429  12.662
32258W        W 3841  23.445  14.165  14.303
32259W        W 3842  17.193  27.559  11.039
32260W        W 3843  21.245  21.225   0.995
32261W        W 3844  22.089  15.258   4.290
32262W        W 3845  18.093  12.758  12.878
32263W        W 3846  40.600  31.276   3.289
32264W        W 3847  32.596  20.399   0.814
32265W        W 3848  39.871   9.170  12.870
32266W        W 3849  12.340  32.072   2.165
32267W        W 3850   2.391  42.225  10.520
32268W        W 3851   0.416  31.038   0.267
32269W        W 3852   0.685  42.451  14.751
32270W        W 3853  13.288  24.453  11.323
32271W        W 3854  28.556  10.798   3.103
32272W        W 3855  40.097  33.398  14.959
32273W        W 3856  37.802   5.876  10.335
32274W        W 3857  28.565  28.613  14.300
32275W        W 3858  42.420  12.166  12.035
32276W        W 3859  28.419  33.489   4.688
32277W        W 3860  33.437  38.181  13.038
32278W        W 3861  35.535   5.405  14.879
32279W        W 3862  13.795   1.021   0.768
32280W        W 3863   0.549  38.433  12.085
32281W        W 3864  13.467  14.488   3.347
32282W        W 3865  29.451  35.666   1.230
32283W        W 3866  25.692   6.882   2.298
32284W        W 3867  29.112  40.309   3.316
32285W        W 3868   2.858  40.021   3.892
32286W        W 3869  24.721  40.497  11.259
32287W        W 3870  14.221   1.230  10.508
32288W        W 3871  43.017   6.015  13.957
32289W        W 3872  16.787  32.283  14.812
32290W        W 3873  43.298   9.899  11.681
32291W        W 3874  33.789  28.012  12.404
32292W        W 3875  13.075  21.245  12.504
32293W        W 3876  43.025   2.222  12.979
32294W        W 3877  22.002  17.136  10.605
32295W        W 3878   6.768  35.126   0.467
32296W        W 3879  11.651  39.517  12.478
32297W        W 3880  17.769  11.327  11.897
32298W        W 3881  41.051  18.995   3.815
32299W        W 3882  32.391  20.479  11.854
32300W        W 3883  21.219  27.984   9.708
32301W        W 3884  23.798  30.913  13.411
32302W        W 3885  27.605   9.759   0.269
32303W        W 3886  32.711  28.875  13.396
32304W        W 3887  31.574  13.594  11.675
32305W        W 3888  14.260  44.679   4.627
32306W        W 3889  43.234  26.926   2.330
32307W        W 3890  27.685  35.048   0.871
32308W        W 3891  10.240  24.373  11.474
32309W        W 3892   6.832   3.392  13.009
32310W        W 3893  14.607  40.915  13.458
32311W        W 3894  13.527  41.610   4.112
32312W        W 3895  36.366  32.481   3.630
32313W        W 3896  14.066   6.451   4.624
32314W        W 3897  34.369  29.681   0.068
32315W        W 3898   8.100   5.442   1.224
32316W        W 3899  25.955  26.577  13.586
32317W        W 3900  33.850   1.771   1.725
32318W        W 3901  26.326   0.444  14.936
32319W        W 3902  27.163  33.870   2.379
32320W        W 3903   6.683  20.650  11.281
32321W        W 3904  18.747   8.221   3.531
32322W        W 3905  41.306  23.647  13.140
32323W        W 3906  34.989  39.578  14.992
32324W        W 3907  10.086  29.978   4.906
32325W        W 3908   4.270  22.339  12.499
32326W        W 3909   2.904   8.708   2.844
32327W        W 3910  36.007  14.533   4.128
32328W        W 3911   0.862  35.813  12.847
32329W        W 3912   6.711  25.127   3.174
32330W        W 3913  30.083  11.931   0.889
32331W        W 3914   4.682  34.268  13.390
32332W        W 3915  22.401  37.276  12.459
32333W        W 3916  17.557  29.350   2.305
32334W        W 3917  13.312   4.366  11.095
32335W        W 3918   8.967   0.844   3.213
32336W        W 3919   6.934  15.693  11.927
32337W        W 3920   3.415  36.549  11.567
32338W        W 3921  12.853  29.665   3.116
32339W        W 3922  41.904  31.447   0.213
32340W        W 3923  42.447  41.333   1.399
32341W        W 3924  36.551  43.554  11.875
32342W        W 3925  25.661  34.824   3.127
32343W        W 3926  24.742  16.599  11.546
32344W        W 3927   6.482  36.347  13.883
32345W        W 3928  40.905  20.365  11.766
32346W        W 3929  40.076  19.653   1.725
32347W        W 3930   6.977  39.003  14.373
32348W        W 3931  27.540   1.927  14.393
32349W        W 3932  40.829  23.579   5.028
32350W        W 3933  22.483  12.778  12.446
32351W        W 3934  22.998  23.123  11.509
32352W        W 3935  31.137  15.846   2.763
32353W        W 3936  13.324   8.200   0.528
32354W        W 3937  21.110  31.709   2.200
32355W        W 3938   9.732  20.634   0.731
32356W        W 3939  42.429  24.233  13.340
32357W        W 3940   6.308  33.792  11.555
32358W        W 3941  35.852   3.193   1.291
32359W        W 3942  13.172   8.548   2.684
32360W        W 3943   9.336   8.147   4.530
32361W        W 3944  25.951   6.816   2.762
32362W        W 3945  41.287  24.725   0.835
32363W        W 3946  33.943  13.843  12.863
32364W        W 3947  21.581  38.050  13.998
32365W        W 3948   8.386  27.873   3.856
32366W        W 3949  12.374   2.241  13.962
32367W        W 3950  37.566  34.867   4.573
32368W        W 3951  15.770  28.647  14.735
32369W        W 3952  38.087  14.282   0.738
32370W        W 3953  21.264  25.137   0.354
32371W        W 3954  12.743  17.468   2.315
32372W        W 3955  14.640  32.491  13.497
32373W        W 3956  22.419   8.884   2.763
32374W        W 3957   2.648  41.348  10.735
32375W        W 3958  23.244  25.986   3.173
32376W        W 3959  13.343  30.142   4.592
32377W        W 3960   6.778   8.120  11.986
32378W        W 3961  29.938  17.320   0.282
32379W        W 3962  40.501  43.971   1.750
32380W        W 3963  34.461  39.753   3.657
32381W        W 3964  41.357  22.492   1.124
32382W        W 3965   3.973  14.593   4.221
32383W        W 3966  25.997   1.135   1.439
32384W        W 3967  24.498  17.533  12.044
32385W        W 3968  43.008  34.469  10.483
32386W        W 3969  16.697  24.143   4.127
32387W        W 3970   9.585  16.591   2.209
32388W        W 3971  34.086   9.229  14.076
32389W        W 3972  18.567  20.409  10.871
32390W        W 3973  41.232  15.285  11.697
32391W        W 3974  30.627   4.486  10.644
32392W        W 3975  17.651   3.231   4.920
32393W        W 3976  30.596  12.469   0.103
32394W        W 3977  13.569  12.090  13.020
32395W        W 3978  34.574  26.616   2.137
32396W        W 3979  18.681  23.983   2.460
32397W        W 3980  22.659  14.420   0.496
32398W        W 3981  32.935  23.876   4.307
32399W        W 3982  25.883  36.288  11.128
32400W        W 3983  40.590   8.394  11.151
32401W        W 3984  34.539  37.522   1.806
32402W        W 3985  15.493   8.628   4.221
32403W        W 3986  38.469  27.396   1.515
32404W        W 3987  35.337  34.523  13.894
32405W        W 3988  41.469  38.979   3.874
32406W        W 3989  35.465  18.605   3.634
32407W        W 3990   1.183  38.270  10.379
32408W        W 3991  10.607   4.979  14.898
32409W        W 3992  18.187   1.067  13.841
32410W        W 3993  12.784  40.026  10.377
32411W        W 3994  15.821  34.494  14.856
32412W        W 3995  35.607  12.880  13.279
32413W        W 3996  28.525  33.904  12.550
32414W        W 3997  11.874  39.830   3.965
32415W        W 3998  31.905   6.751   0.574
32416W        W 3999  16.653  35.164  11.450
32417W        W 4000  16.438  19.487  12.071
32418W        W 4001  41.335  19.675  11.163
32419W        W 4002  21.574  33.777  11.178
32420W        W 4003  21.356  40.013   2.684
32421W        W 4004  31.656  32.916   0.374
32422W        W 4005  16.796  40.257  10.900
32423W        W 4006   7.346  24.667  11.057
32424W        W 4007   4.658  13.038  14.390
32425W        W 4008  35.325  40.558  13.263
32426W        W 4009  34.609  22.114  10.414
32427W        W 4010  32.159   1.954  14.984
32428W        W 4011   9.949   8.093  12.496
32429W        W 4012  28.209  35.456  11.223
32430W        W 4013  44.538  22.278  14.774
32431W        W 4014  32.070  18.737   5.006
32432W        W 4015  14.240  17.490   4.559
32433W        W 4016   3.051   0.859   3.444
32434W        W 4017  38.947  37.005   0.356
32435W        W 4018  12.215  22.246  10.553
32436W        W 4019  38.397   1.683   0.376
32437W        W 4020  10.862  24.544   1.247
32438W        W 4021  38.503  17.556   3.302
32439W        W 4022  44.680  20.119  12.528
32440W        W 4023  40.836  24.999  10.674
32441W        W 4024  35.307  25.592   3.888
32442W        W 4025  19.054  18.060   3.641
32443W        W 4026   2.294   0.246   3.232
32444W        W 4027  41.272   3.724   4.061
32445W        W 4028  30.151  37.144  14.058
32446W        W 4029  30.888   0.828   0.230
32447W        W 4030  19.179  15.350  13.397
32448W        W 4031   6.994   3.338   4.231
32449W        W 4032   9.378  32.087  13.203
32450W        W 4033  20.867   2.150  11.477
32451W        W 4034  11.026  11.684   3.640
32452W        W 4035   1.577  14.772   4.097
32453W        W 4036  32.142   9.345   3.280
32454W        W 4037  27.112  39.901  10.713
32455W        W 4038  28.107   9.488   0.345
32456W        W 4039  17.848  37.849  13.933
32457W        W 4040  35.112   8.929   3.843
32458W        W 4041  10.335   8.004  12.875
32459W        W 4042   9.700   8.254   3.693
32460W        W 4043  35.085  18.379   0.918
32461W        W 4044   9.626  30.949  10.630
32462W        W 4045  42.307  10.222   4.498
32463W        W 4046  22.864  25.104  12.557
32464W        W 4047  19.680  28.448  12.170
32465W        W 4048  35.417  39.856   1.844
32466W        W 4049  10.696  42.217  13.952
32467W        W 4050  23.569  30.378   1.228
32468W        W 4051  44.564  19.953   2.749
32469W        W 4052  13.405  27.660   2.748
32470W        W 4053  30.396   9.416   1.692
32471W        W 4054   5.469   4.312  14.387
32472W        W 4055  19.993  31.029  11.487
32473W        W 4056  29.517   4.221  14.479
32474W        W 4057  27.191   7.662  12.522
32475W        W 4058  41.924  19.959   3.180
32476W        W 4059  27.124   8.163  11.195
32477W        W 4060  34.665  21.576   1.758
32478W        W 4061  29.953  38.397  13.764
32479W        W 4062  23.732  24.515  10.604
32480W        W 4063  21.286  13.139   5.193
32481W        W 4064  36.022  31.493  11.366
32482W        W 4065  33.282  32.107  13.429
32483W        W 4066  30.054  25.913   4.410
32484W        W 4067   3.234  21.335  11.569
32485W        W 4068  33.115  43.930   4.242
32486W        W 4069   5.166  21.678  12.446
32487W        W 4070  29.720  31.317   1.691
32488W        W 4071  23.224  23.789  14.890
32489W        W 4072   4.374  20.174  14.542
32490W        W 4073  28.156   7.225  11.170
32491W        W 4074  11.323  14.152   2.689
32492W        W 4075  15.828   0.395  11.558
32493W        W 4076  36.414  42.485  13.970
32494W        W 4077  39.935  42.892  10.510
32495W        W 4078  43.383  35.351   0.908
32496W        W 4079  24.136  24.494   3.089
32497W        W 4080   5.839  20.982   2.389
32498W        W 4081  26.461  14.260  14.867
32499W        W 4082  41.541   9.547  11.658
32500W        W 4083  44.399  37.643  14.989
32501W        W 4084  34.538  34.834  11.210
32502W        W 4085  26.198   8.842  10.676
32503W        W 4086   1.309  41.962   4.687
32504W        W 4087  23.045  16.665   2.685
32505W        W 4088  34.478  18.836   1.400
32506W        W 4089  40.522  15.373  12.165
32507W        W 4090   3.770   1.258   4.247
32508W        W 4091  27.001   4.348  14.007
32509W        W 4092  25.343  22.277   2.745
32510W        W 4093   1.495  39.647   0.905
32511W        W 4094  32.881  10.167  13.889
32512W        W 4095  27.300   5.169  11.529
32513W        W 4096  37.064   9.679   2.321
32514W        W 4097   6.449  29.037   3.266
32515W        W 4098  44.489  27.935  11.388
32516W        W 4099  28.831  18.980  14.693
32517W        W 4100  42.046  11.297  11.220
32518W        W 4101  19.103   5.239  13.761
32519W        W 4102  38.802  40.913  10.806
32520W        W 4103  35.268  42.976   4.226
32521W        W 4104  43.690   3.320  13.433
32522W        W 4105   2.053  38.457  10.210
32523W        W 4106   0.421  11.052   1.882
32524W        W 4107   5.840   9.808  13.391
32525W        W 4108  16.089  24.696  10.671
32526W        W 4109  32.126  39.076  10.827
32527W        W 4110   7.807  23.896   0.232
32528W        W 4111  29.032  29.621   3.235
32529W        W 4112  18.889  18.127  11.615
32530W        W 4113   6.407  21.766  11.587
32531W        W 4114  33.590  18.399   3.657
32532W        W 4115   0.078  42.161   2.702
32533W        W 4116  39.060  40.961   0.470
32534W        W 4117   6.842   9.394   0.709
32535W        W 4118   2.331   0.497   3.789
32536W        W 4119   9.909  40.956  13.048
32537W        W 4120  18.781  41.404  10.309
32538W        W 4121  44.769  20.591   4.737
32539W        W 4122  29.068  29.026  13.054
32540W        W 4123  41.808   3.452  14.402
32541W        W 4124  29.777  15.965  11.185
32542W        W 4125  43.251   4.538  13.012
32543W        W 4126   0.662   7.582   1.806
32544W        W 4127  27.948  33.712  11.495
32545W        W 4128  26.032  19.264   1.411
32546W        W 4129  19.647  17.688   0.902
32547W        W 4130  35.340  11.828  11.138
32548W        W 4131  14.441  21.427  12.976
32549W        W 4132  34.437  32.892   2.374
32550W        W 4133   4.644  37.002  11.049
32551W        W 4134  15.884   0.820   0.197
32552W        W 4135  34.556  23.573   3.488
32553W        W 4136  21.528  16.248  13.082
32554W        W 4137   8.135  11.164  12.688
32555W        W 4138  10.906  10.604  14.425
32556W        W 4139  33.880  25.627   3.249
32557W        W 4140  31.563  14.772   4.057
32558W        W 4141  29.548  32.672   5.123
32559W        W 4142   7.931   0.945  10.872
32560W        W 4143  17.137  22.562  10.130
32561W        W 4144  34.386  24.618  14.041
32562W        W 4145  17.047  10.136  11.234
32563W        W 4146  31.639  29.424   4.699
32564W        W 4147   2.517  17.566   3.190
32565W        W 4148  31.087  29.211  11.558
32566W        W 4149  34.302  27.669   2.254
32567W        W 4150  36.221  42.827   5.069
32568W        W 4151  40.597   9.736   4.651
32569W        W 4152  21.744  20.575   1.297
32570W        W 4153  24.814  43.729   0.368
32571W        W 4154   9.327  10.745  10.765
32572W        W 4155  11.860  15.907   1.801
32573W        W 4156  40.414  30.014   3.645
32574W        W 4157  14.498  33.304   4.129
32575W        W 4158  42.511   3.091   0.694
32576W        W 4159   0.861  31.017  13.871
32577W        W 4160   8.830   1.396   1.425
32578W        W 4161   9.754   6.445  11.428
32579W        W 4162  19.299   5.496   3.688
32580W        W 4163   3.400   3.790   1.244
32581W        W 4164   7.353  32.557   4.631
32582W        W 4165   2.871  26.254   1.279
32583W        W 4166  38.444  33.438  12.569
32584W        W 4167   3.550  31.449   0.898
32585W        W 4168  14.746   5.748  12.391
32586W        W 4169   8.191  38.566   0.469
32587W        W 4170  10.620  14.043  13.817
32588W        W 4171  18.551  13.604  12.086
32589W        W 4172  15.586  36.546   0.437
32590W        W 4173  43.726  41.598   3.511
32591W        W 4174  28.338  30.571   4.174
32592W        W 4175   8.754  39.952   3.838
32593W        W 4176  35.540  31.947  10.608
32594W        W 4177  20.984  22.710   0.811
32595W        W 4178  39.820  39.795  14.556
32596W        W 4179  29.420  18.665   2.202
32597W        W 4180  32.535   8.973   2.138
32598W        W 4181  14.800   4.664   1.862
32599W        W 4182  20.717  21.578  10.906
32600W        W 4183  34.077   2.755   0.306
32601W        W 4184  34.378   2.376  11.105
32602W        W 4185  42.284   1.574   1.644
32603W        W 4186   5.114   8.417   2.184
32604W        W 4187   6.694  25.014  12.035
32605W        W 4188   8.905  12.407   1.686
32606W        W 4189  15.600  28.847   5.217
32607W        W 4190  12.721   0.435  11.996
32608W        W 4191  12.344   7.441  11.019
32609W        W 4192  32.781  17.151  14.308
32610W        W 4193   3.369  21.671  13.935
32611W        W 4194  42.574  22.169   1.262
32612W        W 4195  13.393   9.152  11.305
32613W        W 4196  35.593  34.026  13.975
32614W        W 4197  33.035  27.513  12.401
32615W        W 4198  20.748  44.649  12.583
32616W        W 4199  22.261  40.020  14.104
32617W        W 4200  14.214  23.068   1.505
32618W        W 4201  17.244   2.896   3.715
32619W        W 4202  12.738  44.462   3.670
32620W        W 4203  28.707   6.157   2.319
32621W        W 4204  13.321  29.169   0.467
32622W        W 4205   0.700  25.859   2.749
32623W        W 4206   9.611  14.194  11.763
32624W        W 4207  15.179  24.130   2.571
32625W        W 4208   1.490  32.900   1.299
32626W        W 4209  33.991  40.600  14.927
32627W        W 4210   3.834  28.204  11.793
32628W        W 4211  24.893   6.917   4.563
32629W        W 4212  15.901  39.073   2.424
32630W        W 4213  40.156  25.201  11.260
32631W        W 4214   2.034  39.392  13.791
32632W        W 4215   2.931  17.020   0.441
32633W        W 4216  15.329  43.038   1.942
32634W        W 4217  19.810   4.185   0.848
32635W        W 4218  43.338  17.381   0.359
32636W        W 4219  17.481  44.060   3.255
32637W        W 4220  11.605  40.901  11.187
32638W        W 4221  24.161  23.196  12.388
32639W        W 4222  41.257  30.858   1.787
32640W        W 4223  27.773  26.250   3.295
32641W        W 4224  15.946   4.204  14.088
32642W        W 4225  15.087   2.313   3.279
32643W        W 4226  27.585  38.494  13.569
32644W        W 4227  39.248  35.264   2.901
32645W        W 4228  37.851  29.104  13.926
32646W        W 4229   9.797  37.365  13.057
32647W        W 4230  36.170  30.793  11.025
32648W        W 4231  34.561  12.357   4.553
32649W        W 4232   2.871  20.666  11.198
32650W        W 4233  42.798  24.421   1.713
32651W        W 4234   4.465  26.445   0.819
32652W        W 4235  37.872   5.283   0.855
32653W        W 4236  24.654   9.420   4.616
32654W        W 4237   6.841  18.229   0.716
32655W        W 4238  14.777  11.373  12.671
32656W        W 4239  39.493  43.190  13.721
32657W        W 4240  26.929  17.327  11.948
32658W        W 4241   5.674  39.019   1.699
32659W        W 4242  12.173  14.569   1.709
32660W        W 4243  22.525  11.326   1.928
32661W        W 4244  40.867   1.875  13.287
32662W        W 4245  36.182  26.180  11.498
32663W        W 4246  39.460  33.053   3.202
32664W        W 4247  23.980  17.097  14.878
32665W        W 4248  21.188  20.298  14.029
32666W        W 4249  19.964  42.760  12.979
32667W        W 4250  27.446  24.566   2.008
32668W        W 4251  36.281   7.169  12.146
32669W        W 4252  11.667  20.318  12.016
32670W        W 4253  42.617  22.722  14.889
32671W        W 4254  36.462   9.786  14.293
32672W        W 4255   7.649  41.332  12.059
32673W        W 4256  11.075  19.012  11.947
32674W        W 4257  40.805  15.162  11.380
32675W        W 4258   3.587  36.072   5.247
32676W        W 4259  17.508   4.355   4.168
32677W        W 4260  15.604  14.951  14.368
32678W        W 4261  14.785  41.535  10.765
32679W        W 4262  22.584  37.612   2.732
32680W        W 4263  26.715  13.758   3.032
32681W        W 4264  11.382  43.268   3.670
32682W        W 4265   7.961  37.310   0.520
32683W        W 4266  26.163  30.921  14.303
32684W        W 4267   0.671  30.589   1.401
32685W        W 4268  30.930   7.278  11.989
32686W        W 4269  36.968   4.239   3.143
32687W        W 4270  22.648   0.221  11.301
32688W        W 4271   5.651  25.392   4.774
32689W        W 4272  29.513   0.843   0.991
32690W        W 4273  36.963  15.212  14.584
32691W        W 4274  31.490  37.768   0.341
32692W        W 4275  16.425  43.963   4.212
32693W        W 4276  26.176   7.905   1.360
32694W        W 4277  44.941  11.206  11.084
32695W        W 4278  42.238  26.136   2.159
32696W        W 4279  25.303  12.954  12.057
32697W        W 4280  18.362  24.474  13.419
32698W        W 4281  41.192  21.287  13.978
32699W        W 4282  44.539  41.471   4.106
32700W        W 4283  24.251  24.683  12.218
32701W        W 4284   7.073  28.465   0.843
32702W        W 4285  20.740  32.952  13.991
32703W        W 4286  13.743  26.918   0.007
32704W        W 4287  34.386  33.901  11.055
32705W        W 4288   9.898  19.524   4.669
32706W        W 4289  17.549  21.693  12.415
32707W        W 4290  43.761  40.857   2.283
32708W        W 4291   9.957  20.216  11.769
32709W        W 4292  40.793  13.139   2.743
32710W        W 4293  10.339   7.133  13.421
32711W        W 4294   8.773   4.022  12.472
32712W        W 4295  11.805  16.323   2.617
32713W        W 4296  15.585   8.624  14.846
32714W        W 4297  27.144  10.634  14.528
32715W        W 4298  18.177  39.809  10.754
32716W        W 4299  34.147  13.287   4.123
32717W        W 4300   8.442  21.391  12.966
32718W        W 4301  27.929  22.141   4.895
32719W        W 4302  13.461   3.897  14.939
32720W        W 4303   6.994  28.453   2.690
32721W        W 4304  15.370   3.308   0.699
32722W        W 4305   1.739  35.565   0.298
32723W        W 4306  26.921  29.109   4.158
32724W        W 4307  11.749  24.338   1.342
32725W        W 4308   5.809  43.032  10.858
32726W        W 4309   4.499  30.214   4.601
32727W        W 4310  27.987  26.015   1.793
32728W        W 4311  23.326  39.520  14.871
32729W        W 4312  18.343  40.434  12.120
32730W        W 4313  39.850   5.380  11.653
32731W        W 4314  13.565  42.380  11.788
32732W        W 4315  12.815  26.640   0.837
32733W        W 4316  28.418  38.082  13.330
32734W        W 4317   3.330  18.604  13.512
32735W        W 4318   1.351  15.505  13.884
32736W        W 4319  10.404  17.059   2.160
32737W        W 4320  23.442   6.597   4.111
32738W        W 4321  22.190  39.802  13.609
32739W        W 4322  13.819  15.152   1.881
32740W        W 4323  10.615  44.513   3.840
32741W        W 4324   4.651  25.641   0.908
32742W        W 4325  11.086  41.097  14.372
32743W        W 4326  22.129   7.380  13.072
32744W        W 4327  29.982  17.342  11.905
32745W        W 4328   2.037  19.983  14.857
32746W        W 4329  43.900  13.228  12.538
32747W        W 4330  23.199  24.253  13.440
32748W        W 4331  24.102  19.207  13.997
32749W        W 4332  29.656   3.766   1.850
32750W        W 4333   8.444  21.765  10.748
32751W        W 4334  33.570  19.820  13.970
32752W        W 4335  15.490  22.458   3.668
32753W        W 4336  15.735  29.483  10.951
32754W        W 4337  25.409  38.709  11.035
32755W        W 4338   9.061  11.141  13.516
32756W        W 4339  29.921  38.457   0.813
32757W        W 4340  43.323  37.884  11.040
32758W        W 4341   4.910  20.969   1.479
32759W        W 4342  41.758   8.959  10.708
32760W        W 4343  27.402  24.255   0.719
32761W        W 4344  28.105  32.207  13.879
32762W        W 4345  13.380  21.689   4.363
32763W        W 4346   4.463  28.535  13.814
32764W        W 4347  42.758  17.574   0.942
32765W        W 4348  22.410  16.835   1.057
32766W        W 4349   0.382   3.018   4.625
32767W        W 4350   1.853  38.130   0.656
32768W        W 4351  37.935   7.786   0.731
32769W        W 4352   5.866   3.766  10.751
32770W        W 4353  14.883   2.969   0.086
32771W        W 4354  37.100  32.016  12.968
32772W        W 4355  42.990  34.764   0.590
32773W        W 4356   6.651  22.743  13.425
32774W        W 4357  41.525   7.809   0.995
32775W        W 4358  34.442   7.900   0.311
32776W        W 4359  18.222  34.051   2.909
32777W        W 4360  17.080  35.495   1.412
32778W        W 4361  18.658   8.559  13.002
32779W        W 4362  35.887   3.273   0.431
32780W        W 4363   3.532  10.803   2.310
32781W        W 4364  36.530  26.495  12.525
32782W        W 4365   1.906  42.420  14.212
32783W        W 4366  11.270  42.258   3.444
32784W        W 4367  30.554  11.700   3.185
32785W        W 4368  12.822  18.405   2.275
32786W        W 4369  23.912  15.386  12.160
32787W        W 4370   5.843  29.423  13.516
32788W        W 4371   4.748  12.853   0.952
32789W        W 4372   8.496  14.766  13.634
32790W        W 4373  41.968   2.727  12.126
32791W        W 4374  34.811  24.098   4.341
32792W        W 4375  38.996   4.652  13.526
32793W        W 4376  19.024  34.328   1.727
32794W        W 4377  43.833  20.503  14.704
32795W        W 4378  38.961  25.523   0.893
32796W        W 4379  33.893  19.624  14.352
32797W        W 4380  31.705  19.749   0.408
32798W        W 4381  42.030  14.246   2.233
32799W        W 4382  18.043  29.666   3.202
32800W        W 4383  44.433  41.946   0.786
32801W        W 4384  19.968  39.568   0.349
32802W        W 4385  12.339  35.006   0.920
32803W        W 4386  11.395  30.394   4.829
32804W        W 4387  13.582  39.724  13.484
32805W        W 4388  43.715  34.580  12.428
32806W        W 4389  26.887   8.606  11.450
32807W        W 4390   6.691  14.091   2.001
32808W        W 4391   4.833  41.244  14.661
32809W        W 4392  17.823  28.781   2.292
32810W        W 4393  32.483  35.611  12.935
32811W        W 4394  25.228  29.597   4.141
32812W        W 4395  38.618  43.714   0.352
32813W        W 4396  17.635   8.198  14.786
32814W        W 4397   6.852  43.015  14.808
32815W        W 4398  19.978  28.956   5.078
32816W        W 4399  33.934  33.768  13.897
32817W        W 4400   9.088  32.459   3.098
32818W        W 4401  32.050  38.939  13.880
32819W        W 4402  10.660  44.421   2.947
32820W        W 4403   0.883  16.980   4.066
32821W        W 4404  23.462  32.161   4.635
32822W        W 4405  37.867  20.927   1.287
32823W        W 4406  12.626   1.312  14.496
32824W        W 4407  42.006  39.503   0.481
32825W        W 4408  40.271  37.732   0.445
32826W        W 4409  40.898  37.116  13.193
32827W        W 4410  23.909  17.230   1.862
32828W        W 4411   4.683  23.121  10.590
32829W        W 4412  24.434   7.516   0.845
32830W        W 4413  23.986  39.359  12.843
32831W        W 4414   4.433  23.240   4.811
32832W        W 4415  21.525  24.687  14.565
32833W        W 4416   4.274   4.121  10.541
32834W        W 4417  39.445  18.024  12.549
32835W        W 4418  17.070   8.506   1.775
32836W        W 4419   2.512   1.061   0.665
32837W        W 4420  19.651  25.034  11.579
32838W        W 4421  26.619  16.792  10.343
32839W        W 4422   2.525  12.297  11.933
32840W        W 4423  15.330  33.465   2.222
32841W        W 4424  11.734  13.177   1.249
32842W        W 4425  37.465  43.149   0.875
32843W        W 4426  44.264  27.956   3.765
32844W        W 4427  23.237  29.753  12.525
32845W        W 4428  40.373  14.301   1.920
32846W        W 4429  24.078   9.365   1.631
32847W        W 4430  30.516  17.257  11.884
32848W        W 4431   9.738   8.800  10.463
32849W        W 4432  11.149  15.298   1.210
32850W        W 4433  15.044  43.909   3.898
32851W        W 4434  28.545  23.070   1.828
32852W        W 4435  39.944   1.721  10.648
32853W        W 4436  40.100   2.893  13.898
32854W        W 4437  18.281  25.356   4.580
32855W        W 4438  41.269   1.653   4.133
32856W        W 4439  25.648  21.896  11.171
32857W        W 4440  10.275  11.867   1.362
32858W        W 4441  29.043  34.924   2.223
32859W        W 4442  21.229  10.184  11.187
32860W        W 4443  17.467  37.911   3.681
32861W        W 4444  27.833  19.060  10.858
32862W        W 4445  34.039  10.248  13.985
32863W        W 4446  38.179  21.143  10.531
32864W        W 4447  28.582   4.709   1.207
32865W        W 4448  24.276  10.790  12.926
32866W        W 4449   5.821   0.945  11.478
32867W        W 4450   1.545   1.324  10.504
32868W        W 4451   2.394  20.566   2.754
32869W        W 4452  30.566   3.497  10.655
32870W        W 4453  10.598   9.839   4.100
32871W        W 4454  18.762  19.599   2.697
32872W        W 4455  16.713  23.948  10.598
32873W        W 4456  26.102  42.345  11.495
32874W        W 4457  27.238  30.221   0.599
32875W        W 4458  29.279   3.449   2.114
32876W        W 4459  42.567  31.636  13.588
32877W        W 4460  22.136   7.870  10.396
32878W        W 4461  13.092  43.740   1.573
32879W        W 4462  27.015  31.461   3.633
32880W        W 4463  22.118  34.828  10.597
32881W        W 4464   8.968  36.081   4.593
32882W        W 4465   8.417   3.200   0.263
32883W        W 4466  29.124  24.267   5.056
32884W        W 4467   4.041   2.623   2.436
32885W        W 4468  25.677  34.301   4.029
32886W        W 4469  30.475  41.560   2.970
32887W        W 4470  31.708  20.484  10.582
32888W        W 4471  17.071  32.072  14.409
32889W        W 4472  41.957  22.286   1.738
32890W        W 4473  36.169  33.337  11.122
32891W        W 4474  39.609  18.594   1.686
32892W        W 4475   6.703  21.103  10.412
32893W        W 4476  27.825   0.948   4.032
32894W        W 4477  23.049  23.898   1.242
32895W        W 4478  26.091   5.237  12.121
32896W        W 4479  19.179  28.227   1.053
32897W        W 4480   6.149  33.461  13.324
32898W        W 4481  37.925  35.586   0.477
32899W        W 4482  18.428   0.847   2.412
32900W        W 4483   1.420  28.709   3.989
32901W        W 4484  20.031  42.754  14.716
32902W        W 4485  20.769  39.212  14.370
32903W        W 4486   3.235  33.660   0.777
32904W        W 4487   1.294  35.687  12.011
32905W        W 4488  22.281  41.029   4.168
32906W        W 4489   2.855  24.612  14.426
32907W        W 4490  28.410  16.779  14.773
32908W        W 4491  13.029  32.064  12.018
32909W        W 4492  11.369  38.034  14.486
32910W        W 4493  39.472   6.016   4.592
32911W        W 4494  36.912  19.975   2.575
32912W        W 4495  15.731  15.535   0.861
32913W        W 4496  40.894   4.223  11.525
32914W        W 4497  20.044  29.691  10.712
32915W        W 4498   7.387   2.482   2.841
32916W        W 4499  35.613  10.067   4.194
32917W        W 4500  18.491  26.640  14.981
32918W        W 4501  34.597  28.954  14.367
32919W        W 4502   0.870  25.015   1.147
32920W        W 4503  16.592  12.583  12.874
32921W        W 4504  19.158  23.029  10.743
32922W        W 4505  43.052  42.244  10.955
32923W        W 4506   6.365   2.008  12.181
32924W        W 4507  43.369  42.598   1.619
32925W        W 4508  27.211   5.692  11.617
32926W        W 4509  32.113  17.759  11.553
32927W        W 4510  43.199  16.555   4.217
32928W        W 4511  37.368  20.518  11.974
32929W        W 4512   1.974   2.985  13.881
32930W        W 4513  19.980  37.898   3.120
32931W        W 4514  15.034  19.276   4.587
32932W        W 4515  27.734  25.697  13.026
32933W        W 4516  14.753  27.545  11.156
32934W        W 4517   4.185  44.754   1.767
32935W        W 4518  20.351   6.860  10.407
32936W        W 4519   9.392  27.062  14.384
32937W        W 4520  40.249   8.813  12.882
32938W        W 4521  40.094  25.710   2.805
32939W        W 4522  43.549  30.693  13.303
32940W        W 4523  24.965  31.515  13.130
32941W        W 4524  42.266   6.298  13.532
32942W        W 4525  16.175   5.501   4.792
32943W        W 4526  13.559  18.134   3.160
32944W        W 4527  12.586  42.683  13.990
32945W        W 4528  11.870  42.984  14.513
32946W        W 4529  10.914  32.119  13.954
32947W        W 4530  36.713  18.588  11.690
32948W        W 4531  34.557   1.270   3.877
32949W        W 4532  19.334  12.796   3.776
32950W        W 4533   6.702  17.117  11.502
32951W        W 4534  35.589   7.271   4.416
32952W        W 4535   2.023  36.769   3.751
32953W        W 4536  37.647   3.758  14.281
32954W        W 4537  18.283  36.978   0.783
32955W        W 4538  43.686  18.277  10.273
32956W        W 4539  31.977  24.469  13.003
32957W        W 4540  11.726   6.269  11.886
32958W        W 4541   5.460  22.746   3.587
32959W        W 4542   1.825  32.244  14.746
32960W        W 4543  34.652  31.890  14.603
32961W        W 4544   7.358  27.020  12.259
32962W        W 4545  19.013  36.801  13.465
32963W        W 4546  38.937  18.134   2.757
32964W        W 4547  16.368  17.508   3.265
32965W        W 4548   8.361  40.885   2.587
32966W        W 4549  19.448  28.448   4.158
32967W        W 4550  24.869  25.550  13.436
32968W        W 4551  20.494  11.882  13.591
32969W        W 4552  36.109   0.406   1.200
32970W        W 4553  42.341  31.541  14.468
32971W        W 4554  16.641  27.076   1.887
32972W        W 4555  25.117  44.510   3.392
32973W        W 4556  32.550  39.428  11.390
32974W        W 4557   3.448   6.771  11.952
32975W        W 4558  44.396   1.782  10.256
32976W        W 4559  41.216  38.346  14.708
32977W        W 4560  27.119  25.351  13.836
32978W        W 4561   4.205  43.789  11.473
32979W        W 4562   0.501  16.672   2.327
32980W        W 4563   4.626  26.162   2.599
32981W        W 4564  20.195  35.894  11.387
32982W        W 4565  14.133  19.301   4.078
32983W        W 4566  44.213  33.856   3.855
32984W        W 4567   2.807  30.937   0.359
32985W        W 4568  23.719  15.392   1.877
32986W        W 4569  23.167  40.718  11.857
32987W        W 4570   2.579  15.729   2.279
32988W        W 4571   7.339  15.914  12.549
32989W        W 4572  35.291  35.000  11.597
32990W        W 4573   1.287  14.911  11.540
32991W        W 4574  29.185  39.598   2.872
32992W        W 4575  17.073  14.820  11.606
32993W        W 4576  26.062  30.593  14.725
32994W        W 4577  21.099   3.371   2.767
32995W        W 4578   6.086  14.747   0.686
32996W        W 4579  40.356  18.297  11.638
32997W        W 4580   1.892   0.608   4.029
32998W        W 4581  24.731   5.654  14.112
32999W        W 4582  24.579  38.366   4.662
33000W        W 4583  16.053  25.105   0.902
33001W        W 4584  22.207   5.953   3.483
33002W        W 4585  12.147  38.277  11.106
33003W        W 4586  21.943  28.460   2.711
33004W        W 4587  28.668  35.557   2.775
33005W        W 4588  38.482  31.726  13.877
33006W        W 4589  14.229  38.821  12.118
33007W        W 4590  33.180  33.884  11.158
33008W        W 4591  14.139  11.271   3.084
33009W        W 4592   7.999  26.024   1.264
33010W        W 4593   8.368  26.475  13.894
33011W        W 4594  34.649  39.391  13.383
33012W        W 4595   2.211  11.160  10.525
33013W        W 4596  11.746  13.857   4.875
33014W        W 4597  39.777  16.358   3.768
33015W        W 4598  25.774  35.935  12.951
33016W        W 4599  30.390  34.180   0.344
33017W        W 4600  18.236  44.827   2.363
33018W        W 4601  12.743  21.523  14.428
33019W        W 4602  12.300  33.447  13.433
33020W        W 4603   1.242  17.747   1.786
33021W        W 4604  44.987  34.562  11.089
33022W        W 4605  43.833  27.990  14.517
33023W        W 4606  43.353   5.916  10.380
33024W        W 4607   5.127   7.427  11.981
33025W        W 4608  29.924  23.975  10.644
33026W        W 4609  28.102  11.407   2.511
33027W        W 4610  28.651  37.029   0.293
33028W        W 4611  30.438  43.389   2.228
33029W        W 4612  44.896  18.736   1.275
33030W        W 4613  20.226  25.247  10.727
33031W        W 4614   1.868  30.155  13.935
33032W        W 4615  34.932   0.178   4.626
33033W        W 4616  17.640  10.753   4.522
33034W        W 4617  30.887  16.619   0.725
33035W        W 4618  30.571   7.208   3.189
33036W        W 4619   5.606  37.049   2.187
33037W        W 4620  38.433   7.608  14.413
33038W        W 4621  10.605  22.185  14.645
33039W        W 4622  42.928  44.793   1.673
33040W        W 4623  31.044   3.311  10.529
33041W        W 4624  22.936   0.212   0.681
33042W        W 4625  34.489  19.529  14.169
33043W        W 4626   7.667  38.918  10.821
33044W        W 4627   1.727  30.022   3.805
33045W        W 4628   7.733   5.929  13.804
33046W        W 4629  43.314   9.770   2.730
33047W        W 4630  22.938  34.186  12.908
33048W        W 4631  37.329  28.629   2.528
33049W        W 4632  13.654  27.454  11.587
33050W        W 4633  43.422  22.781   1.883
33051W        W 4634  42.855   8.837   2.426
33052W        W 4635  10.668  39.626  11.050
33053W        W 4636  42.805  34.906   3.693
33054W        W 4637  16.739   6.906  11.434
33055W        W 4638  36.958  16.331   3.245
33056W        W 4639  19.059   4.969  11.587
33057W        W 4640  18.685   9.423  14.848
33058W        W 4641  34.613  41.952  10.613
33059W        W 4642  28.109  26.061   1.295
33060W        W 4643  28.213  27.574  11.161
33061W        W 4644  10.596  44.978  13.100
33062W        W 4645  30.156  26.944   2.500
33063W        W 4646   6.934  27.201   1.489
33064W        W 4647   7.305  22.335  10.769
33065W        W 4648  40.550  19.205   0.747
33066W        W 4649  15.146   7.958   1.878
33067W        W 4650  14.799  11.670  13.394
33068W        W 4651   3.948  25.106  14.948
33069W        W 4652  13.166   6.561   5.094
33070W        W 4653  34.367   8.250  13.458
33071W        W 4654  36.016  19.608  11.061
33072W        W 4655   3.156   9.957   2.797
33073W        W 4656  10.269  38.476  12.254
33074W        W 4657   7.136  21.300   2.926
33075W        W 4658   1.511  14.963  14.861
33076W        W 4659  33.598  28.684   4.303
33077W        W 4660  17.223  13.257   3.511
33078W        W 4661  29.743  18.609   2.591
33079W        W 4662   1.875  40.398  13.870
33080W        W 4663  13.611  40.280   1.993
33081W        W 4664  15.751  33.474  11.894
33082W        W 4665   6.694  35.326   2.192
33083W        W 4666  33.966  31.586   3.201
33084W        W 4667  14.258  36.959  14.832
33085W        W 4668  37.920  19.241  14.568
33086W        W 4669   0.489  31.595  12.834
33087W        W 4670   0.991  42.340  14.349
33088W        W 4671  39.378  30.029   3.756
33089W        W 4672  37.746  27.525  11.044
33090W        W 4673  36.334  27.472  14.588
33091W        W 4674  31.125  34.379  13.580
33092W        W 4675  22.073  33.953  11.193
33093W        W 4676  41.752  34.151   4.084
33094W        W 4677  18.811  33.129   2.356
33095W        W 4678  20.359   7.342  11.245
33096W        W 4679  42.287   6.685  14.888
33097W        W 4680  36.363  20.843   4.877
33098W        W 4681  10.488  18.172   0.913
33099W        W 4682  40.734  23.363  11.172
33100W        W 4683  41.957   9.394  12.791
33101W        W 4684  21.494   6.703  13.910
33102W        W 4685  26.550  13.102   2.377
33103W        W 4686  36.980  21.552   2.262
33104W        W 4687  17.103   0.544   0.271
33105W        W 4688   4.859  11.712  10.421
33106W        W 4689   0.934  39.094   3.315
33107W        W 4690  11.655  10.883  12.061
33108W        W 4691  11.432  37.116  14.941
33109W        W 4692  22.185  16.599  10.156
33110W        W 4693  23.135  21.244  12.068
33111W        W 4694   2.804  21.531   2.085
33112W        W 4695   2.066   4.699  13.010
33113W        W 4696   1.572  26.784   3.633
33114W        W 4697   9.080   8.750   4.159
33115W        W 4698  30.474  17.969  12.999
33116W        W 4699  35.180   4.283   2.260
33117W        W 4700  26.113  44.833   1.744
33118W        W 4701  15.109  15.129  14.432
33119W        W 4702   1.851   8.717   0.742
33120W        W 4703  31.009  40.806  11.525
33121W        W 4704  41.107  22.861   4.278
33122W        W 4705  10.416   8.765  13.104
33123W        W 4706   5.310  37.417  13.654
33124W        W 4707   2.147  41.564   4.153
33125W        W 4708   0.937  40.973   1.764
33126W        W 4709  24.441  42.711  10.466
33127W        W 4710  33.185  33.518  13.181
33128W        W 4711  21.299  34.240  13.540
33129W        W 4712   3.016  12.191  12.044
33130W        W 4713  14.202  34.955  12.621
33131W        W 4714  34.019  37.912   0.942
33132W        W 4715   7.278   9.354   1.515
33133W        W 4716   9.166  11.881   4.594
33134W        W 4717  35.567  43.504   4.363
33135W        W 4718  42.000  38.443   3.277
33136W        W 4719   7.705  32.582   2.807
33137W        W 4720  10.289   6.343  10.706
33138W        W 4721  36.089  19.771   2.760
33139W        W 4722  29.533  16.716   4.802
33140W        W 4723  37.496  16.191  13.351
33141W        W 4724  16.636   6.233  14.483
33142W        W 4725  43.444  41.696   0.845
33143W        W 4726  26.047  17.630   4.889
33144W        W 4727  15.254  38.888  10.878
33145W        W 4728   2.279   9.605  12.955
33146W        W 4729  27.743  16.803   3.131
33147W        W 4730   9.379  34.468   0.852
33148W        W 4731   1.851   7.201   4.867
33149W        W 4732  14.318  28.385   4.308
33150W        W 4733  18.155  43.807   2.418
33151W        W 4734  44.386   8.086  13.386
33152W        W 4735   3.262   7.821   3.229
33153W        W 4736  44.074  44.425  13.479
33154W        W 4737  27.288  33.793  14.378
33155W        W 4738   3.341  15.293  12.290
33156W        W 4739  21.104  29.712  12.918
33157W        W 4740  43.851  38.860  10.692
33158W        W 4741   6.982   2.937   2.795
33159W        W 4742  10.945  10.905  12.957
33160W        W 4743  21.272  18.120  11.223
33161W        W 4744  41.523  40.287   2.149
33162W        W 4745  18.684  38.613   2.361
33163W        W 4746  42.310  30.646   3.793
33164W        W 4747  21.823  17.298  11.088
33165W        W 4748  14.203  44.220   1.173
33166W        W 4749  32.221  11.679   3.137
33167W        W 4750  14.290  30.808  12.964
33168W        W 4751   3.021  10.409  14.493
33169W        W 4752  12.873   1.304   3.260
33170W        W 4753  23.975   8.704  11.412
33171W        W 4754  16.411  44.188   1.518
33172W        W 4755  12.727  36.774  12.087
33173W        W 4756  36.041   6.736  12.360
33174W        W 4757  40.615  33.361  14.849
33175W        W 4758  40.233  16.605   3.635
33176W        W 4759   6.141  36.862  11.128
33177W        W 4760  25.587  33.005   3.100
33178W        W 4761  38.174  29.555  13.976
33179W        W 4762  26.764   0.435   5.052
33180W        W 4763  18.565  37.878  11.652
33181W        W 4764  42.220  36.567   2.224
33182W        W 4765  25.077  16.063   0.687
33183W        W 4766   7.723  12.289  12.605
33184W        W 4767  21.691  39.298   0.909
33185W        W 4768  24.192  15.521   2.113
33186W        W 4769  18.196  13.897   4.129
33187W        W 4770  24.534  27.671  13.990
33188W        W 4771  43.260  16.813   3.082
33189W        W 4772  23.796  40.612   0.335
33190W        W 4773  11.687  39.056  14.870
33191W        W 4774  21.486  25.300  12.008
33192W        W 4775  33.013  37.002   4.324
33193W        W 4776  21.875  17.369   5.533
33194W        W 4777  36.358   2.192  10.309
33195W        W 4778   0.630  32.921  11.327
33196W        W 4779  43.728  39.788   1.037
33197W        W 4780  12.621  44.739   0.321
33198W        W 4781  32.044  26.934  12.044
33199W        W 4782  36.365  38.316   4.152
33200W        W 4783  14.590  12.083  10.742
33201W        W 4784   7.748  41.283   3.251
33202W        W 4785  19.549  21.047  12.884
33203W        W 4786  16.299  35.037   5.476
33204W        W 4787  36.854  44.383  13.111
33205W        W 4788  21.095   9.112   3.673
33206W        W 4789  24.685   5.336  12.787
33207W        W 4790  25.433   4.363   3.225
33208W        W 4791  25.221   0.857  11.695
33209W        W 4792  27.140  12.347  14.409
33210W        W 4793  12.386  16.594  14.059
33211W        W 4794  32.602  38.414  14.028
33212W        W 4795   3.345  35.391   4.798
33213W        W 4796   7.416  26.192  12.427
33214W        W 4797   8.400  12.682   0.958
33215W        W 4798  16.110  25.677   0.870
33216W        W 4799  12.759  10.557  12.481
33217W        W 4800  12.172  32.623  12.741
33218W        W 4801  11.225   1.922  13.761
33219W        W 4802  19.532  32.971   2.884
33220W        W 4803  13.142  40.873   4.480
33221W        W 4804  13.060   5.729   4.099
33222W        W 4805  33.107   8.847   4.210
33223W        W 4806  18.951   5.621   0.280
33224W        W 4807  20.626  39.068  13.429
33225W        W 4808   9.686  21.739  13.336
33226W        W 4809   2.515  35.430   3.229
33227W        W 4810  31.576   6.787   4.567
33228W        W 4811   6.417  11.201   0.229
33229W        W 4812  22.012  33.516  13.261
33230W        W 4813   8.229   3.978  13.508
33231W        W 4814  43.418  26.778  14.700
33232W        W 4815  11.485  12.171  13.607
33233W        W 4816  17.561  42.003   0.800
33234W        W 4817  25.752   7.040  14.831
33235W        W 4818  10.242  26.594   0.850
33236W        W 4819   7.712  16.217   3.271
33237W        W 4820  21.164  10.628  14.918
33238W        W 4821   2.018  18.066  13.438
33239W        W 4822  28.420  38.860   4.042
33240W        W 4823  33.395  34.277   0.473
33241W        W 4824  33.141  28.813  12.463
33242W        W 4825   7.418  22.564  14.798
33243W        W 4826  19.195  23.255   4.647
33244W        W 4827  25.088  44.553  13.884
33245W        W 4828  27.027  22.985   3.522
33246W        W 4829   5.730  40.910  11.690
33247W        W 4830  26.258  42.593   4.170
33248W        W 4831  36.365   1.483  11.521
33249W        W 4832   4.291  24.078  13.564
33250W        W 4833  19.084  21.496  13.958
33251W        W 4834  22.684   7.997  11.388
33252W        W 4835  21.652  27.636   1.602
33253W        W 4836  32.944  19.108   1.874
33254W        W 4837  23.057  38.287   1.420
33255W        W 4838  37.275  37.069  11.156
33256W        W 4839  39.772  37.445   2.341
33257W        W 4840  17.679  10.642  11.529
33258W        W 4841  41.202   2.040  11.944
33259W        W 4842  43.039  14.503  13.134
33260W        W 4843  26.984   8.174  14.435
33261W        W 4844  36.106  19.378  14.879
33262W        W 4845   4.479  38.350  14.847
33263W        W 4846  30.395  13.178   4.376
33264W        W 4847  17.166  22.037  10.091
33265W        W 4848  18.669  41.976   2.144
33266W        W 4849  35.581  23.666  13.457
33267W        W 4850  22.441  14.143  11.073
33268W        W 4851   0.720   1.941   3.191
33269W        W 4852  17.608  30.985   1.470
33270W        W 4853  40.520  20.785  14.941
33271W        W 4854  13.488   7.795  11.543
33272W        W 4855  30.098  43.338  12.186
33273W        W 4856  33.690   6.918   0.328
33274W        W 4857   9.933   3.432   0.350
33275W        W 4858  37.842   9.831   4.537
33276W        W 4859  34.036  42.406   1.476
33277W        W 4860   2.968  21.697  14.290
33278W        W 4861  30.399  23.049   3.680
33279W        W 4862   1.328   9.897  13.387
33280W        W 4863  20.020   4.692   4.349
33281W        W 4864  15.718  19.592  12.545
33282W        W 4865  12.734  21.043  12.135
33283W        W 4866  41.243  19.997  11.965
33284W        W 4867  25.986   4.780  12.965
33285W        W 4868   1.231  25.450   0.416
33286W        W 4869  23.171   1.534  12.821
33287W        W 4870  30.558  41.936   2.640
33288W        W 4871  34.895  23.816  12.447
33289W        W 4872  13.131  21.239  10.177
33290W        W 4873  41.043  10.376   1.936
33291W        W 4874  19.135  19.805   2.397
33292W        W 4875  34.438   2.913  14.265
33293W        W 4876  13.098  32.490  14.847
33294W        W 4877  16.515  37.124   0.638
33295W        W 4878  11.320  33.141  13.357
33296W        W 4879  17.855  12.817  13.769
33297W        W 4880  15.057  28.578   0.892
33298W        W 4881  14.695  36.088  14.857
33299W        W 4882  40.056  17.948   0.833
33300W        W 4883   7.377  21.732  11.611
33301W        W 4884  16.133  19.773   0.162
33302W        W 4885  14.794  14.476   0.867
33303W        W 4886  28.056  27.137   4.561
33304W        W 4887  19.577  21.818  12.482
33305W        W 4888  16.736  30.213   3.600
33306W        W 4889  19.585  21.491  13.845
33307W        W 4890   7.040  14.725   3.217
33308W        W 4891  12.878  31.417  13.441
33309W        W 4892  41.784  33.349  11.199
33310W        W 4893  34.431  31.866   2.292
33311W        W 4894   1.108  23.047   0.568
33312W        W 4895  26.148  25.054  10.897
33313W        W 4896  44.017  35.528  14.404
33314W        W 4897  17.658  21.980  11.583
33315W        W 4898  12.086  16.168  13.964
33316W        W 4899   4.367  11.260   2.497
33317W        W 4900  31.472  24.652  12.935
33318W        W 4901   0.742  17.584   3.220
33319W        W 4902  13.071  32.027   1.213
33320W        W 4903  19.389  19.060   2.369
33321W        W 4904  44.877  23.881   4.022
33322W        W 4905  30.508   5.140   0.723
33323W        W 4906  32.933   0.946  10.898
33324W        W 4907  43.257   3.975   1.827
33325W        W 4908  44.690  31.990  13.944
33326W        W 4909   1.247  29.464  13.321
33327W        W 4910   1.138   0.130  12.118
33328W        W 4911  19.650  11.738   0.248
33329W        W 4912  14.575  43.807   3.642
33330W        W 4913  29.439  14.748   0.805
33331W        W 4914  19.025  41.525   0.693
33332W        W 4915   4.146  43.448  14.780
33333W        W 4916  42.977  36.082  14.561
33334W        W 4917  19.609  17.112   0.794
33335W        W 4918   1.735  44.706   1.631
33336W        W 4919  43.824  26.657  12.368
33337W        W 4920  36.165  21.079   3.062
33338W        W 4921   9.454  11.388  12.589
33339W        W 4922  10.733  43.262   4.168
33340W        W 4923  27.130  42.007  13.981
33341W        W 4924   6.421   3.249   0.331
33342W        W 4925  14.182   7.337   4.091
33343W        W 4926  37.724  32.205   4.974
33344W        W 4927  16.396  28.333  12.161
33345W        W 4928  36.593  25.209  12.238
33346W        W 4929  35.034  22.012  14.906
33347W        W 4930  44.437  31.122  12.001
33348W        W 4931  12.095  32.036   1.151
33349W        W 4932   0.941  34.132   0.768
33350W        W 4933  35.787   7.412   0.415
33351W        W 4934  41.007  18.016  10.686
33352W        W 4935  15.384  40.687  13.781
33353W        W 4936  14.192   1.554   4.153
33354W        W 4937  43.974  34.778   1.219
33355W        W 4938  19.695   6.199   0.012
33356W        W 4939   7.332  37.702  11.231
33357W        W 4940  26.790  13.576  14.416
33358W        W 4941  11.940   4.443  14.907
33359W        W 4942  34.556  24.195  14.282
33360W        W 4943  24.994  11.457  10.075
33361W        W 4944   4.249  26.314  13.944
33362W        W 4945   2.634  30.926  12.122
33363W        W 4946  17.158  33.591   0.421
33364W        W 4947  41.441  44.934   0.159
33365W        W 4948  30.180  34.148  12.483
33366W        W 4949  14.646  26.228  12.196
33367W        W 4950  33.063   0.766   3.150
33368W        W 4951  19.004  30.723  13.031
33369W        W 4952  13.755  24.055   4.488
33370W        W 4953  22.158  30.046  11.982
33371W        W 4954   4.280  29.478   3.269
33372W        W 4955  30.534  13.658  14.816
33373W        W 4956  18.833  14.536   4.063
33374W        W 4957  18.574  14.337   4.471
33375W        W 4958  17.314  31.466   3.097
33376W        W 4959  19.652  27.115   0.315
33377W        W 4960   6.426  12.974  10.604
33378W        W 4961  24.160   3.317   0.476
33379W        W 4962  25.064  31.791  13.566
33380W        W 4963  39.812   9.457   2.639
33381W        W 4964  27.430  24.648  14.391
33382W        W 4965   2.610  24.340  14.826
33383W        W 4966   9.193  30.112  11.883
33384W        W 4967  22.636  30.112  11.014
33385W        W 4968  35.529  14.569   4.259
33386W        W 4969   3.745   7.068   1.245
33387W        W 4970  21.555  42.408   3.076
33388W        W 4971  27.548  21.986  11.499
33389W        W 4972  44.459  11.168  12.909
33390W        W 4973  36.839  44.016   4.417
33391W        W 4974  22.072  23.946   4.830
33392W        W 4975  11.160   7.262  14.419
33393W        W 4976  41.955  23.222   3.269
33394W        W 4977   5.807   3.312   1.905
33395W        W 4978  23.249  39.313  14.404
33396W        W 4979  44.374  14.487   0.921
33397W        W 4980  42.739  42.419   0.773
33398W        W 4981  12.225  39.601  12.606
33399W        W 4982  40.936  27.245   2.266
33400W        W 4983   0.401   9.044   2.532
33401W        W 4984  15.032   4.170  11.826
33402W        W 4985  27.645  14.758   1.404
33403W        W 4986   2.232  15.127   3.326
33404W        W 4987  16.311  18.670   3.082
33405W        W 4988  34.104  28.228  12.046
33406W        W 4989  32.631   0.790  11.995
33407W        W 4990  23.411  30.720  14.419
33408W        W 4991  40.829  21.582   0.289
33409W        W 4992   1.211  31.653  11.827
33410W        W 4993   7.893   5.020   3.109
33411W        W 4994   1.653   4.947  14.632
33412W        W 4995  10.801   1.727  14.060
33413W        W 4996   4.716  15.528  14.236
33414W        W 4997  26.533  30.579  14.497
33415W        W 4998  41.752   4.700   9.839
33416W        W 4999   7.769  44.702   4.561
33417W        W 5000  28.591  23.229   2.323
33418W        W 5001   4.733  38.633   5.578
33419W        W 5002  27.167  24.035   0.277
33420W        W 5003  35.957   7.706  12.805
33421W        W 5004  22.151  40.432   2.724
33422W        W 5005   5.273  25.727   4.769
33423W        W 5006  20.816   5.845   4.418
33424W        W 5007  32.630   0.228  13.758
33425W        W 5008   6.971   5.326  12.479
33426W        W 5009  32.195  20.622  14.536
33427W        W 5010  21.597  11.074   3.948
33428W        W 5011  38.415   1.013   3.673
33429W        W 5012  20.967  43.094  13.866
33430W        W 5013  35.330  17.540   2.356
33431W        W 5014  34.370  25.634   0.314
33432W        W 5015  25.650  22.249  13.434
33433W        W 5016   6.197   0.375  10.659
33434W        W 5017  11.591   4.219   1.375
33435W        W 5018  41.773  31.481   2.851
33436W        W 5019  43.784   2.056   0.253
33437W        W 5020   0.558  35.379   3.661
33438W        W 5021  29.947  25.654   2.479
33439W        W 5022  43.339   3.333   0.433
33440W        W 5023  26.546   4.956   2.268
33441W        W 5024  13.352  24.599   0.314
33442W        W 5025  41.881  40.827   4.106
33443W        W 5026   9.598  36.408  10.429
33444W        W 5027  20.466  23.589   2.854
33445W        W 5028  43.870  32.605  12.482
33446W        W 5029  41.467  36.434  12.999
33447W        W 5030  42.754  28.508  12.448
33448W        W 5031  40.452  24.488  11.611
33449W        W 5032  34.117   6.655  11.904
33450W        W 5033  20.191  42.397  11.996
33451W        W 5034  34.970   9.931   1.988
33452W        W 5035   8.642  44.940  13.583
33453W        W 5036  25.102  40.870   2.124
33454W        W 5037  13.321   8.179  11.037
33455W        W 5038  44.514  18.010  14.373
33456W        W 5039   8.837  23.755   5.009
33457W        W 5040  26.430  24.548   1.589
33458W        W 5041  27.503  34.986   1.667
33459W        W 5042   1.755  22.168   1.920
33460W        W 5043  43.271  38.914   1.681
33461W        W 5044   0.380  15.818   2.089
33462W        W 5045  26.755   0.234  11.011
33463W        W 5046   3.325  16.672   0.351
33464W        W 5047  29.442  18.185  13.021
33465W        W 5048  27.000  42.853  10.811
33466W        W 5049  35.523  40.718   4.769
33467W        W 5050  36.906   2.482  14.715
33468W        W 5051   4.618  13.638   3.710
33469W        W 5052  31.128   4.763  14.433
33470W        W 5053   3.374  40.794  11.184
33471W        W 5054   3.868  37.418  14.359
33472W        W 5055  13.112  19.648   0.305
33473W        W 5056  37.797  24.093   4.457
33474W        W 5057  41.214  14.214  14.343
33475W        W 5058  14.751  35.708  12.849
33476W        W 5059  18.818  42.355   3.241
33477W        W 5060  44.485  10.771  10.457
33478W        W 5061  39.129  15.806  13.616
33479W        W 5062  26.256  16.726  12.051
33480W        W 5063  44.975  31.859  12.031
33481W        W 5064   4.495   2.986  12.775
33482W        W 5065  44.703  21.512  13.081
33483W        W 5066  41.272  20.714  13.077
33484W        W 5067  24.445  10.092  10.491
33485W        W 5068   8.283  28.519  14.012
33486W        W 5069   5.048  13.387   5.136
33487W        W 5070  40.801  13.617   0.446
33488W        W 5071   7.375   2.869  12.525
33489W        W 5072  40.380  38.267  10.669
33490W        W 5073  12.920  21.904  10.955
33491W        W 5074   4.237  18.733  10.558
33492W        W 5075  11.612  26.283  11.995
33493W        W 5076  43.713   4.805   4.023
33494W        W 5077  11.183  42.780   1.521
33495W        W 5078  44.267  35.500   3.671
33496W        W 5079  35.752  16.279  12.813
33497W        W 5080  28.579   4.316   4.593
33498W        W 5081   0.033  34.920   2.339
33499W        W 5082   5.318  26.755   3.230
33500W        W 5083  40.002  38.812   0.944
33501W        W 5084  21.092  36.233  13.435
33502W        W 5085  33.612   6.400   0.316
33503W        W 5086   1.883  17.573  13.285
33504W        W 5087   0.960   9.358  12.225
33505W        W 5088  16.334  19.082  12.923
33506W        W 5089  16.133  23.551   3.973
33507W        W 5090  43.865  14.068  10.557
33508W        W 5091  43.518  36.051  13.794
33509W        W 5092  11.747  33.667  14.414
33510W        W 5093  13.056  34.266   4.834
33511W        W 5094  15.834  22.987   1.205
33512W        W 5095  30.511  34.266   2.377
33513W        W 5096  13.715  13.879   0.271
33514W        W 5097   1.345   7.112   2.328
33515W        W 5098  16.390  21.500  13.046
33516W        W 5099  25.051   3.038  13.740
33517W        W 5100  44.728  33.510   0.118
33518W        W 5101  10.286  42.490   2.781
33519W        W 5102  42.067  36.033  14.735
33520W        W 5103  24.033  15.432   3.109
33521W        W 5104  15.555  12.136   2.208
33522W        W 5105  37.845  23.027  11.574
33523W        W 5106  33.128  29.088  11.085
33524W        W 5107  12.444   7.403   3.584
33525W        W 5108  17.398  17.477  11.310
33526W        W 5109  41.907  25.395   0.436
33527W        W 5110   5.793  16.659  13.250
33528W        W 5111  25.941   0.302   1.488
33529W        W 5112  19.088  10.734   1.733
33530W        W 5113  10.180  27.522  14.496
33531W        W 5114   2.102  17.226  13.920
33532W        W 5115   9.395   1.516   3.967
33533W        W 5116  25.289  25.596   1.875
33534W        W 5117  42.381  31.502  11.111
33535W        W 5118  32.485   4.936  12.950
33536W        W 5119  28.667  22.716   2.307
33537W        W 5120  12.104   4.443  11.974
33538W        W 5121   3.604  24.676   0.210
33539W        W 5122   0.609  11.537   1.848
33540W        W 5123  23.049  39.379  10.615
33541W        W 5124   0.745  29.454  14.334
33542W        W 5125  26.130   4.349  11.716
33543W        W 5126  39.172  42.719   1.766
33544W        W 5127  43.864  34.553   1.850
33545W        W 5128  31.019  24.134  10.660
33546W        W 5129  35.955  33.557   2.168
33547W        W 5130   6.386  28.928  13.937
33548W        W 5131  38.216  42.271  11.192
33549W        W 5132  27.876   9.135   1.927
33550W        W 5133   3.972  39.490  10.569
33551W        W 5134  26.623  28.011   1.397
33552W        W 5135  28.381   4.551   0.260
33553W        W 5136   5.169  24.196   3.188
33554W        W 5137   9.075  31.981  11.485
33555W        W 5138  11.177  24.736  10.689
33556W        W 5139   2.266  36.418  10.424
33557W        W 5140  15.273  40.596   1.804
33558W        W 5141  23.697   0.428   1.805
33559W        W 5142   4.856  27.457  11.123
33560W        W 5143  30.506  18.381  12.567
33561W        W 5144  25.235   2.787  14.692
33562W        W 5145  39.510  32.952   2.252
33563W        W 5146  42.001  35.559  10.686
33564W        W 5147  38.487   5.214  13.006
33565W        W 5148  37.814  13.216  11.525
33566W        W 5149   7.907  26.922   1.255
33567W        W 5150  20.668   5.787   0.917
33568W        W 5151  22.258  10.401   3.770
33569W        W 5152  39.011   9.974  12.115
33570W        W 5153  11.215   3.441   2.692
33571W        W 5154  38.221  35.825   4.161
33572W        W 5155  11.377  41.086   1.874
33573W        W 5156  25.150  35.861  12.023
33574W        W 5157   5.310   2.457  13.990
33575W        W 5158  43.881  36.577   1.007
33576W        W 5159  19.253  18.667  12.610
33577W        W 5160  29.928  27.107   4.696
33578W        W 5161  33.366  21.962  10.977
33579W        W 5162  30.759  32.585  14.846
33580W        W 5163  34.404  31.042  10.963
33581W        W 5164  10.658   2.473   4.692
33582W        W 5165  26.548  35.802   3.324
33583W        W 5166  11.980  27.421  11.183
33584W        W 5167  42.490  36.257  14.498
33585W        W 5168  38.176   9.241  13.789
33586W        W 5169  39.900   3.168  14.349
33587W        W 5170  24.607  13.105   4.884
33588W        W 5171  41.530  35.029   0.792
33589W        W 5172  21.900  43.737   3.703
33590W        W 5173  41.322  39.762  12.488
33591W        W 5174  16.685  11.640  10.841
33592W        W 5175  28.776  24.157  14.809
33593W        W 5176  43.373  29.199  11.673
33594W        W 5177  15.056  11.253   3.120
33595W        W 5178  33.466  35.978  11.487
33596W        W 5179  28.483  24.997   0.140
33597W        W 5180   6.829  39.527  13.394
33598W        W 5181  42.940  36.150   0.851
33599W        W 5182  28.081  25.499   0.818
33600W        W 5183  39.122   7.986   0.675
33601W        W 5184  23.502  36.685  11.037
33602W        W 5185  17.274  28.083   4.523
33603W        W 5186  34.991   1.422  13.759
33604W        W 5187  14.177  11.797  12.530
33605W        W 5188  44.919  35.905  14.475
33606W        W 5189  13.175  37.480  12.538
33607W        W 5190  40.501  34.566  13.045
33608W        W 5191  36.244  14.308   3.714
33609W        W 5192  32.863  17.719   4.310
33610W        W 5193   3.280  31.118   4.097
33611W        W 5194   7.730   7.732   0.462
33612W        W 5195  26.212   6.698   2.326
33613W        W 5196  25.571   7.128  12.028
33614W        W 5197  20.600  44.685  14.548
33615W        W 5198  14.977  36.511   1.216
33616W        W 5199  17.337  39.877   2.338
33617W        W 5200  14.584  36.484   3.722
33618W        W 5201   5.169  23.454   1.436
33619W        W 5202  19.705   8.294   3.659
33620W        W 5203  19.668  11.409  13.430
33621W        W 5204  32.240  16.506   3.335
33622W        W 5205   9.353  30.040  11.025
33623W        W 5206  11.607   5.351  11.917
33624W        W 5207   4.751  18.280   1.952
33625W        W 5208  31.858  23.144  11.468
33626W        W 5209  10.264  29.935  12.522
33627W        W 5210  44.284  24.494  13.075
33628W        W 5211  13.116  21.734   0.916
33629W        W 5212  26.587  41.030  11.970
33630W        W 5213  35.990  22.824   0.707
33631W        W 5214   5.482   6.710  12.446
33632W        W 5215  18.512  26.244   3.117
33633W        W 5216  37.063   1.372   3.245
33634W        W 5217  14.838   6.447  10.847
33635W        W 5218  13.621  12.365  13.497
33636W        W 5219   8.085  12.656   3.188
33637W        W 5220   4.888  24.011   0.778
33638W        W 5221  41.408   5.471  11.253
33639W        W 5222   2.296  24.665  11.628
33640W        W 5223   8.754   9.007  13.957
33641W        W 5224   0.624  41.491  12.078
33642W        W 5225  23.424  37.898   1.376
33643W        W 5226  10.959   7.067  11.546
33644W        W 5227  32.680   0.303   2.535
33645W        W 5228   3.113  12.240   0.009
33646W        W 5229  40.868  11.148   0.424
33647W        W 5230  10.860  41.403   4.520
33648W        W 5231  43.730  11.763   4.268
33649W        W 5232  42.438  16.241  11.476
33650W        W 5233  25.003  25.041  12.084
33651W        W 5234   3.281  16.230  10.701
33652W        W 5235  13.382  27.421  13.745
33653W        W 5236  34.402  40.311  14.958
33654W        W 5237  14.215   5.434  11.531
33655W        W 5238  37.743   1.474  13.735
33656W        W 5239  27.968  43.453  13.380
33657W        W 5240   4.943  19.798   0.679
33658W        W 5241  36.452  19.534  11.745
33659W        W 5242  40.051   6.725   3.060
33660W        W 5243   5.422  19.562   3.987
33661W        W 5244  21.006  33.017  12.914
33662W        W 5245  40.609  27.606   1.745
33663W        W 5246  14.125  29.038  12.348
33664W        W 5247   7.240  18.203   2.849
33665W        W 5248  13.278  31.655  12.145
33666W        W 5249  23.965  28.216  13.453
33667W        W 5250   8.224  16.200  11.414
33668W        W 5251  41.501  44.023  12.873
33669W        W 5252  21.733  12.984  12.077
33670W        W 5253   0.189   6.994  11.531
33671W        W 5254  14.043  17.250   4.144
33672W        W 5255  13.163  20.651  14.342
33673W        W 5256   3.545   6.355   1.957
33674W        W 5257  30.961  18.209   2.589
33675W        W 5258  16.694  35.536   1.013
33676W        W 5259   9.574  17.008   0.888
33677W        W 5260  38.733  19.025  12.105
33678W        W 5261  40.239   4.839  12.955
33679W        W 5262  42.763   1.323   2.309
33680W        W 5263  39.851  17.142   4.210
33681W        W 5264   6.820  10.668   2.585
33682W        W 5265  33.553  34.836   3.662
33683W        W 5266   8.399  21.245   2.053
33684W        W 5267  18.163  14.671  10.599
33685W        W 5268  11.433   4.723   1.378
33686W        W 5269  12.224  32.042   1.655
33687W        W 5270  33.182  33.941  14.818
33688W        W 5271  15.745  10.830  13.033
33689W        W 5272  15.313  12.714   2.774
33690W        W 5273  42.885  38.491  13.703
33691W        W 5274   9.247  28.518  12.076
33692W        W 5275  27.039  26.423   5.038
33693W        W 5276  44.157  44.862  10.494
33694W        W 5277   0.909  29.333   0.279
33695W        W 5278  13.734   0.459  14.909
33696W        W 5279  40.487   6.906  11.931
33697W        W 5280  40.329  43.486  14.325
33698W        W 5281  35.807   5.828   0.050
33699W        W 5282   5.115   0.864   1.222
33700W        W 5283   1.198  38.992   1.215
33701W        W 5284  39.474  10.909  11.163
33702W        W 5285  21.116   2.730  13.996
33703W        W 5286  11.923  40.886  11.674
33704W        W 5287  27.425  26.195   0.746
33705W        W 5288  39.519  31.894   2.704
33706W        W 5289  10.480   0.705   1.377
33707W        W 5290   7.762  30.480  11.832
33708W        W 5291  27.475   9.774  11.196
33709W        W 5292  11.654   4.281  10.678
33710W        W 5293  14.259  34.324  14.521
33711W        W 5294  20.987  41.524   3.206
33712W        W 5295  30.991   4.874   3.190
33713W        W 5296  40.514  25.722   4.469
33714W        W 5297  19.582   2.574   3.080
33715W        W 5298  13.363  34.524  13.089
33716W        W 5299   2.991  19.770  10.500
33717W        W 5300   5.405  30.409   2.829
33718W        W 5301  13.127   0.344  12.566
33719W        W 5302  39.724  35.505  10.446
33720W        W 5303  16.612  24.483  11.447
33721W        W 5304  29.681  13.368  12.444
33722W        W 5305  20.077  30.250  13.806
33723W        W 5306  35.390   4.201  14.874
33724W        W 5307  14.344  16.441   4.440
33725W        W 5308  26.903   2.558   4.239
33726W        W 5309   8.375   2.955   2.712
33727W        W 5310  13.402  31.084   0.266
33728W        W 5311  12.232   5.426  13.536
33729W        W 5312  35.968  17.053  11.235
33730W        W 5313   1.784  11.606  12.022
33731W        W 5314  41.169  12.730   1.278
33732W        W 5315   3.402  42.945  11.220
33733W        W 5316  20.201  12.770  11.807
33734W        W 5317  23.560  44.177   4.411
33735W        W 5318  34.855  43.625   1.392
33736W        W 5319  20.079  33.963  13.030
33737W        W 5320   1.412   2.865  12.964
33738W        W 5321  37.335  21.707   2.740
33739W        W 5322  30.949  32.929  13.805
33740W        W 5323  23.462  28.607  13.522
33741W        W 5324  30.429  16.763  12.966
33742W        W 5325   5.959  28.549  14.791
33743W        W 5326   0.326   4.708   2.581
33744W        W 5327  31.746  31.905  14.351
33745W        W 5328  41.505  19.637   2.075
33746W        W 5329  38.658   5.801   5.022
33747W        W 5330  24.265  33.522  11.018
33748W        W 5331  11.595  14.727  13.964
33749W        W 5332  31.747  19.510  12.647
33750W        W 5333  44.835   5.328  13.317
33751W        W 5334  25.675  27.104   0.852
33752W        W 5335  34.936  19.596  10.725
33753W        W 5336  23.147  32.592   0.859
33754W        W 5337  13.656  30.160  14.093
33755W        W 5338  27.114  33.873   4.641
33756W        W 5339  28.964  15.884   2.767
33757W        W 5340  10.114  23.098   3.948
33758W        W 5341   1.886  39.529  13.337
33759W        W 5342  12.156   1.324  14.258
33760W        W 5343  22.812  21.837   4.151
33761W        W 5344  30.932  19.646  13.840
33762W        W 5345  26.577  43.695   0.254
33763W        W 5346  23.549   6.310   1.779
33764W        W 5347  15.074  36.012   1.442
33765W        W 5348  28.565  37.484   1.266
33766W        W 5349  10.688   1.547  14.806
33767W        W 5350  24.257  18.962  12.426
33768W        W 5351   8.140   3.237   3.566
33769W        W 5352   8.417  14.630   4.683
33770W        W 5353  24.517  11.175  12.666
33771W        W 5354  16.841  33.954   4.227
33772W        W 5355  13.357   8.116   3.660
33773W        W 5356  40.825  37.629  11.712
33774W        W 5357  13.738  32.990  13.122
33775W        W 5358   1.370  36.973   1.821
33776W        W 5359  40.054  28.549   1.766
33777W        W 5360   6.845   3.883  12.790
33778W        W 5361  35.132  15.813  10.243
33779W        W 5362  15.706  28.976  10.690
33780W        W 5363  18.033  42.717  11.662
33781W        W 5364  31.135  14.074   3.788
33782W        W 5365  20.330   6.740  14.476
33783W        W 5366   3.689   8.124   2.346
33784W        W 5367   4.818  41.809   1.876
33785W        W 5368  40.165  33.645   5.175
33786W        W 5369  37.015  34.472   2.380
33787W        W 5370  15.898  23.235   0.738
33788W        W 5371  25.088   5.428   4.624
33789W        W 5372  28.816   1.208  14.902
33790W        W 5373   9.447  26.403   2.719
33791W        W 5374  18.792   0.883  14.471
33792W        W 5375  27.756  30.224   2.819
33793W        W 5376  17.706  24.511  10.449
33794W        W 5377  13.094   7.006  12.037
33795W        W 5378  17.912  18.571   2.203
33796W        W 5379  20.076   2.349   0.962
33797W        W 5380  34.648   5.293  10.820
33798W        W 5381  11.187  40.844  12.578
33799W        W 5382  30.949  22.017   3.233
33800W        W 5383  23.119   4.789   1.868
33801W        W 5384  18.229   7.941   2.717
33802W        W 5385  38.542  20.590   2.602
33803W        W 5386   3.331  44.302   1.724
33804W        W 5387  31.345  22.014  12.392
33805W        W 5388  17.363  36.285   1.738
33806W        W 5389  43.886  26.244  12.073
33807W        W 5390  17.764  11.120   0.960
33808W        W 5391  21.332  44.109   2.291
33809W        W 5392  24.005  42.492   0.800
33810W        W 5393  33.058  38.859  11.180
33811W        W 5394  31.780  34.332  14.352
33812W        W 5395  23.555  28.566  11.499
33813W        W 5396  12.229   9.588   1.810
33814W        W 5397  10.250  34.424   3.837
33815W        W 5398  42.743  28.939  14.097
33816W        W 5399  40.005  42.189   0.032
33817W        W 5400  43.983  12.567   2.237
33818W        W 5401  43.952  18.240   1.316
33819W        W 5402  39.602  44.436   1.418
33820W        W 5403  22.122  39.765   2.202
33821W        W 5404   0.216  38.954   3.772
33822W        W 5405  23.444  31.103  11.640
33823W        W 5406  43.000  30.588   3.052
33824W        W 5407  29.398  23.683   4.159
33825W        W 5408  25.969  24.135  12.511
33826W        W 5409  12.447  44.901   4.410
33827W        W 5410  13.655  28.938   2.259
33828W        W 5411  16.534  16.747   4.099
33829W        W 5412  30.097  31.152  11.329
33830W        W 5413  26.492  27.628  13.166
33831W        W 5414  39.062  26.687  12.620
33832W        W 5415  25.720  11.778   4.831
33833W        W 5416  20.436  38.249   4.245
33834W        W 5417  17.673  28.041   0.168
33835W        W 5418   8.953  20.545   0.939
33836W        W 5419  18.826  15.426   3.149
33837W        W 5420  13.895   4.413   3.236
33838W        W 5421  43.311   5.346   2.828
33839W        W 5422  19.665   8.042   3.220
33840W        W 5423  14.097   0.817   2.814
33841W        W 5424   2.160   6.789  12.492
33842W        W 5425   6.497   8.337   4.635
33843W        W 5426  41.488  24.579  12.560
33844W        W 5427  37.271  38.335  11.378
33845W        W 5428  39.500  42.679  10.689
33846W        W 5429  14.664  36.639  14.876
33847W        W 5430  11.425  31.768   3.283
33848W        W 5431  10.342  25.810  11.660
33849W        W 5432  39.525  26.715  13.006
33850W        W 5433  29.822  32.538  11.520
33851W        W 5434   2.979  11.247   4.662
33852W        W 5435  22.692  26.232  11.597
33853W        W 5436  32.278  31.178   0.096
33854W        W 5437  18.263   9.594  14.575
33855W        W 5438  32.723   9.712  13.126
33856W        W 5439  28.679  22.637  12.925
33857W        W 5440  14.180  34.844  14.507
33858W        W 5441   3.812  39.307   4.944
33859W        W 5442  10.890  22.498   0.572
33860W        W 5443  35.976  24.093   0.905
33861W        W 5444  17.193  13.473   0.291
33862W        W 5445  31.419  29.515   1.916
33863W        W 5446   7.647   2.381  14.024
33864W        W 5447   5.325  31.375  12.875
33865W        W 5448  25.517  11.410  12.975
33866W        W 5449   4.327  25.831  14.126
33867W        W 5450  33.442  13.618  10.660
33868W        W 5451   1.262  32.828   2.074
33869W        W 5452  41.972  19.271  13.415
33870W        W 5453  37.169  14.101   3.258
33871W        W 5454  12.839  44.712   4.113
33872W        W 5455   8.715   3.189  13.422
33873W        W 5456  31.590  30.520  12.169
33874W        W 5457  14.057   2.982   4.590
33875W        W 5458  12.295  35.380  14.365
33876W        W 5459   8.289  22.788  10.649
33877W        W 5460  24.049  33.443   0.437
33878W        W 5461   4.638  36.560  12.180
33879W        W 5462   1.776  21.427   1.379
33880W        W 5463   4.800  11.456  14.847
33881W        W 5464  43.244   5.389   4.776
33882W        W 5465  27.532  11.337   0.232
33883W        W 5466   3.635  26.128  12.515
33884W        W 5467  21.128  11.235   4.668
33885W        W 5468  41.493   3.438   2.205
33886W        W 5469  34.023  16.862  11.853
33887W        W 5470  17.752  38.473  13.150
33888W        W 5471  20.844  33.883  13.529
33889W        W 5472  37.801   8.246   4.519
33890W        W 5473  14.609  33.188  12.938
33891W        W 5474  13.165  37.806   1.232
33892W        W 5475   2.985   4.669   4.044
33893W        W 5476  44.517  22.674   1.398
33894W        W 5477  37.126  36.710  12.364
33895W        W 5478  21.762  32.838  10.762
33896W        W 5479   1.879  27.867   0.442
33897W        W 5480   5.960  20.271   1.262
33898W        W 5481  15.727   4.270   2.740
33899W        W 5482   2.072  23.217   4.988
33900W        W 5483  32.645  19.165   1.453
33901W        W 5484  36.534   2.957   3.185
33902W        W 5485  14.241  33.622   2.072
33903W        W 5486   7.599   4.837   2.696
33904W        W 5487  34.448  24.081   3.460
33905W        W 5488  44.433  17.842   4.547
33906W        W 5489   3.054  43.756   1.039
33907W        W 5490  39.798  28.116  12.123
33908W        W 5491  23.204  27.184   2.867
33909W        W 5492  43.952  27.833   2.092
33910W        W 5493   5.881   2.996  12.818
33911W        W 5494  20.151  13.898   0.223
33912W        W 5495  27.550   9.967  13.471
33913W        W 5496  42.353  13.436   1.930
33914W        W 5497  26.398  17.275   3.198
33915W        W 5498  32.204  43.116   0.052
33916W        W 5499   0.617   2.878   0.833
33917W        W 5500  32.419  21.278   1.933
33918W        W 5501  38.126  18.544  11.654
33919W        W 5502  22.078  26.982   0.798
33920W        W 5503   3.283  28.282   1.789
33921W        W 5504  33.401  32.571   3.251
33922W        W 5505  35.522  35.801  14.430
33923W        W 5506  32.876  23.121   3.847
33924W        W 5507  31.601   6.604  13.777
33925W        W 5508   3.198  29.504   3.639
33926W        W 5509   2.419  10.399  12.184
33927W        W 5510  41.073  40.495   2.890
33928W        W 5511  36.122  31.373   4.141
33929W        W 5512  32.154   0.769  12.180
33930W        W 5513  36.446   4.765   3.627
33931W        W 5514  18.610  32.675  11.942
33932W        W 5515   9.324  20.494   4.881
33933W        W 5516  31.524  27.031  14.536
33934W        W 5517  20.835  42.901   3.326
33935W        W 5518  31.415   6.137  13.987
33936W        W 5519   0.877  32.040  13.919
33937W        W 5520  30.071  44.363  14.534
33938W        W 5521  17.120   1.112   4.739
33939W        W 5522  23.132  28.719   1.892
33940W        W 5523  22.540  16.653   0.592
33941W        W 5524  41.046  21.222   1.095
33942W        W 5525  24.989  34.402   3.267
33943W        W 5526  42.735  11.823   3.178
33944W        W 5527   9.570  12.632   1.199
33945W        W 5528  31.400  27.770  14.948
33946W        W 5529   4.221  29.438   0.231
33947W        W 5530  26.713  37.385  11.218
33948W        W 5531   2.944  20.201   5.182
33949W        W 5532   6.814  41.441   2.878
33950W        W 5533  29.179  18.016  13.466
33951W        W 5534   9.161  35.264   0.360
33952W        W 5535   2.139  36.100  12.214
33953W        W 5536  33.529  15.870  10.596
33954W        W 5537  21.763  14.323   0.852
33955W        W 5538  15.555  24.494   3.694
33956W        W 5539  24.042   2.732  13.815
33957W        W 5540   6.162   2.438  11.881
33958W        W 5541   3.252  30.132   2.651
33959W        W 5542  13.337  18.416   3.574
33960W        W 5543  38.682  34.308  14.993
33961W        W 5544  29.452  44.010  12.529
33962W        W 5545   1.298  29.157   3.110
33963W        W 5546  12.416  36.617  14.355
33964W        W 5547   4.943  37.612   2.711
33965W        W 5548   9.085  28.172  13.969
33966W        W 5549   9.855  12.544  14.795
33967W        W 5550   6.541   2.878   4.300
33968W        W 5551  12.666   6.287   4.031
33969W        W 5552   8.494  39.594  11.191
33970W        W 5553  27.924  22.728  11.322
33971W        W 5554  18.224  38.500  11.439
33972W        W 5555  28.130  42.918   3.063
33973W        W 5556  29.342   7.906  14.539
33974W        W 5557  16.847  32.121   4.367
33975W        W 5558   7.891  11.401   4.166
33976W        W 5559  30.449  17.171   3.852
33977W        W 5560   5.651  23.309  10.694
33978W        W 5561  34.466  23.508  14.951
33979W        W 5562  22.485  11.775  12.460
33980W        W 5563  44.864  39.856  14.047
33981W        W 5564  10.942  30.167   0.459
33982W        W 5565  17.773   2.202  10.710
33983W        W 5566  10.760  19.639   0.490
33984W        W 5567  10.244  31.355   0.457
33985W        W 5568  43.553  39.807  11.021
33986W        W 5569  32.078  17.266   0.793
33987W        W 5570  20.711   6.683   5.414
33988W        W 5571  22.290   5.311   0.301
33989W        W 5572  24.087  23.770  14.836
33990W        W 5573   0.055  11.689   3.710
33991W        W 5574   1.421  13.139  11.686
33992W        W 5575  17.664  42.337  11.650
33993W        W 5576   1.367  31.543  12.308
33994W        W 5577  23.877  23.098  14.219
33995W        W 5578  32.640  30.388  11.108
33996W        W 5579  16.652  30.656   0.144
33997W        W 5580  14.929  42.436  12.977
33998W        W 5581  29.948  13.546   2.720
33999W        W 5582  40.625  31.404   4.245
34000W        W 5583  20.093   5.927  13.488
34001W        W 5584  39.384  12.177   0.493
34002W        W 5585  43.774  11.145  12.541
34003W        W 5586  10.796  34.858   4.745
34004W        W 5587  21.268  17.168   0.399
34005W        W 5588  42.924  23.985   0.134
34006W        W 5589  20.296  11.553  13.221
34007W        W 5590  44.706  23.951   1.534
34008W        W 5591  28.002  15.689   3.112
34009W        W 5592  12.624  33.939   2.832
34010W        W 5593  29.792  34.140  12.107
34011W        W 5594  44.556  33.015  10.678
34012W        W 5595  15.196   8.842  13.773
34013W        W 5596  31.019  24.698   0.954
34014W        W 5597  14.864  29.733   1.947
34015W        W 5598  14.390  29.737  11.037
34016W        W 5599   3.398   5.665  14.932
34017W        W 5600  27.167  11.305  12.780
34018W        W 5601  20.074  36.278  12.918
34019W        W 5602  37.285   7.867  12.481
34020W        W 5603  24.115   4.485  12.916
34021W        W 5604   0.884  17.357   2.731
34022W        W 5605   0.430  39.955   4.537
34023W        W 5606  20.043   4.346  13.355
34024W        W 5607  18.287  43.529   1.429
34025W        W 5608  35.024  33.139  14.833
34026W        W 5609   3.315  28.561   4.884
34027W        W 5610  34.858  26.470  11.944
34028W        W 5611  41.362  21.595   4.714
34029W        W 5612  31.493   6.053  14.907
34030W        W 5613  42.393  20.051  12.932
34031W        W 5614  33.317  28.125  10.118
34032W        W 5615  25.527  27.207  13.982
34033W        W 5616  10.686  33.842  13.086
34034W        W 5617  22.063  33.922   3.709
34035W        W 5618   9.209  29.545   4.798
34036W        W 5619  31.860  27.560   2.903
34037W        W 5620  25.527  25.249  12.604
34038W        W 5621  41.344  10.101  12.837
34039W        W 5622  33.976  19.902   0.899
34040W        W 5623  17.624  35.463  12.020
34041W        W 5624  38.964  31.529  13.775
34042W        W 5625  11.969  14.335  11.104
34043W        W 5626  44.933   0.403  10.657
34044W        W 5627  41.523  40.271  11.616
34045W        W 5628  16.364  12.764  13.735
34046W        W 5629  39.979  35.542  12.968
34047W        W 5630  31.569   3.503   4.129
34048W        W 5631  36.009  17.820   4.209
34049W        W 5632  13.237   9.694  13.966
34050W        W 5633   4.413  16.161   0.800
34051W        W 5634  44.482  22.258  13.864
34052W        W 5635  32.416   4.726  14.867
34053W        W 5636  24.111  20.086   4.531
34054W        W 5637  17.537   2.829   1.249
34055W        W 5638  42.336  22.030   0.795
34056W        W 5639  12.859   2.577  11.245
34057W        W 5640  31.013  13.743   4.205
34058W        W 5641  21.639  39.926   3.134
34059W        W 5642   6.111  22.661   0.761
34060W        W 5643   8.753  36.488   3.379
34061W        W 5644  33.349   4.913  13.826
34062W        W 5645  39.761   5.259   0.921
34063W        W 5646  17.823  14.596   1.747
34064W        W 5647  32.953  18.151   1.184
34065W        W 5648   2.428  12.659  14.544
34066W        W 5649  28.105  43.884   0.419
34067W        W 5650  41.907  26.191  11.527
34068W        W 5651  29.449  19.507   3.035
34069W        W 5652  19.550  14.754   4.570
34070W        W 5653  18.151  31.859   2.290
34071W        W 5654  21.721  13.436  12.343
34072W        W 5655  20.477  17.281  11.554
34073W        W 5656   6.273  21.401   5.030
34074W        W 5657   7.409   5.812   0.750
34075W        W 5658   7.387  15.357  13.819
34076W        W 5659   1.720  14.780  11.272
34077W        W 5660  32.118  31.049  13.764
34078W        W 5661  28.184  15.662  13.701
34079W        W 5662  42.617   1.505  11.847
34080W        W 5663   0.438  19.000   0.425
34081W        W 5664  13.519  29.232   3.678
34082W        W 5665  11.111  18.041   2.408
34083W        W 5666  29.962  39.298   2.372
34084W        W 5667  32.984   7.203   1.930
34085W        W 5668   6.345  28.081   2.457
34086W        W 5669   8.127  10.071  12.045
34087W        W 5670  44.691   8.345  14.079
34088W        W 5671  33.073  25.880   0.288
34089W        W 5672  10.440  11.375  12.386
34090W        W 5673  15.791  30.998  13.623
34091W        W 5674  44.132  28.579  13.749
34092W        W 5675  36.009  28.481   2.901
34093W        W 5676  36.955   4.469  12.148
34094W        W 5677  30.470   4.763   2.146
34095W        W 5678  32.053  44.838  10.629
34096W        W 5679  17.008   0.711   4.396
34097W        W 5680  26.581  17.128   4.188
34098W        W 5681  20.772  25.290   2.224
34099W        W 5682  44.397  36.549  12.795
34100W        W 5683  16.987  22.873  11.135
34101W        W 5684  26.338  23.207   2.880
34102W        W 5685  40.903  23.691   0.945
34103W        W 5686  17.545  36.936  12.612
34104W        W 5687  42.722  30.881  11.516
34105W        W 5688   3.787  38.139  14.929
34106W        W 5689  40.793   2.216  14.004
34107W        W 5690  18.009  37.060   1.238
34108W        W 5691   8.417  34.667   0.629
34109W        W 5692   8.859  31.529   1.269
34110W        W 5693  31.781  25.189   5.013
34111W        W 5694  11.879  31.627   1.538
34112W        W 5695  38.406  36.289   1.294
34113W        W 5696  32.696  22.437   1.353
34114W        W 5697   9.163   8.573   1.909
34115W        W 5698  28.970  13.790  10.426
34116W        W 5699   2.530  35.885  14.930
34117W        W 5700  26.481   6.123   2.737
34118W        W 5701   1.545  39.479  13.952
34119W        W 5702   8.340  27.559  12.934
34120W        W 5703  27.175   7.678  10.997
34121W        W 5704  39.025  14.653  14.734
34122W        W 5705  14.115  37.343  11.435
34123W        W 5706  10.140   2.789   3.127
34124W        W 5707  28.178   3.277   1.361
34125W        W 5708  28.489   2.192   3.332
34126W        W 5709  25.550   7.867  13.776
34127W        W 5710  35.622  33.190  13.345
34128W        W 5711  17.227  25.220  11.521
34129W        W 5712  11.244  20.209  13.023
34130W        W 5713   7.914  10.781   1.224
34131W        W 5714  10.211   3.391  12.616
34132W        W 5715  30.502  12.127  12.978
34133W        W 5716  19.462  39.457   4.861
34134W        W 5717  25.024   7.399  14.501
34135W        W 5718   0.397  23.511  14.446
34136W        W 5719  19.488  18.592  13.850
34137W        W 5720  27.567  41.371   4.658
34138W        W 5721  38.270  41.633  12.563
34139W        W 5722   1.270  31.732   0.258
34140W        W 5723  11.852   1.865   2.148
34141W        W 5724  25.173   7.983   4.438
34142W        W 5725   0.398  26.110  13.404
34143W        W 5726  20.381  41.035  11.536
34144W        W 5727   0.223  42.033   1.297
34145W        W 5728  41.501  35.076   4.346
34146W        W 5729  24.536  40.574   4.166
34147W        W 5730  14.563   7.241  11.848
34148W        W 5731  13.578  43.816  10.617
34149W        W 5732  13.631  34.723  13.939
34150W        W 5733  41.951  10.058   4.160
34151W        W 5734  40.111  28.518  12.692
34152W        W 5735  14.102  34.204   2.941
34153W        W 5736  34.988   2.725  14.683
34154W        W 5737  11.718  27.981   0.548
34155W        W 5738  28.519  27.475  14.822
34156W        W 5739  13.706  24.765   3.725
34157W        W 5740  43.939  44.409  12.085
34158W        W 5741  42.967  10.066  14.643
34159W        W 5742  17.229  30.779   1.195
34160W        W 5743  41.984  19.760   2.266
34161W        W 5744   7.347  33.923   3.139
34162W        W 5745  12.098  43.812  14.274
34163W        W 5746  40.892  13.416  13.097
34164W        W 5747  22.670  17.872  10.671
34165W        W 5748  42.044   7.210  13.044
34166W        W 5749  10.256  13.739  12.174
34167W        W 5750  32.668   4.400  13.392
34168W        W 5751   6.855  12.640  13.436
34169W        W 5752  35.664  24.604  12.890
34170W        W 5753  41.401  39.887   2.474
34171W        W 5754  42.076  10.799  11.391
34172W        W 5755  23.757   2.718  12.626
34173W        W 5756  29.150  11.254  13.467
34174W        W 5757  32.458  39.590   2.780
34175W        W 5758  27.122  16.821  13.640
34176W        W 5759   3.473   9.670  14.869
34177W        W 5760  18.998  36.121   0.711
34178W        W 5761  20.831  31.982  10.142
34179W        W 5762  40.624  10.179   4.279
34180W        W 5763   8.482   8.833   3.154
34181W        W 5764  16.547  41.047  13.031
34182W        W 5765   9.865  36.845  14.940
34183W        W 5766  37.518  36.845  14.995
34184W        W 5767  22.440  42.493  12.969
34185W        W 5768  27.462  16.328  14.789
34186W        W 5769  14.765  40.734  11.193
34187W        W 5770  29.727   2.214  12.659
34188W        W 5771  41.949  23.088   3.760
34189W        W 5772  22.336  15.676   4.102
34190W        W 5773  41.659  30.448  11.653
34191W        W 5774   0.873  41.219  13.466
34192W        W 5775  44.196  44.258   4.076
34193W        W 5776  23.103  15.958   2.314
34194W        W 5777  10.779  15.161  11.084
34195W        W 5778  39.059  40.332   2.335
34196W        W 5779   7.974  31.051   4.861
34197W        W 5780  43.152  14.161   1.754
34198W        W 5781  12.546  29.679  12.055
34199W        W 5782  36.552  19.119   4.049
34200W        W 5783  36.065  37.854  14.931
34201W        W 5784  42.419  19.775   3.160
34202W        W 5785  14.115  38.399   1.429
34203W        W 5786  30.718  34.943  11.595
34204W        W 5787  40.223  18.408  10.312
34205W        W 5788   9.911   8.565  14.403
34206W        W 5789  32.342  41.983  10.620
34207W        W 5790  16.085  14.339  13.880
34208W        W 5791  36.628   0.350  10.602
34209W        W 5792   8.468  36.436   2.694
34210W        W 5793  34.803  22.108   3.791
34211W        W 5794  18.544  42.103   2.643
34212W        W 5795  15.279  12.705  11.023
34213W        W 5796  34.121  44.027   1.042
34214W        W 5797  19.097  39.438  11.555
34215W        W 5798   3.532  12.717  12.840
34216W        W 5799  32.553  27.683  12.534
34217W        W 5800  17.039  32.022  12.971
34218W        W 5801  19.181  41.795   2.498
34219W        W 5802  12.948  30.806  11.585
34220W        W 5803   9.663  20.046  12.713
34221W        W 5804  25.214   1.749  11.561
34222W        W 5805  36.028   6.364  11.984
34223W        W 5806  29.671  36.371   4.555
34224W        W 5807   7.773  38.478   4.674
34225W        W 5808  29.460  30.539  14.358
34226W        W 5809  32.258  36.554   1.448
34227W        W 5810  15.581  19.544   2.876
34228W        W 5811  24.616  18.718   2.850
34229W        W 5812  38.575  31.404  10.862
34230W        W 5813  44.570  43.386  12.706
34231W        W 5814  43.693  12.883   1.910
34232W        W 5815  40.396   9.844  10.731
34233W        W 5816  18.059  44.977  12.694
34234W        W 5817  31.480  40.879  11.724
34235W        W 5818  31.888  31.528  12.399
34236W        W 5819  16.290  33.399   1.233
34237W        W 5820  32.395  29.584  11.474
34238W        W 5821  10.224  16.056   4.955
34239W        W 5822  16.881  40.786   3.651
34240W        W 5823  21.083  21.630  11.278
34241W        W 5824  25.243  26.101   1.271
34242W        W 5825  33.406  38.057   0.424
34243W        W 5826  13.397  22.099  14.808
34244W        W 5827  39.346  21.415   3.722
34245W        W 5828  29.488  40.863  12.142
34246W        W 5829  42.977   1.522   3.893
34247W        W 5830  18.722  38.482  12.200
34248W        W 5831  30.597  14.175   4.623
34249W        W 5832  32.936   1.754  10.378
34250W        W 5833  11.563  40.522  11.535
34251W        W 5834   7.804  23.284   4.612
34252W        W 5835  22.243  36.455  10.600
34253W        W 5836  28.562   5.659   3.737
34254W        W 5837  41.431  34.162  12.475
34255W        W 5838  37.540  11.696   1.364
34256W        W 5839  15.032  17.147   0.609
34257W        W 5840   4.069  32.340  10.723
34258W        W 5841  17.236   0.306  10.612
34259W        W 5842  29.927  35.939  14.961
34260W        W 5843   4.047  36.942   0.807
34261W        W 5844  29.168  32.080   0.314
34262W        W 5845  25.555  21.141  10.532
34263W        W 5846  29.408  19.702   2.243
34264W        W 5847  19.412   0.717   1.174
34265W        W 5848  17.017  39.760   4.137
34266W        W 5849  36.386  39.928   4.389
34267W        W 5850  16.014  22.505   3.719
34268W        W 5851  33.984  23.752  10.784
34269W        W 5852  39.330  22.813   4.583
34270W        W 5853  41.731  21.229  13.979
34271W        W 5854  23.637  25.148   2.148
34272W        W 5855  42.630  36.566   4.872
34273W        W 5856  39.384   0.222   2.748
34274W        W 5857  15.113  18.238  14.306
34275W        W 5858  33.309  19.839   0.418
34276W        W 5859  18.074   5.780   1.116
34277W        W 5860  19.912  43.288  11.740
34278W        W 5861  41.986  15.758   0.569
34279W        W 5862  41.616  37.610  10.066
34280W        W 5863  11.716  36.774  11.618
34281W        W 5864   2.455  25.115   0.944
34282W        W 5865   5.760  44.936   3.101
34283W        W 5866  29.075  11.853   4.147
34284W        W 5867  40.260  22.639  11.696
34285W        W 5868  37.387  26.577  13.540
34286W        W 5869  33.365  35.757   4.947
34287W        W 5870  14.111   0.975  14.953
34288W        W 5871  27.923  31.610   0.447
34289W        W 5872  41.551  29.021   1.165
34290W        W 5873  42.091   9.117   2.789
34291W        W 5874  44.216  21.596   2.698
34292W        W 5875  15.339  22.023  12.422
34293W        W 5876  42.803   1.818   4.283
34294W        W 5877  41.111  34.026  14.379
34295W        W 5878  41.369  44.470   0.427
34296W        W 5879  40.498  36.386   1.741
34297W        W 5880  44.034   0.727  13.942
34298W        W 5881  22.981  20.018  14.251
34299W        W 5882  27.921  11.304   4.690
34300W        W 5883  22.958  14.661   4.484
34301W        W 5884  31.188  29.144  13.343
34302W        W 5885  44.219  18.754   2.821
34303W        W 5886  33.870  28.796   1.846
34304W        W 5887  17.647  16.510   2.807
34305W        W 5888   2.793  16.036   0.743
34306W        W 5889  22.996  26.239  12.683
34307W        W 5890  23.108   3.549  14.635
34308W        W 5891  10.597  28.176  14.933
34309W        W 5892   7.925  36.098  13.355
34310W        W 5893  37.319  33.532   0.384
34311W        W 5894  13.805  37.337  12.954
34312W        W 5895  29.394  10.759   0.796
34313W        W 5896  22.037   9.256  14.043
34314W        W 5897  32.824  13.761  12.876
34315W        W 5898  30.906  20.065  12.045
34316W        W 5899  25.990  30.681   0.775
34317W        W 5900  18.525   6.904  14.911
34318W        W 5901   1.376  17.716  14.876
34319W        W 5902   7.894  22.229  14.361
34320W        W 5903   2.957  33.741   0.331
34321W        W 5904  16.158  20.009   4.169
34322W        W 5905  37.928   0.718  11.579
34323W        W 5906   8.748   8.368   4.162
34324W        W 5907  20.706  28.007   9.760
34325W        W 5908  19.958   0.998  12.027
34326W        W 5909  22.531  29.631   1.826
34327W        W 5910   2.637  23.578   3.713
34328W        W 5911  26.555  39.269   0.259
34329W        W 5912  11.819   1.440   2.433
34330W        W 5913  30.715   2.364   1.335
34331W        W 5914  27.925  16.826  10.725
34332W        W 5915  43.397  33.069  11.079
34333W        W 5916  10.215   4.153  10.481
34334W        W 5917  31.937  41.020   4.270
34335W        W 5918  19.388  41.723   4.624
34336W        W 5919  10.257  24.107  13.583
34337W        W 5920  39.318  13.517   3.630
34338W        W 5921  15.180  34.950  14.606
34339W        W 5922  11.318  19.185   4.641
34340W        W 5923  44.710  25.443  10.242
34341W        W 5924  44.293  22.215   1.467
34342W        W 5925  16.634   6.214   0.002
34343W        W 5926  36.628  34.320  14.259
34344W        W 5927  32.278  37.175   1.530
34345W        W 5928  23.980  39.477   4.515
34346W        W 5929   2.992  28.234   3.975
34347W        W 5930   0.383  37.156  11.566
34348W        W 5931  22.101  16.607   4.105
34349W        W 5932  32.490   7.306  14.419
34350W        W 5933  13.157  23.388   3.224
34351W        W 5934  40.133  31.157   0.394
34352W        W 5935  39.167   5.443   3.818
34353W        W 5936  42.080  29.890   3.872
34354W        W 5937  14.675  39.977  10.655
34355W        W 5938   7.135  25.177  11.084
34356W        W 5939  11.425  17.591  13.376
34357W        W 5940  16.272  36.642  14.427
34358W        W 5941   4.441  32.201  12.332
34359W        W 5942  43.939   4.345   4.121
34360W        W 5943  27.712   0.543   0.109
34361W        W 5944  43.527   4.971  10.763
34362W        W 5945  19.010  36.347   3.237
34363W        W 5946  11.111  26.409   3.275
34364W        W 5947  21.688  40.359  13.048
34365W        W 5948  15.146   5.878  13.538
34366W        W 5949  34.429  31.425  13.929
34367W        W 5950  41.758  34.430   3.246
34368W        W 5951  18.749  36.421  11.482
34369W        W 5952  12.152  10.539  14.846
34370W        W 5953  41.825  29.920  12.948
34371W        W 5954   8.510  18.582   2.074
34372W        W 5955  25.261  15.380   1.424
34373W        W 5956  15.159  35.878  14.504
34374W        W 5957  19.436  38.371   0.451
34375W        W 5958  29.150  15.809   0.335
34376W        W 5959   1.727  29.464   4.120
34377W        W 5960   0.710  19.579   0.986
34378W        W 5961  15.641  21.181  14.552
34379W        W 5962  12.224  10.475   0.331
34380W        W 5963  29.704  25.961  14.698
34381W        W 5964   6.807  19.883   3.242
34382W        W 5965  18.024  40.471   4.160
34383W        W 5966   3.322  18.993  10.697
34384W        W 5967  43.019  22.968   3.931
34385W        W 5968   0.387  13.513  13.828
34386W        W 5969  36.844  20.227  11.109
34387W        W 5970   7.750  16.988   5.070
34388W        W 5971  16.665  39.847  12.122
34389W        W 5972   1.627  27.093   4.619
34390W        W 5973  39.585  15.545   2.206
34391W        W 5974  13.070   1.406  14.234
34392W        W 5975  33.170   6.004  13.355
34393W        W 5976  36.249  36.333  11.669
34394W        W 5977  43.887  26.733   4.867
34395W        W 5978   8.331  37.388   2.637
34396W        W 5979  25.884  28.650  12.439
34397W        W 5980  26.757  38.355  12.439
34398W        W 5981   4.528   6.598  14.781
34399W        W 5982  33.798  44.319  11.862
34400W        W 5983   5.967   6.311   2.936
34401W        W 5984   2.405   5.889   0.856
34402W        W 5985  32.033  18.256  13.866
34403W        W 5986   4.370  35.575   2.331
34404W        W 5987   3.274  42.263   0.502
34405W        W 5988  31.780  34.328   2.455
34406W        W 5989  38.293  18.174  14.784
34407W        W 5990  38.359  42.501   4.529
34408W        W 5991  38.030   9.511  11.098
34409W        W 5992  22.047  30.720  11.237
34410W        W 5993  13.455  10.880   3.288
34411W        W 5994  13.534  39.387  11.748
34412W        W 5995  23.319  29.648   4.000
34413W        W 5996   0.980   4.703   0.850
34414W        W 5997   5.469  10.128  11.653
34415W        W 5998  34.544  37.857  11.183
34416W        W 5999  28.961  25.139  10.734
34417W        W 6000  34.830  35.361  12.156
34418W        W 6001  14.693  10.029  10.177
34419W        W 6002   2.331   9.448   3.581
34420W        W 6003  29.217  24.544  11.405
34421W        W 6004   0.242  25.723   0.270
34422W        W 6005  11.608  18.568   1.694
34423W        W 6006  33.847  43.415   3.197
34424W        W 6007  26.339   3.338  10.217
34425W        W 6008  38.371  12.672   4.138
34426W        W 6009  24.838  11.712  11.938
34427W        W 6010  36.646  12.233  10.450
34428W        W 6011  37.549  32.854  11.581
34429W        W 6012  30.941  41.503   2.737
34430W        W 6013  31.081  40.250  10.704
34431W        W 6014  19.281  30.761  14.740
34432W        W 6015  36.636  39.333   3.392
34433W        W 6016  43.978   0.853   1.166
34434W        W 6017  34.056  17.992  14.584
34435W        W 6018  18.536  19.547  12.521
34436W        W 6019  38.004  30.253  11.041
34437W        W 6020  35.462  36.446  11.152
34438W        W 6021  19.808  36.981   2.889
34439W        W 6022  32.656   7.252   1.241
34440W        W 6023  12.300  20.111   4.443
34441W        W 6024   5.695  24.553  11.234
34442W        W 6025   5.544  37.608   5.031
34443W        W 6026  39.741   3.719  13.873
34444W        W 6027  37.651   6.394  11.531
34445W        W 6028  39.852   6.015   1.394
34446W        W 6029   6.645  14.124   2.860
34447W        W 6030  32.903  11.420   4.237
34448W        W 6031  16.628  23.656  11.023
34449W        W 6032  17.272  19.982  11.931
34450W        W 6033   8.429  39.970   0.809
34451W        W 6034  16.191  19.636   2.196
34452W        W 6035   6.010   5.993  10.867
34453W        W 6036  18.627  28.237   4.413
34454W        W 6037  42.317  37.533   3.079
34455W        W 6038  21.561  28.606  10.717
34456W        W 6039  22.581  25.788  12.115
34457W        W 6040  38.732  40.441   3.394
34458W        W 6041  43.445   6.385  12.201
34459W        W 6042  19.934  43.077   2.216
34460W        W 6043   0.512   8.494  13.801
34461W        W 6044   8.274  21.667   1.750
34462W        W 6045   6.594  28.613   0.648
34463W        W 6046  24.213  30.478   2.356
34464W        W 6047  35.371  28.952   2.793
34465W        W 6048  18.078   8.700   0.978
34466W        W 6049  35.340  22.289  12.056
34467W        W 6050  14.620  38.046   5.075
34468W        W 6051  41.538  19.069   4.717
34469W        W 6052   3.859  30.170   0.525
34470W        W 6053  41.127  42.357  12.100
34471W        W 6054  37.520   9.298   0.816
34472W        W 6055  20.509  42.506  14.621
34473W        W 6056  16.703   7.424  10.569
34474W        W 6057   2.845   1.734   3.784
34475W        W 6058  18.264   4.458   2.468
34476W        W 6059   6.200  35.004  10.953
34477W        W 6060  38.944  22.239  11.225
34478W        W 6061   5.209  41.295  14.320
34479W        W 6062   1.541  28.875   1.393
34480W        W 6063  43.893  31.495  10.410
34481W        W 6064   9.214  11.693   1.278
34482W        W 6065  20.724  28.273   5.232
34483W        W 6066  12.308  13.094  13.460
34484W        W 6067  40.806  30.353   2.903
34485W        W 6068  37.474   9.665  14.395
34486W        W 6069  29.892  15.319   0.041
34487W        W 6070   8.385  17.052  14.029
34488W        W 6071  23.981  20.086  14.364
34489W        W 6072  39.269  33.987  11.440
34490W        W 6073  17.900  34.084  14.259
34491W        W 6074  33.540  13.199  10.919
34492W        W 6075  17.385  11.069  11.675
34493W        W 6076   7.148  24.154   2.879
34494W        W 6077   4.653  31.706  12.333
34495W        W 6078   5.009  12.579  14.394
34496W        W 6079  26.086  11.138   3.176
34497W        W 6080  23.319   9.947   1.789
34498W        W 6081  35.540  35.062  12.049
34499W        W 6082  38.615  20.761   2.130
34500W        W 6083  14.983  42.939   4.923
34501W        W 6084  14.348  14.284   1.394
34502W        W 6085  43.967  44.759   3.210
34503W        W 6086  10.450   3.361   3.830
34504W        W 6087  23.718   0.282  14.794
34505W        W 6088  36.950  23.464  13.032
34506W        W 6089  12.303  27.239  11.532
34507W        W 6090  33.429  18.668   0.166
34508W        W 6091  37.033  43.326   1.116
34509W        W 6092  16.713  42.308  11.120
34510W        W 6093  27.592   9.869  12.575
34511W        W 6094  35.068  16.131  12.027
34512W        W 6095  41.042  27.611  11.606
34513W        W 6096  27.155  41.320  12.927
34514W        W 6097  21.080   0.718  12.550
34515W        W 6098  33.886   5.933   4.535
34516W        W 6099  33.022  39.020  10.690
34517W        W 6100  32.908  25.645  13.534
34518W        W 6101  17.768  17.321   2.244
34519W        W 6102  41.212  40.875  13.539
34520W        W 6103  32.545  39.927   4.096
34521W        W 6104  13.413  38.828   0.941
34522W        W 6105  20.588  35.733  14.708
34523W        W 6106  21.201  16.738   3.153
34524W        W 6107  39.974   9.378  10.062
34525W        W 6108  11.691  37.399  14.294
34526W        W 6109  39.585  23.463  14.848
34527W        W 6110  33.564   9.795  11.625
34528W        W 6111  30.228  18.105  13.475
34529W        W 6112  44.905  18.341   2.479
34530W        W 6113  19.238  40.088   3.185
34531W        W 6114  33.570  37.899   2.698
34532W        W 6115   3.584  41.346   2.269
34533W        W 6116  34.981   7.187  13.771
34534W        W 6117  26.916  35.109  12.008
34535W        W 6118  20.705  35.314   0.361
34536W        W 6119  22.659   2.955   2.229
34537W        W 6120   1.258  37.602  11.827
34538W        W 6121   7.593  41.446  12.965
34539W        W 6122  38.439  27.461  13.572
34540W        W 6123  32.712  44.714   4.146
34541W        W 6124  11.247  41.865   3.772
34542W        W 6125  21.512   4.721   1.403
34543W        W 6126  10.390  16.688   1.759
34544W        W 6127  11.225  39.719   3.353
34545W        W 6128  29.240   8.672  13.816
34546W        W 6129  31.972  35.802   3.847
34547W        W 6130  29.999   4.687  14.832
34548W        W 6131  40.537  14.557   2.914
34549W        W 6132  28.876  37.575   4.305
34550W        W 6133   6.306  25.496   1.915
34551W        W 6134   3.835  20.682   3.222
34552W        W 6135   8.600  42.903  10.563
34553W        W 6136   1.354  32.082  14.150
34554W        W 6137  10.812  40.539  12.057
34555W        W 6138  34.239   6.255   3.159
34556W        W 6139   9.291   0.458   2.472
34557W        W 6140   1.285  35.779   0.397
34558W        W 6141  27.517   4.858  10.644
34559W        W 6142  44.313  26.141  12.550
34560W        W 6143  34.537  15.990  14.757
34561W        W 6144  27.260  35.808   2.253
34562W        W 6145  33.055   7.306   4.554
34563W        W 6146  36.462  13.417  12.718
34564W        W 6147  16.615   1.471   3.279
34565W        W 6148   3.379  40.768  13.439
34566W        W 6149   5.479  24.648   1.115
34567W        W 6150  12.116  18.866  11.252
34568W        W 6151  20.571  36.584   3.870
34569W        W 6152  30.057  15.804   0.210
34570W        W 6153  37.462   3.327   5.025
34571W        W 6154  37.294  37.532  11.399
34572W        W 6155  17.640  12.072   4.399
34573W        W 6156  41.923  11.319   0.307
34574W        W 6157  31.059  20.112   1.868
34575W        W 6158  22.056  40.072  12.824
34576W        W 6159  10.903  43.536   3.747
34577W        W 6160  35.874  20.291  14.444
34578W        W 6161  15.365  33.091  12.597
34579W        W 6162  37.028  21.559  13.885
34580W        W 6163  16.245  41.188  11.885
34581W        W 6164  29.208  39.573  10.925
34582W        W 6165  13.411  43.515  14.986
34583W        W 6166   3.797  13.116   1.426
34584W        W 6167  30.738   2.501  13.399
34585W        W 6168  19.103  35.469   3.386
34586W        W 6169  15.819   4.256  10.687
34587W        W 6170  25.120  12.408  12.358
34588W        W 6171  24.098  11.373  12.017
34589W        W 6172   5.944  33.945   3.621
34590W        W 6173  39.543  38.528  11.059
34591W        W 6174   4.470   6.689  13.936
34592W        W 6175  28.236  37.433  12.117
34593W        W 6176  31.093  41.888  13.428
34594W        W 6177  44.763  33.935  11.975
34595W        W 6178  21.153  11.151  14.927
34596W        W 6179   1.996  37.741   4.165
34597W        W 6180  39.829   8.170   4.109
34598W        W 6181  16.216  31.006  14.698
34599W        W 6182  30.862  34.624   2.761
34600W        W 6183  38.587  17.752  14.867
34601W        W 6184  21.790  23.071  12.488
34602W        W 6185  32.006   5.010  11.715
34603W        W 6186  35.989  25.215   4.814
34604W        W 6187  14.332  26.092  13.546
34605W        W 6188  23.285  41.887   3.358
34606W        W 6189  42.747  32.620   1.855
34607W        W 6190  15.168  35.533   1.734
34608W        W 6191   8.165  25.591  12.862
34609W        W 6192  20.635  15.911   2.200
34610W        W 6193  31.967  33.165  13.983
34611W        W 6194  26.084  31.186  12.566
34612W        W 6195  34.124  39.158  12.879
34613W        W 6196  19.178  28.055  10.680
34614W        W 6197  36.121  31.106  13.804
34615W        W 6198   1.367  37.117  11.566
34616W        W 6199  38.206  11.711  11.971
34617W        W 6200  20.617  23.909  12.528
34618W        W 6201  18.191  40.168  13.099
34619W        W 6202  43.730  28.940   0.775
34620W        W 6203  24.420  25.030  12.963
34621W        W 6204  36.959  16.028  13.482
34622W        W 6205  13.678  36.026   1.342
34623W        W 6206  43.304  25.111  12.454
34624W        W 6207  39.167  22.756   3.306
34625W        W 6208  44.980   3.735   0.388
34626W        W 6209  44.927   7.764   4.510
34627W        W 6210  27.906  15.669  12.421
34628W        W 6211  13.233  38.785   4.137
34629W        W 6212  24.929  43.424   0.902
34630W        W 6213  30.032  21.166   3.792
34631W        W 6214   3.834  25.300   1.974
34632W        W 6215  17.109   7.462  14.712
34633W        W 6216   8.530  27.014  12.713
34634W        W 6217  27.134   5.817   3.150
34635W        W 6218   2.254  43.346   1.371
34636W        W 6219  32.667  13.751  11.088
34637W        W 6220  42.798  18.665  12.130
34638W        W 6221  36.593  31.594   4.268
34639W        W 6222   9.640  31.384  12.053
34640W        W 6223  11.592  28.937  12.611
34641W        W 6224  39.858  28.088   1.881
34642W        W 6225   2.741  29.022   1.745
34643W        W 6226  10.335  32.864   0.727
34644W        W 6227  11.878  38.380   0.261
34645W        W 6228  12.215  10.354   3.326
34646W        W 6229  36.086  28.611  11.992
34647W        W 6230  42.818  33.076  11.554
34648W        W 6231  40.119   7.683  12.104
34649W        W 6232  18.174  19.004  11.909
34650W        W 6233  44.767  35.284   1.652
34651W        W 6234  14.961  22.474  14.013
34652W        W 6235  44.979  40.865   3.768
34653W        W 6236   1.290   1.712  14.335
34654W        W 6237  13.161  30.135  13.864
34655W        W 6238  30.569  38.055   2.511
34656W        W 6239  22.547  13.014   1.749
34657W        W 6240  32.033   3.624  14.492
34658W        W 6241  43.536  10.138   3.646
34659W        W 6242  23.912  25.262   3.801
34660W        W 6243   9.225  16.119  12.953
34661W        W 6244  16.263   3.164  11.500
34662W        W 6245  33.872   6.886   1.063
34663W        W 6246   9.772  21.366  12.453
34664W        W 6247  15.125  40.948  13.371
34665W        W 6248   0.609  30.351   0.924
34666W        W 6249  16.603  31.886   2.912
34667W        W 6250  35.926  25.122  14.053
34668W        W 6251  28.462  31.937   3.684
34669W        W 6252  43.990  31.410  11.942
34670W        W 6253  40.321   2.687   4.841
34671W        W 6254  35.937  20.109   2.021
34672W        W 6255  41.900  40.019   2.411
34673W        W 6256  15.702  20.898  12.053
34674W        W 6257  14.316  38.923   2.345
34675W        W 6258  43.784  35.524   4.935
34676W        W 6259   0.763  10.888   3.198
34677W        W 6260  40.183  34.246   1.312
34678W        W 6261  30.671  43.510  11.934
34679W        W 6262  26.705  28.689  10.777
34680W        W 6263  32.912  14.192  11.959
34681W        W 6264  31.120  35.052  14.075
34682W        W 6265  30.108  43.909   2.809
34683W        W 6266  18.569  34.169   3.633
34684W        W 6267  43.589  31.118   2.411
34685W        W 6268  30.459  27.852   4.029
34686W        W 6269  20.616  12.808   4.500
34687W        W 6270  39.951  34.591   3.782
34688W        W 6271  15.123  17.856   3.797
34689W        W 6272  14.055  21.459   3.833
34690W        W 6273  27.939   5.099   3.212
34691W        W 6274  32.843   6.382  13.457
34692W        W 6275   5.313  16.159  14.589
34693W        W 6276  32.303   7.912  11.896
34694W        W 6277  30.454  32.704  13.871
34695W        W 6278   3.412  17.657   2.663
34696W        W 6279   6.714  20.555  13.894
34697W        W 6280  12.404  19.821   1.689
34698W        W 6281  44.678  12.552   2.509
34699W        W 6282  34.081  23.943  11.559
34700W        W 6283  15.576  13.004  14.083
34701W        W 6284  23.165  39.376  13.283
34702W        W 6285  22.191  39.298   4.679
34703W        W 6286  12.304  20.109  13.034
34704W        W 6287   8.381  39.437   4.375
34705W        W 6288  35.138   3.192  10.052
34706W        W 6289  33.333  15.297   1.407
34707W        W 6290  37.796  14.702  12.009
34708W        W 6291  14.057  30.086  14.471
34709W        W 6292  30.778   5.863  11.539
34710W        W 6293  42.490  43.456  11.692
34711W        W 6294   1.755  20.308   2.425
34712W        W 6295   4.929  14.286   2.780
34713W        W 6296  17.776  29.878  11.143
34714W        W 6297   7.567   2.055   3.182
34715W        W 6298  28.272  17.697   0.880
34716W        W 6299  32.556  11.730  11.640
34717W        W 6300   2.527   3.663  13.776
34718W        W 6301   9.747  12.903   0.219
34719W        W 6302  39.339  24.591  13.950
34720W        W 6303   9.232   5.932  13.753
34721W        W 6304  34.105  12.339  12.246
34722W        W 6305   9.485  36.053   4.549
34723W        W 6306  39.489   3.028  10.731
34724W        W 6307  38.538  22.573  14.553
34725W        W 6308   7.421  41.275   0.028
34726W        W 6309  41.841  22.170  11.790
34727W        W 6310  27.485  38.278  11.082
34728W        W 6311  31.629  32.442  12.816
34729W        W 6312  14.104  43.370   2.351
34730W        W 6313  13.286  32.151  11.479
34731W        W 6314  32.145  10.349  11.101
34732W        W 6315  39.295  11.303   0.853
34733W        W 6316  35.457  35.395  10.788
34734W        W 6317  41.323  23.011  13.351
34735W        W 6318  20.672  43.949   1.959
34736W        W 6319  39.975  26.026   1.821
34737W        W 6320  36.782   7.953  12.350
34738W        W 6321   4.874  21.468  14.012
34739W        W 6322  18.199  44.533   1.347
34740W        W 6323  43.866   3.906   2.211
34741W        W 6324  22.120  17.099   4.242
34742W        W 6325  23.748  41.961   3.161
34743W        W 6326  23.425   8.912   2.842
34744W        W 6327  21.764  39.931   4.695
34745W        W 6328  28.057   4.450  11.353
34746W        W 6329  25.795   4.981  12.515
34747W        W 6330   9.218  44.480  12.996
34748W        W 6331  28.536   2.202   1.341
34749W        W 6332  17.698   0.094  10.463
34750W        W 6333   2.437  25.362   2.962
34751W        W 6334  30.382  32.782   0.215
34752W        W 6335   9.392  37.151   3.292
34753W        W 6336  24.497  18.198   3.105
34754W        W 6337  42.178  13.500  14.014
34755W        W 6338  28.476  10.509  13.141
34756W        W 6339  23.291  27.171   3.845
34757W        W 6340  36.954  39.332   2.427
34758W        W 6341  39.023  32.985   3.903
34759W        W 6342   5.617  23.233   3.833
34760W        W 6343  27.130  27.612   2.874
34761W        W 6344   9.633   4.728  11.049
34762W        W 6345  20.318  40.305  14.943
34763W        W 6346   8.698  44.209  14.351
34764W        W 6347  18.797   9.209  11.035
34765W        W 6348  24.025  24.787  14.732
34766W        W 6349   4.001  18.320   0.330
34767W        W 6350  41.301  43.963  10.670
34768W        W 6351  44.909  30.045   2.698
34769W        W 6352  15.276  14.289   0.881
34770W        W 6353  21.547   8.983   1.803
34771W        W 6354  24.155  22.518  13.084
34772W        W 6355  29.367  29.152   0.988
34773W        W 6356  26.794  27.433   2.276
34774W        W 6357  23.471   8.307  12.879
34775W        W 6358  10.136  35.056  11.956
34776W        W 6359   7.369  21.707   2.690
34777W        W 6360  24.288   7.904  13.860
34778W        W 6361  39.486   9.270  13.195
34779W        W 6362   9.612  12.105  11.640
34780W        W 6363  39.534  10.240   4.149
34781W        W 6364  22.697   1.503  11.560
34782W        W 6365  23.007  35.774  14.348
34783W        W 6366  41.121  13.801  11.564
34784W        W 6367  33.462  35.343   2.768
34785W        W 6368  40.068  12.653  10.771
34786W        W 6369   7.639  15.351   1.401
34787W        W 6370  37.899  22.221  12.022
34788W        W 6371  39.556  22.831  11.198
34789W        W 6372  32.361  11.811  11.149
34790W        W 6373   2.182   0.432   1.340
34791W        W 6374  31.641   8.281  14.693
34792W        W 6375  32.541  23.904  10.413
34793W        W 6376  24.217  37.270   2.406
34794W        W 6377  23.721  18.854   2.065
34795W        W 6378  39.826  29.501   0.851
34796W        W 6379  32.919  37.172   2.784
34797W        W 6380  33.992  15.153  12.018
34798W        W 6381  29.694  27.999  10.579
34799W        W 6382   9.996   0.922  11.703
34800W        W 6383   0.979  42.606   4.175
34801W        W 6384  15.524   4.754  14.315
34802W        W 6385  19.611   0.566  14.775
34803W        W 6386  21.931  19.258  10.229
34804W        W 6387   4.769   1.770  11.691
34805W        W 6388  23.954  27.407   0.279
34806W        W 6389   6.146  31.923   0.816
34807W        W 6390  32.395  29.509  10.935
34808W        W 6391  33.695  28.537   2.292
34809W        W 6392  16.025  27.258  10.693
34810W        W 6393  34.736  24.384  11.155
34811W        W 6394  13.739  13.953   3.387
34812W        W 6395   6.685  30.479   2.452
34813W        W 6396  27.938  42.676   3.851
34814W        W 6397   6.385  39.617  11.478
34815W        W 6398   1.830  15.876   2.757
34816W        W 6399  24.294   7.406  14.037
34817W        W 6400  32.216   6.587  10.668
34818W        W 6401  37.312   3.773   3.596
34819W        W 6402  25.972  31.526  13.402
34820W        W 6403  35.670  26.495  12.191
34821W        W 6404  25.747   2.754   4.673
34822W        W 6405   2.921  30.083  12.549
34823W        W 6406  27.555  44.434   2.409
34824W        W 6407  20.103  31.401   3.135
34825W        W 6408  28.218  20.092  10.847
34826W        W 6409   8.614   5.987   1.355
34827W        W 6410  12.447  29.010  11.595
34828W        W 6411   5.394  23.307  11.644
34829W        W 6412  24.556   7.083  13.621
34830W        W 6413  32.459   9.616   1.906
34831W        W 6414   9.389  14.398  11.360
34832W        W 6415  19.127  40.090  14.422
34833W        W 6416  25.928   3.042   4.250
34834W        W 6417  15.095  13.325  14.973
34835W        W 6418  37.323  15.017   4.139
34836W        W 6419   4.993  33.026  13.791
34837W        W 6420  16.499  21.157  14.088
34838W        W 6421  25.451  21.047  11.030
34839W        W 6422   9.618   9.465   4.112
34840W        W 6423  15.667  22.765  12.728
34841W        W 6424  36.865  26.959   1.514
34842W        W 6425  28.689  12.785   3.946
34843W        W 6426   1.277  16.387  14.376
34844W        W 6427  39.508  26.946   4.116
34845W        W 6428   0.490  31.554  11.285
34846W        W 6429  25.414  35.450  10.631
34847W        W 6430  33.329  38.168   2.322
34848W        W 6431   7.794  30.894   2.128
34849W        W 6432  44.757  43.090  10.217
34850W        W 6433  24.706  19.467  14.772
34851W        W 6434  30.997  13.955   2.324
34852W        W 6435  22.195  34.560   3.236
34853W        W 6436  39.083  21.761  11.078
34854W        W 6437  37.437   7.378  11.523
34855W        W 6438  13.867   6.892  11.545
34856W        W 6439  23.169  40.929  10.720
34857W        W 6440  39.090  28.146   0.543
34858W        W 6441  29.886  13.327   1.810
34859W        W 6442  39.039  30.176   2.854
34860W        W 6443  27.494  11.472   3.133
34861W        W 6444  27.184   2.949   4.035
34862W        W 6445  25.716  29.718   1.366
34863W        W 6446   6.405  36.327  14.938
34864W        W 6447  37.818  40.908  11.276
34865W        W 6448  10.672   3.807  12.470
34866W        W 6449  25.988   7.749   4.275
34867W        W 6450   7.284   6.363  11.703
34868W        W 6451  17.463  16.048   2.696
34869W        W 6452  35.531  27.749  13.056
34870W        W 6453   3.791  10.077  11.128
34871W        W 6454  29.865  33.505  10.690
34872W        W 6455  38.982  14.237  13.398
34873W        W 6456   6.265   3.826   3.907
34874W        W 6457  37.824  33.824  11.144
34875W        W 6458   8.988   6.554   4.968
34876W        W 6459  15.147   8.854  11.515
34877W        W 6460  29.181  26.018   1.407
34878W        W 6461  13.312  25.683   2.664
34879W        W 6462  17.550  30.927   3.695
34880W        W 6463  10.839  14.050   2.889
34881W        W 6464  13.962  42.411   0.115
34882W        W 6465  34.015  40.058   2.595
34883W        W 6466  26.620  26.186  12.893
34884W        W 6467  31.076  25.173  12.542
34885W        W 6468  27.666  21.218  12.921
34886W        W 6469  22.147   7.925   2.142
34887W        W 6470  38.902  12.777   2.614
34888W        W 6471  11.548  23.729  13.612
34889W        W 6472  29.828  24.950  13.107
34890W        W 6473   8.671   3.173   1.623
34891W        W 6474  11.245  40.502   4.220
34892W        W 6475  14.395   7.150   2.662
34893W        W 6476  27.650   1.804   4.200
34894W        W 6477   8.207   6.133   1.723
34895W        W 6478  26.924  44.830   4.540
34896W        W 6479   7.518   4.191  13.367
34897W        W 6480   8.766  41.591  14.877
34898W        W 6481   7.346  18.711  11.952
34899W        W 6482  20.982  25.159   2.709
34900W        W 6483  31.500  30.742   3.380
34901W        W 6484  23.074  44.805   2.909
34902W        W 6485  16.691  12.664   1.493
34903W        W 6486  12.093   1.999   0.771
34904W        W 6487   3.827  18.358   2.293
34905W        W 6488  26.270  44.351   1.861
34906W        W 6489  39.996  13.614  12.613
34907W        W 6490  10.072  19.475   1.207
34908W        W 6491  21.984  35.122  12.159
34909W        W 6492   7.802  25.940  12.665
34910W        W 6493  12.302  31.571   1.850
34911W        W 6494  18.074  27.030  11.411
34912W        W 6495  39.648  43.569  11.967
34913W        W 6496  37.228  12.276   2.513
34914W        W 6497  26.098   2.918   3.368
34915W        W 6498  12.623  41.071  11.234
34916W        W 6499  18.625   2.364  10.408
34917W        W 6500  41.894  41.436   3.585
34918W        W 6501  29.796  14.879  14.681
34919W        W 6502  26.701  35.076   4.632
34920W        W 6503   2.824  10.096  12.124
34921W        W 6504  27.983  26.367  11.520
34922W        W 6505  34.994  42.820   4.666
34923W        W 6506  27.035  44.284   3.703
34924W        W 6507  27.896  43.087  13.971
34925W        W 6508  33.841  27.163  12.724
34926W        W 6509  39.201  33.972   1.223
34927W        W 6510   3.011  42.086   0.953
34928W        W 6511  22.470  18.250  14.598
34929W        W 6512  26.156  14.886  11.139
34930W        W 6513  34.057  29.713  12.612
34931W        W 6514  29.957   2.305  10.759
34932W        W 6515  16.113  15.226   1.916
34933W        W 6516   2.321  27.484  12.507
34934W        W 6517  43.777  21.988   2.362
34935W        W 6518   8.624  12.631   2.399
34936W        W 6519  29.097  14.685   3.574
34937W        W 6520  31.152  39.557  12.053
34938W        W 6521  42.793  41.703   1.273
34939W        W 6522  33.264  23.752   5.083
34940W        W 6523  34.439   8.384   1.387
34941W        W 6524  11.104  26.040   0.236
34942W        W 6525  21.952  27.042  14.822
34943W        W 6526  34.608  33.814   3.590
34944W        W 6527  10.410  20.734  10.451
34945W        W 6528  24.436  41.799  11.378
34946W        W 6529   8.372  31.539   3.159
34947W        W 6530  30.013  16.626  14.308
34948W        W 6531  24.027  25.667   1.439
34949W        W 6532  12.624  39.373  14.107
34950W        W 6533   9.739  10.812   2.390
34951W        W 6534   3.484  19.455  14.930
34952W        W 6535  12.725   7.328  13.327
34953W        W 6536  44.841  17.529   3.218
34954W        W 6537  11.266  36.653  14.830
34955W        W 6538  34.134  28.446  14.900
34956W        W 6539  26.949   7.206  10.628
34957W        W 6540  16.126  21.581  12.587
34958W        W 6541   8.771  42.740  11.356
34959W        W 6542  17.634  30.093  15.000
34960W        W 6543  33.368  13.826   1.310
34961W        W 6544   7.652  13.244   4.331
34962W        W 6545   4.104  10.689   4.136
34963W        W 6546   1.746  29.394   0.313
34964W        W 6547   0.771  21.461   4.187
34965W        W 6548  11.636  41.704  13.160
34966W        W 6549  37.634  25.224   3.393
34967W        W 6550  12.166  28.530  10.872
34968W        W 6551  33.095  41.732  13.569
34969W        W 6552   7.318  30.899   1.889
34970W        W 6553  24.994  18.619   0.793
34971W        W 6554   1.297  17.196   2.434
34972W        W 6555  33.035  26.708   2.876
34973W        W 6556  20.675  30.662  12.423
34974W        W 6557  28.587  34.020   2.719
34975W        W 6558  12.358  37.480   3.365
34976W        W 6559  42.463  17.652  13.982
34977W        W 6560  33.590  30.620   1.827
34978W        W 6561   3.783  10.315  12.594
34979W        W 6562  35.549  25.480  14.057
34980W        W 6563  43.332  19.617   0.901
34981W        W 6564  13.159  42.055  10.575
34982W        W 6565  39.985  34.360   4.247
34983W        W 6566  33.580  27.628   0.123
34984W        W 6567  22.742  43.930   4.062
34985W        W 6568  28.970  22.056   2.818
34986W        W 6569   2.318  22.979   0.798
34987W        W 6570  38.025  12.988   0.044
34988W        W 6571  21.757  24.567   0.008
34989W        W 6572  16.616   3.291  14.268
34990W        W 6573  25.192   1.943   0.830
34991W        W 6574  29.889  28.591  12.616
34992W        W 6575  36.896  32.142   2.628
34993W        W 6576   9.208   2.163   5.114
34994W        W 6577   1.698  35.495   4.744
34995W        W 6578  10.343  16.688  11.964
34996W        W 6579  19.929   5.161   4.174
34997W        W 6580  38.061   5.491  11.632
34998W        W 6581   1.012  32.640  13.447
34999W        W 6582  37.830  31.227   0.149
35000W        W 6583  17.638   0.262   3.935
35001W        W 6584   1.928  42.494   1.921
35002W        W 6585   3.883  23.795   0.805
35003W        W 6586   4.261  39.827  10.877
35004W        W 6587  31.099  44.869   1.697
35005W        W 6588   8.365   5.309  11.462
35006W        W 6589  24.238  21.741   1.343
35007W        W 6590   2.628  12.765   1.414
35008W        W 6591  28.009  17.189  14.004
35009W        W 6592  43.233  31.618   3.613
35010W        W 6593  11.256  22.647  14.045
35011W        W 6594  34.949  21.066  11.577
35012W        W 6595  38.833  18.591  11.127
35013W        W 6596   1.992  25.681   4.921
35014W        W 6597   2.996  31.841  12.933
35015W        W 6598  24.183  44.508   0.745
35016W        W 6599  18.786  20.995  11.637
35017W        W 6600   3.111  16.385   0.963
35018W        W 6601  14.309   7.244  14.586
35019W        W 6602  44.638  22.303   4.201
35020W        W 6603  28.404   5.185  13.290
35021W        W 6604   7.668  23.581  14.414
35022W        W 6605  25.325  34.163   3.576
35023W        W 6606  11.582  28.713   1.732
35024W        W 6607   0.406  43.368  12.516
35025W        W 6608   6.385  32.940  12.202
35026W        W 6609  23.996   2.808   3.171
35027W        W 6610  28.002   4.682   5.105
35028W        W 6611  22.337  44.880   1.227
35029W        W 6612  28.752  30.575   3.232
35030W        W 6613  43.059  18.824   0.266
35031W        W 6614  20.327  27.130   4.106
35032W        W 6615   5.601  18.219   2.927
35033W        W 6616  43.216   8.164   1.728
35034W        W 6617  27.131  17.385   2.782
35035W        W 6618   2.461  43.774  13.461
35036W        W 6619  29.961  22.121  10.342
35037W        W 6620  39.852  14.196   2.346
35038W        W 6621  23.048  25.487  12.128
35039W        W 6622  33.420  19.749  12.175
35040W        W 6623   6.564  20.998   4.696
35041W        W 6624  44.907  20.367  11.243
35042W        W 6625  28.229  17.089   3.584
35043W        W 6626   8.154   2.892  14.923
35044W        W 6627  40.688   6.341  10.214
35045W        W 6628  36.518  29.519   2.987
35046W        W 6629  23.456  21.468  12.418
35047W        W 6630  15.076   4.953  14.023
35048W        W 6631  18.002  16.186  10.714
35049W        W 6632  27.916   3.909   2.192
35050W        W 6633  33.887  30.208   1.854
35051W        W 6634   1.689  44.122   2.864
35052W        W 6635  34.668  18.330   2.757
35053W        W 6636   5.332  25.481  12.629
35054W        W 6637  13.763  12.187   4.411
35055W        W 6638  12.063  38.591   2.643
35056W        W 6639  38.094  15.809   1.903
35057W        W 6640  32.844  34.424   4.657
35058W        W 6641  30.492  30.802   3.681
35059W        W 6642  39.075  36.618  12.051
35060W        W 6643  24.572  27.679   3.313
35061W        W 6644  15.989  13.162  12.401
35062W        W 6645  23.315  32.848  11.811
35063W        W 6646  39.461   4.746   2.905
35064W        W 6647  38.454  38.372   3.731
35065W        W 6648  27.070  11.683  13.526
35066W        W 6649  34.560  16.301  10.691
35067W        W 6650   2.334  40.427  12.681
35068W        W 6651  41.629   0.854  13.909
35069W        W 6652  20.528   8.433  13.878
35070W        W 6653  29.881  27.928   4.671
35071W        W 6654  28.037   6.271  11.793
35072W        W 6655  16.626  32.377   3.086
35073W        W 6656  17.201  14.012  13.873
35074W        W 6657   1.507  29.762  14.113
35075W        W 6658  38.811  26.602  11.190
35076W        W 6659  10.210  37.430   3.869
35077W        W 6660  28.962   5.355   0.177
35078W        W 6661  20.169  24.056  10.035
35079W        W 6662  11.988  24.704   2.330
35080W        W 6663  30.665  36.767   5.219
35081W        W 6664  41.715  34.570   4.463
35082W        W 6665  23.171  20.214   1.789
35083W        W 6666  26.701  32.096   2.318
35084W        W 6667  44.717  35.416   2.145
35085W        W 6668  25.064   5.265   3.777
35086W        W 6669  30.991   4.613   1.384
35087W        W 6670   6.765  39.273  11.590
35088W        W 6671  37.337  21.622   0.502
35089W        W 6672  32.859  25.130  13.432
35090W        W 6673   9.679  40.891  11.666
35091W        W 6674  24.723  18.189   4.614
35092W        W 6675  29.863  37.496   2.370
35093W        W 6676   1.326  19.336   4.559
35094W        W 6677  18.169  23.616  14.293
35095W        W 6678   1.284   9.144   1.351
35096W        W 6679   4.351  27.217  14.036
35097W        W 6680   5.465   0.464   1.297
35098W        W 6681  22.743   7.525  12.437
35099W        W 6682  16.531  26.716  13.396
35100W        W 6683  20.178  12.726   2.388
35101W        W 6684   5.754  16.635  11.897
35102W        W 6685  10.346  31.564  14.439
35103W        W 6686  19.190  17.757  10.542
35104W        W 6687   6.644  34.063  12.254
35105W        W 6688  34.827  43.051   0.441
35106W        W 6689  33.062  30.826  14.111
35107W        W 6690   6.170  24.744  11.394
35108W        W 6691  27.572  13.140  11.570
35109W        W 6692  25.022   6.563  12.145
35110W        W 6693  16.333  36.135   0.751
35111W        W 6694  42.321  39.000  14.359
35112W        W 6695   6.297  35.018   4.689
35113W        W 6696   7.026   3.003   4.625
35114W        W 6697  41.764   4.607  12.913
35115W        W 6698  11.132   4.700  14.045
35116W        W 6699  44.080  17.512  11.615
35117W        W 6700  29.926  30.484   1.047
35118W        W 6701  32.370   5.597   1.315
35119W        W 6702  21.304  38.787  12.335
35120W        W 6703  31.639  17.559   2.916
35121W        W 6704  26.631   9.614   0.767
35122W        W 6705  24.116  38.419   1.272
35123W        W 6706   8.931  13.294   1.732
35124W        W 6707  36.666  44.240   1.637
35125W        W 6708  43.422  22.467   1.467
35126W        W 6709  32.950  15.819   3.726
35127W        W 6710  34.124  20.705   3.217
35128W        W 6711  29.424  34.443   3.872
35129W        W 6712  31.781   1.321   3.407
35130W        W 6713  35.909  14.080  13.854
35131W        W 6714  20.283  24.615  12.632
35132W        W 6715  31.563  13.024  13.688
35133W        W 6716  29.986  38.578   4.806
35134W        W 6717   2.191  29.030  11.939
35135W        W 6718  24.334  31.140   3.246
35136W        W 6719  42.326  34.344  12.626
35137W        W 6720  28.507  14.264   3.732
35138W        W 6721  44.114   6.882   0.329
35139W        W 6722  23.469  12.594  12.644
35140W        W 6723  22.170  12.092   3.179
35141W        W 6724  13.248  13.704  12.618
35142W        W 6725   3.794   3.845   2.590
35143W        W 6726  35.886   2.725  11.816
35144W        W 6727   3.213  35.315  12.682
35145W        W 6728  43.413  34.355  14.445
35146W        W 6729  17.193  42.821  14.807
35147W        W 6730   9.620  35.246   2.896
35148W        W 6731  14.041  37.467   2.042
35149W        W 6732  37.322  43.389   4.650
35150W        W 6733  28.564  24.545  13.015
35151W        W 6734  27.518   5.909  10.903
35152W        W 6735   1.051   4.910  12.795
35153W        W 6736  24.333   6.564  11.115
35154W        W 6737   7.319  31.102  10.725
35155W        W 6738  40.551  30.119  11.935
35156W        W 6739  25.141  31.235   4.792
35157W        W 6740  13.037   2.500  10.775
35158W        W 6741   2.331   7.639  14.209
35159W        W 6742   6.612  30.904  12.498
35160W        W 6743  13.360   1.525   3.161
35161W        W 6744  38.846  36.440   1.528
35162W        W 6745  33.246  36.972  11.160
35163W        W 6746   8.521  16.399   1.881
35164W        W 6747  28.046  11.183  10.676
35165W        W 6748  32.031   3.152   1.673
35166W        W 6749  24.061  17.496   4.549
35167W        W 6750  31.940  26.428   4.330
35168W        W 6751  18.677  41.766   4.019
35169W        W 6752  44.878  27.654  11.146
35170W        W 6753   7.700  42.897   0.373
35171W        W 6754  15.812  28.891  11.627
35172W        W 6755   5.146  38.377   0.943
35173W        W 6756  44.040   7.287  14.390
35174W        W 6757  42.923  21.686   2.286
35175W        W 6758   0.331  36.783  14.304
35176W        W 6759  16.531  11.846   1.752
35177W        W 6760  29.554  17.298  13.128
35178W        W 6761  19.239  13.371   1.186
35179W        W 6762   9.360  35.792   4.086
35180W        W 6763  14.341   4.788   4.523
35181W        W 6764  43.018  22.247  11.202
35182W        W 6765  30.452  26.146  14.418
35183W        W 6766   7.556  30.072  12.674
35184W        W 6767   6.625   0.869  14.818
35185W        W 6768  43.546  32.053   1.616
35186W        W 6769  10.784  20.130   1.752
35187W        W 6770  40.227  22.305   0.950
35188W        W 6771  21.651   0.720  10.987
35189W        W 6772  12.531  27.651  12.463
35190W        W 6773  15.154  14.288   2.903
35191W        W 6774  15.136   9.281  13.460
35192W        W 6775  31.077  11.802  14.020
35193W        W 6776   4.830  14.105   4.607
35194W        W 6777  19.582  38.575  11.538
35195W        W 6778  22.441   0.191   0.829
35196W        W 6779  14.603  18.050  13.499
35197W        W 6780  18.357  38.986   3.263
35198W        W 6781  17.021   6.781  10.978
35199W        W 6782  44.304  38.698  14.251
35200W        W 6783  23.548  39.523  10.526
35201W        W 6784  23.502  37.556   0.004
35202W        W 6785  11.785  24.853   5.032
35203W        W 6786   8.132  33.546  13.548
35204W        W 6787  36.333  22.771   5.236
35205W        W 6788  10.942  16.096   0.398
35206W        W 6789   4.381  34.056   3.796
35207W        W 6790  16.746  27.489  14.948
35208W        W 6791  31.279  26.262  13.123
35209W        W 6792  32.408   5.955  14.983
35210W        W 6793  32.667   5.274   3.629
35211W        W 6794  28.001   1.694  14.507
35212W        W 6795  43.730  42.630   2.871
35213W        W 6796   2.717   9.045   4.666
35214W        W 6797  24.271  35.864   0.873
35215W        W 6798   3.590   4.331   4.148
35216W        W 6799  21.934   0.352  10.744
35217W        W 6800  30.655  13.214  12.565
35218W        W 6801  39.528   6.269   5.051
35219W        W 6802  31.476  31.151   0.171
35220W        W 6803   2.020  39.893  10.914
35221W        W 6804  16.796   1.352   0.611
35222W        W 6805   3.446  27.490  13.376
35223W        W 6806  32.683   5.242   3.108
35224W        W 6807   9.855  12.120   3.243
35225W        W 6808  11.608  27.770   2.720
35226W        W 6809  34.090  27.616  14.447
35227W        W 6810  35.297  40.840  13.808
35228W        W 6811  23.023  21.584   4.550
35229W        W 6812  39.033  17.040  10.265
35230W        W 6813  19.790  20.550  13.858
35231W        W 6814  44.816  13.771  14.808
35232W        W 6815   0.872   7.994  12.585
35233W        W 6816  10.407  12.391   1.291
35234W        W 6817  22.309   9.328  12.037
35235W        W 6818  32.333  10.259  12.557
35236W        W 6819   5.095  22.163  14.762
35237W        W 6820  29.596  31.997   2.746
35238W        W 6821   3.004   3.192  10.942
35239W        W 6822  28.572  17.661  10.465
35240W        W 6823  34.841  16.340   4.218
35241W        W 6824  38.442  20.248   2.147
35242W        W 6825  21.092  19.444  14.496
35243W        W 6826  35.428  19.464   2.121
35244W        W 6827  14.555  27.460  14.989
35245W        W 6828  16.260  32.430  11.911
35246W        W 6829  34.674  43.838   4.120
35247W        W 6830  27.547  23.062  12.304
35248W        W 6831  21.535   9.876  13.423
35249W        W 6832  18.935  22.891  12.099
35250W        W 6833  42.571  12.816   1.148
35251W        W 6834  20.481  19.839  11.054
35252W        W 6835  42.339  17.038  12.914
35253W        W 6836  44.553  36.825   2.335
35254W        W 6837   4.430  37.371  10.742
35255W        W 6838  27.939   6.791  10.093
35256W        W 6839   5.701  26.157  10.443
35257W        W 6840  43.438  37.363  11.217
35258W        W 6841   8.235   2.272  10.837
35259W        W 6842  39.596  28.199   2.313
35260W        W 6843  30.593  18.655  14.560
35261W        W 6844  21.685  23.158   2.355
35262W        W 6845  23.271  41.048  12.808
35263W        W 6846   1.949  21.285   2.237
35264W        W 6847  13.203  19.683  10.270
35265W        W 6848  34.790  18.141   3.704
35266W        W 6849  41.564  35.686  11.442
35267W        W 6850  14.861  37.271   1.902
35268W        W 6851  26.005  15.540   3.756
35269W        W 6852  22.305   0.829   1.503
35270W        W 6853  25.072  16.711  10.774
35271W        W 6854   4.426  10.771   0.544
35272W        W 6855   2.236  29.729  11.466
35273W        W 6856  40.386   9.419  10.391
35274W        W 6857  22.667  20.633  12.159
35275W        W 6858  20.225  22.561   2.649
35276W        W 6859   6.243   1.988  10.266
35277W        W 6860  35.034  21.539   3.176
35278W        W 6861  25.753   9.868   5.403
35279W        W 6862   4.956   6.172  14.992
35280W        W 6863   8.278  22.475  12.607
35281W        W 6864   1.939  23.184  13.460
35282W        W 6865  20.057  37.876  12.018
35283W        W 6866  37.034  38.596  14.391
35284W        W 6867  41.100  24.719  11.711
35285W        W 6868  38.880  20.168   1.435
35286W        W 6869  39.539  31.437   0.826
35287W        W 6870  41.867  17.236   3.684
35288W        W 6871   8.367   2.245  11.329
35289W        W 6872  36.821   5.909  13.415
35290W        W 6873  32.448  25.358   2.716
35291W        W 6874  31.018  33.399   0.893
35292W        W 6875   7.929   1.903  14.021
35293W        W 6876  33.322  38.115  12.127
35294W        W 6877  15.734   2.137   1.021
35295W        W 6878  14.352  32.479   1.506
35296W        W 6879  35.430  43.255  12.876
35297W        W 6880   1.053  39.884   0.967
35298W        W 6881  44.236  37.962   0.403
35299W        W 6882  17.246  23.222   0.985
35300W        W 6883  28.869  30.572  14.803
35301W        W 6884  43.260  25.560  13.987
35302W        W 6885  41.937  13.020   2.764
35303W        W 6886  10.723  35.787   2.256
35304W        W 6887  16.215  25.897   1.443
35305W        W 6888  42.833  32.151   2.956
35306W        W 6889  34.408  36.669   0.724
35307W        W 6890  24.684   3.963   2.058
35308W        W 6891  11.410  13.106  11.536
35309W        W 6892  27.984  36.562   4.347
35310W        W 6893  18.334  14.574   1.745
35311W        W 6894  11.204  12.392   3.329
35312W        W 6895  20.810  17.230  11.084
35313W        W 6896  23.155   7.198   9.986
35314W        W 6897  26.272  33.959  13.577
35315W        W 6898  39.131  39.769   1.338
35316W        W 6899  26.596  42.166  13.355
35317W        W 6900  34.847   2.561   0.445
35318W        W 6901  13.267  21.535   1.995
35319W        W 6902  29.141  12.881  10.824
35320W        W 6903  26.452  42.005  12.421
35321W        W 6904  35.037  37.552   1.644
35322W        W 6905   3.769  11.628   3.812
35323W        W 6906   5.623  40.293  10.648
35324W        W 6907  27.033  29.649   1.665
35325W        W 6908  25.054   4.183  14.273
35326W        W 6909  19.568   5.959   3.636
35327W        W 6910   9.213  23.654   2.213
35328W        W 6911  38.893  35.445   4.312
35329W        W 6912  11.393   1.829   0.233
35330W        W 6913  17.958  37.056   0.318
35331W        W 6914   3.449  33.862   0.340
35332W        W 6915  40.661  42.430   3.292
35333W        W 6916  10.322  33.023   0.200
35334W        W 6917   8.749  30.115   1.661
35335W        W 6918  26.552  38.555  13.751
35336W        W 6919  44.240  13.121  10.770
35337W        W 6920  14.694  20.776   3.389
35338W        W 6921   4.371  44.360  13.733
35339W        W 6922  37.028  24.011   3.191
35340W        W 6923  14.518   3.729  11.194
35341W        W 6924   1.416  37.894  10.713
35342W        W 6925  44.307  31.642   3.612
35343W        W 6926  19.222  20.576  11.234
35344W        W 6927  17.773  24.730   0.245
35345W        W 6928  10.323   2.387  10.151
35346W        W 6929  35.565  30.122  13.568
35347W        W 6930  17.985  39.522   4.039
35348W        W 6931   9.241  17.582   2.234
35349W        W 6932  11.204  28.067   4.541
35350W        W 6933  36.413  41.238  10.756
35351W        W 6934  21.337  26.426  13.436
35352W        W 6935  21.976  21.298  14.015
35353W        W 6936  25.824  25.621   0.872
35354W        W 6937   8.444  18.130  12.350
35355W        W 6938  37.178  14.552  13.504
35356W        W 6939  24.249  24.411   3.600
35357W        W 6940  35.836   8.184  13.009
35358W        W 6941  41.913  41.880   3.856
35359W        W 6942  11.389   4.440   1.828
35360W        W 6943  10.675   2.982   0.024
35361W        W 6944   0.972  13.146   2.869
35362W        W 6945  29.725  12.072   3.791
35363W        W 6946  20.594  30.950   4.644
35364W        W 6947  36.137  12.792   1.349
35365W        W 6948  22.791   8.909  11.117
35366W        W 6949  23.971  33.150  14.988
35367W        W 6950  20.038   2.753   2.339
35368W        W 6951   3.056  30.987  14.522
35369W        W 6952  40.390  28.741  11.852
35370W        W 6953  31.293   2.752  12.508
35371W        W 6954  42.370  29.668  10.387
35372W        W 6955  27.558   1.557   3.673
35373W        W 6956   0.215  15.647   1.588
35374W        W 6957  13.149  20.188   0.162
35375W        W 6958  43.507  28.066   2.275
35376W        W 6959  39.778  37.069  13.583
35377W        W 6960   8.328  40.247   0.173
35378W        W 6961  11.922  37.738  12.356
35379W        W 6962  39.838  17.818  11.069
35380W        W 6963  19.765  21.975  14.499
35381W        W 6964  30.456  17.511   2.686
35382W        W 6965  23.062  14.163   0.190
35383W        W 6966  31.615   8.779   5.123
35384W        W 6967  37.530  12.778  13.828
35385W        W 6968   0.876  13.673   2.810
35386W        W 6969   4.510  30.763  12.938
35387W        W 6970  16.762   0.753   3.889
35388W        W 6971   5.213  36.290   4.637
35389W        W 6972  14.820  13.210  14.512
35390W        W 6973   8.444  23.545  14.861
35391W        W 6974  38.584  21.297  12.929
35392W        W 6975  42.383  30.207  12.576
35393W        W 6976  26.128  33.553  11.469
35394W        W 6977   0.722   9.610   2.465
35395W        W 6978  28.230  25.766  13.055
35396W        W 6979  43.828  20.149   3.448
35397W        W 6980   3.316  11.862  13.875
35398W        W 6981  34.973  21.027   3.755
35399W        W 6982  24.121  43.783  12.059
35400W        W 6983  39.298  39.901  13.800
35401W        W 6984  20.113  43.301  11.274
35402W        W 6985  36.074   4.797   2.313
35403W        W 6986   1.333   1.729  11.231
35404W        W 6987  43.457   8.843   4.728
35405W        W 6988  39.878  30.774   2.880
35406W        W 6989   0.767  10.281   4.578
35407W        W 6990  40.127  12.289   4.088
35408W        W 6991  11.292  14.447   3.354
35409W        W 6992  34.417  40.075   0.923
35410W        W 6993  27.890  27.706   0.412
35411W        W 6994  13.776  43.452   2.745
35412W        W 6995  23.979   6.429  12.630
35413W        W 6996  38.780  38.380   1.468
35414W        W 6997  35.402  32.918   1.318
35415W        W 6998   3.259  30.500   4.582
35416W        W 6999  22.254  26.648   3.268
35417W        W 7000  34.506   3.354   2.406
35418W        W 7001  24.967  25.107   3.702
35419W        W 7002  10.562   0.200   1.383
35420W        W 7003  11.338  25.128   4.406
35421W        W 7004  23.770  44.358  10.805
35422W        W 7005  35.705   8.917  12.050
35423W        W 7006   2.235   3.163  11.437
35424W        W 7007  24.134  15.877   0.718
35425W        W 7008  28.916  34.191   0.153
35426W        W 7009  16.713  18.755  13.072
35427W        W 7010  10.838  38.358   1.413
35428W        W 7011   7.161  34.092   4.688
35429W        W 7012  24.730  36.585   0.509
35430W        W 7013  43.575  18.911   0.418
35431W        W 7014  28.013  40.773  12.956
35432W        W 7015  19.265  33.439  11.622
35433W        W 7016  24.276  14.201   3.201
35434W        W 7017  21.222  43.727   4.397
35435W        W 7018  10.233   8.944   3.872
35436W        W 7019  14.795   3.413   4.598
35437W        W 7020  37.127  41.032  13.444
35438W        W 7021  19.337   7.897   0.069
35439W        W 7022   6.139  38.486   3.928
35440W        W 7023  25.117  20.088  14.314
35441W        W 7024  28.520  22.814  12.478
35442W        W 7025   3.650  29.539   1.104
35443W        W 7026  39.020  25.358   3.730
35444W        W 7027  26.794  34.467  11.562
35445W        W 7028  21.110  28.009  11.451
35446W        W 7029  24.684  40.926   4.894
35447W        W 7030  17.803  43.188  11.752
35448W        W 7031  40.776  18.509  13.413
35449W        W 7032  13.709   3.130   1.797
35450W        W 7033  40.010  42.477  14.626
35451W        W 7034   4.470   5.055   0.614
35452W        W 7035  13.257   1.335   0.260
35453W        W 7036  20.174   9.385  14.518
35454W        W 7037  27.810  43.280  12.862
35455W        W 7038  10.894  10.461  13.226
35456W        W 7039   2.234   0.045  12.423
35457W        W 7040  19.023   3.936   3.214
35458W        W 7041  15.798  28.540  10.424
35459W        W 7042  26.075   9.425   5.378
35460W        W 7043  30.599  23.050   1.421
35461W        W 7044  34.852   2.950   0.904
35462W        W 7045  29.526   2.880   4.721
35463W        W 7046  27.577  29.886   3.171
35464W        W 7047  32.806  20.048   3.375
35465W        W 7048  20.599  29.371   0.410
35466W        W 7049  16.664  28.898  14.763
35467W        W 7050  34.149   9.431   4.585
35468W        W 7051  37.167  35.135  14.889
35469W        W 7052  43.762   8.836   2.650
35470W        W 7053   9.356  17.557  10.339
35471W        W 7054  24.809  34.403   4.225
35472W        W 7055  38.440  10.709   0.830
35473W        W 7056   0.898  40.441   4.640
35474W        W 7057  24.090   0.395  11.194
35475W        W 7058  41.287  26.672   1.369
35476W        W 7059  25.185   8.896  11.687
35477W        W 7060   2.880  21.094   4.040
35478W        W 7061  14.599  14.599   0.318
35479W        W 7062   1.164   8.913  10.908
35480W        W 7063   2.434   5.301  14.949
35481W        W 7064  43.990  13.222   1.000
35482W        W 7065  24.538   5.433   1.812
35483W        W 7066  31.584   7.759  14.809
35484W        W 7067   6.561  28.316  12.477
35485W        W 7068  39.148  20.999  10.217
35486W        W 7069  27.312  20.826   1.417
35487W        W 7070  25.207  15.779  12.178
35488W        W 7071  40.336  30.191   0.437
35489W        W 7072  12.810  21.334  13.192
35490W        W 7073  26.526  13.728  14.857
35491W        W 7074  18.605   4.716   3.227
35492W        W 7075  18.191  29.166   3.220
35493W        W 7076  31.132  26.518  14.511
35494W        W 7077   9.470  26.230  13.357
35495W        W 7078   0.403  11.531   4.583
35496W        W 7079   2.096  15.795   3.223
35497W        W 7080  19.462   5.366   4.196
35498W        W 7081  19.753  24.459  14.927
35499W        W 7082  11.081  25.515   1.402
35500W        W 7083  10.387  33.918   3.125
35501W        W 7084  35.591  21.009   4.804
35502W        W 7085  35.031  24.730  11.587
35503W        W 7086  42.829   4.824   2.246
35504W        W 7087  19.003   5.814  10.254
35505W        W 7088   9.924   5.085   2.924
35506W        W 7089   7.096   1.429  14.521
35507W        W 7090  25.995   6.841  11.870
35508W        W 7091  13.135  19.292  14.942
35509W        W 7092   3.982  13.149   2.899
35510W        W 7093  22.458   7.775   5.313
35511W        W 7094  44.880  23.468   2.460
35512W        W 7095  25.953  10.027  12.152
35513W        W 7096  40.801  43.892   0.669
35514W        W 7097  12.866  15.239   2.216
35515W        W 7098   8.057  43.875  13.785
35516W        W 7099   2.457   0.875   4.132
35517W        W 7100  38.703  21.694   3.091
35518W        W 7101  23.155  33.432  14.443
35519W        W 7102   4.582  20.789   3.723
35520W        W 7103  35.452  16.555   1.602
35521W        W 7104  14.929  22.693   0.425
35522W        W 7105  40.395  22.042   2.867
35523W        W 7106  29.146  39.366   1.828
35524W        W 7107  30.212  10.265   3.888
35525W        W 7108   3.673  28.526  11.386
35526W        W 7109  28.003  26.980  14.683
35527W        W 7110   0.863  19.781   1.441
35528W        W 7111  12.736  26.944  13.196
35529W        W 7112  43.271  11.807   3.221
35530W        W 7113   8.344  30.944   3.927
35531W        W 7114  33.805   8.310   0.650
35532W        W 7115  39.526  41.479   1.160
35533W        W 7116   4.016  10.718   3.634
35534W        W 7117  34.254   1.974  14.264
35535W        W 7118  11.896  22.070  10.928
35536W        W 7119  40.420  42.247   1.929
35537W        W 7120  41.376  40.273   1.227
35538W        W 7121  28.488  10.267  14.976
35539W        W 7122  43.199  23.566  11.296
35540W        W 7123   3.422  16.685   1.290
35541W        W 7124  18.174   9.316  13.142
35542W        W 7125  40.008   4.335  12.746
35543W        W 7126  29.075  25.976   3.651
35544W        W 7127  31.557  32.663   1.430
35545W        W 7128  18.065  41.477  12.601
35546W        W 7129  20.864   6.358   4.620
35547W        W 7130   5.833  23.462  13.872
35548W        W 7131   6.214  36.500   4.803
35549W        W 7132  34.047  29.147  11.993
35550W        W 7133  15.754  18.081   1.786
35551W        W 7134  10.352  43.423   0.198
35552W        W 7135  20.447  13.446  14.841
35553W        W 7136  42.226  15.051   3.172
35554W        W 7137  24.886  25.494   0.019
35555W        W 7138  43.418  26.404  11.482
35556W        W 7139   0.548  39.536   1.935
35557W        W 7140  35.046  11.644  13.404
35558W        W 7141  15.719   0.429  14.029
35559W        W 7142  21.090  10.005   5.460
35560W        W 7143  40.371   4.010  12.547
35561W        W 7144  19.737  37.389   3.237
35562W        W 7145  18.458  44.397  14.515
35563W        W 7146  44.695  17.646   0.814
35564W        W 7147   7.848  27.037   0.420
35565W        W 7148   0.265  17.842  12.091
35566W        W 7149  39.525   1.413   3.829
35567W        W 7150   0.759  43.944   4.644
35568W        W 7151  41.942  44.741  11.636
35569W        W 7152  33.935   3.930   1.086
35570W        W 7153   7.662   3.470   0.749
35571W        W 7154  32.073  42.907  13.629
35572W        W 7155  21.103  30.992   0.856
35573W        W 7156  10.801  18.056  13.833
35574W        W 7157  30.942   7.384   0.821
35575W        W 7158   1.444   8.663   1.415
35576W        W 7159  17.780  35.424  10.617
35577W        W 7160  17.130  42.302   0.683
35578W        W 7161  18.085  22.186   3.201
35579W        W 7162  25.957  26.616  11.675
35580W        W 7163  31.470  37.256  10.755
35581W        W 7164  21.781  37.419  13.977
35582W        W 7165  32.412   6.716   4.115
35583W        W 7166  19.823  18.770   4.747
35584W        W 7167  40.519  32.865   2.396
35585W        W 7168   0.410  10.806  13.487
35586W        W 7169  26.657  11.598   1.259
35587W        W 7170   2.299  36.970  11.587
35588W        W 7171  20.889   1.196  13.848
35589W        W 7172  14.134   2.740   1.010
35590W        W 7173  29.624   3.148  13.116
35591W        W 7174  24.128   8.174   0.552
35592W        W 7175  34.480  44.047   1.925
35593W        W 7176  37.759   2.863  11.403
35594W        W 7177  16.154  42.534   1.399
35595W        W 7178  15.224  24.571   3.276
35596W        W 7179  29.185   6.937  12.030
35597W        W 7180  15.660  35.701  10.691
35598W        W 7181   2.496  43.949   2.226
35599W        W 7182  20.619  36.424   2.434
35600W        W 7183   9.080   6.550  10.249
35601W        W 7184  30.372  33.436  11.579
35602W        W 7185  42.601   3.976   2.865
35603W        W 7186  41.536  31.687   0.589
35604W        W 7187   4.497  14.579  13.281
35605W        W 7188  39.884   0.319   2.748
35606W        W 7189  36.830  39.424  14.980
35607W        W 7190  31.893  42.124  10.418
35608W        W 7191  16.648  42.988   3.332
35609W        W 7192  15.085  39.693  13.783
35610W        W 7193  16.721  30.961   2.018
35611W        W 7194  15.356   7.159   1.580
35612W        W 7195   0.712   2.252  11.603
35613W        W 7196  35.544   1.995   1.161
35614W        W 7197  30.930  10.102  14.980
35615W        W 7198  33.359  31.090   2.761
35616W        W 7199  20.014  41.012   1.037
35617W        W 7200  22.029  20.279   0.438
35618W        W 7201  24.692  34.016   0.193
35619W        W 7202  13.823  17.649   1.839
35620W        W 7203  28.620  35.822  13.554
35621W        W 7204   7.741  17.809  13.379
35622W        W 7205  26.282  11.610  10.199
35623W        W 7206  14.801  14.052   1.169
35624W        W 7207   4.205  23.521  13.531
35625W        W 7208  12.765  19.488  11.417
35626W        W 7209   1.527   0.233  11.100
35627W        W 7210  17.829   0.915  13.121
35628W        W 7211  38.774   3.749  13.156
35629W        W 7212  12.494  39.563  11.039
35630W        W 7213   0.473  18.626   3.748
35631W        W 7214  36.767  36.525  13.998
35632W        W 7215   2.948  28.719  13.926
35633W        W 7216  44.159   5.435  11.447
35634W        W 7217   1.733  31.670   0.541
35635W        W 7218  25.248   2.829  11.909
35636W        W 7219  40.289  34.092  10.531
35637W        W 7220   6.726   1.781   2.186
35638W        W 7221  28.959  26.374  13.483
35639W        W 7222  25.809  34.682   1.252
35640W        W 7223  31.354  22.654   2.913
35641W        W 7224  42.914  14.580  12.627
35642W        W 7225   3.371  25.781  11.684
35643W        W 7226  14.908   5.210  12.102
35644W        W 7227  35.908  17.543   3.205
35645W        W 7228  17.043  19.263  11.553
35646W        W 7229  24.556  31.328  13.877
35647W        W 7230  13.671  29.865  13.685
35648W        W 7231  16.088   2.832  12.967
35649W        W 7232  14.659  31.528   4.236
35650W        W 7233  17.365  24.652  13.415
35651W        W 7234  16.674   8.926   3.356
35652W        W 7235  35.600   3.469   0.910
35653W        W 7236   0.944   7.824  13.086
35654W        W 7237  28.453  18.148   4.926
35655W        W 7238  41.595  39.410  14.318
35656W        W 7239  37.432  39.283   4.180
35657W        W 7240  22.917  36.157   4.130
35658W        W 7241  28.698  12.213  13.399
35659W        W 7242   4.746   4.411  10.385
35660W        W 7243  35.454   8.287  14.324
35661W        W 7244  42.370  23.474  11.591
35662W        W 7245  20.985  42.198  12.865
35663W        W 7246   4.853  44.582   9.944
35664W        W 7247   9.083  25.087  12.493
35665W        W 7248   3.324  41.567   3.135
35666W        W 7249  35.713  22.191  12.408
35667W        W 7250  27.362  29.554  10.601
35668W        W 7251  22.261   1.893  10.715
35669W        W 7252  18.669  23.712  12.047
35670W        W 7253  34.102   5.744   3.130
35671W        W 7254   2.241   0.700  13.919
35672W        W 7255  30.166  13.355   3.950
35673W        W 7256  29.481  23.710   0.321
35674W        W 7257   0.303  37.834  10.667
35675W        W 7258  10.891   9.257   2.815
35676W        W 7259  28.277   6.142   3.199
35677W        W 7260  44.186   3.248   4.714
35678W        W 7261  32.881  39.416   0.250
35679W        W 7262  18.276  13.181  12.298
35680W        W 7263  23.992  23.833   1.849
35681W        W 7264  39.741  42.874   2.558
35682W        W 7265  36.767   2.334  13.388
35683W        W 7266  23.747  30.285  14.959
35684W        W 7267  42.342   0.865  14.728
35685W        W 7268  17.146  21.330   5.008
35686W        W 7269  35.007  35.663  12.528
35687W        W 7270  43.917   6.718  13.510
35688W        W 7271   1.809  12.851  12.407
35689W        W 7272  40.829  41.113   2.281
35690W        W 7273  36.458  28.046  12.528
35691W        W 7274   1.949   4.899   0.068
35692W        W 7275  20.765   9.373  11.015
35693W        W 7276  44.419  19.236   4.402
35694W        W 7277  41.360  24.584  13.061
35695W        W 7278  24.606   0.315   1.639
35696W        W 7279  36.268  25.024   1.331
35697W        W 7280  19.115  22.683  10.324
35698W        W 7281  14.107  32.405   3.216
35699W        W 7282  21.355  29.901   0.924
35700W        W 7283   6.213  34.338   2.863
35701W        W 7284  33.913   2.789   1.279
35702W        W 7285  38.610  17.874  13.547
35703W        W 7286  25.737   5.449  13.799
35704W        W 7287  41.401  41.409  12.413
35705W        W 7288  38.466  10.930   4.350
35706W        W 7289  30.471  43.588  11.073
35707W        W 7290  23.199  30.041  13.481
35708W        W 7291  22.274  38.940  12.532
35709W        W 7292  43.348  44.019  12.978
35710W        W 7293   4.151  12.063   1.948
35711W        W 7294  25.428  40.828   0.916
35712W        W 7295  13.754  34.480  14.391
35713W        W 7296  33.583   6.028  13.047
35714W        W 7297  34.137  22.618  11.537
35715W        W 7298  42.371  41.950  11.652
35716W        W 7299   8.086   3.860  14.444
35717W        W 7300  39.754  19.694   4.005
35718W        W 7301  17.869  13.480   4.197
35719W        W 7302  32.747  11.671   3.218
35720W        W 7303   1.437  25.040   4.562
35721W        W 7304  19.185  17.465  10.959
35722W        W 7305  27.768  27.251   2.329
35723W        W 7306  30.901  12.725  13.418
35724W        W 7307  23.363   5.429  14.408
35725W        W 7308  38.116  30.104   4.353
35726W        W 7309   1.410  36.665  11.927
35727W        W 7310  12.374  32.231   4.687
35728W        W 7311  34.456  18.535   4.634
35729W        W 7312  43.681  27.615   2.928
35730W        W 7313  16.611  42.780   1.300
35731W        W 7314  44.929  17.080  14.749
35732W        W 7315  44.434   9.685  13.992
35733W        W 7316  10.670   5.252  14.323
35734W        W 7317  22.533  12.889  14.682
35735W        W 7318   2.040   6.750   0.363
35736W        W 7319  13.139  12.351  13.094
35737W        W 7320  43.148  36.825   0.441
35738W        W 7321  39.500  30.089   2.198
35739W        W 7322  42.529  36.531  14.957
35740W        W 7323   7.698  13.774   4.557
35741W        W 7324  15.621  36.718   5.184
35742W        W 7325  18.722  32.808  11.103
35743W        W 7326  30.900  41.453   3.275
35744W        W 7327  27.067  12.009   1.723
35745W        W 7328  44.953  43.678  12.525
35746W        W 7329  35.873  11.367  12.080
35747W        W 7330  43.192  33.467   0.843
35748W        W 7331   5.464  21.462  14.352
35749W        W 7332   2.967   0.739   3.955
35750W        W 7333   9.268  37.641   1.440
35751W        W 7334   1.696  13.927   2.895
35752W        W 7335  24.475  25.749   4.159
35753W        W 7336  16.236  25.634   3.418
35754W        W 7337   1.787  12.356   2.714
35755W        W 7338  25.668   2.353  10.836
35756W        W 7339  33.792  16.273  13.032
35757W        W 7340   3.902   9.810  13.927
35758W        W 7341  36.636   4.961   2.343
35759W        W 7342  41.125  40.952   0.368
35760W        W 7343  17.838   8.268   0.781
35761W        W 7344   3.238  35.149   0.988
35762W        W 7345  17.574   3.212  10.767
35763W        W 7346  21.551   7.068   4.982
35764W        W 7347  39.777  30.204   1.250
35765W        W 7348  30.680  14.719  11.476
35766W        W 7349  44.786  18.477  11.560
35767W        W 7350   8.578   6.322  14.820
35768W        W 7351   5.454   2.993  11.179
35769W        W 7352  39.629  17.589   4.085
35770W        W 7353  24.157  39.439  11.296
35771W        W 7354  10.176  41.203  11.069
35772W        W 7355  10.746  17.712  14.420
35773W        W 7356  23.219   7.592   1.276
35774W        W 7357  42.455   8.636  13.405
35775W        W 7358  18.758   4.261   2.302
35776W        W 7359  10.765   7.977  11.999
35777W        W 7360  10.778  32.954  13.027
35778W        W 7361  21.650   7.379  12.828
35779W        W 7362   4.326  42.255   2.734
35780W        W 7363  42.258  25.013  11.234
35781W        W 7364  36.508  32.888   2.698
35782W        W 7365  29.533  26.241  13.130
35783W        W 7366  30.950  35.942   3.752
35784W        W 7367  12.323  19.240  11.578
35785W        W 7368   1.305   8.103  14.498
35786W        W 7369  37.569   0.452  10.176
35787W        W 7370  11.250   3.202   0.361
35788W        W 7371  10.248  24.154  12.086
35789W        W 7372  11.564  41.237   3.337
35790W        W 7373  14.427  37.390   1.653
35791W        W 7374  41.440  43.522  11.560
35792W        W 7375   3.229  36.518   0.708
35793W        W 7376  40.886  31.968  10.652
35794W        W 7377   0.214   1.886   3.298
35795W        W 7378  17.654  26.808  10.957
35796W        W 7379  18.512  37.904   1.899
35797W        W 7380  28.459  15.314   3.755
35798W        W 7381  23.268  36.425   1.369
35799W        W 7382   9.269  29.047   1.825
35800W        W 7383  19.109   4.687  10.719
35801W        W 7384  27.481  10.456   3.164
35802W        W 7385  34.945  27.776   3.130
35803W        W 7386  24.607  26.544   0.327
35804W        W 7387  34.275  35.101   0.367
35805W        W 7388  26.940  25.990   0.801
35806W        W 7389  20.493   2.318   1.241
35807W        W 7390  24.667   0.921   1.813
35808W        W 7391  29.094   0.383  11.604
35809W        W 7392   1.807  40.307   0.289
35810W        W 7393   1.291   1.213  11.430
35811W        W 7394   4.865  18.686  11.705
35812W        W 7395   3.761   6.340   4.108
35813W        W 7396   5.622  19.205   0.578
35814W        W 7397  39.594  29.147  10.616
35815W        W 7398  16.629  42.373  11.635
35816W        W 7399  39.651  36.537   4.643
35817W        W 7400  36.745   1.806   2.531
35818W        W 7401  17.261  25.750  10.627
35819W        W 7402  25.184  28.203  14.850
35820W        W 7403   3.681  42.388  10.768
35821W        W 7404  31.868  28.569  13.314
35822W        W 7405  33.228   2.809  14.189
35823W        W 7406  35.505  44.065  14.825
35824W        W 7407  30.419  36.970   2.859
35825W        W 7408  17.996  36.760   3.167
35826W        W 7409   5.327  13.528  11.583
35827W        W 7410  21.471  22.234  13.019
35828W        W 7411  25.187  21.094  13.476
35829W        W 7412  10.835  35.672   3.209
35830W        W 7413  20.816   8.539  12.183
35831W        W 7414  16.722  38.899  11.664
35832W        W 7415  37.158  20.575   4.703
35833W        W 7416  40.386  32.663   4.464
35834W        W 7417  41.023   0.191  12.408
35835W        W 7418  15.084  27.912  13.335
35836W        W 7419   1.726  21.026   3.183
35837W        W 7420  38.158  30.492  10.607
35838W        W 7421   6.650  11.272  14.036
35839W        W 7422  37.377   9.979  11.508
35840W        W 7423  21.239  17.696   2.626
35841W        W 7424  12.271   3.362   2.853
35842W        W 7425  29.523  13.609  11.180
35843W        W 7426   8.432   0.281   0.706
35844W        W 7427  19.973  17.142  11.514
35845W        W 7428  37.648   2.738   4.225
35846W        W 7429   7.188  30.102   2.818
35847W        W 7430   4.831  37.087  10.573
35848W        W 7431  15.543  40.305   1.432
35849W        W 7432   1.508  15.769   2.329
35850W        W 7433  16.236   3.407   5.235
35851W        W 7434  11.160  41.270   0.292
35852W        W 7435  33.076  31.378   4.708
35853W        W 7436  10.762  23.070  12.006
35854W        W 7437  20.546  17.310   4.968
35855W        W 7438   2.760  28.953  14.438
35856W        W 7439  30.041  24.461  10.723
35857W        W 7440  16.653  44.370   2.476
35858W        W 7441  44.794   0.760   4.540
35859W        W 7442  31.603  39.960   1.415
35860W        W 7443  31.224  16.330   2.551
35861W        W 7444   8.403  35.725   1.288
35862W        W 7445  40.904  29.711  14.741
35863W        W 7446  21.989  31.112   2.308
35864W        W 7447  15.618  14.510   3.028
35865W        W 7448  27.113   7.647   1.288
35866W        W 7449  23.611  29.055   1.888
35867W        W 7450  26.942   3.227  12.951
35868W        W 7451  20.439  40.237  12.917
35869W        W 7452   7.821  28.663  12.950
35870W        W 7453  26.990  21.208   2.922
35871W        W 7454   8.931  15.096  11.076
35872W        W 7455  30.993  30.634   0.715
35873W        W 7456  12.703   3.079   2.954
35874W        W 7457   6.750  37.799   4.115
35875W        W 7458  19.524  16.563   0.165
35876W        W 7459  37.484  37.335   1.683
35877W        W 7460  32.128   6.246  14.362
35878W        W 7461  36.555  35.439  10.486
35879W        W 7462   4.055  19.255  12.763
35880W        W 7463  34.959  25.572  10.503
35881W        W 7464  22.766  29.982   2.701
35882W        W 7465  28.240  22.505  14.438
35883W        W 7466  35.965  10.651   1.939
35884W        W 7467   1.951   6.407  14.567
35885W        W 7468  38.386  22.602   0.079
35886W        W 7469  20.543  28.671  13.544
35887W        W 7470  10.124  25.383  13.978
35888W        W 7471  23.753  37.081   2.313
35889W        W 7472  18.034  26.524   4.632
35890W        W 7473  41.008  43.942   2.935
35891W        W 7474  31.998  10.769   0.236
35892W        W 7475  19.644   8.225   5.049
35893W        W 7476  32.493  17.509   3.285
35894W        W 7477  43.401  44.751   1.486
35895W        W 7478  14.178  31.115   0.946
35896W        W 7479  34.629  23.978  14.766
35897W        W 7480  26.671   8.363  11.848
35898W        W 7481   2.492   5.725   2.501
35899W        W 7482   0.362  35.335  13.406
35900W        W 7483  27.981   4.369   3.864
35901W        W 7484  26.645  41.479   3.729
35902W        W 7485  16.634  42.022  13.894
35903W        W 7486  40.752  42.940  13.666
35904W        W 7487  38.398  15.015   1.184
35905W        W 7488  40.480  25.966   2.335
35906W        W 7489  29.100  14.272   4.926
35907W        W 7490  39.838   7.297  11.342
35908W        W 7491  17.826  10.246  12.849
35909W        W 7492  40.889  37.768   4.184
35910W        W 7493  22.000  23.299   2.775
35911W        W 7494  24.709  34.689  12.477
35912W        W 7495  34.080  12.567  13.745
35913W        W 7496  38.469  21.289   4.660
35914W        W 7497  42.333  40.171  11.125
35915W        W 7498  24.296   8.741  12.851
35916W        W 7499  42.259  26.697  13.919
35917W        W 7500  20.711  38.530  13.964
35918W        W 7501  17.710   6.218   1.979
35919W        W 7502  18.475  36.999   0.298
35920W        W 7503  30.624  25.437  12.591
35921W        W 7504  42.580  23.000  13.836
35922W        W 7505   6.333  20.383  14.865
35923W        W 7506  35.353  10.255   2.239
35924W        W 7507   6.113   3.010  14.948
35925W        W 7508   1.181  29.545   0.644
35926W        W 7509  33.977  32.792  14.829
35927W        W 7510   9.108  16.465  11.594
35928W        W 7511   4.883  40.025  11.204
35929W        W 7512  11.351  24.910  11.133
35930W        W 7513  42.891  13.078   2.896
35931W        W 7514   8.960  14.592  10.956
35932W        W 7515  11.826   1.221  11.122
35933W        W 7516  18.051   7.717  14.507
35934W        W 7517  44.464   9.085   4.555
35935W        W 7518   0.893  15.078  14.457
35936W        W 7519  17.864  10.881  14.389
35937W        W 7520  27.649  24.666   1.548
35938W        W 7521   3.564  44.305   0.828
35939W        W 7522  24.841  29.055  10.589
35940W        W 7523  28.155  32.643   1.913
35941W        W 7524   1.309  18.985   3.188
35942W        W 7525  42.468  22.103   2.779
35943W        W 7526  17.362  11.643  11.109
35944W        W 7527   2.743  31.729   5.003
35945W        W 7528  12.350  33.595   4.393
35946W        W 7529  38.504  19.172   2.884
35947W        W 7530   3.807   0.331   4.425
35948W        W 7531  27.324   9.831   4.223
35949W        W 7532  27.169  22.616  13.757
35950W        W 7533  38.887  29.215  11.024
35951W        W 7534  14.777  23.940  14.838
35952W        W 7535   5.711  14.932   0.365
35953W        W 7536  39.763  28.201  10.975
35954W        W 7537  25.623  27.281   4.744
35955W        W 7538  32.243  30.562  13.873
35956W        W 7539  25.560   4.728  11.159
35957W        W 7540  15.895  25.803   5.260
35958W        W 7541  43.055  41.456   4.138
35959W        W 7542  27.540  35.844  14.944
35960W        W 7543  22.532  27.219  13.402
35961W        W 7544  36.536  11.533  14.273
35962W        W 7545   1.756  38.826  12.068
35963W        W 7546   2.780  35.312   1.367
35964W        W 7547  30.413  37.923   4.307
35965W        W 7548   4.224  31.794   0.724
35966W        W 7549   5.212   8.310   1.182
35967W        W 7550  20.445  21.795   3.828
35968W        W 7551  43.439  36.871   4.606
35969W        W 7552  12.097   9.132  12.406
35970W        W 7553  19.042   9.588   2.757
35971W        W 7554  21.506  21.820  11.071
35972W        W 7555   7.482  27.017   2.811
35973W        W 7556  30.210  15.184   0.488
35974W        W 7557   3.217  35.526  13.144
35975W        W 7558   5.857  15.533   3.399
35976W        W 7559   2.018   4.210  13.341
35977W        W 7560  25.098   0.757  12.672
35978W        W 7561  27.543  27.989  13.012
35979W        W 7562  30.677  44.314  10.789
35980W        W 7563   3.562  36.426  11.080
35981W        W 7564  27.972  38.891   0.615
35982W        W 7565  16.173  42.358  14.616
35983W        W 7566   9.944  39.014  12.961
35984W        W 7567  11.487  15.288  12.091
35985W        W 7568  17.692   3.061   0.773
35986W        W 7569  32.064  41.511   4.194
35987W        W 7570  27.420  30.356  11.498
35988W        W 7571  18.331  13.250   4.498
35989W        W 7572  35.472  27.225  13.113
35990W        W 7573   4.552   6.348  12.490
35991W        W 7574  31.907  33.392  12.467
35992W        W 7575  16.734  35.388  11.914
35993W        W 7576  31.370  38.827  14.823
35994W        W 7577  12.217  36.070  11.160
35995W        W 7578  21.744   6.761  10.739
35996W        W 7579  34.061  12.399   4.698
35997W        W 7580  15.865   5.840   1.910
35998W        W 7581  11.778  32.966  12.684
35999W        W 7582  22.239   5.794   1.823
36000W        W 7583  31.165   4.283  10.838
36001W        W 7584   3.767   1.304   1.034
36002W        W 7585  32.008  28.067   3.049
36003W        W 7586  30.552   5.860   0.006
36004W        W 7587   4.215   7.733   0.878
36005W        W 7588  24.549   5.306  11.377
36006W        W 7589  18.005  19.929   1.469
36007W        W 7590  11.549   9.308  13.774
36008W        W 7591  22.588  20.314  12.987
36009W        W 7592  33.450   0.756   4.369
36010W        W 7593  20.974   7.661   0.704
36011W        W 7594  33.934  21.106   3.855
36012W        W 7595  21.446  13.278   4.706
36013W        W 7596  34.689   4.296   2.370
36014W        W 7597  35.389  16.621  12.967
36015W        W 7598  15.632  27.019   2.799
36016W        W 7599  15.826  33.450   3.155
36017W        W 7600  19.277  22.439   3.801
36018W        W 7601  17.840  29.842   0.885
36019W        W 7602  40.925  39.503   3.774
36020W        W 7603  31.781   3.398   5.016
36021W        W 7604  27.388   7.212   1.204
36022W        W 7605   0.684   0.772   0.356
36023W        W 7606   4.350  29.051   0.560
36024W        W 7607  23.417  20.748  14.271
36025W        W 7608  22.896  14.012  12.965
36026W        W 7609   5.382  30.353  13.030
36027W        W 7610  43.071  21.242  12.475
36028W        W 7611  44.743  43.783   3.694
36029W        W 7612  25.108   4.879  10.948
36030W        W 7613   4.064  13.632  12.976
36031W        W 7614   7.255  12.613  10.580
36032W        W 7615  40.603   9.582  12.365
36033W        W 7616  36.307  40.458   3.163
36034W        W 7617  31.520  17.774   1.468
36035W        W 7618  24.659  10.761   5.001
36036W        W 7619   4.723  31.024  14.654
36037W        W 7620  27.682  44.085  11.940
36038W        W 7621  34.969   2.290  12.759
36039W        W 7622  44.340  32.203  10.833
36040W        W 7623  41.479  44.971  11.549
36041W        W 7624  42.690  41.959  13.583
36042W        W 7625  31.609  26.469  10.110
36043W        W 7626  38.333  22.288   2.144
36044W        W 7627  44.415  13.852  13.019
36045W        W 7628  28.691  29.648  11.617
36046W        W 7629  34.427  24.589   3.607
36047W        W 7630  23.533  16.836   2.633
36048W        W 7631  33.669   1.695  11.961
36049W        W 7632  44.484  20.422   1.342
36050W        W 7633  33.208  10.587   3.347
36051W        W 7634  37.093   0.289  10.405
36052W        W 7635  41.886  23.993  12.540
36053W        W 7636  15.634  18.600   4.265
36054W        W 7637  39.425  17.136   3.922
36055W        W 7638   4.722  41.580   3.191
36056W        W 7639  18.268  21.761  11.523
36057W        W 7640  37.471   6.270  14.472
36058W        W 7641  38.943   7.301   1.271
36059W        W 7642   6.648  19.653  11.196
36060W        W 7643  19.141  15.109  11.993
36061W        W 7644   7.871   1.072   1.857
36062W        W 7645   2.771  32.899   0.764
36063W        W 7646  26.235  35.478   1.904
36064W        W 7647  19.638  14.325   3.298
36065W        W 7648   1.594  36.039  13.479
36066W        W 7649  30.081   4.347   2.770
36067W        W 7650  11.809   6.799   3.813
36068W        W 7651  44.971   7.701   1.632
36069W        W 7652  10.361  11.156   4.222
36070W        W 7653  30.337  28.911  13.800
36071W        W 7654  10.514  24.045   3.693
36072W        W 7655  32.954  31.414  11.642
36073W        W 7656  17.760  38.978  12.537
36074W        W 7657  34.603  13.297   3.394
36075W        W 7658  16.323  20.712  12.030
36076W        W 7659  15.464  16.876  11.517
36077W        W 7660   2.743   6.352   0.845
36078W        W 7661  30.354   6.237  13.233
36079W        W 7662  32.615   9.007  13.852
36080W        W 7663   7.237  44.730   2.777
36081W        W 7664  44.946  10.700   3.517
36082W        W 7665  42.831   2.720  13.077
36083W        W 7666  23.187   9.330   3.746
36084W        W 7667  32.101  44.242  12.901
36085W        W 7668  16.589  10.271  13.272
36086W        W 7669  10.409  26.742   0.388
36087W        W 7670  39.040  10.642  10.391
36088W        W 7671  16.166  28.172  14.104
36089W        W 7672  38.289  23.733   2.793
36090W        W 7673  39.776  38.986   2.309
36091W        W 7674  15.645   4.426   1.079
36092W        W 7675  19.160  39.305  13.039
36093W        W 7676  31.569  24.075  10.903
36094W        W 7677  12.965   4.284   3.287
36095W        W 7678  22.983  33.645  12.966
36096W        W 7679  24.110  32.632  14.960
36097W        W 7680  36.331  37.518  10.170
36098W        W 7681  37.870  19.796  12.913
36099W        W 7682   4.477  36.443   4.309
36100W        W 7683  28.173  27.074  11.872
36101W        W 7684   9.304  12.128   2.850
36102W        W 7685  12.703   7.828   3.772
36103W        W 7686  13.722  35.987  14.682
36104W        W 7687  21.483  10.795   1.306
36105W        W 7688  23.087   9.803   3.552
36106W        W 7689  26.039   4.190  14.409
36107W        W 7690  39.482   3.451  14.259
36108W        W 7691  29.919  16.044   3.213
36109W        W 7692  14.340   3.325   1.847
36110W        W 7693  40.388  38.257   0.325
36111W        W 7694   4.005  26.979   3.252
36112W        W 7695  11.207   2.806  12.722
36113W        W 7696  13.758  26.602  14.353
36114W        W 7697   7.729  21.591   4.110
36115W        W 7698  40.388  14.878  12.103
36116W        W 7699  17.661  39.474   2.152
36117W        W 7700   0.056  18.277  13.195
36118W        W 7701  35.818  41.932  12.513
36119W        W 7702  42.120  27.161  14.686
36120W        W 7703   4.770   5.344   4.401
36121W        W 7704   4.840   0.809  10.713
36122W        W 7705  44.910  24.587  14.819
36123W        W 7706  17.776  16.790  13.549
36124W        W 7707  19.789  27.556  13.563
36125W        W 7708  38.744  16.878   2.880
36126W        W 7709  35.025   6.456  10.957
36127W        W 7710  26.339  28.691  11.624
36128W        W 7711  44.801  38.027   2.832
36129W        W 7712  31.471  39.961   3.221
36130W        W 7713  31.120  23.034  12.149
36131W        W 7714  30.488  11.066   2.252
36132W        W 7715   8.612  32.339  11.456
36133W        W 7716  16.779  42.380  13.387
36134W        W 7717  11.659  35.841  12.022
36135W        W 7718   9.868  20.701  14.241
36136W        W 7719  29.507  19.615  14.339
36137W        W 7720  12.967  27.457   2.983
36138W        W 7721  29.483   6.165  12.124
36139W        W 7722   4.723   6.903   4.916
36140W        W 7723  27.217   6.689   3.653
36141W        W 7724  26.748  31.031  10.668
36142W        W 7725  12.640  19.706   0.029
36143W        W 7726  11.769  36.906   2.408
36144W        W 7727   4.799  25.976  11.940
36145W        W 7728  10.250   0.356  13.114
36146W        W 7729  44.316  28.852   4.070
36147W        W 7730  33.015  39.569  10.748
36148W        W 7731  33.083   0.255  13.461
36149W        W 7732  28.449   5.388   2.741
36150W        W 7733   6.766  36.578  11.595
36151W        W 7734  16.966  27.024  13.867
36152W        W 7735  15.334  12.591   1.331
36153W        W 7736  35.957   6.825   3.608
36154W        W 7737  39.107   5.159  13.517
36155W        W 7738  16.625  37.307   1.123
36156W        W 7739  35.472   0.070  14.897
36157W        W 7740  21.639  39.398   1.420
36158W        W 7741   3.276  13.649   0.300
36159W        W 7742  37.882  35.176   0.822
36160W        W 7743  35.250  20.575  11.607
36161W        W 7744  15.188   1.503   2.173
36162W        W 7745  13.200  26.461  11.917
36163W        W 7746  39.183  30.611   4.973
36164W        W 7747   3.831   2.559   3.657
36165W        W 7748  35.604   4.329  11.967
36166W        W 7749  39.807   0.859   0.346
36167W        W 7750  24.206  40.245   1.205
36168W        W 7751  21.461  27.768  10.092
36169W        W 7752  43.339  33.503  10.799
36170W        W 7753   5.487  13.135  10.814
36171W        W 7754  12.480  27.391   1.482
36172W        W 7755  11.679  12.672   3.300
36173W        W 7756  26.552  38.094  10.237
36174W        W 7757  15.653  10.187  11.350
36175W        W 7758  35.820  44.129   2.401
36176W        W 7759  40.353  43.054   3.699
36177W        W 7760  36.543  31.979   1.423
36178W        W 7761   1.230   3.774   4.619
36179W        W 7762  41.281  28.169  13.027
36180W        W 7763  26.408   4.966  13.421
36181W        W 7764  23.790  33.878   2.976
36182W        W 7765  43.407  13.342   4.219
36183W        W 7766  11.875  25.994   2.354
36184W        W 7767  15.644   2.607   0.645
36185W        W 7768  33.490  28.463   1.756
36186W        W 7769  35.321   3.853  12.991
36187W        W 7770  14.731  37.490  11.551
36188W        W 7771  29.968  16.816   0.298
36189W        W 7772   0.253  37.983  14.849
36190W        W 7773  14.086   2.781  14.250
36191W        W 7774  39.778  41.953  12.039
36192W        W 7775  21.237  10.661   0.844
36193W        W 7776   1.005   7.181   0.269
36194W        W 7777  29.241  39.902   1.534
36195W        W 7778  15.243  21.227  13.282
36196W        W 7779  23.553   8.162   0.362
36197W        W 7780  13.307  35.025  14.888
36198W        W 7781  25.450   2.442  11.654
36199W        W 7782  16.198   0.758   3.207
36200W        W 7783  32.982  22.159  13.780
36201W        W 7784  38.025  10.250  11.909
36202W        W 7785  40.929  31.251  11.492
36203W        W 7786  12.608  30.604   3.124
36204W        W 7787  26.105  15.114   0.910
36205W        W 7788  38.484  28.413  14.478
36206W        W 7789   4.437   3.875   3.261
36207W        W 7790   6.717   8.373  13.919
36208W        W 7791  16.763  13.952  10.704
36209W        W 7792  19.428  23.465  11.467
36210W        W 7793   1.354  11.621   3.756
36211W        W 7794  44.270  38.709  11.655
36212W        W 7795  30.748  44.472   1.308
36213W        W 7796  10.726  40.480  11.154
36214W        W 7797   9.922  44.508   0.326
36215W        W 7798  43.817  13.796  11.889
36216W        W 7799  12.389  41.517   3.241
36217W        W 7800   1.278   1.064   0.330
36218W        W 7801  37.515  15.100  13.896
36219W        W 7802   6.145  41.360   3.356
36220W        W 7803  21.634  23.665  14.178
36221W        W 7804  31.076  25.849   3.347
36222W        W 7805  31.556  11.201  13.449
36223W        W 7806   4.893  21.507  10.802
36224W        W 7807   2.257   9.297   3.092
36225W        W 7808  41.142  37.948   4.661
36226W        W 7809  41.291  23.603   4.797
36227W        W 7810  13.219  34.420   1.697
36228W        W 7811  21.666  39.467   3.392
36229W        W 7812  17.636  23.700   4.174
36230W        W 7813  18.412  10.402   2.736
36231W        W 7814  13.756  17.659  14.227
36232W        W 7815  15.098   0.677  11.898
36233W        W 7816  18.576  25.616  14.116
36234W        W 7817   7.857  24.192   4.134
36235W        W 7818  41.400  37.627   5.053
36236W        W 7819   1.902  17.909  10.693
36237W        W 7820  15.511  20.759  10.728
36238W        W 7821  37.328  15.837   2.196
36239W        W 7822  19.369  33.875  12.113
36240W        W 7823  13.532  42.790  14.789
36241W        W 7824  10.809   2.746  14.023
36242W        W 7825  25.128   3.269  10.776
36243W        W 7826  25.887  42.833  14.068
36244W        W 7827  19.160  10.378   2.305
36245W        W 7828  19.479   8.178  11.678
36246W        W 7829  44.030  16.600   1.450
36247W        W 7830  42.043  25.142   4.028
36248W        W 7831  21.094  12.027   3.141
36249W        W 7832  40.510  31.096   1.301
36250W        W 7833  14.835  30.410   1.251
36251W        W 7834  35.221  12.316   2.224
36252W        W 7835  27.032  37.837   0.245
36253W        W 7836  17.838  30.173   1.836
36254W        W 7837  23.756  34.770   4.872
36255W        W 7838  30.168  19.264   1.672
36256W        W 7839  44.253  29.099   1.859
36257W        W 7840  13.089  11.685   5.036
36258W        W 7841  12.272  24.350   2.570
36259W        W 7842  31.087  29.991   3.877
36260W        W 7843  41.517  31.675   4.180
36261W        W 7844  33.516  27.894   3.118
36262W        W 7845  24.186  35.053   4.621
36263W        W 7846   6.354  38.388  12.011
36264W        W 7847  37.152   5.195   1.424
36265W        W 7848  26.004  32.854   2.855
36266W        W 7849  42.873   5.564   3.342
36267W        W 7850   7.192  35.114   4.712
36268W        W 7851  15.851   2.820  14.874
36269W        W 7852  41.331  11.422   1.035
36270W        W 7853  44.785  17.236  13.343
36271W        W 7854  28.479   4.390   3.535
36272W        W 7855  23.173   9.241   3.196
36273W        W 7856  36.586  24.189  14.863
36274W        W 7857  20.779  20.510   0.879
36275W        W 7858  42.211  41.531  11.899
36276W        W 7859  12.246  36.031  12.661
36277W        W 7860   0.339  33.473  13.417
36278W        W 7861  40.620   7.748   4.674
36279W        W 7862  41.736  25.031  13.100
36280W        W 7863  27.983   1.700   2.686
36281W        W 7864  11.727  27.447   4.264
36282W        W 7865   9.798  17.889   0.071
36283W        W 7866  33.513  14.125  10.759
36284W        W 7867  42.429  37.985  11.602
36285W        W 7868   4.800  20.666  10.956
36286W        W 7869  10.207  35.520  14.634
36287W        W 7870   8.668  25.524   3.477
36288W        W 7871  41.831  20.242  13.593
36289W        W 7872  40.744   9.414   2.548
36290W        W 7873   7.303  35.056  14.902
36291W        W 7874   9.345  18.638   4.487
36292W        W 7875   3.454   5.767   0.790
36293W        W 7876  22.247  42.486   1.869
36294W        W 7877   5.418  38.617   5.015
36295W        W 7878  23.571  32.539  11.492
36296W        W 7879  41.501   5.642  12.225
36297W        W 7880  25.823  18.552  12.547
36298W        W 7881  36.414  17.744  11.409
36299W        W 7882  27.256  20.023   1.726
36300W        W 7883  22.651  29.946   0.909
36301W        W 7884  37.407  22.189   2.964
36302W        W 7885  41.410  37.285   4.656
36303W        W 7886  10.797   0.013   1.830
36304W        W 7887   4.283   4.793  13.373
36305W        W 7888  34.935  18.759  11.541
36306W        W 7889  21.066  15.579  10.667
36307W        W 7890  27.006  18.761  14.887
36308W        W 7891  14.347  24.041  11.971
36309W        W 7892   5.899  30.460   3.045
36310W        W 7893  12.636  17.349   1.021
36311W        W 7894  28.562  41.441   3.229
36312W        W 7895  23.479  27.582   2.701
36313W        W 7896  36.948  12.061  13.083
36314W        W 7897  19.144  34.817  12.108
36315W        W 7898  40.939  21.677  10.529
36316W        W 7899   3.955   2.961  12.841
36317W        W 7900  34.165  26.440   0.845
36318W        W 7901  41.980   4.194   2.334
36319W        W 7902  28.384  23.731   4.187
36320W        W 7903  29.212  31.926  12.534
36321W        W 7904  11.481  33.144  11.525
36322W        W 7905   5.253  15.561  12.950
36323W        W 7906  43.793  14.097  14.432
36324W        W 7907   9.847   4.704  12.877
36325W        W 7908  14.613  42.322  11.155
36326W        W 7909  22.189  31.116  10.955
36327W        W 7910  43.582  38.172   2.334
36328W        W 7911  35.093  44.109   4.036
36329W        W 7912  34.691  40.242   4.949
36330W        W 7913  18.581  20.113   0.247
36331W        W 7914  32.575  23.188  11.051
36332W        W 7915  11.281  39.633   1.715
36333W        W 7916  35.930  31.374  14.417
36334W        W 7917  14.722  38.053   2.232
36335W        W 7918  11.327  20.694   2.918
36336W        W 7919  40.916  16.247   1.846
36337W        W 7920  42.939  41.866  12.723
36338W        W 7921  38.396  12.721  12.427
36339W        W 7922   1.335  41.506  13.441
36340W        W 7923  10.302  26.291   2.819
36341W        W 7924  20.113  22.743  13.939
36342W        W 7925  24.121  15.102   3.955
36343W        W 7926  17.747  12.725  13.285
36344W        W 7927   7.863   8.623   3.703
36345W        W 7928  36.360   0.303   1.840
36346W        W 7929  14.405  41.989   1.498
36347W        W 7930  23.232   8.771  14.909
36348W        W 7931  33.739  34.073  13.280
36349W        W 7932  29.224  17.131   2.300
36350W        W 7933  29.579  44.765  13.279
36351W        W 7934  36.938  16.134   0.312
36352W        W 7935  22.698  41.960   2.307
36353W        W 7936  16.610  35.843  14.791
36354W        W 7937  42.847   1.042   3.692
36355W        W 7938  31.502  18.549   3.282
36356W        W 7939  12.685  16.336   3.501
36357W        W 7940  10.823  22.291  12.436
36358W        W 7941  39.469  27.205  12.151
36359W        W 7942   8.560  10.078   0.875
36360W        W 7943  29.857  29.236  10.760
36361W        W 7944  29.607   7.257   2.653
36362W        W 7945  33.031  22.647  10.548
36363W        W 7946  37.083  24.440   1.616
36364W        W 7947  19.555  27.803   3.034
36365W        W 7948   4.172  20.758   0.318
36366W        W 7949  28.633   4.243  14.902
36367W        W 7950   6.277  36.427  11.391
36368W        W 7951  21.832  23.423   4.828
36369W        W 7952   1.597  10.702  13.377
36370W        W 7953  32.474  10.813   4.569
36371W        W 7954   4.168  19.651  11.153
36372W        W 7955  23.275  28.072   2.822
36373W        W 7956  37.943  16.190  10.990
36374W        W 7957  36.995  21.125  11.097
36375W        W 7958   4.397  36.949  12.964
36376W        W 7959  31.228  17.216  12.389
36377W        W 7960  43.534  22.766  11.503
36378W        W 7961  36.045   3.187   2.288
36379W        W 7962  15.008   0.211   2.762
36380W        W 7963   9.439  28.106   4.955
36381W        W 7964  44.529  39.546   3.574
36382W        W 7965  25.736  24.788  12.503
36383W        W 7966  25.560   0.770   4.246
36384W        W 7967  34.310  33.483   3.313
36385W        W 7968  42.589  24.845  11.969
36386W        W 7969  12.798  29.258  13.887
36387W        W 7970  25.859  16.562   0.990
36388W        W 7971   4.329  15.087  11.079
36389W        W 7972   8.524  32.136  13.321
36390W        W 7973  26.986  19.255   3.153
36391W        W 7974   3.325  19.336  13.023
36392W        W 7975  29.198  22.267   4.343
36393W        W 7976  43.389  10.198  14.367
36394W        W 7977  23.528   5.309   3.710
36395W        W 7978   3.264  34.865  13.301
36396W        W 7979  29.168  35.025   4.486
36397W        W 7980   5.508  17.326   0.393
36398W        W 7981  16.434  10.413   2.582
36399W        W 7982   4.250  35.950   0.543
36400W        W 7983  14.159  21.551   1.904
36401W        W 7984  25.157  31.617   4.415
36402W        W 7985  41.289  38.918   1.466
36403W        W 7986  15.295  36.973  12.756
36404W        W 7987  43.204  41.472  10.539
36405W        W 7988  35.934   0.278   2.672
36406W        W 7989  13.577  40.481  14.451
36407W        W 7990  41.319  36.639   0.358
36408W        W 7991  28.949   0.232  13.378
36409W        W 7992  30.551  37.420  10.735
36410W        W 7993   8.715  18.023  11.103
36411W        W 7994  20.420   5.663  14.457
36412W        W 7995  43.399  27.834  12.947
36413W        W 7996  36.010  27.632   3.273
36414W        W 7997  18.195  27.890  10.768
36415W        W 7998   8.337  39.011   3.676
36416W        W 7999  41.933   1.920   4.572
36417W        W 8000   3.594  21.445  14.908
36418W        W 8001  36.883  18.329   1.887
36419W        W 8002  18.919  43.317   4.213
36420W        W 8003  39.117   7.836  10.594
36421W        W 8004  38.842  13.002  13.870
36422W        W 8005  10.760  32.044   4.270
36423W        W 8006  35.929  30.668  14.080
36424W        W 8007  16.835  15.291  11.516
36425W        W 8008   7.207   9.811   2.262
36426W        W 8009  39.487  27.354   3.760
36427W        W 8010   2.936  30.216  14.843
36428W        W 8011  42.444  11.838   4.116
36429W        W 8012  35.346  33.617   3.283
36430W        W 8013  26.995  30.881  11.081
36431W        W 8014  20.484  10.065  10.620
36432W        W 8015  24.016  42.963  13.252
36433W        W 8016   7.477  21.722  12.917
36434W        W 8017  44.659  34.672   0.751
36435W        W 8018  18.080   3.427  13.723
36436W        W 8019  12.056  10.885   2.466
36437W        W 8020  14.167   2.308   0.646
36438W        W 8021  43.395  19.505  13.884
36439W        W 8022  41.354  34.694  12.491
36440W        W 8023  39.807   1.796   1.197
36441W        W 8024   5.273  15.177  10.462
36442W        W 8025  43.431   2.863   0.165
36443W        W 8026  43.240  35.623   0.448
36444W        W 8027  43.979  40.285   3.329
36445W        W 8028   9.330   1.780   0.748
36446W        W 8029   0.904  25.060  13.065
36447W        W 8030  44.645  23.517   3.745
36448W        W 8031  13.339  14.652   2.455
36449W        W 8032   4.431  12.058   0.420
36450W        W 8033  29.358   9.946  13.105
36451W        W 8034  19.647  18.296   4.716
36452W        W 8035  25.744  27.497   2.368
36453W        W 8036  28.256  16.036  11.114
36454W        W 8037  33.054  14.173   5.014
36455W        W 8038  36.564  29.040  11.900
36456W        W 8039  20.994  30.077  12.497
36457W        W 8040  32.853  21.900  10.963
36458W        W 8041  13.258  15.851   4.557
36459W        W 8042  36.740  17.309  12.103
36460W        W 8043   9.174  16.861   4.197
36461W        W 8044   7.317  37.080   0.479
36462W        W 8045  20.250  19.757   5.463
36463W        W 8046  20.753  10.255   2.872
36464W        W 8047  24.550  28.736  11.458
36465W        W 8048  27.915  23.212   0.803
36466W        W 8049   2.142  23.224   4.466
36467W        W 8050  41.070  11.179  13.609
36468W        W 8051   0.738  23.859  10.235
36469W        W 8052  19.524  43.363  13.462
36470W        W 8053  24.262  19.617   2.430
36471W        W 8054  36.533   0.764   2.719
36472W        W 8055  28.603  15.916   0.987
36473W        W 8056  16.157  18.610   0.087
36474W        W 8057  42.270  36.968  14.939
36475W        W 8058   6.903  29.931   1.047
36476W        W 8059  29.486   0.274  13.431
36477W        W 8060  37.962   2.262  11.501
36478W        W 8061  44.336  12.152   2.474
36479W        W 8062   5.790  22.945  13.984
36480W        W 8063  31.538   1.833  12.613
36481W        W 8064   3.215   1.388  13.558
36482W        W 8065  40.995  33.738  11.165
36483W        W 8066  42.088  33.503   0.128
36484W        W 8067  34.851  30.819  14.350
36485W        W 8068   7.442   0.670  13.583
36486W        W 8069   1.486  26.466   4.045
36487W        W 8070  40.572  11.634   4.187
36488W        W 8071   5.881  23.304   0.304
36489W        W 8072  42.069  18.576  11.422
36490W        W 8073  31.562  12.691   2.183
36491W        W 8074  35.361  26.467   1.903
36492W        W 8075  44.395  37.315   0.995
36493W        W 8076  36.570  25.702  11.965
36494W        W 8077  25.769   5.004   4.306
36495W        W 8078  13.638   3.876   4.028
36496W        W 8079  13.656  18.834  10.609
36497W        W 8080  32.526  19.557  12.991
36498W        W 8081  18.159   7.820  13.050
36499W        W 8082  14.887   2.480   0.208
36500W        W 8083  28.692  28.141   3.908
36501W        W 8084  43.725   9.558   0.407
36502W        W 8085   1.020  32.437   4.177
36503W        W 8086   7.155  25.720   1.244
36504W        W 8087  35.356   8.195   0.804
36505W        W 8088  24.154  21.291  13.419
36506W        W 8089  36.882  15.725   4.734
36507W        W 8090  41.972  39.960   4.619
36508W        W 8091  32.996   3.279   3.534
36509W        W 8092  13.578  22.166   2.748
36510W        W 8093  37.024  27.183  12.405
36511W        W 8094  24.522  17.400   2.367
36512W        W 8095  15.091  33.677   1.794
36513W        W 8096   6.773  29.521   3.798
36514W        W 8097  23.984   3.338  14.469
36515W        W 8098  37.644  39.988   3.957
36516W        W 8099  17.332  42.428   4.746
36517W        W 8100  15.712   2.380   0.197
36518W        W 8101  43.005  29.361  10.241
36519W        W 8102  28.415  29.451  10.614
36520W        W 8103  19.184  17.483   5.271
36521W        W 8104   2.510  44.951  14.457
36522W        W 8105  38.764   2.756   1.999
36523W        W 8106   2.870   3.347   3.054
36524W        W 8107   1.944  40.583   3.218
36525W        W 8108  31.587  42.972   3.085
36526W        W 8109  26.094   9.694  14.266
36527W        W 8110  19.486  12.737   4.464
36528W        W 8111  10.471  34.180  14.454
36529W        W 8112   5.407  43.857   3.711
36530W        W 8113  43.821  40.390  12.376
36531W        W 8114  30.028  17.145  13.289
36532W        W 8115  26.839  30.677  12.384
36533W        W 8116   7.162  17.708  13.935
36534W        W 8117  31.524   9.132   0.846
36535W        W 8118  31.575  22.578  12.032
36536W        W 8119  20.234  43.500   0.312
36537W        W 8120  41.571  38.507   4.129
36538W        W 8121  37.595  14.527  10.659
36539W        W 8122  29.219  21.041   3.729
36540W        W 8123   4.257  14.379  12.006
36541W        W 8124  18.670  35.402   4.607
36542W        W 8125  13.722  13.323   1.095
36543W        W 8126   0.446  26.210  12.427
36544W        W 8127  26.956  15.661  14.446
36545W        W 8128  22.272   3.046  10.996
36546W        W 8129  30.464   0.188   0.495
36547W        W 8130  31.562  10.735  12.574
36548W        W 8131  18.536   8.916  12.025
36549W        W 8132  27.623  20.771  13.345
36550W        W 8133  13.365  38.531  11.932
36551W        W 8134  25.678  22.603  13.017
36552W        W 8135   4.825  44.547   2.243
36553W        W 8136  12.513  15.637  13.780
36554W        W 8137  38.723   0.934   0.599
36555W        W 8138  16.759   9.785   3.909
36556W        W 8139  38.085  29.978   0.230
36557W        W 8140  24.877   1.496   0.972
36558W        W 8141  23.236   7.408   2.319
36559W        W 8142  15.776  28.583  11.009
36560W        W 8143  20.349  22.004  11.577
36561W        W 8144  35.459   9.392   0.243
36562W        W 8145  30.794  41.805  12.474
36563W        W 8146   5.879  33.791  11.015
36564W        W 8147  43.058  24.058   4.340
36565W        W 8148  23.576  14.283   3.811
36566W        W 8149  26.341  12.145   1.186
36567W        W 8150  41.593  19.623   1.576
36568W        W 8151  18.422  42.344  11.654
36569W        W 8152  37.903   1.697   4.664
36570W        W 8153  44.980  35.020   4.258
36571W        W 8154   8.391   1.869   4.678
36572W        W 8155  28.601  29.971   4.586
36573W        W 8156  21.519  11.454   4.405
36574W        W 8157  32.845  30.974   2.722
36575W        W 8158  21.620  22.440   2.922
36576W        W 8159  39.015   4.455  12.957
36577W        W 8160  41.691  37.369  11.543
36578W        W 8161  13.513  22.193   3.699
36579W        W 8162  15.316  11.239   2.689
36580W        W 8163  17.065   2.749  13.022
36581W        W 8164  41.795  36.162  11.573
36582W        W 8165   3.417  18.813  11.711
36583W        W 8166   8.533  37.559   2.207
36584W        W 8167  12.565  14.923  13.768
36585W        W 8168  19.563   0.850   3.482
36586W        W 8169  14.831  26.153  14.481
36587W        W 8170   6.203  25.916  14.039
36588W        W 8171  39.055  17.213   1.722
36589W        W 8172  22.952   0.336  14.029
36590W        W 8173  30.964  24.430  11.999
36591W        W 8174  31.448   5.753  11.053
36592W        W 8175  41.958  12.186  10.703
36593W        W 8176  42.016  37.496   0.811
36594W        W 8177  42.753  20.562  14.342
36595W        W 8178  10.941  44.538  11.867
36596W        W 8179  33.293  28.619  13.426
36597W        W 8180  38.102  29.096  13.457
36598W        W 8181  39.878   9.145   0.844
36599W        W 8182  38.568  27.544  12.038
36600W        W 8183  11.036   1.464   0.269
36601W        W 8184  26.231   7.656   3.824
36602W        W 8185  22.666  15.668  12.599
36603W        W 8186  15.534  19.044  13.278
36604W        W 8187  36.319  36.279   2.414
36605W        W 8188   6.665   4.303   1.729
36606W        W 8189  28.950  13.838  13.515
36607W        W 8190   9.209   2.110  11.678
36608W        W 8191  24.031  40.250  13.789
36609W        W 8192  41.861   5.395   0.026
36610W        W 8193  36.048   4.908  12.527
36611W        W 8194  34.357  20.069  12.480
36612W        W 8195  44.733  39.429  14.757
36613W        W 8196   7.350   9.154  13.906
36614W        W 8197  18.334  43.564  11.761
36615W        W 8198  44.946   7.158   4.523
36616W        W 8199  24.884  42.331   3.288
36617W        W 8200  14.869  21.714   1.205
36618W        W 8201  18.495  39.351   0.314
36619W        W 8202   5.347  44.300  12.546
36620W        W 8203  18.427  41.038  13.001
36621W        W 8204  26.499  39.908  12.457
36622W        W 8205  27.754  32.863  10.577
36623W        W 8206  10.356  28.239  11.069
36624W        W 8207  16.538  20.528   3.300
36625W        W 8208  21.187  42.904  10.793
36626W        W 8209  27.071   4.316   4.133
36627W        W 8210   3.081  21.938  11.526
36628W        W 8211  39.801  29.032   1.793
36629W        W 8212  24.212  16.209  10.936
36630W        W 8213  41.655  20.540  11.187
36631W        W 8214  25.997  10.415   1.905
36632W        W 8215  34.487  30.051   3.659
36633W        W 8216  34.049  11.688   2.933
36634W        W 8217  35.761  20.797  14.321
36635W        W 8218   1.585   1.438   1.712
36636W        W 8219  16.425  26.900   1.429
36637W        W 8220  43.275  37.234   2.354
36638W        W 8221  26.766   4.752   4.184
36639W        W 8222  26.265  19.269  10.697
36640W        W 8223   8.060  21.491   4.523
36641W        W 8224  10.584   1.320  13.842
36642W        W 8225  42.479  28.570   4.341
36643W        W 8226   4.431   4.859   1.434
36644W        W 8227  25.430  42.854  10.621
36645W        W 8228  26.091  14.039  14.325
36646W        W 8229  11.893  31.097  12.901
36647W        W 8230  37.415  26.722  11.104
36648W        W 8231  42.021   1.794  11.303
36649W        W 8232  41.779  18.165   0.365
36650W        W 8233  17.298  11.758  14.352
36651W        W 8234   9.887  22.659  12.922
36652W        W 8235  12.257  35.420   0.210
36653W        W 8236   1.822   9.696  14.830
36654W        W 8237  20.002   6.175  12.829
36655W        W 8238  34.657  14.679   2.201
36656W        W 8239  14.581   6.237  11.625
36657W        W 8240  31.882  26.592   0.222
36658W        W 8241  40.347  29.874  11.531
36659W        W 8242   8.649  15.300  12.060
36660W        W 8243  37.560   9.339  12.389
36661W        W 8244  41.819  32.939   2.723
36662W        W 8245  13.174  25.434   3.618
36663W        W 8246  18.388  34.570   2.867
36664W        W 8247  12.265  42.006  13.373
36665W        W 8248   1.928  14.603  14.755
36666W        W 8249  14.888  20.616  14.429
36667W        W 8250  24.008   7.675  12.327
36668W        W 8251  18.190  14.778   4.189
36669W        W 8252  21.577   4.841   4.632
36670W        W 8253  40.016  26.532   1.778
36671W        W 8254  35.370  32.134  11.049
36672W        W 8255  35.103   5.826  14.380
36673W        W 8256  40.897   6.652   2.720
36674W        W 8257  19.010  20.173  12.033
36675W        W 8258  24.017   2.447   1.768
36676W        W 8259  33.944  31.422   1.695
36677W        W 8260  33.227   8.826   1.892
36678W        W 8261  37.880   6.443   4.255
36679W        W 8262  20.337  33.378   2.831
36680W        W 8263  22.670  11.969   0.743
36681W        W 8264  39.534  42.421  12.008
36682W        W 8265   3.313  43.265  10.797
36683W        W 8266   8.642  43.057   4.124
36684W        W 8267  19.730  26.718  11.179
36685W        W 8268  21.216  43.793  13.217
36686W        W 8269   0.615  35.610  11.082
36687W        W 8270   1.229  28.891  11.064
36688W        W 8271  22.148  28.004   4.646
36689W        W 8272  26.790  24.666  12.885
36690W        W 8273  18.127   1.433   2.285
36691W        W 8274  21.298  25.560   3.280
36692W        W 8275  22.050   9.247   3.833
36693W        W 8276  11.627  36.804  11.125
36694W        W 8277   6.252  21.426  11.945
36695W        W 8278  12.655   9.872  10.706
36696W        W 8279  25.232   4.883   3.473
36697W        W 8280  43.817  23.593  12.430
36698W        W 8281  40.313  32.025  14.505
36699W        W 8282  30.471   1.571   0.722
36700W        W 8283  18.163  33.435  10.887
36701W        W 8284  38.268  27.531  13.026
36702W        W 8285  30.592   5.917  11.054
36703W        W 8286  28.908  40.013  14.592
36704W        W 8287  14.261  34.707  12.129
36705W        W 8288  20.522   5.159  13.318
36706W        W 8289  26.390  28.374   2.297
36707W        W 8290  41.390   1.501   1.644
36708W        W 8291  32.143  25.683  10.638
36709W        W 8292  31.558   3.182   0.390
36710W        W 8293  24.579  29.440  13.302
36711W        W 8294  18.198   9.626  13.573
36712W        W 8295  23.523  34.108   1.958
36713W        W 8296  14.646  19.505  13.087
36714W        W 8297   8.131   8.268   0.069
36715W        W 8298  28.381  22.133   0.820
36716W        W 8299   3.825  27.499   0.029
36717W        W 8300  27.888  35.238   2.491
36718W        W 8301  13.716  30.776  12.657
36719W        W 8302  14.554  39.198   4.607
36720W        W 8303  42.339  27.142   4.729
36721W        W 8304  36.898   8.731   5.202
36722W        W 8305  28.744  25.370  11.883
36723W        W 8306  33.592  36.107  12.001
36724W        W 8307  28.600   3.945   3.775
36725W        W 8308  26.010  10.237  13.045
36726W        W 8309   9.799   2.917  10.494
36727W        W 8310  15.517  42.897   0.779
36728W        W 8311  30.667  37.946  10.778
36729W        W 8312  14.673   6.294   2.884
36730W        W 8313  12.485  43.929   3.198
36731W        W 8314  15.083  39.037   4.670
36732W        W 8315   6.246  39.793  14.969
36733W        W 8316  17.142  13.134   0.719
36734W        W 8317  15.082  19.752  13.277
36735W        W 8318   2.724  36.099   3.760
36736W        W 8319   2.482  29.695  13.431
36737W        W 8320   9.720  14.822   4.536
36738W        W 8321  15.130  44.300   2.791
36739W        W 8322  34.160  29.503   1.414
36740W        W 8323  38.372  43.007   1.061
36741W        W 8324   2.765  32.846   3.908
36742W        W 8325  14.730  24.922   1.802
36743W        W 8326  10.820   0.722   0.271
36744W        W 8327   5.032  41.455  12.813
36745W        W 8328  35.427   8.088   2.913
36746W        W 8329  14.902  36.622  13.822
36747W        W 8330  42.302  16.675  10.742
36748W        W 8331  10.719  21.041  12.149
36749W        W 8332  17.553  12.575   3.324
36750W        W 8333  43.194   4.178   0.204
36751W        W 8334  34.567  26.556   2.653
36752W        W 8335   9.889   2.891   2.692
36753W        W 8336  14.633   4.734   4.069
36754W        W 8337  41.492  28.455  13.971
36755W        W 8338   0.372  16.296  11.859
36756W        W 8339  41.854   6.319  11.273
36757W        W 8340  43.092  39.122   0.843
36758W        W 8341  36.052  23.018   1.461
36759W        W 8342   8.338  14.297  13.833
36760W        W 8343  23.101  30.521   3.286
36761W        W 8344  31.872  11.954  11.114
36762W        W 8345   3.214  19.336  11.086
36763W        W 8346  44.280  42.548  13.085
36764W        W 8347  44.007  37.836  12.212
36765W        W 8348  42.442   1.702   0.493
36766W        W 8349  14.689  16.266   4.828
36767W        W 8350  35.031  26.464   2.372
36768W        W 8351  21.575  18.998   0.951
36769W        W 8352  43.670  14.050   2.627
36770W        W 8353  21.581   0.858  12.454
36771W        W 8354  26.071   3.672   4.831
36772W        W 8355  44.061   3.698  13.379
36773W        W 8356  43.352   2.384   1.402
36774W        W 8357  37.747   3.226   2.835
36775W        W 8358  12.066  28.539   3.598
36776W        W 8359  37.944  26.601  10.929
36777W        W 8360   0.960   6.022  12.735
36778W        W 8361   2.271  27.946   4.586
36779W        W 8362  18.572  43.505  14.527
36780W        W 8363  20.828  10.306   1.711
36781W        W 8364  16.233  32.615   3.356
36782W        W 8365  12.886  38.842   0.886
36783W        W 8366  38.387  33.972  13.504
36784W        W 8367  26.513  31.935  11.504
36785W        W 8368   7.817  43.399   3.157
36786W        W 8369  28.204  20.795   2.313
36787W        W 8370  37.359  30.654   1.967
36788W        W 8371  44.544   6.482  10.252
36789W        W 8372   9.407  42.479  14.598
36790W        W 8373  11.670  17.287  14.871
36791W        W 8374   2.088  34.654   3.867
36792W        W 8375  43.114  23.132  13.044
36793W        W 8376  10.771  41.715  14.521
36794W        W 8377  21.785   2.840   0.161
36795W        W 8378  43.554  40.012   3.210
36796W        W 8379  26.639  10.090   5.428
36797W        W 8380  43.290  27.700   2.618
36798W        W 8381  11.718  20.725   2.159
36799W        W 8382  26.975  41.008  13.759
36800W        W 8383  31.524  14.634  13.980
36801W        W 8384  23.367  19.019   1.159
36802W        W 8385  32.086  31.471   3.741
36803W        W 8386   2.405  22.180  13.379
36804W        W 8387  15.759  36.354  14.945
36805W        W 8388  26.172  28.206   3.699
36806W        W 8389  21.531  22.280   4.312
36807W        W 8390  10.634  36.520  12.548
36808W        W 8391  38.464  36.407   2.842
36809W        W 8392   9.972   3.387   2.143
36810W        W 8393  10.545  13.018   1.232
36811W        W 8394  39.904  23.586  13.142
36812W        W 8395  29.640   7.418  14.507
36813W        W 8396  27.426  41.111  12.055
36814W        W 8397  34.865  39.939   3.921
36815W        W 8398  16.116  34.051  14.774
36816W        W 8399  19.711  35.066  14.012
36817W        W 8400  24.670  41.477   4.148
36818W        W 8401  38.333   5.709   5.435
36819W        W 8402  25.225  13.503   2.755
36820W        W 8403  11.437  31.013  11.927
36821W        W 8404  11.917   7.782  14.510
36822W        W 8405  16.604  32.573   4.660
36823W        W 8406  35.298   5.875  11.646
36824W        W 8407   1.792  20.677  12.589
36825W        W 8408   0.772  26.659   3.053
36826W        W 8409  39.491  26.949   1.622
36827W        W 8410  30.488  19.377   0.326
36828W        W 8411  21.576  35.178  13.013
36829W        W 8412   4.852  24.932   3.291
36830W        W 8413  33.455  35.069  14.045
36831W        W 8414  38.294  27.597   2.382
36832W        W 8415   5.470  35.722  12.899
36833W        W 8416   8.962  19.602   0.864
36834W        W 8417  37.761  41.494  14.027
36835W        W 8418  27.639  40.419   1.128
36836W        W 8419  41.996   1.981   1.150
36837W        W 8420  28.007  39.862  11.182
36838W        W 8421  34.812  33.992  10.781
36839W        W 8422  32.480  42.861  10.488
36840W        W 8423  42.426  41.904   3.652
36841W        W 8424   4.171  39.970   1.787
36842W        W 8425  33.991  39.508   0.779
36843W        W 8426  26.497   4.402   2.405
36844W        W 8427  20.465  34.051   0.675
36845W        W 8428   1.994  10.262  12.430
36846W        W 8429  38.431  38.308   0.347
36847W        W 8430  18.506  38.638  14.889
36848W        W 8431  35.975   0.235  13.751
36849W        W 8432  43.760  33.313   1.438
36850W        W 8433  15.322  31.078   0.010
36851W        W 8434  40.858  41.919  12.088
36852W        W 8435   9.865  26.018   3.904
36853W        W 8436  22.864  37.063  12.459
36854W        W 8437   7.155  20.229   1.822
36855W        W 8438  11.760  19.073  11.540
36856W        W 8439  24.509  15.833  14.881
36857W        W 8440  19.649   2.042   4.676
36858W        W 8441  33.448   2.231  13.712
36859W        W 8442  35.076   5.862   4.693
36860W        W 8443   6.172  27.069   4.288
36861W        W 8444   9.865   6.914   2.378
36862W        W 8445  42.251  35.739  13.427
36863W        W 8446   0.910  20.691   1.941
36864W        W 8447  11.236  43.979   0.274
36865W        W 8448   1.941  40.979  11.197
36866W        W 8449  44.808  23.007   3.711
36867W        W 8450  38.055  32.114  10.582
36868W        W 8451  28.471   1.370   3.900
36869W        W 8452   7.849  12.264  13.972
36870W        W 8453  35.858  23.756   3.688
36871W        W 8454  32.601  22.586  12.296
36872W        W 8455  13.332   0.884  13.414
36873W        W 8456  21.620   5.439   2.651
36874W        W 8457   9.330  10.710   0.988
36875W        W 8458  31.573  36.291   3.708
36876W        W 8459  43.717  28.987  14.420
36877W        W 8460  37.936  16.146   1.295
36878W        W 8461   0.481  13.890  10.754
36879W        W 8462   5.608  26.624   0.299
36880W        W 8463  19.023  18.823   5.030
36881W        W 8464   6.308  27.931  13.664
36882W        W 8465  29.692  40.794  12.614
36883W        W 8466  14.787  14.668   2.387
36884W        W 8467  41.211  19.158   4.307
36885W        W 8468  16.749  39.629  14.249
36886W        W 8469  35.159  15.207  11.085
36887W        W 8470  34.553  38.396  11.141
36888W        W 8471   8.242  19.723   2.590
36889W        W 8472  14.283   9.717   1.143
36890W        W 8473  17.837  43.280   0.246
36891W        W 8474  17.642  39.419  12.844
36892W        W 8475  27.541  16.541  11.924
36893W        W 8476  35.130  35.054  14.757
36894W        W 8477  13.921  24.941   4.192
36895W        W 8478  27.648   7.886  13.376
36896W        W 8479  29.416  34.932   3.638
36897W        W 8480  32.912  36.611   2.717
36898W        W 8481  21.594  15.196  11.454
36899W        W 8482  24.780  43.857  14.846
36900W        W 8483   8.244   2.395   4.263
36901W        W 8484  42.462   3.282  14.031
36902W        W 8485   2.669  18.597  14.043
36903W        W 8486  21.841  33.551   2.898
36904W        W 8487   9.327  26.901  11.061
36905W        W 8488   9.745  42.954   1.775
36906W        W 8489  32.824  15.224   1.315
36907W        W 8490  12.675   2.077   2.841
36908W        W 8491  39.002   7.422  13.336
36909W        W 8492  12.512   5.404  14.949
36910W        W 8493  39.824   8.033   2.010
36911W        W 8494  25.522  40.385  13.810
36912W        W 8495   7.320  31.319  12.025
36913W        W 8496  26.894  21.018  10.368
36914W        W 8497  36.459  26.860   3.293
36915W        W 8498   4.236  39.918  14.945
36916W        W 8499  10.681  10.658   0.351
36917W        W 8500  23.684  14.862   1.888
36918W        W 8501  31.432  14.779   1.216
36919W        W 8502   7.688  19.707   3.124
36920W        W 8503  22.219  31.647  12.603
36921W        W 8504  18.129  39.766   2.858
36922W        W 8505  34.006  17.738   0.757
36923W        W 8506   1.197   8.024   3.951
36924W        W 8507  21.157   0.766   4.029
36925W        W 8508  29.493  31.451   3.606
36926W        W 8509  29.415  42.920   2.422
36927W        W 8510   2.882  38.613   4.981
36928W        W 8511  30.183   6.774  14.956
36929W        W 8512  20.506  38.025  11.088
36930W        W 8513   7.490   5.351   2.781
36931W        W 8514  28.448  25.279  12.311
36932W        W 8515  23.432  44.110   0.337
36933W        W 8516  21.327  35.991   1.254
36934W        W 8517   5.903  40.009  13.510
36935W        W 8518  41.285  15.230   0.200
36936W        W 8519  21.659  10.804   3.124
36937W        W 8520   4.743   3.937  13.475
36938W        W 8521  17.329  17.042   1.310
36939W        W 8522  16.066   5.835  14.560
36940W        W 8523  33.959  21.854  13.914
36941W        W 8524  30.219  34.903   1.073
36942W        W 8525  24.780  19.007   3.915
36943W        W 8526  10.075  11.633  14.955
36944W        W 8527  39.916   3.780  12.453
36945W        W 8528   3.301   9.673   0.835
36946W        W 8529  29.654   1.454  11.374
36947W        W 8530  23.173  39.834   2.154
36948W        W 8531  33.541  40.311   1.677
36949W        W 8532  40.564  18.697   4.670
36950W        W 8533  15.914  37.985   0.709
36951W        W 8534  14.088  23.589  10.672
36952W        W 8535  42.262   4.364   1.335
36953W        W 8536  17.061  15.488   2.141
36954W        W 8537  27.043  25.965   4.780
36955W        W 8538  21.231   1.226  12.275
36956W        W 8539  33.590  16.271   2.254
36957W        W 8540  43.293  30.209   0.925
36958W        W 8541  39.525  27.410  10.745
36959W        W 8542  29.511  17.466  11.170
36960W        W 8543   5.108  14.889   0.058
36961W        W 8544   4.740  17.854   4.587
36962W        W 8545  15.775  10.678   0.281
36963W        W 8546  37.553  17.748   4.969
36964W        W 8547  19.408  22.689  13.558
36965W        W 8548  19.121  30.377   3.269
36966W        W 8549  35.437  13.182  14.405
36967W        W 8550  14.157  23.442   3.302
36968W        W 8551   8.736  29.382  12.346
36969W        W 8552  38.860   8.216  11.481
36970W        W 8553   6.944  43.990   3.308
36971W        W 8554   7.634  35.881   2.795
36972W        W 8555   3.251   8.776   2.208
36973W        W 8556  26.989  13.870   2.097
36974W        W 8557  33.250  44.787  12.337
36975W        W 8558  31.632  42.449  13.865
36976W        W 8559  12.147  34.033   4.608
36977W        W 8560   9.155  25.288   1.289
36978W        W 8561  35.365  40.521   3.405
36979W        W 8562  36.348  31.066  12.884
36980W        W 8563  11.771  11.816  13.364
36981W        W 8564  17.973   6.939  13.533
36982W        W 8565  29.142  37.349   3.183
36983W        W 8566  32.022  36.687  11.160
36984W        W 8567  42.041  28.888   4.181
36985W        W 8568  19.044  14.778   1.458
36986W        W 8569   8.131   3.796  13.019
36987W        W 8570  17.571   3.756  11.525
36988W        W 8571  10.720  12.366   0.855
36989W        W 8572   7.872  31.403   2.248
36990W        W 8573   4.041   6.387   1.011
36991W        W 8574  33.513  33.428  10.750
36992W        W 8575  42.914   0.476   4.814
36993W        W 8576   6.160  10.664  10.848
36994W        W 8577  14.046  34.327  10.562
36995W        W 8578  18.576   1.532  10.774
36996W        W 8579  33.532  30.654  13.521
36997W        W 8580  36.581  24.090   2.884
36998W        W 8581  36.578  35.826   0.950
36999W        W 8582  34.735  20.568  11.540
37000W        W 8583  28.543   7.441  14.952
37001W        W 8584  40.364  28.658   2.185
37002W        W 8585  21.208  41.927   0.078
37003W        W 8586  12.340  18.020  11.107
37004W        W 8587  40.724  23.798   0.052
37005W        W 8588  13.413  36.932   4.607
37006W        W 8589  40.563  17.649   0.283
37007W        W 8590   7.770  32.564   0.303
37008W        W 8591   6.919  25.180  13.593
37009W        W 8592   7.200  38.979   1.845
37010W        W 8593  13.641  32.493  13.073
37011W        W 8594  13.662  40.525   2.634
37012W        W 8595  36.977  25.041   0.866
37013W        W 8596  22.492  27.613  13.063
37014W        W 8597  32.405  23.632   2.439
37015W        W 8598  37.081   8.459   2.706
37016W        W 8599  15.165   9.727   0.240
37017W        W 8600  33.111  19.753  10.945
37018W        W 8601  41.341  10.567   2.973
37019W        W 8602  27.106  38.122  14.809
37020W        W 8603  29.897  22.561   1.708
37021W        W 8604  28.821  11.233   3.283
37022W        W 8605  42.579  23.238  14.787
37023W        W 8606  43.420  39.545  10.546
37024W        W 8607  19.265   0.212   1.377
37025W        W 8608  36.583   5.043   3.190
37026W        W 8609  36.505  27.022   2.810
37027W        W 8610  20.148  18.718   1.932
37028W        W 8611  39.273  30.347  11.934
37029W        W 8612  43.809  30.425   3.688
37030W        W 8613  26.709  38.845  10.605
37031W        W 8614  14.617  34.276   2.836
37032W        W 8615  19.664  36.133   1.941
37033W        W 8616  25.489  26.585  12.056
37034W        W 8617  39.486  21.030   3.430
37035W        W 8618  39.601  20.267  13.063
37036W        W 8619   7.752  34.550  13.078
37037W        W 8620  19.786  29.152   0.828
37038W        W 8621  25.165  42.284   5.013
37039W        W 8622  33.810  26.115  10.384
37040W        W 8623  30.955  31.595   2.623
37041W        W 8624  24.679  32.870  12.390
37042W        W 8625  12.068  22.951   0.824
37043W        W 8626  40.271  26.867   0.825
37044W        W 8627  25.452  11.816   0.376
37045W        W 8628  20.532  37.904   1.628
37046W        W 8629  27.306  19.020  13.877
37047W        W 8630  34.700  33.488  11.059
37048W        W 8631  40.501  11.754  10.809
37049W        W 8632  14.572   5.246  12.476
37050W        W 8633  33.009  35.084  11.702
37051W        W 8634  26.909  18.713  10.719
37052W        W 8635  13.879  37.596  13.847
37053W        W 8636  19.851  21.058  13.749
37054W        W 8637  12.268  31.046   2.207
37055W        W 8638  31.571  41.673  12.438
37056W        W 8639  11.780   1.972  12.978
37057W        W 8640  12.367  30.326   3.526
37058W        W 8641  10.055  40.813  12.600
37059W        W 8642  42.872  34.908   1.488
37060W        W 8643  15.349  15.785  13.838
37061W        W 8644   6.487  12.101   4.184
37062W        W 8645  27.581  16.530  13.696
37063W        W 8646   2.787  41.383   1.788
37064W        W 8647  20.538  26.579   4.006
37065W        W 8648  19.727  10.896  12.530
37066W        W 8649  36.823  34.343  11.151
37067W        W 8650  11.240  37.182  11.068
37068W        W 8651   1.310  24.094   4.809
37069W        W 8652  15.096  18.254   0.277
37070W        W 8653  28.137   2.621   0.231
37071W        W 8654  44.634  14.313  11.168
37072W        W 8655  44.447  19.012   2.420
37073W        W 8656  29.158  10.261   3.307
37074W        W 8657  33.087   2.758   4.320
37075W        W 8658  42.550  38.707   0.348
37076W        W 8659  20.620  18.523  11.480
37077W        W 8660  34.473   3.185  11.647
37078W        W 8661  39.765   3.889   3.159
37079W        W 8662  23.149  32.686   3.839
37080W        W 8663  24.588   8.204   1.408
37081W        W 8664   4.339  15.763   1.710
37082W        W 8665  42.223  31.318   1.428
37083W        W 8666  25.305  16.865  12.111
37084W        W 8667   6.454  20.774   0.833
37085W        W 8668  10.787  20.877   0.442
37086W        W 8669  28.204  36.326  11.526
37087W        W 8670  10.921  15.486  10.431
37088W        W 8671  44.003   4.345  12.457
37089W        W 8672  23.986  12.633   4.071
37090W        W 8673  43.809  15.020   3.568
37091W        W 8674  25.129  37.770  13.386
37092W        W 8675  21.628   1.249   1.708
37093W        W 8676  38.876  29.715  14.557
37094W        W 8677  39.594  24.020   4.014
37095W        W 8678  14.790   8.748   4.609
37096W        W 8679  37.306  21.521  12.036
37097W        W 8680  39.435  14.179  13.622
37098W        W 8681  13.679  29.392   2.500
37099W        W 8682  12.611  11.258  13.611
37100W        W 8683  10.858  16.163   2.327
37101W        W 8684  12.686  22.056   3.163
37102W        W 8685  21.971  37.371   5.042
37103W        W 8686  24.653  30.758   3.460
37104W        W 8687   2.718  20.363   3.872
37105W        W 8688   5.800  33.813  14.760
37106W        W 8689  13.618   2.487   2.793
37107W        W 8690   6.706   7.858   4.604
37108W        W 8691   6.006   4.337   0.049
37109W        W 8692  42.894  35.153  13.564
37110W        W 8693  21.032  44.313   3.699
37111W        W 8694   3.311  33.145  11.054
37112W        W 8695  26.648   7.825   3.504
37113W        W 8696  42.092  43.995   3.163
37114W        W 8697  42.058  33.233   4.988
37115W        W 8698  11.839  22.051  12.628
37116W        W 8699  41.912   8.344  14.481
37117W        W 8700  40.997  33.629   3.865
37118W        W 8701  35.682  21.150   0.584
37119W        W 8702  13.596   0.439  13.463
37120W        W 8703   1.025   7.967   3.256
37121W        W 8704  40.937   9.257  12.863
37122W        W 8705  36.566  19.102  11.497
37123W        W 8706  40.045   4.779  12.461
37124W        W 8707   8.617  31.578  11.121
37125W        W 8708  12.188  28.761  10.414
37126W        W 8709  23.211  40.213   3.804
37127W        W 8710  12.306  15.960   4.187
37128W        W 8711   5.835  42.371   3.140
37129W        W 8712   6.456  21.762   3.707
37130W        W 8713  26.598  34.838   0.621
37131W        W 8714  34.409   6.407  10.932
37132W        W 8715  15.344   2.702   0.011
37133W        W 8716  24.645  25.654  11.662
37134W        W 8717   5.208  10.565   0.253
37135W        W 8718  23.741  14.334   0.409
37136W        W 8719  27.969  30.374  13.504
37137W        W 8720  31.534   2.077  13.091
37138W        W 8721   3.973  43.821  13.294
37139W        W 8722  43.522   0.919   2.298
37140W        W 8723  43.868   6.784   1.795
37141W        W 8724  41.894   5.772  14.332
37142W        W 8725  18.555   1.840   1.813
37143W        W 8726  30.519  18.976   3.135
37144W        W 8727  20.984  31.453  10.722
37145W        W 8728   1.422  21.749  14.780
37146W        W 8729  12.843  13.717  13.826
37147W        W 8730  23.942  29.601  13.538
37148W        W 8731  20.244   9.424   3.960
37149W        W 8732  37.524  25.093  12.963
37150W        W 8733  14.890  29.867   3.716
37151W        W 8734  29.188  19.586   4.881
37152W        W 8735  14.798  28.569   4.662
37153W        W 8736  39.070  12.589   0.446
37154W        W 8737  26.009  40.087  12.555
37155W        W 8738  21.606   9.302  10.896
37156W        W 8739  44.488   7.258  13.820
37157W        W 8740  44.675  38.806   4.464
37158W        W 8741  10.315  31.622   4.595
37159W        W 8742  20.573  23.418  13.392
37160W        W 8743  12.242  15.132   3.626
37161W        W 8744   2.556  28.705  12.057
37162W        W 8745   3.483   4.765   0.938
37163W        W 8746  23.242  43.509  13.417
37164W        W 8747   8.968  15.206  14.686
37165W        W 8748  27.445  33.433   0.384
37166W        W 8749   2.240  19.206   1.006
37167W        W 8750  42.359   2.343  11.683
37168W        W 8751  42.773  31.404  10.761
37169W        W 8752  21.496   4.072  13.727
37170W        W 8753  16.677  12.756  11.438
37171W        W 8754  37.642  43.829  13.110
37172W        W 8755  23.093   3.498  11.946
37173W        W 8756   0.420   2.831  11.276
37174W        W 8757   5.889   4.846   0.122
37175W        W 8758  33.707  38.880   2.699
37176W        W 8759  32.709  26.623  11.003
37177W        W 8760  32.612  13.780   4.431
37178W        W 8761  25.085   6.766  10.790
37179W        W 8762  26.032  27.054   2.176
37180W        W 8763   9.705   5.885  13.545
37181W        W 8764   9.949  35.372   3.306
37182W        W 8765   9.665   1.473   3.109
37183W        W 8766  26.326  31.102  13.020
37184W        W 8767  32.401   5.160  13.931
37185W        W 8768  39.906  18.082   2.244
37186W        W 8769  13.626  21.032   0.779
37187W        W 8770  23.185  14.054   2.587
37188W        W 8771  15.578   7.717  11.755
37189W        W 8772  38.360  16.852  12.159
37190W        W 8773   0.552   5.370  12.068
37191W        W 8774  26.572  24.962   4.451
37192W        W 8775   0.778  23.223   0.940
37193W        W 8776  38.464  31.897  12.806
37194W        W 8777  18.642  15.119  13.899
37195W        W 8778  35.096   4.298  11.993
37196W        W 8779  26.653   6.974  13.095
37197W        W 8780   1.244  33.132  13.451
37198W        W 8781  35.901  24.292   3.772
37199W        W 8782   6.855  19.944  13.543
37200W        W 8783   0.346  19.643   4.458
37201W        W 8784  14.620  13.187   0.992
37202W        W 8785  30.132   5.667   1.820
37203W        W 8786  25.406  30.645  12.419
37204W        W 8787   4.641   1.864   4.973
37205W        W 8788  24.078  35.527  14.221
37206W        W 8789   1.135  28.438  14.357
37207W        W 8790  41.429  35.066   3.793
37208W        W 8791  18.273  29.465  13.960
37209W        W 8792  16.285  33.995   9.769
37210W        W 8793  36.956  29.212   4.327
37211W        W 8794  19.685  27.145   1.737
37212W        W 8795  36.951  14.295  13.130
37213W        W 8796  25.822  14.722  11.733
37214W        W 8797  31.197  21.123   1.154
37215W        W 8798  36.359  19.689   2.328
37216W        W 8799   7.295   8.734   0.836
37217W        W 8800  19.106   4.479  11.734
37218W        W 8801  30.551  37.134   1.807
37219W        W 8802  26.732  10.296   1.168
37220W        W 8803  15.194  27.897   2.619
37221W        W 8804  27.959  24.752  11.873
37222W        W 8805  18.697  13.873   3.176
37223W        W 8806  44.199  34.930  12.465
37224W        W 8807  25.069   5.228  10.569
37225W        W 8808  32.688  30.980  12.439
37226W        W 8809  10.658  19.148   4.788
37227W        W 8810  37.917  19.656   3.721
37228W        W 8811  25.175  11.560   3.251
37229W        W 8812  22.738   3.299  11.178
37230W        W 8813  37.965   1.978  11.066
37231W        W 8814  34.045   0.742  14.200
37232W        W 8815  20.402  31.757   5.676
37233W        W 8816  31.892  42.859   0.453
37234W        W 8817   7.129  12.800  13.852
37235W        W 8818  33.887  14.607   3.168
37236W        W 8819  36.086  33.463  14.364
37237W        W 8820   4.600   4.476  13.087
37238W        W 8821   6.813   9.125   3.782
37239W        W 8822  43.489  31.576  11.739
37240W        W 8823  22.891   6.359  11.307
37241W        W 8824  28.568  30.631   1.879
37242W        W 8825  30.185  26.658  12.705
37243W        W 8826   3.494  38.741  11.874
37244W        W 8827  40.597  39.388   1.976
37245W        W 8828   3.480   5.961   2.693
37246W        W 8829   2.243  21.586  11.674
37247W        W 8830  27.157  40.050   0.370
37248W        W 8831   8.240  38.382  13.527
37249W        W 8832  26.100  12.282   0.706
37250W        W 8833  43.723  25.220   2.731
37251W        W 8834  30.578   8.288  13.711
37252W        W 8835  13.231  25.708   0.826
37253W        W 8836   6.147  40.782   0.915
37254W        W 8837  41.541  24.660  13.556
37255W        W 8838   7.089  40.492   0.889
37256W        W 8839  16.753  23.128   3.710
37257W        W 8840  20.067  21.961  12.711
37258W        W 8841   7.735  27.642   3.555
37259W        W 8842  37.858  30.101   3.927
37260W        W 8843   0.812   8.839   0.658
37261W        W 8844  15.185   3.810   1.726
37262W        W 8845  42.554  19.475  14.756
37263W        W 8846   5.457   8.872  13.558
37264W        W 8847  16.989  15.375  14.321
37265W        W 8848  14.614   2.311   3.049
37266W        W 8849  10.924   9.678  14.429
37267W        W 8850  11.399  33.642  11.521
37268W        W 8851  16.549  41.269  12.567
37269W        W 8852  16.116   1.366  11.354
37270W        W 8853   2.431   6.940   0.050
37271W        W 8854  22.652  17.266   0.880
37272W        W 8855  27.015  34.862   3.676
37273W        W 8856  29.712   3.394  13.557
37274W        W 8857   6.270  18.979   2.678
37275W        W 8858  42.977  25.492  14.560
37276W        W 8859   1.238  20.759  10.923
37277W        W 8860   2.960  39.523   3.817
37278W        W 8861   1.447  32.498   3.896
37279W        W 8862  41.761  10.791   3.788
37280W        W 8863  13.763  43.738  14.009
37281W        W 8864   4.278  18.128  14.768
37282W        W 8865  19.549  33.955   1.473
37283W        W 8866  39.620  35.367   1.160
37284W        W 8867  41.006  14.561   2.644
37285W        W 8868   1.831   7.645  14.800
37286W        W 8869  11.134  35.584  13.464
37287W        W 8870  21.055   0.311  13.536
37288W        W 8871   7.718  33.086   2.988
37289W        W 8872  21.466  29.826   4.512
37290W        W 8873  32.181  23.898  12.130
37291W        W 8874  16.790  24.184  12.810
37292W        W 8875  15.537   4.266   0.043
37293W        W 8876  27.520   3.710   4.854
37294W        W 8877  33.111   8.554   0.279
37295W        W 8878   8.972  35.010   4.474
37296W        W 8879   1.893  18.737  10.250
37297W        W 8880  22.767   2.472  13.869
37298W        W 8881   1.792   9.450  12.994
37299W        W 8882  33.569  17.868  14.500
37300W        W 8883   1.460  30.878  12.912
37301W        W 8884  24.058  14.730   1.019
37302W        W 8885  34.276  17.523  13.852
37303W        W 8886  37.589  34.002   0.245
37304W        W 8887   0.870   2.153   1.875
37305W        W 8888  13.228  22.527   1.862
37306W        W 8889  39.285   3.330  13.800
37307W        W 8890   1.091  26.746   3.878
37308W        W 8891  22.109  37.972   4.379
37309W        W 8892  23.599  20.087  11.624
37310W        W 8893  12.065   4.622   4.358
37311W        W 8894   8.705  23.552  14.385
37312W        W 8895  35.903  31.443  11.896
37313W        W 8896  30.524   4.877  13.990
37314W        W 8897  22.512  29.437   1.024
37315W        W 8898  25.680  35.924  10.704
37316W        W 8899  14.966  39.977  13.360
37317W        W 8900  20.094  42.523  13.621
37318W        W 8901  41.916  24.991   1.540
37319W        W 8902   3.704  19.393  14.121
37320W        W 8903  41.751  36.990   1.751
37321W        W 8904   4.354  32.344  12.879
37322W        W 8905   9.903  25.508   2.977
37323W        W 8906  23.165  31.835  14.444
37324W        W 8907  16.086  25.494  12.895
37325W        W 8908  40.106  44.537  11.527
37326W        W 8909  11.831  13.616  12.375
37327W        W 8910  44.419  17.661  14.999
37328W        W 8911   2.060  30.229   1.910
37329W        W 8912   9.878  31.663   1.343
37330W        W 8913  40.424  40.328  13.149
37331W        W 8914  26.053  20.690   3.848
37332W        W 8915   9.920  22.398  12.454
37333W        W 8916  38.015  30.923   1.298
37334W        W 8917   7.313   5.474  13.406
37335W        W 8918  12.208  27.588  14.253
37336W        W 8919  36.981  16.091  12.562
37337W        W 8920   7.735  13.331  10.796
37338W        W 8921  38.658   6.539  14.378
37339W        W 8922  38.544  23.204   2.599
37340W        W 8923  36.857  31.664   0.823
37341W        W 8924   2.781  10.137  14.997
37342W        W 8925  44.277  17.307   4.347
37343W        W 8926  20.085  22.198  11.108
37344W        W 8927  44.898  41.620   1.445
37345W        W 8928  16.821  37.640   2.833
37346W        W 8929  28.957   3.742  11.481
37347W        W 8930  24.786  25.504   0.961
37348W        W 8931   8.238  34.193  14.898
37349W        W 8932  38.134  26.907   1.012
37350W        W 8933   9.638  35.523   4.762
37351W        W 8934   2.176  10.796   0.644
37352W        W 8935   8.658  11.095  11.901
37353W        W 8936  14.176  32.889  12.852
37354W        W 8937   7.953  38.487  10.749
37355W        W 8938  11.045  24.698   3.119
37356W        W 8939  41.122  32.522   0.091
37357W        W 8940  12.426  17.595  11.553
37358W        W 8941   9.832  42.339  10.408
37359W        W 8942  10.939  19.555   2.299
37360W        W 8943  38.035  13.763   1.748
37361W        W 8944  15.743  23.736   0.767
37362W        W 8945  30.091   2.727   4.114
37363W        W 8946   6.927  16.360   1.788
37364W        W 8947  19.624  31.200   0.527
37365W        W 8948  37.956  22.905   0.067
37366W        W 8949  27.204  22.733   1.335
37367W        W 8950  43.746   5.421  10.605
37368W        W 8951  10.097  33.991   2.715
37369W        W 8952  17.759  23.491   3.727
37370W        W 8953  20.110  36.769  11.606
37371W        W 8954  23.729  37.046   3.289
37372W        W 8955   7.664  11.641   0.727
37373W        W 8956   0.869   9.691  11.850
37374W        W 8957  34.645  22.026   4.467
37375W        W 8958   6.659   4.279   0.719
37376W        W 8959  33.349  13.562   3.656
37377W        W 8960  30.810  18.051   3.857
37378W        W 8961  19.586  25.306   0.831
37379W        W 8962   2.763  11.787   3.334
37380W        W 8963  44.921   6.958  13.079
37381W        W 8964  20.767  42.166   0.949
37382W        W 8965  23.236  41.395  14.165
37383W        W 8966   8.381  29.046  13.998
37384W        W 8967   5.056  25.663  14.512
37385W        W 8968  44.411  17.232  12.404
37386W        W 8969  20.816  19.191   4.043
37387W        W 8970  15.258   7.882  13.869
37388W        W 8971  40.670  37.621  13.008
37389W        W 8972   8.403  23.057   4.022
37390W        W 8973  23.382  38.819  12.595
37391W        W 8974  19.575   3.065   3.228
37392W        W 8975  15.599  10.357   4.573
37393W        W 8976  33.153  10.210  11.101
37394W        W 8977  23.686   1.782   1.366
37395W        W 8978  19.693   7.611  13.920
37396W        W 8979   1.504   3.027   0.827
37397W        W 8980  12.998  27.443   1.284
37398W        W 8981  40.364   6.783  14.740
37399W        W 8982   3.953  33.157  13.926
37400W        W 8983  41.545  28.117   2.785
37401W        W 8984   6.339   5.166  14.960
37402W        W 8985   6.040  31.248   0.346
37403W        W 8986   1.030  37.395   1.871
37404W        W 8987  35.901  10.396   4.665
37405W        W 8988  34.030  11.260   3.232
37406W        W 8989  20.790  41.890  12.032
37407W        W 8990  22.171  32.463  14.101
37408W        W 8991  41.187   7.723  11.055
37409W        W 8992  23.530  25.644   1.341
37410W        W 8993  29.831   2.010   1.322
37411W        W 8994  17.194  39.562   1.913
37412W        W 8995   8.942  17.305  10.600
37413W        W 8996  18.812  24.697   1.298
37414W        W 8997   1.208  20.513   3.643
37415W        W 8998  16.145  24.460   0.366
37416W        W 8999  16.351  44.754   1.349
37417W        W 9000   8.780  29.448   5.093
37418W        W 9001  43.243  21.098   0.238
37419W        W 9002  17.105  24.778  13.856
37420W        W 9003  25.100  15.504   4.073
37421W        W 9004  25.110  28.932  13.745
37422W        W 9005  16.172  37.394   1.379
37423W        W 9006  21.859   3.814  12.296
37424W        W 9007   2.508   6.283   1.902
37425W        W 9008  35.955  37.763  14.400
37426W        W 9009  26.895  14.148   3.407
37427W        W 9010  33.489  15.178  10.794
37428W        W 9011  33.013   9.786  11.856
37429W        W 9012  27.689  25.009  11.068
37430W        W 9013  40.086  15.239  12.973
37431W        W 9014  15.507  17.480  13.344
37432W        W 9015   6.735  39.801  12.970
37433W        W 9016  29.645   5.738   2.179
37434W        W 9017  24.150  29.332  14.859
37435W        W 9018   8.640  13.426  13.557
37436W        W 9019   7.713  42.092   4.546
37437W        W 9020  22.517  22.622  13.346
37438W        W 9021  42.960  13.199  13.772
37439W        W 9022  19.502  18.619   5.122
37440W        W 9023  33.995  41.103  10.681
37441W        W 9024   0.310   3.368  10.561
37442W        W 9025   0.192  31.382  12.480
37443W        W 9026  21.044   2.195  14.002
37444W        W 9027  36.906  18.782   0.530
37445W        W 9028  37.045  30.560   0.942
37446W        W 9029   7.293  39.018  12.612
37447W        W 9030  16.242  16.691  11.067
37448W        W 9031  37.403  42.321  12.966
37449W        W 9032  31.656  40.513  12.523
37450W        W 9033  26.558  36.088  12.022
37451W        W 9034  30.913  18.504  13.799
37452W        W 9035  33.073  36.157  13.398
37453W        W 9036  16.146  16.238   1.830
37454W        W 9037  31.338   3.198   2.233
37455W        W 9038  38.347   2.489   2.241
37456W        W 9039  34.419  34.069   4.596
37457W        W 9040   6.254  14.236  10.302
37458W        W 9041   1.340  38.971   0.354
37459W        W 9042  42.817   2.665  12.556
37460W        W 9043  38.514  14.895   3.751
37461W        W 9044  27.894   1.270  14.978
37462W        W 9045  27.605  17.220  11.825
37463W        W 9046  11.830   8.413  12.110
37464W        W 9047  43.249  42.831   4.565
37465W        W 9048  13.822  14.120  12.847
37466W        W 9049   0.503  34.607  11.200
37467W        W 9050  10.727  34.727   4.252
37468W        W 9051   4.729  18.228   4.198
37469W        W 9052   5.775  43.626   4.034
37470W        W 9053  23.792  32.395   4.295
37471W        W 9054  39.830  19.784   1.267
37472W        W 9055  39.331  18.678  10.959
37473W        W 9056  19.486  31.148  11.540
37474W        W 9057  44.916  14.701  14.401
37475W        W 9058   2.506  31.673   4.521
37476W        W 9059   4.394  21.254   0.275
37477W        W 9060  26.523   7.929  12.469
37478W        W 9061   4.924  12.747  11.838
37479W        W 9062  20.158  41.454   1.267
37480W        W 9063  15.638  35.978   0.302
37481W        W 9064  38.928  12.826  14.465
37482W        W 9065  11.861  42.988  13.101
37483W        W 9066  13.040  13.200   4.168
37484W        W 9067   0.474   1.955  13.936
37485W        W 9068   7.750   0.901   4.607
37486W        W 9069  15.872  37.812   0.025
37487W        W 9070   9.861  17.766   2.820
37488W        W 9071  29.458  11.468   4.545
37489W        W 9072  33.974  42.489  11.861
37490W        W 9073  19.335  21.582  12.055
37491W        W 9074   0.560  35.633   0.742
37492W        W 9075  24.751  41.548   0.792
37493W        W 9076  28.977  34.478   9.649
37494W        W 9077  42.063  44.778   1.440
37495W        W 9078  11.870   1.377   1.939
37496W        W 9079  25.225  19.974   1.674
37497W        W 9080   6.441  30.596  11.433
37498W        W 9081  18.773   6.799  13.110
37499W        W 9082  35.466  39.330  13.458
37500W        W 9083   2.017  41.005   0.738
37501W        W 9084  18.774   5.405   0.859
37502W        W 9085  29.350   1.694  11.003
37503W        W 9086  35.620  11.346  11.116
37504W        W 9087  44.852  16.762  13.173
37505W        W 9088  27.197  26.487   3.672
37506W        W 9089  35.760  10.846  10.972
37507W        W 9090   8.584  30.028  10.581
37508W        W 9091   7.774   3.143  13.504
37509W        W 9092  25.231  29.128   3.920
37510W        W 9093  32.115   3.867  10.682
37511W        W 9094  42.800  24.049  14.575
37512W        W 9095   2.320   1.428   2.852
37513W        W 9096  25.874  42.227  14.954
37514W        W 9097   2.012  36.963   4.679
37515W        W 9098  21.180  34.730  13.600
37516W        W 9099  19.748  23.679   2.337
37517W        W 9100  11.703  31.032  10.961
37518W        W 9101  23.195  16.980   2.258
37519W        W 9102  15.857   9.799  12.965
37520W        W 9103   2.994  37.642   0.258
37521W        W 9104  37.010   6.818   0.275
37522W        W 9105   4.385  24.470  14.501
37523W        W 9106  29.563   7.892   0.411
37524W        W 9107   2.674  33.982  12.048
37525W        W 9108  24.180  39.096   2.668
37526W        W 9109   0.894  38.068  13.500
37527W        W 9110  19.771  36.944  14.271
37528W        W 9111  26.940  42.581   0.681
37529W        W 9112   8.667  15.260  10.639
37530W        W 9113  40.756  30.852   3.030
37531W        W 9114  36.250  27.238   0.180
37532W        W 9115  10.355   1.196   1.341
37533W        W 9116  19.074  26.666   2.387
37534W        W 9117  41.039   6.139   2.218
37535W        W 9118   6.007  44.166  12.899
37536W        W 9119  42.020  18.678   1.658
37537W        W 9120   4.363  16.682   3.310
37538W        W 9121   5.979  32.442   4.899
37539W        W 9122  41.352  27.352   4.807
37540W        W 9123  41.318  35.392   2.150
37541W        W 9124  21.547  20.079  13.661
37542W        W 9125   2.364  24.958   4.637
37543W        W 9126  10.916   0.914  13.886
37544W        W 9127  12.254   3.839   2.682
37545W        W 9128  12.637  11.148   3.174
37546W        W 9129  12.854  29.446   4.221
37547W        W 9130   8.281  31.115   0.862
37548W        W 9131  41.386   1.437   2.165
37549W        W 9132  12.435   5.069  11.113
37550W        W 9133   5.187  11.174   3.712
37551W        W 9134  30.357  41.934  13.057
37552W        W 9135  24.080  16.648  12.139
37553W        W 9136  25.557  27.966   2.466
37554W        W 9137  20.674  38.078  13.723
37555W        W 9138  14.709  23.118   0.589
37556W        W 9139  34.855  38.829   4.940
37557W        W 9140  28.235   3.897  12.988
37558W        W 9141  28.580  33.407   1.200
37559W        W 9142  32.454   4.703  12.448
37560W        W 9143  15.625   2.239   4.160
37561W        W 9144   9.437  39.101  10.711
37562W        W 9145  34.497   3.261  13.884
37563W        W 9146  43.226  27.490   1.274
37564W        W 9147   5.208  20.566  10.473
37565W        W 9148  36.375  20.344  13.327
37566W        W 9149   8.841  28.563  14.873
37567W        W 9150  36.441  17.615   0.799
37568W        W 9151  27.119  30.180   3.272
37569W        W 9152   9.738  24.203  11.307
37570W        W 9153   3.919  40.048  11.185
37571W        W 9154  15.623  38.546  11.615
37572W        W 9155  33.863  15.302   1.332
37573W        W 9156  27.864  44.972  11.429
37574W        W 9157  33.639  28.147  13.259
37575W        W 9158   8.566  31.693  13.580
37576W        W 9159  40.774  14.335  14.034
37577W        W 9160  35.018  32.275   3.170
37578W        W 9161   3.812  19.225   4.976
37579W        W 9162  27.535   1.968   2.757
37580W        W 9163   3.917  31.610   3.655
37581W        W 9164  28.452  11.761  13.287
37582W        W 9165   8.286  38.816   2.315
37583W        W 9166  40.711  27.901   0.735
37584W        W 9167  19.246   7.779  14.111
37585W        W 9168  13.926  40.961  11.433
37586W        W 9169   5.889  13.845   4.281
37587W        W 9170  13.994  21.071   2.030
37588W        W 9171  11.784  32.873  13.175
37589W        W 9172  37.283  20.314  12.473
37590W        W 9173  13.232  12.317   1.256
37591W        W 9174  33.367  42.140   0.639
37592W        W 9175  32.613  37.845  13.754
37593W        W 9176   4.190  26.641   2.785
37594W        W 9177  38.741  22.279  12.936
37595W        W 9178  11.415  29.520   2.092
37596W        W 9179  23.924  34.593  10.758
37597W        W 9180  32.666  21.642  12.091
37598W        W 9181  32.658  12.908   3.314
37599W        W 9182  24.282  41.696   0.602
37600W        W 9183  33.293  23.869  11.044
37601W        W 9184  13.596  26.921  11.580
37602W        W 9185  25.477  12.538   1.388
37603W        W 9186  43.944   1.421   4.253
37604W        W 9187   0.952  10.650  10.678
37605W        W 9188  12.620  20.502  13.343
37606W        W 9189   6.384  44.364  14.289
37607W        W 9190  23.688  21.704   0.448
37608W        W 9191  19.170   6.203  14.963
37609W        W 9192  15.241   1.681   0.512
37610W        W 9193  21.701  18.107   0.512
37611W        W 9194  43.308   6.386   3.215
37612W        W 9195  29.277  10.440   4.304
37613W        W 9196  24.715  40.623   1.846
37614W        W 9197  20.865  43.411   3.231
37615W        W 9198  37.558   7.038  12.302
37616W        W 9199  13.046  12.742  10.113
37617W        W 9200   1.996   0.252  13.853
37618W        W 9201  43.380  24.978   0.327
37619W        W 9202   8.301   8.005  11.140
37620W        W 9203   0.979   1.215  13.444
37621W        W 9204  30.035  18.274   4.661
37622W        W 9205  16.284  20.701  13.972
37623W        W 9206  31.262  42.275  13.053
37624W        W 9207  37.320  17.552  11.240
37625W        W 9208  33.720   8.612   4.703
37626W        W 9209  33.614  33.415  12.046
37627W        W 9210  10.368  38.107  13.100
37628W        W 9211   9.222  19.983  12.409
37629W        W 9212  40.646  34.429  10.259
37630W        W 9213   0.235  30.163   2.304
37631W        W 9214   0.450   0.701  12.848
37632W        W 9215   5.766  30.524  13.827
37633W        W 9216  43.919   0.607  11.434
37634W        W 9217  21.625  34.652  10.543
37635W        W 9218  13.102  22.531  14.915
37636W        W 9219  22.093  11.548   3.221
37637W        W 9220  27.270  37.929  11.455
37638W        W 9221   5.692  28.082   1.305
37639W        W 9222  39.763  43.797   0.722
37640W        W 9223  20.678  21.574  12.184
37641W        W 9224  26.437  36.635   0.764
37642W        W 9225  24.192  10.645   0.354
37643W        W 9226  26.598  23.519  14.979
37644W        W 9227  28.200  17.142   2.259
37645W        W 9228   6.475   7.998   0.638
37646W        W 9229  21.675  19.534   4.756
37647W        W 9230  27.692  11.393   2.200
37648W        W 9231   0.841  16.183   4.666
37649W        W 9232  12.225  10.103   2.827
37650W        W 9233  22.324  33.936   0.948
37651W        W 9234   7.201  26.123  14.581
37652W        W 9235  44.032  44.424   0.968
37653W        W 9236  14.844  38.215  12.063
37654W        W 9237   8.611   7.634   4.543
37655W        W 9238  37.642  10.541  14.623
37656W        W 9239  13.427   2.180  13.085
37657W        W 9240   1.534  25.569   4.592
37658W        W 9241  19.552  11.607  10.405
37659W        W 9242  21.021  13.088   0.888
37660W        W 9243  17.208  28.584   3.659
37661W        W 9244  37.588   1.774   2.863
37662W        W 9245   5.267   5.200   1.328
37663W        W 9246  19.059  36.760  12.950
37664W        W 9247   2.650   6.330   2.876
37665W        W 9248  41.659   2.325   2.300
37666W        W 9249  23.377  12.752  12.114
37667W        W 9250   4.432   6.155   0.737
37668W        W 9251  27.569  36.917  11.350
37669W        W 9252  40.256  10.353  10.651
37670W        W 9253  44.004   7.061   2.891
37671W        W 9254   2.040  21.583  10.406
37672W        W 9255  28.925   7.101  14.709
37673W        W 9256  15.821  16.276  12.147
37674W        W 9257  16.446  39.058   2.434
37675W        W 9258   2.433  42.333   1.887
37676W        W 9259  27.988   3.928   4.112
37677W        W 9260  39.063   2.732   3.773
37678W        W 9261  14.618  25.612   3.822
37679W        W 9262  27.089   5.256   0.074
37680W        W 9263  17.096  27.400   0.678
37681W        W 9264  42.710  28.441   1.459
37682W        W 9265  16.308  38.545   3.712
37683W        W 9266  10.155  31.470  14.950
37684W        W 9267  15.754  27.565  12.426
37685W        W 9268   6.826  44.404  11.517
37686W        W 9269  42.353   5.470   4.706
37687W        W 9270  42.889  40.635   3.655
37688W        W 9271  34.136  25.921   1.522
37689W        W 9272   8.890   8.470   3.192
37690W        W 9273  25.639  20.565   3.560
37691W        W 9274  31.599  17.629  13.568
37692W        W 9275  32.680  26.532  12.626
37693W        W 9276  44.492  34.444  12.528
37694W        W 9277  27.176  14.111  12.506
37695W        W 9278   0.839   0.492   4.331
37696W        W 9279   6.263   9.954  12.032
37697W        W 9280  16.628  11.588   4.079
37698W        W 9281  19.506  44.990   1.790
37699W        W 9282  26.102  33.363   2.747
37700W        W 9283   9.578  44.406  11.095
37701W        W 9284  42.001  33.730   4.294
37702W        W 9285   0.560  26.648   3.800
37703W        W 9286   1.215  28.457   1.187
37704W        W 9287  18.614  21.107  12.931
37705W        W 9288  34.998  33.258   4.723
37706W        W 9289  10.906  24.941   3.558
37707W        W 9290  35.382   0.377   3.884
37708W        W 9291  20.144  26.706  14.048
37709W        W 9292  25.981  37.876   3.728
37710W        W 9293   0.024  36.723   2.587
37711W        W 9294  10.181   0.323   4.046
37712W        W 9295   7.049   7.234  13.500
37713W        W 9296   4.825  35.808   2.205
37714W        W 9297   2.970  13.356   4.904
37715W        W 9298  32.999  18.332  11.927
37716W        W 9299  31.434  23.054   0.847
37717W        W 9300  18.256  14.242   0.703
37718W        W 9301  33.966  25.176   2.222
37719W        W 9302   1.303  16.709  10.643
37720W        W 9303  29.662  26.695   1.829
37721W        W 9304  44.090  24.994   4.784
37722W        W 9305   4.632   7.232  13.021
37723W        W 9306  15.076  39.414   2.357
37724W        W 9307   8.776  35.594  12.510
37725W        W 9308  13.740   1.267   4.133
37726W        W 9309  29.233  31.564   0.512
37727W        W 9310  36.385  18.529  12.070
37728W        W 9311   8.678  23.759   3.687
37729W        W 9312   4.552  10.958   2.853
37730W        W 9313  44.027  37.002   1.267
37731W        W 9314  13.714   7.386  11.739
37732W        W 9315   8.591  40.778   1.288
37733W        W 9316  38.033  17.209  14.622
37734W        W 9317  20.009   0.097   1.878
37735W        W 9318   9.758  37.157  12.600
37736W        W 9319  13.282  31.687   4.726
37737W        W 9320  19.502  23.900   5.070
37738W        W 9321   4.625  38.413   0.907
37739W        W 9322  32.158   4.177  11.531
37740W        W 9323  35.482  12.322  12.943
37741W        W 9324  28.956  38.928   2.358
37742W        W 9325  29.605  12.918   1.691
37743W        W 9326   3.897  15.464  12.402
37744W        W 9327  27.348   4.812   0.258
37745W        W 9328  29.675  31.572  10.663
37746W        W 9329  20.492  17.724  12.076
37747W        W 9330  34.049   2.031  12.078
37748W        W 9331  31.111  10.321  14.475
37749W        W 9332  20.058  36.190  10.566
37750W        W 9333  11.278   2.421   4.817
37751W        W 9334  26.395  28.072   2.756
37752W        W 9335  33.629  18.657   2.142
37753W        W 9336  44.777  42.727   3.707
37754W        W 9337  42.400  23.063   2.722
37755W        W 9338  13.682  18.132   2.149
37756W        W 9339  19.583  18.566  10.696
37757W        W 9340   5.678  27.524  13.126
37758W        W 9341  25.061   8.465  11.069
37759W        W 9342  43.038  14.504  11.895
37760W        W 9343   4.753   8.295   3.580
37761W        W 9344  11.260  12.363   2.304
37762W        W 9345  11.838  40.843   3.120
37763W        W 9346  17.848  26.941   1.243
37764W        W 9347  38.539  34.837   3.672
37765W        W 9348  19.971  32.642  14.950
37766W        W 9349  32.444  37.412   2.038
37767W        W 9350  22.207  19.567   5.386
37768W        W 9351  30.900   0.982   3.656
37769W        W 9352  40.046   6.358   1.731
37770W        W 9353  21.702   8.714   0.812
37771W        W 9354  21.957  44.446   0.498
37772W        W 9355   1.980  32.931   1.432
37773W        W 9356  39.889   9.596   3.510
37774W        W 9357  15.161   9.216   2.395
37775W        W 9358  22.736  22.641   4.558
37776W        W 9359  14.584  16.564   3.147
37777W        W 9360  27.020  41.713   0.920
37778W        W 9361  28.536  24.059  12.837
37779W        W 9362  14.341   6.455  10.678
37780W        W 9363  22.685  26.838  10.135
37781W        W 9364  19.272   5.003   3.861
37782W        W 9365  24.668  43.896  13.891
37783W        W 9366   1.567  32.173   1.373
37784W        W 9367  37.374  12.279   3.823
37785W        W 9368   1.566   6.794   1.346
37786W        W 9369  27.789  38.399   1.766
37787W        W 9370  24.590  20.496  13.075
37788W        W 9371  42.094  22.171  12.795
37789W        W 9372  19.461  33.903   0.463
37790W        W 9373   3.254  30.089   4.183
37791W        W 9374  42.404  23.056   4.338
37792W        W 9375  25.512  25.261   4.735
37793W        W 9376  23.621  37.803   1.862
37794W        W 9377  12.052  30.165  13.069
37795W        W 9378  23.557  31.323  12.090
37796W        W 9379   1.933  42.269  10.726
37797W        W 9380  16.081   2.060   2.328
37798W        W 9381  19.511  37.508  11.624
37799W        W 9382  31.999  41.225  12.194
37800W        W 9383  15.513  32.068  13.029
37801W        W 9384  21.880  33.019   0.730
37802W        W 9385  44.456  26.861   2.977
37803W        W 9386   7.366  24.724   2.209
37804W        W 9387   3.710  23.965   2.949
37805W        W 9388  37.682  14.071   3.291
37806W        W 9389  37.856  30.820   1.811
37807W        W 9390  39.264  17.987   0.320
37808W        W 9391  15.125  18.963  12.378
37809W        W 9392  29.668  17.147  11.551
37810W        W 9393  27.601  21.769   1.730
37811W        W 9394  29.029  32.387  13.157
37812W        W 9395  15.610  35.948  12.820
37813W        W 9396  10.271  26.235   1.790
37814W        W 9397  19.363  10.850   2.138
37815W        W 9398  38.858  17.070   0.384
37816W        W 9399  39.618  43.416   3.105
37817W        W 9400  26.417  25.007   1.278
37818W        W 9401   2.920  38.041  10.720
37819W        W 9402   6.790  35.980  14.153
37820W        W 9403  25.937  26.648   0.923
37821W        W 9404  12.432  10.001  14.259
37822W        W 9405  11.815   9.847   3.796
37823W        W 9406  24.875  14.053   2.371
37824W        W 9407   8.089  19.370   3.154
37825W        W 9408  43.945  31.356  13.600
37826W        W 9409  15.861  38.481   3.047
37827W        W 9410   0.223  11.233  12.437
37828W        W 9411   9.916  32.825  11.937
37829W        W 9412  17.585  43.924  11.838
37830W        W 9413  28.591  15.336   2.370
37831W        W 9414  42.668  12.579  12.247
37832W        W 9415  26.492  24.243  14.410
37833W        W 9416  17.235   4.004   1.614
37834W        W 9417  15.843  16.735   4.943
37835W        W 9418  12.103  32.091   2.911
37836W        W 9419   1.243  19.715   4.194
37837W        W 9420  13.006  24.586   2.407
37838W        W 9421  38.103  10.650  11.432
37839W        W 9422  23.207  31.765   1.666
37840W        W 9423  10.089  14.228  14.696
37841W        W 9424  41.670  14.435  11.422
37842W        W 9425  22.216  27.209   2.588
37843W        W 9426  20.612  39.515  10.359
37844W        W 9427  43.618  37.078   0.380
37845W        W 9428  15.620  14.759   5.036
37846W        W 9429  12.173   0.087   1.048
37847W        W 9430  38.826   8.176   9.716
37848W        W 9431  20.968  30.229   1.358
37849W        W 9432  23.802  42.555   4.541
37850W        W 9433   8.033  21.545   0.689
37851W        W 9434   2.268  15.295   2.401
37852W        W 9435  36.469  22.320  14.855
37853W        W 9436   3.883   5.635   3.527
37854W        W 9437  12.369  24.038  12.059
37855W        W 9438   3.742   6.322  12.957
37856W        W 9439  12.818  26.420  14.535
37857W        W 9440  42.306  34.955   4.353
37858W        W 9441   1.926   2.827  11.668
37859W        W 9442   2.336  31.488  13.727
37860W        W 9443  32.553  10.016   2.221
37861W        W 9444  20.149  15.855   9.979
37862W        W 9445  30.696  29.756   0.232
37863W        W 9446   6.120  20.358  13.279
37864W        W 9447   8.357  39.536  13.027
37865W        W 9448  42.492  10.181   3.511
37866W        W 9449  35.074  17.643   3.226
37867W        W 9450  12.825   8.719  13.994
37868W        W 9451  14.041  35.466  11.112
37869W        W 9452  22.157   9.069  14.968
37870W        W 9453  29.015  24.208  10.368
37871W        W 9454   4.598  35.057   1.600
37872W        W 9455  42.049  10.351   3.722
37873W        W 9456  10.766  18.920  10.721
37874W        W 9457  11.865  41.452   1.533
37875W        W 9458  24.113  37.869  14.752
37876W        W 9459  33.632   4.242   1.465
37877W        W 9460   6.221  27.692   0.013
37878W        W 9461  13.579  10.060   3.238
37879W        W 9462  35.493  23.516  11.629
37880W        W 9463  38.934   4.229  13.905
37881W        W 9464  33.321  21.589   2.817
37882W        W 9465  16.724   7.176   0.018
37883W        W 9466  34.290  37.863  14.359
37884W        W 9467   6.712   2.200   0.089
37885W        W 9468   8.575  38.585  11.944
37886W        W 9469  19.086  24.988  12.514
37887W        W 9470  14.737  37.751   4.664
37888W        W 9471  19.440   0.043  11.148
37889W        W 9472   7.624  14.145  12.675
37890W        W 9473  21.250  20.185   4.063
37891W        W 9474  32.274  44.921   0.423
37892W        W 9475  39.085   4.291  11.124
37893W        W 9476  39.997  19.328  11.165
37894W        W 9477  14.172  40.583   0.749
37895W        W 9478  23.579  39.326   3.759
37896W        W 9479  44.120   1.347   1.773
37897W        W 9480  13.660  18.182   1.640
37898W        W 9481  34.113  35.997   3.791
37899W        W 9482  34.087  10.737  12.928
37900W        W 9483  11.807  40.985  12.177
37901W        W 9484   7.279  42.843  14.576
37902W        W 9485  33.366  33.360  11.597
37903W        W 9486  43.272  35.875   2.642
37904W        W 9487   5.883  35.978  11.153
37905W        W 9488   1.327   4.165   4.303
37906W        W 9489  24.533  25.922  11.166
37907W        W 9490  38.128  23.850  11.602
37908W        W 9491  43.646  25.289  11.960
37909W        W 9492  33.535   1.461  14.684
37910W        W 9493  18.126  25.719  10.736
37911W        W 9494  21.412  20.673   4.543
37912W        W 9495  36.022  43.565   4.635
37913W        W 9496  12.172  33.266  11.947
37914W        W 9497  44.089  23.696  14.385
37915W        W 9498  32.393  23.575  12.493
37916W        W 9499  31.678  39.049   1.869
37917W        W 9500  19.186  13.222  12.561
37918W        W 9501  20.133  41.555  10.576
37919W        W 9502  37.918   2.399   1.445
37920W        W 9503   6.217  12.669  11.048
37921W        W 9504   5.988  42.760   5.165
37922W        W 9505  34.169  11.711  13.807
37923W        W 9506  23.959  28.740  13.509
37924W        W 9507  16.765  35.546   3.696
37925W        W 9508  16.054  31.639   2.727
37926W        W 9509  23.296  43.477   3.831
37927W        W 9510  12.876   2.330  13.963
37928W        W 9511  26.237  38.955  14.414
37929W        W 9512  17.771  34.657  14.875
37930W        W 9513  18.072  39.297   1.536
37931W        W 9514  22.203  25.184  10.891
37932W        W 9515  23.078  18.751   4.535
37933W        W 9516  41.293  36.408   3.534
37934W        W 9517  32.669  16.110   1.372
37935W        W 9518  24.270  32.496  11.940
37936W        W 9519  41.518  42.884   4.194
37937W        W 9520  38.934  19.527  13.797
37938W        W 9521  22.515  32.623  13.420
37939W        W 9522  18.564   2.818  14.433
37940W        W 9523  17.037   2.687   3.295
37941W        W 9524   7.917  24.662  11.070
37942W        W 9525  16.130  36.470   2.773
37943W        W 9526  25.637   1.151   3.877
37944W        W 9527   8.771  25.167  13.293
37945W        W 9528  43.333  23.751   0.845
37946W        W 9529  44.324  41.016  11.984
37947W        W 9530  16.691  43.088  10.536
37948W        W 9531  30.490  20.921  12.002
37949W        W 9532   5.814  27.606   3.110
37950W        W 9533  17.037  41.179  10.432
37951W        W 9534  25.135  40.432  10.985
37952W        W 9535  33.015  16.254   4.408
37953W        W 9536  35.935   6.813  13.733
37954W        W 9537  21.637  17.834  12.461
37955W        W 9538  23.737  26.656  11.046
37956W        W 9539  24.993  18.684  13.911
37957W        W 9540  10.434  21.619   0.576
37958W        W 9541  24.519  43.947  14.397
37959W        W 9542  27.680  24.052  10.866
37960W        W 9543   3.681  32.821  13.588
37961W        W 9544  31.982  20.246  13.326
37962W        W 9545  26.278  26.272  13.286
37963W        W 9546   2.829  25.194   0.223
37964W        W 9547  32.556  29.358  10.475
37965W        W 9548  41.467  20.166  12.418
37966W        W 9549  21.537  33.185  12.045
37967W        W 9550   4.111  42.716  13.924
37968W        W 9551  38.324   6.189   5.118
37969W        W 9552   1.665  31.953  11.144
37970W        W 9553  27.900  21.030   4.814
37971W        W 9554   4.176   1.506   2.753
37972W        W 9555   5.351  10.728  10.453
37973W        W 9556   6.525   6.176  13.854
37974W        W 9557   9.071  41.027  14.086
37975W        W 9558  35.639  43.812   0.996
37976W        W 9559  24.615  37.697  13.341
37977W        W 9560  41.070  32.413   2.952
37978W        W 9561  29.674  21.418  12.872
37979W        W 9562  41.563   4.490  14.985
37980W        W 9563  13.884   9.713  11.453
37981W        W 9564  18.630   4.915   0.956
37982W        W 9565  26.707  31.064  11.583
37983W        W 9566  31.389  43.739   2.265
37984W        W 9567  14.383  37.849   3.827
37985W        W 9568  39.401  24.923  11.103
37986W        W 9569   2.750   2.458  12.879
37987W        W 9570  35.878  11.575   1.432
37988W        W 9571   2.054  43.270   4.614
37989W        W 9572  21.756  29.553   3.359
37990W        W 9573  38.919  35.487   2.562
37991W        W 9574   1.738  25.838  10.934
37992W        W 9575   8.410  38.002   4.346
37993W        W 9576  28.006   9.765  12.877
37994W        W 9577  39.805  22.598   2.670
37995W        W 9578  12.765  26.903   0.335
37996W        W 9579  27.667  31.726  12.056
37997W        W 9580  20.681   1.855  13.079
37998W        W 9581  42.622   6.534  12.832
37999W        W 9582   4.183  33.255  10.346
38000W        W 9583  34.653  35.381  10.818
38001W        W 9584   7.653  29.881  10.172
38002W        W 9585  27.780  29.139  12.388
38003W        W 9586  41.046   7.371   2.626
38004W        W 9587   3.084  14.520   4.467
38005W        W 9588   3.628  34.112  14.943
38006W        W 9589   4.802   2.796  13.254
38007W        W 9590  30.124  37.052  12.948
38008W        W 9591  17.124  13.141  11.425
38009W        W 9592  44.838  37.623  13.363
38010W        W 9593  28.151  11.596  10.379
38011W        W 9594  30.603  36.371   4.132
38012W        W 9595  23.458  20.723   3.984
38013W        W 9596  39.373  39.931   2.214
38014W        W 9597  39.050  21.282   3.264
38015W        W 9598  38.045   8.817   4.663
38016W        W 9599   7.919  24.200  13.341
38017W        W 9600  38.883  26.952   4.501
38018W        W 9601  19.142   4.316  12.781
38019W        W 9602  28.397  28.958   4.991
38020W        W 9603  19.635   2.768   1.367
38021W        W 9604  24.770  40.979  12.642
38022W        W 9605  36.497  26.223  10.617
38023W        W 9606  38.262   3.257  12.478
38024W        W 9607   2.427   4.792   1.735
38025W        W 9608  14.513  23.621   1.410
38026W        W 9609  22.999  28.375   2.254
38027W        W 9610  19.826  14.847   4.124
38028W        W 9611  41.682  23.270  13.087
38029W        W 9612  15.424  10.189   3.301
38030W        W 9613   5.707  15.436   0.205
38031W        W 9614  23.679  39.261  13.309
38032W        W 9615  44.939  13.408  11.877
38033W        W 9616  34.697  22.816  10.086
38034W        W 9617   8.392  32.419   2.675
38035W        W 9618  36.944  16.839  12.168
38036W        W 9619  26.161  15.830   1.486
38037W        W 9620   0.690  28.472  14.117
38038W        W 9621  31.499  25.391  14.331
38039W        W 9622  40.738  10.063  11.513
38040W        W 9623   7.429  11.860   3.522
38041W        W 9624  17.671  42.983  12.207
38042W        W 9625  14.882  32.547  12.132
38043W        W 9626   2.818  28.865  11.622
38044W        W 9627  37.457   0.973  12.814
38045W        W 9628   9.487  16.594  10.660
38046W        W 9629  18.138   9.080  14.425
38047W        W 9630   3.177  24.698   0.925
38048W        W 9631  41.377  19.646   4.186
38049W        W 9632  33.449  21.343  11.650
38050W        W 9633  18.070   8.157   4.579
38051W        W 9634  25.143  14.068   3.428
38052W        W 9635   8.256  34.074   3.743
38053W        W 9636  43.475  42.462   0.218
38054W        W 9637  31.561  22.052  14.858
38055W        W 9638  34.596  14.033   0.822
38056W        W 9639  16.219  38.000  12.175
38057W        W 9640  20.066  10.299  12.881
38058W        W 9641  17.209  33.616   0.968
38059W        W 9642  25.708  28.097  14.877
38060W        W 9643  27.989  37.570   3.853
38061W        W 9644  35.859   2.457  13.240
38062W        W 9645  25.858  13.567  14.721
38063W        W 9646  32.932  26.014  11.398
38064W        W 9647  27.578  43.088  11.984
38065W        W 9648  28.022  17.394   0.301
38066W        W 9649   5.031   6.643   2.353
38067W        W 9650  38.290  28.431  12.468
38068W        W 9651  24.905   2.548  13.722
38069W        W 9652  42.075   8.466  14.947
38070W        W 9653  35.874   6.300   2.251
38071W        W 9654  20.168  19.619   3.271
38072W        W 9655  18.608  42.197   0.338
38073W        W 9656  43.219   0.640   2.641
38074W        W 9657   5.483  32.165   4.588
38075W        W 9658  13.508  16.910  14.626
38076W        W 9659   5.827  10.676  13.242
38077W        W 9660  11.923  13.034   0.779
38078W        W 9661  30.517  34.582  10.531
38079W        W 9662  27.132  38.720   1.353
38080W        W 9663  35.917  29.581  11.668
38081W        W 9664  19.138   9.161   1.851
38082W        W 9665   8.351  10.783   3.856
38083W        W 9666  26.465   1.176   0.381
38084W        W 9667  17.725  23.677   5.100
38085W        W 9668  21.911  31.638   4.612
38086W        W 9669   4.911   5.833   4.181
38087W        W 9670  22.122  44.922  13.777
38088W        W 9671   3.527  19.706   2.097
38089W        W 9672   1.940  14.335   1.483
38090W        W 9673  13.533  12.779  14.407
38091W        W 9674  26.604  28.728   1.967
38092W        W 9675   1.355  32.203   4.482
38093W        W 9676   7.204  31.810  12.941
38094W        W 9677  28.988  18.112  14.315
38095W        W 9678  20.616  13.945   2.227
38096W        W 9679  32.033  31.195  13.256
38097W        W 9680  14.325  44.555  12.508
38098W        W 9681  11.813  12.266  14.569
38099W        W 9682   2.348   4.675  11.657
38100W        W 9683  24.674  32.958   0.259
38101W        W 9684   6.182   6.689   3.772
38102W        W 9685  14.693  42.870  12.798
38103W        W 9686   2.387  22.423  10.779
38104W        W 9687  17.831  44.747   2.758
38105W        W 9688  28.456  44.843   4.577
38106W        W 9689  25.492  29.130  11.970
38107W        W 9690  30.453  43.794  14.395
38108W        W 9691  28.150  35.956  11.140
38109W        W 9692  27.832  12.832   4.520
38110W        W 9693   5.746  35.062   3.344
38111W        W 9694   1.916  42.929  12.526
38112W        W 9695  36.482  39.455  12.048
38113W        W 9696  39.330  13.168  13.924
38114W        W 9697  36.880  28.893  14.930
38115W        W 9698  14.291   6.510  13.444
38116W        W 9699  25.502  19.280  14.375
38117W        W 9700   5.234  38.340  11.617
38118W        W 9701  14.252  43.902   0.774
38119W        W 9702  43.056   2.052  12.045
38120W        W 9703  14.574  34.622  14.800
38121W        W 9704  43.846  37.082   3.848
38122W        W 9705  37.132  39.686  11.542
38123W        W 9706  18.233   7.217   4.334
38124W        W 9707  44.446  21.049  10.888
38125W        W 9708  14.172  13.746   3.172
38126W        W 9709  20.997  23.149  13.916
38127W        W 9710  30.574  13.438  14.303
38128W        W 9711  32.950   9.782   1.861
38129W        W 9712  43.537  31.202  13.303
38130W        W 9713   2.170  14.678   1.826
38131W        W 9714  37.104  44.907  12.647
38132W        W 9715  34.386  25.698  12.473
38133W        W 9716  30.884  36.347  14.306
38134W        W 9717  16.172  39.929   4.984
38135W        W 9718  32.642  15.309   2.346
38136W        W 9719  36.963  20.373   2.912
38137W        W 9720   4.002  41.318   1.973
38138W        W 9721   2.285  42.802   4.630
38139W        W 9722  38.368  43.494  13.456
38140W        W 9723   6.356  40.037   0.451
38141W        W 9724  43.329   8.094   2.222
38142W        W 9725  26.148  35.121   1.213
38143W        W 9726   8.796  17.741   4.629
38144W        W 9727  31.428  38.329   0.624
38145W        W 9728   2.994   2.794   0.335
38146W        W 9729  12.706  33.486   2.611
38147W        W 9730   5.086   4.028  11.169
38148W        W 9731  34.378  17.207  11.982
38149W        W 9732  32.133  21.767  14.876
38150W        W 9733  13.093   3.353  13.359
38151W        W 9734  30.515  18.740  14.054
38152W        W 9735   1.320  34.345  13.867
38153W        W 9736   9.848  10.448  12.436
38154W        W 9737   3.722   1.834   2.792
38155W        W 9738  21.859   8.370   2.176
38156W        W 9739   4.328  13.154   2.199
38157W        W 9740  10.658   0.487   3.881
38158W        W 9741  41.392   6.912   3.841
38159W        W 9742  10.160   9.575   2.308
38160W        W 9743  26.736  10.845  14.763
38161W        W 9744  32.689  39.259  14.347
38162W        W 9745  11.776  44.293   2.428
38163W        W 9746  29.046  37.488  11.032
38164W        W 9747   1.377  25.011  13.308
38165W        W 9748  15.936  28.109  11.121
38166W        W 9749  33.507   0.324  10.722
38167W        W 9750  23.321  39.808   2.856
38168W        W 9751  43.033  24.475   0.363
38169W        W 9752  17.860  25.799   2.445
38170W        W 9753  15.274  32.186  13.482
38171W        W 9754  32.119  35.291   0.189
38172W        W 9755  13.270  41.501   0.703
38173W        W 9756  25.497  24.912  12.981
38174W        W 9757  31.506  42.812  11.400
38175W        W 9758  17.035  21.731  12.407
38176W        W 9759  37.795  42.959   4.176
38177W        W 9760  23.037  28.985  12.061
38178W        W 9761  19.792  29.561   4.540
38179W        W 9762  17.644   9.224  12.993
38180W        W 9763  40.463   6.271   0.990
38181W        W 9764  41.088  15.074   2.598
38182W        W 9765  12.095  34.337   3.357
38183W        W 9766  36.813   9.565  12.772
38184W        W 9767  15.058  43.450  11.902
38185W        W 9768  17.591  18.079  12.939
38186W        W 9769   1.762  34.394  14.394
38187W        W 9770  41.007  34.134   0.824
38188W        W 9771   9.170   2.934  13.352
38189W        W 9772   3.686  18.417  13.084
38190W        W 9773  18.193  42.355  14.980
38191W        W 9774   4.665   0.196  11.648
38192W        W 9775  10.897   6.941   2.775
38193W        W 9776  26.913  33.400   1.460
38194W        W 9777  16.741   7.446   0.492
38195W        W 9778  16.276  22.152   3.295
38196W        W 9779  33.397   9.183  14.566
38197W        W 9780  21.282   3.276  12.121
38198W        W 9781  17.926   1.137   4.268
38199W        W 9782  41.883   5.493  10.494
38200W        W 9783  22.147  38.368  10.304
38201W        W 9784  39.147  42.265   4.131
38202W        W 9785  24.050  32.104   3.707
38203W        W 9786  31.969  19.161  10.538
38204W        W 9787  30.706  39.994   3.787
38205W        W 9788  19.422  21.274  12.444
38206W        W 9789   5.854  44.751  10.789
38207W        W 9790  35.417  31.519  14.308
38208W        W 9791  15.043  37.378   0.728
38209W        W 9792  40.238  24.606  14.926
38210W        W 9793  14.192  12.370   3.374
38211W        W 9794  34.054   9.908  13.569
38212W        W 9795  26.812  12.100  13.398
38213W        W 9796  23.724   7.764  10.333
38214W        W 9797  39.377  43.846   2.650
38215W        W 9798  10.853   6.358  13.999
38216W        W 9799  17.102   6.708   0.883
38217W        W 9800  33.280  34.812   4.154
38218W        W 9801  31.967   2.382  14.059
38219W        W 9802  24.622  26.805   3.426
38220W        W 9803  43.432  42.971   1.997
38221W        W 9804   3.183   6.770   3.163
38222W        W 9805  43.424  17.167   3.792
38223W        W 9806  36.944  28.026  12.963
38224W        W 9807  41.779  39.786  11.658
38225W        W 9808   1.047  33.501   1.693
38226W        W 9809   7.517   3.907  11.604
38227W        W 9810  30.474   2.941  13.350
38228W        W 9811   4.805  28.927   3.694
38229W        W 9812  19.018   2.954   0.527
38230W        W 9813  44.849  13.866  11.443
38231W        W 9814  38.857   0.929  11.831
38232W        W 9815  33.129  20.012   2.104
38233W        W 9816  24.043  28.615  14.454
38234W        W 9817  24.087  17.224   4.125
38235W        W 9818  40.522   8.105  14.045
38236W        W 9819  41.525   2.121   0.909
38237W        W 9820  18.623  24.083   4.278
38238W        W 9821  29.620   9.528  12.618
38239W        W 9822  12.927  37.031  10.905
38240W        W 9823  26.149  27.545   1.432
38241W        W 9824   1.233  10.766   4.283
38242W        W 9825  32.807   3.127   1.793
38243W        W 9826  27.287  29.713   1.215
38244W        W 9827  23.231  43.879  13.017
38245W        W 9828  13.759  40.592  12.126
38246W        W 9829   3.194  43.351   1.343
38247W        W 9830  32.147   7.246   4.023
38248W        W 9831  11.901  10.821   1.517
38249W        W 9832  44.004  27.615  13.952
38250W        W 9833  44.291  14.480  12.622
38251W        W 9834  39.818  14.779  12.067
38252W        W 9835  37.191  32.796   4.070
38253W        W 9836   8.730  33.870   3.588
38254W        W 9837  17.579  34.428  10.618
38255W        W 9838  21.176  14.899   0.351
38256W        W 9839  17.654  22.123  10.235
38257W        W 9840  41.500  44.462   3.681
38258W        W 9841   7.187  32.655  12.580
38259W        W 9842  20.625  34.155  10.982
38260W        W 9843   0.798   8.644   1.599
38261W        W 9844  43.779   2.315   4.617
38262W        W 9845   9.554  28.664  13.335
38263W        W 9846  40.228  12.290   1.186
38264W        W 9847  38.295   2.843  13.702
38265W        W 9848   1.737  36.983  14.954
38266W        W 9849  24.489  41.007  14.988
38267W        W 9850   2.482  22.199   1.418
38268W        W 9851  29.570  34.463   0.914
38269W        W 9852   5.589  38.511   1.833
38270W        W 9853  28.095  31.730   9.871
38271W        W 9854   9.899   9.304   0.497
38272W        W 9855   6.754   9.782  10.658
38273W        W 9856  33.947  34.110   1.797
38274W        W 9857  40.104   8.288  11.353
38275W        W 9858  37.419  17.204   4.608
38276W        W 9859   2.527  24.616  13.999
38277W        W 9860  27.568  10.669  13.757
38278W        W 9861  17.631  18.587  12.861
38279W        W 9862  35.900  24.950   2.409
38280W        W 9863  21.260  38.539  11.070
38281W        W 9864  28.092  33.440   3.279
38282W        W 9865  24.663  16.591   0.315
38283W        W 9866   8.935  11.881  11.245
38284W        W 9867  39.474  42.058  13.835
38285W        W 9868   8.400  34.205   2.269
38286W        W 9869  25.158   6.096   4.122
38287W        W 9870  16.740  22.799   9.886
38288W        W 9871  36.068  42.339  12.171
38289W        W 9872  17.086   2.117   4.082
38290W        W 9873  11.883  19.248  12.953
38291W        W 9874  17.243  33.893  12.604
38292W        W 9875  33.530  38.846  11.454
38293W        W 9876  11.855  12.909   1.950
38294W        W 9877   4.673  22.197   3.717
38295W        W 9878  18.184   0.033  14.019
38296W        W 9879  18.035  23.349   4.154
38297W        W 9880  41.255  17.449   2.084
38298W        W 9881  22.285  27.141   3.577
38299W        W 9882  17.646  37.335  10.998
38300W        W 9883  17.179   9.117   0.893
38301W        W 9884  17.774  35.168   4.141
38302W        W 9885   3.959  42.078  14.542
38303W        W 9886  17.082  36.424  11.133
38304W        W 9887  37.449  20.879   3.217
38305W        W 9888  16.325  32.391  13.413
38306W        W 9889   6.172  38.020  10.727
38307W        W 9890   6.094  40.223   0.876
38308W        W 9891  34.070  44.716  12.146
38309W        W 9892   3.158   9.442  14.337
38310W        W 9893  35.296  33.681   4.551
38311W        W 9894  34.437   7.837   3.148
38312W        W 9895   9.802  35.615   4.274
38313W        W 9896  29.881  19.014   0.853
38314W        W 9897  36.003   1.969  12.428
38315W        W 9898  37.809  20.270  14.855
38316W        W 9899  38.571  41.294  12.059
38317W        W 9900   0.322  35.832  11.959
38318W        W 9901  15.086  42.349   3.186
38319W        W 9902  14.073   7.076  11.098
38320W        W 9903  35.543  21.066   4.286
38321W        W 9904  28.081   3.670   0.430
38322W        W 9905  26.951  11.215  12.308
38323W        W 9906  19.267   0.983  12.604
38324W        W 9907  22.138  14.871   2.743
38325W        W 9908   4.764   2.716   2.741
38326W        W 9909  40.290  19.283   3.345
38327W        W 9910  41.334  25.718   1.398
38328W        W 9911  16.776  34.963  14.578
38329W        W 9912  38.386  20.821   1.250
38330W        W 9913   6.373  25.185   3.617
38331W        W 9914   9.630  18.152   4.560
38332W        W 9915  43.562  35.883  11.575
38333W        W 9916  14.958  26.988   1.415
38334W        W 9917  28.271  17.618  14.880
38335W        W 9918  34.880  43.054  11.617
38336W        W 9919   8.254   3.698   0.307
38337W        W 9920   1.194  32.993  12.522
38338W        W 9921  38.402  40.994   3.259
38339W        W 9922  21.118  11.766   3.588
38340W        W 9923   5.295   8.819   0.021
38341W        W 9924  43.270  44.840  11.064
38342W        W 9925  33.948   9.600   0.916
38343W        W 9926  26.021  42.227   3.774
38344W        W 9927  23.251  15.207   0.536
38345W        W 9928  34.108  20.072  12.024
38346W        W 9929   5.935  26.240   1.671
38347W        W 9930  33.134  40.751   3.761
38348W        W 9931  41.671   4.734   0.753
38349W        W 9932   4.838  32.967  11.128
38350W        W 9933  23.485  12.156  13.933
38351W        W 9934  31.992  15.410   5.023
38352W        W 9935  12.229  17.736   1.054
38353W        W 9936   3.929  27.803  12.689
38354W        W 9937  24.618   4.495  13.131
38355W        W 9938  23.965  23.791   9.704
38356W        W 9939  19.141  12.615  14.973
38357W        W 9940  39.354  25.192   4.762
38358W        W 9941  26.222  10.850   2.749
38359W        W 9942   9.104  39.067   1.739
38360W        W 9943  21.790   7.934   4.684
38361W        W 9944  35.478  33.497  14.830
38362W        W 9945  42.228  26.054  14.728
38363W        W 9946  16.597  22.690  12.068
38364W        W 9947  27.929  20.043  12.644
38365W        W 9948  20.169  29.196  13.918
38366W        W 9949  44.944  13.742   2.783
38367W        W 9950  27.762   8.568  14.491
38368W        W 9951  11.501  29.717  12.931
38369W        W 9952  36.875  31.571   0.302
38370W        W 9953  32.623  23.986   9.873
38371W        W 9954  35.443   3.178  14.567
38372W        W 9955  14.553  12.678  11.618
38373W        W 9956  21.229  39.794  12.458
38374W        W 9957  33.071  31.085  12.092
38375W        W 9958  30.461   0.878  13.510
38376W        W 9959  18.167  27.658  14.559
38377W        W 9960  34.979  44.274   2.206
38378W        W 9961  30.327  37.016  11.571
38379W        W 9962  23.741  43.980  10.446
38380W        W 9963   2.234  36.681  13.344
38381W        W 9964  11.491  27.173   1.936
38382W        W 9965   5.827  41.809   0.396
38383W        W 9966  43.196  13.027   0.844
38384W        W 9967   8.894  21.232   2.228
38385W        W 9968  35.309   3.879   0.771
38386W        W 9969  40.774  11.348   4.781
38387W        W 9970   5.338  10.797  13.308
38388W        W 9971  41.824  14.899  10.691
38389W        W 9972  12.724   4.807  14.283
38390W        W 9973  34.067  27.172   2.766
38391W        W 9974  16.855  41.921  11.420
38392W        W 9975  11.095  14.653   4.162
38393W        W 9976  29.019  34.994  11.048
38394W        W 9977   5.319  24.287   0.786
38395W        W 9978   9.305   1.335   0.072
38396W        W 9979  42.918  24.045   3.838
38397W        W 9980  12.766  15.213  12.672
38398W        W 9981   1.446  28.669   3.128
38399W        W 9982   3.141  41.587  11.633
38400W        W 9983  20.695  18.639   3.764
38401W        W 9984  41.058  21.812   1.744
38402W        W 9985  36.088   6.766   2.145
38403W        W 9986  30.983  36.142   2.597
38404W        W 9987  32.062   1.269   4.957
38405W        W 9988  26.948  29.388  10.337
38406W        W 9989  14.718   4.523  14.736
38407W        W 9990  38.280  21.926   0.823
38408W        W 9991   7.653  19.074   1.439
38409W        W 9992  38.893  43.915   4.206
38410W        W 9993  13.423   5.576  14.562
38411W        W 9994   0.883  12.120   2.642
38412W        W 9995   9.742  18.722  12.858
38413W        W 9996  22.695  41.751   3.327
38414W        W 9997  11.815  18.062  12.543
38415W        W 9998   8.159  13.854  12.989
38416W        W 9999  13.122  16.178   3.259
38417W        W10000  27.178  34.657  11.082
38418W        W10001  40.788  37.889   0.332
38419W        W10002  39.328  37.147  10.776
38420W        W10003  24.611   5.733   1.400
38421W        W10004  41.202  21.134  10.716
38422W        W10005  30.908   3.395   0.863
38423W        W10006  12.575  17.126  11.045
38424W        W10007  29.642  24.761  10.580
38425W        W10008  40.794  22.147  14.999
38426W        W10009  20.349  33.883  14.435
38427W        W10010  34.864   4.721  13.097
38428W        W10011  38.676  15.002   2.849
38429W        W10012  24.166  31.476   4.578
38430W        W10013  36.595  25.769   4.419
38431W        W10014  40.852   2.372  11.685
38432W        W10015  20.679  17.670  13.750
38433W        W10016  43.900  17.996  13.935
38434W        W10017  18.802  38.632  10.303
38435W        W10018  29.431   2.684   3.329
38436W        W10019  26.957  42.298   2.901
38437W        W10020  23.623  17.170   4.349
38438W        W10021   9.030  30.590  11.155
38439W        W10022  24.093  42.368  10.704
38440W        W10023  24.362  12.347   3.826
38441W        W10024  24.491  36.451   3.680
38442W        W10025   6.018  30.980   4.816
38443W        W10026  28.526   0.850   2.767
38444W        W10027   9.340   9.973   2.160
38445W        W10028  27.947  25.538  13.477
38446W        W10029  21.399  21.642  12.127
38447W        W10030  16.032  20.032  14.254
38448W        W10031  44.239   3.197  13.470
38449W        W10032  33.960  31.867  11.443
38450W        W10033  22.024  24.027   2.234
38451W        W10034  15.741  33.551  14.008
38452W        W10035  11.771  17.703   3.198
38453W        W10036   7.158  38.585   3.836
38454W        W10037  38.383   1.528   3.709
38455W        W10038   0.261   1.855  12.115
38456W        W10039  13.832  35.359   4.323
38457W        W10040  41.952  44.273   2.727
38458W        W10041  34.116   8.315   2.630
38459W        W10042   9.738   0.147   0.954
38460W        W10043  42.404   0.252  13.491
38461W        W10044  30.919  12.313   3.178
38462W        W10045  23.570  39.691   0.777
38463W        W10046  42.362  37.274  14.326
38464W        W10047  11.776  34.503  14.036
38465W        W10048   8.692  12.424  10.680
38466W        W10049  42.911  15.343   2.128
38467W        W10050  32.584   6.532  11.033
38468W        W10051  10.073  17.714   4.421
38469W        W10052  36.566  25.538  14.032
38470W        W10053   8.898  13.155  13.181
38471W        W10054   7.869  17.325   4.692
38472W        W10055  42.740  35.409  12.083
38473W        W10056  17.175  34.991   1.459
38474W        W10057  30.218  16.325   4.645
38475W        W10058  41.280  20.078  14.380
38476W        W10059   2.478  33.973   2.325
38477W        W10060  35.789   4.643   4.535
38478W        W10061  33.932  38.998  13.337
38479W        W10062  17.924  17.228   4.128
38480W        W10063  18.224  25.908  10.276
38481W        W10064   4.363  44.275   0.294
38482W        W10065  28.559  37.272  12.842
38483W        W10066  13.903  18.260  12.575
38484W        W10067  28.519  36.877  10.986
38485W        W10068  34.919  21.188   2.207
38486W        W10069  26.414  17.659   2.383
38487W        W10070  24.134  35.969  12.019
38488W        W10071  13.953   4.148   3.702
38489W        W10072  34.926   5.852   1.303
38490W        W10073  17.315  24.592  10.123
38491W        W10074   1.643  35.832   3.547
38492W        W10075  18.604   1.332  12.904
38493W        W10076  33.140  44.794  12.858
38494W        W10077  25.061  27.324   2.185
38495W        W10078  28.658  14.603  10.790
38496W        W10079  36.827   1.487  13.668
38497W        W10080  38.663  38.873  10.222
38498W        W10081  31.321  11.971   0.413
38499W        W10082  36.984  33.310  11.041
38500W        W10083  24.954  17.115   1.967
38501W        W10084  23.221  35.983   2.461
38502W        W10085  13.819  20.776   2.855
38503W        W10086  38.955  20.245   0.380
38504W        W10087  40.684  34.123  11.091
38505W        W10088  35.010  19.275  14.264
38506W        W10089  20.580  27.377  12.954
38507W        W10090  10.480  23.145   4.890
38508W        W10091  40.875  27.961   4.408
38509W        W10092  43.922  34.448  11.978
38510W        W10093  16.631  32.411   3.652
38511W        W10094  33.044   4.209  12.081
38512W        W10095  27.021  10.718   0.531
38513W        W10096  30.914  44.816   4.538
38514W        W10097  42.329  11.851  11.534
38515W        W10098   9.944   5.297   0.648
38516W        W10099  39.437   5.432   5.176
38517W        W10100  21.282  29.010   0.912
38518W        W10101  22.724   1.640   2.676
38519W        W10102  16.024  31.347  14.361
38520W        W10103  35.017  10.870  11.893
38521W        W10104  44.451  40.087  14.276
38522W        W10105  22.813  37.100  10.428
38523W        W10106  40.053  32.463   0.121
38524W        W10107  17.129  12.728   2.864
38525W        W10108  34.683   3.965  13.832
38526W        W10109  42.998  20.842  11.157
38527W        W10110   2.546  13.451  12.470
38528W        W10111  22.031   4.290  12.399
38529W        W10112  18.008  32.970   2.117
38530W        W10113   4.565  32.225   5.122
38531W        W10114   2.075   1.003   3.763
38532W        W10115  36.472  22.174   0.442
38533W        W10116  29.705  19.484   1.851
38534W        W10117   8.949  33.637  14.458
38535W        W10118  27.553  18.975   2.181
38536W        W10119  16.987  28.740  12.442
38537W        W10120   9.195  26.651  12.447
38538W        W10121  13.778   1.264   0.305
38539W        W10122  20.270   6.205   0.220
38540W        W10123   4.800  42.952  10.613
38541W        W10124   9.144  11.852  11.702
38542W        W10125  36.742   4.904  13.568
38543W        W10126  30.640   3.311   2.743
38544W        W10127  20.129  44.470   2.833
38545W        W10128   5.285  40.310   4.486
38546W        W10129  23.296  18.106   3.809
38547W        W10130  23.255   6.423   2.214
38548W        W10131  44.879  32.427   3.759
38549W        W10132   4.441   0.582  10.998
38550W        W10133   2.423  30.942   2.296
38551W        W10134  38.621  37.854  10.155
38552W        W10135  24.736   1.169   4.374
38553W        W10136  31.029  41.238   1.259
38554W        W10137  36.049  14.256   1.977
38555W        W10138  24.281  24.698   1.722
38556W        W10139  44.437  29.314  12.527
38557W        W10140  25.504  41.466   3.788
38558W        W10141   2.273  42.057   1.425
38559W        W10142  14.326  20.513   4.788
38560W        W10143  31.366  33.581  14.789
38561W        W10144  33.561  40.200  11.346
38562W        W10145   7.933  40.454   1.750
38563W        W10146  28.002  11.553   1.544
38564W        W10147  14.522  33.485  12.440
38565W        W10148  26.832  29.904   5.066
38566W        W10149  16.722  20.147   0.060
38567W        W10150  29.630   9.803  11.365
38568W        W10151  38.345  13.760   4.619
38569W        W10152   4.790   1.555  14.056
38570W        W10153   2.711  36.244   5.108
38571W        W10154   0.045  42.717   2.720
38572W        W10155  26.072  41.877  12.962
38573W        W10156  36.483  20.558   1.543
38574W        W10157  26.755   3.010   5.062
38575W        W10158  17.589  24.934   5.032
38576W        W10159  41.867  24.278   1.790
38577W        W10160  31.071  39.320  10.264
38578W        W10161  26.210  26.629   4.600
38579W        W10162   4.790  34.306   2.322
38580W        W10163  27.537  29.376   3.037
38581W        W10164  12.902  26.312   5.056
38582W        W10165  21.730  43.178   0.263
38583W        W10166  23.991  25.995  13.794
38584W        W10167  12.914  30.135   0.241
38585W        W10168  12.449   9.676   1.331
38586W        W10169  23.191  21.787  12.096
38587W        W10170   5.857  18.745  11.660
38588W        W10171  39.286   3.316  14.709
38589W        W10172  39.308  25.411  14.375
38590W        W10173  10.151  42.301  11.884
38591W        W10174   9.878  27.596  11.362
38592W        W10175  23.643   2.168   3.601
38593W        W10176  37.287  13.031  10.646
38594W        W10177   0.193  44.943  14.951
38595W        W10178  10.076  15.932  14.457
38596W        W10179  16.525  24.234   3.649
38597W        W10180   2.780   2.559  10.868
38598W        W10181  11.086  41.416  14.807
38599W        W10182  24.798  30.947  14.436
38600W        W10183  23.593   0.534  14.301
38601W        W10184  35.917  34.672  12.972
38602W        W10185  17.516  43.377  13.469
38603W        W10186  13.612  18.057  11.788
38604W        W10187  27.970  22.612   2.092
38605W        W10188   4.147  10.777  11.129
38606W        W10189  33.665  19.028   3.374
38607W        W10190  11.323  15.068  11.115
38608W        W10191  40.997  33.164  13.397
38609W        W10192  31.880  13.339  12.004
38610W        W10193  10.338  36.021  14.573
38611W        W10194  44.340  31.346  12.450
38612W        W10195  39.318  15.380  13.402
38613W        W10196  27.798  43.774   2.903
38614W        W10197  42.556  10.200  12.060
38615W        W10198   5.754  23.820  12.626
38616W        W10199  29.257  20.204  11.647
38617W        W10200  27.706   2.970  12.986
38618W        W10201  38.765  33.844  12.616
38619W        W10202  34.426  34.035   2.080
38620W        W10203   4.002   6.241  13.416
38621W        W10204  30.103  26.957   4.239
38622W        W10205   7.492  18.573   2.190
38623W        W10206  15.034   5.963   0.411
38624W        W10207  38.177  21.276  14.850
38625W        W10208  28.028  19.930  12.082
38626W        W10209  24.346   3.444   2.905
38627W        W10210   9.119   3.212   1.902
38628W        W10211  21.698  31.911  10.741
38629W        W10212  18.766  22.863  11.068
38630W        W10213  17.699  19.849  14.101
38631W        W10214  29.974   9.812  14.941
38632W        W10215  22.732  23.063  14.993
38633W        W10216   7.220  42.234   3.333
38634W        W10217  19.869   0.659  10.265
38635W        W10218  11.357  32.235   1.848
38636W        W10219   1.258  18.117   4.841
38637W        W10220  29.736  21.010  11.545
38638W        W10221  15.062   8.794  14.284
38639W        W10222  13.843   8.194   3.895
38640W        W10223  32.028  18.338  10.719
38641W        W10224  35.963  13.739   2.873
38642W        W10225  33.392  24.388  11.078
38643W        W10226   7.698   8.348  11.582
38644W        W10227   8.404  15.715  10.612
38645W        W10228  25.701   3.039  12.526
38646W        W10229  43.660  25.090   0.777
38647W        W10230  42.471  37.856   4.387
38648W        W10231  18.518  10.030  11.182
38649W        W10232  37.368  30.702   5.382
38650W        W10233  42.910  31.743   0.518
38651W        W10234   9.460  41.503   4.410
38652W        W10235  17.304  23.658  12.536
38653W        W10236  31.994  11.057   4.622
38654W        W10237  21.311  26.559   9.716
38655W        W10238  17.247   6.435   1.913
38656W        W10239  41.751   3.039  13.019
38657W        W10240  22.619  20.324  10.276
38658W        W10241  22.045  34.089   1.378
38659W        W10242   3.756  11.722   4.327
38660W        W10243  27.704  33.096   2.398
38661W        W10244  36.350  17.831  14.039
38662W        W10245  36.256  38.372  11.495
38663W        W10246  16.326  22.734   1.301
38664W        W10247   5.655  44.829   4.579
38665W        W10248  10.615   6.460  11.082
38666W        W10249   8.254  33.844   4.238
38667W        W10250  27.182  14.242  14.145
38668W        W10251  33.854  36.035  12.602
38669W        W10252  21.089  29.809  10.397
38670W        W10253  39.990  31.667   2.647
38671W        W10254  13.877  12.750   2.250
38672W        W10255  40.373  20.607  11.059
38673W        W10256  28.022  28.539   1.048
38674W        W10257  13.538  15.719   4.991
38675W        W10258  39.284  42.772   4.183
38676W        W10259  22.374  23.574   3.685
38677W        W10260   2.772  35.481   4.608
38678W        W10261  19.328  30.097   0.852
38679W        W10262  10.553  31.926   3.694
38680W        W10263   8.990   8.743  14.657
38681W        W10264  39.372  39.413   1.636
38682W        W10265   9.887  35.379   3.816
38683W        W10266  44.786  11.695   1.832
38684W        W10267  15.757  28.064   1.998
38685W        W10268  15.801  25.464   3.646
38686W        W10269  19.511   4.867   4.316
38687W        W10270  34.453  23.241   2.232
38688W        W10271  33.845  20.192  12.604
38689W        W10272  32.878   5.708  14.813
38690W        W10273  38.085   0.315   1.252
38691W        W10274  14.251  34.547   4.496
38692W        W10275  15.040  29.114  11.282
38693W        W10276  24.461   0.247   1.149
38694W        W10277  44.142  37.782   3.154
38695W        W10278  37.897   4.607  12.498
38696W        W10279  12.184  17.278   1.282
38697W        W10280  30.033  41.752   1.799
38698W        W10281  23.103  20.779  13.857
38699W        W10282  31.043   6.430   3.180
38700W        W10283  28.619  24.021  10.638
38701W        W10284  12.200  23.180  13.282
38702W        W10285  41.078  29.442  11.307
38703W        W10286  33.008  21.252  13.836
38704W        W10287  36.580  28.426   4.261
38705W        W10288  23.803   3.855   4.110
38706W        W10289  32.968  10.639  11.617
38707W        W10290  37.578   5.123   4.830
38708W        W10291  10.419  16.310  14.559
38709W        W10292  19.584   7.119  14.915
38710W        W10293   5.328  40.910  13.988
38711W        W10294  33.629  27.398   2.972
38712W        W10295  35.883  10.312   2.944
38713W        W10296  18.323  19.969  14.711
38714W        W10297  42.484  22.681   4.726
38715W        W10298  42.305   4.254   0.437
38716W        W10299  39.029   9.707   4.840
38717W        W10300  20.687  18.255   2.269
38718W        W10301  36.967  24.520   0.954
38719W        W10302   9.851  31.801  11.813
38720W        W10303  16.155  10.509  11.952
38721W        W10304  16.384   1.497   5.077
38722W        W10305  43.386  16.287   3.748
38723W        W10306  11.995  30.593   2.184
38724W        W10307  12.140  43.476   0.609
38725W        W10308   0.029  10.823  10.399
38726W        W10309   8.826  16.190  12.566
38727W        W10310   5.350  26.158   4.428
38728W        W10311  40.500  12.120  13.753
38729W        W10312  37.362  43.651   0.854
38730W        W10313  12.805  28.090   2.220
38731W        W10314  44.296  35.330  14.021
38732W        W10315  31.368  43.228   2.171
38733W        W10316  38.187  42.945   1.542
38734W        W10317  20.138  14.758  13.024
38735W        W10318  31.107   1.839  12.902
38736W        W10319   1.829  38.526  13.278
38737W        W10320  26.253  15.746   0.476
38738W        W10321   1.795  28.417  13.439
38739W        W10322  18.814  35.384  11.443
38740W        W10323  40.466  25.659  11.194
38741W        W10324  19.707  32.463   1.713
38742W        W10325  15.155  30.219   3.333
38743W        W10326  40.349  30.605  10.699
38744W        W10327  42.822  19.430   0.950
38745W        W10328   9.959  31.025   0.749
38746W        W10329  25.121  29.124   1.196
38747W        W10330  42.298  33.570  13.832
38748W        W10331  43.474   5.747   1.340
38749W        W10332  38.492  39.326  12.051
38750W        W10333  30.362  19.398  12.074
38751W        W10334   7.236  37.785   2.559
38752W        W10335  33.494   7.613   4.723
38753W        W10336  33.574  20.907   1.326
38754W        W10337  23.030  33.753   0.355
38755W        W10338  30.638  33.182   1.314
38756W        W10339  33.646  12.987  12.425
38757W        W10340  36.129  40.970  13.359
38758W        W10341  23.006  15.431   2.259
38759W        W10342  24.053   0.808   9.886
38760W        W10343   5.483  30.069  10.408
38761W        W10344  40.858   5.835  14.373
38762W        W10345  23.717  12.148  14.824
38763W        W10346   9.714  12.230   4.474
38764W        W10347   3.265  36.648  10.705
38765W        W10348  30.617  33.104   3.677
38766W        W10349   8.231  10.441  14.293
38767W        W10350  21.750   1.950  10.759
38768W        W10351   2.316  11.248   1.933
38769W        W10352   3.984   8.397  13.010
38770W        W10353  29.060  15.502  10.292
38771W        W10354  39.842  42.347  10.433
38772W        W10355  17.381  38.905   0.711
38773W        W10356   8.908  37.602   3.938
38774W        W10357   8.127   6.991   3.645
38775W        W10358  22.042   2.485  14.397
38776W        W10359  32.510  33.655   1.349
38777W        W10360  30.623  26.613   3.151
38778W        W10361  25.057  29.552  10.672
38779W        W10362  35.928  44.402  13.964
38780W        W10363   5.266  25.048   2.537
38781W        W10364  11.300  43.308  10.608
38782W        W10365  17.816   0.386   0.827
38783W        W10366  34.100   5.338   0.960
38784W        W10367  24.876  31.134   3.206
38785W        W10368  16.701  40.037   0.826
38786W        W10369  24.463  30.909  12.458
38787W        W10370  18.465  19.124   1.294
38788W        W10371  11.351  38.376   0.249
38789W        W10372  29.632   5.651  14.950
38790W        W10373   2.265  16.140  14.350
38791W        W10374  23.261  42.058  12.999
38792W        W10375  31.506  38.424   3.208
38793W        W10376  44.495   5.288  12.371
38794W        W10377  42.774  10.369   3.141
38795W        W10378  26.611  31.086  12.610
38796W        W10379  28.970  20.395  13.406
38797W        W10380  23.665   3.962   1.237
38798W        W10381  20.243  31.282   0.503
38799W        W10382  10.386  26.238   2.298
38800W        W10383  40.744  19.348   4.223
38801W        W10384   4.854  23.729   0.317
38802W        W10385  22.236  13.118  11.363
38803W        W10386  10.082  14.336  10.983
38804W        W10387  12.180  28.952   3.311
38805W        W10388  41.010  15.831  13.842
38806W        W10389  33.540  19.469   4.244
38807W        W10390  21.022   4.261  11.144
38808W        W10391  43.036  23.038   0.958
38809W        W10392  44.325  28.165  11.804
38810W        W10393   7.543   6.358  14.011
38811W        W10394  18.653  15.027   0.849
38812W        W10395  24.347  14.694   3.094
38813W        W10396  10.332   7.943   1.333
38814W        W10397  16.793  11.400   1.830
38815W        W10398   3.058  15.598   0.060
38816W        W10399  11.489  31.382  10.637
38817W        W10400  13.214  16.747   2.472
38818W        W10401  35.129  10.715   2.485
38819W        W10402  31.402  11.376  11.486
38820W        W10403  27.782   9.710  11.605
38821W        W10404  23.292  22.643   1.786
38822W        W10405  37.468  36.721   2.998
38823W        W10406   8.342   8.375   2.929
38824W        W10407  44.297  22.070   2.483
38825W        W10408  37.142  10.504  11.225
38826W        W10409  17.126   9.858   0.420
38827W        W10410   4.315   8.723   4.580
38828W        W10411  32.398   3.597   2.385
38829W        W10412   1.033  26.141  12.539
38830W        W10413   4.645  35.145   3.242
38831W        W10414  37.481  35.458   0.193
38832W        W10415  20.673  29.979  13.066
38833W        W10416   1.013  23.209   1.825
38834W        W10417  13.634  37.660   1.132
38835W        W10418   7.918  36.341  11.055
38836W        W10419  16.771  18.121  14.306
38837W        W10420  12.943  27.893  14.412
38838W        W10421  28.209  14.593   4.042
38839W        W10422   3.249  36.857  12.005
38840W        W10423  10.450  23.583  11.133
38841W        W10424   0.459   2.212  13.037
38842W        W10425  27.122  33.525  11.533
38843W        W10426  17.484  39.516  11.063
38844W        W10427  10.449  38.988   4.527
38845W        W10428  43.237   1.436   1.374
38846W        W10429  22.869  30.584  10.075
38847W        W10430  12.129  26.464   4.327
38848W        W10431  38.564   8.899   4.733
38849W        W10432   3.635  24.183  11.500
38850W        W10433  12.574  35.559   4.616
38851W        W10434  18.074  35.000  13.456
38852W        W10435  25.509  37.384  11.727
38853W        W10436  10.116   3.422   1.651
38854W        W10437   3.215  29.713   1.598
38855W        W10438  36.230  12.797   2.137
38856W        W10439   0.398  24.432  12.720
38857W        W10440   2.398   8.468  10.145
38858W        W10441  35.846  12.823  11.381
38859W        W10442  21.958  38.460   2.126
38860W        W10443  38.344   4.730   4.233
38861W        W10444  13.220  18.263   1.979
38862W        W10445   6.380  17.218  13.829
38863W        W10446   0.661  15.597  10.257
38864W        W10447   4.325  24.057  12.038
38865W        W10448  11.993   3.181   1.345
38866W        W10449   1.488  17.976   3.311
38867W        W10450  32.869  27.019  12.547
38868W        W10451  17.684   4.844   3.098
38869W        W10452  30.869  38.386   2.814
38870W        W10453  25.570  10.628   4.808
38871W        W10454  10.326   9.212   0.936
38872W        W10455  40.332  34.742   1.200
38873W        W10456  35.486  17.967  14.222
38874W        W10457  31.423  26.960   1.177
38875W        W10458  35.626   5.771  12.521
38876W        W10459   4.010  35.171   4.202
38877W        W10460   7.735  16.312   1.472
38878W        W10461  19.065  31.523  13.444
38879W        W10462  32.249  12.718  13.624
38880W        W10463  36.340  44.357   2.043
38881W        W10464  20.156   9.616   5.029
38882W        W10465   4.951   9.853   4.105
38883W        W10466  10.647  17.137  13.048
38884W        W10467  44.269  42.089   2.209
38885W        W10468  22.559  12.797  11.150
38886W        W10469  37.551  14.644  12.496
38887W        W10470   2.842  28.053   3.496
38888W        W10471  39.893  18.594  11.621
38889W        W10472  36.948  36.097  13.776
38890W        W10473  19.179  38.159   2.051
38891W        W10474   1.291  10.910   2.279
38892W        W10475  19.704  19.400  12.036
38893W        W10476  18.709  17.776   3.884
38894W        W10477  34.984  34.623   0.520
38895W        W10478  21.566   9.805  14.831
38896W        W10479  34.612  30.610  13.544
38897W        W10480  20.121  41.983   4.855
38898W        W10481   3.560  41.796  11.908
38899W        W10482  26.971  44.482   4.165
38900W        W10483  40.074  44.482   2.251
38901W        W10484  35.916  26.136   1.945
38902W        W10485  38.663  16.754  12.604
38903W        W10486   1.710  40.578   0.708
38904W        W10487   0.776  15.149  10.486
38905W        W10488  44.547  20.757   4.286
38906W        W10489  11.728  29.481  11.828
38907W        W10490  35.664   2.781  10.630
38908W        W10491  15.087  21.259   0.961
38909W        W10492  19.179  18.284  10.498
38910W        W10493  17.239  43.662  14.416
38911W        W10494  39.388   4.757  13.228
38912W        W10495  40.259   9.219   2.283
38913W        W10496  23.191  22.066  12.523
38914W        W10497  12.882  34.114  13.432
38915W        W10498  27.731  24.714   2.878
38916W        W10499   4.342  15.474   0.285
38917W        W10500  33.682  25.080   3.817
38918W        W10501   6.872  12.314  11.675
38919W        W10502  33.079  44.877   1.201
38920W        W10503  26.023  35.818   3.257
38921W        W10504  21.648  29.034   2.771
38922W        W10505  20.418   0.847   2.924
38923W        W10506  14.160  12.993   1.850
38924W        W10507  28.045  11.971   1.855
38925W        W10508   0.600   2.785  13.550
38926W        W10509  36.785  31.436  13.049
38927W        W10510  39.762  27.641   0.359
38928W        W10511  37.298  31.836   0.488
38929W        W10512  40.452   7.403   4.015
38930W        W10513  17.499  16.687  13.127
38931W        W10514  42.523  11.865   1.173
38932W        W10515   9.949  12.441   0.394
38933W        W10516  41.941  11.111  13.454
38934W        W10517  31.598  20.956   0.861
38935W        W10518  33.980  37.374   0.447
38936W        W10519   6.656  36.266  12.931
38937W        W10520  13.215   2.638  12.973
38938W        W10521  15.777  17.295  10.732
38939W        W10522  26.755  29.823   2.769
38940W        W10523  39.393   8.916   0.561
38941W        W10524  22.805  27.107   3.673
38942W        W10525   7.431  10.361  10.534
38943W        W10526  16.140  11.402  11.286
38944W        W10527  23.490  43.393   3.369
38945W        W10528  11.724  43.612  13.365
38946W        W10529   2.866  35.631  13.505
38947W        W10530  19.149  13.244  13.546
38948W        W10531  11.319  38.729   4.277
38949W        W10532  21.116  25.602   3.817
38950W        W10533  41.975  37.873  10.872
38951W        W10534  19.295  35.907   0.326
38952W        W10535   0.513  10.353  14.273
38953W        W10536   2.190  31.516   1.476
38954W        W10537  39.301  30.905   4.171
38955W        W10538  43.766  34.523   3.243
38956W        W10539   0.299  10.442  10.675
38957W        W10540  39.624   7.860  12.058
38958W        W10541  16.674  37.868  11.442
38959W        W10542  36.857  31.682  14.365
38960W        W10543   0.371   6.178   3.875
38961W        W10544  38.100   5.212   4.934
38962W        W10545  21.797  30.969  12.940
38963W        W10546  21.747  23.315   4.211
38964W        W10547  35.009  24.480   2.348
38965W        W10548  10.788   6.822  13.311
38966W        W10549  43.324  27.181  14.315
38967W        W10550  16.003  44.389   1.252
38968W        W10551  10.308  33.165  13.395
38969W        W10552  28.006   9.727  11.112
38970W        W10553  19.585  36.543  14.624
38971W        W10554  21.712  43.708  11.240
38972W        W10555  21.427  21.732   1.872
38973W        W10556  38.832  13.039   0.388
38974W        W10557  22.981   5.824   4.133
38975W        W10558  31.685  22.579   1.432
38976W        W10559  30.887  36.885  11.532
38977W        W10560  20.244   8.865  14.012
38978W        W10561  13.296   2.909  11.483
38979W        W10562  28.432  34.542   9.761
38980W        W10563   6.155  34.629   3.332
38981W        W10564  21.768  28.543   0.333
38982W        W10565  37.614   6.526   4.677
38983W        W10566   1.797  14.319  13.767
38984W        W10567  31.694   1.342  10.931
38985W        W10568  33.320  29.369   3.263
38986W        W10569  43.860  18.102  11.246
38987W        W10570   5.019  15.784   3.203
38988W        W10571  21.123   1.168  11.690
38989W        W10572  33.118  36.566   4.605
38990W        W10573  34.642  18.818  11.985
38991W        W10574   2.009   1.642  13.987
38992W        W10575  10.537  32.600   4.964
38993W        W10576  26.477   0.521  11.444
38994W        W10577  30.387  41.649  14.923
38995W        W10578  38.753  42.854  11.934
38996W        W10579  37.932  36.988   2.279
38997W        W10580  33.729  12.137   4.415
38998W        W10581  16.999  30.280   0.297
38999W        W10582  42.605  16.822  12.495
39000W        W10583  37.062  38.135   3.113
39001W        W10584  24.003  39.968  14.255
39002W        W10585  37.513   2.617   4.695
39003W        W10586  26.305   0.108  14.532
39004W        W10587  16.133  40.595   4.181
39005W        W10588  32.914   0.566  14.393
39006W        W10589  43.352  14.176  10.957
39007W        W10590   0.544  35.022  12.126
39008W        W10591   4.655  18.749   2.148
39009W        W10592  33.580  38.515  12.349
39010W        W10593   5.961   7.971   0.604
39011W        W10594  17.486  42.348   3.355
39012W        W10595  33.875  34.427   4.664
39013W        W10596  38.384  12.163  11.564
39014W        W10597  20.229   9.910   4.176
39015W        W10598  40.506  29.140   3.204
39016W        W10599  32.080   1.778  11.047
39017W        W10600  35.867  18.623   4.530
39018W        W10601  29.304  22.567  13.546
39019W        W10602  23.257  16.019  12.070
39020W        W10603  40.133  33.661  13.331
39021W        W10604  33.352  13.939  12.056
39022W        W10605  38.448  23.583   2.256
39023W        W10606  40.810  33.150   1.779
39024W        W10607  17.892   6.725   3.140
39025W        W10608  35.027  32.373   1.313
39026W        W10609   7.081  41.355  12.958
39027W        W10610  17.837   0.302  11.892
39028W        W10611  34.403  15.353  13.326
39029W        W10612  19.622  29.736  14.396
39030W        W10613   1.303  27.392  12.364
39031W        W10614  28.600   3.189  14.897
39032W        W10615  24.002  36.597   2.641
39033W        W10616   9.165   5.172  10.747
39034W        W10617  18.251  30.667  10.865
39035W        W10618  17.998  44.573  13.855
39036W        W10619   6.491  34.248  13.844
39037W        W10620  28.285   4.170  10.357
39038W        W10621  29.027  19.670  14.109
39039W        W10622   9.355  22.428   1.224
39040W        W10623   8.902  37.914   2.255
39041W        W10624  33.113  27.037  13.506
39042W        W10625   3.743  35.829  14.405
39043W        W10626  34.375  43.973  14.594
39044W        W10627  41.548   2.299   2.817
39045W        W10628   1.694  30.139   2.263
39046W        W10629  23.776  14.143  10.163
39047W        W10630  33.004   4.063  14.335
39048W        W10631   8.542  21.692   4.575
39049W        W10632  19.593  19.231   3.881
39050W        W10633  14.706   5.809   3.154
39051W        W10634  20.533   1.435   1.345
39052W        W10635   1.889  14.893   2.634
39053W        W10636  23.926  34.936   1.601
39054W        W10637  25.016  26.484  11.842
39055W        W10638  24.951  11.897  12.446
39056W        W10639  35.568  22.939   2.241
39057W        W10640  32.690  20.735  14.433
39058W        W10641  29.922  13.179  14.792
39059W        W10642  15.589  37.075   0.406
39060W        W10643  21.474  40.344  10.762
39061W        W10644  14.777  28.891   1.242
39062W        W10645   2.548  20.388  13.935
39063W        W10646  23.231  44.038   0.805
39064W        W10647  19.753  12.546   1.257
39065W        W10648   6.037  20.667  14.506
39066W        W10649   4.791  35.349   4.558
39067W        W10650  20.284  25.114  12.474
39068W        W10651  11.215  25.908   3.296
39069W        W10652  32.383   7.713  12.362
39070W        W10653  31.420   5.817  14.431
39071W        W10654  37.711  20.600  13.583
39072W        W10655  37.131  37.929  13.666
39073W        W10656  44.083  16.657  12.627
39074W        W10657  31.381  32.965  12.859
39075W        W10658  23.597  34.964  10.631
39076W        W10659  11.884  10.779  11.016
39077W        W10660   1.898  44.479   3.229
39078W        W10661  39.603  12.271  13.498
39079W        W10662  29.012  15.579   0.817
39080W        W10663  14.765  21.220   1.358
39081W        W10664  10.289   3.719   3.412
39082W        W10665  20.108  43.744  11.565
39083W        W10666  39.447  41.935  12.966
39084W        W10667   6.861   7.872  11.531
39085W        W10668  31.240  20.297   4.505
39086W        W10669  18.282   2.435   3.386
39087W        W10670   6.571  32.006  11.720
39088W        W10671  44.299  41.435  14.250
39089W        W10672  15.279  12.243  11.236
39090W        W10673  32.482  40.015  10.945
39091W        W10674   4.335  14.080  12.939
39092W        W10675  14.237   5.374   2.744
39093W        W10676  30.684   2.725   1.737
39094W        W10677  35.925  26.682  14.808
39095W        W10678  31.339  40.841   3.441
39096W        W10679  39.498   7.636   0.836
39097W        W10680  29.627   5.684  12.299
39098W        W10681  35.430   7.678   1.704
39099W        W10682   2.617  14.677   4.859
39100W        W10683  38.857  21.105  14.932
39101W        W10684  22.481  36.970  13.491
39102W        W10685  20.065  32.922   2.884
39103W        W10686  16.441  27.570  14.549
39104W        W10687  14.666  18.896  11.505
39105W        W10688  12.182  33.797   1.424
39106W        W10689  41.317  38.137  12.370
39107W        W10690  24.794  28.217   2.676
39108W        W10691   2.438   7.846   2.774
39109W        W10692  25.032  14.646   0.904
39110W        W10693  21.108  31.254   3.368
39111W        W10694  44.705   3.143  10.652
39112W        W10695  44.319  23.634   3.354
39113W        W10696  40.502  14.043   2.804
39114W        W10697  15.244  24.459  10.539
39115W        W10698   6.925  27.889  12.454
39116W        W10699  14.169  35.412   4.716
39117W        W10700  40.260   8.786   0.800
39118W        W10701  15.567  19.805  11.466
39119W        W10702  15.277   8.920   4.602
39120W        W10703  40.184  32.024   5.042
39121W        W10704  22.532  26.082  11.136
39122W        W10705   0.347   2.241   1.892
39123W        W10706  36.890  17.337   4.639
39124W        W10707  28.220  12.239  12.430
39125W        W10708  36.912  24.879  12.887
39126W        W10709  19.781  28.009  13.791
39127W        W10710  27.716  13.674   3.386
39128W        W10711  31.932  39.511   2.676
39129W        W10712   7.058  40.036  14.277
39130W        W10713  20.123   0.669  11.133
39131W        W10714  12.240   5.429   4.423
39132W        W10715  11.812   5.675   0.975
39133W        W10716  25.750   2.021  11.677
39134W        W10717  27.342  18.732   4.761
39135W        W10718  28.034  12.046   0.432
39136W        W10719   6.390  15.144   0.338
39137W        W10720  31.298   5.768  11.543
39138W        W10721   1.055  18.539  10.973
39139W        W10722  40.398  19.781   3.547
39140W        W10723  19.263   5.824   4.077
39141W        W10724  25.091  24.206  10.823
39142W        W10725  35.458  18.800  11.903
39143W        W10726  43.891  23.494   1.434
39144W        W10727  39.897  20.993   2.673
39145W        W10728  22.182   4.901  13.815
39146W        W10729  10.641  27.484  12.353
39147W        W10730  32.640  27.081  13.706
39148W        W10731   5.419  17.834   0.290
39149W        W10732   5.487  34.918  11.683
39150W        W10733   4.960  24.005  11.309
39151W        W10734  22.304  15.760   2.698
39152W        W10735  23.218   7.952   1.907
39153W        W10736  17.351  38.422   3.884
39154W        W10737  44.563   1.929  13.984
39155W        W10738  18.118  26.292  10.596
39156W        W10739  36.476  28.698  11.089
39157W        W10740  10.298  21.737  12.046
39158W        W10741  42.412  40.614  12.781
39159W        W10742   4.794  33.483  13.946
39160W        W10743  24.922  35.822  14.801
39161W        W10744  30.933   9.062  11.675
39162W        W10745  26.830   0.884  14.489
39163W        W10746  29.173  23.084   3.169
39164W        W10747  33.007   4.230   4.491
39165W        W10748  18.208  44.391   2.641
39166W        W10749  18.102  21.247   1.821
39167W        W10750  40.179  16.497  12.523
39168W        W10751  24.662   9.688   0.711
39169W        W10752  34.716  29.948   1.915
39170W        W10753  26.927   6.211  12.587
39171W        W10754  36.781  14.491  13.852
39172W        W10755  35.067   7.745   0.896
39173W        W10756   9.282  33.398  14.899
39174W        W10757  25.582  18.614  12.096
39175W        W10758  24.673  36.378   1.423
39176W        W10759   5.367  18.196  14.032
39177W        W10760   1.805  26.072  14.993
39178W        W10761   8.694  35.137  12.296
39179W        W10762  13.651   8.874   4.270
39180W        W10763   9.750   8.087  14.607
39181W        W10764   4.900  44.237  13.741
39182W        W10765  40.038  34.571  13.296
39183W        W10766   3.444  21.390   5.169
39184W        W10767  20.666  37.493   2.794
39185W        W10768   2.777   5.907  14.681
39186W        W10769  34.551  21.480   0.422
39187W        W10770   0.687  39.574  10.604
39188W        W10771   0.201   2.944  10.821
39189W        W10772   3.235  11.333   2.892
39190W        W10773  37.266  23.395   4.858
39191W        W10774   3.995  40.568  12.845
39192W        W10775  32.402  28.100  10.415
39193W        W10776  27.210  23.763  14.832
39194W        W10777  16.204   4.054   2.844
39195W        W10778  22.457  32.546  11.545
39196W        W10779  14.313  44.964  12.818
39197W        W10780  22.912  28.664  13.551
39198W        W10781  40.561  11.541   2.193
39199W        W10782  40.156  16.477  14.710
39200W        W10783   7.069  43.417  12.346
39201W        W10784   5.980  42.156  12.944
39202W        W10785  32.926  30.013   4.704
39203W        W10786  26.552  20.654   0.907
39204W        W10787  20.041  31.455   4.581
39205W        W10788  31.170   6.129   2.747
39206W        W10789   8.719  41.771  12.534
39207W        W10790  17.575  16.117   3.190
39208W        W10791  11.072  13.245   2.116
39209W        W10792  31.397  26.606  11.468
39210W        W10793   7.967  16.822   0.093
39211W        W10794  40.102  37.057   3.720
39212W        W10795  23.169  24.879  10.714
39213W        W10796  23.127  41.824  12.030
39214W        W10797  14.712  38.741  14.791
39215W        W10798  32.375  21.331  10.240
39216W        W10799  30.517  31.899   2.638
39217W        W10800  34.048   6.298  10.594
39218W        W10801  14.630  14.192  13.535
39219W        W10802  20.571  43.246   4.621
39220W        W10803  29.824  24.013  12.979
39221W        W10804  36.376  41.580   3.169
39222W        W10805  24.488  25.112  12.044
39223W        W10806  38.988  18.154   5.014
39224W        W10807   9.296  17.541  14.729
39225W        W10808   4.671  20.566   1.231
39226W        W10809   9.424  21.758   0.704
39227W        W10810  19.301  26.998   4.066
39228W        W10811  38.450  30.932  10.670
39229W        W10812  21.323  40.855  14.419
39230W        W10813   2.413   2.325  14.474
39231W        W10814  27.556   5.438  12.223
39232W        W10815   8.813   4.072   3.732
39233W        W10816  40.779  23.591   3.698
39234W        W10817  16.989  13.600   2.707
39235W        W10818  14.746   5.962  14.581
39236W        W10819  21.739  33.061   2.691
39237W        W10820   4.184  21.618   4.122
39238W        W10821  23.219  23.622  10.684
39239W        W10822  41.806  37.926  13.501
39240W        W10823   5.302  33.693   2.423
39241W        W10824  37.849  43.979   0.866
39242W        W10825  13.215  26.997  13.457
39243W        W10826  20.457  14.307  10.713
39244W        W10827  28.019  18.645  14.536
39245W        W10828  16.774  10.240   0.695
39246W        W10829   9.279  22.663  13.534
39247W        W10830  22.601   8.995  11.615
39248W        W10831  33.450  36.137  14.079
39249W        W10832  33.300   9.366  10.619
39250W        W10833  28.401   4.354  13.911
39251W        W10834  42.292   7.322   4.840
39252W        W10835  27.484  36.396   4.188
39253W        W10836  26.128  35.251  11.150
39254W        W10837  28.472  26.916   4.741
39255W        W10838  25.628  27.530  13.023
39256W        W10839  40.424  22.631  12.993
39257W        W10840  33.222  15.245  10.351
39258W        W10841  18.322  17.825  13.342
39259W        W10842  41.475  11.623   4.366
39260W        W10843  23.144   8.361   3.637
39261W        W10844  42.340   8.047   3.859
39262W        W10845  44.386  34.618   5.048
39263W        W10846  19.101  31.144   3.555
39264W        W10847  30.505  19.023   2.606
39265W        W10848  17.311  27.705   1.620
39266W        W10849   4.538  32.903   1.509
39267W        W10850  20.840  13.342  10.599
39268W        W10851  18.451  19.560  11.749
39269W        W10852  35.430   7.094  12.493
39270W        W10853  27.724  39.358   2.853
39271W        W10854  40.906  25.645   2.307
39272W        W10855  26.172   8.430   2.753
39273W        W10856  36.122  19.178  13.422
39274W        W10857  10.727  43.157  11.974
39275W        W10858  31.878  11.932  13.793
39276W        W10859  15.829  26.079  14.593
39277W        W10860  26.138  28.383  12.042
39278W        W10861   4.404  14.417   1.313
39279W        W10862  34.830  15.065   4.175
39280W        W10863   8.145  41.790  13.939
39281W        W10864  21.265  28.505   1.212
39282W        W10865  40.465   4.440   1.395
39283W        W10866   1.866   5.860  13.219
39284W        W10867  24.499   2.299   3.040
39285W        W10868  36.623  10.321   1.217
39286W        W10869   1.269  36.938   4.157
39287W        W10870  27.499  12.614   0.968
39288W        W10871  28.081  28.722   4.624
39289W        W10872  23.944   4.955  13.746
39290W        W10873  30.564   0.988   4.087
39291W        W10874  24.652   9.565  14.433
39292W        W10875  31.859  37.225  14.651
39293W        W10876  28.681  20.942   2.484
39294W        W10877  23.760  40.044   0.404
39295W        W10878  20.026  41.510  11.499
39296W        W10879  18.210   5.958  13.397
39297W        W10880  24.517   6.455   1.810
39298W        W10881  10.101   5.315  13.326
39299W        W10882  28.081  15.829  14.612
39300W        W10883   9.440  21.054  14.317
39301W        W10884  20.135  24.138  14.785
39302W        W10885  13.099  14.836  14.920
39303W        W10886  19.571  27.252   3.674
39304W        W10887  21.684  41.072   0.757
39305W        W10888  28.034  33.219  11.666
39306W        W10889  11.170   5.812  11.526
39307W        W10890  28.078  43.244  10.355
39308W        W10891  38.398  27.915  12.371
39309W        W10892  22.290  19.561  10.449
39310W        W10893   2.839  22.085  12.334
39311W        W10894   8.872   7.928  11.949
39312W        W10895  24.227  30.916   2.084
39313W        W10896  28.013   1.276   3.665
39314W        W10897  23.930   7.280   0.012
39315W        W10898  44.944   3.200   1.814
39316W        W10899  13.314  40.431  10.828
39317W        W10900  19.201  43.380   1.268
39318W        W10901  32.911  22.140   2.218
39319W        W10902   3.889   0.857   9.736
39320W        W10903   0.476  29.161  10.556
39321W        W10904  30.902  34.594  13.999
39322W        W10905   7.313  27.509  12.428
39323W        W10906  27.001  41.844  10.719
39324W        W10907  43.216  42.259   2.591
39325W        W10908  19.043  19.347   2.091
39326W        W10909  31.181   5.949   2.228
39327W        W10910  12.046  26.347   0.596
39328W        W10911  33.391  39.996  14.857
39329W        W10912  31.595  36.408  11.292
39330W        W10913   1.795  35.752   2.542
39331W        W10914   7.296  19.126  11.495
39332W        W10915  27.277  15.552  13.206
39333W        W10916  22.453  36.376   0.761
39334W        W10917  20.981  26.403   0.255
39335W        W10918   8.897  41.726   1.532
39336W        W10919  25.644  36.148   0.246
39337W        W10920  32.350   1.228  12.095
39338W        W10921  12.726  16.703  13.375
39339W        W10922  10.636  39.461  12.978
39340W        W10923  20.443   0.496  11.956
39341W        W10924  21.015  44.243   2.664
39342W        W10925   3.315  36.914  14.812
39343W        W10926  35.294  41.517   0.480
39344W        W10927  15.678  20.976   4.725
39345W        W10928  29.987   1.309   0.654
39346W        W10929  24.735  26.466   4.684
39347W        W10930  32.067  38.477   4.956
39348W        W10931   2.356  16.177   0.495
39349W        W10932  18.852  21.372  10.685
39350W        W10933  43.827  30.353   1.279
39351W        W10934  21.090  41.041   0.315
39352W        W10935  22.271  35.080   2.191
39353W        W10936   7.171  13.205   0.785
39354W        W10937  19.170  18.114   9.648
39355W        W10938  11.702  43.039  12.614
39356W        W10939  28.013   9.603   2.047
39357W        W10940   6.878  22.595  11.683
39358W        W10941  36.373   7.473  13.436
39359W        W10942   8.700  39.468  13.986
39360W        W10943  32.831  36.509   0.375
39361W        W10944  26.639  28.819   2.483
39362W        W10945   0.205  20.080   2.922
39363W        W10946  32.512  43.980   1.853
39364W        W10947   8.874   3.065  14.298
39365W        W10948  11.642  40.494   0.832
39366W        W10949  12.086   0.143  13.323
39367W        W10950  15.784  27.636  11.000
39368W        W10951  15.477  25.724  12.348
39369W        W10952  16.764   5.460  11.584
39370W        W10953  22.553  36.608  14.320
39371W        W10954  40.107   5.709   2.362
39372W        W10955   2.278  24.953   2.683
39373W        W10956   7.397  37.834   3.568
39374W        W10957  16.303  33.527   4.546
39375W        W10958  11.344  38.449   2.215
39376W        W10959   1.857  38.614   3.125
39377W        W10960  22.455  20.239   2.281
39378W        W10961  34.142  39.463  13.496
39379W        W10962  13.447   5.122  12.864
39380W        W10963  23.209   0.175  12.438
39381W        W10964   8.730  13.468   0.827
39382W        W10965   6.420  38.843   0.816
39383W        W10966  43.346   1.572  13.643
39384W        W10967  19.885  44.341  11.631
39385W        W10968  20.021   8.611   2.513
39386W        W10969  43.438  40.051  13.000
39387W        W10970  39.326  23.244   1.628
39388W        W10971  42.673  20.248  11.157
39389W        W10972  21.126   7.189   2.823
39390W        W10973  41.061  10.246  11.073
39391W        W10974  13.370  26.479  12.818
39392W        W10975  12.625  10.209  10.278
39393W        W10976  21.111  13.975  14.333
39394W        W10977   0.550   9.026   1.863
39395W        W10978  17.735   9.086   4.488
39396W        W10979   7.221  21.203  11.604
39397W        W10980  34.938  22.962   3.019
39398W        W10981   1.386   1.257   0.822
39399W        W10982  28.542   8.683  11.475
39400W        W10983  41.485  13.454  10.662
39401W        W10984  21.722  33.339  14.505
39402W        W10985  41.300  34.955   2.749
39403W        W10986   1.367  17.840   4.259
39404W        W10987  12.558   3.988   3.097
39405W        W10988  13.333  33.419   3.707
39406W        W10989  28.485  32.625   0.408
39407W        W10990  35.535  25.993   3.679
39408W        W10991  13.742  27.716  12.027
39409W        W10992   0.521  26.645   0.303
39410W        W10993  14.750  11.329   4.281
39411W        W10994   0.462  31.639  12.140
39412W        W10995   7.743  32.384   1.239
39413W        W10996  17.980  23.846   1.890
39414W        W10997   2.155  43.581  11.783
39415W        W10998  31.092  43.174   4.267
39416W        W10999  37.028   6.567   2.149
39417W        W11000  12.718  32.803   0.760
39418W        W11001   0.392  14.309   2.245
39419W        W11002   9.839  30.546  13.973
39420W        W11003  43.466  26.024  14.064
39421W        W11004  36.456  34.206   2.226
39422W        W11005   8.936  22.705   1.064
39423W        W11006  10.361  15.265   4.541
39424W        W11007  22.245   3.475  10.749
39425W        W11008  21.474   8.655   0.336
39426W        W11009   7.374  12.223  10.893
39427W        W11010  28.943  28.903  13.530
39428W        W11011  43.533  10.000   2.326
39429W        W11012  27.178   4.912  12.320
39430W        W11013  28.127  22.997   0.368
39431W        W11014  37.837  21.936   1.100
39432W        W11015  41.797   1.989   3.197
39433W        W11016  41.798  39.751   2.836
39434W        W11017  38.489  21.245   3.306
39435W        W11018  27.521  20.266   4.465
39436W        W11019  13.665  39.193   0.629
39437W        W11020  36.471  44.258   3.750
39438W        W11021  38.877  31.208   4.163
39439W        W11022   3.325   2.860   1.313
39440W        W11023  41.644  29.456   1.989
39441W        W11024  31.358  11.205  12.407
39442W        W11025  21.595  19.361   3.641
39443W        W11026   4.302  29.935   0.351
39444W        W11027   4.110  25.681   2.749
39445W        W11028  33.020   0.556   1.754
39446W        W11029  20.250  29.189  12.974
39447W        W11030  30.809  31.874  10.959
39448W        W11031  18.627  43.448  13.358
39449W        W11032  36.326   8.881  10.881
39450W        W11033   2.962  41.358  13.955
39451W        W11034  25.680   5.942   1.282
39452W        W11035   6.998  34.898   2.263
39453W        W11036  15.720  30.988   1.886
39454W        W11037  23.736  40.387  11.114
39455W        W11038   6.297  21.335   2.677
39456W        W11039  35.578   0.216  12.080
39457W        W11040  25.032   9.874   4.102
39458W        W11041  39.305  43.761   0.946
39459W        W11042  33.645  37.980   1.914
39460W        W11043  32.654  30.897  14.880
39461W        W11044  31.090  23.137   4.674
39462W        W11045   3.489  41.280  12.852
39463W        W11046  29.485  32.084   2.249
39464W        W11047  16.306  20.036   0.908
39465W        W11048  16.002   0.461  13.330
39466W        W11049  25.034  22.653   3.687
39467W        W11050  37.856  25.763   0.312
39468W        W11051  17.220   2.966  10.456
39469W        W11052  28.487   3.313  14.377
39470W        W11053   0.838  22.148   1.717
39471W        W11054   5.453  17.015  11.011
39472W        W11055  29.015  10.288  13.396
39473W        W11056  20.847  40.987  13.023
39474W        W11057  35.813  29.465  13.089
39475W        W11058  15.805  21.187  12.459
39476W        W11059  23.594   0.119  12.075
39477W        W11060  44.729   2.012   0.748
39478W        W11061   1.121  24.966  11.091
39479W        W11062  27.164  20.728  13.659
39480W        W11063   3.530   9.724   0.366
39481W        W11064  28.099  17.688  13.908
39482W        W11065  33.149  23.622  11.485
39483W        W11066  22.113  10.191   2.000
39484W        W11067  32.651  37.331   3.592
39485W        W11068  43.091  43.448   1.647
39486W        W11069  26.966   8.255   0.492
39487W        W11070  11.294  18.979   1.545
39488W        W11071  20.576  29.690   1.942
39489W        W11072  23.726  25.282  14.273
39490W        W11073  28.068  33.586   1.009
39491W        W11074  32.625  32.872   1.810
39492W        W11075  19.055  17.316  13.965
39493W        W11076  39.944  26.226   0.390
39494W        W11077  41.871  31.519  12.433
39495W        W11078  41.323  25.596   3.307
39496W        W11079  14.701  12.727   3.716
39497W        W11080  24.640  13.389   3.345
39498W        W11081  39.398   3.886   0.303
39499W        W11082  24.682  12.770  12.840
39500W        W11083  31.639  43.846   0.163
39501W        W11084  11.452  41.282   4.503
39502W        W11085  27.315   8.696  14.293
39503W        W11086  35.387   0.382   2.822
39504W        W11087  34.760  22.551   2.762
39505W        W11088  15.796  43.375   1.319
39506W        W11089  30.141   7.369   1.794
39507W        W11090  35.661  31.786  11.576
39508W        W11091  42.051  19.499   1.811
39509W        W11092  21.192  38.777   4.946
39510W        W11093   4.431  21.006  13.018
39511W        W11094  22.963  15.815  13.482
39512W        W11095  14.118  33.394   1.225
39513W        W11096  28.933   3.483   4.914
39514W        W11097  16.300  33.656   0.747
39515W        W11098  25.016  44.333  11.192
39516W        W11099  10.201  36.581  11.057
39517W        W11100   0.508  31.779  13.649
39518W        W11101   3.411  24.931   1.320
39519W        W11102   9.283  44.782   4.165
39520W        W11103  38.499  34.065   0.445
39521W        W11104  42.436  20.437  11.569
39522W        W11105  33.649  35.870   3.628
39523W        W11106  25.145  19.030   0.244
39524W        W11107   3.279  43.013  13.762
39525W        W11108  27.629   1.294  13.974
39526W        W11109  41.037  12.819  11.548
39527W        W11110  28.944  30.585  13.357
39528W        W11111  29.447  22.715   5.238
39529W        W11112  20.015   8.886  14.476
39530W        W11113  10.281  42.710  12.283
39531W        W11114  37.960  37.873  14.311
39532W        W11115  23.988  39.603  14.641
39533W        W11116  36.964  31.583  10.698
39534W        W11117   1.318  16.250   3.378
39535W        W11118   1.357  37.089   2.641
39536W        W11119  19.552  11.632  11.997
39537W        W11120  43.436  35.401  11.458
39538W        W11121  15.607  39.563  13.498
39539W        W11122  13.346  13.874  13.962
39540W        W11123  28.536  39.755   4.133
39541W        W11124  22.992  17.712   4.715
39542W        W11125  19.685  35.479  13.626
39543W        W11126  32.671   4.749   2.860
39544W        W11127  36.498  20.316  11.805
39545W        W11128  17.012   3.206   1.848
39546W        W11129  29.271  31.635  11.526
39547W        W11130  17.059  35.627   5.557
39548W        W11131  28.803   1.013   4.353
39549W        W11132  23.091  13.564   2.770
39550W        W11133  43.551  19.503   1.872
39551W        W11134  23.650  36.049   1.293
39552W        W11135   2.554  32.133  13.018
39553W        W11136  10.317  37.503   4.361
39554W        W11137  29.581  36.803  12.068
39555W        W11138   8.876  37.859   4.490
39556W        W11139  36.086  33.445  13.443
39557W        W11140  37.405  19.498  14.587
39558W        W11141  32.523  22.305   3.733
39559W        W11142  43.224  28.224  14.994
39560W        W11143  26.415  11.182  12.364
39561W        W11144  15.908  24.584  12.056
39562W        W11145   8.624  32.065  12.494
39563W        W11146   8.470  13.727   4.198
39564W        W11147  22.842  40.083   0.335
39565W        W11148   5.454  34.967  12.499
39566W        W11149  34.108  11.961   3.918
39567W        W11150  25.273   2.529  11.141
39568W        W11151  15.852  29.464  12.864
39569W        W11152  21.548  36.071   4.204
39570W        W11153   1.632   7.152  14.721
39571W        W11154   8.246  23.404   3.658
39572W        W11155  16.809  38.111   2.264
39573W        W11156  37.532   0.435   2.847
39574W        W11157  36.482  13.945  13.832
39575W        W11158  23.174   3.256  10.574
39576W        W11159   3.820  24.101   3.445
39577W        W11160  19.635  36.598   4.686
39578W        W11161  22.157  23.459   1.379
39579W        W11162  12.627  42.429   0.346
39580W        W11163  13.185   7.198  11.046
39581W        W11164  25.620   3.331   2.843
39582W        W11165  43.517  40.537   3.245
39583W        W11166  12.280  33.804  11.821
39584W        W11167  31.993  14.514   1.969
39585W        W11168  28.148  32.828  12.928
39586W        W11169  23.457  26.427   4.228
39587W        W11170   0.898  21.667  12.177
39588W        W11171  21.393  19.262  11.496
39589W        W11172  20.739  20.048   0.667
39590W        W11173  29.211  10.725  11.065
39591W        W11174  33.941  18.714  13.036
39592W        W11175  28.096  27.882  11.599
39593W        W11176  25.510  17.771   3.751
39594W        W11177  11.752  41.495  12.038
39595W        W11178  44.816   5.509   1.432
39596W        W11179   0.802  18.976   3.156
39597W        W11180  23.068  42.105   4.135
39598W        W11181   7.183  11.861   0.771
39599W        W11182  27.554  33.621   4.524
39600W        W11183  37.098  36.150   2.848
39601W        W11184  25.883   5.933  12.600
39602W        W11185   1.449  14.299   2.298
39603W        W11186  33.914  15.835   4.792
39604W        W11187  36.260  15.992  14.543
39605W        W11188  30.450   3.204   1.853
39606W        W11189   8.821  35.391   1.255
39607W        W11190  18.667  32.583  13.263
39608W        W11191  22.570  28.576   2.478
39609W        W11192   1.972  15.056   4.335
39610W        W11193   0.386   5.827   1.231
39611W        W11194  33.557  43.853   3.357
39612W        W11195  36.901  30.646   5.128
39613W        W11196  11.852  31.515   2.726
39614W        W11197   4.928  29.442   2.816
39615W        W11198  33.514  31.646   4.649
39616W        W11199  43.779   6.325  11.364
39617W        W11200  33.238  10.298   2.567
39618W        W11201  13.044  14.400   3.621
39619W        W11202  17.576  10.135   3.700
39620W        W11203  40.561  14.064  13.404
39621W        W11204  34.917  10.676  14.761
39622W        W11205   8.456  23.710  13.949
39623W        W11206   0.889  41.442  10.517
39624W        W11207  41.115  41.877   0.530
39625W        W11208  23.968  36.309   0.894
39626W        W11209  28.500  21.455  14.741
39627W        W11210  16.742   6.248   3.233
39628W        W11211  20.749  39.905  11.570
39629W        W11212  10.659  38.516  11.939
39630W        W11213  31.456   3.935  11.945
39631W        W11214   2.753  38.820  14.024
39632W        W11215  21.471   9.618   0.750
39633W        W11216  25.326  28.011  10.335
39634W        W11217  30.380  27.411  12.452
39635W        W11218  10.108  24.332   2.778
39636W        W11219  26.094  44.201  13.528
39637W        W11220  35.016  36.187  13.393
39638W        W11221  17.713  25.316   9.884
39639W        W11222   2.426  36.455   4.067
39640W        W11223  37.945  40.086   0.395
39641W        W11224  10.191  41.832  11.572
39642W        W11225  29.143   7.419  14.349
39643W        W11226  21.042  35.505   3.098
39644W        W11227  21.567   2.692  14.255
39645W        W11228  40.758   4.934   4.530
39646W        W11229  41.938  13.057  10.252
39647W        W11230  23.940  18.182  13.472
39648W        W11231  30.527  14.939  10.992
39649W        W11232  32.152   9.235   4.781
39650W        W11233   7.120  20.501  12.123
39651W        W11234   0.291  22.766   3.618
39652W        W11235  16.178  41.809  14.500
39653W        W11236  25.704  33.960   0.664
39654W        W11237  29.983  31.405   0.030
39655W        W11238  35.678  13.722   1.465
39656W        W11239  19.676  43.061   2.718
39657W        W11240  43.963  27.482   1.723
39658W        W11241  28.703  12.658   4.470
39659W        W11242  43.397   0.514   5.023
39660W        W11243  38.760  44.224  13.076
39661W        W11244  27.583   6.289   3.669
39662W        W11245  13.747  14.041  14.749
39663W        W11246  28.031   4.417  14.293
39664W        W11247   8.946  35.567  14.871
39665W        W11248  10.750  34.498  11.975
39666W        W11249   7.890  31.086  13.082
39667W        W11250  39.859  16.860  11.175
39668W        W11251  43.005   6.193  14.902
39669W        W11252  21.746   7.057   1.592
39670W        W11253  39.139  40.655  11.072
39671W        W11254  44.974  33.413   4.124
39672W        W11255  31.574   9.649  13.888
39673W        W11256  11.082   8.128  14.246
39674W        W11257  18.126  13.797  12.991
39675W        W11258  40.985   1.264   2.996
39676W        W11259  27.478  44.709   0.305
39677W        W11260  32.043  30.230   2.338
39678W        W11261   4.798  17.744   1.649
39679W        W11262  19.588  16.704   3.606
39680W        W11263   8.796  44.642  11.478
39681W        W11264  30.172   4.786   0.875
39682W        W11265  12.346  44.906  14.494
39683W        W11266  36.189  36.061  13.069
39684W        W11267   9.766  42.740  10.709
39685W        W11268  43.165  10.557   4.915
39686W        W11269  38.981  32.664   4.727
39687W        W11270   5.671  41.027  11.176
39688W        W11271  22.426  34.992  11.939
39689W        W11272  24.233  32.468  13.932
39690W        W11273   9.329  27.682  11.677
39691W        W11274   2.233  18.264  11.165
39692W        W11275  41.328  22.195  13.812
39693W        W11276  19.113  20.704   0.599
39694W        W11277  34.066  37.404  11.575
39695W        W11278  38.366  31.075   4.892
39696W        W11279  35.066  15.159   4.639
39697W        W11280   6.795  12.226   4.599
39698W        W11281  25.098   8.217  12.961
39699W        W11282  18.165  12.306  11.057
39700W        W11283  28.514  34.489   3.319
39701W        W11284  15.796  29.574   4.519
39702W        W11285  32.696  14.441  13.547
39703W        W11286   1.321  31.286  10.613
39704W        W11287  21.877  10.299   9.851
39705W        W11288  37.557  38.472  14.476
39706W        W11289   3.269  13.645  12.444
39707W        W11290  15.801  32.557  12.122
39708W        W11291  25.181   0.766   2.445
39709W        W11292  13.806  11.606   3.805
39710W        W11293   7.307  34.536   1.888
39711W        W11294  11.261   7.717  11.958
39712W        W11295  30.301  21.578   4.557
39713W        W11296  11.280  26.321  13.296
39714W        W11297  34.387  44.387   0.785
39715W        W11298  40.806  36.846  12.396
39716W        W11299  28.039  30.778   5.489
39717W        W11300  32.411  36.809   1.870
39718W        W11301  44.472  11.792   1.402
39719W        W11302  35.186  29.693   3.160
39720W        W11303  28.383  42.145   1.051
39721W        W11304  36.813   1.083   0.334
39722W        W11305  35.900  15.220   3.563
39723W        W11306  25.451  30.374  11.650
39724W        W11307  44.315   4.724  12.720
39725W        W11308  33.570  44.780   2.842
39726W        W11309  25.222  10.309   2.852
39727W        W11310  17.787  31.833   1.022
39728W        W11311  26.666  38.892   1.222
39729W        W11312  37.368  11.600   4.116
39730W        W11313  13.405  19.692  10.739
39731W        W11314  22.025   8.012   5.144
39732W        W11315  12.291  14.762   0.698
39733W        W11316  15.315  27.585  13.822
39734W        W11317  34.910  41.706  13.481
39735W        W11318  12.319  20.831  11.593
39736W        W11319  20.555  34.583   1.513
39737W        W11320  20.642  21.806  13.017
39738W        W11321  42.052   3.856  13.260
39739W        W11322  10.463  23.958   2.798
39740W        W11323  17.192  34.277  12.256
39741W        W11324  31.970  12.482   1.324
39742W        W11325  16.138   6.398  11.184
39743W        W11326   1.302  38.975  12.654
39744W        W11327  23.681   2.943  14.156
39745W        W11328   1.709  33.845   4.398
39746W        W11329  44.523  29.565   4.618
39747W        W11330  12.241  17.090  12.768
39748W        W11331  14.146  38.516  11.682
39749W        W11332   9.573  44.219   4.773
39750W        W11333  17.778  44.797   3.722
39751W        W11334  44.918   5.325   0.971
39752W        W11335   5.436  29.005  13.821
39753W        W11336   8.832  30.745  13.240
39754W        W11337  35.048  22.296   0.358
39755W        W11338   0.877  32.452   4.672
39756W        W11339  42.840  15.558  14.118
39757W        W11340   3.501  26.941   1.413
39758W        W11341  21.388  44.388  13.868
39759W        W11342  19.722   3.726   1.919
39760W        W11343  39.289   5.315  13.990
39761W        W11344  22.736   6.435  14.814
39762W        W11345  23.689  28.986   2.864
39763W        W11346   1.030   8.402   3.015
39764W        W11347  38.513  19.793  12.475
39765W        W11348  31.940  37.460   0.145
39766W        W11349  29.060  37.590   1.335
39767W        W11350  33.869  35.629  11.300
39768W        W11351  31.601  43.024  12.975
39769W        W11352  12.723   0.548   0.042
39770W        W11353  32.323  28.654  11.147
39771W        W11354  26.502  40.421   3.696
39772W        W11355  24.120   1.707  13.903
39773W        W11356  21.554  17.244   5.129
39774W        W11357   5.700  32.792  11.102
39775W        W11358  26.293  18.560  14.356
39776W        W11359  22.032  27.136  13.010
39777W        W11360  18.158  23.691  10.950
39778W        W11361   3.348   1.700   1.800
39779W        W11362  30.116   7.359   2.708
39780W        W11363  22.716  10.288  12.332
39781W        W11364  44.348  10.683  14.788
39782W        W11365  38.300  40.831   2.261
39783W        W11366  38.424  32.101   0.878
39784W        W11367  15.827   2.034  12.441
39785W        W11368   0.457   1.722   1.872
39786W        W11369   9.352  23.847  11.894
39787W        W11370  39.341  37.458   3.641
39788W        W11371   2.286  26.551   4.574
39789W        W11372  36.123   9.905   3.201
39790W        W11373   1.371   3.417   2.773
39791W        W11374  31.292  32.581   4.067
39792W        W11375  16.855  40.270   3.742
39793W        W11376   8.405   8.484  12.446
39794W        W11377  19.743  28.911  11.962
39795W        W11378  34.480  16.009   4.636
39796W        W11379  16.070  36.864   4.957
39797W        W11380   5.300  44.049  12.055
39798W        W11381  24.249  32.186   4.217
39799W        W11382  25.129  11.767  13.017
39800W        W11383  14.149  18.903   2.238
39801W        W11384  35.839  19.033   1.270
39802W        W11385  10.528  14.155  11.207
39803W        W11386  40.610  19.051   0.234
39804W        W11387  15.994  12.842  10.637
39805W        W11388  26.261  21.592   2.255
39806W        W11389  32.710  38.405  13.521
39807W        W11390  36.357  44.614  14.870
39808W        W11391  37.694  26.967   4.102
39809W        W11392  28.485  11.826  11.529
39810W        W11393   2.828  28.480   3.069
39811W        W11394  37.074   1.472   1.212
39812W        W11395  22.944  34.234  12.117
39813W        W11396   1.994  38.899  14.451
39814W        W11397  27.111  13.278  10.418
39815W        W11398  43.378  23.729  11.892
39816W        W11399  18.571  44.889   0.704
39817W        W11400  23.919   6.805   0.220
39818W        W11401  11.642  31.078   4.583
39819W        W11402  23.272  22.545   1.215
39820W        W11403  43.726   5.068  11.964
39821W        W11404   7.140   5.801  13.023
39822W        W11405  40.636  12.761  12.596
39823W        W11406  22.827   5.325   0.346
39824W        W11407  22.711  13.904   2.792
39825W        W11408  21.655   7.934   2.395
39826W        W11409  19.993  13.853   0.699
39827W        W11410  18.904  33.766  11.835
39828W        W11411  21.056  11.703  11.125
39829W        W11412  23.676  14.291  13.838
39830W        W11413  34.575   6.362  14.703
39831W        W11414  10.658  24.607   0.361
39832W        W11415  14.159  31.090  10.903
39833W        W11416  13.214   3.021  13.766
39834W        W11417  38.073   1.284   1.271
39835W        W11418  25.249  28.116  12.048
39836W        W11419  20.101  14.112  12.002
39837W        W11420  16.545   2.098  11.929
39838W        W11421  40.310   7.413   1.007
39839W        W11422  36.184  44.386   1.491
39840W        W11423  31.892  35.889  12.440
39841W        W11424  32.964  12.133  13.116
39842W        W11425  35.583  31.889  12.836
39843W        W11426   1.442  43.781  12.309
39844W        W11427  23.244  21.108   3.733
39845W        W11428   3.709   0.844   4.629
39846W        W11429  31.192  38.432  10.597
39847W        W11430  44.346   6.725   4.267
39848W        W11431  18.656  35.012  12.882
39849W        W11432  11.091  12.888  12.464
39850W        W11433  43.916  41.065   0.385
39851W        W11434  28.196  14.308   5.067
39852W        W11435  28.948  18.102   4.704
39853W        W11436  20.591   9.415   1.873
39854W        W11437  19.976  25.151  12.044
39855W        W11438  16.078  36.498   4.570
39856W        W11439  43.569  20.777   1.458
39857W        W11440  36.773  23.093  11.582
39858W        W11441   6.638  13.750   3.227
39859W        W11442  20.232  21.095  11.554
39860W        W11443  37.843  25.621   0.795
39861W        W11444  17.065   6.324   0.508
39862W        W11445  25.959   4.384   3.294
39863W        W11446   8.712   1.178  13.281
39864W        W11447  33.030  10.789   2.363
39865W        W11448  32.182  42.467  10.695
39866W        W11449  20.113  24.260   3.254
39867W        W11450  12.231  26.952   1.287
39868W        W11451  23.768  36.672  12.573
39869W        W11452   6.200  44.761   2.876
39870W        W11453  26.025  16.112   0.760
39871W        W11454   5.506  37.361   1.356
39872W        W11455   0.846  34.387   4.170
39873W        W11456  37.331  42.126   0.908
39874W        W11457  33.963   6.922   2.695
39875W        W11458  17.365  39.982   3.824
39876W        W11459  13.325   0.921   4.859
39877W        W11460   1.494  21.012   3.655
39878W        W11461   3.430  22.652  10.724
39879W        W11462  38.844  35.396   0.452
39880W        W11463  16.752  39.771  11.090
39881W        W11464  39.025  40.540  13.110
39882W        W11465   2.523  10.736   0.272
39883W        W11466  16.995  30.026   4.392
39884W        W11467  28.968  21.998  13.439
39885W        W11468  40.400  17.518   0.801
39886W        W11469  19.519  31.579  13.732
39887W        W11470  33.454  21.767   3.877
39888W        W11471  32.826  12.889   4.160
39889W        W11472  31.176  38.815   2.849
39890W        W11473  29.689  40.798   4.053
39891W        W11474  30.128   5.067   0.340
39892W        W11475  37.851  22.914   0.847
39893W        W11476  19.076  21.174   4.463
39894W        W11477  17.083   9.828   2.417
39895W        W11478  20.703  14.602  12.424
39896W        W11479   9.801  21.066  11.035
39897W        W11480  15.386  10.306   2.755
39898W        W11481  34.459   4.160  14.835
39899W        W11482  19.292  32.857   4.342
39900W        W11483  44.835  19.822  14.689
39901W        W11484  36.092   8.344   1.928
39902W        W11485  29.708  33.713  11.136
39903W        W11486   5.451   6.936   0.032
39904W        W11487  14.343  21.768   1.226
39905W        W11488  30.576  37.646  13.530
39906W        W11489  43.919  19.262  14.288
39907W        W11490  17.892  39.903   2.346
39908W        W11491  19.159   5.680  14.303
39909W        W11492  11.279  43.464   2.747
39910W        W11493   4.020  33.163  14.857
39911W        W11494   1.990  27.659  14.630
39912W        W11495  43.336  43.195   4.153
39913W        W11496   3.348  43.975  14.615
39914W        W11497   3.454  33.041  14.007
39915W        W11498   0.387  32.737   2.784
39916W        W11499  15.268   8.249  13.490
39917W        W11500   5.852  23.037  11.577
39918W        W11501  38.636  12.605   1.655
39919W        W11502  39.129  12.906  12.917
39920W        W11503   4.916   8.228   0.747
39921W        W11504  31.691  39.468  13.223
39922W        W11505  36.550  37.045  14.765
39923W        W11506  11.540   5.325   2.316
39924W        W11507   4.940  38.788   1.177
39925W        W11508   9.898  23.492  13.859
39926W        W11509   4.441  14.401  11.528
39927W        W11510  19.605  33.823   2.790
39928W        W11511   1.958   9.672  11.202
39929W        W11512   0.859   7.187   2.192
39930W        W11513  10.150  26.956  10.413
39931W        W11514  17.067   8.841  10.242
39932W        W11515   8.781   4.333  11.371
39933W        W11516   7.455  29.238   4.142
39934W        W11517  24.244  24.155   0.506
39935W        W11518   1.107  28.138  14.786
39936W        W11519  31.037   6.950   3.207
39937W        W11520  40.883  19.695   3.375
39938W        W11521  18.936  33.677  11.271
39939W        W11522   5.371   9.773  13.588
39940W        W11523  31.543   8.122   1.103
39941W        W11524  11.913  12.870   2.456
39942W        W11525  32.650  43.877  11.032
39943W        W11526  35.094  10.087  11.075
39944W        W11527  34.603  19.097   0.934
39945W        W11528  17.767  36.477  12.471
39946W        W11529  29.353   5.331   1.849
39947W        W11530  15.371   7.359  13.773
39948W        W11531   1.252  21.513   1.292
39949W        W11532   9.610  38.458   0.516
39950W        W11533  22.330  34.711  14.167
39951W        W11534  32.618  14.133  14.852
39952W        W11535  32.438  20.518  11.339
39953W        W11536  12.424  42.484  13.540
39954W        W11537   7.606  35.881  14.557
39955W        W11538  17.671  33.639  12.461
39956W        W11539  25.020  24.591  14.404
39957W        W11540   0.864  27.524  11.577
39958W        W11541   9.575   6.252  12.959
39959W        W11542  22.999  11.755   2.852
39960W        W11543   2.407   2.826   1.340
39961W        W11544  28.350  44.013   0.897
39962W        W11545  41.516  17.785  13.959
39963W        W11546  18.218  38.337  12.968
39964W        W11547  16.077  30.631  14.354
39965W        W11548   3.589   3.736   4.950
39966W        W11549  35.412  44.329  13.936
39967W        W11550  26.474  18.117   1.523
39968W        W11551  22.377  15.330  11.102
39969W        W11552  29.537  19.219  14.002
39970W        W11553   2.630  20.043   0.711
39971W        W11554   2.466  25.147  10.878
39972W        W11555  38.244  33.357   4.170
39973W        W11556  44.325  14.183   0.470
39974W        W11557  34.850  18.580  13.785
39975W        W11558  39.349  22.512  14.977
39976W        W11559  20.978  24.707   0.481
39977W        W11560  40.066  39.225   3.349
39978W        W11561  19.212  13.608  13.999
39979W        W11562  11.368  18.710   0.303
39980W        W11563   3.679  30.269   2.366
39981W        W11564  36.358  42.073   0.895
39982W        W11565  18.947  10.411   3.718
39983W        W11566  20.299   8.218  13.451
39984W        W11567  29.380  43.455  12.988
39985W        W11568  44.748  24.218   2.151
39986W        W11569  41.219  10.280   3.397
39987W        W11570  33.628   7.595  10.847
39988W        W11571  36.588  31.082  11.514
39989W        W11572  14.364  14.165   0.866
39990W        W11573  23.021  37.596  11.834
39991W        W11574  42.000  35.254  13.315
39992W        W11575  41.945  20.576   1.723
39993W        W11576  29.460   7.868  13.798
39994W        W11577  31.093   4.436   4.431
39995W        W11578  28.591  42.808  14.553
39996W        W11579  27.751  28.367   0.133
39997W        W11580  25.735  13.262   1.912
39998W        W11581  41.859  26.122   0.872
39999W        W11582  32.166   7.229  13.896
40000W        W11583  28.430  28.894   2.913
40001W        W11584   8.877  19.354  10.666
40002W        W11585  42.475  13.322  13.609
40003W        W11586  14.847  23.368  13.169
40004W        W11587   9.207  15.606  13.736
40005W        W11588  40.771  11.320  10.667
40006W        W11589  15.447   4.332  14.028
40007W        W11590  34.844  31.489   1.556
40008W        W11591  12.266  19.062   1.439
40009W        W11592  26.995  18.261   3.448
40010W        W11593  27.774   6.317   3.196
40011W        W11594   5.323  20.717  10.949
40012W        W11595  27.016  24.814   2.213
40013W        W11596  32.858  33.520  14.918
40014W        W11597  36.248  35.603   4.518
40015W        W11598  10.765  37.902   1.169
40016W        W11599  13.722  32.056   4.584
40017W        W11600  39.854   4.730   2.435
40018W        W11601  21.638  27.149  12.299
40019W        W11602  34.246  16.041  12.942
40020W        W11603  15.145  36.524   4.898
40021W        W11604  16.378  44.526  11.576
40022W        W11605  28.023  31.335  12.084
40023W        W11606   9.307  19.667  12.831
40024W        W11607   4.741  42.435  11.580
40025W        W11608  34.646  23.178  12.026
40026W        W11609   2.931  25.221   3.535
40027W        W11610   1.066  35.356   3.545
40028W        W11611  41.373   1.048  11.611
40029W        W11612   5.316  18.752  12.907
40030W        W11613  31.066  36.843  14.205
40031W        W11614  22.963   8.325  12.867
40032W        W11615  31.965  26.505   3.822
40033W        W11616  20.660  25.457  10.987
40034W        W11617  32.332  27.117   4.847
40035W        W11618  19.300   0.192   3.687
40036W        W11619   0.879  41.307  14.317
40037W        W11620   5.481  31.100   2.312
40038W        W11621   9.739  21.974  13.845
40039W        W11622  38.309  36.093   3.265
40040W        W11623   9.132   9.344   4.757
40041W        W11624  32.171  14.010   4.601
40042W        W11625   2.278  41.552   1.341
40043W        W11626   1.723  18.265   4.584
40044W        W11627  21.080  39.947   2.239
40045W        W11628  18.345  30.174   1.723
40046W        W11629  18.313  10.135  13.487
40047W        W11630  25.645  14.767   1.631
40048W        W11631  36.439  43.571  14.795
40049W        W11632  10.386  44.323  12.471
40050W        W11633  16.648   3.415   1.277
40051W        W11634  43.281  11.929  13.990
40052W        W11635  43.793  13.195   2.959
40053W        W11636  27.171  31.665   4.066
40054W        W11637  22.071  27.376   1.781
40055W        W11638  37.126   7.216   2.721
40056W        W11639  44.856  39.905   3.908
40057W        W11640   4.882  19.144  13.513
40058W        W11641  19.654  44.409   3.071
40059W        W11642   8.920  42.562   1.720
40060W        W11643  25.222  30.896   1.850
40061W        W11644  23.655   4.354   3.853
40062W        W11645  33.939   7.337  12.610
40063W        W11646  18.074  27.070  13.901
40064W        W11647  39.465  17.845   2.365
40065W        W11648  37.033  10.100  10.191
40066W        W11649  38.902  17.342  14.767
40067W        W11650  15.180  25.014   4.329
40068W        W11651  36.036  24.122   2.815
40069W        W11652   0.999  10.574   2.880
40070W        W11653  30.122   2.908  11.598
40071W        W11654  42.050  37.760   1.252
40072W        W11655  33.614  42.353  14.025
40073W        W11656  23.101  20.941  10.330
40074W        W11657  30.708  29.460  12.484
40075W        W11658  42.399   5.318   2.635
40076W        W11659  43.674   5.313  13.958
40077W        W11660   7.435  43.211   2.875
40078W        W11661  38.574  41.465  13.618
40079W        W11662  44.335   0.689  12.115
40080W        W11663  15.282  34.384  13.035
40081W        W11664  28.304   7.765  14.383
40082W        W11665  30.450  31.848  12.309
40083W        W11666  25.986  20.246   1.313
40084W        W11667  21.742  38.271  10.655
40085W        W11668  27.068  38.920   3.439
40086W        W11669  10.776  12.117   3.139
40087W        W11670   6.764  43.388   1.178
40088W        W11671  40.868  28.409  14.372
40089W        W11672   4.282  37.568   1.245
40090W        W11673  23.192  17.868  10.596
40091W        W11674  25.499   0.292  12.098
40092W        W11675   0.887  18.741   1.308
40093W        W11676  28.462   8.377   2.596
40094W        W11677  27.614  40.949   1.932
40095W        W11678  17.266  21.176  10.254
40096W        W11679  14.219  14.025   2.707
40097W        W11680  17.570   3.770   0.382
40098W        W11681  25.967   9.412   9.896
40099W        W11682   2.784   8.940   0.951
40100W        W11683  13.293  20.032   1.652
40101W        W11684  22.357   2.829   3.803
40102W        W11685  41.495  18.547   4.801
40103W        W11686  15.930  22.599   0.369
40104W        W11687  25.147  31.379  14.478
40105W        W11688  28.843   7.163  12.922
40106W        W11689  17.246  26.957   3.465
40107W        W11690   9.907  36.871  11.747
40108W        W11691   4.115   0.717   4.960
40109W        W11692  35.822  18.324   2.959
40110W        W11693   7.804  34.614  14.072
40111W        W11694  23.652  10.602  12.410
40112W        W11695  44.946  28.292   2.151
40113W        W11696   7.447  39.840  13.905
40114W        W11697   2.989  33.046  10.670
40115W        W11698  29.488  23.928   1.351
40116W        W11699   0.796  36.369   1.548
40117W        W11700   4.940  30.719  13.506
40118W        W11701   8.457  18.188   2.410
40119W        W11702  16.259  43.824   0.366
40120W        W11703  32.573  19.587   0.863
40121W        W11704  35.567   0.201  14.322
40122W        W11705   0.817  20.828  12.591
40123W        W11706  37.389  35.433  14.199
40124W        W11707  41.502   0.977   2.368
40125W        W11708  39.568  20.966   3.960
40126W        W11709  31.115   8.419   4.801
40127W        W11710   9.711  15.246   3.327
40128W        W11711  43.205  40.849   4.212
40129W        W11712  15.148  33.389  11.058
40130W        W11713  25.528  22.627  14.925
40131W        W11714  32.515  20.924   0.767
40132W        W11715  32.533  16.598  10.446
40133W        W11716  35.991  37.303   3.275
40134W        W11717  39.841  17.282   4.772
40135W        W11718   7.260  18.990   3.139
40136W        W11719  32.444  39.024  12.544
40137W        W11720  33.525   3.295   0.360
40138W        W11721  42.457  18.775   4.575
40139W        W11722   0.789   2.829  10.526
40140W        W11723  39.615  23.940  14.414
40141W        W11724  31.660   5.228   2.388
40142W        W11725  28.021   3.549   4.978
40143W        W11726  26.890   0.819   4.643
40144W        W11727  35.727  35.478  14.034
40145W        W11728   6.765  15.389   3.408
40146W        W11729  13.366  24.625   0.831
40147W        W11730  24.903  22.171   2.459
40148W        W11731  39.228  23.146   0.594
40149W        W11732  11.172  40.340  13.927
40150W        W11733  13.359  21.523   2.959
40151W        W11734  31.166  23.692  11.576
40152W        W11735  20.187  36.625   0.610
40153W        W11736  29.055  40.895  14.523
40154W        W11737  30.583  15.701   3.345
40155W        W11738  16.724  26.577   4.577
40156W        W11739   6.961   7.794  13.848
40157W        W11740  22.238   0.951   0.358
40158W        W11741   5.218   0.689  12.896
40159W        W11742   8.280  30.780  12.120
40160W        W11743  14.844  27.679   1.775
40161W        W11744  26.729  22.325   2.716
40162W        W11745  39.484  29.822  12.557
40163W        W11746  39.693  11.190  13.454
40164W        W11747  34.501  19.069  14.427
40165W        W11748  15.282   2.037  13.035
40166W        W11749  22.313  11.828   4.038
40167W        W11750   4.264  34.042  13.630
40168W        W11751  21.815  19.623   1.257
40169W        W11752  37.043   8.679  14.358
40170W        W11753  16.559  41.525  13.841
40171W        W11754  32.493  12.404   2.535
40172W        W11755  42.763  14.628   0.827
40173W        W11756  43.226  21.648  14.787
40174W        W11757  38.540  40.273   0.243
40175W        W11758   1.045  36.887  13.810
40176W        W11759  37.560  20.147   1.265
40177W        W11760  38.749  39.539   3.091
40178W        W11761   0.842  23.620   3.819
40179W        W11762  40.707  35.023  14.473
40180W        W11763  16.070  23.525  13.094
40181W        W11764  36.506  26.014  12.828
40182W        W11765   4.667   1.722  14.930
40183W        W11766  13.211  12.132   2.754
40184W        W11767  44.765  32.928   1.987
40185W        W11768   3.590  37.296   1.538
40186W        W11769  34.440  33.662  11.514
40187W        W11770  31.146   9.800  12.977
40188W        W11771  43.898   8.897  11.065
40189W        W11772  36.160   8.827   0.823
40190W        W11773  37.810   0.787   1.294
40191W        W11774  21.297  10.344   1.484
40192W        W11775  16.286   8.171  10.830
40193W        W11776  27.608  37.928   1.845
40194W        W11777  39.694  42.815   0.792
40195W        W11778  24.692   7.921   4.683
40196W        W11779  19.329  34.093  14.422
40197W        W11780  10.498   9.385   3.847
40198W        W11781   3.328  44.670  10.609
40199W        W11782   9.897  38.993   4.575
40200W        W11783  35.936  20.309  13.566
40201W        W11784  29.572   2.793   1.723
40202W        W11785  14.629  29.542  13.394
40203W        W11786  30.489  28.195  11.188
40204W        W11787  20.263   8.592   1.629
40205W        W11788   4.015  15.686   2.170
40206W        W11789   3.855  41.411  13.904
40207W        W11790  21.903  14.125   3.174
40208W        W11791  26.433  26.524  13.775
40209W        W11792  10.231   1.314  14.979
40210W        W11793  15.615  33.723  13.502
40211W        W11794  35.385   3.668   2.748
40212W        W11795  36.878  23.163   4.137
40213W        W11796  11.144  43.201  14.722
40214W        W11797  11.253  44.794   0.797
40215W        W11798  31.148   1.006  14.820
40216W        W11799   7.424   0.600  11.968
40217W        W11800  42.734  17.184   1.697
40218W        W11801  10.294  41.407  12.023
40219W        W11802  13.639   5.272  10.513
40220W        W11803  27.716  20.515  11.465
40221W        W11804  38.632  39.384   3.580
40222W        W11805  43.773  23.366  13.558
40223W        W11806  33.687   8.096   4.696
40224W        W11807  13.002  16.172  11.171
40225W        W11808  44.343  23.934  10.578
40226W        W11809  33.170  19.129   1.405
40227W        W11810  28.561  40.565  14.350
40228W        W11811  15.876  14.117  12.506
40229W        W11812   4.959  14.869   3.364
40230W        W11813  43.548  34.396  14.968
40231W        W11814  18.660  28.684   4.660
40232W        W11815   6.350   7.235   1.986
40233W        W11816  20.685  30.476   0.875
40234W        W11817   9.481  17.631  13.459
40235W        W11818  19.484   9.774  14.432
40236W        W11819  44.749  11.127   4.539
40237W        W11820   7.406  28.036   4.710
40238W        W11821   0.197  40.752  12.561
40239W        W11822  33.768  38.850   0.120
40240W        W11823   8.671   9.438   4.109
40241W        W11824  32.896  38.755  12.595
40242W        W11825  17.607  30.084   2.753
40243W        W11826  32.673   9.885  10.382
40244W        W11827  34.817   6.805  14.864
40245W        W11828  32.863  11.684  11.201
40246W        W11829  41.888  28.751  13.758
40247W        W11830  12.514  30.591   2.049
40248W        W11831  16.156  21.796  10.654
40249W        W11832  18.421  32.912  11.512
40250W        W11833   3.943  10.191  13.568
40251W        W11834   4.793  14.806  12.916
40252W        W11835   9.795   6.914  13.582
40253W        W11836  21.210  24.494   4.613
40254W        W11837  23.129   2.748   3.333
40255W        W11838  43.212  21.140  13.264
40256W        W11839  11.786  39.343   4.070
40257W        W11840  36.120  26.994   1.177
40258W        W11841  19.443  38.308  13.434
40259W        W11842  31.609   0.036   1.138
40260W        W11843  15.319   0.689  12.862
40261W        W11844  35.540  31.860   0.807
40262W        W11845  12.738  14.277  10.502
40263W        W11846  14.541  36.954  13.455
40264W        W11847  35.489   8.443   3.274
40265W        W11848   6.325  21.167   3.193
40266W        W11849  15.025  13.870   0.002
40267W        W11850  38.608  15.502   1.382
40268W        W11851  24.648  14.659   0.412
40269W        W11852  35.695  27.689  13.951
40270W        W11853  44.356  34.771   3.170
40271W        W11854  13.367  33.581   4.597
40272W        W11855  16.014  25.054  11.884
40273W        W11856  13.330  29.458   1.492
40274W        W11857  37.553  15.182   4.594
40275W        W11858   2.227  42.328   3.284
40276W        W11859  39.506  44.395  13.545
40277W        W11860  27.588   9.599  10.147
40278W        W11861   8.874  23.668  11.956
40279W        W11862  24.101  30.143  14.402
40280W        W11863  11.803   4.975   3.248
40281W        W11864  28.559   7.838   2.292
40282W        W11865  12.068  12.925   3.070
40283W        W11866   5.936  22.876  10.739
40284W        W11867  37.492  41.095  10.804
40285W        W11868   3.657   1.624   3.271
40286W        W11869  41.776  29.142   2.874
40287W        W11870  18.839  39.521  12.070
40288W        W11871   4.637  11.855   1.902
40289W        W11872  12.287   2.417   2.750
40290W        W11873   7.891  15.056   4.065
40291W        W11874  23.756   7.764  11.847
40292W        W11875  38.769  35.781  13.776
40293W        W11876  31.170  13.168  13.394
40294W        W11877  10.611   7.344  12.275
40295W        W11878  18.624  42.577  14.809
40296W        W11879  30.521  28.221   0.845
40297W        W11880   6.746  33.209  11.962
40298W        W11881  24.514  26.879  14.484
40299W        W11882   4.391  23.942  14.466
40300W        W11883  36.728  29.914  14.923
40301W        W11884  22.198  13.141  14.972
40302W        W11885  19.167  23.713   3.154
40303W        W11886  17.238  27.909  11.951
40304W        W11887   1.769   8.947  12.957
40305W        W11888  30.969   5.358  13.842
40306W        W11889  32.910  16.412   0.415
40307W        W11890  26.374   0.668  14.418
40308W        W11891  31.450  14.133   3.301
40309W        W11892   3.920  11.254  14.327
40310W        W11893  15.164  34.413   2.798
40311W        W11894  30.543  31.365   2.856
40312W        W11895  19.158  10.818   2.599
40313W        W11896  13.243   7.405   9.764
40314W        W11897  38.588  29.127  11.494
40315W        W11898  37.411  16.707  11.435
40316W        W11899  26.531  38.499   0.920
40317W        W11900  42.358  40.545   2.878
40318W        W11901  34.536  27.761   0.174
40319W        W11902  15.761  11.221  13.921
40320W        W11903  21.486  19.777  13.036
40321W        W11904   9.397   8.727  13.682
40322W        W11905  43.952  16.617  12.107
40323W        W11906  21.608   1.393  11.629
40324W        W11907   8.728  30.854  11.508
40325W        W11908  10.425  33.503   4.174
40326W        W11909   3.690  33.613  14.056
40327W        W11910   8.010  27.256   3.296
40328W        W11911  42.557  32.256  12.619
40329W        W11912   0.729  12.976  12.334
40330W        W11913  39.939   4.416  13.249
40331W        W11914  29.544   9.693  13.611
40332W        W11915   7.269   7.746   0.740
40333W        W11916  43.000  44.515  12.412
40334W        W11917  33.984   4.947   3.700
40335W        W11918  32.163  34.114  14.055
40336W        W11919  43.885  44.949  12.076
40337W        W11920  21.937  44.244   3.786
40338W        W11921  26.197  18.830   4.163
40339W        W11922   3.856  12.659   2.792
40340W        W11923  13.292  23.144  12.455
40341W        W11924  36.077   2.698   2.435
40342W        W11925  14.177  33.271  11.227
40343W        W11926  27.228   3.814  14.665
40344W        W11927  43.999  16.948   0.685
40345W        W11928  17.738  20.994   0.776
40346W        W11929  44.186  12.851  13.898
40347W        W11930  13.035  34.624  13.472
40348W        W11931  34.864   4.502   1.883
40349W        W11932  15.582   5.410  10.601
40350W        W11933  38.523  41.970   3.119
40351W        W11934  20.647   5.129  10.998
40352W        W11935  34.146  20.661   4.073
40353W        W11936   7.531  39.519   3.665
40354W        W11937  13.893  21.714  11.027
40355W        W11938  18.536  32.512  12.765
40356W        W11939   9.857   7.890  10.652
40357W        W11940  42.592  21.756  12.027
40358W        W11941  21.067  17.386   4.899
40359W        W11942  31.116  43.893  12.140
40360W        W11943  33.356  39.872  12.975
40361W        W11944  33.155  24.091  13.714
40362W        W11945   9.538   3.342  10.291
40363W        W11946   5.177  10.859   3.281
40364W        W11947   4.675   5.190   2.366
40365W        W11948   0.973   5.497   4.324
40366W        W11949  41.338  26.191  14.574
40367W        W11950  31.066  26.683   3.832
40368W        W11951  11.359  18.071  12.305
40369W        W11952  25.772  34.429  13.018
40370W        W11953  32.197  32.082   5.030
40371W        W11954  14.459   4.565   2.756
40372W        W11955   5.493  19.184  12.669
40373W        W11956  22.095   4.854  13.311
40374W        W11957  29.411  31.395  10.245
40375W        W11958  37.429   9.398   0.298
40376W        W11959  14.784  34.862  11.897
40377W        W11960  36.900   6.913   1.756
40378W        W11961   2.664  29.854  11.745
40379W        W11962  17.699   0.256  13.923
40380W        W11963  20.947  28.964   0.389
40381W        W11964   3.389  25.401   2.248
40382W        W11965  27.035  29.926  12.902
40383W        W11966  31.803  14.436   1.112
40384W        W11967  44.403  42.357   0.450
40385W        W11968  11.487  27.375  14.754
40386W        W11969  11.285  15.535  13.848
40387W        W11970   4.375  36.124  13.882
40388W        W11971  10.480  15.216   1.936
40389W        W11972  44.562  28.528   1.725
40390W        W11973  13.795   9.208  12.257
40391W        W11974  40.520  11.116  11.098
40392W        W11975   4.862  28.020   1.780
40393W        W11976   3.217  20.462   1.205
40394W        W11977   4.121  33.547  11.065
40395W        W11978  19.196  16.716  10.462
40396W        W11979  30.979   5.606  11.143
40397W        W11980  12.532  34.640  11.200
40398W        W11981  27.131   5.678   3.644
40399W        W11982  34.877  22.544   1.341
40400W        W11983  30.631  32.425  10.317
40401W        W11984  28.629  44.060  12.942
40402W        W11985  34.066  43.774   1.863
40403W        W11986   3.196  12.748  12.406
40404W        W11987   6.410  22.686   2.364
40405W        W11988   0.178  23.952   0.786
40406W        W11989  15.658   8.720   0.936
40407W        W11990  27.448   8.875   1.360
40408W        W11991  37.759   5.900  11.632
40409W        W11992  34.909  33.429  11.546
40410W        W11993   0.325   0.305  11.903
40411W        W11994  23.633  20.484  12.000
40412W        W11995  11.810  24.627  11.954
40413W        W11996  27.546  11.007  10.620
40414W        W11997  40.776  13.444   2.220
40415W        W11998  42.797  36.572  13.597
40416W        W11999  43.021  33.561   3.631
40417W        W12000  41.376  38.487   1.124
40418W        W12001  42.579  11.080  12.085
40419W        W12002  12.640   9.142  14.246
40420W        W12003  10.801   3.799   1.367
40421W        W12004  25.729   1.844   0.781
40422W        W12005  33.458  12.195   0.845
40423W        W12006  30.960   5.608  12.436
40424W        W12007  42.471  11.085   1.743
40425W        W12008  43.510   7.424  14.939
40426W        W12009  28.429  42.759  11.029
40427W        W12010  43.276  28.711   0.791
40428W        W12011   1.704   4.037   4.663
40429W        W12012  16.003  34.112  13.869
40430W        W12013   9.671  14.280   2.478
40431W        W12014   8.019  43.827   1.738
40432W        W12015  29.180  11.703  12.097
40433W        W12016  23.656  21.562   4.463
40434W        W12017   5.932  34.129   4.159
40435W        W12018  11.292  13.623  13.612
40436W        W12019  22.544  37.362   2.225
40437W        W12020   9.852  14.680  11.364
40438W        W12021  19.900   6.634   4.160
40439W        W12022  20.852  14.684   4.138
40440W        W12023   2.458   3.751  12.820
40441W        W12024   2.044  39.867   2.852
40442W        W12025  41.324   7.069   2.277
40443W        W12026   4.967  22.012  10.727
40444W        W12027   5.253  10.724   9.919
40445W        W12028   7.294  36.279   3.891
40446W        W12029  34.100  11.316  12.650
40447W        W12030  12.328  38.766  13.341
40448W        W12031  28.512  36.928  13.240
40449W        W12032  22.478  23.050   4.401
40450W        W12033   9.940  31.395  12.561
40451W        W12034  23.451  40.591  12.635
40452W        W12035  26.248   7.699  14.508
40453W        W12036  18.302  30.075   0.779
40454W        W12037  42.567  27.011  14.907
40455W        W12038   1.496  34.919  11.577
40456W        W12039  33.905  26.955  10.745
40457W        W12040  21.806  29.406  11.031
40458W        W12041  28.156  11.385   4.248
40459W        W12042   8.699  11.659   4.651
40460W        W12043  32.101  38.205  11.032
40461W        W12044  29.994   3.247   0.429
40462W        W12045  31.353  24.342   5.044
40463W        W12046   7.175  27.494  14.899
40464W        W12047  41.373   3.802   1.727
40465W        W12048   0.064  32.090  13.580
40466W        W12049   8.908  37.522  12.079
40467W        W12050  25.246  12.837  11.552
40468W        W12051   9.874  26.492   2.000
40469W        W12052  34.466   8.615  10.706
40470W        W12053  21.350  21.180   3.270
40471W        W12054  16.521   2.090  13.310
40472W        W12055  42.781  44.949   3.759
40473W        W12056  22.973  11.295  14.250
40474W        W12057  40.874   8.446  10.600
40475W        W12058  38.445  41.496   0.030
40476W        W12059   9.440  41.714   0.411
40477W        W12060  12.542   5.386  10.697
40478W        W12061  34.113   4.151   0.242
40479W        W12062  38.002  19.814   0.398
40480W        W12063  32.204  21.579   4.155
40481W        W12064  19.153  30.522   1.653
40482W        W12065  30.291   8.964   2.051
40483W        W12066  28.526  27.570   3.095
40484W        W12067  13.563  35.212  12.044
40485W        W12068  11.644   7.738  12.934
40486W        W12069  16.080  14.753   2.655
40487W        W12070  36.850  41.952   1.076
40488W        W12071  35.970  22.247   2.472
40489W        W12072  31.627  38.054  11.213
40490W        W12073  41.499  43.890   1.099
40491W        W12074  13.348   6.067  10.645
40492W        W12075  43.961  20.057   2.963
40493W        W12076  30.605  32.431  11.025
40494W        W12077  17.248  19.775   2.151
40495W        W12078  15.241   5.586   2.122
40496W        W12079  44.365  26.180   1.717
40497W        W12080  26.737  32.998  12.959
40498W        W12081  13.376  44.487   3.295
40499W        W12082  20.409  30.067   4.067
40500W        W12083  18.034  28.453  11.611
40501W        W12084  40.508  14.558   0.621
40502W        W12085  32.571   4.234  11.863
40503W        W12086  13.757  42.841  13.302
40504W        W12087  18.400  25.719  14.832
40505W        W12088  15.885  37.118   5.378
40506W        W12089  43.062  35.444  13.164
40507W        W12090  20.787   2.779  10.711
40508W        W12091  11.796   1.898   2.668
40509W        W12092  16.416  42.198  13.022
40510W        W12093  37.894  34.603   1.061
40511W        W12094  14.619  23.261  13.621
40512W        W12095  31.625   9.981   3.694
40513W        W12096  30.023  20.451  14.309
40514W        W12097  36.919  16.131  11.004
40515W        W12098  20.791  42.213  14.950
40516W        W12099  26.261  10.879   1.816
40517W        W12100  28.326   3.537   3.915
40518W        W12101  44.185  25.920  13.022
40519W        W12102  18.157   6.213  13.916
40520W        W12103   8.249  29.652   4.430
40521W        W12104   3.248  44.766   3.319
40522W        W12105  32.738  17.143   1.549
40523W        W12106  27.410  33.915   1.217
40524W        W12107  28.009  22.575   5.171
40525W        W12108  16.714  18.535   1.387
40526W        W12109   1.897   0.007  12.034
40527W        W12110  37.179   5.101  13.387
40528W        W12111   6.724  30.238   1.985
40529W        W12112  22.958   0.681   2.383
40530W        W12113  27.491  41.864  14.792
40531W        W12114  26.754  34.993   4.122
40532W        W12115   9.330  28.266   1.299
40533W        W12116  40.922   7.277  14.513
40534W        W12117  35.187  13.567   0.296
40535W        W12118  10.365   6.981   0.493
40536W        W12119   8.620  15.193   4.493
40537W        W12120  23.560  31.323  14.887
40538W        W12121  16.549  15.727  13.444
40539W        W12122  27.796  30.469   0.761
40540W        W12123  40.878  10.316  14.905
40541W        W12124  17.188  27.168  13.417
40542W        W12125   0.498   7.131  11.125
40543W        W12126  15.570  26.382   0.550
40544W        W12127  22.541   1.503  12.451
40545W        W12128   4.969   8.723   3.308
40546W        W12129  16.506  25.199  13.322
40547W        W12130  35.143  16.807  12.522
40548W        W12131   7.174  14.674  11.045
40549W        W12132  23.715  44.999   4.178
40550W        W12133   1.213  20.532  14.308
40551W        W12134  44.828  10.676  12.568
40552W        W12135  14.090  21.449   0.902
40553W        W12136  16.197  20.114   2.417
40554W        W12137  38.782  10.152   2.027
40555W        W12138  33.976  43.006  11.623
40556W        W12139   6.976  25.126   2.696
40557W        W12140  29.160  36.263  12.732
40558W        W12141   5.380  33.117   0.949
40559W        W12142  14.674   8.436   0.462
40560W        W12143  19.255  44.998  13.966
40561W        W12144  30.825  21.601   4.484
40562W        W12145  39.243   3.432   2.758
40563W        W12146   5.977  26.589   1.289
40564W        W12147  32.677  30.664  12.896
40565W        W12148  33.187   5.275   3.285
40566W        W12149  27.045  36.366  11.973
40567W        W12150  20.921  28.947   4.612
40568W        W12151  21.599  16.912  11.329
40569W        W12152  32.527  17.139   1.046
40570W        W12153   3.468  33.641   4.638
40571W        W12154  11.693  32.109   1.478
40572W        W12155  33.950   2.909  13.335
40573W        W12156  15.788   4.995   5.060
40574W        W12157  39.885  18.911   4.673
40575W        W12158  31.037  37.525   0.368
40576W        W12159  33.956  14.212  13.572
40577W        W12160  30.127  33.556  13.759
40578W        W12161  29.523   3.251   0.784
40579W        W12162  23.791  22.810   1.807
40580W        W12163  40.158  31.585  10.412
40581W        W12164   7.454  18.611   4.192
40582W        W12165  22.694  37.941  14.021
40583W        W12166  32.380   3.203   2.064
40584W        W12167  13.594   9.382  14.999
40585W        W12168  30.140   6.537  14.498
40586W        W12169  24.981  21.033   5.094
40587W        W12170  28.848  20.585   1.722
40588W        W12171   0.804  22.681   0.773
40589W        W12172  15.596  26.085  14.124
40590W        W12173  25.076  22.139   3.732
40591W        W12174   7.293  21.328   3.409
40592W        W12175  29.003  42.296   4.695
40593W        W12176  12.179  42.400   0.653
40594W        W12177  31.463  32.693  11.329
40595W        W12178  19.655  43.469  14.537
40596W        W12179  18.742  32.347  12.322
40597W        W12180  42.996  41.677   5.093
40598W        W12181  26.621   2.305  12.700
40599W        W12182  12.675   3.747   0.798
40600W        W12183  28.004  38.376  12.872
40601W        W12184  23.107   8.378   2.618
40602W        W12185  27.118   9.160   3.218
40603W        W12186  44.876  34.623   1.483
40604W        W12187  43.680   0.185  11.228
40605W        W12188   5.982   3.012   2.292
40606W        W12189  26.223  23.315  13.340
40607W        W12190  34.424  17.769   0.453
40608W        W12191   2.619  35.723   5.062
40609W        W12192  29.419   2.343  10.727
40610W        W12193  30.512   3.987   1.850
40611W        W12194  38.055  42.839   2.393
40612W        W12195   8.182  33.622  12.707
40613W        W12196  35.387  22.233  14.294
40614W        W12197  35.159  21.621   2.351
40615W        W12198  33.582  14.001  12.515
40616W        W12199  32.683  15.330  14.417
40617W        W12200  42.342  25.580  11.333
40618W        W12201  41.758   3.166   4.517
40619W        W12202   3.719  12.645  11.075
40620W        W12203  42.763  40.397  14.099
40621W        W12204  44.545   5.309   4.515
40622W        W12205  43.517  10.338   4.127
40623W        W12206  41.651  13.565  13.968
40624W        W12207  33.044   6.936   2.785
40625W        W12208  16.098  13.359  11.054
40626W        W12209  22.280  21.889  12.180
40627W        W12210  44.003  18.805   0.673
40628W        W12211  13.119  43.883  10.891
40629W        W12212  26.668  23.995  11.087
40630W        W12213   3.233  28.074   2.673
40631W        W12214  19.057   6.937  14.894
40632W        W12215  32.688   1.903   3.703
40633W        W12216   1.022   4.248  12.495
40634W        W12217  33.257  36.456   1.695
40635W        W12218  32.147  19.302   4.156
40636W        W12219  32.233  38.531   4.114
40637W        W12220  10.641  12.883   4.972
40638W        W12221  32.145  30.840   5.013
40639W        W12222   9.325  43.456   2.400
40640W        W12223   5.165  21.160  12.547
40641W        W12224   8.775   2.499  11.551
40642W        W12225  18.739  20.536   1.384
40643W        W12226  14.281   5.480   1.076
40644W        W12227   0.910  29.948   0.832
40645W        W12228  20.774  20.265   3.742
40646W        W12229  26.940  40.539  14.976
40647W        W12230  11.240  32.245   3.169
40648W        W12231   1.426  29.315  12.353
40649W        W12232   7.702  17.033  11.716
40650W        W12233  24.164  32.917  13.685
40651W        W12234   1.007  26.769  13.531
40652W        W12235  44.073  32.001  12.054
40653W        W12236  27.433  16.773   2.302
40654W        W12237  10.131   7.833  11.519
40655W        W12238  19.230  42.426   4.633
40656W        W12239  41.827  17.987   3.205
40657W        W12240  40.021   5.254   4.156
40658W        W12241   8.004  37.589   2.276
40659W        W12242  25.445  34.232  13.376
40660W        W12243  25.217  10.850   1.760
40661W        W12244  27.328   1.802   1.449
40662W        W12245  15.112  13.603  11.203
40663W        W12246  31.254  40.756   4.738
40664W        W12247  21.930   9.766   2.643
40665W        W12248  12.762  20.984  14.459
40666W        W12249   0.338  19.176   4.170
40667W        W12250  38.075   0.927  12.010
40668W        W12251  41.067  35.825  10.697
40669W        W12252  39.020  11.738  13.935
40670W        W12253  44.906  13.395  14.000
40671W        W12254   5.553  17.943   4.589
40672W        W12255   1.896  25.554  14.911
40673W        W12256  26.890  30.520  10.661
40674W        W12257  29.407  21.459   4.865
40675W        W12258  16.986  29.096   0.457
40676W        W12259   5.955  20.183   2.995
40677W        W12260  22.443  34.986   4.549
40678W        W12261  10.950  27.002  14.302
40679W        W12262  43.326   3.521  13.081
40680W        W12263  13.785  13.602  13.949
40681W        W12264   4.355  14.867   4.928
40682W        W12265  14.412  23.297   4.185
40683W        W12266  40.131  19.216  13.604
40684W        W12267  15.260   1.783   0.008
40685W        W12268   0.369  22.619  12.902
40686W        W12269  17.687  14.243  14.474
40687W        W12270  18.900  20.548  14.342
40688W        W12271   4.827  24.500   4.632
40689W        W12272  35.037  15.754  12.683
40690W        W12273  37.410  10.088  13.802
40691W        W12274  33.111  22.120  10.561
40692W        W12275  24.865  31.704  12.509
40693W        W12276   2.673  24.975   4.213
40694W        W12277  42.828   0.200   1.965
40695W        W12278  36.319   2.389  12.389
40696W        W12279  17.090  37.160  12.398
40697W        W12280  17.737  19.425   3.574
40698W        W12281  16.304  31.401  11.235
40699W        W12282  32.646  21.444   3.393
40700W        W12283  10.724   9.711  13.402
40701W        W12284  19.566  16.558   3.106
40702W        W12285  16.195  39.148  13.815
40703W        W12286   3.743  36.862   1.797
40704W        W12287  31.334  19.850   5.425
40705W        W12288  37.399  38.236   4.431
40706W        W12289  20.247   8.911   4.046
40707W        W12290  23.925  10.622   1.483
40708W        W12291  14.833  34.662   0.253
40709W        W12292  11.729  26.214   4.111
40710W        W12293  23.534   5.767  14.787
40711W        W12294  10.657  29.987   2.344
40712W        W12295   4.751  31.897   3.848
40713W        W12296  37.129  25.175  11.032
40714W        W12297  17.012  16.095  12.767
40715W        W12298   5.779  36.586   1.913
40716W        W12299  29.630  30.298  12.108
40717W        W12300  10.885  40.764  13.910
40718W        W12301   4.263  22.743   4.739
40719W        W12302  27.667  13.753  10.922
40720W        W12303  44.845  30.069   4.453
40721W        W12304  21.035  13.897  11.192
40722W        W12305  43.760  10.527   2.393
40723W        W12306  41.004  29.581  10.808
40724W        W12307  17.014  37.045  11.547
40725W        W12308   5.380  17.173  11.878
40726W        W12309   1.963  18.379  11.596
40727W        W12310  14.292  28.910   0.083
40728W        W12311  12.637  40.914  13.456
40729W        W12312  26.033   7.317  12.113
40730W        W12313  21.138  28.155  13.109
40731W        W12314   7.248  30.105  11.478
40732W        W12315   2.465  37.639   5.084
40733W        W12316  42.280  21.531   0.641
40734W        W12317  42.865   4.977   0.437
40735W        W12318  34.427  41.431  14.809
40736W        W12319  28.654  20.320  11.053
40737W        W12320   4.022  41.953  12.544
40738W        W12321  13.055  23.440   4.238
40739W        W12322  39.037  24.533  11.468
40740W        W12323  39.440  27.947   4.081
40741W        W12324   4.299  28.425   3.298
40742W        W12325  13.177  27.723  11.553
40743W        W12326  18.394   6.754   4.533
40744W        W12327  11.749  38.730  14.406
40745W        W12328  36.596  44.509  11.168
40746W        W12329  15.333  38.501  11.195
40747W        W12330  22.502   5.201  14.508
40748W        W12331  11.484   1.429  13.087
40749W        W12332  34.502  13.090  14.362
40750W        W12333   5.722   3.037   3.747
40751W        W12334  34.292  16.187  13.848
40752W        W12335  37.346  29.079  13.938
40753W        W12336  28.900  25.008   3.841
40754W        W12337  40.064  24.393   2.989
40755W        W12338   7.993  42.573   2.217
40756W        W12339  42.085  37.932   2.422
40757W        W12340   3.918   8.437   1.852
40758W        W12341  30.430  21.700  11.535
40759W        W12342  18.677  36.411  13.295
40760W        W12343  26.063   9.467   4.858
40761W        W12344  28.496  24.522   0.885
40762W        W12345  43.290   8.040  10.711
40763W        W12346  42.376  41.391  10.399
40764W        W12347  22.580  33.927   3.781
40765W        W12348  30.616  32.519  13.001
40766W        W12349  41.448  23.911  11.280
40767W        W12350  33.840  23.774  10.299
40768W        W12351  34.128  15.849  12.463
40769W        W12352  34.090  17.369   2.869
40770W        W12353   4.315  17.830  14.303
40771W        W12354  22.611  20.486   0.973
40772W        W12355   0.098  26.690  14.474
40773W        W12356  32.041   4.372   2.345
40774W        W12357  33.040   5.279  10.719
40775W        W12358   2.979   6.171   5.209
40776W        W12359  16.354  26.714  11.462
40777W        W12360  13.084  18.518  14.746
40778W        W12361  17.563  21.175  13.928
40779W        W12362  10.826   7.806   1.373
40780W        W12363  27.464  20.011   2.240
40781W        W12364  11.306  40.937  14.808
40782W        W12365  34.323  33.519   4.635
40783W        W12366  21.967  10.402  14.271
40784W        W12367  43.814  12.667   3.203
40785W        W12368  20.682  15.856  11.541
40786W        W12369  18.019  44.472  11.071
40787W        W12370  33.046  19.765   2.583
40788W        W12371  15.252  40.921  11.170
40789W        W12372  18.761  34.479   4.690
40790W        W12373  23.547  10.682   3.136
40791W        W12374  31.388  33.288   2.717
40792W        W12375  34.467  11.374   2.926
40793W        W12376  32.671  31.439  14.886
40794W        W12377  20.983  23.517   3.348
40795W        W12378  35.625   5.360  10.760
40796W        W12379  11.752   4.744   3.705
40797W        W12380  34.860  38.456   1.351
40798W        W12381  11.405  28.620   0.326
40799W        W12382   6.237  36.383  10.388
40800W        W12383  30.940   3.973  13.214
40801W        W12384  43.428  10.189  10.923
40802W        W12385   5.041   7.581   0.327
40803W        W12386   3.015   3.677   2.194
40804W        W12387  11.316  21.068   2.170
40805W        W12388  11.923   2.094   4.656
40806W        W12389  43.460  17.567  14.896
40807W        W12390   4.185   1.860  10.640
40808W        W12391  25.204   2.995   1.870
40809W        W12392  12.301  36.029  10.665
40810W        W12393   9.480  17.480  11.619
40811W        W12394  38.831  25.174   4.626
40812W        W12395  41.887   8.333  11.975
40813W        W12396  18.577  31.360  13.387
40814W        W12397  12.029  19.098  11.977
40815W        W12398  38.965   0.117   3.644
40816W        W12399  29.524  38.813   4.868
40817W        W12400  42.037  28.009   2.641
40818W        W12401  20.130   8.244  10.758
40819W        W12402  25.537  16.074  11.054
40820W        W12403  26.121  28.599   1.782
40821W        W12404  21.325   8.777   4.834
40822W        W12405   9.249  14.294   4.882
40823W        W12406  35.459  23.118   0.283
40824W        W12407   0.024  37.504  14.383
40825W        W12408  13.729   6.396   4.233
40826W        W12409  24.407   7.163  13.139
40827W        W12410  41.939  43.548   2.335
40828W        W12411  24.023  19.101   1.318
40829W        W12412   5.646  12.865   2.777
40830W        W12413  15.646   8.990   1.497
40831W        W12414  23.493  29.994   1.999
40832W        W12415   2.232  28.475   4.599
40833W        W12416  19.645  41.482  13.103
40834W        W12417   4.517  43.702  11.854
40835W        W12418  32.579   5.170   0.756
40836W        W12419   8.707  36.552   4.776
40837W        W12420  33.070  12.652  13.927
40838W        W12421  20.051  18.796  13.003
40839W        W12422  33.067  34.351   4.201
40840W        W12423   4.826  25.097   3.848
40841W        W12424  42.511  14.051   2.297
40842W        W12425   4.654  10.882  11.056
40843W        W12426  28.437  27.094   0.913
40844W        W12427  41.443  25.168   1.734
40845W        W12428   2.076  23.658  12.505
40846W        W12429  33.336  29.475   0.953
40847W        W12430  21.474  29.104   3.297
40848W        W12431   0.858  25.485  14.043
40849W        W12432   8.430  22.020  12.427
40850W        W12433  16.674  39.848  11.611
40851W        W12434  38.361  43.322  14.366
40852W        W12435  38.455  42.024  14.898
40853W        W12436  12.235  16.165   4.654
40854W        W12437  29.302  43.024   1.001
40855W        W12438   5.253  41.783  14.936
40856W        W12439  11.623  37.629  11.951
40857W        W12440  31.223  18.747  10.503
40858W        W12441  32.712  41.514   0.372
40859W        W12442  15.534  44.162   1.397
40860W        W12443  16.767  16.633  11.990
40861W        W12444  32.283   0.162  14.943
40862W        W12445  31.998  20.479   2.434
40863W        W12446  28.421  29.374  11.963
40864W        W12447  11.586  25.612   2.142
40865W        W12448   8.763   4.923   2.386
40866W        W12449  14.753   1.698  11.524
40867W        W12450   9.367  28.650  13.932
40868W        W12451  16.034  31.985  11.036
40869W        W12452  19.783  24.635   2.491
40870W        W12453  21.505   5.272   0.801
40871W        W12454   9.752   9.223  10.755
40872W        W12455  22.621  26.793  12.270
40873W        W12456  22.898  10.968   5.229
40874W        W12457  37.661  32.633   4.655
40875W        W12458  18.140   7.826  10.487
40876W        W12459  13.297  31.344  14.379
40877W        W12460   7.590  28.468   0.790
40878W        W12461  14.514   9.933  13.736
40879W        W12462  37.303   8.010   1.420
40880W        W12463   0.755   5.707  12.394
40881W        W12464   4.667   2.370  11.363
40882W        W12465  23.247   7.921   2.409
40883W        W12466  20.555  31.689   3.906
40884W        W12467  12.614  17.624  12.428
40885W        W12468  34.977  26.883  11.682
40886W        W12469  19.169  11.667   4.718
40887W        W12470  16.758  11.620  13.675
40888W        W12471  34.073   9.700   0.368
40889W        W12472  24.425  28.524  13.523
40890W        W12473  34.908  27.970  13.535
40891W        W12474  13.133  21.700  13.001
40892W        W12475  17.367  20.029   4.626
40893W        W12476  14.718  44.198   1.816
40894W        W12477  26.996   0.266   2.699
40895W        W12478  12.879  44.535  14.907
40896W        W12479  17.074   6.542   2.822
40897W        W12480  25.399  35.923   1.812
40898W        W12481  26.021  32.189   4.825
40899W        W12482  30.412  42.469  14.708
40900W        W12483  25.082  25.147   0.659
40901W        W12484  33.024  40.559  13.851
40902W        W12485  13.383  12.866   2.193
40903W        W12486  35.359  28.846   4.341
40904W        W12487  15.255  28.038   2.138
40905W        W12488  35.312  13.384  11.189
40906W        W12489  44.324   1.376  14.303
40907W        W12490  34.601  12.641  12.458
40908W        W12491  28.848  19.521  14.575
40909W        W12492  14.308  30.435   4.532
40910W        W12493   9.319   6.359   2.646
40911W        W12494  15.310   9.073  12.980
40912W        W12495  35.672   9.634  13.443
40913W        W12496  19.143  32.672  11.338
40914W        W12497  22.501  14.846   0.176
40915W        W12498  16.750  20.992  12.095
40916W        W12499   7.741  12.346   4.396
40917W        W12500  41.344   5.253  13.546
40918W        W12501  12.970  42.398   3.445
40919W        W12502   8.861  34.175   3.172
40920W        W12503   4.950  41.790  13.619
40921W        W12504  44.291   7.377   0.458
40922W        W12505  28.405  38.124   2.789
40923W        W12506   5.511  37.817   3.826
40924W        W12507  26.302  22.003  12.962
40925W        W12508  22.575  20.188  11.906
40926W        W12509  39.470  12.227   3.287
40927W        W12510  31.814   3.677   3.697
40928W        W12511  19.398  17.616   2.818
40929W        W12512   2.730   9.144   3.794
40930W        W12513  31.260  32.370   1.119
40931W        W12514   8.239  11.258  14.807
40932W        W12515   7.320  16.423  12.486
40933W        W12516  42.394  17.117  11.427
40934W        W12517  31.568  34.065   1.679
40935W        W12518  13.788  39.803   3.790
40936W        W12519  28.089   6.426   3.639
40937W        W12520   6.745  10.859  14.865
40938W        W12521  22.756   3.926   2.230
40939W        W12522  44.358  22.707  12.995
40940W        W12523  33.440  35.360  14.509
40941W        W12524  44.691  11.220  10.615
40942W        W12525   5.736  31.531   4.375
40943W        W12526  38.377  31.341  11.881
40944W        W12527  29.420  36.984   3.753
40945W        W12528  19.639  24.781   3.551
40946W        W12529   5.494   4.240  12.878
40947W        W12530  21.929  35.401  13.434
40948W        W12531  16.690  13.073   4.313
40949W        W12532  14.753  37.775   1.808
40950W        W12533  12.532  29.178  14.382
40951W        W12534   6.352  38.925   3.494
40952W        W12535  20.740  34.846   1.116
40953W        W12536  35.462  43.145  13.367
40954W        W12537   8.421   5.645   4.478
40955W        W12538  21.144  32.608  12.582
40956W        W12539  34.050  25.247   1.577
40957W        W12540  18.149  26.723   4.152
40958W        W12541   6.889  22.044   3.655
40959W        W12542   7.872  29.651  12.578
40960W        W12543  41.695  19.541   3.768
40961W        W12544  24.396  34.136   1.211
40962W        W12545   0.261  19.531   2.272
40963W        W12546  27.429   8.455   2.305
40964W        W12547  24.007  25.295  14.729
40965W        W12548  22.318   5.296  13.490
40966W        W12549  31.891   4.422   3.189
40967W        W12550  11.781   3.834  10.985
40968W        W12551   8.121  26.260  14.295
40969W        W12552  24.386  33.844  14.821
40970W        W12553  14.430  18.851   4.100
40971W        W12554   3.783  31.015   1.032
40972W        W12555  20.190  41.081   3.821
40973W        W12556   5.127  29.957   2.759
40974W        W12557  33.303  23.061   4.627
40975W        W12558  14.082  31.702  12.609
40976W        W12559  41.444   8.652   2.261
40977W        W12560  16.182   0.202   0.779
40978W        W12561  12.610   6.230  14.267
40979W        W12562  39.386   9.256   0.952
40980W        W12563  39.522  32.266  13.952
40981W        W12564  22.182  19.739  10.913
40982W        W12565  33.908  17.359  12.662
40983W        W12566  40.043   1.495  12.395
40984W        W12567   8.317  24.096   4.416
40985W        W12568   1.664  38.579   0.181
40986W        W12569   6.389  28.626   3.578
40987W        W12570  27.633  44.800  11.006
40988W        W12571   8.751  30.514   4.695
40989W        W12572   1.935  20.716  11.578
40990W        W12573  43.487  28.521  10.635
40991W        W12574  43.937  33.013   0.824
40992W        W12575  23.202  36.832  13.073
40993W        W12576   5.331   9.276  14.790
40994W        W12577  43.999  42.786  14.103
40995W        W12578  37.103  41.418  11.128
40996W        W12579  37.583  17.062  10.571
40997W        W12580  22.737   6.212   0.293
40998W        W12581  32.405  10.825   2.481
40999W        W12582  12.766  39.956  13.309
41000W        W12583  40.009  13.374   1.721
41001W        W12584  27.280  32.677   1.796
41002W        W12585   0.402  33.868  10.671
41003W        W12586  27.882  15.272  13.981
41004W        W12587  23.657   0.425  12.498
41005W        W12588   1.576  20.971   2.428
41006W        W12589   3.283   3.093  14.904
41007W        W12590  42.062   4.852   2.752
41008W        W12591  16.123  36.550  12.175
41009W        W12592  25.217  21.026  12.613
41010W        W12593   6.878   7.254   0.706
41011W        W12594  23.114  10.357   1.523
41012W        W12595  39.449  27.102  11.655
41013W        W12596  29.113   0.317  12.130
41014W        W12597  11.075  38.051   1.969
41015W        W12598   2.060  36.033  12.744
41016W        W12599  32.195  11.144   1.491
41017W        W12600  11.533  20.804  11.094
41018W        W12601  23.472  15.554   3.694
41019W        W12602  27.372   9.645  10.706
41020W        W12603  17.576  38.782  11.458
41021W        W12604  38.057   6.265   0.169
41022W        W12605  40.439  15.458   0.373
41023W        W12606   3.730   3.796   0.223
41024W        W12607   6.786  11.406   0.565
41025W        W12608   3.336  12.974   4.991
41026W        W12609  28.924   4.424  12.683
41027W        W12610  30.994   0.200   4.195
41028W        W12611  35.966  11.521   4.585
41029W        W12612  26.038  38.814  13.031
41030W        W12613  19.629  13.705   0.360
41031W        W12614  13.835  20.932  11.482
41032W        W12615  10.659  20.187  14.778
41033W        W12616  44.363  10.188  14.988
41034W        W12617  26.404  10.288  12.097
41035W        W12618  27.655  31.903  13.788
41036W        W12619  20.020   7.482  14.395
41037W        W12620   4.486  44.572   0.818
41038W        W12621  13.446  21.110  12.881
41039W        W12622  33.230  17.745   1.396
41040W        W12623  33.536  17.127  12.964
41041W        W12624   5.204  23.724   4.775
41042W        W12625  12.962  24.003  13.443
41043W        W12626  17.167   1.892  12.577
41044W        W12627  23.229  40.528   4.224
41045W        W12628  11.328  44.864  12.004
41046W        W12629  13.867  36.629  14.093
41047W        W12630  18.021  17.583  12.959
41048W        W12631  39.012  37.873  11.432
41049W        W12632  14.259  32.330  12.841
41050W        W12633  23.961  42.016   1.840
41051W        W12634   9.248  26.994  13.903
41052W        W12635   7.630  14.050  14.322
41053W        W12636  11.584   3.731   4.690
41054W        W12637  20.956  18.009  12.109
41055W        W12638  17.359   0.286  13.463
41056W        W12639  26.774  20.007  11.919
41057W        W12640   0.453  25.800   3.807
41058W        W12641  24.945  34.504  10.755
41059W        W12642  13.195  43.565  13.469
41060W        W12643   9.366  42.946   3.605
41061W        W12644  16.019  11.252   0.505
41062W        W12645  29.616   0.508   0.113
41063W        W12646  22.259  30.912   5.507
41064W        W12647  22.211  24.227  13.544
41065W        W12648  22.410  41.445  10.773
41066W        W12649   5.591  36.988  13.829
41067W        W12650  12.072  25.993  14.589
41068W        W12651  36.585   0.228  12.399
41069W        W12652  22.383  39.036   1.239
41070W        W12653  11.772  43.322   4.066
41071W        W12654  14.776  40.820   4.736
41072W        W12655  18.203  24.906   4.290
41073W        W12656  19.726  40.098   1.304
41074W        W12657   6.817  28.159   0.325
41075W        W12658   0.009   7.008  11.051
41076W        W12659  33.831  41.645  12.128
41077W        W12660  42.531  24.469   1.278
41078W        W12661  43.913  34.122  11.527
41079W        W12662  33.979  41.466   4.710
41080W        W12663  35.267  29.906   1.984
41081W        W12664  44.291  25.559   2.810
41082W        W12665  12.120  30.722  12.100
41083W        W12666  41.353  20.123   4.440
41084W        W12667  29.174  14.042  14.897
41085W        W12668  34.159   1.908  11.192
41086W        W12669   9.125  38.551   0.628
41087W        W12670  30.032  30.510  14.511
41088W        W12671  23.008  22.609  11.614
41089W        W12672  34.529   1.998  12.598
41090W        W12673  24.056  31.990  14.069
41091W        W12674  10.412   4.113  13.990
41092W        W12675  14.184  40.213   2.803
41093W        W12676  43.702  42.895   2.430
41094W        W12677  11.190  24.578   0.323
41095W        W12678  43.200   9.807  11.182
41096W        W12679  32.097  14.659   1.466
41097W        W12680  19.782  42.102  12.122
41098W        W12681  19.577  30.630  10.220
41099W        W12682  27.430   1.273   4.098
41100W        W12683  20.793  32.468   2.662
41101W        W12684  12.698  33.701   1.163
41102W        W12685  14.089  20.467  10.758
41103W        W12686  13.626  42.364  12.552
41104W        W12687  26.924  13.426   4.125
41105W        W12688  33.689  36.358  10.673
41106W        W12689  43.215  32.332  14.123
41107W        W12690  39.994  29.465   4.880
41108W        W12691  23.708   9.768  11.833
41109W        W12692  17.358   4.737   4.565
41110W        W12693  19.023  37.876  14.491
41111W        W12694  27.912  19.491   3.160
41112W        W12695   6.645  36.029   1.765
41113W        W12696   3.786   5.739  12.644
41114W        W12697  26.214  10.453  14.448
41115W        W12698   1.689  14.430   2.759
41116W        W12699  34.565  20.232  13.325
41117W        W12700   3.304  20.144  11.465
41118W        W12701  36.966  26.539   1.234
41119W        W12702  42.763  44.308  14.233
41120W        W12703  40.367   5.137  13.400
41121W        W12704  33.348   6.840  14.959
41122W        W12705  37.064  27.092  11.904
41123W        W12706  12.364  27.026   3.598
41124W        W12707  14.770  33.174   4.576
41125W        W12708   0.058  35.613   0.631
41126W        W12709  32.027   4.580   4.912
41127W        W12710  24.075   2.817   4.240
41128W        W12711  44.466  30.988   1.737
41129W        W12712   7.746  21.118   3.257
41130W        W12713  36.434  44.759   4.058
41131W        W12714  16.679   8.613  12.836
41132W        W12715  12.576   0.761  12.949
41133W        W12716  19.113  25.086   4.587
41134W        W12717   8.671  18.201   1.758
41135W        W12718  29.162  25.587  12.072
41136W        W12719  10.863  39.511   1.427
41137W        W12720  35.375  37.080   0.935
41138W        W12721   5.671   3.493   1.043
41139W        W12722  25.184  19.632  14.066
41140W        W12723  22.103   9.254   0.435
41141W        W12724  44.512  36.166  11.492
41142W        W12725   0.703  12.840   4.114
41143W        W12726  21.224  16.676  14.005
41144W        W12727  39.566  25.621  13.985
41145W        W12728  17.766  28.496   0.418
41146W        W12729  34.148  18.305  12.770
41147W        W12730  35.983  32.671  13.024
41148W        W12731  25.287   3.370  12.481
41149W        W12732  26.005  15.601   4.575
41150W        W12733  20.309  23.327  11.650
41151W        W12734  10.009   9.221  14.258
41152W        W12735   9.179  23.025   3.464
41153W        W12736  16.874  10.912  11.559
41154W        W12737  22.387  26.983  10.551
41155W        W12738  33.861   4.956   5.135
41156W        W12739  30.991   5.798  12.979
41157W        W12740  40.969  31.979  12.003
41158W        W12741  27.946  27.684  12.921
41159W        W12742   9.552   6.182  12.306
41160W        W12743  27.728   0.548   3.662
41161W        W12744  33.504   7.571  11.742
41162W        W12745  16.197   0.680  13.822
41163W        W12746   5.176  36.039  14.837
41164W        W12747  22.272  33.081  13.404
41165W        W12748  29.051  25.398  14.334
41166W        W12749  43.823  19.694   0.713
41167W        W12750  44.003  17.801   1.570
41168W        W12751   7.797  20.052  12.792
41169W        W12752  10.231  32.472  10.586
41170W        W12753  11.900  15.408   1.836
41171W        W12754  12.539   0.247  11.519
41172W        W12755   0.918  14.267   2.274
41173W        W12756   2.401  13.094  13.531
41174W        W12757  15.956  35.765   1.909
41175W        W12758  43.106  37.073  10.587
41176W        W12759   0.759  41.571  14.776
41177W        W12760  16.608  23.226  11.978
41178W        W12761  37.170  40.856  12.185
41179W        W12762   2.105  37.023   1.219
41180W        W12763  34.419  18.523  14.983
41181W        W12764  11.156  34.562   3.490
41182W        W12765  14.439  40.906  11.577
41183W        W12766   5.805  27.026   2.427
41184W        W12767  22.474  15.173  12.476
41185W        W12768  35.929   5.392  12.361
41186W        W12769  33.308  38.998  12.432
41187W        W12770  19.036  28.443   1.770
41188W        W12771  23.737  35.379  12.573
41189W        W12772  25.015   2.118  13.984
41190W        W12773  29.522   7.122  11.075
41191W        W12774  39.738  11.604   0.772
41192W        W12775  30.831  34.858  14.447
41193W        W12776  24.604  33.055  11.063
41194W        W12777  37.422   3.838  13.788
41195W        W12778  42.634  38.098  12.516
41196W        W12779  10.906  39.777  12.394
41197W        W12780  34.609  28.361   3.443
41198W        W12781  43.582  10.776   4.711
41199W        W12782   6.721  18.514  13.913
41200W        W12783   5.544  29.739  13.199
41201W        W12784  32.633  27.816   0.356
41202W        W12785  37.113  39.001   0.098
41203W        W12786   0.098   4.220   3.499
41204W        W12787  15.815  36.009   0.790
41205W        W12788  22.366  17.280   2.820
41206W        W12789  43.857  24.151   1.668
41207W        W12790  26.112   6.885  12.383
41208W        W12791  28.466  12.286   1.741
41209W        W12792  39.305   0.935  12.075
41210W        W12793  26.679  30.523   4.340
41211W        W12794  35.584   7.706   0.817
41212W        W12795   0.336  32.178   3.777
41213W        W12796  23.419  24.734   1.908
41214W        W12797  34.119   0.150   0.327
41215W        W12798  11.310  27.192   2.797
41216W        W12799  12.255   7.408  13.013
41217W        W12800  39.850  19.154   2.364
41218W        W12801  39.995   0.884   3.329
41219W        W12802  19.114  16.862  13.650
41220W        W12803  31.939  38.825  14.967
41221W        W12804  11.707  18.712  14.815
41222W        W12805  20.814  11.205   2.745
41223W        W12806  17.342   2.907  11.137
41224W        W12807   4.918  40.011   3.897
41225W        W12808  29.466  38.734  11.989
41226W        W12809  36.609  33.905  11.584
41227W        W12810  30.133  33.983  14.046
41228W        W12811  35.824   7.423   1.929
41229W        W12812  26.046   8.408  13.106
41230W        W12813  43.847  33.844   4.552
41231W        W12814  26.168   8.653  12.400
41232W        W12815   2.783  37.751  11.953
41233W        W12816   5.241  35.316  14.358
41234W        W12817  21.614  44.807   3.128
41235W        W12818   3.495  12.807  13.766
41236W        W12819   7.789  11.003  14.878
41237W        W12820  14.670  32.014  12.143
41238W        W12821  10.560  33.352  10.010
41239W        W12822  17.210  42.420  13.065
41240W        W12823   3.227  23.978   2.692
41241W        W12824  13.696  12.674   1.762
41242W        W12825   7.736  18.222   1.161
41243W        W12826   6.836  27.239  11.037
41244W        W12827   7.139  39.338   2.352
41245W        W12828  18.100  31.659  11.902
41246W        W12829  10.095  39.198   1.881
41247W        W12830  23.740  21.069   4.677
41248W        W12831  37.349  20.180   0.775
41249W        W12832   5.353   7.422   3.684
41250W        W12833   5.314  13.111   0.371
41251W        W12834  18.611  15.333  12.063
41252W        W12835  41.505  22.780  12.921
41253W        W12836  31.638  30.695  13.035
41254W        W12837   3.844   1.000   1.462
41255W        W12838  19.167  34.703   0.427
41256W        W12839  34.841  11.069   2.739
41257W        W12840  14.072  21.762  13.100
41258W        W12841  21.575  40.791  10.502
41259W        W12842  10.769  28.560  12.464
41260W        W12843  43.662   3.978   0.013
41261W        W12844   6.866   3.401  13.537
41262W        W12845  28.441  17.268   2.980
41263W        W12846  37.131  25.546  14.896
41264W        W12847  30.593  17.802  14.881
41265W        W12848  35.050   8.892   4.454
41266W        W12849  18.636   0.652  14.014
41267W        W12850  31.805  19.051   0.628
41268W        W12851  27.499  14.752  12.584
41269W        W12852  44.286  31.501   1.722
41270W        W12853  19.243  19.547  11.499
41271W        W12854  31.519  26.249   3.908
41272W        W12855  44.332  13.306   2.440
41273W        W12856  38.621   6.209   4.675
41274W        W12857  23.549   0.877   2.329
41275W        W12858  38.137  14.690  10.633
41276W        W12859  11.745  10.351   2.894
41277W        W12860   1.935  27.620   4.828
41278W        W12861   7.175  20.235  13.979
41279W        W12862  15.571   4.281  11.780
41280W        W12863  16.069   4.969  11.458
41281W        W12864  25.872  16.052  11.672
41282W        W12865  19.508  36.079   0.765
41283W        W12866  17.859   4.991  11.220
41284W        W12867  14.175  11.987   4.165
41285W        W12868  39.965   0.780  13.837
41286W        W12869  33.354  19.933   3.508
41287W        W12870  13.856  20.737   3.833
41288W        W12871   0.435  31.678   3.856
41289W        W12872  16.281  34.898   2.360
41290W        W12873  13.170  44.326  12.342
41291W        W12874  11.189  22.279  11.910
41292W        W12875  33.218  13.568  13.956
41293W        W12876  27.089  16.927  14.502
41294W        W12877  21.676   1.531  13.537
41295W        W12878   6.168   0.185   2.384
41296W        W12879  29.987  40.751  14.284
41297W        W12880  38.957  25.254   2.168
41298W        W12881  33.090  21.508   9.752
41299W        W12882  31.635   1.905  12.103
41300W        W12883  24.715   8.850  12.571
41301W        W12884  38.546  28.918  14.415
41302W        W12885  21.581  27.758  13.294
41303W        W12886   3.424  14.109   2.366
41304W        W12887  11.066   1.822  12.412
41305W        W12888  41.847  12.327   0.304
41306W        W12889  22.777  13.873  14.827
41307W        W12890  38.992  38.567  13.064
41308W        W12891  13.537   5.217   1.896
41309W        W12892  30.947  18.880   3.781
41310W        W12893  16.344   7.777  12.900
41311W        W12894  36.446  19.042  12.002
41312W        W12895  27.499  22.684  11.051
41313W        W12896   8.122  38.970   4.206
41314W        W12897   8.800  43.223  14.568
41315W        W12898   8.142  31.463   2.695
41316W        W12899  30.504  41.754   3.446
41317W        W12900  13.628   1.180  10.820
41318W        W12901  23.095  40.341  11.507
41319W        W12902  18.713   7.362  13.826
41320W        W12903  32.856  30.872   4.890
41321W        W12904  22.471  40.688   1.721
41322W        W12905   2.498  20.112  13.398
41323W        W12906   5.748  13.858   0.556
41324W        W12907  10.299   2.852  10.368
41325W        W12908   1.290  10.891   0.982
41326W        W12909  39.562  11.732  11.554
41327W        W12910   0.941   0.204   1.803
41328W        W12911  16.800  19.061   2.168
41329W        W12912  39.128  33.460  13.330
41330W        W12913   6.418  23.486  12.919
41331W        W12914  21.590  42.839  12.833
41332W        W12915  38.867  33.411   2.615
41333W        W12916  27.092  39.488   1.745
41334W        W12917  14.289  44.469  10.328
41335W        W12918  19.308   0.792  14.377
41336W        W12919  32.180  42.504   3.797
41337W        W12920  14.710  18.199   3.733
41338W        W12921   4.463   0.974   0.843
41339W        W12922  24.088  22.272  12.511
41340W        W12923  35.503  40.777  11.574
41341W        W12924  22.739   7.139   1.187
41342W        W12925   0.425  16.498   4.634
41343W        W12926  27.472  21.491  11.614
41344W        W12927  40.340  31.363  12.638
41345W        W12928  41.896  44.846   3.383
41346W        W12929  16.302  37.769   0.380
41347W        W12930   2.748  19.294   2.366
41348W        W12931  26.048  33.114   0.694
41349W        W12932  29.488  40.040   0.474
41350W        W12933  10.808   5.935  14.720
41351W        W12934   9.151   9.485   2.196
41352W        W12935  14.337   8.713  12.862
41353W        W12936  29.110  33.830  14.287
41354W        W12937  35.587   3.666   0.372
41355W        W12938  11.894  40.932   0.662
41356W        W12939  22.223  39.210   0.227
41357W        W12940  15.038  12.641   4.115
41358W        W12941  30.224   6.777   1.368
41359W        W12942  39.484  19.301  12.925
41360W        W12943  24.147  26.804  13.229
41361W        W12944  18.125  17.315   0.947
41362W        W12945  32.542   3.962   4.467
41363W        W12946  22.027  25.979  11.090
41364W        W12947  32.293  28.971  10.714
41365W        W12948  42.647  17.638  13.138
41366W        W12949  13.115   9.589  14.916
41367W        W12950  38.461   6.686  10.120
41368W        W12951  17.763   8.227  12.070
41369W        W12952  21.074  34.026  10.743
41370W        W12953  17.091  31.711   4.178
41371W        W12954  10.668  12.865   0.757
41372W        W12955  29.370  35.143  10.280
41373W        W12956  38.924   7.436  14.346
41374W        W12957  10.563   8.157  13.472
41375W        W12958  13.255  37.286   1.161
41376W        W12959  25.525  34.517  13.826
41377W        W12960  36.060  14.082   3.285
41378W        W12961  35.328  11.989   2.880
41379W        W12962   5.869   0.039  14.376
41380W        W12963  20.696  15.801   3.264
41381W        W12964  43.296  25.557  13.077
41382W        W12965  20.106  28.084   2.614
41383W        W12966   6.901  11.648  12.368
41384W        W12967   6.039  12.902   1.455
41385W        W12968  17.877  37.469   2.948
41386W        W12969  33.154  25.785  12.098
41387W        W12970  36.788  41.736   2.837
41388W        W12971  42.394  29.526  14.961
41389W        W12972  15.694   6.219   2.314
41390W        W12973  31.022   7.455   3.283
41391W        W12974  35.885  27.921   1.036
41392W        W12975  33.378  43.784  14.471
41393W        W12976   5.676  30.114  14.964
41394W        W12977  43.058  21.111   4.502
41395W        W12978   5.672  34.971   1.175
41396W        W12979   5.354  14.566   0.429
41397W        W12980  43.061   9.483  10.764
41398W        W12981  19.058  18.368   1.801
41399W        W12982  11.061  36.992  13.244
41400W        W12983  27.439  39.800   2.830
41401W        W12984  37.988   1.335  14.711
41402W        W12985  13.747  23.284   0.356
41403W        W12986   8.344   3.873   3.221
41404W        W12987  33.202  20.846  14.585
41405W        W12988  38.971  30.666  11.254
41406W        W12989   2.628  10.037   4.999
41407W        W12990   2.159  38.061   5.065
41408W        W12991   8.685   8.765   0.676
41409W        W12992  12.685  39.940   0.268
41410W        W12993   3.152  32.598  11.554
41411W        W12994  17.759  20.725   0.339
41412W        W12995  25.452   4.405  14.506
41413W        W12996  26.627   2.000  11.508
41414W        W12997  42.880  25.574  10.663
41415W        W12998   2.296  16.203   2.393
41416W        W12999  10.890  19.345  14.668
41417W        W13000  27.637  13.348  13.389
41418W        W13001   1.745  35.033  11.121
41419W        W13002  13.149  39.262  11.437
41420W        W13003   7.927  39.118  12.151
41421W        W13004  20.364  15.696  12.492
41422W        W13005   8.373  33.810  13.130
41423W        W13006  18.502  36.305   4.892
41424W        W13007  43.125  19.606  13.079
41425W        W13008  40.590  41.850  12.516
41426W        W13009  36.906  32.589   4.871
41427W        W13010   1.021  15.142  14.963
41428W        W13011  12.794  27.343   0.048
41429W        W13012  43.843   2.560  14.507
41430W        W13013  22.043  12.098   2.126
41431W        W13014  24.489  24.377  13.630
41432W        W13015  30.091   6.493   3.402
41433W        W13016  33.169  26.923  11.694
41434W        W13017  14.479  22.258  13.939
41435W        W13018  33.008  15.711   1.505
41436W        W13019  27.697  37.102   1.275
41437W        W13020  27.633  24.669  13.860
41438W        W13021  29.853  27.134  11.022
41439W        W13022  29.881  10.622  12.405
41440W        W13023  11.844  40.279   2.181
41441W        W13024  13.374  38.508   0.537
41442W        W13025   3.482  22.486   3.784
41443W        W13026  12.844  36.143  14.323
41444W        W13027  13.546  27.461  12.440
41445W        W13028   9.895  26.979  13.430
41446W        W13029  18.728  21.665  13.063
41447W        W13030  10.025   9.151   4.301
41448W        W13031  13.813   4.277  14.807
41449W        W13032   7.207  40.115   3.654
41450W        W13033  17.289   1.873  14.967
41451W        W13034  27.882  37.760  11.974
41452W        W13035  38.470   1.842  14.395
41453W        W13036  35.443  43.744  12.122
41454W        W13037  33.376  41.315  12.026
41455W        W13038  20.234   7.239  10.754
41456W        W13039  27.893  34.232   4.096
41457W        W13040   3.674   5.924   4.439
41458W        W13041  28.155  43.862  12.076
41459W        W13042  11.645   4.926  10.028
41460W        W13043   0.714  13.564  12.874
41461W        W13044  28.668  26.575  12.553
41462W        W13045   0.078   7.932   0.770
41463W        W13046  21.750  36.754   0.286
41464W        W13047  35.112  30.648   2.237
41465W        W13048  41.101  15.563   3.367
41466W        W13049   1.771  24.033  10.464
41467W        W13050   8.381   6.837  10.402
41468W        W13051  17.632   8.932   3.210
41469W        W13052  11.820  11.083  10.157
41470W        W13053  23.774   3.882  14.377
41471W        W13054   0.991  10.341   4.092
41472W        W13055  26.430  15.743  14.382
41473W        W13056   4.239  12.594  11.488
41474W        W13057   2.459  14.242  10.225
41475W        W13058  13.597   9.795   2.794
41476W        W13059  27.461   0.392  12.548
41477W        W13060  29.937  13.360  10.713
41478W        W13061  43.064  11.325   3.650
41479W        W13062  29.503  18.965  11.536
41480W        W13063  28.681  30.558  11.976
41481W        W13064  29.280  26.213   4.107
41482W        W13065  16.123   2.407   4.311
41483W        W13066  12.232  19.348  12.431
41484W        W13067  36.924  36.611   1.068
41485W        W13068  23.099   1.180  11.516
41486W        W13069  29.036  21.253   1.918
41487W        W13070   2.294   9.343   1.256
41488W        W13071  29.023  21.527  10.280
41489W        W13072  19.923  10.852   4.734
41490W        W13073  37.333   2.214   0.904
41491W        W13074  18.714  17.594  11.643
41492W        W13075  44.999  16.587   3.264
41493W        W13076  16.095   9.402  14.900
41494W        W13077   8.244  14.287  14.995
41495W        W13078  13.063  34.483  12.532
41496W        W13079   7.125   8.133  13.038
41497W        W13080   1.285  26.173   1.724
41498W        W13081  30.663  26.669   4.588
41499W        W13082   2.237   0.410  11.482
41500W        W13083  15.715   7.220   4.274
41501W        W13084   1.096  27.728   0.928
41502W        W13085  25.408  13.578  13.883
41503W        W13086  30.963  32.137   3.965
41504W        W13087  21.268  20.610   1.670
41505W        W13088   5.718  10.146  13.022
41506W        W13089   4.900  15.127  12.016
41507W        W13090  25.141  38.531  12.016
41508W        W13091  28.236   6.191  11.312
41509W        W13092  33.204  16.805  11.092
41510W        W13093   0.853  18.282   3.733
41511W        W13094  30.204   8.161  14.965
41512W        W13095  30.012  18.965  13.518
41513W        W13096  14.351  17.023  14.388
41514W        W13097  29.009   7.613  14.814
41515W        W13098  25.227  41.634  13.932
41516W        W13099  22.222   0.205   1.620
41517W        W13100   3.861  20.450   1.652
41518W        W13101   9.612  17.817  11.998
41519W        W13102  13.357  38.912   1.831
41520W        W13103  44.008  18.506  13.804
41521W        W13104  13.095  39.413   4.694
41522W        W13105   9.012  27.714  10.955
41523W        W13106  12.874  30.521   4.038
41524W        W13107  10.338  41.324  13.483
41525W        W13108  16.854   2.701   1.912
41526W        W13109   0.759  14.725  14.811
41527W        W13110  18.401  13.478  14.519
41528W        W13111  30.492  16.040  12.441
41529W        W13112  33.885  34.493   0.389
41530W        W13113  31.551  25.721   2.830
41531W        W13114  10.149  34.444  10.768
41532W        W13115  32.032  24.211  12.533
41533W        W13116  21.751  24.070  13.337
41534W        W13117  37.126  31.027   4.867
41535W        W13118   6.670  40.306  10.806
41536W        W13119  44.265  29.167   0.864
41537W        W13120  41.577  24.498  11.695
41538W        W13121  29.126  34.091  10.624
41539W        W13122  44.893  42.492   2.265
41540W        W13123  10.187   1.202   2.245
41541W        W13124  35.041   4.761  12.600
41542W        W13125  38.057   4.155   2.438
41543W        W13126  31.419  19.599  10.093
41544W        W13127  16.517  18.357  13.366
41545W        W13128  18.328  36.131  11.532
41546W        W13129  29.972  29.064  12.866
41547W        W13130  33.572  36.180   4.111
41548W        W13131  16.795  36.452  14.410
41549W        W13132  10.933  29.531   2.330
41550W        W13133  42.439   3.484   4.803
41551W        W13134  32.917   7.226   3.225
41552W        W13135  17.248  24.080  10.218
41553W        W13136  41.763   9.883   3.711
41554W        W13137  15.428  25.027   0.496
41555W        W13138   5.170  35.905  10.776
41556W        W13139   6.452   7.794  10.734
41557W        W13140  30.208  15.136   1.431
41558W        W13141  44.557  37.544   2.815
41559W        W13142  18.134   9.338   4.059
41560W        W13143   7.735  42.945  13.888
41561W        W13144  43.261   7.688  13.137
41562W        W13145   9.246   0.881   2.167
41563W        W13146  24.307   1.436   0.796
41564W        W13147  39.858   9.143  12.356
41565W        W13148  29.090   7.771   2.360
41566W        W13149  35.274  33.011   2.192
41567W        W13150  23.699  22.210   0.302
41568W        W13151  22.049  11.192   4.127
41569W        W13152  30.128  25.658  12.623
41570W        W13153  16.110  31.388   0.425
41571W        W13154  32.402  33.458  10.298
41572W        W13155  31.009  44.293  10.373
41573W        W13156  28.919  40.724  12.961
41574W        W13157  19.278   0.472   4.140
41575W        W13158   3.898  11.208   1.505
41576W        W13159  34.489  44.716  11.854
41577W        W13160  20.519   7.193   5.446
41578W        W13161  38.712  42.046  11.256
41579W        W13162  13.115  37.972   4.741
41580W        W13163  36.809  21.666  14.828
41581W        W13164   8.178  29.091  11.698
41582W        W13165  23.653   1.209   2.734
41583W        W13166   8.540   6.224  13.809
41584W        W13167   0.149  41.323  14.100
41585W        W13168   1.800  14.166   3.886
41586W        W13169  21.097  33.010   1.865
41587W        W13170  29.978  40.101   0.321
41588W        W13171   7.332  40.349  13.948
41589W        W13172  14.820   7.663   3.649
41590W        W13173   8.660  28.486  10.647
41591W        W13174  43.310  17.361   1.233
41592W        W13175   9.825   6.518  10.549
41593W        W13176   7.034  27.245   2.898
41594W        W13177  19.361  16.587  14.040
41595W        W13178  25.357  36.878   2.775
41596W        W13179  12.204  40.952   2.369
41597W        W13180  42.225  44.482  13.977
41598W        W13181  43.331  41.112   1.749
41599W        W13182  10.009  15.281   2.868
41600W        W13183  12.300  21.259  14.374
41601W        W13184   8.962  20.683  10.743
41602W        W13185   5.828  35.677   4.402
41603W        W13186  31.518  36.739   0.332
41604W        W13187  17.399  39.422   0.860
41605W        W13188  19.657  40.744   1.746
41606W        W13189  34.688  11.667  13.984
41607W        W13190  31.131   2.488  14.491
41608W        W13191  22.300   1.292   2.654
41609W        W13192   2.758   0.011  10.693
41610W        W13193  13.656  19.970  11.585
41611W        W13194  27.537  19.057   3.132
41612W        W13195  35.418  39.954   0.794
41613W        W13196  23.526  16.176  11.659
41614W        W13197   9.793   7.940   3.273
41615W        W13198  41.032   3.929  13.299
41616W        W13199  22.058   6.958  12.105
41617W        W13200  33.178  41.870  14.599
41618W        W13201  22.451  41.477  11.609
41619W        W13202  41.990  26.163   3.058
41620W        W13203   3.843  22.317   2.501
41621W        W13204   6.977  27.073   4.557
41622W        W13205   9.904  26.317   2.478
41623W        W13206  31.053  22.067   0.035
41624W        W13207  25.769  33.100  10.791
41625W        W13208  16.027   9.918  11.137
41626W        W13209  39.387   8.441   1.558
41627W        W13210  22.184  36.338  14.597
41628W        W13211  22.436  41.585  14.219
41629W        W13212  40.452   1.594  13.550
41630W        W13213  27.164   7.356   2.967
41631W        W13214  11.344  44.175  11.230
41632W        W13215  25.206  35.945   3.650
41633W        W13216  11.230  26.047   4.191
41634W        W13217  32.936  11.323   0.372
41635W        W13218  41.178  20.789   4.738
41636W        W13219   4.872  43.694  12.212
41637W        W13220  27.976  44.559  13.504
41638W        W13221  39.308  42.260   1.999
41639W        W13222  37.285  24.293  13.347
41640W        W13223  13.289  25.892  11.134
41641W        W13224  19.097   9.543  13.499
41642W        W13225  37.296  44.860   2.575
41643W        W13226   0.288  20.697   0.724
41644W        W13227   3.379  26.714  11.960
41645W        W13228  16.263   0.607   3.847
41646W        W13229  39.535  30.427   3.452
41647W        W13230   6.306   6.911   0.007
41648W        W13231  13.766  10.172  13.755
41649W        W13232  19.606   8.221  12.521
41650W        W13233  44.193  10.338  11.596
41651W        W13234  41.084   1.278  14.355
41652W        W13235  41.451  25.483  13.446
41653W        W13236  38.741  14.454  11.142
41654W        W13237  29.840   4.270   2.298
41655W        W13238  28.006   1.651  11.162
41656W        W13239  27.541  36.524  14.475
41657W        W13240   0.794  26.186  14.520
41658W        W13241   2.246  13.083  10.671
41659W        W13242   6.378   3.678  12.882
41660W        W13243  17.399  12.929  11.801
41661W        W13244  18.322  28.429  12.613
41662W        W13245  11.678  14.706  14.862
41663W        W13246   5.517   7.152   3.139
41664W        W13247  10.202  32.996  10.651
41665W        W13248  35.130   8.368  11.692
41666W        W13249  17.697  27.458   2.924
41667W        W13250   6.329  18.514   0.452
41668W        W13251  11.174   5.189   1.366
41669W        W13252   3.790  41.913  14.048
41670W        W13253  11.100   0.020   3.168
41671W        W13254  40.958  23.334  13.493
41672W        W13255  42.773  17.839  14.374
41673W        W13256   3.338  16.630  13.448
41674W        W13257   2.467  42.220  12.941
41675W        W13258  31.057  37.558  10.757
41676W        W13259  37.924  15.004   4.921
41677W        W13260   1.876  15.213  11.066
41678W        W13261   9.239   4.715  10.108
41679W        W13262  26.179   6.009   0.351
41680W        W13263  15.030  38.775  13.112
41681W        W13264   2.385  35.159   3.701
41682W        W13265  10.671   1.822  13.118
41683W        W13266  43.353  28.236  14.483
41684W        W13267  14.064  27.006  13.926
41685W        W13268  28.636  28.212  11.550
41686W        W13269  42.905  24.905   4.796
41687W        W13270  17.051   8.300   3.583
41688W        W13271  41.797  27.909  14.411
41689W        W13272   4.826  18.699   2.664
41690W        W13273  20.959  36.415   3.587
41691W        W13274  42.948  33.897   1.033
41692W        W13275  15.789   1.222  14.311
41693W        W13276  12.415  23.359   0.827
41694W        W13277  33.097  43.046  13.828
41695W        W13278   9.074  28.512   0.908
41696W        W13279   9.353  18.185   0.364
41697W        W13280  35.957  36.747  14.288
41698W        W13281  39.412  10.252   0.827
41699W        W13282  40.263  39.195   0.699
41700W        W13283  14.139   2.163  14.775
41701W        W13284  30.244  27.552  14.710
41702W        W13285  29.694  22.541   1.076
41703W        W13286  42.596  43.361   1.812
41704W        W13287  11.053   3.929  13.355
41705W        W13288  11.242   5.068   4.474
41706W        W13289  22.292  20.100   5.183
41707W        W13290  35.357   4.322  10.929
41708W        W13291   9.714  37.590   0.739
41709W        W13292  17.197  22.802   4.282
41710W        W13293   6.005  33.661   4.387
41711W        W13294  19.783  17.826   1.416
41712W        W13295  25.975   2.343   3.864
41713W        W13296  24.313  27.041   3.867
41714W        W13297  21.687  36.383   4.689
41715W        W13298  19.710  10.052   4.216
41716W        W13299  38.096  14.782  12.904
41717W        W13300  43.771  39.877   4.592
41718W        W13301  43.464  18.185  13.637
41719W        W13302  20.515  15.604  12.011
41720W        W13303  27.950  31.991  10.715
41721W        W13304  22.283   2.777   2.999
41722W        W13305  39.958   0.319   3.624
41723W        W13306  25.404  44.693   1.891
41724W        W13307  29.043   8.778  14.832
41725W        W13308  28.774  44.431   4.365
41726W        W13309  27.031   2.540   3.208
41727W        W13310   8.721   8.262  14.973
41728W        W13311   3.363  20.504  14.872
41729W        W13312  14.041  30.721   1.406
41730W        W13313   4.352  41.903   3.672
41731W        W13314  31.797  27.572   3.779
41732W        W13315  24.198  38.824   3.112
41733W        W13316  26.105   9.938  11.634
41734W        W13317   4.192  14.829  14.498
41735W        W13318  18.009  18.330   0.296
41736W        W13319  34.874  16.773   2.645
41737W        W13320   2.215  19.057   0.506
41738W        W13321  40.065   1.118  14.454
41739W        W13322  32.972   7.770   4.805
41740W        W13323   8.552  38.012  13.220
41741W        W13324   3.429  38.677   3.372
41742W        W13325  10.798  25.479  13.193
41743W        W13326  41.792  24.551   0.882
41744W        W13327  25.703  35.089  12.950
41745W        W13328   1.249  16.077   3.848
41746W        W13329  11.376  35.513   4.110
41747W        W13330  26.855  38.020   1.836
41748W        W13331   6.300  41.693  11.982
41749W        W13332  22.644  13.391   0.490
41750W        W13333  23.915  32.848   2.261
41751W        W13334   4.983  34.706  11.154
41752W        W13335   9.416  13.388  12.432
41753W        W13336  24.166  34.488  13.526
41754W        W13337  12.377  40.731  13.905
41755W        W13338   4.293  12.349   3.722
41756W        W13339  29.416  36.255   3.210
41757W        W13340  42.346  36.367   4.470
41758W        W13341  38.897  41.613   0.446
41759W        W13342  31.692  32.377   3.662
41760W        W13343  38.107  30.184  11.540
41761W        W13344   3.134  14.292   3.813
41762W        W13345  10.853  36.059  10.326
41763W        W13346   7.647  24.463  14.526
41764W        W13347   0.287  21.188  13.879
41765W        W13348   4.481  28.432  11.137
41766W        W13349  34.871  19.249   2.673
41767W        W13350  13.758  23.090   4.657
41768W        W13351   2.131  16.664   0.975
41769W        W13352  14.846  19.027   0.786
41770W        W13353  41.936  13.977  13.936
41771W        W13354   8.720  16.896  11.490
41772W        W13355  23.791  12.867   4.478
41773W        W13356  38.884  28.146  13.414
41774W        W13357  25.466   0.555   0.788
41775W        W13358  30.016  33.558   4.188
41776W        W13359  24.918  17.233  13.555
41777W        W13360  14.768  37.392  11.050
41778W        W13361  34.910   9.662  13.081
41779W        W13362  19.230  15.443  11.568
41780W        W13363   1.817  40.896   0.269
41781W        W13364  40.314   4.843   3.272
41782W        W13365  21.514  44.985  14.965
41783W        W13366  44.320   2.237   3.801
41784W        W13367  37.722  26.839  12.998
41785W        W13368  20.014   3.014  14.550
41786W        W13369  43.263  43.856  14.912
41787W        W13370  23.650  25.197   3.167
41788W        W13371  40.109  17.783  12.839
41789W        W13372  37.896  11.640  12.388
41790W        W13373  11.656  15.398   4.080
41791W        W13374  36.834   8.236   0.575
41792W        W13375   4.978  32.144  12.321
41793W        W13376  12.660  35.503   1.198
41794W        W13377   2.853  10.591  14.040
41795W        W13378  24.246  39.638   1.891
41796W        W13379  22.201  24.713   3.846
41797W        W13380  13.197   3.951   4.273
41798W        W13381  43.319   5.856   4.482
41799W        W13382  12.240  14.400  13.925
41800W        W13383   2.904   9.708   1.461
41801W        W13384  18.258  29.931   2.187
41802W        W13385  40.761  42.884   2.654
41803W        W13386  10.762   9.847   1.653
41804W        W13387   2.147  23.739   3.677
41805W        W13388   9.845  19.322  14.995
41806W        W13389   9.671  10.830  13.926
41807W        W13390  20.307  26.107   2.150
41808W        W13391  18.605  24.875  10.830
41809W        W13392  41.312  22.122  10.578
41810W        W13393  12.945  14.367  13.172
41811W        W13394  22.073   0.047   3.158
41812W        W13395  26.087  25.662   1.926
41813W        W13396   3.123  30.909  11.974
41814W        W13397  36.979  27.937   2.188
41815W        W13398  28.416  40.896   2.074
41816W        W13399   9.873  37.706  11.913
41817W        W13400  28.478  36.656   4.179
41818W        W13401  31.091  25.653   0.524
41819W        W13402  35.179   8.860   3.319
41820W        W13403  37.409  27.499  11.662
41821W        W13404  27.474   0.453   2.832
41822W        W13405  40.134  43.299  11.989
41823W        W13406  15.985  34.107   1.553
41824W        W13407  29.478  13.185   1.238
41825W        W13408   2.606   8.392   1.869
41826W        W13409   1.399   4.244  11.679
41827W        W13410   9.247  38.564  13.633
41828W        W13411  22.137  39.362  12.198
41829W        W13412  23.467  44.687  11.072
41830W        W13413   6.197  40.386   2.304
41831W        W13414  42.945  19.786  11.168
41832W        W13415   2.913  36.249   4.209
41833W        W13416  31.472   7.441  13.093
41834W        W13417  18.575   1.025  10.565
41835W        W13418  25.156  30.080  14.410
41836W        W13419  13.813   3.646  12.024
41837W        W13420  31.206  35.860  14.282
41838W        W13421  18.088   4.989   3.860
41839W        W13422  36.004  34.065   1.965
41840W        W13423  37.023  35.119   2.727
41841W        W13424  39.574  26.089  12.146
41842W        W13425  33.869  31.530  14.440
41843W        W13426  16.325  32.399   0.296
41844W        W13427   1.870  29.420  11.677
41845W        W13428  35.123  33.120   1.696
41846W        W13429   3.352   7.713  12.921
41847W        W13430  17.104  35.390  12.861
41848W        W13431  37.573   0.237  14.906
41849W        W13432   0.276  37.172   3.274
41850W        W13433  36.504   5.067   0.334
41851W        W13434  26.229   2.814  13.772
41852W        W13435  15.683  19.719   4.064
41853W        W13436  10.438  12.181  12.958
41854W        W13437  26.315  38.354   2.991
41855W        W13438  19.172  25.108   2.849
41856W        W13439   4.427   1.739  12.993
41857W        W13440   1.974  23.127  12.474
41858W        W13441   2.316  37.085   2.623
41859W        W13442  25.650  26.520   1.926
41860W        W13443  43.152  28.620   2.813
41861W        W13444  21.613  20.600  11.569
41862W        W13445  27.606  37.050   4.424
41863W        W13446  43.267  19.069   1.784
41864W        W13447  33.211  15.471  12.456
41865W        W13448  21.671   0.842   1.371
41866W        W13449   0.766  24.628   3.843
41867W        W13450  34.268   8.149  10.822
41868W        W13451  36.696   9.460   1.960
41869W        W13452  13.666  41.007   2.856
41870W        W13453  36.894   3.472   4.139
41871W        W13454  14.198  22.264  13.087
41872W        W13455  14.517  25.598   4.594
41873W        W13456  30.794  29.583   3.782
41874W        W13457  37.785  17.017  11.976
41875W        W13458  39.648  23.487   2.761
41876W        W13459   4.585  31.160  12.384
41877W        W13460  13.624  32.396  11.152
41878W        W13461  16.757  16.232  13.325
41879W        W13462   5.121  30.972   1.935
41880W        W13463   0.994  43.716  11.236
41881W        W13464  18.301  22.933  10.827
41882W        W13465   3.120  42.298   2.102
41883W        W13466  39.552  28.167  14.701
41884W        W13467  39.940  11.599  12.440
41885W        W13468  26.622  36.419   2.200
41886W        W13469  16.607  34.858   1.848
41887W        W13470  17.287   2.362   3.655
41888W        W13471  44.795  21.475   4.367
41889W        W13472   2.371   4.158  11.608
41890W        W13473  35.500   6.399   2.630
41891W        W13474  12.360  35.683  13.964
41892W        W13475  12.225  41.602  14.351
41893W        W13476  42.328   2.950   2.621
41894W        W13477   1.382   1.288  12.943
41895W        W13478   6.614  16.376  11.079
41896W        W13479  16.085  44.941  11.564
41897W        W13480  17.398  15.113  13.525
41898W        W13481  29.487  19.125   3.871
41899W        W13482  29.872  34.675   3.651
41900W        W13483  39.870  30.627  10.519
41901W        W13484  27.122  34.650   1.850
41902W        W13485  16.958  11.821   0.864
41903W        W13486  14.594   0.515   0.911
41904W        W13487   9.539  40.291  11.931
41905W        W13488   5.834   9.152  14.869
41906W        W13489  26.810   1.982   1.444
41907W        W13490  27.957  23.109   3.842
41908W        W13491  25.203  19.610   3.735
41909W        W13492  24.476  37.320   4.207
41910W        W13493  34.324  25.451  11.564
41911W        W13494  30.138  17.759   3.001
41912W        W13495   9.210  12.874   1.552
41913W        W13496   6.315  26.516   4.680
41914W        W13497  18.198  10.887   3.367
41915W        W13498  39.269  27.239   2.030
41916W        W13499  26.432  34.388   0.130
41917W        W13500  13.684  28.455   0.712
41918W        W13501   3.919  25.068  13.961
41919W        W13502   4.396  24.170  14.928
41920W        W13503  29.950  17.821   4.407
41921W        W13504   4.194  14.555  11.049
41922W        W13505  26.209  34.344   2.754
41923W        W13506   4.249  26.084   0.039
41924W        W13507  44.592   0.554   4.992
41925W        W13508  32.895  11.135  14.054
41926W        W13509  20.760  42.663   0.848
41927W        W13510  37.249  26.335  10.203
41928W        W13511  29.622   4.927   2.689
41929W        W13512  31.946   2.352   3.984
41930W        W13513   6.722  36.657   0.243
41931W        W13514  12.630  18.072  11.542
41932W        W13515  25.830   2.537  13.509
41933W        W13516   7.181  37.104  11.148
41934W        W13517  13.263   4.084   0.403
41935W        W13518  43.693  22.173  14.358
41936W        W13519  17.377  33.144   4.548
41937W        W13520   5.351  29.637  13.737
41938W        W13521  37.636  28.707   0.617
41939W        W13522  44.896  42.962   0.933
41940W        W13523  37.100  29.069   3.848
41941W        W13524  12.841  31.581   4.130
41942W        W13525  42.454   9.648  11.575
41943W        W13526  44.706  11.756   0.945
41944W        W13527  13.594  10.968  11.435
41945W        W13528  28.609   1.378  14.267
41946W        W13529  23.675   2.260   2.755
41947W        W13530  29.382  16.095   2.240
41948W        W13531  11.772   5.836  12.567
41949W        W13532  42.636  31.624  13.041
41950W        W13533  43.232  27.184  13.470
41951W        W13534  42.215   0.591  10.420
41952W        W13535  21.602   9.132   0.457
41953W        W13536   1.210  23.196  10.609
41954W        W13537   7.212  21.231   0.936
41955W        W13538  38.505  32.297  10.796
41956W        W13539   3.159   1.409   1.392
41957W        W13540  41.794  32.682   4.126
41958W        W13541  29.413   6.211   1.689
41959W        W13542  43.536   4.224  14.500
41960W        W13543   3.188  32.607  13.827
41961W        W13544  20.130  23.217   5.071
41962W        W13545  25.147  28.604   1.771
41963W        W13546  17.089  33.494   4.210
41964W        W13547   2.793  28.048  13.399
41965W        W13548  24.575  35.505  12.674
41966W        W13549  30.742  32.356   1.178
41967W        W13550  41.999  20.791  10.900
41968W        W13551  22.046  28.109   1.247
41969W        W13552  42.955   0.487   0.488
41970W        W13553  23.172  32.134   0.291
41971W        W13554  30.532  12.657   3.387
41972W        W13555  10.380  40.634  13.918
41973W        W13556  23.073   7.159   0.378
41974W        W13557  37.359   8.688  13.600
41975W        W13558  21.655  37.519  11.793
41976W        W13559   9.787  30.108  14.915
41977W        W13560  14.188  27.083  10.432
41978W        W13561   4.208   6.460  10.928
41979W        W13562  37.730   3.208  12.576
41980W        W13563  39.062  32.885  13.598
41981W        W13564  35.536  30.141   0.589
41982W        W13565   6.215  32.829   1.664
41983W        W13566   5.217  32.611  11.123
41984W        W13567  32.711  41.890   1.408
41985W        W13568  31.694   0.583  12.079
41986W        W13569  36.528  32.855   4.557
41987W        W13570  18.790  24.498   3.363
41988W        W13571  11.458   1.749   1.792
41989W        W13572  22.278   5.145  12.484
41990W        W13573  36.841  22.728   4.440
41991W        W13574  23.566  38.952   1.856
41992W        W13575  40.951  33.560  13.920
41993W        W13576  30.624  16.249   3.650
41994W        W13577   9.186  10.667  11.514
41995W        W13578   9.417  26.117   3.182
41996W        W13579  10.292  28.127   1.502
41997W        W13580  35.176  28.120   2.792
41998W        W13581  23.573  20.306  10.430
41999W        W13582   4.032   0.891  13.383
42000W        W13583  12.360   5.984   3.699
42001W        W13584   2.734   4.950   0.724
42002W        W13585  27.207  18.200  13.857
42003W        W13586  13.716  43.632   1.781
42004W        W13587  18.191  34.100   1.437
42005W        W13588   8.776   8.168   2.778
42006W        W13589  23.714  27.200  10.388
42007W        W13590  39.937  42.326   0.811
42008W        W13591  34.581  27.927  12.086
42009W        W13592   8.663   5.868   0.081
42010W        W13593  23.598   7.334   4.387
42011W        W13594   1.296   5.307   2.714
42012W        W13595  13.527  39.023  13.806
42013W        W13596  33.311   9.347  13.562
42014W        W13597  20.732  43.351   0.338
42015W        W13598  11.207  24.266   0.749
42016W        W13599  37.472   5.820  10.713
42017W        W13600   4.480   2.304   2.419
42018W        W13601  31.045  41.934   1.816
42019W        W13602  32.522  22.141  12.037
42020W        W13603  21.508  43.706   4.887
42021W        W13604  20.036   6.224   3.159
42022W        W13605  17.218  10.472   2.153
42023W        W13606   3.187  16.812   1.839
42024W        W13607  23.586  38.833   4.695
42025W        W13608   5.768  23.747   3.636
42026W        W13609  35.861  41.323  10.680
42027W        W13610  30.984  36.113   0.292
42028W        W13611   4.805  40.024   2.393
42029W        W13612  38.543  23.631  14.849
42030W        W13613  40.022  44.288  10.695
42031W        W13614   0.887   3.599   1.679
42032W        W13615   6.362  18.116  12.105
42033W        W13616  20.724   8.423   0.918
42034W        W13617  37.805   9.383   2.869
42035W        W13618  24.230  12.245  14.775
42036W        W13619  27.579  40.367   1.641
42037W        W13620   0.648  23.564  13.526
42038W        W13621  24.373   2.866   3.807
42039W        W13622   7.974  34.932  11.508
42040W        W13623  38.773   9.214  11.693
42041W        W13624  32.481  44.296   0.348
42042W        W13625   9.649   1.992   0.109
42043W        W13626  40.432  36.862   3.266
42044W        W13627  12.838   0.975  13.353
42045W        W13628  35.417  26.591  12.621
42046W        W13629  30.605   5.622   0.866
42047W        W13630  28.077  34.545  14.759
42048W        W13631  30.497  36.873   1.317
42049W        W13632  19.583  44.515   4.935
42050W        W13633  19.074  13.160  14.824
42051W        W13634  22.592  40.068  13.437
42052W        W13635  18.572  13.643   2.297
42053W        W13636  12.195  22.276  11.838
42054W        W13637  18.001   8.632   3.419
42055W        W13638  33.612  25.386   9.850
42056W        W13639   5.238  26.516  11.188
42057W        W13640  10.104  13.794   3.214
42058W        W13641  41.786  44.464  12.888
42059W        W13642  42.371  35.482  13.861
42060W        W13643   9.382  21.305  12.123
42061W        W13644  41.689  44.382  13.852
42062W        W13645   6.960  28.610   1.604
42063W        W13646  44.828  26.716   3.761
42064W        W13647  13.452   9.995  11.582
42065W        W13648  44.432  19.208  14.831
42066W        W13649  31.755  34.793   2.232
42067W        W13650  21.259  23.486   4.342
42068W        W13651   7.271   7.363  14.525
42069W        W13652  41.396  16.290  11.631
42070W        W13653  27.912   8.733   2.264
42071W        W13654  31.904   5.755   4.805
42072W        W13655  34.118   7.457  13.449
42073W        W13656  22.941   3.451   2.814
42074W        W13657  24.571  15.297   2.631
42075W        W13658   8.815  40.966  11.733
42076W        W13659  31.456  25.891  14.423
42077W        W13660   8.213  31.949   1.837
42078W        W13661  25.571  33.193  13.444
42079W        W13662   9.867  43.910  13.350
42080W        W13663  16.739  21.150  11.144
42081W        W13664  29.034   9.792  13.493
42082W        W13665  39.497  40.105   1.216
42083W        W13666  10.281  22.763  10.719
42084W        W13667  28.984  15.367   1.736
42085W        W13668   6.778  39.542  14.771
42086W        W13669   2.989  23.337   2.638
42087W        W13670   2.325   2.293  11.053
42088W        W13671  24.035  14.240   0.834
42089W        W13672   3.420  23.433   4.875
42090W        W13673  19.786   8.340   0.881
42091W        W13674  26.224  32.613  11.809
42092W        W13675  33.713   2.905  12.172
42093W        W13676  42.093  32.916  13.995
42094W        W13677  44.687  27.598   1.421
42095W        W13678  44.060   9.827  10.652
42096W        W13679   1.378  16.125   2.871
42097W        W13680  17.694  34.923  10.668
42098W        W13681   1.594  44.499   4.629
42099W        W13682  21.721   2.725   1.174
42100W        W13683  18.216  24.234  11.232
42101W        W13684  17.806   8.647  14.962
42102W        W13685  43.016  19.338   3.662
42103W        W13686  32.122  40.301  12.591
42104W        W13687   8.005  25.444   4.613
42105W        W13688  37.232   0.883   4.431
42106W        W13689   8.140  10.744  11.502
42107W        W13690  33.919  10.283  11.929
42108W        W13691  42.978   7.386  11.895
42109W        W13692   6.841  39.616   4.196
42110W        W13693   8.729  36.496  14.827
42111W        W13694  17.065  13.657   3.772
42112W        W13695  34.473  20.691   4.462
42113W        W13696  36.168  13.477  11.234
42114W        W13697  28.927  35.820  12.851
42115W        W13698  38.349   0.386   4.869
42116W        W13699  22.750  34.056  10.608
42117W        W13700  22.692  31.299  13.846
42118W        W13701  35.067  32.525   2.244
42119W        W13702  38.547  10.858   2.193
42120W        W13703  25.917  12.172   1.495
42121W        W13704  26.624  30.252  12.791
42122W        W13705  17.595  32.831   2.420
42123W        W13706   8.768  37.782  11.646
42124W        W13707  10.606   2.241   0.413
42125W        W13708   2.846  12.623   0.930
42126W        W13709  11.294   0.349  14.935
42127W        W13710  43.063  15.317   1.175
42128W        W13711  42.551  34.072   1.339
42129W        W13712  40.818  27.119  14.924
42130W        W13713  25.405  34.939   1.019
42131W        W13714  44.270  31.394   4.491
42132W        W13715  15.234  37.381   4.008
42133W        W13716  11.892   3.005   2.080
42134W        W13717  18.032  40.688  12.991
42135W        W13718  20.696  30.208  13.519
42136W        W13719  30.474   0.380  14.578
42137W        W13720  31.179  19.747   0.255
42138W        W13721   8.881   8.825  12.282
42139W        W13722  18.330  24.965  13.535
42140W        W13723   6.547  13.658  11.120
42141W        W13724  26.583  12.551  10.350
42142W        W13725  41.749   6.307   3.296
42143W        W13726  44.518   4.376  14.899
42144W        W13727  29.570  38.310   4.583
42145W        W13728   8.693  10.231   1.351
42146W        W13729  30.750  23.548   4.673
42147W        W13730  43.224   2.440   0.389
42148W        W13731  32.226   4.917   3.200
42149W        W13732  15.775  24.843   5.033
42150W        W13733  27.936   7.203   2.466
42151W        W13734  32.426  33.962  12.851
42152W        W13735  29.196  12.013  13.883
42153W        W13736  21.158  39.540  14.404
42154W        W13737  33.047  18.444   0.406
42155W        W13738  34.972  10.900   3.444
42156W        W13739   0.368  37.116   0.915
42157W        W13740  28.589  40.968   4.685
42158W        W13741  20.424  32.692   1.779
42159W        W13742   8.875  27.046   0.290
42160W        W13743  16.691  32.369   0.706
42161W        W13744  13.300  41.744  13.014
42162W        W13745  16.784  31.815  12.523
42163W        W13746  22.607  32.689  10.709
42164W        W13747  26.038  20.341  12.410
42165W        W13748   9.824  19.451   3.380
42166W        W13749  33.533   4.678   3.767
42167W        W13750  35.846  10.738   0.911
42168W        W13751  19.589   2.678  12.846
42169W        W13752  38.924  37.294  12.512
42170W        W13753   5.871   5.868   0.379
42171W        W13754  33.913   9.334   3.230
42172W        W13755  17.774  22.226  13.876
42173W        W13756  36.312  43.849   1.654
42174W        W13757  24.458  18.317   2.583
42175W        W13758   7.655   3.914   2.453
42176W        W13759  30.084  42.066  14.849
42177W        W13760  16.398   8.680   0.248
42178W        W13761  35.581  37.638  13.901
42179W        W13762   4.684  23.705   4.907
42180W        W13763   2.940  39.922  14.493
42181W        W13764  13.646   2.601   1.846
42182W        W13765  36.352  12.609  10.204
42183W        W13766  29.085  44.926  14.028
42184W        W13767  23.263  12.387   1.955
42185W        W13768   3.680  22.162   4.677
42186W        W13769  14.317   0.437   1.888
42187W        W13770  40.889  29.973  14.251
42188W        W13771   7.929   0.948  11.393
42189W        W13772   2.762  37.407  12.365
42190W        W13773  26.778   9.664   9.476
42191W        W13774  42.465  33.641  13.339
42192W        W13775   9.389   2.913   0.384
42193W        W13776  13.127  33.411   3.223
42194W        W13777  19.185  21.938  13.025
42195W        W13778  31.836  30.993   2.681
42196W        W13779   2.555  11.124   4.931
42197W        W13780  13.945  28.855  11.537
42198W        W13781  22.062  17.725  13.384
42199W        W13782  38.448  15.645  13.036
42200W        W13783  22.458  41.277   3.316
42201W        W13784   8.214  42.274   4.683
42202W        W13785  12.291  18.066  13.125
42203W        W13786  29.480  36.851  10.722
42204W        W13787  24.484  19.151  13.352
42205W        W13788  38.035  14.385  14.859
42206W        W13789  19.013  41.335  11.494
42207W        W13790   2.252  12.498  10.798
42208W        W13791  41.037  36.552  11.172
42209W        W13792  44.012  19.592   1.676
42210W        W13793  30.438   7.139  13.182
42211W        W13794  21.290  41.449  13.873
42212W        W13795  37.501  24.916   0.342
42213W        W13796  41.933   1.205  13.505
42214W        W13797   7.006  39.079   2.780
42215W        W13798  13.826  18.825  11.908
42216W        W13799  13.659  26.682   3.708
42217W        W13800  31.013  25.092   1.332
42218W        W13801  33.076  18.291   2.196
42219W        W13802  26.977  43.961   4.345
42220W        W13803   9.500  12.111   0.497
42221W        W13804  22.288  41.325   2.826
42222W        W13805   8.172  18.122   1.949
42223W        W13806  41.408  38.481   2.611
42224W        W13807  25.700  28.945   3.868
42225W        W13808   7.764  32.645  13.848
42226W        W13809  12.207  22.229   3.033
42227W        W13810  15.517  32.164  11.130
42228W        W13811  44.660  38.446  13.436
42229W        W13812  44.201  15.121  14.795
42230W        W13813   6.860  30.841   1.161
42231W        W13814  33.327   3.785   4.638
42232W        W13815  27.604  37.478  12.840
42233W        W13816  18.638   3.392   4.235
42234W        W13817   0.717  11.232  13.349
42235W        W13818  29.571   8.971   2.298
42236W        W13819   3.535   6.472  12.418
42237W        W13820  29.032  19.192   3.607
42238W        W13821  30.380  13.196   0.594
42239W        W13822  23.996  38.559   2.696
42240W        W13823  21.220  18.608   1.436
42241W        W13824  10.685  25.003   1.640
42242W        W13825  29.048  33.989   5.405
42243W        W13826  38.471  36.979   0.133
42244W        W13827  24.452  25.795  13.650
42245W        W13828  13.752  12.563  14.833
42246W        W13829   2.269  44.376  14.287
42247W        W13830  11.922  21.761   2.903
42248W        W13831  23.325  41.065  11.540
42249W        W13832  19.793  39.634   2.686
42250W        W13833  36.474  30.404  10.888
42251W        W13834   1.725  41.251   4.130
42252W        W13835  38.449  14.840  12.313
42253W        W13836  38.379  30.103   0.912
42254W        W13837  41.243   5.750  14.764
42255W        W13838  44.775  28.071  12.029
42256W        W13839   3.220  38.672   5.399
42257W        W13840   1.901  13.192   4.037
42258W        W13841   9.340  20.798  11.096
42259W        W13842  42.520  38.827  13.896
42260W        W13843  25.577  16.938  11.654
42261W        W13844  13.791  43.777  12.964
42262W        W13845  44.344  24.233  14.980
42263W        W13846  13.756  17.299  13.867
42264W        W13847   5.075  41.352   3.750
42265W        W13848  19.989   7.170   1.999
42266W        W13849  35.144  37.391   5.062
42267W        W13850  31.133  30.500  11.235
42268W        W13851  10.302  30.888  13.901
42269W        W13852  24.523  35.764   2.907
42270W        W13853   2.859  44.501   1.612
42271W        W13854  29.591  34.225  10.277
42272W        W13855  14.745  38.538  13.729
42273W        W13856  31.980  33.393   2.284
42274W        W13857   0.879  12.824   0.297
42275W        W13858  13.722   7.846  14.992
42276W        W13859  26.220  37.903  13.410
42277W        W13860  40.817  29.464   0.708
42278W        W13861   2.262  25.565  12.545
42279W        W13862  32.963  19.486  14.381
42280W        W13863  24.612   9.904  14.016
42281W        W13864  32.053  44.518   1.194
42282W        W13865   4.966  19.632  13.419
42283W        W13866  22.600  18.648  10.197
42284W        W13867  38.348  33.061  11.849
42285W        W13868  40.922  14.331  13.049
42286W        W13869   0.451  20.644   4.183
42287W        W13870  21.016   3.517  12.505
42288W        W13871  36.104  42.740  14.882
42289W        W13872  23.399   0.006   0.458
42290W        W13873   0.020  13.316   0.885
42291W        W13874   6.843  21.301  14.415
42292W        W13875  14.159   0.720  12.115
42293W        W13876  25.340  38.153  14.299
42294W        W13877  23.477  18.598  10.634
42295W        W13878   4.141   2.253  14.372
42296W        W13879  41.859  44.403   2.217
42297W        W13880  15.634  14.885  11.492
42298W        W13881  29.536   2.689  13.379
42299W        W13882  13.285   5.198  10.876
42300W        W13883  11.291  11.165   0.080
42301W        W13884  36.589  20.763  14.074
42302W        W13885  31.489  13.278  14.151
42303W        W13886   8.919  27.678  14.966
42304W        W13887  37.572  37.857  13.935
42305W        W13888  17.884  30.621  12.304
42306W        W13889  11.216  25.494  12.877
42307W        W13890   5.180   3.509   2.653
42308W        W13891  26.876  10.192   1.686
42309W        W13892   4.824  30.494   0.481
42310W        W13893  33.631   6.731  12.063
42311W        W13894  36.514  34.501   4.571
42312W        W13895  11.905  10.683  13.081
42313W        W13896  37.855  20.272  11.094
42314W        W13897   4.977  31.422   0.750
42315W        W13898  40.821  11.519  12.292
42316W        W13899  24.207  19.367  14.937
42317W        W13900  37.110  18.571   3.688
42318W        W13901  31.922  18.245   3.288
42319W        W13902  31.714  30.560   3.832
42320W        W13903  43.229  36.479   3.307
42321W        W13904  37.632   9.169   4.847
42322W        W13905  14.468  42.509   1.438
42323W        W13906  31.857   9.416  13.252
42324W        W13907  25.269   4.980  12.472
42325W        W13908  22.528  41.663  12.497
42326W        W13909   8.974  18.304  12.963
42327W        W13910  13.386   2.895  10.606
42328W        W13911  22.365  31.659   4.873
42329W        W13912  37.563  31.980   1.453
42330W        W13913   3.480   1.928   2.261
42331W        W13914   4.299   3.793  11.474
42332W        W13915  14.831  33.566   4.910
42333W        W13916  10.821   3.135   3.536
42334W        W13917   1.457  39.119  10.182
42335W        W13918  26.516  26.038   0.008
42336W        W13919  42.710   9.593  11.124
42337W        W13920  21.208  39.032  10.368
42338W        W13921  14.194  33.453  10.743
42339W        W13922  33.141  14.245  14.862
42340W        W13923  28.424   4.701   2.155
42341W        W13924   7.574   0.983   1.393
42342W        W13925   9.831  14.146  14.262
42343W        W13926   1.234   5.658   2.342
42344W        W13927  18.149  41.971  12.819
42345W        W13928  21.988  19.746  12.497
42346W        W13929  30.618  27.936  14.018
42347W        W13930  32.931   6.923  11.079
42348W        W13931  22.683   9.719   4.782
42349W        W13932  29.396   1.890  12.439
42350W        W13933  35.649  32.298  11.476
42351W        W13934  36.936  38.430  10.970
42352W        W13935  14.729   8.676   1.388
42353W        W13936  34.812  19.996   3.773
42354W        W13937  41.479  13.243   1.781
42355W        W13938   5.413  23.347  12.489
42356W        W13939  31.117  26.678   1.504
42357W        W13940   5.894  19.215  11.475
42358W        W13941  12.266  10.156   1.271
42359W        W13942  22.469  10.719   1.396
42360W        W13943  30.870  33.158  14.864
42361W        W13944   8.699  34.639  14.028
42362W        W13945  19.714  21.270  13.307
42363W        W13946  21.152  41.505  11.020
42364W        W13947   6.484  16.076  12.271
42365W        W13948  35.143   6.337   1.495
42366W        W13949  15.237  11.882  14.689
42367W        W13950  15.541   7.228   4.791
42368W        W13951  19.223  37.769   1.105
42369W        W13952  24.977  17.238  14.079
42370W        W13953  32.242  31.525  13.630
42371W        W13954  33.995  40.300   0.344
42372W        W13955   5.449  43.254   2.804
42373W        W13956  29.193  21.128   2.411
42374W        W13957  16.313  37.960   1.019
42375W        W13958  40.540  40.992   5.051
42376W        W13959  42.389   3.260   3.662
42377W        W13960  34.170   3.408   4.565
42378W        W13961  30.489  25.355   2.774
42379W        W13962  35.614  42.388  11.660
42380W        W13963  33.511   4.656  11.615
42381W        W13964  25.113  15.062  13.925
42382W        W13965  29.772  10.184  10.178
42383W        W13966  20.547   9.116   0.332
42384W        W13967  38.758  18.205   4.555
42385W        W13968   4.415  23.785   0.842
42386W        W13969  44.708  28.109  10.291
42387W        W13970  42.501  14.080   1.379
42388W        W13971  42.062  23.772   2.139
42389W        W13972  12.054  43.373   1.408
42390W        W13973  14.649  11.811  11.543
42391W        W13974   2.332  40.580  11.139
42392W        W13975  41.747   4.847  13.896
42393W        W13976  12.416  40.396   0.365
42394W        W13977  26.050  21.583   2.714
42395W        W13978  27.647  16.062   2.835
42396W        W13979   6.618   7.283  13.224
42397W        W13980  40.763  36.572  13.933
42398W        W13981  32.579  40.385   4.831
42399W        W13982  31.682  35.831   3.117
42400W        W13983  12.383  12.820  13.927
42401W        W13984  15.432  42.800   5.197
42402W        W13985  37.547  41.421   1.326
42403W        W13986  38.864  31.817  10.156
42404W        W13987  37.835   3.946  12.999
42405W        W13988  29.655  26.526  14.753
42406W        W13989  10.821  13.287  12.199
42407W        W13990  37.052   1.981  12.281
42408W        W13991  38.325  25.365  12.476
42409W        W13992  19.405  13.261  11.342
42410W        W13993   5.829   5.224  13.943
42411W        W13994  14.746  17.595   4.546
42412W        W13995  20.027  40.262  11.031
42413W        W13996  16.789  40.538  13.834
42414W        W13997  43.892   1.214  11.359
42415W        W13998  16.892  39.071   0.747
42416W        W13999  38.331  20.605   4.081
42417W        W14000  27.898  17.302  13.092
42418W        W14001  42.458   1.752  11.025
42419W        W14002  14.232  34.012   0.535
42420W        W14003  42.822   9.890   4.477
42421W        W14004   7.264  29.698  10.643
42422W        W14005   3.873  27.680   3.125
42423W        W14006  40.044  42.519  10.857
42424W        W14007   0.759  33.182   0.871
42425W        W14008   8.255  24.549   4.695
42426W        W14009  19.439  24.021  12.979
42427W        W14010  27.427  28.238   2.468
42428W        W14011   4.601  30.978   1.820
42429W        W14012  36.066  40.118   2.825
42430W        W14013  17.977  22.266  14.383
42431W        W14014  43.443  13.306  13.940
42432W        W14015  17.545  32.198  11.166
42433W        W14016   4.733   9.667   3.653
42434W        W14017  15.490  11.783   1.842
42435W        W14018  35.110   6.235   2.947
42436W        W14019  17.363   8.853   0.446
42437W        W14020  21.252  36.836   1.940
42438W        W14021  23.248  15.009  12.121
42439W        W14022   7.478  23.047   1.780
42440W        W14023  30.004  27.169  11.498
42441W        W14024  32.860  23.546  13.763
42442W        W14025  21.466  29.136  12.354
42443W        W14026  41.780  30.558   3.104
42444W        W14027  34.863  18.736  12.526
42445W        W14028   8.660  30.527  11.903
42446W        W14029   8.823   2.098  14.888
42447W        W14030  42.727  33.632   3.157
42448W        W14031  44.265   5.854  14.114
42449W        W14032  30.687  12.792   3.848
42450W        W14033  34.333   2.201  14.698
42451W        W14034   5.219  37.329   9.660
42452W        W14035  36.927   5.732   4.527
42453W        W14036  24.715  37.044  14.000
42454W        W14037  20.555   1.965  13.960
42455W        W14038  23.485  20.050  10.857
42456W        W14039  35.516  32.821  11.550
42457W        W14040  32.640  18.101   1.954
42458W        W14041  20.206   8.440  14.785
42459W        W14042  17.977  10.379   4.567
42460W        W14043   0.963  35.933   4.294
42461W        W14044   1.715  22.987   2.387
42462W        W14045  42.818  14.212   0.246
42463W        W14046  11.767  33.365   2.802
42464W        W14047   5.731  15.573   4.754
42465W        W14048  26.648   8.622   2.874
42466W        W14049  38.684  40.416  11.059
42467W        W14050  20.787   8.469   1.442
42468W        W14051  12.416  24.598  13.879
42469W        W14052  26.408  44.203  11.082
42470W        W14053   5.452  11.640   3.776
42471W        W14054  16.829  13.074   0.305
42472W        W14055  28.660   7.071   0.918
42473W        W14056   1.307  36.725  10.184
42474W        W14057  20.337  23.158  11.161
42475W        W14058  28.179  37.357   1.659
42476W        W14059   2.841  42.785  14.520
42477W        W14060   1.186  14.826   1.516
42478W        W14061  40.038  13.350   4.623
42479W        W14062  24.580  20.121   0.556
42480W        W14063  25.357  25.403  11.106
42481W        W14064  21.626  31.478  13.003
42482W        W14065  21.551  33.041   3.670
42483W        W14066   1.933  29.270  10.654
42484W        W14067   2.117  15.527   1.551
42485W        W14068  26.631  18.940  14.305
42486W        W14069   1.942  36.553   0.461
42487W        W14070  42.162  28.084   2.151
42488W        W14071  11.870   9.075   3.135
42489W        W14072  34.464  41.405  11.008
42490W        W14073  14.398  44.814  13.500
42491W        W14074  14.714   0.697  11.571
42492W        W14075  43.382  13.794  11.613
42493W        W14076  13.807   0.748   4.114
42494W        W14077  25.601   4.016   3.614
42495W        W14078  16.043  26.541   3.375
42496W        W14079  22.127  25.067  11.897
42497W        W14080   4.863  28.124   5.021
42498W        W14081  30.635  21.464  12.875
42499W        W14082  32.375  33.783  13.326
42500W        W14083  36.979   9.152   3.286
42501W        W14084   0.360   6.132  11.157
42502W        W14085  44.544  36.402   0.665
42503W        W14086  13.799  12.886  12.562
42504W        W14087  11.153  36.665  11.084
42505W        W14088  25.646  17.838  14.129
42506W        W14089  15.793   4.445   0.543
42507W        W14090  28.253  23.969   1.602
42508W        W14091  19.228  26.202   4.215
42509W        W14092  37.283  17.594  10.731
42510W        W14093  19.495  36.754   0.091
42511W        W14094  20.744  29.861   0.393
42512W        W14095   7.315  12.233  11.403
42513W        W14096  24.156   0.344   4.142
42514W        W14097  21.214  27.432  13.473
42515W        W14098  39.038  25.778  14.073
42516W        W14099  12.180  16.167  10.292
42517W        W14100  14.385  44.513  10.840
42518W        W14101   4.777   4.295  12.651
42519W        W14102  10.629  29.236  10.771
42520W        W14103  29.024  40.566   2.841
42521W        W14104  28.110  36.516  11.989
42522W        W14105  26.717  26.473   1.335
42523W        W14106  35.934  16.290   0.821
42524W        W14107  35.221   4.382   3.756
42525W        W14108  18.611  30.397   3.187
42526W        W14109  26.303  14.582   2.723
42527W        W14110   7.599  22.735  11.206
42528W        W14111  22.925  37.789   1.310
42529W        W14112   9.435  28.226  13.536
42530W        W14113  31.051  24.277  13.994
42531W        W14114   3.753  11.752  11.168
42532W        W14115  41.905   5.228   4.649
42533W        W14116   1.040   2.125   4.906
42534W        W14117   3.314  37.145  11.596
42535W        W14118  42.538   1.122   1.747
42536W        W14119  26.622  34.526   3.897
42537W        W14120  39.532  41.878   2.308
42538W        W14121  36.448  13.318  14.986
42539W        W14122  44.972  16.201   4.631
42540W        W14123  17.457  22.213   4.528
42541W        W14124  33.415   6.487  12.789
42542W        W14125  13.613   2.972  11.094
42543W        W14126  28.020  21.155   0.980
42544W        W14127  38.319  24.112  13.917
42545W        W14128  23.274   5.839   0.925
42546W        W14129  26.224  13.386   2.082
42547W        W14130  31.512  44.982  11.695
42548W        W14131  26.202  38.313   3.502
42549W        W14132  20.205  37.359  12.142
42550W        W14133  23.335  25.671  13.472
42551W        W14134  39.952   3.699  14.365
42552W        W14135  31.000  18.804   4.694
42553W        W14136  37.965  18.515   1.434
42554W        W14137  32.634  15.228  13.303
42555W        W14138  28.119  14.146   4.589
42556W        W14139  28.585  40.820  14.810
42557W        W14140  18.747  16.857   1.359
42558W        W14141   7.856   1.286  13.128
42559W        W14142  26.164   3.788  13.032
42560W        W14143  24.608   9.019   2.261
42561W        W14144  22.508  12.213   2.298
42562W        W14145  14.142  39.387   1.486
42563W        W14146   9.311   7.407  14.378
42564W        W14147  20.531  24.902   2.838
42565W        W14148   0.919   1.687   1.623
42566W        W14149  43.020  28.646  12.890
42567W        W14150  34.353  20.495   0.558
42568W        W14151  16.698  14.160  13.965
42569W        W14152  42.013  42.068   3.381
42570W        W14153   9.208  17.827  12.808
42571W        W14154  11.040  24.068  12.043
42572W        W14155  36.280   6.013  11.652
42573W        W14156  31.218  18.886   0.560
42574W        W14157  13.632  19.282   4.680
42575W        W14158  22.605  27.923   4.091
42576W        W14159  29.094  19.028  13.252
42577W        W14160  39.203  40.870   3.684
42578W        W14161  17.993  39.496  11.113
42579W        W14162  10.336  24.540  12.402
42580W        W14163  34.465  10.711   4.727
42581W        W14164  23.206  26.380   1.425
42582W        W14165   4.460  40.962  14.440
42583W        W14166  20.290  27.416   0.466
42584W        W14167  25.068  24.154   4.619
42585W        W14168   4.779  23.957   4.478
42586W        W14169  41.568  16.850   4.786
42587W        W14170  40.057   8.118   5.471
42588W        W14171  19.137   5.209  12.919
42589W        W14172  43.359  24.432  11.770
42590W        W14173  22.248  15.160   0.974
42591W        W14174  29.998  40.561   0.893
42592W        W14175  38.045  21.494   2.224
42593W        W14176  27.435  25.250   0.373
42594W        W14177   1.429   9.397   4.663
42595W        W14178  30.728  31.313   3.341
42596W        W14179  33.424  23.731   4.208
42597W        W14180   8.780   3.705   4.099
42598W        W14181  29.533  27.809   3.428
42599W        W14182  33.902   9.501  14.476
42600W        W14183  23.673   5.878   3.704
42601W        W14184   5.356  18.212  12.162
42602W        W14185  23.979  14.920  13.082
42603W        W14186  27.462  28.649   4.550
42604W        W14187   0.085   0.106   3.739
42605W        W14188  12.157  13.098  14.353
42606W        W14189  39.841  16.655  13.325
42607W        W14190   9.321  33.993   2.370
42608W        W14191  15.804  10.155   0.371
42609W        W14192  22.426   1.422  13.859
42610W        W14193  42.315   9.262  10.987
42611W        W14194  40.735  10.503   3.420
42612W        W14195  44.520   0.485   1.727
42613W        W14196  36.789  11.593   3.335
42614W        W14197  39.491   8.813   1.207
42615W        W14198  16.224  36.737  13.186
42616W        W14199   1.129  22.515   0.398
42617W        W14200  31.139  21.058  11.550
42618W        W14201  10.395  36.290  10.152
42619W        W14202   3.460  29.537  13.398
42620W        W14203  12.857   9.129  11.841
42621W        W14204  35.397   1.266  10.682
42622W        W14205  14.564  23.807   3.268
42623W        W14206  39.208   5.773   0.322
42624W        W14207  15.161   1.012  13.232
42625W        W14208  41.837  11.682  10.600
42626W        W14209  12.766  18.483  14.317
42627W        W14210  37.012   5.455   1.841
42628W        W14211  40.408   4.776  12.092
42629W        W14212  34.037  41.985  13.510
42630W        W14213  44.140  44.482  14.539
42631W        W14214  11.847  24.581  11.028
42632W        W14215  10.284  14.248   1.163
42633W        W14216  24.018  29.168   4.244
42634W        W14217  29.949  24.239   2.371
42635W        W14218  16.580  43.376  14.760
42636W        W14219  38.340  40.902  14.345
42637W        W14220  18.403   8.816   3.073
42638W        W14221  13.745  44.055   0.916
42639W        W14222  11.947  40.508   5.041
42640W        W14223  10.750   5.808   3.594
42641W        W14224  11.407  40.306   2.827
42642W        W14225   0.019   1.695   1.598
42643W        W14226  38.933   8.194  13.900
42644W        W14227  26.721  39.746   0.430
42645W        W14228  31.439  37.275  11.538
42646W        W14229  18.506  15.559  11.362
42647W        W14230  38.031   4.655   2.296
42648W        W14231  35.073  23.893   1.564
42649W        W14232  12.130  18.051  12.124
42650W        W14233   0.899  38.861   2.852
42651W        W14234   9.376  35.359  11.170
42652W        W14235  25.094  32.628   1.272
42653W        W14236  33.594  11.114   0.866
42654W        W14237  42.537  30.374  11.559
42655W        W14238  42.008  10.822  10.473
42656W        W14239  29.102   0.980   1.782
42657W        W14240  16.717  24.261   2.378
42658W        W14241   4.268  30.943   0.912
42659W        W14242   0.484  33.241   2.724
42660W        W14243  36.089  24.024   3.341
42661W        W14244  26.370  33.362  11.883
42662W        W14245  40.733  25.593   1.368
42663W        W14246  19.852  15.596  12.548
42664W        W14247   3.566   4.302  13.201
42665W        W14248   0.009   0.978  12.725
42666W        W14249   6.002  39.380  14.684
42667W        W14250   6.623  10.774  12.235
42668W        W14251   9.184  26.698   4.477
42669W        W14252   8.762   7.315  14.883
42670W        W14253   7.317  22.851  10.795
42671W        W14254  37.471  36.537  10.551
42672W        W14255  31.489  40.293   2.800
42673W        W14256  27.299  13.001  13.720
42674W        W14257   2.128  40.571   1.015
42675W        W14258  27.588   7.915   4.766
42676W        W14259   4.246  32.628  12.089
42677W        W14260  39.824  22.026  13.921
42678W        W14261  21.708  38.589   4.907
42679W        W14262  37.524   1.707  11.176
42680W        W14263  32.185  42.289   3.311
42681W        W14264  18.075  35.935   0.756
42682W        W14265   1.804   6.711   0.877
42683W        W14266  10.704   8.908   1.728
42684W        W14267   5.147  34.371  12.575
42685W        W14268  43.196   2.877   3.382
42686W        W14269  44.851  17.225  10.610
42687W        W14270  12.249  33.134  12.512
42688W        W14271  17.106   1.418  11.618
42689W        W14272  40.740  40.445   4.546
42690W        W14273  44.938  41.071   4.650
42691W        W14274  10.638  44.784  10.313
42692W        W14275  35.544  25.436   4.699
42693W        W14276  30.556  20.145   1.701
42694W        W14277  15.149  15.842  14.766
42695W        W14278  34.647  38.390   1.879
42696W        W14279  35.961  11.501   0.063
42697W        W14280  30.399   9.488   4.544
42698W        W14281   5.087  42.711   4.135
42699W        W14282  29.990  15.556   1.698
42700W        W14283  43.237  17.153  11.627
42701W        W14284  44.330   2.741  11.918
42702W        W14285  18.814  22.349  10.982
42703W        W14286  27.156  31.739  10.175
42704W        W14287  31.854  35.647   1.194
42705W        W14288  38.618   2.348  14.435
42706W        W14289  37.855  44.880   0.161
42707W        W14290  11.128   9.629   2.271
42708W        W14291  21.771  13.341  12.853
42709W        W14292  41.567  34.401   2.198
42710W        W14293   0.126  23.059  13.172
42711W        W14294   1.250  21.075   2.808
42712W        W14295  11.799  16.372   1.591
42713W        W14296  29.054  40.259   4.240
42714W        W14297  36.848  42.515   3.353
42715W        W14298   3.315   3.120   2.914
42716W        W14299  16.128  18.895  11.428
42717W        W14300   2.414   8.834   2.608
42718W        W14301  41.698  31.129   1.787
42719W        W14302  13.708   3.136  12.100
42720W        W14303   7.175  12.287   3.650
42721W        W14304  10.646  27.555   1.610
42722W        W14305  41.599  12.700   2.510
42723W        W14306  20.701  23.739   2.233
42724W        W14307   6.345  35.333   1.796
42725W        W14308  19.899  28.603  11.269
42726W        W14309  26.289   9.813  13.043
42727W        W14310   9.584  13.296   2.391
42728W        W14311  32.183  29.062  12.461
42729W        W14312  21.121  43.706   2.008
42730W        W14313  25.467  12.577   2.264
42731W        W14314  14.642  13.353  11.093
42732W        W14315  39.928   1.732   3.117
42733W        W14316  30.533  14.102   0.322
42734W        W14317  42.447  19.784  10.991
42735W        W14318   1.797  13.411  11.346
42736W        W14319   1.172  15.937  14.983
42737W        W14320  36.606   3.777  12.533
42738W        W14321  38.818  10.188   3.733
42739W        W14322  43.838  12.066   2.326
42740W        W14323   4.876  11.513  14.256
42741W        W14324  24.429  26.609  11.548
42742W        W14325  12.706  17.410  11.974
42743W        W14326  24.617  21.531  14.558
42744W        W14327  44.196  25.000   0.829
42745W        W14328  27.825  39.624   0.829
42746W        W14329  17.640  28.484   4.566
42747W        W14330  30.642   8.127  11.499
42748W        W14331  32.961  32.326   3.256
42749W        W14332  29.119  35.481  12.041
42750W        W14333  19.489  13.385  11.839
42751W        W14334  11.582  22.730  14.993
42752W        W14335  39.535   7.280  13.841
42753W        W14336  41.388  44.480   2.433
42754W        W14337  33.839  24.749   2.991
42755W        W14338  12.681   0.403   4.505
42756W        W14339  30.046  13.048   1.399
42757W        W14340  21.565   7.861   0.084
42758W        W14341  16.694  44.311   0.050
42759W        W14342   3.354  36.542   4.086
42760W        W14343   3.741  11.310   2.506
42761W        W14344   2.919  25.226  11.107
42762W        W14345  41.843  29.484  10.801
42763W        W14346  22.147  42.249   2.365
42764W        W14347   4.850   3.946   4.204
42765W        W14348  25.526  16.646   4.921
42766W        W14349  13.352   4.448   0.014
42767W        W14350  38.519  21.527  10.725
42768W        W14351  40.197  28.195   3.722
42769W        W14352  29.598  28.042   2.385
42770W        W14353   7.094  39.347   3.223
42771W        W14354  39.832  28.950  13.567
42772W        W14355  24.338  16.173   0.320
42773W        W14356  20.243   3.423  14.287
42774W        W14357  44.700  18.216  10.696
42775W        W14358  29.679  17.366   2.177
42776W        W14359  21.891  37.469  14.971
42777W        W14360  38.497  19.228   4.563
42778W        W14361  20.741  28.695   1.688
42779W        W14362  16.273  33.903   1.186
42780W        W14363   3.939  27.212   1.284
42781W        W14364   2.046  31.676   2.311
42782W        W14365  31.923  26.680  11.425
42783W        W14366  33.053   0.447   4.173
42784W        W14367   5.224  34.539   2.189
42785W        W14368   5.979  26.077  11.361
42786W        W14369  29.525  18.102  10.246
42787W        W14370  18.659  23.314  13.984
42788W        W14371  23.777   2.214  11.160
42789W        W14372  33.868  23.003   0.814
42790W        W14373   9.112  28.480   1.763
42791W        W14374   6.903  22.597  13.884
42792W        W14375  22.826  29.423   1.435
42793W        W14376  30.637  38.169   2.002
42794W        W14377  44.231  11.152  10.826
42795W        W14378  31.508   1.779   2.430
42796W        W14379   7.019  30.569  13.377
42797W        W14380  28.834   9.204  14.597
42798W        W14381  44.243   0.658   2.775
42799W        W14382  14.258   8.398  10.652
42800W        W14383  29.778  27.058   2.178
42801W        W14384  39.830  24.454   2.499
42802W        W14385  14.423   1.798   3.755
42803W        W14386  43.747   0.415  13.384
42804W        W14387   1.797  17.499   3.459
42805W        W14388  32.549  44.344  11.279
42806W        W14389  33.555  25.493  13.931
42807W        W14390  27.264  17.170   1.243
42808W        W14391  15.650  38.606  13.336
42809W        W14392  15.597  13.695   0.790
42810W        W14393  36.832  19.936   3.150
42811W        W14394  32.547   7.186  12.358
42812W        W14395  42.325  42.088  12.133
42813W        W14396  36.807   1.668   4.178
42814W        W14397  13.587  14.712  14.825
42815W        W14398  16.791  23.742   2.384
42816W        W14399   2.776  26.132  14.799
42817W        W14400   8.851  44.900   5.009
42818W        W14401   2.412  27.024  12.822
42819W        W14402   5.926   0.952   4.897
42820W        W14403  16.818  25.990  12.915
42821W        W14404  16.599  38.089  10.015
42822W        W14405   0.695  38.559   4.157
42823W        W14406  32.108  21.990  14.388
42824W        W14407  19.938  23.674   4.949
42825W        W14408  43.524  42.084   1.781
42826W        W14409   7.162  28.609   2.145
42827W        W14410  30.002  31.477  14.526
42828W        W14411  27.150  11.286   4.082
42829W        W14412   1.778  13.583  14.954
42830W        W14413  17.147   5.739  13.405
42831W        W14414  28.068   4.190   0.453
42832W        W14415  24.155   3.014   2.695
42833W        W14416  40.009  35.888   3.273
42834W        W14417  15.773  13.608  11.727
42835W        W14418  23.131  33.050   1.778
42836W        W14419  23.890   3.952   3.613
42837W        W14420  27.683  33.913  13.708
42838W        W14421   8.623  28.295   4.218
42839W        W14422  34.006  27.967   2.921
42840W        W14423  36.649  17.276   2.720
42841W        W14424  33.943  32.946   1.660
42842W        W14425  44.336  38.216   1.030
42843W        W14426  22.735   8.174   4.550
42844W        W14427  17.577  26.917  12.104
42845W        W14428   7.721  19.662   4.041
42846W        W14429  43.482   8.915   0.727
42847W        W14430  32.622   2.872  14.805
42848W        W14431   7.483  28.209   2.700
42849W        W14432  33.493  36.016  14.920
42850W        W14433  40.385  10.769   2.693
42851W        W14434   7.181  16.133  13.499
42852W        W14435  13.426  35.707  10.318
42853W        W14436  17.303   6.216   3.862
42854W        W14437  14.439  19.992   3.664
42855W        W14438   0.313  19.003  14.475
42856W        W14439  39.333  25.444   0.514
42857W        W14440  36.923  25.759  11.584
42858W        W14441   1.932  13.354  13.485
42859W        W14442  11.358  10.698  11.420
42860W        W14443  22.441  14.557  11.935
42861W        W14444  35.347  30.096   1.085
42862W        W14445  11.396   9.802  11.169
42863W        W14446  24.256  22.632   3.054
42864W        W14447  34.363  31.962   1.373
42865W        W14448   8.023  13.250   1.916
42866W        W14449  10.627  14.677   2.299
42867W        W14450  39.481   3.491   0.686
42868W        W14451  36.482  16.640  11.516
42869W        W14452   0.037  41.472  12.700
42870W        W14453   7.605   5.975  11.556
42871W        W14454  28.895  22.516   0.435
42872W        W14455   3.420  13.624  11.004
42873W        W14456  44.266   4.310   1.691
42874W        W14457  19.192   2.351  13.511
42875W        W14458  28.063  24.552   1.238
42876W        W14459  31.976  29.030   4.623
42877W        W14460  17.691  23.576  10.769
42878W        W14461  12.747  10.812  14.454
42879W        W14462   2.319  15.745   4.724
42880W        W14463  27.477  12.082  10.701
42881W        W14464   8.403  22.032   1.393
42882W        W14465  10.826   9.766   4.585
42883W        W14466  15.119  38.862  10.370
42884W        W14467  20.225  33.873  11.728
42885W        W14468  42.568   6.704  11.020
42886W        W14469  20.037   1.355   1.245
42887W        W14470  10.879  16.680  11.105
42888W        W14471  29.326  11.204   3.296
42889W        W14472  11.356  16.320   2.348
42890W        W14473  28.953   4.336   3.743
42891W        W14474  27.521  38.143   0.866
42892W        W14475  32.365   5.498  12.082
42893W        W14476   4.524  36.104   2.550
42894W        W14477   4.821  23.242   0.154
42895W        W14478  23.399  15.145  11.170
42896W        W14479  28.486   8.358   4.196
42897W        W14480   6.309   1.715   3.693
42898W        W14481  21.111  44.389   0.765
42899W        W14482  44.053   9.933  11.979
42900W        W14483   0.452  35.007  13.012
42901W        W14484   0.509  21.489   2.346
42902W        W14485  25.973   9.625  13.412
42903W        W14486  35.072  37.051   3.009
42904W        W14487  17.178   8.383   4.520
42905W        W14488  37.402  41.845  11.212
42906W        W14489   4.155  32.442   3.768
42907W        W14490  22.760  29.448   4.620
42908W        W14491  37.563  19.213  10.730
42909W        W14492  25.674  30.187  11.039
42910W        W14493  44.149  28.450  12.595
42911W        W14494  14.810  27.545  12.138
42912W        W14495  13.043   7.837   1.917
42913W        W14496  32.603  26.709   1.166
42914W        W14497  12.660  32.866   1.285
42915W        W14498  28.467  34.019   0.353
42916W        W14499  22.404   9.898   2.814
42917W        W14500  12.375  15.673  11.979
42918W        W14501  36.084   0.345  14.356
42919W        W14502  23.629  20.671  13.814
42920W        W14503  26.524  42.988   3.930
42921W        W14504  35.595  26.284   3.263
42922W        W14505  27.834  43.996   4.255
42923W        W14506  28.936  20.090   3.077
42924W        W14507  26.215  25.962  13.720
42925W        W14508  28.043  18.238   4.575
42926W        W14509  34.771  20.449  14.258
42927W        W14510  11.799   1.989   4.180
42928W        W14511   8.873  26.976  14.438
42929W        W14512  35.633  17.855   1.153
42930W        W14513  21.806  34.696  11.009
42931W        W14514  19.527   3.352  11.584
42932W        W14515  41.548   1.857   2.492
42933W        W14516  17.683  10.791  12.034
42934W        W14517  12.184  32.407  11.367
42935W        W14518  38.298  20.621   1.734
42936W        W14519   7.846  35.411   3.225
42937W        W14520   4.510  38.819   5.111
42938W        W14521  20.027  33.535   0.300
42939W        W14522  35.515  25.829  13.291
42940W        W14523  17.590  34.886  13.394
42941W        W14524  31.177   9.806  12.054
42942W        W14525  26.126  15.644   0.983
42943W        W14526  12.955  25.104   4.119
42944W        W14527  19.328  24.065   4.588
42945W        W14528  43.238   1.143   2.725
42946W        W14529   9.897  33.866   0.917
42947W        W14530  20.598   7.546  10.550
42948W        W14531  25.441   2.285  14.348
42949W        W14532  13.782  32.581   4.515
42950W        W14533  20.659   6.766  14.872
42951W        W14534  21.025  43.347  13.420
42952W        W14535  20.571  17.091  12.877
42953W        W14536  30.462  21.049   4.632
42954W        W14537   6.413  31.918  10.974
42955W        W14538  21.473  20.141  14.958
42956W        W14539  15.711   2.822  13.374
42957W        W14540   8.303  31.992  11.123
42958W        W14541   7.644  25.640   3.704
42959W        W14542  41.052  27.851  12.102
42960W        W14543  36.508  12.877   0.370
42961W        W14544  19.149  31.631  14.800
42962W        W14545  20.245  35.088  14.280
42963W        W14546  11.410  32.434   2.688
42964W        W14547  18.043   4.271   3.309
42965W        W14548  29.400  39.031   1.436
42966W        W14549  17.215  23.932  11.064
42967W        W14550   0.756   9.111   1.376
42968W        W14551  14.569  28.633  13.480
42969W        W14552  32.520  41.058   2.970
42970W        W14553  40.617  44.637   0.228
42971W        W14554  30.420  29.048   4.668
42972W        W14555   4.273  18.067   4.363
42973W        W14556  33.449   3.828   4.104
42974W        W14557  23.546  31.160   2.824
42975W        W14558   7.450  21.103   0.495
42976W        W14559   8.844  28.156   3.769
42977W        W14560  14.410  18.765   0.872
42978W        W14561  33.294  42.475  13.141
42979W        W14562  27.155  32.334  12.526
42980W        W14563  19.620   2.297  13.815
42981W        W14564   5.333  32.370  13.063
42982W        W14565  34.504  41.521   4.665
42983W        W14566  37.552  21.116   0.860
42984W        W14567   5.866  23.599   4.128
42985W        W14568   2.819   6.993  14.709
42986W        W14569  15.771  22.325   3.254
42987W        W14570  23.141  33.251   1.300
42988W        W14571  37.132   5.456  11.938
42989W        W14572   7.676  33.060   1.475
42990W        W14573  12.911  42.850  11.560
42991W        W14574  42.496   8.791   4.117
42992W        W14575  31.885  42.243  14.276
42993W        W14576  36.840  31.969   4.588
42994W        W14577   9.442  20.475  10.722
42995W        W14578   5.209   9.507   3.472
42996W        W14579  36.871  18.528   0.001
42997W        W14580   8.333  31.353  12.926
42998W        W14581  27.603   9.631   4.602
42999W        W14582   6.558   3.854   1.485
43000W        W14583   8.319  25.638  11.130
43001W        W14584  23.630  33.189   1.851
43002W        W14585   9.852   7.446   4.162
43003W        W14586  18.259   6.850  13.112
43004W        W14587  29.216   7.478   3.860
43005W        W14588  30.214  37.944   3.534
43006W        W14589  42.759  44.532   0.276
43007W        W14590   4.739  40.336   2.814
43008W        W14591  42.570  22.573   4.195
43009W        W14592  14.370  33.402  14.181
43010W        W14593  11.731   0.715  11.146
43011W        W14594  12.166  38.975   3.238
43012W        W14595  21.393  26.560   5.148
43013W        W14596  23.788   5.683  11.034
43014W        W14597  36.358   7.401  14.268
43015W        W14598  38.855  23.012   0.948
43016W        W14599   8.814  18.524  12.193
43017W        W14600  21.817  27.124  14.081
43018W        W14601  34.957  44.904  11.636
43019W        W14602  34.408  14.035  12.574
43020W        W14603  27.126  27.835   2.344
43021W        W14604  23.978  41.709  11.198
43022W        W14605  24.788  14.639   4.479
43023W        W14606  15.264   1.197  11.925
43024W        W14607   8.481  21.289  14.247
43025W        W14608  44.881  20.767  12.010
43026W        W14609  41.483  37.411   3.663
43027W        W14610  30.582  11.077  11.149
43028W        W14611   8.317   1.792   0.832
43029W        W14612   6.444  42.382   4.399
43030W        W14613  33.105   4.239   0.073
43031W        W14614  17.394   8.933   4.107
43032W        W14615   3.991   9.760   4.579
43033W        W14616  12.693  36.898  13.995
43034W        W14617  39.773  10.197  10.631
43035W        W14618   7.026  44.509   3.793
43036W        W14619  23.491  44.319  14.849
43037W        W14620  38.091  25.015   3.515
43038W        W14621  20.091  10.708  13.874
43039W        W14622  23.710  14.298  12.409
43040W        W14623  19.262   3.712  11.099
43041W        W14624  28.765  34.435  10.123
43042W        W14625  24.164   4.990  11.988
43043W        W14626  24.246  38.319   4.230
43044W        W14627   0.434  14.837  14.386
43045W        W14628   2.791  17.739   0.807
43046W        W14629  29.613  22.968  12.930
43047W        W14630   4.428   9.599   2.954
43048W        W14631  33.610   1.925   0.459
43049W        W14632  37.401  26.041  11.638
43050W        W14633  39.318   6.165  10.132
43051W        W14634  40.928   1.845  10.439
43052W        W14635   5.928   3.700   2.918
43053W        W14636   5.622  29.996   3.072
43054W        W14637  38.853   4.779  11.192
43055W        W14638   8.899   6.920  13.572
43056W        W14639  31.581   6.260  11.102
43057W        W14640  32.083  16.353  10.524
43058W        W14641  20.480  21.976   0.008
43059W        W14642  16.719  19.062  12.380
43060W        W14643  30.142  36.908  13.464
43061W        W14644  21.061  10.682  10.925
43062W        W14645   6.531  37.068   1.109
43063W        W14646   4.215  25.686   4.823
43064W        W14647   2.471  38.592   9.917
43065W        W14648  30.555  15.297  10.531
43066W        W14649  35.831   6.798   2.594
43067W        W14650  14.666   2.437  14.725
43068W        W14651  37.789  38.312  11.395
43069W        W14652   2.195   1.786  13.356
43070W        W14653   2.031  22.776   3.772
43071W        W14654   0.916  31.913  14.417
43072W        W14655  17.359  31.640  12.911
43073W        W14656  10.303  43.469  12.648
43074W        W14657  21.153  37.512   5.328
43075W        W14658  24.105  31.927  14.581
43076W        W14659  41.065  22.183  11.756
43077W        W14660  37.692  36.436  11.511
43078W        W14661  28.492   2.808  14.522
43079W        W14662   4.774  43.307   4.665
43080W        W14663  10.298  29.228  11.190
43081W        W14664  27.516  37.939   2.771
43082W        W14665  18.597   7.567  12.926
43083W        W14666  28.084  43.040  11.244
43084W        W14667  24.657  23.228   1.856
43085W        W14668  24.904  22.531  12.005
43086W        W14669  37.111  34.956  12.750
43087W        W14670  15.648  29.620   0.307
43088W        W14671   5.617  31.023   0.145
43089W        W14672   4.227  30.663   4.587
43090W        W14673   5.318  30.505  10.688
43091W        W14674  28.910  15.050  14.958
43092W        W14675  13.780   4.315   1.329
43093W        W14676  44.861  37.911  11.570
43094W        W14677  40.851  38.689   1.257
43095W        W14678  18.222  37.347   4.876
43096W        W14679  17.832  44.363   4.962
43097W        W14680  31.453  28.894   0.894
43098W        W14681  29.205  17.462  14.885
43099W        W14682  42.589  36.008  13.860
43100W        W14683  31.779  44.987   0.638
43101W        W14684  44.502  30.220  11.613
43102W        W14685  14.217  15.741   3.308
43103W        W14686  15.419   5.152   3.725
43104W        W14687   4.512  44.351  12.843
43105W        W14688  11.147  21.272  13.059
43106W        W14689  28.939  35.119   1.380
43107W        W14690  20.347  14.649  14.007
43108W        W14691  19.568  25.029   4.269
43109W        W14692  41.907  18.154   3.687
43110W        W14693   7.389  11.621  14.431
43111W        W14694  34.034   7.690  13.900
43112W        W14695  28.455  44.381   3.399
43113W        W14696  33.671  38.557   2.290
43114W        W14697  18.737  23.180   3.744
43115W        W14698   6.892   8.623   1.876
43116W        W14699  44.989  36.443   3.023
43117W        W14700  10.464   1.410  11.615
43118W        W14701  32.333  33.693   4.665
43119W        W14702   2.015  30.632  13.687
43120W        W14703  39.314  42.828  11.159
43121W        W14704  19.652  30.054   3.795
43122W        W14705  42.264   4.900  14.867
43123W        W14706  42.992  30.738  14.407
43124W        W14707  41.789   5.480   1.804
43125W        W14708  37.001  11.125  14.817
43126W        W14709  43.190  30.972   4.182
43127W        W14710  32.195   3.899   0.995
43128W        W14711   4.847  37.322  13.502
43129W        W14712   3.443  39.042   0.414
43130W        W14713  25.534   2.238   0.460
43131W        W14714   7.120   3.302  10.091
43132W        W14715  32.007  21.571   3.672
43133W        W14716   7.837  23.456  13.173
43134W        W14717   8.897   1.401   1.975
43135W        W14718  34.977  27.946  10.853
43136W        W14719  44.796  25.484   4.123
43137W        W14720   1.854   1.413  13.528
43138W        W14721  17.570   7.329  11.687
43139W        W14722  32.049  10.518   4.654
43140W        W14723  40.003  24.223  11.572
43141W        W14724  34.122  36.370  14.964
43142W        W14725  26.160   7.915  14.981
43143W        W14726   5.759  42.919   1.910
43144W        W14727  34.098   0.185  11.297
43145W        W14728  33.372  17.308   9.928
43146W        W14729   9.356  12.261   3.339
43147W        W14730   7.679   1.337  11.106
43148W        W14731  30.058   8.839   2.862
43149W        W14732  39.773   8.096  11.013
43150W        W14733  31.927  25.573   3.714
43151W        W14734  13.718  38.814  13.367
43152W        W14735  28.430  11.009   5.388
43153W        W14736  19.809   3.967  14.917
43154W        W14737  23.092  25.480  12.939
43155W        W14738  25.951  39.138  13.440
43156W        W14739  13.516  21.568  10.674
43157W        W14740  18.751   5.573  11.165
43158W        W14741  13.667  36.178   3.668
43159W        W14742  34.237  16.373   0.539
43160W        W14743  31.105  31.508   1.634
43161W        W14744   7.855   5.675  11.193
43162W        W14745  17.561  16.676   0.583
43163W        W14746   8.683  20.302  14.905
43164W        W14747   1.292  20.511   2.256
43165W        W14748  35.595  32.405  12.777
43166W        W14749  39.027  19.733   1.192
43167W        W14750   8.354   3.916   0.784
43168W        W14751  28.299  10.619  14.482
43169W        W14752  22.737  21.011   2.856
43170W        W14753  15.338  34.943  10.779
43171W        W14754  24.023   8.801   9.879
43172W        W14755  24.462   8.733   1.393
43173W        W14756   6.937  33.674  14.592
43174W        W14757  37.366  15.251   1.489
43175W        W14758  37.604   6.041  11.159
43176W        W14759  19.006  35.415   3.884
43177W        W14760   7.620  38.959   4.400
43178W        W14761  20.518  16.811   4.223
43179W        W14762  16.182   2.907   4.407
43180W        W14763  17.863  18.309  12.494
43181W        W14764  31.984  10.888  14.733
43182W        W14765  33.558   6.411   1.826
43183W        W14766   3.382  13.144   0.167
43184W        W14767   5.743   0.961   2.356
43185W        W14768   9.603  38.917   3.245
43186W        W14769  11.290  25.288   1.821
43187W        W14770  22.115  33.113   1.650
43188W        W14771  38.290   2.509  14.981
43189W        W14772  21.097  17.184   1.946
43190W        W14773  41.316  34.446   4.174
43191W        W14774   7.675  37.135   0.911
43192W        W14775  21.792  29.013   0.875
43193W        W14776   3.751   8.153  12.581
43194W        W14777  20.306  15.291   4.609
43195W        W14778  12.309  29.674   1.696
43196W        W14779  27.396  42.451   3.135
43197W        W14780   9.698   0.527   4.079
43198W        W14781  12.717  40.770   3.405
43199W        W14782   6.242  42.468   0.928
43200W        W14783  20.750  14.331   1.661
43201W        W14784  33.709   7.229   3.860
43202W        W14785  40.452  11.621  13.987
43203W        W14786  34.483  35.309  14.301
43204W        W14787  13.435  25.222   5.066
43205W        W14788   7.616  15.276   4.534
43206W        W14789  23.503  35.444  14.955
43207W        W14790  36.701  40.356  13.098
43208W        W14791  18.961  12.339  12.568
43209W        W14792  38.236  12.040   1.390
43210W        W14793  26.252   6.300  13.422
43211W        W14794  41.957  19.508  12.952
43212W        W14795  22.766  17.898  14.883
43213W        W14796   2.458  26.054   5.085
43214W        W14797   3.883  11.635  12.990
43215W        W14798  10.374   7.632  11.926
43216W        W14799  41.790  10.709   0.926
43217W        W14800  28.919  16.812  10.485
43218W        W14801  17.159  15.582  10.226
43219W        W14802  10.118  11.390   4.614
43220W        W14803  28.195  14.938  13.072
43221W        W14804  27.032  39.318   0.500
43222W        W14805  14.508   3.481  13.835
43223W        W14806  15.874  38.434   0.422
43224W        W14807  36.599  32.493  11.721
43225W        W14808  24.240   7.592   4.526
43226W        W14809  20.070  41.769  14.385
43227W        W14810  41.786  21.318   0.581
43228W        W14811  25.117  26.686   0.232
43229W        W14812  42.504  33.602   3.625
43230W        W14813   5.918  31.425   2.151
43231W        W14814   9.888  28.918   3.362
43232W        W14815  12.274  16.216   1.850
43233W        W14816  21.288  43.102   3.212
43234W        W14817  24.389   8.187   4.304
43235W        W14818   8.715   2.466  12.531
43236W        W14819  22.509  23.088   4.931
43237W        W14820  43.159  33.581   4.663
43238W        W14821  39.789  16.389   1.237
43239W        W14822  25.119  33.169  11.126
43240W        W14823  16.134  19.252  13.818
43241W        W14824  43.080  43.436  14.439
43242W        W14825  27.358  40.565   4.255
43243W        W14826  30.403  19.781  12.616
43244W        W14827  34.953  15.774  14.952
43245W        W14828  34.631  41.232  14.379
43246W        W14829   9.133   1.915   0.290
43247W        W14830  23.618  17.026  10.644
43248W        W14831  39.561  36.289   1.702
43249W        W14832  20.850  41.418   4.141
43250W        W14833  32.938  37.625  10.679
43251W        W14834  31.554  40.644   1.678
43252W        W14835  16.702  10.946   3.312
43253W        W14836  34.519  32.387  14.497
43254W        W14837  12.735  37.380   3.698
43255W        W14838  37.915  23.647   2.418
43256W        W14839   6.748  15.697  10.488
43257W        W14840  22.460  14.705   1.130
43258W        W14841  39.125  43.429   4.052
43259W        W14842  19.644  23.687   0.384
43260W        W14843  27.080  38.511  13.754
43261W        W14844   4.715  31.677  10.730
43262W        W14845  12.672   9.580   3.142
43263W        W14846  33.870  32.131   4.051
43264W        W14847  14.073  22.637  10.632
43265W        W14848   2.614   3.861  14.615
43266W        W14849  42.462  25.659  12.489
43267W        W14850  13.626  22.413  11.132
43268W        W14851   1.366  27.281   0.881
43269W        W14852  11.147  31.037   3.667
43270W        W14853  30.909  29.180  10.444
43271W        W14854  42.502  13.781  12.037
43272W        W14855  20.550  25.939   2.624
43273W        W14856   1.918  38.271  14.186
43274W        W14857   5.411  29.029   1.339
43275W        W14858  35.323  20.940  14.038
43276W        W14859  39.464  14.403  12.123
43277W        W14860  31.057   3.316  14.295
43278W        W14861  11.254  33.890  11.092
43279W        W14862  38.564  43.821   3.705
43280W        W14863  18.696  39.001  12.979
43281W        W14864   7.228  40.420   2.357
43282W        W14865  31.271  40.355   1.300
43283W        W14866  26.611  33.022   2.199
43284W        W14867  40.692  21.242  11.641
43285W        W14868  20.547  31.855   5.175
43286W        W14869  16.836  32.419  11.054
43287W        W14870  38.586  11.685  12.964
43288W        W14871   4.396   8.884  14.234
43289W        W14872  24.160  44.025  12.506
43290W        W14873  15.475  18.362   3.204
43291W        W14874  43.776  32.746   0.363
43292W        W14875  40.793  12.263   4.798
43293W        W14876  26.138  29.714  11.603
43294W        W14877  31.660  40.427   3.305
43295W        W14878  25.612   1.798   4.713
43296W        W14879  24.720  27.437  10.674
43297W        W14880  11.507  26.197  11.196
43298W        W14881  20.080   7.347   3.750
43299W        W14882  17.162   1.627   4.586
43300W        W14883  28.990   7.347  13.849
43301W        W14884  27.711  44.484  10.618
43302W        W14885  30.141  35.398   1.840
43303W        W14886  13.335  40.949   0.031
43304W        W14887  35.149   0.455  13.433
43305W        W14888  44.984  44.291  13.790
43306W        W14889  19.686  23.023  10.749
43307W        W14890  31.903   9.889   4.142
43308W        W14891  32.605  21.086   1.244
43309W        W14892  23.906  17.296  13.328
43310W        W14893  26.577  14.687   1.860
43311W        W14894  29.695  13.124   3.863
43312W        W14895  30.001  30.464   2.032
43313W        W14896  19.076  36.087   4.161
43314W        W14897  21.316  42.901  13.412
43315W        W14898  29.695  18.095  12.525
43316W        W14899  13.431  32.137  13.898
43317W        W14900  36.114  40.582  14.434
43318W        W14901  33.345  11.174  12.574
43319W        W14902  33.824  33.059   4.148
43320W        W14903  33.669  42.275   0.259
43321W        W14904  39.961   2.242  10.732
43322W        W14905   1.325  34.365  10.747
43323W        W14906  41.990  33.923   0.629
43324W        W14907   1.918  32.944  11.974
43325W        W14908  15.332  38.968  11.463
43326W        W14909  32.431  30.826  12.007
43327W        W14910  23.579  26.180  11.139
43328W        W14911  35.049  42.760  11.223
43329W        W14912   1.322  13.283  10.649
43330W        W14913  11.829  16.108  12.492
43331W        W14914  20.614   0.025   2.340
43332W        W14915  25.562   4.281  11.849
43333W        W14916   9.669  41.392  11.923
43334W        W14917  16.861  13.816   1.331
43335W        W14918   1.319   5.134  10.758
43336W        W14919  33.537  26.754  12.051
43337W        W14920  17.549  35.740   0.205
43338W        W14921   7.221   0.364   1.054
43339W        W14922  37.004  15.015  13.627
43340W        W14923  28.139  23.524  14.422
43341W        W14924   8.204   8.963  14.311
43342W        W14925   8.259  14.635   3.766
43343W        W14926  17.219  26.419   0.819
43344W        W14927  27.606  41.533   4.145
43345W        W14928  26.083   2.710   2.420
43346W        W14929  14.581  18.336  14.454
43347W        W14930  25.873  30.680  11.497
43348W        W14931  39.597  33.566   0.014
43349W        W14932  19.958  14.259  13.941
43350W        W14933  34.665   2.657  11.876
43351W        W14934   4.810  28.244  11.539
43352W        W14935  11.232   2.575  13.452
43353W        W14936  24.390  37.823   4.135
43354W        W14937  34.470   4.233  11.524
43355W        W14938  35.075  18.764  13.372
43356W        W14939  29.881  28.705  13.605
43357W        W14940  22.496  40.352   3.217
43358W        W14941   9.905   2.390  14.822
43359W        W14942  21.994  29.425   2.744
43360W        W14943  15.051  40.876   1.402
43361W        W14944   6.428  23.503   0.199
43362W        W14945  44.861  18.048   4.334
43363W        W14946  32.095   9.588  11.444
43364W        W14947   4.607  12.345   4.135
43365W        W14948  25.501  18.648  13.919
43366W        W14949   8.758  27.519  13.559
43367W        W14950   5.384   9.717   4.345
43368W        W14951  36.115  14.803   3.729
43369W        W14952  28.079  28.685  14.480
43370W        W14953  37.472  34.594   1.354
43371W        W14954  40.466  44.421   1.436
43372W        W14955  30.270  20.812  13.354
43373W        W14956   4.415  32.815   4.001
43374W        W14957   9.257  33.223  12.100
43375W        W14958  19.039  38.788  10.752
43376W        W14959  19.717   1.927  12.019
43377W        W14960  10.839  10.579  12.231
43378W        W14961   9.060  18.283  13.786
43379W        W14962  35.408  21.702  11.260
43380W        W14963   7.648  37.767  12.326
43381W        W14964  16.834  23.334   1.940
43382W        W14965  17.596  23.627   0.486
43383W        W14966  27.537  40.085  14.339
43384W        W14967  16.063  10.290  13.172
43385W        W14968  27.612  24.238   1.234
43386W        W14969  21.268  29.357   3.720
43387W        W14970  42.141  26.469   4.158
43388W        W14971  39.619  28.657  13.936
43389W        W14972   0.783  17.090  12.087
43390W        W14973  27.557  34.457   2.895
43391W        W14974  38.281  40.541   3.986
43392W        W14975  24.766  14.107   0.443
43393W        W14976  37.249  31.407  12.113
43394W        W14977  41.525  24.835  12.088
43395W        W14978  17.649  34.568   1.857
43396W        W14979  19.131  20.712   3.323
43397W        W14980  41.514   7.281   0.863
43398W        W14981  36.179  29.485  11.246
43399W        W14982  42.485  24.611   0.378
43400W        W14983   5.729  16.858   0.534
43401W        W14984  30.864  15.169   0.786
43402W        W14985  40.606  17.662  12.876
43403W        W14986  15.836   7.359  11.014
43404W        W14987   2.116   2.724  14.310
43405W        W14988  11.598  42.401  13.818
43406W        W14989  12.871   8.178   2.934
43407W        W14990  36.717  12.292   2.289
43408W        W14991  19.051  30.763  10.332
43409W        W14992  11.216  18.204   4.561
43410W        W14993   4.685  31.466   2.723
43411W        W14994  40.529  16.003  11.625
43412W        W14995  44.216   4.793   3.829
43413W        W14996  24.923  13.578   0.358
43414W        W14997  36.881  20.202  13.395
43415W        W14998  40.672  31.189   0.360
43416W        W14999   6.626   7.418  13.830
43417W        W15000   1.073  11.606  13.431
43418W        W15001  21.169   5.319  14.928
43419W        W15002  30.644  14.716   4.075
43420W        W15003   8.107   6.640   1.764
43421W        W15004  10.516   3.141  13.842
43422W        W15005   9.434  15.838  10.659
43423W        W15006  19.902   4.193   4.151
43424W        W15007   1.693  36.827   9.831
43425W        W15008   4.215  40.917   1.676
43426W        W15009  11.107   7.314  12.442
43427W        W15010  20.713  37.051   4.629
43428W        W15011  41.154   8.291  14.697
43429W        W15012  21.661  22.474   0.517
43430W        W15013  40.041   4.323   3.230
43431W        W15014  19.203  32.917  13.514
43432W        W15015  24.160  12.994  13.701
43433W        W15016  40.799  34.135   1.629
43434W        W15017  39.921   4.295  13.785
43435W        W15018   0.070  33.768   1.873
43436W        W15019   7.438  33.955  10.539
43437W        W15020  35.524  37.450  14.382
43438W        W15021  12.086   8.641   3.874
43439W        W15022  40.438   2.920   1.408
43440W        W15023  29.401  28.683  13.364
43441W        W15024  12.005  43.753  11.949
43442W        W15025   3.125  30.888   3.633
43443W        W15026  29.683   0.918   0.446
43444W        W15027   0.847  18.284   5.122
43445W        W15028  10.249  38.007   1.335
43446W        W15029  40.260  44.573  12.916
43447W        W15030   1.449  23.292   3.199
43448W        W15031  31.873  36.957  13.550
43449W        W15032  32.787   5.455   2.642
43450W        W15033   1.818  31.081   0.791
43451W        W15034  25.240  12.119   2.412
43452W        W15035  42.048   8.216   2.755
43453W        W15036  33.975  23.126  13.406
43454W        W15037   9.135   2.901   3.098
43455W        W15038  43.536  14.360  14.864
43456W        W15039   4.675   8.229  12.256
43457W        W15040  11.341  40.343   2.307
43458W        W15041   8.724   0.368  14.368
43459W        W15042  28.838  29.382   3.638
43460W        W15043   0.539  35.948   4.582
43461W        W15044  41.706  20.198  11.958
43462W        W15045  16.336  21.462  14.509
43463W        W15046  42.620  32.967   2.313
43464W        W15047  19.183   8.562   2.713
43465W        W15048  20.417  28.894   0.351
43466W        W15049  32.834  16.143  13.831
43467W        W15050  36.032   3.196  11.993
43468W        W15051  35.970  13.583  14.805
43469W        W15052  29.596   3.016   1.240
43470W        W15053  17.109  31.412  12.505
43471W        W15054   7.296  39.821   1.490
43472W        W15055  41.364  18.343  14.085
43473W        W15056  43.437  41.334   0.477
43474W        W15057   2.771   0.963  12.541
43475W        W15058  41.382  33.139   0.349
43476W        W15059  18.345  35.509   1.898
43477W        W15060   3.973   8.683  13.489
43478W        W15061  40.993  28.364  12.166
43479W        W15062  44.901  28.761   2.355
43480W        W15063  34.531  44.553  12.406
43481W        W15064  25.603  33.598  10.729
43482W        W15065  24.061  28.400   2.905
43483W        W15066  34.389  32.168  12.616
43484W        W15067  26.275   6.354   3.480
43485W        W15068   3.663  35.525   4.346
43486W        W15069  31.520  32.856   3.679
43487W        W15070  44.899   8.614   1.227
43488W        W15071  43.362   1.817   0.066
43489W        W15072   9.923  39.326   3.179
43490W        W15073  15.613  37.121  13.538
43491W        W15074  30.962  41.333  10.149
43492W        W15075  25.144  22.869   2.516
43493W        W15076  39.227  21.643   2.937
43494W        W15077   6.694  17.636   3.866
43495W        W15078  12.196  30.968  10.851
43496W        W15079  30.105  42.467   0.727
43497W        W15080  11.701  44.209   0.448
43498W        W15081  21.759  32.136  13.604
43499W        W15082  37.780  32.423  13.489
43500W        W15083   7.774  19.714   0.324
43501W        W15084  14.769   4.862  10.365
43502W        W15085   3.664  39.356   2.313
43503W        W15086  29.862   9.797  10.511
43504W        W15087  26.966  13.498  11.158
43505W        W15088  42.968  34.443   2.761
43506W        W15089  26.591  15.917   0.888
43507W        W15090   8.186  22.274   0.081
43508W        W15091   6.291  38.877  13.067
43509W        W15092  10.835  19.193  11.516
43510W        W15093  23.375  27.701  13.036
43511W        W15094  22.236  17.594   4.182
43512W        W15095   6.458   3.775  11.486
43513W        W15096   4.908  15.689   1.479
43514W        W15097   8.917  42.460  13.234
43515W        W15098  11.276  17.020   2.644
43516W        W15099  22.738  25.080   2.485
43517W        W15100  33.117  14.111  13.759
43518W        W15101  19.714  14.377  13.016
43519W        W15102  40.802  17.166   2.182
43520W        W15103   6.546   9.769  14.377
43521W        W15104  41.248  25.015  13.295
43522W        W15105  35.610  34.823   2.344
43523W        W15106  24.153   4.832   2.070
43524W        W15107  21.668  22.328  14.366
43525W        W15108  38.868  13.348   1.132
43526W        W15109  26.047  12.843  14.003
43527W        W15110  31.422  30.837   1.719
43528W        W15111   2.208  11.690  11.198
43529W        W15112  15.062  32.480   0.884
43530W        W15113  27.831  33.851   5.243
43531W        W15114  39.090  44.449   3.140
43532W        W15115  18.686   4.130  12.448
43533W        W15116  42.296   4.989   4.396
43534W        W15117  34.930  18.257  11.677
43535W        W15118  27.721  11.139  12.821
43536W        W15119  35.874   5.293  14.507
43537W        W15120   6.147  39.833   4.633
43538W        W15121  42.249   8.400   1.712
43539W        W15122  16.237   9.698  12.456
43540W        W15123  27.611  39.299  13.942
43541W        W15124  17.071  12.326  14.304
43542W        W15125  28.051  17.682  10.541
43543W        W15126  40.378   3.420   4.117
43544W        W15127  41.581  24.252  13.911
43545W        W15128  23.062   1.364  14.940
43546W        W15129   8.417  20.256  14.366
43547W        W15130  19.604  13.098  14.831
43548W        W15131  13.298  19.999   1.127
43549W        W15132  44.419   6.160  12.276
43550W        W15133  33.399   2.520   3.321
43551W        W15134   0.318  32.222   1.738
43552W        W15135   2.498  21.535   3.191
43553W        W15136  39.417  20.527  10.572
43554W        W15137  31.069   8.369   0.918
43555W        W15138   5.418  20.789   4.242
43556W        W15139  13.674  16.079   0.962
43557W        W15140  33.597   5.143   0.815
43558W        W15141  13.817   2.649   3.734
43559W        W15142  23.733   8.289  11.616
43560W        W15143   5.194  26.798   2.654
43561W        W15144  44.014   6.300  13.947
43562W        W15145  15.292  24.029  14.818
43563W        W15146  26.888   5.686   1.874
43564W        W15147  40.857  11.058  12.552
43565W        W15148  13.372   9.669   4.537
43566W        W15149   2.417  34.297  11.181
43567W        W15150   6.134  42.513  13.257
43568W        W15151  37.426  37.320   0.680
43569W        W15152  35.705   5.971  14.092
43570W        W15153  22.983   6.891  13.982
43571W        W15154   3.931  23.250  13.940
43572W        W15155  27.035  36.029   0.065
43573W        W15156  29.787  40.844  13.794
43574W        W15157   1.867  36.646  10.666
43575W        W15158  18.276  29.914   4.731
43576W        W15159  33.864  25.639  12.518
43577W        W15160  14.110  32.879   1.267
43578W        W15161  22.780  19.716   1.465
43579W        W15162  37.539   7.485   3.669
43580W        W15163   9.067  20.151  14.059
43581W        W15164   9.287  29.276   2.939
43582W        W15165  30.386  11.122  12.967
43583W        W15166  11.158  27.592  11.011
43584W        W15167  14.676  44.321  14.463
43585W        W15168  32.034  32.982   4.393
43586W        W15169  35.387   5.397   3.613
43587W        W15170  43.008  15.454  10.792
43588W        W15171  33.926  12.405   0.787
43589W        W15172  20.266  40.070   3.562
43590W        W15173  35.018  15.711  11.130
43591W        W15174  28.323  15.514   4.227
43592W        W15175  10.562  27.530   2.132
43593W        W15176  32.002  39.423   4.150
43594W        W15177  39.344  10.621  14.011
43595W        W15178  38.268  19.264  14.177
43596W        W15179  29.618  12.713  10.292
43597W        W15180  32.166   2.506  13.597
43598W        W15181  16.626   6.293   2.722
43599W        W15182  33.405  21.261   4.067
43600W        W15183   9.835  18.346   0.479
43601W        W15184   0.293  21.562   4.382
43602W        W15185  42.249  18.334   0.487
43603W        W15186  11.880  17.154  13.867
43604W        W15187  35.882  11.502  11.559
43605W        W15188  40.019  30.136  14.418
43606W        W15189  20.178  20.564   3.488
43607W        W15190   3.043  22.463   2.280
43608W        W15191  12.307  10.122   1.796
43609W        W15192  13.234  21.436   3.471
43610W        W15193   4.413  20.172   1.458
43611W        W15194  30.114  10.295   3.388
43612W        W15195  17.771  12.144   0.033
43613W        W15196  34.549   9.330   0.287
43614W        W15197  42.117  20.928  11.391
43615W        W15198  28.887  40.332   2.288
43616W        W15199  31.473  38.848  12.402
43617W        W15200   6.472  27.012   4.723
43618W        W15201  31.378  41.352  14.293
43619W        W15202  40.335  19.068   1.692
43620W        W15203  37.800  14.064  11.242
43621W        W15204  13.363  41.938  11.517
43622W        W15205  43.688  27.538   0.326
43623W        W15206   1.017  41.849  12.165
43624W        W15207  40.257   8.924  10.528
43625W        W15208  43.060  24.390  14.836
43626W        W15209  38.439  30.635  14.803
43627W        W15210  24.469  36.339   0.876
43628W        W15211   4.499  13.472  11.922
43629W        W15212  20.259  44.228   1.794
43630W        W15213  35.379  37.404   2.334
43631W        W15214  11.927   4.252   4.716
43632W        W15215  41.981  25.045  10.586
43633W        W15216  16.577  14.091   0.554
43634W        W15217  33.152  10.234   4.156
43635W        W15218   2.344  14.301  11.222
43636W        W15219  27.631  15.153  13.361
43637W        W15220  23.568  37.257   1.014
43638W        W15221  35.431  14.053  11.592
43639W        W15222  31.587  18.070   4.587
43640W        W15223   1.971  29.683   2.659
43641W        W15224  28.836  12.729  14.560
43642W        W15225  19.272  29.175   0.855
43643W        W15226   5.766  41.556   2.119
43644W        W15227   2.963   3.326  13.785
43645W        W15228  34.065  15.186   2.211
43646W        W15229   6.336   0.860   4.114
43647W        W15230   9.327  22.074   4.020
43648W        W15231  35.032  21.047  12.136
43649W        W15232  26.013  28.700  14.242
43650W        W15233  36.342  18.285   2.840
43651W        W15234  40.203  23.346  11.197
43652W        W15235  44.396  39.278   0.478
43653W        W15236  28.067  28.124  12.592
43654W        W15237  37.362  13.865   0.987
43655W        W15238   3.711   9.264   1.602
43656W        W15239  30.997   7.595   1.303
43657W        W15240  19.671  34.044   4.648
43658W        W15241  39.293  16.673  10.545
43659W        W15242  13.845  32.506  12.567
43660W        W15243   4.623  34.082  14.889
43661W        W15244   3.547  38.472   4.222
43662W        W15245  10.134  24.622  13.372
43663W        W15246   9.790  16.762  11.068
43664W        W15247   1.021   2.369  14.753
43665W        W15248  33.982   5.182  13.885
43666W        W15249  20.831   3.971  13.675
43667W        W15250   9.962  37.133   4.557
43668W        W15251  29.957   6.265  11.912
43669W        W15252  33.797  22.169  10.035
43670W        W15253  35.415  35.082   4.174
43671W        W15254   8.634  34.014  14.290
43672W        W15255   6.991  12.182   2.765
43673W        W15256  38.133  12.647   3.685
43674W        W15257  19.489  17.006  10.777
43675W        W15258  22.682  17.283   4.603
43676W        W15259  17.994  23.242  12.162
43677W        W15260  17.336  21.701   2.870
43678W        W15261  38.956  27.759  11.481
43679W        W15262  19.045  28.048  11.176
43680W        W15263  12.423  37.003   4.530
43681W        W15264  38.786  39.982  13.947
43682W        W15265   9.933  39.561  14.955
43683W        W15266  40.509  35.062  14.955
43684W        W15267  14.137   2.813   1.912
43685W        W15268  19.895  37.084   0.148
43686W        W15269  36.982  16.620  14.400
43687W        W15270  16.612  35.555  12.943
43688W        W15271  44.768  15.587   3.863
43689W        W15272  14.340  42.766   3.567
43690W        W15273  25.925  35.894   1.865
43691W        W15274   8.378  43.932  10.517
43692W        W15275   2.936  30.081   4.596
43693W        W15276  25.390  10.682   3.790
43694W        W15277  29.195  16.634   3.257
43695W        W15278   8.022  18.338  11.540
43696W        W15279  25.462  29.558   1.794
43697W        W15280  32.715   8.279   2.752
43698W        W15281  33.639  33.170  11.184
43699W        W15282  29.222  30.063  14.414
43700W        W15283  28.255  34.933   0.969
43701W        W15284  22.910  40.021  11.137
43702W        W15285  27.450  38.577   4.115
43703W        W15286   8.753  21.556  11.107
43704W        W15287  36.795  24.653  14.995
43705W        W15288   9.029  28.537  13.552
43706W        W15289  27.438  35.322   1.228
43707W        W15290  44.576  37.759   4.217
43708W        W15291  27.188  12.308   2.194
43709W        W15292  10.564  39.363  14.084
43710W        W15293   2.213  35.844   2.094
43711W        W15294  22.556  37.834   4.589
43712W        W15295  18.240  23.328   9.987
43713W        W15296  13.655  14.025   4.279
43714W        W15297   0.676  12.687  13.816
43715W        W15298  34.890  34.568  12.903
43716W        W15299  30.035  14.335  13.939
43717W        W15300  37.380  19.775  10.700
43718W        W15301  13.286   7.655   1.456
43719W        W15302  35.863   2.942   2.828
43720W        W15303  34.516  43.532   0.204
43721W        W15304  29.273  44.005   0.722
43722W        W15305  11.285  15.834  11.363
43723W        W15306  26.018  23.314  11.961
43724W        W15307  34.371  12.465   2.734
43725W        W15308   8.516   6.852   2.361
43726W        W15309  44.473  16.735  12.222
43727W        W15310   3.268   3.298   4.895
43728W        W15311   3.008  11.709   2.359
43729W        W15312  28.728  36.243  11.504
43730W        W15313   7.481  16.142  14.955
43731W        W15314   5.287  16.763   2.880
43732W        W15315  42.348  14.817   3.839
43733W        W15316   2.334  37.362  10.619
43734W        W15317  33.525   8.920  10.720
43735W        W15318  38.440  16.372  13.548
43736W        W15319  44.721  17.014   3.201
43737W        W15320  10.281  27.453  10.513
43738W        W15321  33.659   0.297   4.454
43739W        W15322  21.599  29.138   1.849
43740W        W15323   7.677   1.914  11.745
43741W        W15324  10.164  43.957  10.828
43742W        W15325  15.140  14.803   2.771
43743W        W15326  34.856  13.325   2.298
43744W        W15327  10.606  42.145  11.536
43745W        W15328  16.587  22.711  14.364
43746W        W15329   2.446  42.904   0.282
43747W        W15330  19.881   8.551   4.081
43748W        W15331  36.541  12.741  14.010
43749W        W15332  42.714  40.693  14.912
43750W        W15333  18.938  35.541   0.421
43751W        W15334  18.873   9.286  10.036
43752W        W15335   2.675   7.422  10.553
43753W        W15336   2.164  24.740   4.201
43754W        W15337   0.588   3.536  12.843
43755W        W15338  12.686  37.612  14.413
43756W        W15339  11.231  20.747  13.053
43757W        W15340  28.989  24.934  13.749
43758W        W15341  13.418   5.881   1.767
43759W        W15342   8.792   4.537  12.546
43760W        W15343   1.894  26.958  12.444
43761W        W15344  38.273  39.638   3.307
43762W        W15345   0.630  39.508   3.296
43763W        W15346  39.455  35.721  13.094
43764W        W15347   0.560   6.584  11.565
43765W        W15348   5.149  34.898   1.215
43766W        W15349  35.989  28.094   0.356
43767W        W15350  12.181  17.515  11.997
43768W        W15351  25.046  33.575   4.162
43769W        W15352  21.100  23.977   3.645
43770W        W15353  31.678   7.096  13.954
43771W        W15354  28.459  37.755  12.937
43772W        W15355  16.856   0.237   3.602
43773W        W15356  29.962  34.743  14.757
43774W        W15357  23.184  38.033  13.625
43775W        W15358  21.833  12.389  13.515
43776W        W15359  17.695  11.266  13.849
43777W        W15360  25.049  37.610   1.861
43778W        W15361  40.660  38.135  12.925
43779W        W15362  12.184  41.851   1.467
43780W        W15363  16.014  26.189  13.343
43781W        W15364  31.661  11.149   1.437
43782W        W15365  10.740  37.389   2.690
43783W        W15366   3.432  44.438   4.689
43784W        W15367  34.432  21.029  13.741
43785W        W15368  37.238  20.848  14.617
43786W        W15369  25.458  26.512  13.456
43787W        W15370  22.655   8.532  12.491
43788W        W15371  16.996   4.367   1.361
43789W        W15372  21.236   7.718   1.612
43790W        W15373  43.226  15.076  11.094
43791W        W15374   4.602  11.219   0.316
43792W        W15375  40.462   0.968  13.801
43793W        W15376  30.152  43.352  13.582
43794W        W15377  28.069  14.335  12.091
43795W        W15378  13.350   6.181  14.769
43796W        W15379  13.751  19.391   3.748
43797W        W15380  28.317  16.025   4.319
43798W        W15381  33.971   5.848   2.300
43799W        W15382  24.630  44.025  12.061
43800W        W15383  22.476  26.104   2.625
43801W        W15384  14.811   8.155   3.806
43802W        W15385   1.886  12.314   3.570
43803W        W15386  42.997  10.125   3.624
43804W        W15387  17.825  11.763  14.298
43805W        W15388  19.437  23.554   2.745
43806W        W15389   1.709  22.255  11.609
43807W        W15390  10.867  15.297  12.953
43808W        W15391  38.120   6.602  11.601
43809W        W15392  37.972  18.038  13.497
43810W        W15393  12.335  36.488   1.718
43811W        W15394  41.497  33.452  11.615
43812W        W15395  21.739  39.457   3.908
43813W        W15396   6.139  39.137   0.466
43814W        W15397  33.215   1.060   3.555
43815W        W15398   0.063  25.944   4.117
43816W        W15399  28.135   2.953  11.526
43817W        W15400   3.112  20.658   0.314
43818W        W15401  26.967  27.997   0.332
43819W        W15402  33.712  27.168  10.316
43820W        W15403   3.380  32.656   0.923
43821W        W15404  27.925   3.657  12.068
43822W        W15405  34.977   1.142  12.345
43823W        W15406  41.715  16.751  10.335
43824W        W15407   0.876  42.539   1.761
43825W        W15408  31.117  16.627  13.824
43826W        W15409  33.812   9.372  13.641
43827W        W15410   7.423   3.898   1.847
43828W        W15411  22.771  38.962  10.761
43829W        W15412  38.615  26.578  10.398
43830W        W15413  27.033  24.978  12.164
43831W        W15414   1.412  20.725   4.073
43832W        W15415   1.230   3.967   1.908
43833W        W15416  27.020  10.068  11.545
43834W        W15417  10.773  16.389  13.534
43835W        W15418  15.911  28.079  14.958
43836W        W15419   9.030  26.407   3.010
43837W        W15420   8.587   8.905   4.153
43838W        W15421  32.140  20.723  13.515
43839W        W15422  43.540   6.486   4.759
43840W        W15423  37.358  29.593  12.959
43841W        W15424  31.382  23.786  13.859
43842W        W15425  40.930   6.634  13.068
43843W        W15426  12.413   5.772  14.510
43844W        W15427  10.864  39.985   0.810
43845W        W15428   7.905   7.715  10.503
43846W        W15429   8.516   0.789   4.135
43847W        W15430  31.244  10.336   0.891
43848W        W15431  16.542  29.092  11.081
43849W        W15432  21.822  26.709   1.244
43850W        W15433  34.427  43.231  11.861
43851W        W15434  19.331  37.490   5.106
43852W        W15435   7.648  10.312   1.080
43853W        W15436  35.415  17.255   3.227
43854W        W15437   7.643  26.559  13.430
43855W        W15438  36.015  26.531   0.472
43856W        W15439  27.039  28.581   1.714
43857W        W15440   2.956  41.833  13.757
43858W        W15441   8.584  26.388   3.246
43859W        W15442  43.908   4.301  11.520
43860W        W15443  29.749  25.505  11.461
43861W        W15444   5.140  24.187  10.815
43862W        W15445  34.245  34.086   3.804
43863W        W15446  11.254  35.695  10.921
43864W        W15447  29.435  40.003  14.602
43865W        W15448   0.738  19.793   2.325
43866W        W15449  15.627   2.446  12.148
43867W        W15450  13.826  29.628   1.595
43868W        W15451   6.269  35.762   0.967
43869W        W15452  35.111  21.993   3.404
43870W        W15453  43.740  30.051   4.595
43871W        W15454   1.569   4.013  11.264
43872W        W15455  40.339  37.024   0.838
43873W        W15456   2.441  34.315   2.961
43874W        W15457  24.796  35.029  13.938
43875W        W15458   8.180  33.326   4.242
43876W        W15459  43.564  16.824  11.308
43877W        W15460   8.239   5.905   2.745
43878W        W15461  16.521  34.466   2.214
43879W        W15462  11.710  44.473   0.929
43880W        W15463   8.357  36.966  11.412
43881W        W15464  31.716  41.906   4.155
43882W        W15465  29.875   0.704  12.348
43883W        W15466   6.395  19.148   1.697
43884W        W15467   3.260   2.768   0.789
43885W        W15468   4.457  38.525  11.139
43886W        W15469  34.144  40.977   4.579
43887W        W15470  40.080  40.099   1.591
43888W        W15471  17.076  22.524  12.794
43889W        W15472  27.278  41.510   1.686
43890W        W15473  43.830   4.045  12.003
43891W        W15474  26.259  23.732   3.613
43892W        W15475  37.856   8.819   5.146
43893W        W15476   0.343  39.873   3.570
43894W        W15477   7.060   1.936   1.184
43895W        W15478   4.407   5.102  11.406
43896W        W15479  44.802  34.446  13.417
43897W        W15480  12.215  11.114  13.281
43898W        W15481   7.719  19.087  13.617
43899W        W15482   3.686   7.694   4.962
43900W        W15483  15.166  16.844  11.938
43901W        W15484  34.891   5.530  11.652
43902W        W15485  31.908  30.617  11.617
43903W        W15486  19.702   7.620  14.784
43904W        W15487   9.476   6.641  12.072
43905W        W15488  35.379  29.680   0.772
43906W        W15489   9.034  30.138   3.282
43907W        W15490  34.984   7.499   3.875
43908W        W15491  19.716  15.301   3.396
43909W        W15492  37.971  40.896   2.985
43910W        W15493   2.903  12.726   0.063
43911W        W15494  15.079   1.688  11.945
43912W        W15495   6.189  44.673   2.358
43913W        W15496  12.454  33.423  11.520
43914W        W15497   1.531  44.486  12.835
43915W        W15498  23.657  24.289  11.063
43916W        W15499  18.330  34.855  13.889
43917W        W15500  43.997  41.119   1.265
43918W        W15501  13.797  33.298  11.966
43919W        W15502  24.950  17.686  10.879
43920W        W15503   1.249  29.714   4.263
43921W        W15504   1.792  19.962   4.194
43922W        W15505  16.880  41.300  13.496
43923W        W15506  44.392  41.437  11.556
43924W        W15507  43.010  28.118   2.752
43925W        W15508  20.327  32.131  13.517
43926W        W15509  26.971   6.366   2.763
43927W        W15510  13.288  43.009   0.195
43928W        W15511  20.142  23.975   3.684
43929W        W15512   7.583  10.633  14.573
43930W        W15513   4.209  19.271   0.915
43931W        W15514  23.615  14.101   4.312
43932W        W15515  27.521   3.513   0.929
43933W        W15516   4.483  30.261  10.817
43934W        W15517   0.427  23.741   4.694
43935W        W15518  15.277  36.849   2.050
43936W        W15519  33.521  27.954   1.739
43937W        W15520  16.292   5.958   5.018
43938W        W15521   2.319  30.676   1.883
43939W        W15522   7.363  26.462  13.903
43940W        W15523   1.312  41.800  12.590
43941W        W15524  35.320  19.664  12.500
43942W        W15525  31.847  35.426  12.175
43943W        W15526   6.210  41.551  10.204
43944W        W15527  24.090  26.998   4.337
43945W        W15528   6.348  34.139   3.341
43946W        W15529  19.553  30.379  11.167
43947W        W15530  30.277  30.918  13.335
43948W        W15531  26.106  20.962   0.294
43949W        W15532  32.919   6.724  14.166
43950W        W15533  33.690  40.295   4.318
43951W        W15534   6.959  26.107  13.739
43952W        W15535  30.185  10.453   4.358
43953W        W15536  42.032  37.416  14.861
43954W        W15537   4.144  25.176   5.021
43955W        W15538  38.038   2.476   0.431
43956W        W15539  17.321  22.463   1.682
43957W        W15540  28.144  19.665   2.730
43958W        W15541   7.010  10.427  14.940
43959W        W15542  35.171  36.599   3.257
43960W        W15543  38.732   7.353   2.367
43961W        W15544  33.627  21.601  11.225
43962W        W15545   1.318   7.641  13.437
43963W        W15546   8.272  13.753  12.058
43964W        W15547  31.105  42.412  13.524
43965W        W15548  29.416   3.644  14.406
43966W        W15549  25.165   7.790   2.213
43967W        W15550  18.734  22.398   4.804
43968W        W15551  20.866  25.710   1.650
43969W        W15552  18.037  37.047  13.489
43970W        W15553  13.484  22.144  13.810
43971W        W15554  20.130  43.294   4.348
43972W        W15555  13.769   4.640  11.622
43973W        W15556  13.594  21.555   0.855
43974W        W15557  29.649   2.958   3.708
43975W        W15558  42.018  40.317  12.968
43976W        W15559   1.918  38.293   1.214
43977W        W15560  14.853  35.503   2.422
43978W        W15561  14.132   3.284   0.964
43979W        W15562  33.660  27.994  13.767
43980W        W15563  39.098  28.918  10.658
43981W        W15564  20.196  43.706   1.823
43982W        W15565  18.038  40.050   4.913
43983W        W15566   1.879  14.604   3.575
43984W        W15567   9.214   1.336   0.988
43985W        W15568  36.362  17.773   2.409
43986W        W15569  24.649   1.229  14.359
43987W        W15570  14.655   7.882  12.966
43988W        W15571   9.728  19.570   3.878
43989W        W15572  10.128  29.486   4.615
43990W        W15573  17.630   1.919  12.835
43991W        W15574   7.758   4.737   3.531
43992W        W15575  15.132   8.199   0.516
43993W        W15576   9.122  10.839  13.989
43994W        W15577  42.213  44.180   4.059
43995W        W15578  36.168   3.332   9.964
43996W        W15579  23.451  19.989   2.216
43997W        W15580   5.452  24.100  11.219
43998W        W15581  15.060  10.326  13.332
43999W        W15582   7.004  23.459  10.833
44000W        W15583  37.809   3.706  13.437
44001W        W15584  27.659  36.863  13.501
44002W        W15585  18.028  29.617  13.491
44003W        W15586   4.803  11.687   0.337
44004W        W15587  44.689  40.238   2.597
44005W        W15588   9.328   4.867  11.691
44006W        W15589  18.508  27.051  11.165
44007W        W15590  15.726  44.864  13.840
44008W        W15591  10.277  13.662  11.166
44009W        W15592  43.412  26.500  12.008
44010W        W15593  26.804  43.835  13.883
44011W        W15594  40.465  37.322  11.975
44012W        W15595  17.958  11.619   0.694
44013W        W15596  26.178   2.237  14.963
44014W        W15597  38.534  10.807  11.180
44015W        W15598  11.389  30.722  11.200
44016W        W15599  37.732  32.009  14.703
44017W        W15600   3.188  37.640   1.465
44018W        W15601  40.153  34.470   2.179
44019W        W15602   4.293  21.423  10.963
44020W        W15603   7.633  42.968   2.292
44021W        W15604  40.084  15.858  14.261
44022W        W15605  25.114   1.293   0.069
44023W        W15606  42.783   3.515  14.368
44024W        W15607  16.860   0.150  13.398
44025W        W15608  37.952  15.835  12.902
44026W        W15609   5.828  42.719  10.470
44027W        W15610   8.707  27.787  14.086
44028W        W15611  13.843  41.454  14.444
44029W        W15612  11.324  16.187  11.744
44030W        W15613  25.747  13.123   0.777
44031W        W15614   3.271  41.243   0.790
44032W        W15615  10.358  28.002   0.400
44033W        W15616  25.932  14.000  11.458
44034W        W15617  32.525   2.709   1.895
44035W        W15618  22.565  14.720  13.781
44036W        W15619   8.512  30.488  13.546
44037W        W15620   9.199  36.973   0.644
44038W        W15621  32.403  37.488  13.383
44039W        W15622  36.420  12.993  12.443
44040W        W15623  26.588   4.257   4.334
44041W        W15624   4.893  21.748   0.030
44042W        W15625  20.104  10.825   1.877
44043W        W15626  15.721  23.217  14.240
44044W        W15627  33.136  41.661   0.678
44045W        W15628  24.011   3.047  12.912
44046W        W15629  31.543  28.071   3.802
44047W        W15630  34.349   7.424  12.072
44048W        W15631  34.028   3.156   2.159
44049W        W15632  36.914  28.865   5.125
44050W        W15633  42.743   3.228  11.497
44051W        W15634  41.277  32.573  10.725
44052W        W15635  42.645   9.657   3.508
44053W        W15636  11.247  40.149  11.666
44054W        W15637  10.909  12.608   0.398
44055W        W15638   7.723  38.819   1.159
44056W        W15639  30.065  20.633   3.791
44057W        W15640  25.300  44.193   9.880
44058W        W15641  28.138   6.019   1.211
44059W        W15642   9.405  24.497   4.244
44060W        W15643  30.965   8.640  14.381
44061W        W15644   3.260  32.201   3.706
44062W        W15645  30.999  33.539   3.777
44063W        W15646  20.331  17.037  11.141
44064W        W15647  25.379  15.326  13.104
44065W        W15648   2.396  14.802   2.302
44066W        W15649   6.376  39.218  13.442
44067W        W15650   9.022  25.461  12.103
44068W        W15651  15.297   1.394   4.570
44069W        W15652  27.135  17.813   3.683
44070W        W15653   6.001  39.476  14.190
44071W        W15654   8.839   5.151   2.857
44072W        W15655   8.853  10.718   1.351
44073W        W15656  15.591  38.846   2.801
44074W        W15657  32.902  23.159  11.449
44075W        W15658  34.069  17.109  14.469
44076W        W15659  20.552  14.905   2.338
44077W        W15660   8.967  10.328   3.344
44078W        W15661   4.688  37.542  13.071
44079W        W15662  23.007   2.992   1.866
44080W        W15663  44.915  14.366   1.521
44081W        W15664  29.475  27.839  12.614
44082W        W15665  26.641  12.950  13.105
44083W        W15666  25.090   5.954  14.819
44084W        W15667  30.853  26.352  11.922
44085W        W15668  40.899  12.202   1.966
44086W        W15669  42.906  36.190   1.771
44087W        W15670  18.324  33.907   4.611
44088W        W15671   6.895  38.392  11.344
44089W        W15672  41.872  44.488  11.179
44090W        W15673  12.602  10.618   3.173
44091W        W15674  15.025  43.974   1.450
44092W        W15675  13.270  29.451  11.633
44093W        W15676   0.993  16.405  13.000
44094W        W15677  35.964  16.542   1.283
44095W        W15678   3.907  34.093  14.068
44096W        W15679  34.043  43.353   4.585
44097W        W15680  11.863  38.320  14.716
44098W        W15681  19.715  19.125   0.874
44099W        W15682  32.929  13.155   1.873
44100W        W15683  37.376   2.141   4.619
44101W        W15684   6.916  12.286  13.046
44102W        W15685  28.720  26.638   0.897
44103W        W15686  36.312  26.687  12.944
44104W        W15687  16.182   7.884   2.686
44105W        W15688  30.126  14.584  13.478
44106W        W15689  39.630  23.017  13.903
44107W        W15690  44.260  16.706   1.931
44108W        W15691  12.871  28.872   2.725
44109W        W15692  22.705  19.821  10.632
44110W        W15693  16.935  27.559  14.398
44111W        W15694  25.216  29.197  12.672
44112W        W15695  21.656  41.426  11.150
44113W        W15696  39.557  16.356   4.722
44114W        W15697   7.326  22.259  11.639
44115W        W15698   8.677  43.030   1.766
44116W        W15699  17.531  43.908   1.600
44117W        W15700  41.331  37.984   1.779
44118W        W15701  11.914  10.467   4.258
44119W        W15702  33.986  41.592   3.832
44120W        W15703  19.247  21.655   2.868
44121W        W15704   3.817  21.904   0.019
44122W        W15705  42.059  30.204  11.957
44123W        W15706  15.475  36.812  14.971
44124W        W15707  21.774  38.563  11.085
44125W        W15708  41.828  33.542   3.351
44126W        W15709  37.859  41.892  13.727
44127W        W15710   5.905  19.006   1.422
44128W        W15711  23.489   8.360   0.846
44129W        W15712   3.214  24.929   0.446
44130W        W15713   0.215  33.118  11.086
44131W        W15714  33.346  31.629  14.347
44132W        W15715  24.020   8.321  14.571
44133W        W15716  17.183  28.623  11.176
44134W        W15717  10.355   7.693  13.475
44135W        W15718  21.233  17.787  13.803
44136W        W15719  18.665  44.617  10.617
44137W        W15720   4.579  19.139   1.824
44138W        W15721  14.616  25.703   2.194
44139W        W15722  14.713  38.562   2.164
44140W        W15723  30.234   4.341   4.753
44141W        W15724  20.549   6.363   0.649
44142W        W15725  12.807  26.143  12.068
44143W        W15726  44.722  32.088  12.653
44144W        W15727  11.361  40.290   0.434
44145W        W15728  11.802  44.530   3.634
44146W        W15729  12.612  16.505  11.851
44147W        W15730  17.094  29.602  10.618
44148W        W15731  43.980  13.624   2.653
44149W        W15732  25.032  34.002   4.525
44150W        W15733  26.492  36.935  13.869
44151W        W15734  15.534   4.814  11.473
44152W        W15735  18.393  14.754  13.597
44153W        W15736  39.374  11.247   4.862
44154W        W15737  43.683  37.019  13.172
44155W        W15738  39.074   0.358  14.876
44156W        W15739  35.486  14.151   1.257
44157W        W15740  16.374   0.863  14.307
44158W        W15741  10.084   0.395   1.251
44159W        W15742  38.813  11.304  10.655
44160W        W15743  21.236  36.526  12.903
44161W        W15744  31.622  23.075  14.203
44162W        W15745  25.177  28.531  10.712
44163W        W15746   7.293   7.250   4.599
44164W        W15747  16.919  39.128   2.153
44165W        W15748  14.058  18.168   0.386
44166W        W15749  36.852  33.136  10.581
44167W        W15750  16.204  23.193   1.498
44168W        W15751   8.450  23.007  14.026
44169W        W15752   9.204  42.998  11.545
44170W        W15753  44.339  42.508   1.594
44171W        W15754  12.814   6.385  13.140
44172W        W15755   8.269  24.196   0.910
44173W        W15756  15.238  18.267   4.116
44174W        W15757  11.970  34.666  14.596
44175W        W15758  35.412  37.773   2.685
44176W        W15759  26.874  43.013  13.848
44177W        W15760   2.226  24.536   1.936
44178W        W15761  28.983   9.589   1.222
44179W        W15762   0.472  39.771  14.376
44180W        W15763   5.499  26.513  10.756
44181W        W15764  43.439   4.991  14.953
44182W        W15765  22.558  14.687   3.685
44183W        W15766  12.172   0.416   4.524
44184W        W15767  17.618  11.621   4.143
44185W        W15768  18.219   3.268   3.289
44186W        W15769  19.143  41.802   1.977
44187W        W15770   8.812  11.941  10.323
44188W        W15771  36.376   3.785  14.988
44189W        W15772  13.847  31.875   4.128
44190W        W15773   9.981  17.527  13.569
44191W        W15774  13.281  40.519   0.824
44192W        W15775   2.254  40.315   2.892
44193W        W15776  35.575  23.694  12.941
44194W        W15777  36.497  13.723  10.594
44195W        W15778  36.543  26.092   3.636
44196W        W15779  10.385  18.139  11.947
44197W        W15780  38.225  26.054  13.418
44198W        W15781  17.771  26.255  12.838
44199W        W15782  27.038  17.245   0.439
44200W        W15783  44.346  32.189   2.476
44201W        W15784  24.121   0.480   0.516
44202W        W15785   1.718  29.660  14.852
44203W        W15786  43.872  40.358  12.886
44204W        W15787  18.664  22.435  14.273
44205W        W15788  32.076  22.274  14.829
44206W        W15789  34.988  26.101   3.725
44207W        W15790  36.921  44.127  14.071
44208W        W15791  36.127  41.908   0.446
44209W        W15792   0.401  32.044  14.503
44210W        W15793  39.275  11.816   0.847
44211W        W15794  20.482   8.787   1.210
44212W        W15795  39.394  42.914   1.222
44213W        W15796  15.264  17.410   1.006
44214W        W15797  32.532  33.845  10.768
44215W        W15798  13.770  11.539  13.876
44216W        W15799  28.164  20.346   4.069
44217W        W15800  12.848   6.586  12.211
44218W        W15801   8.191   5.659  13.025
44219W        W15802   9.166  15.338  12.417
44220W        W15803  41.093  33.840   1.263
44221W        W15804  15.138   6.236  12.572
44222W        W15805  10.693  15.649   1.346
44223W        W15806  44.899  12.290   1.752
44224W        W15807  21.673  23.005   0.387
44225W        W15808   5.692   6.820  14.574
44226W        W15809  37.931  26.139  11.545
44227W        W15810   6.985  31.268  12.878
44228W        W15811  26.670  25.888   3.444
44229W        W15812  12.458   0.008  11.062
44230W        W15813  36.844  19.545  14.028
44231W        W15814  29.927  42.028  11.571
44232W        W15815  20.129   8.933  14.984
44233W        W15816  21.598  40.388   4.879
44234W        W15817  23.094  10.756   3.371
44235W        W15818  11.159  34.571  10.474
44236W        W15819  32.372  14.050  13.381
44237W        W15820  29.949  36.411   0.322
44238W        W15821  27.232  32.106   3.247
44239W        W15822  20.664  11.918  12.763
44240W        W15823   7.348   8.414  11.220
44241W        W15824  40.026  16.685   4.095
44242W        W15825   8.985  20.495  14.498
44243W        W15826   3.197   8.994  10.191
44244W        W15827  23.455  15.949  10.499
44245W        W15828  37.894  42.976   0.298
44246W        W15829   5.874  32.436   4.392
44247W        W15830  17.492  29.366   0.906
44248W        W15831  37.563  33.404  11.530
44249W        W15832   0.855  40.914  12.117
44250W        W15833  21.995  40.564   1.874
44251W        W15834   7.014   3.089  12.025
44252W        W15835  38.792   9.863  11.663
44253W        W15836  16.017  15.073   4.953
44254W        W15837   5.449   1.838  14.477
44255W        W15838  16.204  27.487  12.115
44256W        W15839  24.307  26.591  14.925
44257W        W15840  14.635  13.864  11.092
44258W        W15841  20.689  11.259   4.380
44259W        W15842   7.413  12.174  13.096
44260W        W15843  24.245  39.608   2.742
44261W        W15844  14.092  36.589  10.226
44262W        W15845  35.627  25.094  11.566
44263W        W15846  33.138  13.521  11.088
44264W        W15847  26.655   8.613  10.668
44265W        W15848  18.454  23.181  14.442
44266W        W15849  13.317  42.406  14.473
44267W        W15850   7.918  42.020   1.382
44268W        W15851   6.482  17.275  11.068
44269W        W15852   6.956  20.781  11.704
44270W        W15853  41.902  13.739   4.561
44271W        W15854  42.005  22.198  11.304
44272W        W15855  33.544   0.424   3.965
44273W        W15856  44.768  37.899  10.702
44274W        W15857  12.120  27.313  12.414
44275W        W15858  34.544  21.479   1.275
44276W        W15859   4.876  13.093   4.674
44277W        W15860   9.779  39.104  14.768
44278W        W15861  13.722  28.730  14.750
44279W        W15862  26.026  11.655   2.353
44280W        W15863  21.075   1.983  13.424
44281W        W15864  39.448  13.684   0.486
44282W        W15865   2.619  36.911  12.526
44283W        W15866   8.824  17.567   0.941
44284W        W15867  15.350  44.956   1.210
44285W        W15868  37.581  15.108   2.004
44286W        W15869  10.539  27.188   0.165
44287W        W15870  36.976  41.828  11.877
44288W        W15871   3.850  29.202  13.778
44289W        W15872  18.853   0.318  14.396
44290W        W15873   0.051  18.030   0.713
44291W        W15874  13.832  16.367   0.245
44292W        W15875  10.584  26.293   4.543
44293W        W15876   4.974   9.901  12.774
44294W        W15877  29.883  37.039  10.984
44295W        W15878   7.940  33.078  11.904
44296W        W15879   0.211   2.299  11.653
44297W        W15880  30.394  12.400   1.778
44298W        W15881  21.602  10.897   9.678
44299W        W15882  22.665   4.213  13.207
44300W        W15883   2.237  12.902   3.326
44301W        W15884  41.380  10.578   4.737
44302W        W15885  12.267   1.795   4.020
44303W        W15886   6.277   0.993  11.731
44304W        W15887   3.199  21.032  14.963
44305W        W15888  22.844  11.275  13.282
44306W        W15889   3.891  24.633   4.367
44307W        W15890  20.840  17.221   5.382
44308W        W15891  36.944  42.582  11.706
44309W        W15892  17.778  31.412  14.362
44310W        W15893  41.973  14.384  10.745
44311W        W15894   2.732  10.899  11.938
44312W        W15895  44.286  21.073   2.661
44313W        W15896  34.239   8.640  13.037
44314W        W15897  22.249   1.769   0.789
44315W        W15898  23.733  22.592   3.120
44316W        W15899  35.782  17.135   2.440
44317W        W15900  42.909  29.552  11.150
44318W        W15901  14.666  32.863  13.889
44319W        W15902  43.381  39.878   1.416
44320W        W15903   5.109  24.600  12.563
44321W        W15904  16.816  36.357   0.641
44322W        W15905  16.838  42.691  10.176
44323W        W15906  36.345  33.903  14.462
44324W        W15907  15.547  31.362  11.566
44325W        W15908  15.054  14.084   4.205
44326W        W15909  36.455  24.633  13.626
44327W        W15910   7.566   3.784   4.876
44328W        W15911  35.621   5.050   1.399
44329W        W15912  37.569  33.927  12.410
44330W        W15913  34.957  24.215   4.828
44331W        W15914   7.711  35.526  10.655
44332W        W15915  31.142  36.338   4.552
44333W        W15916  39.833  20.771  14.161
44334W        W15917  35.895  38.685   3.274
44335W        W15918  38.385  31.249   3.864
44336W        W15919   9.595  28.116  14.763
44337W        W15920  23.745  39.889   1.245
44338W        W15921  22.707  36.369   4.579
44339W        W15922  22.744  22.979   2.250
44340W        W15923  26.567  37.483   1.904
44341W        W15924  26.322   2.310  13.665
44342W        W15925  26.567  39.039  14.010
44343W        W15926   2.275  13.844  13.970
44344W        W15927   0.371  27.578   0.234
44345W        W15928  28.250  20.073  11.579
44346W        W15929  38.938   4.072  10.667
44347W        W15930  23.314   6.251  13.263
44348W        W15931  29.437  30.235   2.841
44349W        W15932  14.077  12.684  11.410
44350W        W15933  16.372   5.256   0.895
44351W        W15934  15.362  39.523   5.080
44352W        W15935  25.467   8.743  14.133
44353W        W15936  23.897  21.559  14.069
44354W        W15937  13.341  42.000  12.036
44355W        W15938   2.258  21.903  13.891
44356W        W15939  30.047   3.775  11.489
44357W        W15940  17.792  43.885   3.630
44358W        W15941  23.788  17.328  11.034
44359W        W15942  13.826  14.295   1.449
44360W        W15943   5.874  26.913  14.926
44361W        W15944  14.166   7.562  11.963
44362W        W15945  40.014  35.896   4.178
44363W        W15946  42.831  29.622  13.048
44364W        W15947  14.829  41.583   3.097
44365W        W15948   7.607  19.860  14.053
44366W        W15949  23.473   3.205  12.148
44367W        W15950  44.779  31.093  12.580
44368W        W15951   5.277  43.273   0.986
44369W        W15952  14.582   2.486   2.558
44370W        W15953  19.226  26.765   0.841
44371W        W15954  41.941  28.012   3.143
44372W        W15955  21.248   1.650  14.862
44373W        W15956  42.732   2.203   4.623
44374W        W15957  29.965  42.002  10.808
44375W        W15958  26.913  13.890  13.362
44376W        W15959  44.237   0.735   3.646
44377W        W15960   5.835  19.804  14.741
44378W        W15961  25.131  37.776  10.711
44379W        W15962  43.863  20.038   4.467
44380W        W15963   5.133  40.059   1.585
44381W        W15964  31.969   6.672  14.587
44382W        W15965  23.577  16.157   2.302
44383W        W15966  43.444   6.292   2.708
44384W        W15967  38.318  25.089   4.675
44385W        W15968  29.466  44.885   2.342
44386W        W15969  18.207  30.457  13.753
44387W        W15970   0.764   6.740  12.955
44388W        W15971  15.711  18.319  13.891
44389W        W15972  23.121  33.398   2.654
44390W        W15973   3.363  22.695  12.684
44391W        W15974  22.274  25.929  14.323
44392W        W15975  28.199   6.672  12.085
44393W        W15976   3.508  35.998  14.899
44394W        W15977  34.065  40.810  12.477
44395W        W15978  34.507  19.176  12.486
44396W        W15979   0.401  38.287  10.907
44397W        W15980   1.834  11.347   3.799
44398W        W15981   7.289  21.721  12.452
44399W        W15982  32.936   6.429  12.585
44400W        W15983  32.246  21.072  12.466
44401W        W15984  37.462  31.849   3.883
44402W        W15985   5.709   2.636  12.003
44403W        W15986  37.302  40.226   5.090
44404W        W15987  26.154  35.840   4.623
44405W        W15988  27.168  23.099   1.749
44406W        W15989  42.142  23.064  12.976
44407W        W15990  16.351   3.827   1.814
44408W        W15991  44.918  37.386  11.574
44409W        W15992  12.310  22.097   3.606
44410W        W15993   2.788  30.926   4.063
44411W        W15994   1.184  38.659   5.538
44412W        W15995  40.061  39.367   2.013
44413W        W15996   4.160  38.821  12.934
44414W        W15997  36.121  35.748   0.713
44415W        W15998  22.925  33.492   4.761
44416W        W15999  39.780  18.499   0.736
44417W        W16000   6.274  29.423   0.218
44418W        W16001   1.200  41.364   1.987
44419W        W16002   5.987  41.537   4.076
44420W        W16003  31.199  37.471   9.594
44421W        W16004  22.151  10.875  10.591
44422W        W16005  32.154  30.612  12.954
44423W        W16006   0.278  14.589   1.790
44424W        W16007   2.217  44.287   0.237
44425W        W16008  10.274  31.934   1.060
44426W        W16009  21.653  16.289  12.042
44427W        W16010  23.509  37.966   3.804
44428W        W16011  35.217  10.271   3.332
44429W        W16012  25.721  19.939   2.563
44430W        W16013  25.192  27.486  13.294
44431W        W16014   6.110  28.031   4.114
44432W        W16015  27.032   9.136  14.361
44433W        W16016  44.073  16.969   9.937
44434W        W16017  31.015  37.923  13.461
44435W        W16018   4.714   6.439  11.039
44436W        W16019   0.307  32.715   1.878
44437W        W16020  34.716   6.452   1.214
44438W        W16021   6.296  30.117  13.448
44439W        W16022  30.099  19.687   5.314
44440W        W16023  31.279   8.245   0.071
44441W        W16024  12.268  16.740  14.542
44442W        W16025  34.498  15.035  12.506
44443W        W16026  15.398  44.821  13.430
44444W        W16027   1.670  23.513   2.388
44445W        W16028  16.310  42.717   2.402
44446W        W16029   0.691   9.201  11.776
44447W        W16030  32.889  29.030  11.538
44448W        W16031  22.938  10.458  11.860
44449W        W16032  41.930  29.926  10.476
44450W        W16033   0.176  29.441   2.788
44451W        W16034  39.530  11.180   1.293
44452W        W16035   3.990   8.509   4.221
44453W        W16036  37.350  24.007   1.383
44454W        W16037  17.948  28.185   2.406
44455W        W16038  17.619  23.183   5.052
44456W        W16039  35.800  42.280   2.142
44457W        W16040   6.784   5.747   0.566
44458W        W16041  30.976  33.590   2.749
44459W        W16042  27.993   2.768   4.269
44460W        W16043   8.727  21.615   1.434
44461W        W16044   2.704  25.067  14.227
44462W        W16045  15.582  20.783   2.366
44463W        W16046   7.840  17.225   0.454
44464W        W16047  24.749   7.787  14.024
44465W        W16048  26.273  17.267  11.267
44466W        W16049   3.408   7.236   4.881
44467W        W16050  11.167  23.996  14.808
44468W        W16051   1.023  14.098   0.824
44469W        W16052  36.327  15.738   4.769
44470W        W16053   7.459  39.367  10.588
44471W        W16054  17.702  24.640  11.825
44472W        W16055  27.135  23.773   2.393
44473W        W16056  41.487   8.056  14.365
44474W        W16057   7.752   7.581  14.486
44475W        W16058   3.401  34.673   0.857
44476W        W16059  22.101  13.113  12.413
44477W        W16060   4.390  13.014   0.272
44478W        W16061  32.651  22.765   0.345
44479W        W16062  32.722   6.691   1.182
44480W        W16063  13.371  44.988   4.256
44481W        W16064  37.964   2.098   0.053
44482W        W16065  24.680   9.254   0.983
44483W        W16066  24.675  17.642   3.951
44484W        W16067  43.226  28.197   1.846
44485W        W16068  30.644  27.581  12.017
44486W        W16069  19.151  20.076  12.979
44487W        W16070  14.316   2.268  11.099
44488W        W16071   9.837  19.823   0.227
44489W        W16072  10.516  15.330   2.788
44490W        W16073  30.317   8.298   4.224
44491W        W16074   2.871  12.406  11.567
44492W        W16075  23.144  24.288  14.869
44493W        W16076  26.418   4.366   0.761
44494W        W16077   5.466   7.821  11.123
44495W        W16078  29.138  18.699  10.704
44496W        W16079  26.230   5.703  11.037
44497W        W16080  10.778  42.257   1.406
44498W        W16081  10.118  40.017   0.261
44499W        W16082  42.429  17.635  10.751
44500W        W16083   4.707   6.865   2.677
44501W        W16084  22.530  36.136  12.568
44502W        W16085  40.549  10.271   0.316
44503W        W16086  20.611  39.323   3.177
44504W        W16087  26.909   1.434   0.234
44505W        W16088  34.947  42.045   4.395
44506W        W16089   8.652  25.637  13.061
44507W        W16090  39.831  24.479  11.977
44508W        W16091  24.336   7.946  14.799
44509W        W16092  44.886  25.555   1.937
44510W        W16093  30.949   9.041  13.507
44511W        W16094  36.845  18.231  14.544
44512W        W16095   1.851  37.105   0.441
44513W        W16096  21.164  17.492  14.246
44514W        W16097  26.576  26.204   9.950
44515W        W16098  18.098  29.956   2.681
44516W        W16099   4.445  36.511  10.294
44517W        W16100  34.889  26.433   1.330
44518W        W16101  15.198  41.099   4.599
44519W        W16102  18.276  23.966   1.475
44520W        W16103  20.293  10.737   3.301
44521W        W16104  36.545  13.532  11.581
44522W        W16105  15.102  26.961  11.619
44523W        W16106  21.170  39.888   1.106
44524W        W16107  34.855  22.425  11.948
44525W        W16108  44.241  11.301  10.336
44526W        W16109   7.584  23.040  12.906
44527W        W16110  23.918  24.219  11.474
44528W        W16111  21.627   5.142  12.018
44529W        W16112  38.468   5.614   2.819
44530W        W16113  34.146  44.967   3.681
44531W        W16114   7.306  31.618   1.415
44532W        W16115  43.443  25.366  14.877
44533W        W16116  40.511  21.138  14.275
44534W        W16117  21.750   9.404  13.506
44535W        W16118  15.859  33.400   0.851
44536W        W16119   6.161  11.690   2.947
44537W        W16120  38.826  28.978  10.208
44538W        W16121   0.443   1.387  12.055
44539W        W16122   0.054  43.389   4.717
44540W        W16123  40.333  14.156   0.946
44541W        W16124  17.243   1.711  12.073
44542W        W16125  44.885   2.110  13.606
44543W        W16126  41.631  33.530   4.584
44544W        W16127  23.670  20.560  14.712
44545W        W16128  19.280  39.951  11.368
44546W        W16129  21.596  32.100   1.228
44547W        W16130  36.875  12.944   4.220
44548W        W16131   4.230   9.581   3.457
44549W        W16132  29.227  12.170  12.426
44550W        W16133   9.813  38.134  11.667
44551W        W16134   7.050  29.719  13.812
44552W        W16135  23.199  16.682  13.821
44553W        W16136  19.305  12.754   1.010
44554W        W16137  33.330  28.654  10.252
44555W        W16138  36.084   8.256   2.457
44556W        W16139  11.097  39.335  13.213
44557W        W16140  17.603  35.051  14.047
44558W        W16141  37.456   9.612  11.956
44559W        W16142  29.610  31.711   4.047
44560W        W16143   1.564  18.492   3.514
44561W        W16144   3.488  41.843  10.911
44562W        W16145  30.622  42.397   0.431
44563W        W16146   9.761  11.474  11.212
44564W        W16147  32.832  29.420   3.082
44565W        W16148  42.308  20.645   4.145
44566W        W16149  42.533  36.605   1.755
44567W        W16150  26.001  36.802  13.763
44568W        W16151   1.354   9.302   4.137
44569W        W16152  29.313  18.204   1.938
44570W        W16153  38.327  26.770   2.850
44571W        W16154  44.351  28.084  12.313
44572W        W16155   0.986   6.318   3.697
44573W        W16156  25.196   8.084   0.483
44574W        W16157   1.476  20.712  13.901
44575W        W16158   5.487  32.937  12.371
44576W        W16159  28.989  34.669   1.624
44577W        W16160  20.056  32.868  11.144
44578W        W16161  21.616  10.654   5.727
44579W        W16162   8.666  22.170   2.427
44580W        W16163  33.105   3.355   2.127
44581W        W16164  39.373  14.687  13.775
44582W        W16165  15.692  23.058  11.450
44583W        W16166   4.947  11.908  12.400
44584W        W16167  13.928  16.668   3.287
44585W        W16168   1.770  27.957   1.895
44586W        W16169  31.460  35.764   3.664
44587W        W16170  31.887   8.849   1.354
44588W        W16171  19.686   0.538  13.473
44589W        W16172  42.403  31.636   0.341
44590W        W16173  42.309  34.848  12.454
44591W        W16174   9.011  38.240  10.754
44592W        W16175  27.685  10.689   2.727
44593W        W16176  27.696  24.456  10.535
44594W        W16177  12.162  40.270  13.982
44595W        W16178   2.539  11.082   4.388
44596W        W16179   6.725   9.137   0.284
44597W        W16180  29.207  12.107  13.330
44598W        W16181  44.700  27.632   2.768
44599W        W16182  44.950  12.723   2.079
44600W        W16183   2.746  21.594   3.895
44601W        W16184  28.470   3.767   1.322
44602W        W16185  28.076  10.456   4.677
44603W        W16186  41.044  30.469  12.474
44604W        W16187  13.789   8.744   4.779
44605W        W16188  33.370   1.779  11.533
44606W        W16189  29.126  28.597  14.505
44607W        W16190  19.555  40.498   5.001
44608W        W16191  36.940  38.691   1.548
44609W        W16192  37.272  35.236   1.182
44610W        W16193  20.553   4.931   1.333
44611W        W16194  36.279  20.768  13.047
44612W        W16195  42.276  32.591  12.365
44613W        W16196  16.617   0.303   2.279
44614W        W16197  23.765  16.357   2.734
44615W        W16198  40.106   4.814   1.993
44616W        W16199   5.876   2.580   0.651
44617W        W16200  21.158  18.559   0.216
44618W        W16201  34.800  27.513  10.630
44619W        W16202  24.691   8.853   4.161
44620W        W16203  24.779  25.481  10.519
44621W        W16204  40.798   1.719   3.198
44622W        W16205  19.859  37.288  13.897
44623W        W16206  15.210  36.647  11.412
44624W        W16207  33.621  14.408  14.820
44625W        W16208  38.937   5.810   4.588
44626W        W16209  43.034   1.803  12.500
44627W        W16210  13.194  27.943   1.277
44628W        W16211  28.244   1.897  12.876
44629W        W16212   1.559   5.398  12.939
44630W        W16213  30.527  41.893  12.037
44631W        W16214  36.431  31.096   0.217
44632W        W16215  27.586  29.430  13.621
44633W        W16216  17.073   5.731   1.186
44634W        W16217  34.452  15.156   4.547
44635W        W16218  14.560   1.048   2.796
44636W        W16219  30.328   0.229   2.821
44637W        W16220  14.403  25.137   4.169
44638W        W16221  10.351  36.419   5.236
44639W        W16222  28.863  15.576  11.189
44640W        W16223  32.529  28.495  14.030
44641W        W16224   4.251   9.260   2.388
44642W        W16225  44.978  23.300  14.184
44643W        W16226  33.157  36.497   3.179
44644W        W16227  15.920  34.826  11.939
44645W        W16228   6.592   1.741   1.342
44646W        W16229  19.739  31.739  13.287
44647W        W16230   5.360   4.183   3.935
44648W        W16231  37.806  14.914  14.505
44649W        W16232  25.072  42.971  14.543
44650W        W16233   6.168   2.497   4.220
44651W        W16234  40.340   0.971   0.304
44652W        W16235  10.772   2.466  11.069
44653W        W16236   7.681  10.569   2.062
44654W        W16237  28.611  10.204   1.028
44655W        W16238  40.069  13.172  14.271
44656W        W16239   7.948  37.353  12.141
44657W        W16240   9.927  24.768   1.646
44658W        W16241   6.814   3.049   3.865
44659W        W16242  17.860  31.430   1.328
44660W        W16243  37.842  40.844   1.984
44661W        W16244  35.862   5.371   3.236
44662W        W16245   5.793  35.468   0.410
44663W        W16246  17.678   2.471  12.824
44664W        W16247  35.511  10.374  13.143
44665W        W16248   5.819  41.847  11.669
44666W        W16249  36.789  26.570  14.319
44667W        W16250  21.819   9.770   2.146
44668W        W16251  31.845  31.906   3.743
44669W        W16252  17.402  35.039   5.110
44670W        W16253   1.246   9.805   4.274
44671W        W16254  22.791  18.708  14.899
44672W        W16255  33.832  28.039  14.930
44673W        W16256  39.482  34.843   3.735
44674W        W16257  23.228  19.703   0.038
44675W        W16258  18.586  40.332   3.330
44676W        W16259   1.910  23.154   1.953
44677W        W16260  11.306   5.861   0.914
44678W        W16261  44.786  25.224   3.637
44679W        W16262  31.917  39.567  14.332
44680W        W16263  32.979  19.616   3.664
44681W        W16264   9.682  44.928  13.645
44682W        W16265  28.136  44.653  14.944
44683W        W16266  23.469  43.214   2.900
44684W        W16267  25.011   0.501   2.914
44685W        W16268   7.709  30.391  14.331
44686W        W16269  10.293   5.304   1.707
44687W        W16270   9.908  21.224   4.427
44688W        W16271  18.100   3.767   3.227
44689W        W16272  28.429   7.428  13.094
44690W        W16273   9.455  42.534   1.878
44691W        W16274  31.990  25.896   4.530
44692W        W16275  37.664  18.519  14.330
44693W        W16276  27.696  20.277   0.982
44694W        W16277  17.521  39.531  14.880
44695W        W16278  29.741  44.487   4.798
44696W        W16279  41.630   4.350  14.508
44697W        W16280  17.477  29.616   1.847
44698W        W16281  26.111   8.193  12.643
44699W        W16282  19.603  32.201  13.055
44700W        W16283  44.376  40.988   2.986
44701W        W16284  41.995  14.713  11.133
44702W        W16285  30.060  18.241  10.412
44703W        W16286  12.091   6.165  14.331
44704W        W16287  11.715  25.250  11.173
44705W        W16288  18.249   9.214   4.576
44706W        W16289  19.677   6.877   4.693
44707W        W16290   4.183  27.849   1.038
44708W        W16291  29.011  41.739   0.738
44709W        W16292   9.628  44.294   2.406
44710W        W16293  30.945  20.664  14.961
44711W        W16294   3.813  23.985  11.940
44712W        W16295  29.773  38.321  11.998
44713W        W16296  39.468  29.029   4.057
44714W        W16297   6.127  26.596  14.478
44715W        W16298  41.343  41.269  11.509
44716W        W16299  30.654   5.766  12.022
44717W        W16300  33.939  21.042   1.745
44718W        W16301  20.050   7.890   5.132
44719W        W16302  15.727   6.927  10.682
44720W        W16303  30.381  22.970  14.990
44721W        W16304  11.287  18.896  11.498
44722W        W16305  21.640  24.749   4.934
44723W        W16306  20.820  10.365   0.737
44724W        W16307   7.276   3.287   5.019
44725W        W16308  29.871  21.633  10.441
44726W        W16309  10.927   8.820  12.950
44727W        W16310   2.131  12.589   1.437
44728W        W16311  26.124  35.802  13.370
44729W        W16312  15.063   7.544  12.935
44730W        W16313   2.302  42.072  14.053
44731W        W16314  30.022  26.140   2.733
44732W        W16315   6.166  39.838   2.189
44733W        W16316  43.244   3.800   0.978
44734W        W16317  27.882  37.975  11.123
44735W        W16318  10.249   9.522  13.927
44736W        W16319  24.721   0.350  14.914
44737W        W16320  40.895  19.086  11.680
44738W        W16321  16.688  36.938  10.593
44739W        W16322  32.752   5.382  14.398
44740W        W16323  26.098  18.734   1.622
44741W        W16324   8.257  32.217  14.200
44742W        W16325   5.656  17.375  13.399
44743W        W16326  31.664  15.609  13.094
44744W        W16327  25.476  34.471   2.231
44745W        W16328  33.484  14.932  12.059
44746W        W16329  12.597   2.296  14.421
44747W        W16330  35.388   5.021   2.371
44748W        W16331   2.501  14.683   3.189
44749W        W16332  34.812   5.029  11.632
44750W        W16333   7.310  39.078   3.879
44751W        W16334  22.811  34.924  14.922
44752W        W16335  32.295  29.467   3.653
44753W        W16336   4.501   1.380  11.892
44754W        W16337  28.085  32.777   0.728
44755W        W16338  22.477   8.735  10.743
44756W        W16339  41.203  25.710   0.472
44757W        W16340  22.223  20.594  10.604
44758W        W16341  34.045   4.222  12.090
44759W        W16342   9.557   9.648   1.172
44760W        W16343  25.916  39.318  12.110
44761W        W16344  39.613  19.791  14.897
44762W        W16345   7.238   7.412   2.427
44763W        W16346  26.944  21.011   1.790
44764W        W16347  17.376   8.190  12.513
44765W        W16348   7.150   2.335  14.368
44766W        W16349  28.430  26.185  12.291
44767W        W16350  16.644   3.982   3.132
44768W        W16351  41.534   9.184   4.147
44769W        W16352  10.152  13.312  10.758
44770W        W16353  36.461  12.110  12.384
44771W        W16354  27.475   7.600  12.950
44772W        W16355   7.420  10.588  11.905
44773W        W16356  44.690  28.225   3.608
44774W        W16357  38.987   1.802  11.475
44775W        W16358  22.565  29.829  11.452
44776W        W16359  37.924   5.005   2.654
44777W        W16360   9.779  34.492   3.049
44778W        W16361  14.222  17.977   3.698
44779W        W16362  40.359  20.685   3.179
44780W        W16363   7.920   8.829  10.456
44781W        W16364  22.575  42.192  12.571
44782W        W16365  15.019   8.745   4.143
44783W        W16366  40.334  31.615   0.450
44784W        W16367  35.006  29.609  11.558
44785W        W16368   8.253   0.339   4.155
44786W        W16369  28.419   5.780  10.849
44787W        W16370  40.993  35.381   2.740
44788W        W16371  31.426  19.306   5.444
44789W        W16372  19.766  13.799   4.632
44790W        W16373  27.795   7.379  13.296
44791W        W16374  13.685  11.677   1.322
44792W        W16375  33.473  30.857  13.068
44793W        W16376  31.976  10.523   5.164
44794W        W16377  13.509  44.775   0.439
44795W        W16378  12.271  40.344  14.880
44796W        W16379   1.955  42.844  14.528
44797W        W16380  38.902   0.507  12.492
44798W        W16381  34.420  14.590   4.581
44799W        W16382   9.016  22.291  13.859
44800W        W16383  14.775  17.687  11.132
44801W        W16384  42.665  29.769  12.599
44802W        W16385  33.683  41.263   4.152
44803W        W16386  42.043  41.349   2.646
44804W        W16387   5.343  31.379   1.465
44805W        W16388  31.122  11.182   0.731
44806W        W16389  42.859  43.521  14.909
44807W        W16390  24.938  15.679   2.702
44808W        W16391  10.434  38.990  12.860
44809W        W16392   1.055   6.730   1.450
44810W        W16393  20.602  15.533   3.907
44811W        W16394  12.043  12.332   4.443
44812W        W16395  25.042  21.369   4.067
44813W        W16396  20.634  41.275   3.690
44814W        W16397   7.296  10.444   3.732
44815W        W16398  41.486   7.176   4.779
44816W        W16399  17.601   8.086   2.311
44817W        W16400   1.501  35.441  12.410
44818W        W16401  22.930   4.801   2.746
44819W        W16402  22.683   3.229  12.119
44820W        W16403  41.463  39.783   0.790
44821W        W16404  21.752  11.279  10.535
44822W        W16405   6.289  27.954   5.071
44823W        W16406  18.779   7.307  13.319
44824W        W16407  28.991  20.202   0.845
44825W        W16408  17.798   0.318  12.391
44826W        W16409  33.890  34.308  13.897
44827W        W16410   8.923   4.691  13.422
44828W        W16411  28.583  33.103   4.050
44829W        W16412  11.240  29.170  13.933
44830W        W16413  13.983   9.954   0.775
44831W        W16414  22.631  33.203  12.051
44832W        W16415   0.199   1.768   0.751
44833W        W16416  25.168  31.490   3.451
44834W        W16417  29.710  29.578  12.584
44835W        W16418   5.166  14.808  10.937
44836W        W16419  42.982  28.626  12.005
44837W        W16420  11.701  42.754   2.392
44838W        W16421  23.543  37.869  12.798
44839W        W16422  41.510  21.520   1.805
44840W        W16423  17.764  26.542   2.985
44841W        W16424  33.563  13.794  11.159
44842W        W16425  35.550   8.357   2.443
44843W        W16426  30.946  41.180  11.174
44844W        W16427  14.602  22.359  13.429
44845W        W16428  18.895  37.571   2.817
44846W        W16429  18.158   6.536  11.547
44847W        W16430  13.660   0.262  13.952
44848W        W16431  23.622  29.382  14.771
44849W        W16432   2.492  27.124  14.529
44850W        W16433  33.466   7.117   4.821
44851W        W16434   9.666  30.846   2.395
44852W        W16435   1.111   3.323  14.010
44853W        W16436  38.117  20.630   2.219
44854W        W16437  23.722  42.998   1.488
44855W        W16438  17.879   6.905  10.643
44856W        W16439  22.986   5.939  10.749
44857W        W16440   8.760  12.460   4.172
44858W        W16441  13.182  19.565   1.407
44859W        W16442  20.338  11.246   1.679
44860W        W16443  14.595  22.703   4.597
44861W        W16444  20.308  42.536   0.094
44862W        W16445  29.493   9.032   5.085
44863W        W16446  19.831   5.736  13.045
44864W        W16447  33.519  34.843  13.536
44865W        W16448  41.454  19.156   3.454
44866W        W16449  25.551  38.246   1.417
44867W        W16450  36.528  11.819   3.743
44868W        W16451  19.608  40.509  14.311
44869W        W16452  43.215   3.243   4.513
44870W        W16453  37.934  38.785   1.266
44871W        W16454  20.075  29.374   1.777
44872W        W16455   8.846   0.359  10.241
44873W        W16456  42.734  17.548   4.745
44874W        W16457  31.446   1.191   4.653
44875W        W16458  10.351  24.718   1.934
44876W        W16459  15.248  24.004  12.055
44877W        W16460  18.322  35.241  12.543
44878W        W16461  22.712  33.181  14.264
44879W        W16462  16.358  22.597  13.046
44880W        W16463  13.524   1.480   0.770
44881W        W16464  34.353   8.773   2.734
44882W        W16465  11.648  24.995  11.618
44883W        W16466  39.758  24.794  14.812
44884W        W16467  36.874   6.903   0.809
44885W        W16468  43.039  30.616   1.789
44886W        W16469  26.527   9.361   2.221
44887W        W16470  35.401  27.346   3.877
44888W        W16471  28.408   3.778  11.929
44889W        W16472  20.686  18.085  11.212
44890W        W16473  28.431  10.648   4.109
44891W        W16474  16.552   2.361   2.241
44892W        W16475  23.001   5.752   1.346
44893W        W16476  42.781  34.563  12.589
44894W        W16477  37.631  12.097   4.269
44895W        W16478  31.211  25.163  10.821
44896W        W16479  11.338  32.367  12.040
44897W        W16480  30.113  28.526  14.977
44898W        W16481  10.239   9.470  12.523
44899W        W16482   7.886   2.575   0.803
44900W        W16483  36.331   8.264  13.050
44901W        W16484   9.619  13.408  10.622
44902W        W16485  37.549  33.563   5.037
44903W        W16486   3.332  12.090   4.849
44904W        W16487  20.250  33.561  12.722
44905W        W16488  22.727  24.589   4.540
44906W        W16489  32.158  44.383  11.622
44907W        W16490   9.990  20.285   0.433
44908W        W16491  26.940   5.664   4.628
44909W        W16492  14.567  34.906   1.476
44910W        W16493  11.491  42.809  12.216
44911W        W16494   3.013  15.357  10.676
44912W        W16495   9.098  19.470  12.376
44913W        W16496  21.764  31.327  12.536
44914W        W16497  19.766  35.019  13.415
44915W        W16498  38.354  32.613   0.887
44916W        W16499  35.019  17.623  11.033
44917W        W16500  39.072   2.696   0.730
44918W        W16501  11.851  11.627   0.741
44919W        W16502   9.141  23.662  13.318
44920W        W16503  16.173  30.651   2.355
44921W        W16504  39.290   1.504   0.327
44922W        W16505   2.200  29.622  14.989
44923W        W16506  42.402  42.491   4.303
44924W        W16507  34.716  12.421   2.340
44925W        W16508  10.491  17.939   5.039
44926W        W16509  12.749   5.870  14.904
44927W        W16510   6.658  33.538  12.387
44928W        W16511  11.821  39.886  13.844
44929W        W16512   2.079  42.082   5.020
44930W        W16513  41.458  23.254   0.451
44931W        W16514  24.448  41.012  13.935
44932W        W16515  39.097   8.279   3.766
44933W        W16516  42.259  21.386  11.573
44934W        W16517   7.114  39.942  12.651
44935W        W16518  33.480  42.937   3.842
44936W        W16519  34.196  11.216  13.612
44937W        W16520  30.174  27.571  11.196
44938W        W16521  42.864   7.714   4.173
44939W        W16522  40.984  44.833   0.977
44940W        W16523  31.967  20.747   0.039
44941W        W16524  43.660  13.698   3.047
44942W        W16525   1.926  39.290   3.788
44943W        W16526  23.544  10.805   3.640
44944W        W16527  41.914  15.293  14.403
44945W        W16528  41.447  16.978  13.345
44946W        W16529  15.951  27.571   3.589
44947W        W16530  43.196  22.243   3.207
44948W        W16531  26.531  35.113  12.941
44949W        W16532   3.222  22.307  13.292
44950W        W16533  20.614  20.997  10.111
44951W        W16534  28.998  14.259   1.784
44952W        W16535  13.619  18.484  11.511
44953W        W16536  43.380  22.824  12.019
44954W        W16537  20.714  36.582   4.378
44955W        W16538  27.997  16.751   4.290
44956W        W16539  42.009  39.354   1.924
44957W        W16540  35.708  20.774  13.369
44958W        W16541  20.782   9.163  14.395
44959W        W16542  42.090   2.227  12.117
44960W        W16543  18.821  32.142  13.517
44961W        W16544  24.274  42.799   3.276
44962W        W16545  38.493  15.343   0.786
44963W        W16546  31.542  16.305  13.768
44964W        W16547  24.059  39.945   0.813
44965W        W16548   4.946  17.820  10.695
44966W        W16549  34.081  10.646   0.257
44967W        W16550  18.690  14.517  10.558
44968W        W16551   6.366  32.852   2.710
44969W        W16552   3.219   6.702   2.222
44970W        W16553   3.896  43.117  12.067
44971W        W16554   7.954  28.664   2.639
44972W        W16555   0.794  44.910   1.336
44973W        W16556  39.931  13.500   3.297
44974W        W16557  23.015  44.385  12.946
44975W        W16558  19.359  25.702   0.078
44976W        W16559   0.772  27.993  12.549
44977W        W16560   6.134  18.588  11.252
44978W        W16561   5.920  22.590  14.823
44979W        W16562  13.313   1.507  11.628
44980W        W16563  23.751  29.596   0.226
44981W        W16564  22.148  25.409   3.301
44982W        W16565  17.260  13.401  13.061
44983W        W16566  18.013  43.578  11.360
44984W        W16567   0.693  36.560  11.050
44985W        W16568  41.608  33.888   1.381
44986W        W16569  18.073  40.710  10.749
44987W        W16570  10.752  15.781   2.666
44988W        W16571   3.760  16.205  14.475
44989W        W16572  40.038  32.961   1.344
44990W        W16573  32.214  24.683  11.683
44991W        W16574  40.825  34.856  10.528
44992W        W16575  34.088  28.078   4.420
44993W        W16576  39.415  30.420   0.050
44994W        W16577   3.426   0.826   2.234
44995W        W16578  42.989  27.659  14.896
44996W        W16579  16.108  41.002   1.263
44997W        W16580  23.471  23.254   0.473
44998W        W16581  15.615  33.041   4.768
44999W        W16582  17.723  42.833  14.416
45000W        W16583   7.936   3.857   1.736
45001W        W16584  28.093  40.062  13.947
45002W        W16585  35.301  34.085  11.065
45003W        W16586  14.009  28.057   0.534
45004W        W16587  21.069   2.398   0.926
45005W        W16588  25.590  12.366  11.185
45006W        W16589  44.816  31.454   3.589
45007W        W16590  18.223  35.346   3.938
45008W        W16591  16.155  31.687  11.636
45009W        W16592  12.497   2.994   3.598
45010W        W16593  36.887  18.839   4.942
45011W        W16594  27.499   9.825   0.770
45012W        W16595   8.347   3.873   2.023
45013W        W16596  18.160  18.063   3.623
45014W        W16597  34.415  10.631  14.880
45015W        W16598  19.990  31.759   4.995
45016W        W16599  43.398  10.427  14.824
45017W        W16600  40.082   5.394  10.236
45018W        W16601   7.867  40.694   3.240
45019W        W16602  29.539  11.043  13.970
45020W        W16603  19.608   0.351  12.977
45021W        W16604  15.626   7.763   0.855
45022W        W16605  33.367  30.023  10.136
45023W        W16606  12.009  39.636  11.231
45024W        W16607  27.742  35.444   1.616
45025W        W16608  17.157  11.750  12.974
45026W        W16609   3.281   8.932  11.471
45027W        W16610  11.089  26.443   4.556
45028W        W16611  11.316  14.958   3.388
45029W        W16612  41.447  11.160  12.917
45030W        W16613  41.522  20.931   2.711
45031W        W16614  27.880  38.619   2.252
45032W        W16615  28.151   6.511   1.391
45033W        W16616  28.965  25.220   4.326
45034W        W16617  12.459  25.154   0.811
45035W        W16618  21.180  21.766  13.034
45036W        W16619  31.902   4.787  10.378
45037W        W16620  13.166  20.145   2.142
45038W        W16621  43.932   2.019  12.247
45039W        W16622  15.764  40.366  12.907
45040W        W16623  39.759  14.827   1.719
45041W        W16624  22.914  17.251   1.901
45042W        W16625  36.475  39.275   2.656
45043W        W16626  44.971   8.090   1.261
45044W        W16627  36.824  17.084   3.786
45045W        W16628  24.652  11.561  13.296
45046W        W16629  18.175  28.141   4.152
45047W        W16630  21.699  29.125  14.007
45048W        W16631  44.933  40.285   0.953
45049W        W16632   6.372  32.889   2.170
45050W        W16633   1.017  38.915   5.118
45051W        W16634   3.652   5.159   0.404
45052W        W16635  18.533   2.852   3.233
45053W        W16636  12.699  44.521  12.064
45054W        W16637   9.342   6.755  11.549
45055W        W16638  13.188  28.579  11.814
45056W        W16639  28.953   3.936   4.635
45057W        W16640  13.283  43.902  14.654
45058W        W16641  31.530  16.704   4.918
45059W        W16642  24.013   6.299   2.738
45060W        W16643  14.128  30.841   4.793
45061W        W16644  34.016   3.933   2.846
45062W        W16645   5.972  27.585   0.484
45063W        W16646  37.057  27.788  12.536
45064W        W16647  14.130   1.315  11.013
45065W        W16648  19.162  14.985   1.904
45066W        W16649  18.034   0.974   3.254
45067W        W16650  43.755  13.834   1.258
45068W        W16651  12.088  44.826  10.746
45069W        W16652   4.516  25.308  13.143
45070W        W16653  25.621  11.754   3.427
45071W        W16654  43.836  43.102  11.594
45072W        W16655  18.521  33.458   0.380
45073W        W16656  17.052  40.456   2.373
45074W        W16657  30.595  35.798   4.130
45075W        W16658   9.564  38.126   3.379
45076W        W16659  44.859  38.948   0.904
45077W        W16660  23.063  11.612   0.569
45078W        W16661  18.742  19.090   4.142
45079W        W16662  31.676  23.947  12.256
45080W        W16663  13.183  36.019  12.539
45081W        W16664  43.920  17.303  10.577
45082W        W16665   2.661  42.930   2.557
45083W        W16666  38.577   9.932   0.194
45084W        W16667  31.779  24.511   4.710
45085W        W16668  28.621  15.924  11.495
45086W        W16669   5.782  42.364  11.489
45087W        W16670  27.622  19.437  10.582
45088W        W16671   5.976  24.138   1.839
45089W        W16672  33.488   4.167  11.756
45090W        W16673  39.393   1.621   0.931
45091W        W16674  32.789  37.645   1.695
45092W        W16675  29.496   5.377  11.568
45093W        W16676  23.447  25.574  14.776
45094W        W16677  16.074   5.268   1.919
45095W        W16678  26.064  42.978   0.294
45096W        W16679  40.973  16.141   0.797
45097W        W16680  43.782   1.046   3.598
45098W        W16681  13.880  26.159   1.275
45099W        W16682  40.863   1.436   4.494
45100W        W16683  40.265  30.503  11.747
45101W        W16684   9.635  23.769  14.206
45102W        W16685  17.548  33.352  14.488
45103W        W16686  42.253   2.511   4.105
45104W        W16687  42.301  16.622   0.829
45105W        W16688  27.000   7.633   1.818
45106W        W16689  29.122  28.119   2.158
45107W        W16690   8.233   8.273  14.094
45108W        W16691   0.452  36.984   2.819
45109W        W16692  26.520  23.722   1.612
45110W        W16693  38.561  29.170   0.341
45111W        W16694  19.557  24.735  11.987
45112W        W16695  40.309  20.065  12.502
45113W        W16696  30.436  27.887  11.615
45114W        W16697   2.331  21.103  11.502
45115W        W16698   0.262  25.265  11.159
45116W        W16699   7.764   9.796  12.315
45117W        W16700   7.079  42.960   1.077
45118W        W16701  27.972  12.112   3.769
45119W        W16702  24.141  42.023   2.843
45120W        W16703  25.134  28.927  13.196
45121W        W16704  20.186   5.902   2.233
45122W        W16705  32.112  11.250   2.387
45123W        W16706  31.192  38.046  10.915
45124W        W16707  40.330   5.143  10.638
45125W        W16708  41.296   6.859  11.632
45126W        W16709   7.323  39.378   4.282
45127W        W16710   0.286  43.272  11.645
45128W        W16711  23.000  31.494  11.067
45129W        W16712  31.453  29.986  14.742
45130W        W16713   5.443  27.602   1.382
45131W        W16714   7.861  39.790   3.329
45132W        W16715   6.313  13.612   1.014
45133W        W16716  14.448  32.967  13.404
45134W        W16717  37.124  44.376   2.763
45135W        W16718  38.025  33.601  10.700
45136W        W16719  32.057  37.218   2.768
45137W        W16720  10.230  14.746   1.959
45138W        W16721  37.067  26.059   0.994
45139W        W16722  17.486  33.480   2.722
45140W        W16723  39.540  42.721  12.451
45141W        W16724   0.731  27.128   4.488
45142W        W16725  13.577  27.985  12.436
45143W        W16726  18.744  21.523   4.603
45144W        W16727  44.342   6.400  13.412
45145W        W16728  21.126  15.801  14.984
45146W        W16729  13.813   8.293   4.439
45147W        W16730  33.985  28.099   2.396
45148W        W16731  25.009  44.964   3.585
45149W        W16732  39.561   8.541   4.989
45150W        W16733   4.351  26.223  11.320
45151W        W16734  36.139  19.502  13.015
45152W        W16735  22.722  39.022   2.553
45153W        W16736   9.274  39.913   1.098
45154W        W16737  44.867  34.807  11.576
45155W        W16738  26.714  43.016   0.986
45156W        W16739   8.496   5.683   1.797
45157W        W16740   5.700  38.209  10.677
45158W        W16741  28.642  24.460   4.746
45159W        W16742   1.066  27.691  12.023
45160W        W16743  29.098  41.439   3.069
45161W        W16744  40.035  20.717  12.612
45162W        W16745  22.075  38.875   4.369
45163W        W16746  16.239  17.348  14.246
45164W        W16747  11.971  40.406  10.592
45165W        W16748  18.510   3.844  10.653
45166W        W16749  35.546  11.524  13.454
45167W        W16750  22.612  20.272  10.828
45168W        W16751   8.230  34.098  13.518
45169W        W16752   8.721   7.349   2.317
45170W        W16753  20.649  24.019  13.361
45171W        W16754  37.461   5.722   1.704
45172W        W16755  24.762  13.093  11.954
45173W        W16756  22.937  12.690   1.660
45174W        W16757  36.211  30.556   3.609
45175W        W16758   1.570  15.324  10.656
45176W        W16759   0.948  39.994  13.965
45177W        W16760  21.306  11.330   2.617
45178W        W16761  23.763  33.936   2.419
45179W        W16762  14.645  26.121  12.690
45180W        W16763   1.024  31.559   0.739
45181W        W16764  16.770   4.768   2.639
45182W        W16765   9.620  12.894  12.493
45183W        W16766  23.047  40.274   2.361
45184W        W16767   8.894  30.607  14.883
45185W        W16768  15.358  14.761  13.091
45186W        W16769   3.369  32.494   2.414
45187W        W16770  34.928   4.008  11.618
45188W        W16771  37.684  14.641  13.532
45189W        W16772  43.767  14.227  13.494
45190W        W16773   2.792   9.675  12.397
45191W        W16774   9.905  18.850  14.795
45192W        W16775  12.184  20.031  14.042
45193W        W16776  26.445  21.816   1.835
45194W        W16777  26.656  22.825   3.861
45195W        W16778  30.161  40.052   3.728
45196W        W16779  30.980   8.644  11.244
45197W        W16780  13.861   5.600   1.836
45198W        W16781  28.194  16.079   1.330
45199W        W16782  42.827  40.123   3.670
45200W        W16783   9.204  14.001   1.428
45201W        W16784   7.301  30.075  14.536
45202W        W16785  29.423  39.133  10.708
45203W        W16786   9.896  11.561   1.780
45204W        W16787  18.710   5.215   3.040
45205W        W16788  12.069   5.966   3.263
45206W        W16789   8.855  33.349   3.685
45207W        W16790   9.567  23.228   4.649
45208W        W16791  41.798  35.911   4.623
45209W        W16792  22.173  15.718   0.213
45210W        W16793   4.980  31.145   2.408
45211W        W16794  23.139  22.339  13.383
45212W        W16795  18.017   9.862  12.024
45213W        W16796  18.985   8.136  11.808
45214W        W16797   9.167   4.776  14.049
45215W        W16798  37.752  44.709  12.032
45216W        W16799  23.727  41.024  12.482
45217W        W16800  22.259  29.526   2.268
45218W        W16801  26.892  17.793  13.458
45219W        W16802  43.990  36.954  14.037
45220W        W16803  36.845  41.372  11.577
45221W        W16804  12.290   1.503   1.676
45222W        W16805  28.493  24.579   2.181
45223W        W16806  30.820  14.144   5.099
45224W        W16807  13.203  23.934   5.162
45225W        W16808  36.071  15.547   5.188
45226W        W16809   3.305  43.309   0.384
45227W        W16810  32.168  11.616   1.706
45228W        W16811   1.742   2.805   3.323
45229W        W16812  43.930  25.932   1.701
45230W        W16813  44.358  20.138  14.084
45231W        W16814  13.413  40.443   4.508
45232W        W16815  21.014  16.194  14.021
45233W        W16816   3.228  36.879   0.339
45234W        W16817  37.288  42.885   5.181
45235W        W16818  34.519  38.228   4.198
45236W        W16819  30.017  15.510  11.238
45237W        W16820  12.618  26.025  13.337
45238W        W16821  10.940   6.963  10.695
45239W        W16822   1.796  17.016   3.644
45240W        W16823   7.745  41.061   4.523
45241W        W16824   7.354  21.959   4.244
45242W        W16825  28.697  15.207  14.521
45243W        W16826  26.703   6.367  13.122
45244W        W16827  29.579   0.564  11.482
45245W        W16828  38.964  44.794   0.755
45246W        W16829  24.079  35.558   2.775
45247W        W16830   3.547   1.893  13.822
45248W        W16831   5.381  26.100  14.410
45249W        W16832  38.367   0.517   0.804
45250W        W16833  41.232  28.963   3.800
45251W        W16834  24.726  18.144  10.719
45252W        W16835  40.947  44.202   0.216
45253W        W16836  33.432  37.871  12.583
45254W        W16837  43.545   7.416   0.962
45255W        W16838  43.939  14.782  12.379
45256W        W16839  44.591  29.618   3.744
45257W        W16840   3.948  26.754   4.499
45258W        W16841  10.733  42.882   2.366
45259W        W16842  42.969  30.664  12.117
45260W        W16843  17.316   3.997  11.116
45261W        W16844   8.206  18.929  12.937
45262W        W16845  14.127  16.497   3.947
45263W        W16846   8.711  21.313  14.731
45264W        W16847  34.084  34.576  10.578
45265W        W16848  40.715  31.755   3.720
45266W        W16849  36.945  32.830  11.283
45267W        W16850  26.941   3.644   3.529
45268W        W16851   4.428  42.041  13.221
45269W        W16852  31.457  27.522  11.819
45270W        W16853  28.067  11.576  14.524
45271W        W16854  42.206  10.496  10.110
45272W        W16855  12.389  37.045  13.021
45273W        W16856  30.516   4.697   0.460
45274W        W16857  42.352  26.464  12.144
45275W        W16858  41.587  19.404  13.778
45276W        W16859  42.850  11.290   0.272
45277W        W16860  33.448  39.316   2.863
45278W        W16861   9.233  36.539  14.786
45279W        W16862  43.357   0.712  12.062
45280W        W16863  21.856   7.471   2.234
45281W        W16864  15.309  15.865   0.864
45282W        W16865   9.281  32.812  12.516
45283W        W16866   4.908  22.636  14.755
45284W        W16867  30.047  14.480   2.358
45285W        W16868  44.497  24.675   4.709
45286W        W16869  42.393  44.907  11.501
45287W        W16870  39.731  21.222  13.878
45288W        W16871  22.656  42.940  14.439
45289W        W16872  36.363  44.400   0.779
45290W        W16873   5.142  11.027  12.871
45291W        W16874  33.118  21.999   3.246
45292W        W16875  43.231  14.681  14.501
45293W        W16876  29.418  14.114  11.098
45294W        W16877  25.959  23.734  11.119
45295W        W16878  19.997  27.556  12.092
45296W        W16879  15.033  30.421  13.453
45297W        W16880  37.122  15.308   4.991
45298W        W16881   2.100  38.334   0.077
45299W        W16882  36.965  16.343  12.106
45300W        W16883  27.119   4.477  11.531
45301W        W16884  43.700   9.382  13.493
45302W        W16885  44.731  14.883  14.885
45303W        W16886  37.486   0.185   3.302
45304W        W16887  37.617  22.580   3.241
45305W        W16888  27.843  11.604   0.583
45306W        W16889  12.611  35.556  13.493
45307W        W16890  33.017  38.067   3.956
45308W        W16891  12.627  18.703   0.682
45309W        W16892  12.379  39.820   0.874
45310W        W16893  29.911  18.142  14.577
45311W        W16894   3.415  15.696  10.629
45312W        W16895  39.978  27.215  10.893
45313W        W16896  13.888  29.213  14.837
45314W        W16897  28.706  36.293  13.009
45315W        W16898  25.092  15.079   4.360
45316W        W16899  44.444  12.907   2.806
45317W        W16900  11.582  30.146  13.786
45318W        W16901   0.339  14.766  12.081
45319W        W16902   9.354  24.490   0.788
45320W        W16903  13.779   7.715   1.307
45321W        W16904  35.206   3.789  13.861
45322W        W16905  30.878  10.100  11.660
45323W        W16906  44.164  25.959   4.581
45324W        W16907  10.380   8.853   1.330
45325W        W16908  39.816  37.313  11.569
45326W        W16909  16.165  21.045  14.816
45327W        W16910  17.000  16.158   4.477
45328W        W16911  24.826  15.668   1.389
45329W        W16912  41.185  36.644   2.130
45330W        W16913  27.050  35.831   3.419
45331W        W16914   5.962   7.738  10.562
45332W        W16915   4.860   0.690   2.750
45333W        W16916  21.683  19.623   5.256
45334W        W16917  40.283  30.654   4.696
45335W        W16918   2.994  35.560  14.001
45336W        W16919  32.859  24.707  10.696
45337W        W16920  14.185   9.963   3.830
45338W        W16921   6.880  12.068   1.976
45339W        W16922   4.221  19.023   2.237
45340W        W16923  38.585  32.140  11.861
45341W        W16924  43.442  37.887   4.319
45342W        W16925  20.287  44.210  13.105
45343W        W16926  11.426  44.508  11.618
45344W        W16927   4.888  32.996  10.608
45345W        W16928  11.760  27.580   0.221
45346W        W16929  33.596  10.241  10.867
45347W        W16930  39.159   0.063  14.438
45348W        W16931  39.514   1.026  14.447
45349W        W16932  19.104   8.889   2.304
45350W        W16933  37.861   4.228  14.349
45351W        W16934  26.993  25.003   0.377
45352W        W16935  32.738  17.110  13.795
45353W        W16936  16.692  25.578   4.768
45354W        W16937  40.294   6.706   3.501
45355W        W16938  12.326  20.631   4.679
45356W        W16939  11.125  25.152  14.110
45357W        W16940  18.732  22.762   1.235
45358W        W16941  36.109  25.171  12.424
45359W        W16942  31.976  40.060  10.198
45360W        W16943  34.927  41.046   3.664
45361W        W16944   2.859   9.063  10.656
45362W        W16945  42.585  21.728  13.950
45363W        W16946   9.581  43.406   0.905
45364W        W16947  10.750  15.748  11.298
45365W        W16948  11.146  12.505  13.417
45366W        W16949  11.696   5.364  12.784
45367W        W16950  30.808   8.870   0.416
45368W        W16951  44.455  31.570  12.922
45369W        W16952   3.823  26.430  12.043
45370W        W16953  19.091  10.616  11.918
45371W        W16954  40.956  16.114  14.274
45372W        W16955  32.803   3.894   0.325
45373W        W16956   8.397  19.713  14.420
45374W        W16957  32.674   7.423  11.120
45375W        W16958  26.121  20.997  13.568
45376W        W16959   1.334   4.641   2.357
45377W        W16960  21.478  44.001   2.784
45378W        W16961   0.881  26.690   4.766
45379W        W16962  40.885  36.390   3.877
45380W        W16963  28.201  23.736  10.470
45381W        W16964  29.365   5.858  10.804
45382W        W16965  14.530  44.860   0.291
45383W        W16966  19.470  11.556   4.147
45384W        W16967  28.764  22.210   2.210
45385W        W16968   8.571  37.438   1.341
45386W        W16969  44.832  36.335   4.276
45387W        W16970  23.650  38.379  12.956
45388W        W16971  36.736   5.490   0.163
45389W        W16972   9.071   3.771   2.701
45390W        W16973  28.810  14.256   1.158
45391W        W16974  43.358   3.305   3.642
45392W        W16975  10.317  39.804  11.900
45393W        W16976  16.082   2.434  13.282
45394W        W16977   2.103   5.731   4.275
45395W        W16978   2.335  28.174   1.699
45396W        W16979  11.572  37.327  11.534
45397W        W16980  14.514  16.126  11.177
45398W        W16981  14.526  28.520   2.206
45399W        W16982  25.933  31.856  14.321
45400W        W16983  29.572  13.406   3.091
45401W        W16984  15.736  32.881   2.774
45402W        W16985  42.538  37.160  11.119
45403W        W16986   7.384  13.490  13.559
45404W        W16987  11.234   8.228   2.071
45405W        W16988   3.613  30.012   1.909
45406W        W16989  27.451  26.699  14.057
45407W        W16990  18.616  18.166  12.102
45408W        W16991  40.467  13.098   1.721
45409W        W16992  14.562  37.942   1.360
45410W        W16993   0.290  20.459  14.419
45411W        W16994   1.570   9.053  13.533
45412W        W16995  39.594  40.055   3.211
45413W        W16996   6.712  16.235   1.328
45414W        W16997  28.465  10.016  12.949
45415W        W16998  42.393   0.390   3.188
45416W        W16999  27.955  37.610   0.308
45417W        W17000   4.699  40.129  11.670
45418W        W17001  34.427  30.741  13.083
45419W        W17002  41.531  24.619  14.510
45420W        W17003  33.615  42.840  11.966
45421W        W17004   4.159  15.845  14.338
45422W        W17005   0.700   4.733   3.772
45423W        W17006  29.624   9.347  10.664
45424W        W17007  33.233  36.427   2.248
45425W        W17008  15.726  25.791   4.076
45426W        W17009  39.741   4.301   2.824
45427W        W17010  32.526  13.377   1.471
45428W        W17011   4.220   4.723   2.273
45429W        W17012   7.863   3.060   3.121
45430W        W17013  30.901  41.885   4.627
45431W        W17014   2.498  17.222  13.523
45432W        W17015  22.376   3.919  14.144
45433W        W17016  30.882  14.626   2.943
45434W        W17017  16.985  38.190  14.410
45435W        W17018  30.125  28.541   4.304
45436W        W17019  41.687  27.606   1.505
45437W        W17020  17.412  39.043  13.504
45438W        W17021   2.230  22.647  13.926
45439W        W17022   7.785  20.625   3.446
45440W        W17023  10.393  12.120  11.138
45441W        W17024  33.654  12.227  13.544
45442W        W17025   6.901  31.640  14.741
45443W        W17026   2.163  21.772   1.352
45444W        W17027  31.690  16.268   1.711
45445W        W17028  29.559  39.829  12.657
45446W        W17029  22.785  27.661   1.237
45447W        W17030  15.142  10.400   3.692
45448W        W17031  13.370  26.004   1.301
45449W        W17032  20.981  28.049  14.447
45450W        W17033  28.755  22.573  10.768
45451W        W17034  12.576  11.057   1.445
45452W        W17035  16.293   9.695   3.099
45453W        W17036  37.767  21.208   4.035
45454W        W17037  27.086  21.032  12.181
45455W        W17038  42.161  39.033   0.351
45456W        W17039  18.726  36.060  12.404
45457W        W17040  10.239  27.115  10.890
45458W        W17041  20.497  35.646   3.783
45459W        W17042  15.405  36.401  12.950
45460W        W17043  38.537   7.103  11.034
45461W        W17044  30.642  39.737  13.005
45462W        W17045  38.411   1.444  10.733
45463W        W17046  17.994   3.830  11.984
45464W        W17047  27.071  18.911   2.763
45465W        W17048  30.160  44.602   4.493
45466W        W17049  28.221  29.022  14.121
45467W        W17050  41.959  31.933   0.337
45468W        W17051   4.228  16.481   0.367
45469W        W17052  22.897  24.161   3.753
45470W        W17053  19.168  44.648   2.385
45471W        W17054  20.763   7.062  10.636
45472W        W17055  43.419  24.079   3.948
45473W        W17056  11.490  17.805  12.880
45474W        W17057  29.521   6.428   3.590
45475W        W17058  13.683  34.365  12.124
45476W        W17059  24.575   6.476   0.752
45477W        W17060  34.595  28.508  12.426
45478W        W17061   2.446  29.937  12.654
45479W        W17062  38.051   9.151   3.342
45480W        W17063  17.486  36.017   3.542
45481W        W17064  24.652  37.610  11.969
45482W        W17065   0.471  29.416   1.790
45483W        W17066  29.557  25.337  12.279
45484W        W17067   0.383   6.789   4.577
45485W        W17068  15.855  33.995   2.049
45486W        W17069  29.814   1.464   0.119
45487W        W17070   5.059  37.949   5.389
45488W        W17071   6.278  23.059   1.044
45489W        W17072  44.449  18.272  12.380
45490W        W17073  29.669  18.629   3.622
45491W        W17074  22.908   4.424   4.464
45492W        W17075  21.070   7.840  14.350
45493W        W17076  26.558  16.563  11.634
45494W        W17077  21.636  43.574  14.315
45495W        W17078   6.773  29.558   0.283
45496W        W17079  11.259  20.676   3.943
45497W        W17080  13.716  13.148  13.021
45498W        W17081   0.277  26.025   3.315
45499W        W17082  31.867   3.675  13.352
45500W        W17083   4.440  18.824   0.896
45501W        W17084  21.777   8.845  13.853
45502W        W17085  18.372   3.831   0.728
45503W        W17086  42.037   1.960   3.670
45504W        W17087  10.626  24.162  11.755
45505W        W17088   5.741  41.554   3.621
45506W        W17089  14.395   0.815   0.455
45507W        W17090  11.813  10.617  14.047
45508W        W17091   3.896  25.827  14.408
45509W        W17092   4.486  41.806  12.748
45510W        W17093  41.326   9.602  13.024
45511W        W17094  25.133  41.673  14.973
45512W        W17095  44.252  32.982  14.524
45513W        W17096  39.869  17.526  12.426
45514W        W17097  44.918  21.234  12.283
45515W        W17098   6.803  23.780  13.053
45516W        W17099  35.637   5.105  12.027
45517W        W17100  28.594  24.022   0.775
45518W        W17101  30.881  32.552   2.099
45519W        W17102   0.881  13.068  12.808
45520W        W17103  41.032  11.365   4.354
45521W        W17104  39.501  23.165   3.728
45522W        W17105  29.885  13.516   1.295
45523W        W17106   2.593  12.309  14.977
45524W        W17107  14.157  29.922   4.102
45525W        W17108  36.120  22.056  13.836
45526W        W17109  22.850  40.791  13.055
45527W        W17110   2.019  16.369  14.756
45528W        W17111   3.943  41.548  12.860
45529W        W17112  11.303  19.050  14.896
45530W        W17113  10.814  44.929  12.167
45531W        W17114   4.822  42.824   3.713
45532W        W17115  39.410   1.791  14.907
45533W        W17116  32.991  33.976  13.411
45534W        W17117  21.114   9.431  12.549
45535W        W17118   1.933  18.820   2.244
45536W        W17119  24.582  24.214   3.191
45537W        W17120  25.689  21.655   4.837
45538W        W17121   8.912  35.179  12.855
45539W        W17122  11.302  17.923  13.746
45540W        W17123  26.821  42.306   2.367
45541W        W17124  39.916   9.034   9.661
45542W        W17125  10.756  27.661   4.523
45543W        W17126  42.754  13.790   1.912
45544W        W17127   5.491  20.031   2.716
45545W        W17128  43.832  18.175  10.752
45546W        W17129  16.327  31.858   1.590
45547W        W17130  43.430  25.421   2.269
45548W        W17131   5.628  25.962  14.875
45549W        W17132   0.301  12.540  14.172
45550W        W17133   1.354  10.752  10.981
45551W        W17134  26.585  11.895   3.109
45552W        W17135  24.704  35.625  12.178
45553W        W17136  22.030  41.625   1.721
45554W        W17137   8.279  43.832   1.253
45555W        W17138  39.022   2.045   2.652
45556W        W17139  20.222  25.998   0.471
45557W        W17140  39.514  34.002  11.915
45558W        W17141  28.864  37.559   2.309
45559W        W17142  26.230  26.169  11.525
45560W        W17143  26.505   4.984   4.586
45561W        W17144  41.918  19.642   0.489
45562W        W17145  35.626  41.869  11.568
45563W        W17146  14.319  21.837  10.752
45564W        W17147  17.902  21.147   3.719
45565W        W17148  21.066   6.309   0.543
45566W        W17149  40.059  30.863   2.198
45567W        W17150  24.976   6.462   2.847
45568W        W17151  42.075  11.154  13.955
45569W        W17152  26.203  22.241  11.154
45570W        W17153   3.977  12.989  12.687
45571W        W17154   0.238  20.169  13.483
45572W        W17155  16.119  17.894  12.835
45573W        W17156   2.643   9.544  14.250
45574W        W17157  30.650  14.590  10.635
45575W        W17158   8.592  11.485   1.754
45576W        W17159  14.366  37.324  11.915
45577W        W17160  15.311  22.597   2.635
45578W        W17161  30.619  19.979  13.039
45579W        W17162  27.112  35.491  12.884
45580W        W17163  27.375  30.560  12.393
45581W        W17164   1.633   1.262  14.399
45582W        W17165   5.420  33.512  11.152
45583W        W17166  26.290   0.953  12.188
45584W        W17167  25.627  21.305  14.459
45585W        W17168   6.872   9.400  11.550
45586W        W17169   4.295  16.591   3.874
45587W        W17170  25.571  36.957  13.999
45588W        W17171  29.918   9.357   0.969
45589W        W17172  20.204  16.359  13.464
45590W        W17173  37.318  28.841  11.525
45591W        W17174  30.092  27.041  13.954
45592W        W17175  38.399  22.447  10.687
45593W        W17176   7.924  43.904  13.287
45594W        W17177  27.927  22.612   4.079
45595W        W17178  24.455  42.372   1.017
45596W        W17179  34.472  29.454  11.612
45597W        W17180  29.492   4.798   1.118
45598W        W17181  30.568  17.563   4.761
45599W        W17182   6.897   0.441   2.446
45600W        W17183  44.816  16.560   4.289
45601W        W17184   7.649  37.970   2.273
45602W        W17185  19.584  12.937  13.443
45603W        W17186  40.765  35.518  14.771
45604W        W17187   2.316  19.634  13.313
45605W        W17188  44.972  29.161   3.802
45606W        W17189   6.391  19.783   4.369
45607W        W17190  33.596  32.060  13.904
45608W        W17191  21.307  39.511   0.342
45609W        W17192  11.379   9.149  14.528
45610W        W17193  36.210  10.158  11.558
45611W        W17194  12.691  33.852   4.076
45612W        W17195  27.032   6.216  10.135
45613W        W17196   0.476   5.141   0.862
45614W        W17197  37.146  15.660   1.241
45615W        W17198   9.412  19.186  14.743
45616W        W17199  15.685  42.196  14.729
45617W        W17200  33.878  31.672   4.265
45618W        W17201   5.221  13.878   1.247
45619W        W17202  29.898  12.149   1.885
45620W        W17203   0.460  41.200  12.512
45621W        W17204   9.859   7.097   0.436
45622W        W17205  22.768   6.432  13.840
45623W        W17206   6.211  13.248  13.645
45624W        W17207   7.731  26.182   1.780
45625W        W17208  25.805   0.355  14.922
45626W        W17209  38.268  34.495   0.276
45627W        W17210  17.191  15.829  10.681
45628W        W17211   6.845  29.642  12.099
45629W        W17212  21.990   9.617  12.338
45630W        W17213  13.456  42.293   0.001
45631W        W17214  43.574  16.721   2.312
45632W        W17215  22.710   9.172   1.513
45633W        W17216  14.530  34.909  10.993
45634W        W17217  13.632  24.625  12.036
45635W        W17218  26.675  32.476  10.171
45636W        W17219  21.042  26.254   4.691
45637W        W17220  11.214   8.738   3.293
45638W        W17221  43.315   3.021  13.181
45639W        W17222   5.180  10.159   2.904
45640W        W17223  37.927  35.924   1.365
45641W        W17224  32.970  44.611   3.682
45642W        W17225   9.799   8.771   4.595
45643W        W17226  22.068  20.606  12.850
45644W        W17227  42.310   2.824  13.860
45645W        W17228  25.576  15.557   4.873
45646W        W17229  10.955   1.887   0.534
45647W        W17230  36.549  24.968  11.297
45648W        W17231  35.786   4.950   2.759
45649W        W17232   1.771   3.299   0.329
45650W        W17233   9.408  39.534   1.932
45651W        W17234  42.332  12.194  11.089
45652W        W17235  42.582  11.924  14.221
45653W        W17236  32.481   4.028   3.969
45654W        W17237  43.295  20.503   1.809
45655W        W17238  18.127   0.048   1.504
45656W        W17239  44.794  25.655   1.228
45657W        W17240  44.341   6.702  13.851
45658W        W17241  34.153  23.151   4.136
45659W        W17242  25.588  15.648  11.867
45660W        W17243  40.038  42.126  11.179
45661W        W17244   9.492  17.401  13.908
45662W        W17245  32.900  31.130   3.564
45663W        W17246  39.730  31.155  12.280
45664W        W17247  20.202  33.905  13.542
45665W        W17248   4.178  35.763  10.738
45666W        W17249  22.760  23.760  11.726
45667W        W17250  28.445   3.807  11.417
45668W        W17251  44.464  31.655  12.035
45669W        W17252   0.998  33.625   0.804
45670W        W17253  41.959   2.483   3.683
45671W        W17254  16.042  33.952  11.092
45672W        W17255   6.830  37.048  12.484
45673W        W17256  11.955  20.221   3.453
45674W        W17257  24.580  33.662  14.279
45675W        W17258   8.358  39.480   1.681
45676W        W17259  13.331  29.574  12.633
45677W        W17260  39.276  36.878  14.884
45678W        W17261  38.533  17.105   1.803
45679W        W17262   5.176  10.231  14.430
45680W        W17263  40.907  21.679   0.801
45681W        W17264  34.325   3.432  12.606
45682W        W17265  44.427   4.217  11.500
45683W        W17266  23.550  20.020   0.303
45684W        W17267  19.004  38.914   4.048
45685W        W17268   0.097  25.068   1.810
45686W        W17269  34.478  22.585  12.917
45687W        W17270   9.720  31.059   4.219
45688W        W17271  12.258   9.198   1.460
45689W        W17272   0.762  16.763  10.577
45690W        W17273   6.487   9.699  12.424
45691W        W17274   6.285   2.257   3.731
45692W        W17275   4.765  30.660  10.661
45693W        W17276  35.268  31.621   2.332
45694W        W17277  15.333  18.816   3.429
45695W        W17278  11.328  19.518   0.891
45696W        W17279  36.850  20.049  12.535
45697W        W17280  23.022   4.072   1.793
45698W        W17281   7.776  36.679   3.648
45699W        W17282  39.831  25.992   4.253
45700W        W17283   4.310  13.219  12.352
45701W        W17284  31.343  35.014  14.554
45702W        W17285  15.262  11.310   1.831
45703W        W17286  12.290   9.501  14.227
45704W        W17287  11.288  20.443  12.545
45705W        W17288  12.601  38.857   1.306
45706W        W17289  25.875   7.284  13.516
45707W        W17290  10.268   9.697   0.739
45708W        W17291  17.656  32.902  13.538
45709W        W17292  42.299  22.344   2.329
45710W        W17293  15.164  20.265   1.373
45711W        W17294  39.064  14.066   0.370
45712W        W17295  22.080  28.600  14.928
45713W        W17296  43.298  41.737   2.679
45714W        W17297  37.910  30.637  11.635
45715W        W17298  44.325  31.040  12.883
45716W        W17299  15.648   5.669  14.278
45717W        W17300  33.820  41.995  11.715
45718W        W17301  17.059  28.180   0.389
45719W        W17302  19.924  40.497  12.966
45720W        W17303  14.741  38.922   2.601
45721W        W17304   6.247  12.780   3.610
45722W        W17305  31.405  44.897   4.335
45723W        W17306  30.070  18.531   0.844
45724W        W17307   6.347  28.799  10.361
45725W        W17308  36.960   6.390  11.825
45726W        W17309  11.372  16.545   2.841
45727W        W17310  12.236  23.175  12.330
45728W        W17311  16.106  17.554  12.450
45729W        W17312   0.406  35.352  11.755
45730W        W17313  15.649  34.478  13.953
45731W        W17314   4.070   5.303  12.576
45732W        W17315   5.494  28.729  14.978
45733W        W17316  12.373  10.126  13.395
45734W        W17317  24.138  21.464   4.658
45735W        W17318   2.277  29.980   1.222
45736W        W17319  17.599   1.782  10.444
45737W        W17320  16.681  38.876  13.052
45738W        W17321  26.740  16.238   1.437
45739W        W17322   8.811  40.307   0.392
45740W        W17323  25.419   0.187   2.815
45741W        W17324  36.559  33.178   0.234
45742W        W17325   2.895   9.503   2.849
45743W        W17326   4.847   4.364  14.775
45744W        W17327   2.560  38.098   4.144
45745W        W17328  33.523  38.929  11.970
45746W        W17329  32.313   3.787  12.227
45747W        W17330  13.268  40.083   1.077
45748W        W17331  31.070  44.253  13.124
45749W        W17332  29.583  22.065   3.658
45750W        W17333   1.980  32.112  10.778
45751W        W17334   4.436  27.385  10.352
45752W        W17335  23.439  34.070  12.976
45753W        W17336  39.425  31.769  13.979
45754W        W17337  43.606   4.383   1.321
45755W        W17338  29.399  44.524  12.452
45756W        W17339  43.601  33.944  12.387
45757W        W17340  24.452  26.522   3.828
45758W        W17341  14.909   1.715  14.314
45759W        W17342  18.058  42.879  14.951
45760W        W17343  21.748  39.086  11.116
45761W        W17344  13.105   4.837   1.074
45762W        W17345  30.236  30.028   0.319
45763W        W17346   3.962  43.201   2.630
45764W        W17347  28.462  25.713  14.585
45765W        W17348   9.282  37.356  13.823
45766W        W17349   7.887  25.904  13.176
45767W        W17350  28.109   6.188  10.395
45768W        W17351  21.074  29.466   3.232
45769W        W17352  12.783  35.658  12.967
45770W        W17353  28.690  12.760  11.072
45771W        W17354  32.416   3.781  11.713
45772W        W17355   2.347  28.945  12.460
45773W        W17356  42.435  26.769  11.129
45774W        W17357   7.400  33.531  14.845
45775W        W17358  12.827  32.206  10.681
45776W        W17359  11.127  35.975   4.855
45777W        W17360  44.353  16.264  14.439
45778W        W17361  15.274  24.190  13.395
45779W        W17362   0.452   3.731   2.618
45780W        W17363  26.555  18.043   3.611
45781W        W17364  27.909   2.154   0.118
45782W        W17365  14.587   7.198   1.748
45783W        W17366  21.655  18.711   4.134
45784W        W17367  33.412   2.186  11.883
45785W        W17368  22.428  31.491  10.324
45786W        W17369  38.291  15.459  11.680
45787W        W17370  29.611  33.001   2.732
45788W        W17371   2.428   3.537   0.962
45789W        W17372  14.172  12.439   3.904
45790W        W17373  44.139  14.137   2.771
45791W        W17374   9.610  37.185   0.322
45792W        W17375  12.775  40.265   3.271
45793W        W17376  10.932  31.147   2.436
45794W        W17377  43.583  15.755   3.997
45795W        W17378   4.545  19.038   0.373
45796W        W17379  33.630  40.379  14.643
45797W        W17380   7.738  32.149  13.782
45798W        W17381   6.369  40.483   1.796
45799W        W17382  32.157  13.817  11.136
45800W        W17383  26.416  31.017   3.095
45801W        W17384  38.356  37.492  10.463
45802W        W17385   5.646   8.039   3.068
45803W        W17386  16.706   8.429  10.688
45804W        W17387  37.957  18.318  12.126
45805W        W17388  32.155  12.090  11.544
45806W        W17389  29.453  13.542  11.980
45807W        W17390  43.348  26.888  11.616
45808W        W17391  27.148  29.228  13.461
45809W        W17392   7.424  37.559  10.381
45810W        W17393  10.096   6.400  14.825
45811W        W17394  42.342  29.542  13.938
45812W        W17395  44.896  18.313   3.886
45813W        W17396  35.860  16.986   3.975
45814W        W17397   8.861  15.636   1.389
45815W        W17398  43.081  17.567  12.022
45816W        W17399  39.851  35.415   0.220
45817W        W17400   2.956   6.300   0.272
45818W        W17401  33.466  35.188   1.803
45819W        W17402  38.920  31.915  11.506
45820W        W17403  31.693  43.934  12.846
45821W        W17404  39.059  25.619   2.739
45822W        W17405  40.785  24.371   1.597
45823W        W17406  38.357  39.812  14.394
45824W        W17407   1.930  15.731  10.546
45825W        W17408  30.636  30.513   2.877
45826W        W17409  42.455  23.488  13.861
45827W        W17410  44.066   9.409   4.237
45828W        W17411  11.638  41.312  10.453
45829W        W17412   3.436  39.890   2.644
45830W        W17413   7.201  24.703  13.560
45831W        W17414  28.264   0.966  11.498
45832W        W17415  20.155  41.409   0.712
45833W        W17416  42.750   0.807  12.509
45834W        W17417   6.689  31.688  12.967
45835W        W17418  16.639  25.229   2.498
45836W        W17419  34.119   3.338  11.997
45837W        W17420  41.763  34.370  12.039
45838W        W17421  20.731  10.368  11.197
45839W        W17422  10.326  11.552   0.811
45840W        W17423  17.720  27.543  10.738
45841W        W17424  40.772  34.616  14.847
45842W        W17425  43.516  44.291  13.937
45843W        W17426  40.930  27.928  13.419
45844W        W17427   1.060  38.493   3.750
45845W        W17428  26.107  39.362   3.235
45846W        W17429  14.681  24.974   0.016
45847W        W17430   6.574  44.632   0.809
45848W        W17431   3.019  20.030  13.407
45849W        W17432  37.978  10.205  12.840
45850W        W17433  42.949  10.567  12.915
45851W        W17434  35.485  24.608  13.385
45852W        W17435   7.069  23.255   4.037
45853W        W17436  24.084  33.936  13.482
45854W        W17437  21.855  24.877  11.129
45855W        W17438  44.863  32.126  14.435
45856W        W17439  33.661  16.823   0.848
45857W        W17440  11.261   8.462  13.140
45858W        W17441  22.779   8.697  12.015
45859W        W17442  20.792  38.442  11.691
45860W        W17443  30.617  12.311  13.456
45861W        W17444   5.317  13.052  11.778
45862W        W17445  10.603   3.650  11.671
45863W        W17446  20.829  43.362   2.299
45864W        W17447  22.255  17.331  12.859
45865W        W17448  14.495  28.416  11.085
45866W        W17449  15.845  23.351  11.840
45867W        W17450   0.871  13.038  10.479
45868W        W17451  32.006   7.427  12.565
45869W        W17452  25.482  24.717   3.279
45870W        W17453   4.763  35.816  13.420
45871W        W17454   6.809  30.508   3.414
45872W        W17455  43.806  23.457   4.822
45873W        W17456  44.618  35.924  12.663
45874W        W17457  26.077  12.370  11.420
45875W        W17458  33.819  16.452  10.515
45876W        W17459   4.994   0.823  13.374
45877W        W17460  30.354  16.675   3.796
45878W        W17461  29.285  23.386  12.953
45879W        W17462  12.308  22.747  10.635
45880W        W17463  11.243  37.524   2.702
45881W        W17464  22.582  33.334   2.781
45882W        W17465  13.796  21.712   4.839
45883W        W17466  12.302   2.942   0.770
45884W        W17467  15.848  34.945  11.053
45885W        W17468   0.561  14.264  14.903
45886W        W17469  43.416  44.367   1.832
45887W        W17470  37.800  30.392   0.411
45888W        W17471  27.998  29.221   4.775
45889W        W17472  29.220  41.792   4.876
45890W        W17473  31.314  13.069   0.089
45891W        W17474  33.607   6.919  12.554
45892W        W17475  32.319  33.049   3.093
45893W        W17476  31.985  10.755   1.204
45894W        W17477   8.960  11.280   3.317
45895W        W17478  22.276  30.050  10.601
45896W        W17479   0.248  18.174   4.639
45897W        W17480  28.698   8.399   3.070
45898W        W17481  44.752   9.428  11.308
45899W        W17482  15.294  23.004   1.381
45900W        W17483  13.288  28.243   2.192
45901W        W17484  24.959  41.952  13.465
45902W        W17485  12.076  17.206   3.163
45903W        W17486  28.690  43.339  11.901
45904W        W17487  34.140  24.674   4.052
45905W        W17488  38.925  42.454   3.689
45906W        W17489   1.948   6.596   2.640
45907W        W17490  10.539  36.946  14.493
45908W        W17491  44.154  20.107   4.895
45909W        W17492  10.000  35.886  14.187
45910W        W17493  27.053  32.196  10.364
45911W        W17494   6.919  33.541   1.543
45912W        W17495  42.915  14.102  12.807
45913W        W17496  36.682  30.203  11.317
45914W        W17497  16.565  26.175  13.351
45915W        W17498  32.064   5.270  12.973
45916W        W17499  36.102   0.026  12.956
45917W        W17500  24.414  29.964   1.712
45918W        W17501   8.948  39.892   0.701
45919W        W17502  12.656  39.595  14.576
45920W        W17503  35.528  20.539  13.780
45921W        W17504  30.124   0.291   1.351
45922W        W17505   6.772  22.507   4.732
45923W        W17506   4.491  20.796   2.143
45924W        W17507   4.553  42.853   5.183
45925W        W17508   4.887   2.454   0.967
45926W        W17509  20.085  36.554   3.670
45927W        W17510  42.282  40.115  12.453
45928W        W17511  23.135  38.026  12.107
45929W        W17512  17.543   8.392  13.409
45930W        W17513   8.961  21.778  11.515
45931W        W17514  42.960  33.978   2.018
45932W        W17515  11.650  35.382  14.906
45933W        W17516  21.090  38.552  14.325
45934W        W17517  15.275  17.570   0.483
45935W        W17518  17.752  37.047   5.022
45936W        W17519   0.672  17.172   2.272
45937W        W17520  32.461  28.715   0.427
45938W        W17521  19.028  24.591  14.864
45939W        W17522  13.187  27.731   2.246
45940W        W17523  41.042   3.180  13.957
45941W        W17524  16.195   1.729  13.980
45942W        W17525  16.288   8.374   4.068
45943W        W17526  33.579  35.821  10.424
45944W        W17527  37.722  41.789   1.003
45945W        W17528  31.152  43.235  14.484
45946W        W17529  42.145   3.690  11.953
45947W        W17530  37.532  24.405   0.422
45948W        W17531  29.995  33.869  10.320
45949W        W17532  31.031  12.936   2.222
45950W        W17533   7.489  15.188   2.364
45951W        W17534  35.880  12.334   0.282
45952W        W17535  44.380  14.115   4.988
45953W        W17536   1.515  19.276  13.481
45954W        W17537  25.581  41.811  14.759
45955W        W17538   0.087   5.355  12.449
45956W        W17539  20.254  20.206  12.007
45957W        W17540  35.917  43.460  12.072
45958W        W17541   3.940   8.708  11.217
45959W        W17542  15.798  38.760   1.192
45960W        W17543  43.741  12.798   0.794
45961W        W17544  33.083  15.108   0.234
45962W        W17545  41.411   4.951   1.434
45963W        W17546  31.596  17.595   0.085
45964W        W17547  34.957  37.326  10.533
45965W        W17548  15.726  39.891   4.321
45966W        W17549  44.709   0.329   1.251
45967W        W17550  42.268  13.231  12.875
45968W        W17551   1.306  16.360   4.835
45969W        W17552   3.122   3.844  14.619
45970W        W17553   7.389  36.145   4.388
45971W        W17554  11.745  34.895   0.018
45972W        W17555   0.008  11.173   3.723
45973W        W17556   6.262  44.447  13.257
45974W        W17557  43.155  25.201   4.447
45975W        W17558  39.569  11.111  13.956
45976W        W17559  13.435  32.093  14.802
45977W        W17560  13.028  21.018   3.710
45978W        W17561  30.783  26.180  13.251
45979W        W17562  39.073  40.754   1.959
45980W        W17563   6.437  30.749   5.025
45981W        W17564   1.790  13.298  12.984
45982W        W17565  16.068  14.295   1.849
45983W        W17566  19.405  38.079  14.214
45984W        W17567  24.938  25.960   4.010
45985W        W17568  17.763  42.795   0.386
45986W        W17569  36.584   4.755  11.892
45987W        W17570   6.842  14.540   3.739
45988W        W17571   5.000  38.081   3.503
45989W        W17572  29.253   3.657  11.062
45990W        W17573  25.135  43.213  10.365
45991W        W17574  34.181  40.366   4.244
45992W        W17575   7.376   3.878   2.923
45993W        W17576  36.301  22.868  11.624
45994W        W17577  29.117   7.382   1.741
45995W        W17578  20.046  31.980  12.351
45996W        W17579  12.863  30.918   1.827
45997W        W17580  31.081  24.532   4.652
45998W        W17581  28.001  37.512  13.924
45999W        W17582  28.581  29.964  10.809
46000W        W17583  18.633  28.114   1.055
46001W        W17584  37.085  10.024  12.792
46002W        W17585  20.218  31.800   1.108
46003W        W17586   2.794  31.662  13.961
46004W        W17587  21.164  15.632   4.653
46005W        W17588  16.022  34.884   3.636
46006W        W17589   2.740   9.127  14.533
46007W        W17590  25.026  43.474   1.780
46008W        W17591  30.348  11.820   2.720
46009W        W17592  40.449  27.361   0.877
46010W        W17593  40.510   0.954   0.942
46011W        W17594  32.887   1.722  12.829
46012W        W17595  30.039  16.543   3.311
46013W        W17596   3.482  44.264   5.174
46014W        W17597  27.579   8.194   3.814
46015W        W17598  16.654  15.046   3.260
46016W        W17599  27.557  21.256  12.399
46017W        W17600   4.850  31.220   3.137
46018W        W17601  17.789  29.223  13.782
46019W        W17602  16.931   5.806   3.857
46020W        W17603  36.859   5.044  14.923
46021W        W17604  25.466  32.034   0.971
46022W        W17605  41.422  39.287  11.598
46023W        W17606  11.947  14.307   2.104
46024W        W17607  16.027   3.856  13.318
46025W        W17608  20.099  39.136   4.135
46026W        W17609   0.602  12.289  12.073
46027W        W17610  39.581  41.092   0.386
46028W        W17611  40.830  22.503   4.601
46029W        W17612  37.795  12.586  12.019
46030W        W17613   9.249  40.178  14.399
46031W        W17614  27.308  42.290   4.857
46032W        W17615   4.568  36.436   2.104
46033W        W17616  24.031  44.428  13.100
46034W        W17617  14.969  17.787  11.590
46035W        W17618  17.353  10.549  10.359
46036W        W17619  25.596  37.498   4.060
46037W        W17620   4.910   1.640   4.589
46038W        W17621  30.539   3.766  12.901
46039W        W17622   9.249  23.672   1.686
46040W        W17623  19.759  30.287  13.369
46041W        W17624  12.730   9.422   1.688
46042W        W17625  39.748  44.906  12.859
46043W        W17626  31.097  44.665   5.006
46044W        W17627   2.736  20.677   4.300
46045W        W17628  25.027  12.241   1.458
46046W        W17629   9.945  20.723  11.589
46047W        W17630  39.302   5.354  12.539
46048W        W17631   8.849  23.951   0.324
46049W        W17632  10.334   6.424   4.646
46050W        W17633  26.221  25.894  10.672
46051W        W17634   6.962  19.766   4.424
46052W        W17635  31.596  11.253   0.929
46053W        W17636  15.776   4.378   3.628
46054W        W17637  34.443   7.219  12.527
46055W        W17638  17.862  31.053   2.831
46056W        W17639  26.220  11.617   4.948
46057W        W17640  25.162   9.790  10.680
46058W        W17641   6.371  18.099  14.728
46059W        W17642  32.597  15.144   0.440
46060W        W17643   2.665  30.528  12.459
46061W        W17644  40.890  32.508   1.473
46062W        W17645  19.846   4.307   2.144
46063W        W17646  15.300  29.585  13.852
46064W        W17647  14.784  38.088  13.984
46065W        W17648  29.668   6.138   4.432
46066W        W17649  37.603  11.638   5.038
46067W        W17650  26.578  23.030  11.141
46068W        W17651  14.693  12.360   2.246
46069W        W17652  21.049  38.970  14.712
46070W        W17653  22.489  20.076  14.413
46071W        W17654  30.819   9.577  11.118
46072W        W17655  22.104  43.179   2.754
46073W        W17656  14.601  28.959   3.351
46074W        W17657  43.746   5.639   2.647
46075W        W17658  32.467   7.815  14.491
46076W        W17659  16.718  31.335  13.957
46077W        W17660  13.753  31.905  13.405
46078W        W17661  29.651  18.259   4.996
46079W        W17662   6.250  42.394   3.795
46080W        W17663  13.059   0.428   1.442
46081W        W17664   2.948   5.920   0.636
46082W        W17665   2.676  35.630   1.971
46083W        W17666   6.862  11.664  10.601
46084W        W17667  35.754   9.846   0.403
46085W        W17668  26.498  29.737  12.899
46086W        W17669  17.115  27.187  14.766
46087W        W17670  33.070  10.937   3.673
46088W        W17671  31.965  14.690   3.756
46089W        W17672  14.234  17.102  13.882
46090W        W17673  11.979  37.481   1.042
46091W        W17674  41.953  43.050   3.254
46092W        W17675  44.928  16.062   1.700
46093W        W17676   1.053  28.659  14.824
46094W        W17677  22.489   0.301   3.303
46095W        W17678  36.630  23.435  11.123
46096W        W17679  16.663  19.722   2.862
46097W        W17680  22.294  33.586   1.833
46098W        W17681  41.067   7.483  14.982
46099W        W17682  33.994  39.975   3.408
46100W        W17683  30.121  42.397   3.949
46101W        W17684  21.280  32.942   1.376
46102W        W17685  30.886  26.041   0.850
46103W        W17686  35.538   2.524  11.053
46104W        W17687  43.051  22.764  13.975
46105W        W17688  33.010  38.259  11.699
46106W        W17689   9.466  29.168   1.325
46107W        W17690  42.759  44.922  12.584
46108W        W17691  37.524  19.222  13.601
46109W        W17692   1.457  21.123  13.273
46110W        W17693  21.147   3.462   3.823
46111W        W17694   6.037   4.965   5.218
46112W        W17695  17.590  20.212   1.276
46113W        W17696  38.048  35.418  13.158
46114W        W17697  20.211   8.849  12.834
46115W        W17698   8.898   3.423  11.436
46116W        W17699   2.952   7.881   0.017
46117W        W17700  44.323   3.881   3.985
46118W        W17701   1.253   4.070   0.900
46119W        W17702   2.916   8.444   0.962
46120W        W17703   6.903  32.696   1.799
46121W        W17704  43.934  18.589   1.685
46122W        W17705  34.614  10.688   1.810
46123W        W17706   6.608  10.695  10.601
46124W        W17707  26.980  39.918   2.612
46125W        W17708  38.808  42.922   3.092
46126W        W17709  33.826  31.375  12.141
46127W        W17710  17.315  17.081   2.390
46128W        W17711  43.548  11.170  11.916
46129W        W17712  38.820  16.574  10.319
46130W        W17713  22.922  20.414  13.484
46131W        W17714   2.687   0.552   3.126
46132W        W17715  13.752  25.158   1.505
46133W        W17716   2.728  20.580   1.714
46134W        W17717   3.898  44.897   4.088
46135W        W17718  18.621   6.147  12.524
46136W        W17719  17.003   3.030   2.369
46137W        W17720  18.730  19.811   3.151
46138W        W17721  31.639   9.232   4.846
46139W        W17722  43.597  28.602   4.742
46140W        W17723   5.776   9.955   4.599
46141W        W17724  17.265  23.683   1.187
46142W        W17725  12.676  43.708   4.115
46143W        W17726  31.112  32.227  11.214
46144W        W17727  33.424  37.441  10.602
46145W        W17728  22.156  42.941  12.899
46146W        W17729  16.342  26.462   4.902
46147W        W17730  31.514   3.332  10.766
46148W        W17731  17.333  19.077  14.370
46149W        W17732   6.980  34.772   1.290
46150W        W17733  20.239  44.955   4.577
46151W        W17734  33.968   7.776  11.671
46152W        W17735  12.943  40.776  11.664
46153W        W17736  34.695  12.745  14.776
46154W        W17737  23.629  28.542  10.984
46155W        W17738  41.376  14.185  11.779
46156W        W17739  17.101  17.919  12.932
46157W        W17740  29.819   3.695  14.059
46158W        W17741  42.684  30.246  13.375
46159W        W17742  37.461  41.182   2.312
46160W        W17743  32.923  15.038  13.722
46161W        W17744  39.574   4.458  14.539
46162W        W17745   8.435  19.407  12.986
46163W        W17746   0.279  39.182  11.234
46164W        W17747  30.321  41.444   0.825
46165W        W17748  28.656  34.100  14.133
46166W        W17749   9.126  38.028   1.789
46167W        W17750  35.677  12.661   2.247
46168W        W17751  12.795  24.581   4.714
46169W        W17752  26.630  42.184  14.376
46170W        W17753  10.064   4.821   0.948
46171W        W17754  41.395  10.070   2.822
46172W        W17755  19.169  23.066   0.025
46173W        W17756   3.664  30.426   4.246
46174W        W17757   1.898   6.683   1.762
46175W        W17758  43.795  41.088  11.589
46176W        W17759  31.901  43.189  11.215
46177W        W17760   8.587  43.033   0.934
46178W        W17761   0.514  20.674  12.980
46179W        W17762  13.704  25.707  14.039
46180W        W17763  15.809  24.184  10.972
46181W        W17764  17.473  17.537  12.946
46182W        W17765  24.125   6.409  14.805
46183W        W17766   0.785  14.263  10.395
46184W        W17767  19.737   4.880   4.778
46185W        W17768   0.903  39.796  11.105
46186W        W17769  37.325  21.985   2.271
46187W        W17770  17.362  12.705   0.964
46188W        W17771   8.449  42.241  13.530
46189W        W17772  26.214  21.702  13.880
46190W        W17773  44.923  11.739   4.568
46191W        W17774  17.418  28.698   1.938
46192W        W17775  14.747   6.818   3.950
46193W        W17776  33.521  11.649   0.790
46194W        W17777   7.456   8.061  13.451
46195W        W17778  44.510  18.217  13.367
46196W        W17779  21.634  18.981  10.623
46197W        W17780  41.568  41.775  14.360
46198W        W17781  20.033  24.494   2.050
46199W        W17782  35.547  36.945  14.563
46200W        W17783  14.675   0.943   4.322
46201W        W17784  16.058   1.067   2.195
46202W        W17785  13.707   6.951   0.975
46203W        W17786   4.445  10.802  13.530
46204W        W17787  13.899  23.540   3.746
46205W        W17788  22.693  12.828  10.676
46206W        W17789  43.426  43.973   3.689
46207W        W17790   5.460  16.811   1.875
46208W        W17791   5.888  25.488   0.725
46209W        W17792  21.604  25.188  14.376
46210W        W17793  29.391  33.422   0.837
46211W        W17794  29.195  10.748  13.495
46212W        W17795   2.165   3.272   1.303
46213W        W17796   4.331  41.627   5.054
46214W        W17797  41.514  36.501   1.701
46215W        W17798   5.188  16.078   1.259
46216W        W17799  37.328   2.912  10.746
46217W        W17800  41.047   6.644   3.225
46218W        W17801  12.152  41.235   2.878
46219W        W17802  43.423  14.883   4.331
46220W        W17803  21.975  20.771  11.065
46221W        W17804   9.243  10.672   3.648
46222W        W17805  27.431  42.862  13.903
46223W        W17806  34.446   0.531   2.934
46224W        W17807   1.780  22.534   3.316
46225W        W17808  17.666   0.217   1.318
46226W        W17809  13.694  41.833  14.792
46227W        W17810  30.134  35.555  11.999
46228W        W17811  31.494  21.209  13.835
46229W        W17812   9.703   1.231  10.970
46230W        W17813  43.934   2.940  13.835
46231W        W17814  30.496  33.642   2.968
46232W        W17815  34.954  30.681   4.235
46233W        W17816  17.355  12.399  11.818
46234W        W17817  23.620  21.481  11.048
46235W        W17818  39.412  16.537  14.364
46236W        W17819  11.424   1.168   3.989
46237W        W17820  33.121  13.213  13.524
46238W        W17821  28.061  35.512   2.001
46239W        W17822  33.980   1.227  14.412
46240W        W17823  40.858  17.860   4.843
46241W        W17824   2.341  20.629  11.259
46242W        W17825  22.022  13.984  11.353
46243W        W17826  28.872  24.743  11.936
46244W        W17827  12.447   3.485  13.910
46245W        W17828  30.987  38.890  10.587
46246W        W17829   4.885   4.312   1.667
46247W        W17830  34.577   4.242  12.016
46248W        W17831  37.764   7.832  10.256
46249W        W17832  17.063  35.949   3.850
46250W        W17833  12.518  38.342   3.954
46251W        W17834   7.763  34.544   2.184
46252W        W17835  22.020  44.901   0.771
46253W        W17836  37.944  25.989   1.193
46254W        W17837   4.950  11.442  12.589
46255W        W17838  33.205  29.577  14.014
46256W        W17839  43.993  36.470   2.796
46257W        W17840  14.109  16.037  12.998
46258W        W17841  41.877   3.991  11.594
46259W        W17842  40.970  37.212  14.556
46260W        W17843   9.175  41.904  11.640
46261W        W17844  19.591  12.427  13.414
46262W        W17845  19.960  17.646  13.795
46263W        W17846  16.163   2.250   3.215
46264W        W17847  41.215  13.162   2.371
46265W        W17848  35.903  18.308  10.748
46266W        W17849   8.222  18.020  11.916
46267W        W17850  43.636  35.589  12.152
46268W        W17851  42.077  19.769  14.476
46269W        W17852  30.700  42.513  13.001
46270W        W17853   9.619  27.635   1.969
46271W        W17854  36.366  34.919   2.830
46272W        W17855  22.643  34.821   1.165
46273W        W17856  28.442   5.185  14.513
46274W        W17857  14.884  26.553   4.953
46275W        W17858  44.054  22.431  12.321
46276W        W17859  38.791  25.410   0.423
46277W        W17860  40.811  41.896   2.796
46278W        W17861  32.756  40.533   2.149
46279W        W17862  38.987   1.544  11.026
46280W        W17863  26.187  28.955  14.646
46281W        W17864  25.142   7.913  12.160
46282W        W17865  24.534   3.025  13.877
46283W        W17866   7.821  25.957  13.990
46284W        W17867  20.185   4.934   3.687
46285W        W17868  15.558  23.034   4.475
46286W        W17869   5.925  17.890  14.558
46287W        W17870   1.362  11.661  10.729
46288W        W17871   2.238   4.865   0.855
46289W        W17872  13.380   9.223  13.564
46290W        W17873  38.998  14.047  11.445
46291W        W17874   9.683   0.644   0.961
46292W        W17875  26.494  30.048   4.090
46293W        W17876  21.339  36.357  10.768
46294W        W17877  14.506  14.280   3.649
46295W        W17878  44.247   8.854   2.921
46296W        W17879  21.288  24.620   0.911
46297W        W17880  29.508   2.839  12.346
46298W        W17881  24.674   0.712  14.242
46299W        W17882  12.704  43.338   2.048
46300W        W17883  24.102   5.762  13.323
46301W        W17884  37.663  25.580  14.873
46302W        W17885  39.246  11.654   2.706
46303W        W17886   3.865  12.652   3.710
46304W        W17887   8.763  23.398   2.322
46305W        W17888  27.875  34.053  10.989
46306W        W17889  39.212  44.804  10.724
46307W        W17890  25.555  14.531   1.195
46308W        W17891  11.886  18.709   1.207
46309W        W17892  12.195   2.908   2.608
46310W        W17893  12.712  40.974  12.135
46311W        W17894   6.110  12.465  13.361
46312W        W17895  26.618  39.645   2.967
46313W        W17896  36.311  18.927   4.624
46314W        W17897  10.167  27.480  12.171
46315W        W17898  14.675   0.487  13.982
46316W        W17899  42.761  18.158   1.630
46317W        W17900   4.868  29.180   2.371
46318W        W17901  16.148   5.963   4.455
46319W        W17902   2.501  40.889   1.704
46320W        W17903   4.243  10.230  14.044
46321W        W17904   6.270   8.680  11.541
46322W        W17905  12.931  16.485   2.116
46323W        W17906  39.365  13.627   1.772
46324W        W17907  39.909  32.829   3.137
46325W        W17908  42.729  13.109  10.689
46326W        W17909   5.812  43.371   1.633
46327W        W17910  31.887   4.837   4.469
46328W        W17911  33.028  19.762  13.905
46329W        W17912  41.894  44.056  14.823
46330W        W17913  38.828  20.623   4.241
46331W        W17914   5.975   7.667   3.777
46332W        W17915  35.354   4.705  14.923
46333W        W17916  36.495  19.121  14.243
46334W        W17917  44.684  39.529  11.955
46335W        W17918  22.718  15.124   1.279
46336W        W17919  41.777  36.271   3.734
46337W        W17920   0.877  21.569   3.175
46338W        W17921   1.525  15.700   0.992
46339W        W17922   9.435  40.642   3.255
46340W        W17923   6.934   5.614  11.168
46341W        W17924  24.483   0.506   3.759
46342W        W17925  42.015  11.821   2.146
46343W        W17926  23.205  42.332   1.180
46344W        W17927   6.442  18.070   0.242
46345W        W17928   4.179  30.931  13.301
46346W        W17929   2.697  19.268  11.090
46347W        W17930  29.621   3.604  10.057
46348W        W17931   7.910  35.328  11.091
46349W        W17932  11.187  15.246  12.533
46350W        W17933  11.400  36.818   2.799
46351W        W17934  43.898  30.252   2.868
46352W        W17935  40.537  40.266   1.844
46353W        W17936  21.271  23.874   3.129
46354W        W17937  23.984  29.171   1.553
46355W        W17938  32.860  42.629  14.363
46356W        W17939  27.138  30.713   4.126
46357W        W17940  33.911  44.345   3.616
46358W        W17941  36.009  20.206   3.026
46359W        W17942  34.152  18.233  14.126
46360W        W17943  43.195  36.402   2.404
46361W        W17944  24.683  28.367   1.761
46362W        W17945  30.923  18.970   0.988
46363W        W17946  28.009  43.854   1.362
46364W        W17947  11.600   8.850  10.047
46365W        W17948  24.908  32.530  13.138
46366W        W17949   3.025   2.703   3.750
46367W        W17950   9.159  37.877  13.904
46368W        W17951  41.013  25.474   3.745
46369W        W17952  23.595   9.177   2.422
46370W        W17953  17.343  12.234   1.706
46371W        W17954  44.956  38.568  12.924
46372W        W17955  40.510  20.119   4.354
46373W        W17956   3.200  37.318   2.359
46374W        W17957  17.437  33.875  13.439
46375W        W17958  43.759  12.338  14.962
46376W        W17959   5.839   5.438   2.870
46377W        W17960  22.597  31.984   1.170
46378W        W17961  25.226  42.200   0.450
46379W        W17962  19.773  12.606   4.038
46380W        W17963   9.669  27.553  12.310
46381W        W17964  36.552   9.310  12.372
46382W        W17965  16.273  18.301   1.807
46383W        W17966   4.236  16.317   1.297
46384W        W17967  11.632  41.823   0.753
46385W        W17968   0.878  44.992   4.619
46386W        W17969  30.079   4.378   4.218
46387W        W17970  13.049   5.311  14.836
46388W        W17971   4.159  21.908   2.439
46389W        W17972  39.433   4.864   0.901
46390W        W17973   7.238   3.177  13.825
46391W        W17974  13.513  15.687   1.295
46392W        W17975  27.402  34.198  11.135
46393W        W17976  19.268  27.231  14.929
46394W        W17977  11.725  10.882   2.883
46395W        W17978  18.624  21.689   1.243
46396W        W17979  25.143   4.885   9.973
46397W        W17980  26.623  12.606   1.028
46398W        W17981   6.972  21.104   1.680
46399W        W17982   5.094  11.389  11.186
46400W        W17983  29.086  44.808  14.982
46401W        W17984   6.161  13.954   2.188
46402W        W17985  21.638  39.382  12.040
46403W        W17986  28.370  11.888  14.865
46404W        W17987  44.293  33.136  12.886
46405W        W17988   2.753  24.209  13.807
46406W        W17989   9.706  13.612  13.878
46407W        W17990   7.763   6.741  13.342
46408W        W17991   5.947  25.154  10.593
46409W        W17992  40.589  18.007   4.012
46410W        W17993  37.813  23.707   0.335
46411W        W17994  10.171  23.170   0.105
46412W        W17995  12.824  38.960   1.795
46413W        W17996  30.591  37.037   0.813
46414W        W17997  22.651   1.067  13.522
46415W        W17998   6.759  43.470   4.088
46416W        W17999  36.004   8.776   2.262
46417W        W18000   3.277  35.578   1.263
46418W        W18001  32.635  26.520   0.671
46419W        W18002  25.195  19.211  10.675
46420W        W18003  22.605  13.908   1.798
46421W        W18004   3.961  40.866  10.661
46422W        W18005  39.456   5.717  12.895
46423W        W18006  39.470  25.695   0.957
46424W        W18007  43.240  26.016  13.377
46425W        W18008  12.757  18.730  11.104
46426W        W18009  33.202   3.478  11.609
46427W        W18010  17.799  17.093   0.354
46428W        W18011  24.837   6.904  12.997
46429W        W18012  24.093  40.302   4.140
46430W        W18013   2.016   0.961   4.977
46431W        W18014  28.349  19.536  14.798
46432W        W18015  13.674  20.705  13.896
46433W        W18016  30.953  25.958  12.833
46434W        W18017  33.891  10.706   1.832
46435W        W18018  34.582   8.298   2.847
46436W        W18019  40.259  26.938  11.620
46437W        W18020  33.592  15.025  14.519
46438W        W18021   8.582  34.933   2.059
46439W        W18022  19.691  16.175   2.786
46440W        W18023  12.937  33.449  14.028
46441W        W18024  23.937  31.952   4.560
46442W        W18025   3.364   2.328   3.661
46443W        W18026   7.132  21.803  13.328
46444W        W18027   8.170  32.799  12.912
46445W        W18028  19.238  29.763  13.784
46446W        W18029  35.137   6.798  14.405
46447W        W18030   1.325  12.049   1.183
46448W        W18031  20.763   9.991  12.088
46449W        W18032  38.654  41.139  11.571
46450W        W18033  38.061  34.908   3.411
46451W        W18034   1.976   0.886  13.522
46452W        W18035  12.774  11.381   0.739
46453W        W18036   8.356  10.684  10.545
46454W        W18037   5.249  16.138   4.837
46455W        W18038  42.443  18.980  14.815
46456W        W18039  33.281  24.111  14.462
46457W        W18040  31.612  40.714   2.443
46458W        W18041  14.216  32.504  14.368
46459W        W18042  43.446  42.305  13.881
46460W        W18043  38.270  41.013  12.966
46461W        W18044  25.835  40.878  14.451
46462W        W18045  21.600  21.435   2.703
46463W        W18046  32.419  23.058  12.391
46464W        W18047   6.934   8.605   2.789
46465W        W18048  16.904  36.714   5.414
46466W        W18049   4.591  19.208  10.555
46467W        W18050  42.053  36.571  11.977
46468W        W18051   1.577  28.393   2.710
46469W        W18052  19.009   1.512   3.255
46470W        W18053  28.018   8.186  14.282
46471W        W18054  39.813  32.807   0.911
46472W        W18055  25.713  34.099  10.564
46473W        W18056  36.486  36.954  12.449
46474W        W18057  40.387  18.941   3.916
46475W        W18058  11.592  31.493  13.064
46476W        W18059  42.896  16.815  13.426
46477W        W18060  10.584   8.375   1.463
46478W        W18061  42.170  21.067   0.331
46479W        W18062   1.430  37.269  10.997
46480W        W18063   1.378  34.555   3.913
46481W        W18064  43.788  42.341  14.334
46482W        W18065  12.028  30.200   4.235
46483W        W18066  12.733  42.377  14.493
46484W        W18067  16.110  18.854   2.649
46485W        W18068  16.231  28.327   4.188
46486W        W18069  18.797  13.288   1.453
46487W        W18070   1.380  19.586  11.114
46488W        W18071  27.031  20.024  10.824
46489W        W18072   3.972   8.855  14.965
46490W        W18073  35.562  33.606  10.797
46491W        W18074  18.141   9.863  13.072
46492W        W18075  28.584   0.876   1.864
46493W        W18076  20.561  22.943   1.600
46494W        W18077  18.395  18.200  14.968
46495W        W18078  29.253  35.565   2.869
46496W        W18079  26.683  32.993  10.240
46497W        W18080  26.167  36.552   1.294
46498W        W18081   9.621  35.459  11.597
46499W        W18082  43.894  19.551   2.249
46500W        W18083  24.861  13.078   0.876
46501W        W18084  13.536  17.715   1.388
46502W        W18085   4.367   1.489   1.731
46503W        W18086  19.811  31.945  10.156
46504W        W18087  44.992  24.838  11.968
46505W        W18088   0.834   0.844   1.406
46506W        W18089  16.255   3.811  13.952
46507W        W18090  41.191  20.808   0.352
46508W        W18091  37.947  44.245   3.384
46509W        W18092   7.874  32.255  12.911
46510W        W18093  39.292   5.978   2.303
46511W        W18094  27.611  31.635   3.256
46512W        W18095  24.436  23.700  11.261
46513W        W18096  35.271  32.879  12.035
46514W        W18097  17.546  34.417   4.452
46515W        W18098  12.306  14.070   1.782
46516W        W18099   5.058  19.666  14.321
46517W        W18100  28.041  12.891  11.637
46518W        W18101   0.437   1.703  12.969
46519W        W18102  40.472  16.132   2.746
46520W        W18103   9.256  34.649  11.844
46521W        W18104   6.020  22.563  10.318
46522W        W18105  44.913  35.328  11.573
46523W        W18106   7.652  24.533  10.649
46524W        W18107  10.143  23.979   4.523
46525W        W18108  37.611  43.834  14.589
46526W        W18109  17.194  23.194  11.493
46527W        W18110  39.834  21.082   1.686
46528W        W18111  30.119  14.667   1.671
46529W        W18112  25.393  13.750  12.161
46530W        W18113  31.586  31.588  12.820
46531W        W18114  21.155   1.514   1.623
46532W        W18115   3.797  39.981  13.347
46533W        W18116   8.256  20.096  12.523
46534W        W18117  30.572  18.447   3.093
46535W        W18118  42.249  23.523   0.372
46536W        W18119  24.667  17.158   3.736
46537W        W18120   9.708  30.219  13.576
46538W        W18121   0.088  25.658  12.485
46539W        W18122  26.426  11.291  13.553
46540W        W18123  39.887  14.331   4.484
46541W        W18124  29.611  20.997  14.891
46542W        W18125  44.456  44.256  13.875
46543W        W18126  28.629  36.538   0.492
46544W        W18127  35.852  42.879   0.866
46545W        W18128  19.959   1.023   0.346
46546W        W18129  35.818   2.472   0.691
46547W        W18130  23.082  31.432   0.787
46548W        W18131  27.765  25.103  14.971
46549W        W18132   2.810  36.113   1.899
46550W        W18133  34.090  15.100   3.177
46551W        W18134  28.691   0.306   4.568
46552W        W18135  10.128  44.433  11.485
46553W        W18136  20.104  11.946  11.165
46554W        W18137  20.154  15.306   2.068
46555W        W18138  24.388  21.550   0.018
46556W        W18139  20.673  31.560   1.384
46557W        W18140  37.045  34.167  11.577
46558W        W18141  40.317  22.995  14.310
46559W        W18142  30.084   9.378   2.945
46560W        W18143  38.563  27.609   1.061
46561W        W18144   3.334  30.421  11.292
46562W        W18145  29.057  13.064   2.419
46563W        W18146   8.723   7.396   0.857
46564W        W18147   9.921  34.015   1.842
46565W        W18148  44.580  41.327  13.200
46566W        W18149   9.655  31.547  12.964
46567W        W18150  30.949  19.142   4.264
46568W        W18151  14.459  37.468   1.110
46569W        W18152  16.968  34.139   0.263
46570W        W18153   2.968  39.842  13.955
46571W        W18154  42.856  13.754  11.489
46572W        W18155   7.397   2.298   0.904
46573W        W18156  37.884  17.108  13.542
46574W        W18157  29.911  21.305   4.780
46575W        W18158  29.463   7.659  11.082
46576W        W18159  39.363   6.200   1.425
46577W        W18160  16.269  44.642   3.860
46578W        W18161  22.837  14.221  10.735
46579W        W18162   4.919   1.934   0.903
46580W        W18163  19.034  36.379  10.610
46581W        W18164  36.902   6.423   1.628
46582W        W18165  16.169   8.189   3.617
46583W        W18166  39.428  22.022  11.620
46584W        W18167   3.305  17.934  12.031
46585W        W18168  40.289  40.007   0.493
46586W        W18169  19.048  28.334  13.819
46587W        W18170   0.869  24.528  12.954
46588W        W18171  41.170   7.173   3.316
46589W        W18172  32.004  16.572   2.006
46590W        W18173  21.541  25.251  12.862
46591W        W18174  43.219  42.380  11.481
46592W        W18175   9.401  25.646  12.419
46593W        W18176  29.991   8.841   0.914
46594W        W18177  44.144   3.390   4.194
46595W        W18178  33.857   3.976   2.349
46596W        W18179   4.262  43.285  11.657
46597W        W18180  31.619  27.603  12.771
46598W        W18181  41.512  21.152   1.331
46599W        W18182   1.383  21.209  13.813
46600W        W18183  30.113  29.769  10.713
46601W        W18184   2.455  41.795   1.832
46602W        W18185   0.921  44.813   3.625
46603W        W18186  43.341  14.668  10.720
46604W        W18187  31.102   7.675  14.375
46605W        W18188  21.537  12.204   1.274
46606W        W18189  41.796   2.545   3.191
46607W        W18190  37.080  40.497  13.434
46608W        W18191  11.668  29.282   1.662
46609W        W18192  17.575  27.379   1.932
46610W        W18193   9.872   0.324   3.631
46611W        W18194  37.794  25.763  11.133
46612W        W18195  10.803  21.075   2.267
46613W        W18196  27.682  40.350  14.798
46614W        W18197  24.619   1.710   4.328
46615W        W18198  32.040   1.927   2.348
46616W        W18199  12.284  19.139   2.827
46617W        W18200  20.008  40.101   4.547
46618W        W18201  12.812   0.899   4.617
46619W        W18202   3.004  10.247   3.428
46620W        W18203  12.579   6.301   2.543
46621W        W18204  16.471  27.389   1.238
46622W        W18205  39.964  10.346  11.900
46623W        W18206  10.330  34.967   4.569
46624W        W18207  36.495  20.293  12.844
46625W        W18208  32.971  16.758   2.164
46626W        W18209  16.803  43.437   0.230
46627W        W18210  36.357  17.059   1.782
46628W        W18211  33.157  29.578   4.506
46629W        W18212  12.338  34.943  10.820
46630W        W18213  44.038   7.381  12.893
46631W        W18214   8.667  10.712  11.508
46632W        W18215  12.300  18.789  10.784
46633W        W18216  38.093   7.378  11.121
46634W        W18217  40.319  42.096  10.728
46635W        W18218  28.596  24.256   3.350
46636W        W18219  43.464  30.003  13.736
46637W        W18220   7.187  31.589  14.282
46638W        W18221  34.116  16.258   2.351
46639W        W18222  14.561  11.389   0.313
46640W        W18223  15.502  31.706  14.278
46641W        W18224  14.398  30.641  11.113
46642W        W18225  37.768  33.631   1.285
46643W        W18226  26.866   8.802  14.026
46644W        W18227   5.772  42.906  11.353
46645W        W18228  44.541  22.518   2.344
46646W        W18229  31.391  43.760  10.319
46647W        W18230   2.994  21.986   1.948
46648W        W18231   9.780   8.789   3.657
46649W        W18232  42.911  39.535   4.471
46650W        W18233  28.540  11.385   3.760
46651W        W18234  30.022  10.323   2.393
46652W        W18235  39.057   0.825   2.420
46653W        W18236  35.014  40.995  10.696
46654W        W18237  10.192  28.969  10.749
46655W        W18238  41.562   5.553  12.740
46656W        W18239  20.526  37.436   3.766
46657W        W18240  14.137   8.795  14.297
46658W        W18241  27.204  38.213  13.345
46659W        W18242  44.244  29.433  13.405
46660W        W18243  37.699  14.697   0.812
46661W        W18244   5.474  24.587   2.359
46662W        W18245  43.852   8.773  14.722
46663W        W18246  24.601   8.305  10.912
46664W        W18247   9.223  42.900  12.814
46665W        W18248  35.332  10.645   0.862
46666W        W18249  12.440  26.798  10.765
46667W        W18250  16.515  43.559  13.230
46668W        W18251  42.060  11.048  14.844
46669W        W18252  40.486  38.911  11.217
46670W        W18253   4.395  34.521  14.707
46671W        W18254  20.094  40.246  14.317
46672W        W18255  18.914   7.324  11.956
46673W        W18256  43.861  30.877  14.438
46674W        W18257   0.818  43.016   4.490
46675W        W18258  33.725  24.545   4.377
46676W        W18259  43.846   6.241   3.645
46677W        W18260  36.584  11.081  14.030
46678W        W18261  42.592  44.360  13.474
46679W        W18262   7.822  34.495  10.805
46680W        W18263   6.772   9.709  11.959
46681W        W18264  23.009  14.770   0.352
46682W        W18265  27.369   1.364  14.995
46683W        W18266  27.989   0.945  13.035
46684W        W18267  20.198   3.811   1.761
46685W        W18268   3.254  23.487   1.237
46686W        W18269  15.830  23.502   2.034
46687W        W18270  24.044  32.043   9.900
46688W        W18271  19.663  31.581   3.346
46689W        W18272  34.449  39.113   2.265
46690W        W18273  20.577  44.538   4.173
46691W        W18274  40.745  30.877  12.609
46692W        W18275  20.910  40.141  11.115
46693W        W18276  23.041  35.648  13.848
46694W        W18277  43.020  20.694   3.966
46695W        W18278  42.826  25.736  13.069
46696W        W18279   2.645  36.524   4.629
46697W        W18280  26.090  33.471  10.544
46698W        W18281  28.262  42.541  12.460
46699W        W18282  27.780   6.269  13.336
46700W        W18283   9.788  23.515   0.290
46701W        W18284   4.578  18.696  10.937
46702W        W18285   1.424  10.584  10.485
46703W        W18286  23.505  31.862   2.294
46704W        W18287  27.897   8.487  10.423
46705W        W18288  22.073   2.251  13.313
46706W        W18289   4.009  38.830  11.969
46707W        W18290   9.559  29.549   1.663
46708W        W18291  32.343   8.829  14.575
46709W        W18292  43.843  37.110   4.367
46710W        W18293  12.791   9.974  13.789
46711W        W18294  41.431  28.568  12.355
46712W        W18295  11.694   0.440  13.464
46713W        W18296  43.834  40.814  12.054
46714W        W18297  28.610  41.591  14.469
46715W        W18298  12.412  28.907   0.026
46716W        W18299  41.817   5.944  12.493
46717W        W18300   9.353  24.045   0.509
46718W        W18301  26.352   1.495   3.297
46719W        W18302  40.389   5.794   2.810
46720W        W18303   9.615  40.284  10.958
46721W        W18304  32.933   9.598   4.730
46722W        W18305  29.514  37.792   3.184
46723W        W18306  41.799   1.617   4.010
46724W        W18307  10.721  38.906   0.224
46725W        W18308  17.874  18.068   4.319
46726W        W18309  17.194  35.542   0.901
46727W        W18310   1.771  39.517   2.592
46728W        W18311  22.289  42.991   0.064
46729W        W18312  32.562  37.186  12.916
46730W        W18313  23.989   0.619   3.741
46731W        W18314  42.539  24.526  14.484
46732W        W18315   4.903   0.267   3.531
46733W        W18316  41.593  15.642  10.876
46734W        W18317  11.701  14.601  11.448
46735W        W18318  37.935  25.650   4.057
46736W        W18319   4.056  20.161  11.096
46737W        W18320  34.512  29.480  14.307
46738W        W18321  32.269  40.739   4.588
46739W        W18322  27.487  18.275   1.277
46740W        W18323   2.781  19.724   1.428
46741W        W18324  18.834  10.331   4.994
46742W        W18325  44.638  15.406  14.819
46743W        W18326   0.860  34.889   4.369
46744W        W18327  26.127  29.097   2.711
46745W        W18328  33.410  30.614  10.743
46746W        W18329  11.378  43.956   2.552
46747W        W18330  30.892   3.757   1.233
46748W        W18331  13.577   4.857   0.240
46749W        W18332  41.783  27.153  12.955
46750W        W18333  16.439   3.346  13.724
46751W        W18334  11.471  34.532  14.477
46752W        W18335  42.613  14.225  13.316
46753W        W18336   3.958   7.289  13.459
46754W        W18337  38.254  17.554   2.790
46755W        W18338  39.339   6.946  12.968
46756W        W18339  18.097   6.317   3.398
46757W        W18340  29.892  11.455  11.414
46758W        W18341  33.601   0.769  11.630
46759W        W18342   9.821  31.255   3.747
46760W        W18343  33.021  44.060   0.318
46761W        W18344   0.843  34.384   1.670
46762W        W18345  24.859  37.730  12.448
46763W        W18346  18.120  42.267   2.105
46764W        W18347  24.747  10.909  14.698
46765W        W18348  19.581  39.410   2.273
46766W        W18349  33.374  22.124   0.761
46767W        W18350  32.474  35.532  14.861
46768W        W18351  34.184  20.861  14.166
46769W        W18352  41.494   9.128  13.938
46770W        W18353  22.299  16.654   3.227
46771W        W18354  17.680  27.030   4.718
46772W        W18355  18.870  23.629  12.611
46773W        W18356  38.117  32.941   4.520
46774W        W18357   1.509  17.751  14.314
46775W        W18358   3.146   4.779  10.367
46776W        W18359  24.422   1.281  12.097
46777W        W18360  11.595  13.316   2.178
46778W        W18361  25.484  21.761  13.409
46779W        W18362  25.547  30.824  13.839
46780W        W18363  22.670  29.720   3.732
46781W        W18364  42.579   9.109  14.544
46782W        W18365  32.107   7.294   1.288
46783W        W18366  34.431  17.333   2.469
46784W        W18367  33.459  21.523   4.919
46785W        W18368   5.045  15.168   2.001
46786W        W18369  32.458  36.139  12.896
46787W        W18370   4.478  12.766  13.814
46788W        W18371  44.444  20.639   2.345
46789W        W18372  25.155  13.409  11.893
46790W        W18373  25.250  17.607   2.806
46791W        W18374  34.051   2.210  12.605
46792W        W18375  36.955  26.078  14.946
46793W        W18376  41.670  23.700   9.864
46794W        W18377  15.456  21.950   3.753
46795W        W18378  27.609  10.637  12.901
46796W        W18379   3.355  22.692  12.178
46797W        W18380  43.563  41.355  12.459
46798W        W18381  28.437  21.782  12.565
46799W        W18382   2.568  12.835   0.510
46800W        W18383  33.157  22.602  11.451
46801W        W18384   4.022  33.376  14.393
46802W        W18385  14.185  33.021   2.804
46803W        W18386  18.913  18.395   2.779
46804W        W18387  36.292  19.022  12.906
46805W        W18388  43.038  34.961  12.019
46806W        W18389  19.823   6.262   0.500
46807W        W18390  15.643  24.819   0.917
46808W        W18391   8.170  23.174  12.011
46809W        W18392  38.439  37.964  14.050
46810W        W18393  16.515  32.932   0.390
46811W        W18394  19.255  15.920  11.711
46812W        W18395  44.020   6.368  12.985
46813W        W18396  11.631  38.913   1.378
46814W        W18397  16.735   1.521   1.883
46815W        W18398  40.457  39.597   2.424
46816W        W18399   2.813  40.471  10.929
46817W        W18400   6.964   2.977   0.409
46818W        W18401   3.010  36.088   5.491
46819W        W18402  13.319  21.639   1.434
46820W        W18403  38.017  21.203   0.336
46821W        W18404  20.358   8.688   4.942
46822W        W18405   0.472   7.866  11.569
46823W        W18406  21.415   1.335  13.971
46824W        W18407  20.523  43.943   1.466
46825W        W18408  13.673  31.132   4.857
46826W        W18409  31.614  32.425  14.380
46827W        W18410   1.741  18.647   1.752
46828W        W18411  35.546  44.679  14.283
46829W        W18412  32.622   1.316  14.791
46830W        W18413  15.551  44.015   3.185
46831W        W18414  32.422  36.209   0.548
46832W        W18415  11.199  11.737   1.383
46833W        W18416  30.296  36.130  11.847
46834W        W18417  17.064  11.806   1.635
46835W        W18418   9.268  13.305  13.872
46836W        W18419  41.450  22.078  12.105
46837W        W18420  25.503   9.332   4.200
46838W        W18421   8.833  40.320   2.639
46839W        W18422  28.960   4.548  11.478
46840W        W18423   6.932   1.065   0.838
46841W        W18424  43.857  41.775  10.842
46842W        W18425  44.418  27.047   0.478
46843W        W18426  33.160  25.106  14.794
46844W        W18427  17.568   0.500  14.893
46845W        W18428  38.816  21.317  11.161
46846W        W18429  30.014  14.927  13.106
46847W        W18430  18.749   9.822  10.373
46848W        W18431   3.532  38.068  10.673
46849W        W18432   5.017  25.321  13.220
46850W        W18433   4.272  43.015   0.722
46851W        W18434  41.415  35.541   4.583
46852W        W18435  22.810  25.628  11.258
46853W        W18436  40.020  15.753   1.999
46854W        W18437  35.769   6.438   3.301
46855W        W18438   9.099  43.396  11.235
46856W        W18439   4.337  16.368  10.591
46857W        W18440  12.809  24.559  11.526
46858W        W18441   4.378  20.024  13.927
46859W        W18442   8.988   3.792  12.057
46860W        W18443  41.924  41.546   0.123
46861W        W18444  39.660  20.188   3.260
46862W        W18445  10.078   3.976  13.287
46863W        W18446  40.529  12.158   1.585
46864W        W18447  34.556  36.192   4.510
46865W        W18448  34.641  15.880  12.398
46866W        W18449  40.057  43.879   0.281
46867W        W18450  24.228  10.209  11.175
46868W        W18451   1.701   9.898   2.873
46869W        W18452  38.829  32.647  10.578
46870W        W18453  44.241   4.446   4.577
46871W        W18454  10.283  22.973  11.218
46872W        W18455  22.372   7.393  14.766
46873W        W18456  30.625  11.674  14.255
46874W        W18457  28.173  10.757  11.115
46875W        W18458   2.415   3.679   1.493
46876W        W18459  19.467  44.255   1.442
46877W        W18460   0.709  27.885  14.995
46878W        W18461  40.718  14.238  12.541
46879W        W18462  33.515  39.939   3.660
46880W        W18463  20.011  36.309  14.770
46881W        W18464  25.995  43.940  14.107
46882W        W18465  17.088   7.213   2.199
46883W        W18466   0.484  37.361   3.709
46884W        W18467  22.647  19.479  12.517
46885W        W18468  11.117  40.479  13.400
46886W        W18469   5.927   7.308   1.162
46887W        W18470  31.420  20.484   0.965
46888W        W18471  13.296  33.066  14.015
46889W        W18472  10.212  12.854  13.848
46890W        W18473  38.322  10.058  14.044
46891W        W18474  26.371   2.800  10.535
46892W        W18475  13.234  19.742   3.499
46893W        W18476  37.065  20.580  13.912
46894W        W18477  25.160  13.812   1.424
46895W        W18478  26.644  34.191  11.960
46896W        W18479   9.651  22.067   2.432
46897W        W18480  21.461  38.482   1.935
46898W        W18481   4.177  19.529  13.869
46899W        W18482  42.840   7.705   1.747
46900W        W18483  37.067  32.983   4.536
46901W        W18484  42.447  29.432  11.920
46902W        W18485   0.260  13.296  14.857
46903W        W18486  30.604  10.744  10.752
46904W        W18487  43.487   6.917   1.197
46905W        W18488   8.354  42.579   3.893
46906W        W18489   9.787   3.671  11.113
46907W        W18490  37.967  21.995   4.544
46908W        W18491  39.296   4.838   4.377
46909W        W18492  27.387  33.940   9.865
46910W        W18493  38.600   1.424   4.191
46911W        W18494  26.453  13.572  11.993
46912W        W18495  32.498  23.773   4.571
46913W        W18496  15.780  34.110  14.358
46914W        W18497  44.141  34.603  11.546
46915W        W18498  14.799   8.312  14.241
46916W        W18499   0.224  13.009   4.215
46917W        W18500  19.246  27.420   1.737
46918W        W18501  25.282  19.648   2.412
46919W        W18502  26.719  26.804   0.423
46920W        W18503  41.988  14.146  14.800
46921W        W18504  27.701   9.334   1.480
46922W        W18505  35.465  17.201  12.127
46923W        W18506   5.396  12.917   2.167
46924W        W18507   4.166  43.035   3.064
46925W        W18508  28.132  33.151   1.966
46926W        W18509   4.618  32.713   5.272
46927W        W18510  18.285  16.831  13.525
46928W        W18511  19.820  30.051   0.646
46929W        W18512  18.698  15.652   0.439
46930W        W18513  12.280  21.063   3.751
46931W        W18514  11.771  10.699   0.510
46932W        W18515   6.928  26.740  11.087
46933W        W18516  13.275  15.659   4.075
46934W        W18517   2.975  44.615  12.547
46935W        W18518   5.351  39.515   0.259
46936W        W18519  23.924  11.915  12.422
46937W        W18520  27.899  33.507  11.009
46938W        W18521  14.359  37.974  10.488
46939W        W18522  25.591  33.921   2.740
46940W        W18523  24.977  29.063  14.233
46941W        W18524  31.071  39.278   3.994
46942W        W18525  38.209   9.922  12.456
46943W        W18526   2.241  41.986   0.536
46944W        W18527  27.552   4.740  13.934
46945W        W18528  13.366   0.633   2.381
46946W        W18529  42.581  20.170   0.679
46947W        W18530  40.016  34.097  11.927
46948W        W18531  35.810  26.567  14.328
46949W        W18532  23.086   2.474   1.875
46950W        W18533  11.673   5.839  11.591
46951W        W18534  42.059  26.728  10.710
46952W        W18535  42.868  20.483   4.830
46953W        W18536  36.457  16.322   3.135
46954W        W18537  43.575  39.910   0.107
46955W        W18538  10.132  33.506  12.991
46956W        W18539  36.099  35.469   0.248
46957W        W18540  27.700   2.887   2.847
46958W        W18541  11.381   7.740  12.466
46959W        W18542  40.728  35.822  14.320
46960W        W18543  24.321  17.169   0.393
46961W        W18544  38.340  34.989  11.609
46962W        W18545  13.231  34.726   5.004
46963W        W18546  11.439   1.948   4.560
46964W        W18547  35.868  37.396  14.808
46965W        W18548  43.117  18.524   4.003
46966W        W18549  30.404  34.544  14.226
46967W        W18550  38.000  44.494   0.880
46968W        W18551  21.238   4.492   1.798
46969W        W18552   8.211  30.435  12.896
46970W        W18553  15.264   5.794  10.415
46971W        W18554  44.554  27.621  12.187
46972W        W18555   7.168   4.821  11.595
46973W        W18556  39.068   5.674  11.985
46974W        W18557  25.109  34.964  14.806
46975W        W18558  26.180  32.137   3.272
46976W        W18559  43.832  43.531   1.472
46977W        W18560  43.867  13.191   4.405
46978W        W18561  27.394   3.477  13.046
46979W        W18562   8.361  35.493   3.213
46980W        W18563  30.000  28.124  11.855
46981W        W18564   5.627  21.316  14.853
46982W        W18565  12.348  44.038   0.913
46983W        W18566   4.995   3.142  12.916
46984W        W18567  27.532  10.960   3.183
46985W        W18568   1.719  44.795  14.019
46986W        W18569  22.743  29.120  13.372
46987W        W18570  44.935  15.151  10.675
46988W        W18571  32.416  24.480  14.028
46989W        W18572  25.478  14.237   2.752
46990W        W18573   5.788  23.932  14.101
46991W        W18574  12.915  23.678  13.849
46992W        W18575  40.220  19.259   4.288
46993W        W18576  15.871  24.896   1.435
46994W        W18577  21.717   3.848  14.161
46995W        W18578   7.847  43.325   1.656
46996W        W18579  22.078   0.484   0.208
46997W        W18580  17.392  39.269   4.785
46998W        W18581  32.807  44.008  10.560
46999W        W18582  30.237  41.278  11.943
47000W        W18583  19.424  26.611  12.504
47001W        W18584   6.387  21.522  10.681
47002W        W18585  18.597  16.537  11.504
47003W        W18586  30.181  44.763  12.378
47004W        W18587   2.882  25.964   4.266
47005W        W18588  37.029  16.056   3.685
47006W        W18589   0.482  10.402   4.119
47007W        W18590  17.390  14.223   4.510
47008W        W18591   6.182   0.546  11.523
47009W        W18592  40.034  40.958   4.072
47010W        W18593   5.650   5.013   4.581
47011W        W18594  12.709   3.242   0.622
47012W        W18595  13.356   2.341   1.136
47013W        W18596  28.959  22.489  12.518
47014W        W18597   1.586  11.388   4.276
47015W        W18598   6.812  31.378   1.195
47016W        W18599   4.555  33.370  11.269
47017W        W18600  29.896  44.279   1.874
47018W        W18601  18.112  25.736  13.940
47019W        W18602   3.937  40.415   1.599
47020W        W18603   0.477  16.081   1.640
47021W        W18604  36.763  28.484  13.378
47022W        W18605  22.853  11.601   1.050
47023W        W18606  32.674   4.367   3.653
47024W        W18607  44.338  13.354   4.422
47025W        W18608  35.612  25.804  12.076
47026W        W18609  14.857  25.744   1.359
47027W        W18610  18.032  24.575   0.703
47028W        W18611   1.724  42.378   3.193
47029W        W18612  23.899   0.783   4.996
47030W        W18613   1.510  23.193  13.189
47031W        W18614  25.137  32.088   1.376
47032W        W18615   8.550  30.639   3.561
47033W        W18616   3.794   6.909   4.159
47034W        W18617  19.504  34.230  13.582
47035W        W18618  39.979  29.145   4.045
47036W        W18619  31.593  33.832   2.251
47037W        W18620  38.580   9.232  12.398
47038W        W18621  29.170   5.530   3.201
47039W        W18622  23.939   8.201  14.079
47040W        W18623   0.111  30.333  13.896
47041W        W18624  26.593  15.667   1.775
47042W        W18625  42.026  18.312  13.505
47043W        W18626  14.196  15.738  10.996
47044W        W18627   4.341  41.070  13.446
47045W        W18628  37.442  15.130   0.977
47046W        W18629  28.951  21.802   1.909
47047W        W18630  25.976   3.380   0.948
47048W        W18631  33.538   3.225  14.684
47049W        W18632   3.249  15.160   2.232
47050W        W18633  28.553  37.389   3.220
47051W        W18634  29.022   2.857  12.611
47052W        W18635  23.727  19.615  14.883
47053W        W18636  44.751  26.990  14.247
47054W        W18637  28.410  43.797  10.967
47055W        W18638  39.997  31.672  13.494
47056W        W18639   9.214  21.279   0.666
47057W        W18640  32.026  25.035   4.178
47058W        W18641  40.819  33.145   0.870
47059W        W18642  20.754  31.111  11.067
47060W        W18643   1.004  42.363  10.558
47061W        W18644  15.118   8.065   4.998
47062W        W18645  33.591  13.125   4.647
47063W        W18646  23.570  12.380  13.086
47064W        W18647   6.040  13.823  11.188
47065W        W18648  42.742  23.470   0.219
47066W        W18649  20.570  22.042  11.124
47067W        W18650  36.283  11.576   1.073
47068W        W18651  28.474   7.731   0.816
47069W        W18652   7.511  16.235  12.037
47070W        W18653  35.293  17.192  11.287
47071W        W18654  14.663  13.062  14.986
47072W        W18655  22.165  42.708  13.606
47073W        W18656  20.575  20.675  14.861
47074W        W18657  18.843  22.562   5.276
47075W        W18658   4.934  20.844  14.848
47076W        W18659  22.799   7.560   9.885
47077W        W18660  27.547  28.015   1.067
47078W        W18661   7.341   7.879  14.691
47079W        W18662  39.857  14.339   1.845
47080W        W18663  15.737  26.702   0.952
47081W        W18664  44.569  36.637  11.917
47082W        W18665  42.018  20.108   2.649
47083W        W18666  27.305  15.667  11.156
47084W        W18667  13.102  25.464   2.250
47085W        W18668   1.450  25.100  11.431
47086W        W18669  22.024  43.536   1.929
47087W        W18670  44.208  35.495   0.431
47088W        W18671  16.034  44.886   4.253
47089W        W18672  27.118  22.845  12.546
47090W        W18673  21.204  27.593  14.557
47091W        W18674   5.455  19.498   2.969
47092W        W18675   5.109  38.670   1.642
47093W        W18676  17.593  12.575   4.244
47094W        W18677  12.079  42.770   2.811
47095W        W18678  37.356  44.377  13.997
47096W        W18679  35.523  23.259  12.068
47097W        W18680  37.316  28.094  12.196
47098W        W18681  34.904  21.592  11.433
47099W        W18682  39.403  32.083  11.600
47100W        W18683  39.026  23.990  11.522
47101W        W18684  35.777  27.103   4.226
47102W        W18685  43.252  30.115   3.700
47103W        W18686  34.885  20.208  12.459
47104W        W18687  44.915  27.717   4.469
47105W        W18688  19.421  42.064   0.990
47106W        W18689   7.342   5.713   4.581
47107W        W18690  35.351  12.877  11.128
47108W        W18691   1.454  29.093  11.498
47109W        W18692  24.679  13.901   3.275
47110W        W18693  27.515  25.584  14.440
47111W        W18694   0.436  38.861   3.279
47112W        W18695  37.350  17.548  14.232
47113W        W18696  29.249  30.660   1.214
47114W        W18697  29.842  37.991  13.091
47115W        W18698  12.622  43.381   5.002
47116W        W18699   9.358  26.074  13.854
47117W        W18700  10.526   8.651  10.926
47118W        W18701  22.942  27.433  12.854
47119W        W18702   7.958  27.715   3.070
47120W        W18703  39.603  27.454   4.243
47121W        W18704  12.602  25.540   2.216
47122W        W18705  32.647  41.644   5.035
47123W        W18706  13.653   8.176  13.188
47124W        W18707  26.169   3.176  12.362
47125W        W18708  34.905   8.664   1.411
47126W        W18709   4.681  22.784   5.045
47127W        W18710  22.102  44.489  11.073
47128W        W18711  39.357  37.299   4.145
47129W        W18712  22.773  33.095  13.337
47130W        W18713  35.152  41.905  10.728
47131W        W18714  36.445   0.303  13.978
47132W        W18715  42.794  28.153   5.068
47133W        W18716  28.252  41.583   1.846
47134W        W18717  32.141  12.181  13.335
47135W        W18718  17.627  29.489   4.331
47136W        W18719  36.085   3.880  11.023
47137W        W18720  12.166  14.515  12.315
47138W        W18721   7.987  19.856   1.775
47139W        W18722  22.687  43.919   3.214
47140W        W18723  22.793  18.197   4.621
47141W        W18724  21.083  26.766   2.729
47142W        W18725  28.572  15.614  11.896
47143W        W18726  13.429  38.311  11.086
47144W        W18727   6.630  44.209  11.087
47145W        W18728   3.922  42.476  13.350
47146W        W18729   6.260   8.115   2.783
47147W        W18730  17.035  28.053   2.241
47148W        W18731  15.671   1.552   3.330
47149W        W18732   2.323  36.840   1.638
47150W        W18733   9.259  43.793  12.973
47151W        W18734  36.959  23.618   2.876
47152W        W18735  35.912   0.920   0.514
47153W        W18736  44.814   2.437   1.263
47154W        W18737   6.495  35.373  11.163
47155W        W18738  37.150   2.223   1.741
47156W        W18739  27.739  28.555   3.378
47157W        W18740  14.762  36.048   3.473
47158W        W18741  25.852   7.175   4.575
47159W        W18742  16.420  23.349   2.613
47160W        W18743  44.262  39.117   4.521
47161W        W18744  11.119  17.190   3.515
47162W        W18745  34.113   8.935  12.076
47163W        W18746  11.271  33.599  10.647
47164W        W18747   4.091  24.618  13.778
47165W        W18748  27.739  16.573  10.312
47166W        W18749   4.781   8.347  13.541
47167W        W18750  33.112   5.663   1.775
47168W        W18751   3.484  44.545  12.956
47169W        W18752  34.261  12.125   2.321
47170W        W18753  25.729  15.769  10.098
47171W        W18754  11.128  21.145   2.674
47172W        W18755  42.437  30.632  10.670
47173W        W18756  33.162  17.469  14.492
47174W        W18757  23.677  14.830  12.558
47175W        W18758  39.772   8.756   3.360
47176W        W18759  33.198  41.705   4.211
47177W        W18760  14.781  37.882  11.194
47178W        W18761  22.259   9.457  10.687
47179W        W18762  16.149   8.339   0.519
47180W        W18763  30.129  31.551   1.973
47181W        W18764  13.343  22.655  12.304
47182W        W18765  25.469  12.407   2.786
47183W        W18766  14.407  28.659  10.641
47184W        W18767  26.787  28.056  13.112
47185W        W18768  26.708  30.041  13.285
47186W        W18769  24.951   9.368   4.180
47187W        W18770  25.737  10.881   1.856
47188W        W18771  43.628   3.510  10.453
47189W        W18772   0.888   5.898  14.995
47190W        W18773  33.128   0.975  12.358
47191W        W18774  37.988  20.931  14.485
47192W        W18775  33.678  22.602  14.037
47193W        W18776   1.941  15.127  12.548
47194W        W18777  40.034  15.231   0.959
47195W        W18778   8.568  16.328   3.729
47196W        W18779  20.562  16.222   0.965
47197W        W18780  20.647   8.682   4.263
47198W        W18781  10.459  28.145  12.024
47199W        W18782  43.291   8.513   5.074
47200W        W18783   3.578   2.431   1.392
47201W        W18784  33.834  35.350   4.932
47202W        W18785  18.700  43.746   3.618
47203W        W18786  34.950   5.277   0.801
47204W        W18787   1.592  13.669   1.747
47205W        W18788  34.337  33.774  14.236
47206W        W18789  42.933  11.602  14.864
47207W        W18790  19.333  28.741   1.484
47208W        W18791  42.498   2.211  13.056
47209W        W18792   1.346  22.120  10.669
47210W        W18793  11.703  25.985  13.888
47211W        W18794   8.673  24.543   2.999
47212W        W18795   5.602  26.857  14.036
47213W        W18796  33.417  28.926   0.562
47214W        W18797  27.288  27.368   2.430
47215W        W18798  27.568  11.359  14.344
47216W        W18799  23.215  34.392   4.978
47217W        W18800  36.314  15.996   1.689
47218W        W18801  11.980  27.604  14.736
47219W        W18802  38.097  21.216   1.769
47220W        W18803  25.183  20.774  10.473
47221W        W18804  35.767  30.176  11.564
47222W        W18805   8.164  35.363  13.104
47223W        W18806   3.473  10.060   3.194
47224W        W18807   9.991  35.858  12.898
47225W        W18808  36.242  13.604   3.291
47226W        W18809  11.669   0.452  13.972
47227W        W18810  11.648  42.802   3.237
47228W        W18811  27.013  11.086   0.137
47229W        W18812  24.723  32.144  12.812
47230W        W18813  35.349  14.295   0.160
47231W        W18814  10.678  37.391  14.256
47232W        W18815  42.352  39.938   3.678
47233W        W18816  19.797  31.418  11.197
47234W        W18817  36.451  21.706  12.122
47235W        W18818  22.108  38.095  14.152
47236W        W18819  22.065   7.938   1.217
47237W        W18820  42.769  31.719   2.696
47238W        W18821  39.061  11.743   0.390
47239W        W18822  26.951  43.754   2.266
47240W        W18823  12.898  16.911  11.996
47241W        W18824   3.937  19.174   2.950
47242W        W18825  11.526  15.645  12.494
47243W        W18826  12.364   1.186   1.269
47244W        W18827  31.655   0.820  11.259
47245W        W18828  33.013  30.984   4.389
47246W        W18829   1.601  27.093  12.027
47247W        W18830  37.876  38.268   1.419
47248W        W18831   5.974   1.599   2.818
47249W        W18832  16.015  30.667   3.662
47250W        W18833  34.096  12.074  13.006
47251W        W18834  14.318  31.494  12.209
47252W        W18835  42.104  32.262   1.198
47253W        W18836   3.380  36.350   2.579
47254W        W18837  37.986   0.007   1.919
47255W        W18838  18.856   4.745  13.997
47256W        W18839  31.672  27.080  11.610
47257W        W18840   1.947  15.045   3.813
47258W        W18841  12.097  31.196  11.317
47259W        W18842  27.546  44.246  13.261
47260W        W18843  10.154  16.290  14.083
47261W        W18844  21.163  38.292  13.851
47262W        W18845  28.891  31.014  12.025
47263W        W18846   7.098   6.451   4.148
47264W        W18847  28.033  11.192   0.287
47265W        W18848  28.794  10.708  14.362
47266W        W18849  29.245  16.612   2.278
47267W        W18850   6.618  42.102  12.050
47268W        W18851  32.003  27.378  12.988
47269W        W18852  28.920  18.438  11.598
47270W        W18853  14.253  17.997   4.415
47271W        W18854  28.402  25.743   1.600
47272W        W18855  19.144  40.751   4.843
47273W        W18856  15.348  16.315  13.975
47274W        W18857  36.512  31.879  10.550
47275W        W18858  10.278  15.590   5.209
47276W        W18859  27.188  40.459  14.444
47277W        W18860  28.648   4.700  10.948
47278W        W18861  39.529  23.015  12.979
47279W        W18862  22.999   7.729   5.402
47280W        W18863  37.843  34.141  10.314
47281W        W18864  32.960  25.128  11.470
47282W        W18865  33.002  35.136  14.304
47283W        W18866  21.787  41.426   2.771
47284W        W18867  23.279  18.646   2.226
47285W        W18868  11.418  12.838   2.232
47286W        W18869  14.133  24.514  11.984
47287W        W18870  17.777   7.773  11.499
47288W        W18871  12.844  33.445   4.570
47289W        W18872  10.348  22.098   0.419
47290W        W18873   0.212   0.495  13.461
47291W        W18874  40.312  38.344  14.736
47292W        W18875  36.835   1.847   3.385
47293W        W18876  30.667  36.913   2.375
47294W        W18877  42.892  30.131   3.303
47295W        W18878  32.017  18.476   4.553
47296W        W18879   1.606  22.061   4.259
47297W        W18880   0.213  16.342  11.214
47298W        W18881  25.754   6.908  13.909
47299W        W18882  22.044  34.873   0.356
47300W        W18883  13.875  29.736  11.107
47301W        W18884  34.221  39.273  14.310
47302W        W18885  32.608  35.591  13.781
47303W        W18886   6.161  37.873  12.528
47304W        W18887  26.097  18.587   4.647
47305W        W18888  14.764  41.532   4.102
47306W        W18889  14.506   9.196  14.353
47307W        W18890  30.696  39.773  10.757
47308W        W18891   8.640  41.844  10.799
47309W        W18892  26.087  36.329  12.013
47310W        W18893  18.322  42.839  10.680
47311W        W18894  37.549  21.646  12.485
47312W        W18895  23.114  33.460  13.460
47313W        W18896  39.493  34.329   3.818
47314W        W18897  16.253  30.947   1.713
47315W        W18898   9.942   7.269   4.627
47316W        W18899  32.513  26.642   5.072
47317W        W18900  20.385  36.475   1.939
47318W        W18901   8.995  25.464  10.395
47319W        W18902   1.800  16.814  12.972
47320W        W18903  16.476  15.965  12.949
47321W        W18904  14.378  20.035   0.897
47322W        W18905  30.576  38.352  12.356
47323W        W18906  36.399   3.247   1.870
47324W        W18907   9.157  41.934  13.931
47325W        W18908  19.066  16.743  11.636
47326W        W18909  32.609  40.945   0.992
47327W        W18910  27.459  39.593   3.297
47328W        W18911  20.163  21.900  12.211
47329W        W18912  18.238  37.312  13.063
47330W        W18913  20.654  39.859   3.212
47331W        W18914  44.496  31.251   0.942
47332W        W18915  35.522   3.703  14.372
47333W        W18916  31.558  19.715   3.706
47334W        W18917  26.407  39.488  13.328
47335W        W18918  28.614  41.249   4.245
47336W        W18919  36.492  38.422   1.471
47337W        W18920  27.180   5.250  13.018
47338W        W18921   1.727  18.849  11.446
47339W        W18922  20.097  43.015   0.158
47340W        W18923  36.281  13.839  12.492
47341W        W18924  11.579  36.422   4.461
47342W        W18925   2.685  22.624  13.437
47343W        W18926  11.805  33.316  12.316
47344W        W18927  15.825  40.409   3.641
47345W        W18928  32.385  16.089  13.599
47346W        W18929  22.327  22.654  13.885
47347W        W18930  13.400  12.881  13.926
47348W        W18931  22.487   1.723  11.165
47349W        W18932  28.971  44.846   4.617
47350W        W18933   7.995   7.938  12.976
47351W        W18934  41.265  24.524   3.854
47352W        W18935  31.066  10.138   2.868
47353W        W18936  22.104  10.100  12.405
47354W        W18937  21.190   8.634   0.786
47355W        W18938  33.379  26.981   3.195
47356W        W18939   0.708  42.783   2.185
47357W        W18940  18.999  29.758   5.508
47358W        W18941  14.699  36.114  14.324
47359W        W18942  34.599  15.838  13.315
47360W        W18943   7.595   3.411   9.852
47361W        W18944  44.511   4.973   0.944
47362W        W18945  21.051  22.427   1.256
47363W        W18946  17.953  35.892  14.876
47364W        W18947   7.654  10.104  10.969
47365W        W18948  29.902  16.871  10.690
47366W        W18949  40.989  37.591   1.828
47367W        W18950   0.200  31.908  12.527
47368W        W18951  19.033  20.125  13.995
47369W        W18952  12.374  28.520   3.994
47370W        W18953  13.714  13.037   0.013
47371W        W18954  10.308  36.453   1.237
47372W        W18955  17.711  25.909  14.229
47373W        W18956   8.393  26.925   4.504
47374W        W18957  42.263  41.508  12.899
47375W        W18958  34.629  14.533   4.123
47376W        W18959  29.983   3.877   4.110
47377W        W18960   8.825  14.277   4.574
47378W        W18961  29.379  41.878   2.184
47379W        W18962   5.643  30.011   1.270
47380W        W18963  32.127  30.073   3.676
47381W        W18964   0.993  27.476   1.811
47382W        W18965   2.958  39.444   3.298
47383W        W18966   9.907   9.680  12.941
47384W        W18967  37.961  44.973  14.655
47385W        W18968  31.635  30.427  11.229
47386W        W18969  34.614  11.889  13.532
47387W        W18970  24.569  28.190  14.085
47388W        W18971  20.270   7.343  12.707
47389W        W18972  22.619  27.769  12.557
47390W        W18973  25.251  11.449  14.282
47391W        W18974  23.755   3.843   3.108
47392W        W18975  34.893  43.932  14.560
47393W        W18976  19.623  13.772   3.290
47394W        W18977   0.478  39.408   3.774
47395W        W18978  19.363  27.993   4.588
47396W        W18979  28.423   4.388   0.776
47397W        W18980  25.756  23.047  10.640
47398W        W18981  43.025  24.659  12.623
47399W        W18982  30.729  36.415   2.208
47400W        W18983   6.868  22.156   0.316
47401W        W18984  34.372  22.243  11.831
47402W        W18985  26.049   9.183   3.318
47403W        W18986  40.412  16.820   2.329
47404W        W18987  43.811  43.810  14.826
47405W        W18988   6.325  29.014  12.335
47406W        W18989  36.579  43.331  14.350
47407W        W18990  33.921  21.531  11.843
47408W        W18991   6.663  23.021  12.906
47409W        W18992   9.663  16.571   0.590
47410W        W18993  20.570  31.466   3.396
47411W        W18994  19.788  27.523   0.047
47412W        W18995   5.912   5.383   1.414
47413W        W18996  34.627   4.213  10.664
47414W        W18997  23.122  30.751   5.560
47415W        W18998  25.724  23.138   3.757
47416W        W18999  26.798  36.969  14.858
47417W        W19000  31.725   4.221  10.633
47418W        W19001  27.267  12.607   0.438
47419W        W19002  33.605  16.882   1.423
47420W        W19003  36.819  31.467   4.780
47421W        W19004  41.431  15.077  13.556
47422W        W19005  43.567   3.881   3.750
47423W        W19006  15.464   9.449   1.721
47424W        W19007  10.791  27.129   2.887
47425W        W19008  17.097  37.943  10.172
47426W        W19009  34.236  18.177   4.306
47427W        W19010  15.899  39.934  13.187
47428W        W19011  12.715   0.232   0.444
47429W        W19012   2.416  35.464  13.304
47430W        W19013  26.894  29.463   3.739
47431W        W19014   9.703  36.949   1.754
47432W        W19015   9.797  17.754   1.895
47433W        W19016  21.683  20.447  14.019
47434W        W19017  22.122   4.359   3.839
47435W        W19018  33.445  38.583   0.407
47436W        W19019  38.537   6.844   0.594
47437W        W19020  24.145  37.367  12.811
47438W        W19021  32.694   8.452  14.974
47439W        W19022  21.920  31.192   4.093
47440W        W19023  12.459  19.477   3.180
47441W        W19024  42.365   9.751   4.303
47442W        W19025   1.304  12.530   0.384
47443W        W19026   2.235   3.344  10.601
47444W        W19027   1.580  39.138   4.687
47445W        W19028  13.619  12.445   2.992
47446W        W19029  22.742  22.539   0.280
47447W        W19030  40.902  12.908  13.952
47448W        W19031  11.412  43.308  13.943
47449W        W19032   1.912  11.110  11.933
47450W        W19033  12.557  40.319  14.327
47451W        W19034   5.279  10.793   2.367
47452W        W19035  33.055   0.972  14.041
47453W        W19036   2.490  12.134  14.518
47454W        W19037  33.871  15.285  13.308
47455W        W19038  41.592   7.260  12.249
47456W        W19039  32.984  29.614   1.371
47457W        W19040  11.163  20.056   4.694
47458W        W19041  39.307  33.087  14.709
47459W        W19042  31.149  30.583   3.032
47460W        W19043  44.661   4.327  11.021
47461W        W19044  43.262   8.455  13.560
47462W        W19045  38.498  35.832   3.721
47463W        W19046   4.799   4.851   9.972
47464W        W19047  27.674  38.999  12.263
47465W        W19048  24.506  37.510   1.983
47466W        W19049   6.646  40.202   0.915
47467W        W19050  39.547  10.664  13.540
47468W        W19051  23.512  12.889  11.616
47469W        W19052   1.683  23.710   3.951
47470W        W19053  21.771  32.440  14.524
47471W        W19054  23.780  35.106  14.716
47472W        W19055  16.110   2.445   0.839
47473W        W19056  35.339  10.840   3.794
47474W        W19057  23.340  16.039   3.630
47475W        W19058  42.438  21.620   4.655
47476W        W19059  37.041  16.548   2.294
47477W        W19060   3.955  23.790  11.501
47478W        W19061  43.469  40.261   0.483
47479W        W19062  10.031  33.538   5.023
47480W        W19063  34.953  26.426  11.452
47481W        W19064  10.970  15.520   4.489
47482W        W19065  29.074  28.475   0.784
47483W        W19066   1.143  16.108  12.032
47484W        W19067  21.251   0.948  11.240
47485W        W19068  18.587  40.125   4.834
47486W        W19069  39.813  23.279   1.805
47487W        W19070  15.542  19.481  13.578
47488W        W19071  20.423  42.888   2.242
47489W        W19072  35.392  17.139   3.790
47490W        W19073  28.957  28.971  10.484
47491W        W19074  20.278  18.010  13.631
47492W        W19075  42.043   3.328   1.428
47493W        W19076   4.872   5.959  11.014
47494W        W19077  22.258  10.594  13.890
47495W        W19078  15.787  15.984   2.525
47496W        W19079  21.313  37.051  12.878
47497W        W19080  18.194   4.692   4.269
47498W        W19081   4.273   2.855  13.257
47499W        W19082  16.033  36.856  11.312
47500W        W19083  16.012  39.033   1.929
47501W        W19084  41.148   2.842  12.616
47502W        W19085  43.029  19.917  14.096
47503W        W19086  22.737  14.170  12.104
47504W        W19087  37.470  20.585   2.762
47505W        W19088  30.201  22.547   0.840
47506W        W19089  31.609  17.191  13.312
47507W        W19090  15.258  21.291   0.436
47508W        W19091  16.341  42.938  11.676
47509W        W19092  35.442  30.158  11.162
47510W        W19093   6.368  16.358   3.165
47511W        W19094  39.313  11.276  14.404
47512W        W19095  37.032  11.367   3.780
47513W        W19096  22.452  10.197  13.259
47514W        W19097   0.733  14.207  13.512
47515W        W19098  24.209  42.516   2.726
47516W        W19099  13.787  33.207   1.990
47517W        W19100   4.213  37.652  11.127
47518W        W19101  17.293  44.363   1.327
47519W        W19102   8.801  43.611   3.134
47520W        W19103  16.921  35.080   0.983
47521W        W19104  43.733  22.467  11.930
47522W        W19105   3.228  24.274   1.733
47523W        W19106   1.245  29.310  14.207
47524W        W19107  20.674  31.521  13.798
47525W        W19108   4.364  25.774   2.311
47526W        W19109   7.292   4.659  10.656
47527W        W19110   6.690  44.285   0.311
47528W        W19111  23.628  26.518  11.532
47529W        W19112  15.751   1.454  13.848
47530W        W19113  42.382  12.711  12.798
47531W        W19114  11.971  30.728   3.540
47532W        W19115   2.477   1.430   1.985
47533W        W19116  40.000   5.006   1.533
47534W        W19117  17.195  42.424   2.146
47535W        W19118  20.293   8.329   4.301
47536W        W19119  34.085  21.710  13.069
47537W        W19120  15.229  42.837  12.986
47538W        W19121  17.211   6.001  10.352
47539W        W19122   7.781   5.100  10.302
47540W        W19123   5.771   8.264   2.619
47541W        W19124  27.226  34.611  14.803
47542W        W19125  38.578  44.365  14.390
47543W        W19126   1.484  38.953  14.396
47544W        W19127  36.038  28.998  12.377
47545W        W19128  38.864   6.899   3.713
47546W        W19129  13.626  10.401  10.262
47547W        W19130  33.141  42.192   3.077
47548W        W19131  18.666  21.893   0.775
47549W        W19132  41.047   2.653  14.036
47550W        W19133  40.933  38.579   1.773
47551W        W19134  10.715  27.275  14.690
47552W        W19135  26.898  29.403  12.996
47553W        W19136  12.367  15.475   0.092
47554W        W19137  38.387  25.681  11.062
47555W        W19138   4.869  26.978   2.211
47556W        W19139   6.939  10.684  11.879
47557W        W19140  38.508  11.881   3.277
47558W        W19141  40.328  27.164   1.935
47559W        W19142  20.693  19.137  12.845
47560W        W19143  25.347  38.440  11.519
47561W        W19144   9.810  22.134  12.889
47562W        W19145  15.351  26.544   1.290
47563W        W19146  17.573  18.057   2.798
47564W        W19147  36.086  36.623   1.160
47565W        W19148  18.290   3.740  11.118
47566W        W19149  29.008  21.229   5.694
47567W        W19150  14.237  16.264   3.441
47568W        W19151  24.613  38.851   1.695
47569W        W19152   0.447  26.004  14.886
47570W        W19153  13.766  40.219  13.459
47571W        W19154  33.089  14.844  10.691
47572W        W19155   0.118   6.600  11.858
47573W        W19156  44.280   9.661  11.102
47574W        W19157  33.564   6.392  10.453
47575W        W19158  24.760  40.050  13.080
47576W        W19159  39.863   5.896  11.580
47577W        W19160  24.313  36.854   4.067
47578W        W19161  23.420  30.025  11.564
47579W        W19162  29.129  38.464   4.826
47580W        W19163  14.322  21.098  11.521
47581W        W19164  20.089   4.750  12.534
47582W        W19165  11.498   9.111   3.486
47583W        W19166  19.339   2.532   0.546
47584W        W19167  22.758   6.216   1.248
47585W        W19168  13.170  25.581  11.838
47586W        W19169   2.806  33.081   4.890
47587W        W19170  23.853  38.530   0.364
47588W        W19171  10.910  35.271   0.868
47589W        W19172  31.161   8.255   2.656
47590W        W19173  19.602   2.676   3.597
47591W        W19174   7.091  13.252  12.458
47592W        W19175  32.407  29.956  14.951
47593W        W19176  18.109   1.966   3.447
47594W        W19177  41.638  39.968   4.213
47595W        W19178  10.147  30.878   0.241
47596W        W19179  14.526  16.495  13.514
47597W        W19180  28.169   1.701  14.967
47598W        W19181  27.374  14.373   3.213
47599W        W19182  38.252  39.360   0.694
47600W        W19183  40.042  24.784  11.557
47601W        W19184  30.084   7.864   0.750
47602W        W19185  38.026  35.117   2.950
47603W        W19186  15.247  11.128  13.930
47604W        W19187   1.962  26.686   3.970
47605W        W19188  41.813  38.341  10.659
47606W        W19189  20.857  33.858  12.021
47607W        W19190  14.773  35.891   0.453
47608W        W19191  22.016   0.909  12.733
47609W        W19192  39.835  36.302   0.768
47610W        W19193  30.920  21.746  12.539
47611W        W19194  31.752  34.906  12.177
47612W        W19195  16.381   7.160  11.843
47613W        W19196   3.792   9.876   0.790
47614W        W19197  20.652  18.644   3.135
47615W        W19198  15.066  13.105  12.687
47616W        W19199  22.524  40.991   4.637
47617W        W19200  38.406  23.730   3.859
47618W        W19201   8.199  33.295  11.519
47619W        W19202  20.117  18.015  14.147
47620W        W19203  37.133  38.139  14.139
47621W        W19204  33.595  11.697  13.876
47622W        W19205   5.319   1.716  13.032
47623W        W19206  31.371  25.614  14.874
47624W        W19207  30.074   9.186  14.268
47625W        W19208   2.885  40.319   1.460
47626W        W19209   2.795  28.503   1.685
47627W        W19210  42.120  18.764   0.731
47628W        W19211  42.964  22.218  14.851
47629W        W19212  26.722   2.735  12.989
47630W        W19213  26.160  34.380   1.468
47631W        W19214  23.187  25.485   3.314
47632W        W19215  35.111  11.949  12.984
47633W        W19216  14.839  37.792  12.363
47634W        W19217  40.860   0.925   1.387
47635W        W19218  20.338   9.381   3.448
47636W        W19219  30.570   3.824  11.412
47637W        W19220   6.672  13.506  13.881
47638W        W19221  22.204   9.719   1.782
47639W        W19222   6.874  16.937  11.930
47640W        W19223  19.120  33.234  14.976
47641W        W19224  18.010   8.256  11.593
47642W        W19225  41.083  20.087   3.096
47643W        W19226  13.701  11.689   4.289
47644W        W19227   9.888  11.035   1.552
47645W        W19228  32.474  10.163  14.894
47646W        W19229   6.301  41.762  12.889
47647W        W19230  35.652  42.395   0.687
47648W        W19231   4.190   8.775   2.637
47649W        W19232  42.768   1.894  13.413
47650W        W19233  28.039   0.425   3.258
47651W        W19234  29.096   3.835  11.978
47652W        W19235   7.774  23.495   1.748
47653W        W19236   4.845  36.702   0.327
47654W        W19237  16.285  39.866  14.235
47655W        W19238   3.378   9.849  14.077
47656W        W19239   9.797  22.626   0.516
47657W        W19240  14.776  26.596   1.765
47658W        W19241  27.639  18.136   0.802
47659W        W19242  18.164  23.141  14.027
47660W        W19243  10.285   3.378  11.204
47661W        W19244  27.588  38.293  14.903
47662W        W19245  29.154   8.074   0.023
47663W        W19246  17.981  37.477  11.438
47664W        W19247   7.673  24.109   5.235
47665W        W19248  39.094  26.681  14.576
47666W        W19249  36.559  21.786  14.003
47667W        W19250  41.944   6.310  14.972
47668W        W19251  31.909  24.491  10.744
47669W        W19252  32.678  38.367  12.360
47670W        W19253  32.147  27.613   4.910
47671W        W19254  10.954  15.344   1.714
47672W        W19255   1.185   1.966   3.876
47673W        W19256   2.777  16.263  10.425
47674W        W19257  40.984  21.155  11.221
47675W        W19258   9.337  33.480  10.242
47676W        W19259  41.504   1.171   4.157
47677W        W19260  12.625   7.253   4.047
47678W        W19261  17.589  29.194  12.529
47679W        W19262  17.001  35.377   0.436
47680W        W19263  27.176  21.591   3.642
47681W        W19264  27.033  28.913   0.332
47682W        W19265  39.318  15.743   0.216
47683W        W19266  29.376   3.242  12.671
47684W        W19267  40.349  13.179   1.194
47685W        W19268  23.800  14.016   3.159
47686W        W19269  13.115  33.568   4.148
47687W        W19270  24.132  40.946  11.967
47688W        W19271  16.252   8.950  12.962
47689W        W19272  39.682  36.096   2.348
47690W        W19273  31.863  11.142  11.527
47691W        W19274  41.455   8.241  12.235
47692W        W19275   8.682   9.298   3.023
47693W        W19276  34.550  36.978   2.450
47694W        W19277  10.645  33.992   0.364
47695W        W19278  18.367  39.517   1.162
47696W        W19279  30.004  26.030  11.555
47697W        W19280  22.487  34.124  13.399
47698W        W19281  22.746  21.667   1.334
47699W        W19282  29.162   5.825   1.944
47700W        W19283  38.883  22.064   4.401
47701W        W19284  43.738  12.889  14.872
47702W        W19285  41.254  42.913   2.795
47703W        W19286  21.138  29.250  13.966
47704W        W19287  16.329   4.899  11.938
47705W        W19288  11.159  29.583  12.546
47706W        W19289  23.438   4.381   1.791
47707W        W19290  12.121  33.450   0.337
47708W        W19291  12.011  39.992   4.829
47709W        W19292  44.481  37.021   1.454
47710W        W19293  28.578  25.727   3.127
47711W        W19294  31.490  38.593   4.078
47712W        W19295   3.866  18.262  14.477
47713W        W19296   6.692  25.044   2.266
47714W        W19297  37.347  17.848  13.805
47715W        W19298   4.850  28.880   0.668
47716W        W19299  17.803  27.508  13.970
47717W        W19300  30.847  38.574  14.528
47718W        W19301   8.827  23.554   2.813
47719W        W19302  36.006  11.595  14.541
47720W        W19303  12.194   0.464  13.746
47721W        W19304   9.575  11.590  11.679
47722W        W19305   4.094  21.200   2.598
47723W        W19306  36.491   4.350   4.640
47724W        W19307  17.601  12.020   5.000
47725W        W19308   9.241  35.410  12.551
47726W        W19309  24.468  41.405   4.699
47727W        W19310  37.512  29.392  13.456
47728W        W19311  16.356  33.581   3.655
47729W        W19312   7.251  15.481  12.292
47730W        W19313  26.726  22.453   5.318
47731W        W19314   5.944  24.607   3.142
47732W        W19315   2.691  42.455  14.871
47733W        W19316   4.983  42.491   0.373
47734W        W19317  19.647  33.969  10.788
47735W        W19318  29.094   1.871  14.704
47736W        W19319  19.539  27.161  13.809
47737W        W19320   3.921  31.578  12.871
47738W        W19321  43.377  43.844   0.742
47739W        W19322   5.356   3.282  14.495
47740W        W19323  35.746  37.970  12.167
47741W        W19324  43.987  19.368  11.167
47742W        W19325  28.140  23.184   2.920
47743W        W19326  31.512  40.289   0.813
47744W        W19327  10.049   1.372   2.797
47745W        W19328  36.934   4.998   1.008
47746W        W19329  41.085  20.807   1.449
47747W        W19330   8.295  14.135   4.515
47748W        W19331  32.986  41.820   1.859
47749W        W19332   8.303   2.914   4.348
47750W        W19333  31.931  16.029  13.306
47751W        W19334  42.048  25.394  12.837
47752W        W19335  14.906   1.384  13.933
47753W        W19336  12.887  35.987  13.345
47754W        W19337  29.602  40.317  10.394
47755W        W19338  10.759  34.609   2.677
47756W        W19339  24.072  16.535  13.093
47757W        W19340  32.697  42.411  13.906
47758W        W19341  42.242   6.626  14.360
47759W        W19342   5.008  11.078  10.266
47760W        W19343  15.827  32.030   4.515
47761W        W19344  38.100   8.435  12.403
47762W        W19345  12.059   4.987   0.450
47763W        W19346  34.915  43.972  13.546
47764W        W19347  24.493  30.190   3.561
47765W        W19348   7.130   1.742   4.036
47766W        W19349   2.697   8.236  10.950
47767W        W19350  29.187  36.534  14.865
47768W        W19351   4.025  26.230   3.698
47769W        W19352  44.001  17.440   1.055
47770W        W19353  32.574  10.210  13.056
47771W        W19354  29.100   4.870   0.015
47772W        W19355  11.950   0.377   4.064
47773W        W19356  40.035  28.666   0.342
47774W        W19357  23.471  22.818   2.686
47775W        W19358  41.291  27.586   0.229
47776W        W19359  35.852  17.676   2.285
47777W        W19360  34.122  10.429  14.495
47778W        W19361  19.818  25.630   2.258
47779W        W19362   2.893  24.676   0.110
47780W        W19363  37.305  33.634   4.580
47781W        W19364  25.034  44.498  14.984
47782W        W19365  21.681  11.706  14.537
47783W        W19366   6.344  17.548  14.569
47784W        W19367  25.294  19.135  13.921
47785W        W19368  16.760  20.472  12.163
47786W        W19369  32.891  39.926  14.952
47787W        W19370  23.716  23.796  11.684
47788W        W19371  31.682   0.781   3.706
47789W        W19372   7.578  34.998  14.461
47790W        W19373  32.197  43.233   1.658
47791W        W19374  22.198   5.545   3.120
47792W        W19375  42.389   8.297  12.540
47793W        W19376  13.146  10.811  12.264
47794W        W19377  44.930  12.885  14.290
47795W        W19378  29.674  14.461  14.387
47796W        W19379  34.061  34.840   4.377
47797W        W19380  37.575   8.703   4.497
47798W        W19381  10.628  14.347   3.875
47799W        W19382   2.344   4.235   1.696
47800W        W19383   2.903  18.434   2.228
47801W        W19384   5.571  40.804  12.568
47802W        W19385  21.619   3.043  13.882
47803W        W19386  36.516  39.546   2.227
47804W        W19387  40.066  38.632  11.077
47805W        W19388  31.612  39.032  12.874
47806W        W19389  37.350  40.788   2.635
47807W        W19390  12.120  20.385  10.375
47808W        W19391  10.906  33.415   1.251
47809W        W19392  19.522  33.398  13.901
47810W        W19393  10.387  33.905  13.893
47811W        W19394  27.541  23.606  11.090
47812W        W19395  29.093   5.029   1.493
47813W        W19396  34.634  30.271  13.159
47814W        W19397  32.986  40.797   1.781
47815W        W19398   3.271  19.293   2.439
47816W        W19399  11.862  40.901  10.756
47817W        W19400  21.069  29.423  12.497
47818W        W19401  17.914  14.124   3.756
47819W        W19402   9.287  40.523   0.423
47820W        W19403  15.056  21.134   3.274
47821W        W19404   7.250  22.576   1.973
47822W        W19405  32.413  14.817  11.202
47823W        W19406  40.276  41.019  10.761
47824W        W19407  14.182  40.241   4.306
47825W        W19408  43.561  12.696  11.100
47826W        W19409  39.118  11.143  14.879
47827W        W19410  35.004  42.531   4.161
47828W        W19411  24.686   1.828   1.331
47829W        W19412  13.688   1.881  13.960
47830W        W19413  40.076  27.567  14.425
47831W        W19414  29.808  23.585  10.314
47832W        W19415  32.066  40.453  10.580
47833W        W19416  41.626  43.579   0.450
47834W        W19417  20.968  41.076   2.836
47835W        W19418  36.342   9.000  11.445
47836W        W19419  31.158  11.039   3.560
47837W        W19420  19.076  35.235  14.159
47838W        W19421   4.326   3.417  13.844
47839W        W19422  23.181  43.819  11.145
47840W        W19423  33.113  14.337  11.516
47841W        W19424  26.990   8.595   1.424
47842W        W19425  31.881  11.283   4.148
47843W        W19426  27.505  30.394   3.804
47844W        W19427   0.886  24.580   4.345
47845W        W19428   5.448  11.752  10.256
47846W        W19429  42.089  27.565  13.019
47847W        W19430   2.794  39.618   2.320
47848W        W19431  39.197  14.393   2.258
47849W        W19432  43.594  38.235  12.083
47850W        W19433  32.542  18.379  10.603
47851W        W19434  34.276  36.490  14.344
47852W        W19435  15.188  37.326  13.121
47853W        W19436  20.259  35.291  12.999
47854W        W19437  29.694  12.606   3.739
47855W        W19438   4.699  13.908   1.896
47856W        W19439  29.937   2.765  11.077
47857W        W19440  28.477  22.295  12.529
47858W        W19441  40.753  36.856   1.837
47859W        W19442  21.676  34.535   0.713
47860W        W19443  17.737  44.881  14.985
47861W        W19444  23.264  11.825  11.111
47862W        W19445  37.345   9.667   4.419
47863W        W19446  41.124  25.697  12.667
47864W        W19447  15.764  25.925  12.911
47865W        W19448  29.186  28.681   1.249
47866W        W19449   8.901  22.627  14.991
47867W        W19450   8.886   3.838  10.647
47868W        W19451  42.882  26.194   4.165
47869W        W19452   3.633  25.131  11.707
47870W        W19453   7.142  35.004   0.866
47871W        W19454  11.671  18.296  11.952
47872W        W19455  19.269  35.357  11.206
47873W        W19456   3.020  31.508  11.151
47874W        W19457  16.988  25.375   0.970
47875W        W19458  33.569  11.149  12.083
47876W        W19459  26.692   3.003   0.823
47877W        W19460  37.635   0.648  11.992
47878W        W19461  36.418  31.939  14.249
47879W        W19462  13.192   3.657   3.809
47880W        W19463  23.332   7.819  10.658
47881W        W19464   6.443   4.386   3.275
47882W        W19465   2.342  13.226   0.766
47883W        W19466  37.741  10.303  12.387
47884W        W19467  14.404  25.531   3.365
47885W        W19468  27.147   1.413  11.831
47886W        W19469  22.037  12.645  11.522
47887W        W19470  26.513  37.575   4.616
47888W        W19471   2.904  28.734   4.071
47889W        W19472  44.212  18.484  13.024
47890W        W19473  44.812   2.491  11.938
47891W        W19474  14.686  28.088   3.379
47892W        W19475  24.966  30.626  11.597
47893W        W19476  17.120  44.181  14.248
47894W        W19477  13.519   9.344  12.684
47895W        W19478   6.698   2.573  11.150
47896W        W19479   8.011  44.418   9.976
47897W        W19480  13.216  10.768  12.776
47898W        W19481  15.518  14.902   4.564
47899W        W19482  11.698  16.742   0.237
47900W        W19483  15.120  12.286  12.138
47901W        W19484  31.722   3.389   1.305
47902W        W19485  36.795   3.404   2.761
47903W        W19486  14.884  30.069  14.747
47904W        W19487   9.990  27.060   4.118
47905W        W19488  37.494  30.633  13.987
47906W        W19489  29.018   1.306  11.205
47907W        W19490  32.919  41.291  13.319
47908W        W19491  37.948  10.062  10.117
47909W        W19492   1.002  16.310  10.752
47910W        W19493  21.065  26.539  14.367
47911W        W19494  32.929  19.572   1.248
47912W        W19495  36.428  34.084  13.370
47913W        W19496   4.338  15.748  11.905
47914W        W19497   6.199  40.826  10.927
47915W        W19498  16.366  20.113  14.664
47916W        W19499  21.157  12.512  10.572
47917W        W19500  33.163  16.124   1.210
47918W        W19501  31.825  11.177  13.011
47919W        W19502  14.415  22.304   3.824
47920W        W19503  22.026  43.585   1.056
47921W        W19504  27.482  11.394  12.397
47922W        W19505  31.025   8.754  12.107
47923W        W19506  32.963  36.639  14.535
47924W        W19507  32.840  28.017   0.806
47925W        W19508   6.737  16.599  11.546
47926W        W19509  14.618  16.049   3.144
47927W        W19510  19.260  39.935   1.437
47928W        W19511  14.786  20.397  11.053
47929W        W19512  21.569  24.216   2.157
47930W        W19513  22.273  28.585   1.380
47931W        W19514  41.876  39.709   3.681
47932W        W19515  37.484   6.878   2.195
47933W        W19516  34.093  20.493   1.772
47934W        W19517   0.736  29.090  14.843
47935W        W19518  26.781  27.438  14.581
47936W        W19519   6.014  42.236   1.364
47937W        W19520  28.959  27.213  10.712
47938W        W19521  11.763  37.115  12.020
47939W        W19522  42.592  41.572   4.321
47940W        W19523  42.844  14.100  10.245
47941W        W19524  20.203   4.281  14.800
47942W        W19525   9.689  29.972  13.082
47943W        W19526   5.691  15.354  12.864
47944W        W19527  25.244  36.716  10.473
47945W        W19528  41.094   5.670  12.937
47946W        W19529   8.627  39.066   4.123
47947W        W19530  23.695  19.684  14.207
47948W        W19531  36.004  12.967   4.099
47949W        W19532  17.580  14.343   1.317
47950W        W19533  35.249  38.918  14.269
47951W        W19534  37.909  12.997  12.387
47952W        W19535   4.684  32.418   3.793
47953W        W19536  16.223  27.045  11.835
47954W        W19537   3.328   7.976   4.162
47955W        W19538  38.885  40.545  12.235
47956W        W19539  23.141  30.044  10.174
47957W        W19540  41.659   2.923  11.743
47958W        W19541  36.817  30.722   2.329
47959W        W19542  43.139  26.118   4.661
47960W        W19543  40.339  26.596   0.363
47961W        W19544  23.763  20.489  12.500
47962W        W19545  34.054  42.100  14.014
47963W        W19546  22.953   1.501   3.834
47964W        W19547  21.069  12.017  10.706
47965W        W19548  32.622  31.305  12.029
47966W        W19549  26.236   7.292  11.158
47967W        W19550  24.972  42.621  14.892
47968W        W19551  31.460  31.822   1.839
47969W        W19552  24.039   1.851   0.584
47970W        W19553   9.518   1.043   4.101
47971W        W19554  10.115  39.997   4.593
47972W        W19555  20.230  19.555  14.882
47973W        W19556  10.675  37.934   4.342
47974W        W19557  28.225  34.972  13.858
47975W        W19558  12.840   0.768  12.460
47976W        W19559  18.103  25.202  14.830
47977W        W19560  38.122  34.047   0.033
47978W        W19561  42.315  16.597   2.113
47979W        W19562  31.837  21.618  11.010
47980W        W19563  39.465  19.123   2.711
47981W        W19564  41.962   0.265  11.621
47982W        W19565  20.918  20.173   2.319
47983W        W19566  22.872  14.348   2.282
47984W        W19567  37.366  15.131  14.893
47985W        W19568  41.477  13.842  13.556
47986W        W19569  17.473  35.817   1.246
47987W        W19570  19.885  11.091   3.232
47988W        W19571  21.739  14.149   3.679
47989W        W19572  43.826  11.820  14.855
47990W        W19573  21.336  38.077  14.463
47991W        W19574   2.890  38.902   2.026
47992W        W19575  33.182  37.488  11.105
47993W        W19576  44.408  12.127  12.900
47994W        W19577  39.213  15.675  12.263
47995W        W19578  35.397  35.624   3.259
47996W        W19579  22.936  14.129  14.243
47997W        W19580   8.203  13.734   3.723
47998W        W19581  31.066  29.421   0.382
47999W        W19582  37.609   1.357   3.181
48000W        W19583  20.878  22.063  11.528
48001W        W19584  39.893  18.150   1.723
48002W        W19585  15.806   4.755   1.800
48003W        W19586  30.989  13.666  14.524
48004W        W19587  34.402   5.143   2.454
48005W        W19588   7.229  36.860   0.972
48006W        W19589  13.355  25.141  14.132
48007W        W19590  29.377  23.158   3.649
48008W        W19591  26.878  38.361   2.242
48009W        W19592   4.130  19.128   4.147
48010W        W19593  21.182   8.000   2.624
48011W        W19594  44.544  39.027   0.041
48012W        W19595  16.121  29.684  14.454
48013W        W19596  11.056  31.933   3.663
48014W        W19597  30.320  26.959   2.026
48015W        W19598  39.463  16.042   0.839
48016W        W19599  44.016  10.449  12.051
48017W        W19600   7.590  26.429   1.356
48018W        W19601   3.361  34.054  13.909
48019W        W19602  19.128  41.456   2.881
48020W        W19603   1.756   7.934  12.116
48021W        W19604  30.437  12.124   0.496
48022W        W19605   4.682   2.630  10.895
48023W        W19606  18.716  29.170  13.932
48024W        W19607  39.997  36.007   1.723
48025W        W19608  18.460  28.667   4.153
48026W        W19609  31.407   2.753   4.645
48027W        W19610  11.101  14.640  13.978
48028W        W19611  17.314  33.967   3.127
48029W        W19612  41.890  40.609  13.869
48030W        W19613  25.265   0.372  14.922
48031W        W19614  41.850  41.924   1.927
48032W        W19615  21.599   4.172  11.477
48033W        W19616  43.587   7.180  10.788
48034W        W19617  37.933  32.148   0.665
48035W        W19618  31.029  28.170   3.790
48036W        W19619   6.212  32.619   0.501
48037W        W19620  36.801  12.383  12.700
48038W        W19621  34.963   1.446  14.285
48039W        W19622  38.461  26.162   4.628
48040W        W19623  21.757   5.336   4.033
48041W        W19624  10.431   4.306   0.275
48042W        W19625  32.828  19.088   0.962
48043W        W19626  21.008  44.958   5.026
48044W        W19627  14.011   4.289   1.913
48045W        W19628  41.414  15.696   4.069
48046W        W19629   5.116  22.780   4.473
48047W        W19630   3.821  39.044  12.404
48048W        W19631  12.542  38.522   2.817
48049W        W19632  44.777  42.501  13.450
48050W        W19633  35.652  42.208  11.183
48051W        W19634  42.358  13.122   3.296
48052W        W19635   0.536  18.237   0.753
48053W        W19636  25.527  11.110   0.825
48054W        W19637   9.710   8.243  12.049
48055W        W19638  35.098   0.870  15.000
48056W        W19639  37.458  19.330   0.780
48057W        W19640   8.313   7.046  14.981
48058W        W19641  36.468  41.768  11.630
48059W        W19642   2.715  23.582  12.644
48060W        W19643  44.822  43.504   4.268
48061W        W19644   9.778  10.518   1.392
48062W        W19645  10.321  14.008   0.696
48063W        W19646   1.237  26.385  11.572
48064W        W19647  18.570  42.963   4.065
48065W        W19648  37.149  25.186   3.497
48066W        W19649  30.658  32.100  12.698
48067W        W19650  34.904  42.508  10.771
48068W        W19651  32.925  38.847   1.969
48069W        W19652  36.982  12.741  13.701
48070W        W19653   1.357  35.768   2.248
48071W        W19654  35.913  32.360   3.327
48072W        W19655   9.454   1.009   3.233
48073W        W19656  28.505  23.615  13.928
48074W        W19657  39.874  21.209  11.829
48075W        W19658  21.563  27.720  11.578
48076W        W19659   9.891   4.260  14.975
48077W        W19660  35.854  14.656  10.506
48078W        W19661  11.582   4.249  12.136
48079W        W19662  11.301  42.433  11.950
48080W        W19663  21.588  44.451   1.485
48081W        W19664  24.604  15.352   3.613
48082W        W19665  33.255  11.062   1.253
48083W        W19666  22.793  24.218   1.578
48084W        W19667  18.629   9.616  13.287
48085W        W19668  20.770  10.519  14.023
48086W        W19669   2.355  30.731  14.602
48087W        W19670  18.744  35.354   2.181
48088W        W19671   4.674  17.255  13.944
48089W        W19672  37.529  11.290  10.235
48090W        W19673   0.224   2.276   3.642
48091W        W19674  14.952  21.187   1.853
48092W        W19675  34.715  20.036   2.457
48093W        W19676   4.078   8.015  12.191
48094W        W19677  38.488  41.431  14.518
48095W        W19678  29.310  32.442  11.537
48096W        W19679   0.297  11.824   4.173
48097W        W19680  33.998  19.301   4.442
48098W        W19681   6.749   6.921  13.766
48099W        W19682  20.978  37.694  14.626
48100W        W19683  27.553   2.447  10.951
48101W        W19684  18.271  35.559  10.604
48102W        W19685  28.897  26.423  12.110
48103W        W19686  20.068  36.006   4.606
48104W        W19687  14.465  33.177  10.389
48105W        W19688  25.033  17.332  12.099
48106W        W19689  26.603  32.952  11.073
48107W        W19690  39.582   4.498  12.483
48108W        W19691  43.711  39.130  13.507
48109W        W19692  31.072  10.536   1.383
48110W        W19693  17.296  11.353   1.857
48111W        W19694   6.738  34.596   3.626
48112W        W19695  41.866  28.268  11.587
48113W        W19696  14.716   0.913   2.320
48114W        W19697  13.001  11.269   1.189
48115W        W19698   6.477  43.431   2.681
48116W        W19699  15.818  42.882  11.643
48117W        W19700   2.221  15.909  14.811
48118W        W19701   0.942   9.850  12.405
48119W        W19702  44.710  19.609  12.449
48120W        W19703  42.643   1.004  11.199
48121W        W19704   4.603   9.867   0.331
48122W        W19705   5.674   5.891   2.666
48123W        W19706  13.512  34.023   4.803
48124W        W19707   8.384  27.620   3.381
48125W        W19708  18.626  25.007   4.764
48126W        W19709  18.033  27.359   0.921
48127W        W19710  39.047  27.875   5.145
48128W        W19711  25.783  24.079   2.665
48129W        W19712  41.842  33.112   0.955
48130W        W19713  33.510  26.011  12.629
48131W        W19714  43.526   1.898   1.460
48132W        W19715  11.283  28.904  13.471
48133W        W19716  40.045   6.499  12.616
48134W        W19717  13.662  18.299  13.032
48135W        W19718   5.208  38.315  13.582
48136W        W19719  17.511  20.091   2.973
48137W        W19720   3.898  17.721  10.687
48138W        W19721  43.050   3.854  13.376
48139W        W19722  31.426   8.429  14.241
48140W        W19723  12.681  22.401  10.765
48141W        W19724   9.645  23.023   0.232
48142W        W19725  36.762   7.160  13.488
48143W        W19726  27.043  26.518  12.922
48144W        W19727  33.184  19.113  10.500
48145W        W19728  12.548  30.169  12.914
48146W        W19729  44.922  30.367  14.411
48147W        W19730  28.785  40.465  13.472
48148W        W19731  20.529   4.262   5.027
48149W        W19732  39.070  36.126  11.876
48150W        W19733  11.212   0.655  13.527
48151W        W19734  25.238  15.131   0.933
48152W        W19735  23.255   5.833  12.974
48153W        W19736  15.134  16.552  10.701
48154W        W19737  37.842  39.652   1.657
48155W        W19738  34.876  39.804   0.912
48156W        W19739   3.730  33.177   0.791
48157W        W19740  39.965  24.587   1.377
48158W        W19741   1.076  32.634   3.344
48159W        W19742  14.753  18.288   2.830
48160W        W19743  17.022  20.951   0.437
48161W        W19744  43.878  43.076  12.241
48162W        W19745  18.139  40.565  11.239
48163W        W19746   0.492  21.793  10.338
48164W        W19747  14.249  33.879   3.726
48165W        W19748  22.611  15.725  13.124
48166W        W19749  44.384  27.849   3.276
48167W        W19750  21.298  21.565   4.160
48168W        W19751   8.478  40.393   1.702
48169W        W19752  43.014  31.804  10.973
48170W        W19753  20.600  27.070   0.223
48171W        W19754  32.696  19.147   3.656
48172W        W19755  23.306  32.523   4.294
48173W        W19756  32.204  14.252  12.438
48174W        W19757  42.329   5.152  12.219
48175W        W19758  30.660   3.607  14.473
48176W        W19759   4.898  20.146   5.036
48177W        W19760  41.439   2.455   3.785
48178W        W19761   9.827   3.447  14.404
48179W        W19762   5.404  39.360  11.612
48180W        W19763  12.050   2.320  12.517
48181W        W19764   8.728  28.132  12.755
48182W        W19765  23.406   1.305   3.716
48183W        W19766  44.511   4.340  12.399
48184W        W19767  33.798  36.008   0.330
48185W        W19768  14.032  34.561  14.902
48186W        W19769  35.892  40.726   1.255
48187W        W19770   1.888  28.895  14.433
48188W        W19771  40.038  38.367  12.405
48189W        W19772  27.550  28.063   3.371
48190W        W19773   5.868  43.374   0.674
48191W        W19774  42.325  27.235   0.312
48192W        W19775  30.207  13.680   2.027
48193W        W19776  14.978  33.900   4.551
48194W        W19777  34.609  39.879   2.177
48195W        W19778  24.916  23.046  12.000
48196W        W19779  20.387  17.165  12.041
48197W        W19780  34.621  14.337  11.099
48198W        W19781  33.793  22.437  13.575
48199W        W19782  33.802  24.774  12.403
48200W        W19783  15.219   7.687  13.396
48201W        W19784  40.039  10.422   1.385
48202W        W19785  20.544  27.498   3.690
48203W        W19786  42.417   0.273  11.877
48204W        W19787  24.293  35.920  13.866
48205W        W19788  29.658   6.325  10.718
48206W        W19789  15.060   8.176   2.355
48207W        W19790  23.147  17.269   4.140
48208W        W19791  20.307  27.055   2.324
48209W        W19792  25.929  10.202   2.361
48210W        W19793   5.642   5.703  11.590
48211W        W19794  38.479   6.171  10.745
48212W        W19795  35.420  14.395  13.228
48213W        W19796   2.870   6.629  14.327
48214W        W19797  33.844   8.083  12.084
48215W        W19798  14.408   8.895  10.756
48216W        W19799  23.594  26.722  10.563
48217W        W19800  31.166  20.736  13.660
48218W        W19801  36.596  19.628   2.795
48219W        W19802  12.630  15.849   1.394
48220W        W19803  12.897  22.672  13.482
48221W        W19804  37.989  24.707  10.730
48222W        W19805   2.019  39.604  11.776
48223W        W19806  18.262  14.230   2.122
48224W        W19807  11.120  38.754   0.510
48225W        W19808  19.767  24.063   5.501
48226W        W19809  21.272   8.478  13.475
48227W        W19810  44.255  42.941   4.579
48228W        W19811  12.261   8.976   0.580
48229W        W19812  15.176   2.964  13.122
48230W        W19813  42.297  28.069   4.877
48231W        W19814  32.231  36.083   2.369
48232W        W19815  30.589  33.263   2.605
48233W        W19816  33.357  40.777   4.238
48234W        W19817  15.180  30.440   4.618
48235W        W19818   9.663  18.657   3.623
48236W        W19819  42.061  13.356  12.397
48237W        W19820  23.098  32.345  14.357
48238W        W19821  32.626  34.005  14.294
48239W        W19822  41.785   9.766  12.122
48240W        W19823  27.504  25.804   4.578
48241W        W19824   9.271   4.797   1.249
48242W        W19825  29.059   3.880  10.630
48243W        W19826  33.069   9.850   2.359
48244W        W19827   5.275   4.714  11.486
48245W        W19828  38.075  35.077  14.010
48246W        W19829  28.677  33.741   4.324
48247W        W19830  22.480   6.221   0.770
48248W        W19831  14.692  10.767   2.264
48249W        W19832  21.614  41.802   0.358
48250W        W19833  32.447  24.127   2.249
48251W        W19834  28.424   0.244  13.392
48252W        W19835  22.794  31.207   2.749
48253W        W19836   0.824   4.162  10.283
48254W        W19837   5.815  20.785  13.316
48255W        W19838  40.520   3.210  10.678
48256W        W19839  42.078  15.891  10.777
48257W        W19840   4.213  43.773   0.389
48258W        W19841  38.036  35.573   4.611
48259W        W19842   6.627   1.264   4.217
48260W        W19843   7.572  41.422   1.673
48261W        W19844  11.423   4.221   4.590
48262W        W19845  35.894  40.367   2.275
48263W        W19846  25.122   3.517   0.417
48264W        W19847   1.795  41.571  12.516
48265W        W19848  30.653   2.498  12.550
48266W        W19849  12.251  31.582   2.367
48267W        W19850  34.471  19.819   4.191
48268W        W19851  13.043  41.494  13.744
48269W        W19852  20.850  11.230   1.711
48270W        W19853  28.745   5.458  14.051
48271W        W19854   7.362  20.720   1.752
48272W        W19855  12.219  21.799  13.537
48273W        W19856  17.656  22.080   3.976
48274W        W19857  25.725  24.132  14.859
48275W        W19858   7.783  40.497  14.516
48276W        W19859  43.860  19.587  11.613
48277W        W19860  34.667  14.588  13.970
48278W        W19861  38.736  26.769   4.964
48279W        W19862   8.256  16.716   2.821
48280W        W19863   5.835  13.854   1.068
48281W        W19864  33.384   2.747   0.517
48282W        W19865  17.327  14.297  12.371
48283W        W19866  18.155  34.633   1.112
48284W        W19867  38.497   6.217  13.019
48285W        W19868  39.610  38.604   4.447
48286W        W19869  14.899  21.578  13.143
48287W        W19870  38.050  21.722  12.492
48288W        W19871   0.211  18.707  10.576
48289W        W19872   0.992  19.868   5.029
48290W        W19873  44.452  25.491  10.680
48291W        W19874  38.284  41.181   4.629
48292W        W19875   2.045   9.564  13.919
48293W        W19876  33.119  26.719   1.710
48294W        W19877  34.829  12.591  10.760
48295W        W19878  29.910   6.844   2.766
48296W        W19879  44.934  35.628  14.920
48297W        W19880  34.537   0.436  11.152
48298W        W19881  33.966  19.799   4.591
48299W        W19882  12.726  27.907  13.373
48300W        W19883   0.425   9.868  14.671
48301W        W19884  38.971  10.854  11.897
48302W        W19885  19.054  21.649   1.736
48303W        W19886  27.766  16.610   0.713
48304W        W19887  42.433   9.191  12.810
48305W        W19888  35.920  28.988  12.918
48306W        W19889  18.978   7.676   3.131
48307W        W19890  14.929   3.556  11.473
48308W        W19891  18.631  30.979   1.356
48309W        W19892  42.719  14.890   1.271
48310W        W19893  44.993  40.551   4.610
48311W        W19894  24.152   4.897   3.507
48312W        W19895   0.917  15.269   1.389
48313W        W19896  24.143   9.293  11.011
48314W        W19897  34.434  41.340   2.869
48315W        W19898  30.677  42.367   2.882
48316W        W19899   4.265  29.117  13.425
48317W        W19900   7.758  33.149  13.833
48318W        W19901  38.337  10.731   0.332
48319W        W19902   3.301  20.810  14.471
48320W        W19903  34.874  17.257  12.656
48321W        W19904  30.197  18.978  14.538
48322W        W19905  21.766  41.038  11.448
48323W        W19906  13.697   5.924   2.204
48324W        W19907  44.269  44.009   3.629
48325W        W19908  28.978   0.913   1.268
48326W        W19909   2.711  39.509   5.324
48327W        W19910   8.294  44.819   4.567
48328W        W19911  28.660  23.486   4.547
48329W        W19912   3.249   9.890  10.580
48330W        W19913  37.993  36.142   2.832
48331W        W19914  31.367  35.035  10.815
48332W        W19915  40.038   8.615   3.808
48333W        W19916  33.541  28.748   4.860
48334W        W19917   1.285  44.732   2.369
48335W        W19918   6.323  34.007   0.522
48336W        W19919  23.691  35.045   0.257
48337W        W19920  28.122  20.490  12.868
48338W        W19921   2.063  44.511  12.870
48339W        W19922  40.587  19.003  12.443
48340W        W19923  31.408  12.604  14.763
48341W        W19924  40.366  36.197   0.506
48342W        W19925  42.961  31.368  13.376
48343W        W19926  24.571  27.135   2.592
48344W        W19927   4.333  17.108   2.286
48345W        W19928  15.519  12.583   0.442
48346W        W19929  14.197  16.678   1.510
48347W        W19930  42.116  33.817   1.565
48348W        W19931  19.638  34.872   3.259
48349W        W19932  19.374   7.506  11.119
48350W        W19933  38.534   9.736   2.266
48351W        W19934  44.911  19.134   4.588
48352W        W19935  38.487  26.465   3.308
48353W        W19936  36.491  31.846   2.782
48354W        W19937  27.842  43.933   0.876
48355W        W19938  38.559  25.202  11.057
48356W        W19939  26.902  25.358  11.233
48357W        W19940  14.959   9.952   3.532
48358W        W19941   1.862   8.494   2.248
48359W        W19942  30.396  25.396   0.208
48360W        W19943  29.229  32.526  14.727
48361W        W19944  14.302   7.695  14.978
48362W        W19945  18.045  14.151   1.641
48363W        W19946   7.875  42.417   0.127
48364W        W19947  40.288  27.162  13.822
48365W        W19948  37.420  16.211  12.326
48366W        W19949   1.457  42.591  14.443
48367W        W19950  15.300   6.771   4.474
48368W        W19951  41.247  42.160  14.510
48369W        W19952   1.784  32.487  10.428
48370W        W19953   9.850   8.447   3.215
48371W        W19954  14.748  27.104   2.893
48372W        W19955  30.596   6.132   0.996
48373W        W19956  44.255  18.451  14.287
48374W        W19957   5.841   5.217  14.777
48375W        W19958  44.787   2.146  14.470
48376W        W19959  10.084  16.483   0.331
48377W        W19960   1.194  13.101  14.398
48378W        W19961   9.744  43.922  11.125
48379W        W19962  30.654  38.331  14.117
48380W        W19963  29.468   8.381   0.336
48381W        W19964  31.385   1.283   0.805
48382W        W19965  27.122  44.746  14.926
48383W        W19966  39.805  17.738   1.376
48384W        W19967   0.327  34.369  12.657
48385W        W19968   1.331   6.323   1.272
48386W        W19969  11.429  32.015  14.802
48387W        W19970  26.553   6.461   0.059
48388W        W19971  24.792  13.761   4.234
48389W        W19972  25.814  31.058  14.755
48390W        W19973  18.457  25.170   2.241
48391W        W19974  28.654  30.999  13.442
48392W        W19975  20.142  15.688   0.441
48393W        W19976   9.763  36.427   1.872
48394W        W19977  31.112   7.801  12.987
48395W        W19978  19.687   4.023  11.009
48396W        W19979   2.868  18.391   3.234
48397W        W19980   5.151   0.993   4.077
48398W        W19981  38.831  14.771   2.203
48399W        W19982  17.107   0.204   3.120
48400W        W19983  36.467   1.997   1.240
48401W        W19984  23.951  30.916   2.529
48402W        W19985   6.961  31.133   3.215
48403W        W19986  41.570  11.103  11.225
48404W        W19987   0.342  21.968   2.341
48405W        W19988  36.977   9.901  14.194
48406W        W19989  39.752  22.335  14.692
48407W        W19990  17.363  23.093   0.509
48408W        W19991  13.986  36.196   4.070
48409W        W19992   7.561  25.026   4.263
48410W        W19993   5.458   5.292  13.601
48411W        W19994   9.859  32.587   2.691
48412W        W19995  41.925  27.756  11.721
48413W        W19996  20.991  14.260  11.974
48414W        W19997  16.258  38.600   0.118
48415W        W19998  36.810  41.487  14.300
48416W        W19999   3.446  24.418   1.288
48417W        W20000  21.607   2.398   0.762
48418W        W20001  18.580   2.058   3.748
48419W        W20002  40.744  39.081   4.111
48420W        W20003  35.337   1.362  11.567
48421W        W20004  12.857  31.516   0.206
48422W        W20005  40.502  24.531   4.609
48423W        W20006  30.686   6.648  12.498
48424W        W20007  39.309  37.988  11.848
48425W        W20008  39.452  20.014  10.726
48426W        W20009  17.352  24.444  11.064
48427W        W20010   8.215  26.115   4.773
48428W        W20011  38.396  35.410  11.270
48429W        W20012  24.672   9.372  11.203
48430W        W20013  27.126  35.383   4.405
48431W        W20014  29.985   7.837  11.497
48432W        W20015  18.993   1.871  13.570
48433W        W20016  29.091   7.380  11.294
48434W        W20017   6.948   5.718  14.563
48435W        W20018   2.542  10.768   2.652
48436W        W20019  26.052  21.490   1.784
48437W        W20020   8.430  38.942   4.600
48438W        W20021   2.374  36.085   4.762
48439W        W20022  39.718  42.842  14.445
48440W        W20023  31.967  18.824   4.131
48441W        W20024  41.356  38.652  12.364
48442W        W20025  40.616  24.244   2.881
48443W        W20026  21.990   4.269   0.907
48444W        W20027   5.734  28.433   4.718
48445W        W20028  13.452  22.115   1.245
48446W        W20029   3.726  16.923   2.769
48447W        W20030  42.982  29.986   1.345
48448W        W20031  18.731  21.384   0.836
48449W        W20032  24.683   3.713   0.663
48450W        W20033  25.111  34.021  11.668
48451W        W20034  22.083  25.414  13.038
48452W        W20035   1.272  39.435   2.660
48453W        W20036  17.195   1.019  13.920
48454W        W20037  31.516  24.247   3.391
48455W        W20038  44.462  38.349  12.965
48456W        W20039  21.190  16.077   1.354
48457W        W20040   8.410  35.960   1.756
48458W        W20041  39.869  31.427  13.069
48459W        W20042  21.076  17.091   9.652
48460W        W20043  26.094  30.426  14.227
48461W        W20044  36.345   4.856  12.946
48462W        W20045  19.430  17.423  10.173
48463W        W20046  22.052  25.149   4.241
48464W        W20047  28.259  44.137  14.968
48465W        W20048  25.750  32.544  11.600
48466W        W20049   3.530   2.977  12.509
48467W        W20050  37.689   0.475   3.690
48468W        W20051  13.886  20.580   0.737
48469W        W20052  41.089   2.673  14.813
48470W        W20053   0.442  10.882   3.594
48471W        W20054  21.405  18.524  14.209
48472W        W20055  43.565  15.195  12.434
48473W        W20056  21.913  21.560  12.373
48474W        W20057   0.895  44.986   4.108
48475W        W20058  40.725   0.716   0.549
48476W        W20059  18.038  21.190  10.689
48477W        W20060  44.006  19.764  13.304
48478W        W20061  34.974  36.069   3.943
48479W        W20062  19.879  25.241   1.856
48480W        W20063  38.572  38.886   3.701
48481W        W20064  27.579  10.342  14.443
48482W        W20065  33.012  35.387  12.950
48483W        W20066  20.324   6.941  13.075
48484W        W20067   1.586  18.276  14.329
48485W        W20068  43.039   6.835   3.152
48486W        W20069  11.748  41.964   1.767
48487W        W20070  38.832   7.244   3.318
48488W        W20071  42.437   8.260   0.734
48489W        W20072  39.327   3.658  10.687
48490W        W20073  36.107  13.765   0.699
48491W        W20074  32.883  36.868  11.592
48492W        W20075  44.171   2.715   1.707
48493W        W20076  10.171  21.341   3.023
48494W        W20077  44.803  40.385  13.963
48495W        W20078  17.117  27.517   1.176
48496W        W20079  20.642  18.756  11.924
48497W        W20080  16.553   1.822   2.280
48498W        W20081  13.091   0.692  12.981
48499W        W20082  19.053  44.704  11.221
48500W        W20083  36.586  15.903  12.039
48501W        W20084  16.259  22.173   2.011
48502W        W20085  38.524  42.983   0.092
48503W        W20086   1.865   1.722   2.776
48504W        W20087  41.361  37.788  11.464
48505W        W20088   0.400  32.143  12.107
48506W        W20089   2.773   6.738   1.648
48507W        W20090  30.439   5.293  11.755
48508W        W20091   0.353   6.446   0.435
48509W        W20092  43.292  12.248   0.254
48510W        W20093   9.773  15.707   5.052
48511W        W20094  39.812  33.116   2.683
48512W        W20095  42.337  30.573   2.215
48513W        W20096  43.795  21.456   2.372
48514W        W20097   5.418  19.217  14.379
48515W        W20098  39.592  21.575   3.293
48516W        W20099   0.373  42.824  11.398
48517W        W20100  13.286  18.642   0.593
48518W        W20101  40.170  40.892   1.386
48519W        W20102  37.199  12.634  11.933
48520W        W20103  44.022  19.310   1.242
48521W        W20104  19.657  25.661  11.160
48522W        W20105  10.242  16.595   3.899
48523W        W20106  25.245   6.856   3.758
48524W        W20107  13.504  18.974   2.857
48525W        W20108  19.789  29.091  12.477
48526W        W20109  33.925   9.429   2.239
48527W        W20110  28.585  33.647  14.395
48528W        W20111  13.871  31.422  11.285
48529W        W20112  15.313  33.596   0.012
48530W        W20113  20.640  28.598  10.524
48531W        W20114   9.872  26.209  14.761
48532W        W20115  23.581  37.838  12.301
48533W        W20116  44.343   0.083   2.441
48534W        W20117  28.001  27.073   2.782
48535W        W20118  16.661   4.184  14.022
48536W        W20119   3.639   4.411  14.052
48537W        W20120  22.400   4.684   3.550
48538W        W20121  32.761   7.664  12.025
48539W        W20122  19.502  18.930  12.999
48540W        W20123  17.344   2.341  10.374
48541W        W20124  23.402   4.960  12.999
48542W        W20125  40.988   3.428   1.696
48543W        W20126  16.377   0.052  13.236
48544W        W20127  34.610  24.556   1.722
48545W        W20128  28.079  36.853  12.939
48546W        W20129  10.265   5.152   4.169
48547W        W20130  34.956  36.510   4.663
48548W        W20131   6.744   9.268  13.578
48549W        W20132   1.497   9.916   0.753
48550W        W20133  17.170  22.628   2.920
48551W        W20134  44.712  27.527  11.607
48552W        W20135   1.839  35.181  12.714
48553W        W20136  27.078  17.895   2.778
48554W        W20137   1.805   7.970   2.339
48555W        W20138  20.067  30.465  10.249
48556W        W20139  35.589   3.975   2.325
48557W        W20140  14.545  27.559   3.072
48558W        W20141  40.767   1.395  13.933
48559W        W20142  10.666  33.437   2.077
48560W        W20143  17.710  26.774   3.432
48561W        W20144  17.604  13.701   0.071
48562W        W20145  29.713  10.438   4.573
48563W        W20146   2.519  41.890   0.987
48564W        W20147   2.276   5.891  12.539
48565W        W20148   4.127  23.843   2.661
48566W        W20149  11.611  24.202  13.959
48567W        W20150  22.654  39.237   4.375
48568W        W20151  31.030  36.045  12.531
48569W        W20152  17.710   9.113   0.157
48570W        W20153  11.250  32.200   4.093
48571W        W20154  30.176  29.797   5.031
48572W        W20155  42.604  22.801   0.717
48573W        W20156  33.038  43.259   0.047
48574W        W20157  25.968  34.576  11.322
48575W        W20158   7.792   9.703  12.821
48576W        W20159  14.147  33.382   3.187
48577W        W20160  13.167  26.524  13.763
48578W        W20161   8.852  39.410   1.465
48579W        W20162  13.830   3.802   1.222
48580W        W20163  19.959  30.900   0.279
48581W        W20164  42.280  10.813   3.875
48582W        W20165  34.491  44.993  10.889
48583W        W20166  24.749   4.803   2.162
48584W        W20167  22.442  30.000   2.306
48585W        W20168   2.318  39.747   1.166
48586W        W20169   0.237  24.933   2.854
48587W        W20170   2.988   8.340  11.372
48588W        W20171  22.437  22.671  10.213
48589W        W20172  31.252  36.446   2.222
48590W        W20173  20.462  25.114   0.796
48591W        W20174  21.047   9.951  12.583
48592W        W20175  17.834  12.181  12.565
48593W        W20176  10.629   2.679  11.535
48594W        W20177  30.506  20.069  14.351
48595W        W20178  32.413  37.683  12.884
48596W        W20179  18.895  18.659   0.480
48597W        W20180   4.016  22.829   0.860
48598W        W20181  19.606  14.074   2.868
48599W        W20182  24.336   5.664   0.617
48600W        W20183  17.046  34.102   4.707
48601W        W20184  40.565  33.006  12.493
48602W        W20185  19.560   7.726   2.361
48603W        W20186  26.349   7.100   2.597
48604W        W20187  30.519   3.899  12.397
48605W        W20188   7.637  12.372   3.895
48606W        W20189  12.946  34.792   1.192
48607W        W20190  24.560  18.970  12.869
48608W        W20191  29.296  40.105   2.877
48609W        W20192  31.619  18.048  13.265
48610W        W20193   4.268  26.151   2.968
48611W        W20194  36.535  10.108  13.896
48612W        W20195  41.452  15.985   3.623
48613W        W20196  37.375  34.500   4.138
48614W        W20197  15.097  40.554  12.416
48615W        W20198   1.534  25.096  10.803
48616W        W20199  13.029  38.069  13.424
48617W        W20200   7.719  12.836   1.889
48618W        W20201  32.523  18.987   5.067
48619W        W20202  22.055   5.798   4.515
48620W        W20203  22.009  41.070  10.756
48621W        W20204  17.160  44.342  13.753
48622W        W20205  40.235   0.741   3.796
48623W        W20206  15.260  34.868   9.868
48624W        W20207   8.918  28.426   0.390
48625W        W20208  29.406  20.646  13.591
48626W        W20209   2.872  16.830  13.611
48627W        W20210  18.831  24.556  10.507
48628W        W20211  27.537  17.219   1.739
48629W        W20212  35.712  23.462   0.805
48630W        W20213   3.747  28.255   0.268
48631W        W20214  11.300  30.543   2.736
48632W        W20215  43.145  43.069  11.052
48633W        W20216  26.144  16.168  10.437
48634W        W20217  16.043  31.202  10.825
48635W        W20218  30.950  33.994   0.857
48636W        W20219  28.362   2.747   4.625
48637W        W20220  34.026  13.907   1.456
48638W        W20221  34.071   3.946  11.627
48639W        W20222   7.955  39.391   1.350
48640W        W20223  26.885  32.202  14.418
48641W        W20224  15.344  13.903   3.791
48642W        W20225  32.317  15.093  11.620
48643W        W20226   0.291  22.005  13.413
48644W        W20227   5.490  25.195  13.030
48645W        W20228  34.084   2.934   4.390
48646W        W20229  36.978  43.016   3.103
48647W        W20230  29.785  36.047  14.449
48648W        W20231  30.360   0.840  14.371
48649W        W20232  25.785  18.050   4.706
48650W        W20233  12.877  25.631   4.495
48651W        W20234  29.210   0.142   1.408
48652W        W20235  27.851   1.489  13.203
48653W        W20236  20.156   7.919  14.633
48654W        W20237  29.120  20.680   1.300
48655W        W20238  39.982  32.439  14.609
48656W        W20239  41.722  15.740   2.359
48657W        W20240   4.738  12.075   3.687
48658W        W20241  26.571   2.356   3.079
48659W        W20242  39.428  14.269  14.121
48660W        W20243  16.077  31.188   3.533
48661W        W20244   0.760   0.548  11.108
48662W        W20245  29.566  16.382  14.521
48663W        W20246  29.091   6.878   2.362
48664W        W20247  42.219  41.901  14.890
48665W        W20248  10.391  29.529   2.317
48666W        W20249  31.650   9.629   3.332
48667W        W20250  36.489  40.206  14.257
48668W        W20251  35.396  35.337   3.718
48669W        W20252  28.785  12.552   3.045
48670W        W20253  28.071  29.285  11.132
48671W        W20254  24.554  38.280  14.851
48672W        W20255   7.646  44.500   0.046
48673W        W20256  24.144  24.053  13.401
48674W        W20257  40.293  35.557   3.008
48675W        W20258  34.000   6.875   2.155
48676W        W20259  37.994  41.080   0.471
48677W        W20260  31.438  18.898  13.362
48678W        W20261  37.162  20.684  11.357
48679W        W20262   0.333  33.326  11.529
48680W        W20263  18.569  42.493   2.306
48681W        W20264  12.895  44.962   1.265
48682W        W20265  28.469  42.875  12.076
48683W        W20266  42.743  33.140   1.822
48684W        W20267   6.700  19.217  14.482
48685W        W20268   9.277   6.330  11.235
48686W        W20269  21.426  20.173   2.298
48687W        W20270   1.092  44.409   4.502
48688W        W20271  37.141   1.349  11.125
48689W        W20272  18.601  41.067  14.922
48690W        W20273  13.334  38.028  10.640
48691W        W20274   9.994  14.844  13.624
48692W        W20275  32.657   6.446  11.598
48693W        W20276   5.922  19.425  14.349
48694W        W20277  41.754  34.000   3.580
48695W        W20278  41.843  36.931  10.799
48696W        W20279  10.343  25.314   2.809
48697W        W20280  20.993  44.941  11.128
48698W        W20281   9.311  36.601   1.622
48699W        W20282  27.007   5.757  13.748
48700W        W20283   0.718  20.741   3.661
48701W        W20284   0.246   3.736  12.047
48702W        W20285  42.342   7.802  12.428
48703W        W20286  19.060  20.843   4.073
48704W        W20287  42.650   0.021   2.857
48705W        W20288   9.666   0.236  12.792
48706W        W20289  32.141  40.349  13.958
48707W        W20290  32.044   0.251  13.014
48708W        W20291  15.533  14.197  12.108
48709W        W20292  35.894   1.195  14.147
48710W        W20293   2.641  36.073  10.417
48711W        W20294  16.392   0.861   0.361
48712W        W20295  18.982  28.193   0.089
48713W        W20296   3.470  15.341   2.669
48714W        W20297   5.993  17.766   2.752
48715W        W20298   4.633  34.427   1.795
48716W        W20299   4.903  35.406   3.608
48717W        W20300  39.004  18.335   1.223
48718W        W20301  11.913   0.510   3.339
48719W        W20302  17.635  24.908  13.930
48720W        W20303  24.621   0.576  12.595
48721W        W20304  42.505   6.325   1.689
48722W        W20305  34.139  18.569  14.515
48723W        W20306  31.941  20.496   0.941
48724W        W20307  34.451   9.479   1.349
48725W        W20308   7.239  16.270  14.007
48726W        W20309  42.856  23.538   3.244
48727W        W20310  43.924  16.037  11.539
48728W        W20311  43.348  38.796  14.386
48729W        W20312  14.005  31.700   1.951
48730W        W20313  34.438  26.171   1.186
48731W        W20314   8.201  40.388   1.220
48732W        W20315  37.857  27.043   2.448
48733W        W20316  23.778  13.720  12.115
48734W        W20317  34.904  19.106   2.170
48735W        W20318  41.771  26.941   0.603
48736W        W20319  10.448  30.041   0.415
48737W        W20320   3.945  10.664   0.384
48738W        W20321  21.359  15.669   2.828
48739W        W20322  23.926  18.913   3.327
48740W        W20323  43.967  44.025  13.832
48741W        W20324  18.542   4.846  14.415
48742W        W20325  30.897   3.428  11.542
48743W        W20326  13.996  16.348   2.450
48744W        W20327  13.722  36.468  11.965
48745W        W20328  28.088  26.863   0.203
48746W        W20329   2.835  12.868  13.316
48747W        W20330  36.535  28.203  11.177
48748W        W20331   2.011  10.864   2.733
48749W        W20332  34.400   9.991  12.472
48750W        W20333  15.069  32.542  13.791
48751W        W20334  10.607   1.470   3.678
48752W        W20335  10.961  30.602  10.493
48753W        W20336   9.376   4.451   4.534
48754W        W20337   8.374  27.064   2.505
48755W        W20338  11.579  15.107   0.974
48756W        W20339  13.839  32.439   1.243
48757W        W20340  24.470  23.187  12.799
48758W        W20341   7.061  33.569   2.431
48759W        W20342   6.329  43.083   0.771
48760W        W20343  33.231  18.871  11.039
48761W        W20344   7.086  25.792  12.379
48762W        W20345  31.688   7.341   0.331
48763W        W20346   1.428  36.875  13.483
48764W        W20347   3.431  29.177   3.297
48765W        W20348  23.273  24.381   3.040
48766W        W20349  35.862  43.949  11.877
48767W        W20350  22.089   2.394   3.969
48768W        W20351  14.693  39.369  12.965
48769W        W20352  21.484  41.077  13.515
48770W        W20353  35.975  44.119   3.658
48771W        W20354  34.367  23.939   0.378
48772W        W20355   6.348  10.075   5.074
48773W        W20356  19.009   8.299   4.017
48774W        W20357  37.907  15.716  10.725
48775W        W20358  36.593  15.296   0.513
48776W        W20359  38.071   2.917   0.789
48777W        W20360  17.237  31.708  10.807
48778W        W20361  43.220  15.312   2.909
48779W        W20362  29.746  35.063  11.591
48780W        W20363  24.104  18.162   0.546
48781W        W20364  31.066  18.085  11.095
48782W        W20365  36.090  30.434   0.730
48783W        W20366   4.324  37.993  10.089
48784W        W20367  25.507  12.080  13.761
48785W        W20368  22.524  33.598  13.393
48786W        W20369  39.929   3.256   0.799
48787W        W20370  12.712  38.372  13.715
48788W        W20371   7.434   8.457   3.925
48789W        W20372  17.780  36.431  13.784
48790W        W20373  34.149  25.159  10.667
48791W        W20374  30.586  22.236  10.646
48792W        W20375  35.870   7.537  12.171
48793W        W20376   2.007  10.209   3.193
48794W        W20377   2.330  34.843  14.968
48795W        W20378   3.605  31.020  12.078
48796W        W20379   4.052  20.760  13.283
48797W        W20380  29.708   0.091   1.573
48798W        W20381   8.666  20.236  12.826
48799W        W20382  38.287  15.449  13.495
48800W        W20383  22.041  36.918  12.334
48801W        W20384  44.424   6.884   3.666
48802W        W20385  25.506  21.097  13.051
48803W        W20386  12.829  11.115   4.592
48804W        W20387  24.279  19.736   4.170
48805W        W20388   3.217  42.332  12.523
48806W        W20389  44.962  12.094  11.469
48807W        W20390   0.199  16.300   4.073
48808W        W20391   6.159  17.038   1.019
48809W        W20392  14.642  15.772   4.672
48810W        W20393   5.768  25.057   1.000
48811W        W20394   2.653  26.096  10.483
48812W        W20395  44.800  16.095   3.244
48813W        W20396  24.117  41.968  11.732
48814W        W20397  32.096   1.759   4.717
48815W        W20398  18.732  28.101   2.003
48816W        W20399  42.872  17.064   1.212
48817W        W20400   6.989  30.677  14.829
48818W        W20401  15.676  13.747   3.407
48819W        W20402  25.657  24.967  10.010
48820W        W20403  11.175  10.319   2.455
48821W        W20404  37.050  24.679   0.470
48822W        W20405  11.470  20.022  13.455
48823W        W20406  20.673   9.770   3.230
48824W        W20407  41.190  23.783  13.637
48825W        W20408  36.527  28.618   0.843
48826W        W20409  15.935  34.025   0.828
48827W        W20410  11.257  41.734   4.646
48828W        W20411  34.896  40.556  13.597
48829W        W20412  18.814  14.225   4.939
48830W        W20413   7.889  23.571  10.718
48831W        W20414  38.405  24.607   0.213
48832W        W20415  30.180  16.655  12.482
48833W        W20416  14.454   4.434  10.247
48834W        W20417  19.741  18.567  11.546
48835W        W20418  17.886  12.160  11.510
48836W        W20419  37.310  40.973  11.266
48837W        W20420  42.584  13.311   3.796
48838W        W20421  24.352  29.126   2.500
48839W        W20422  36.955  33.286   1.353
48840W        W20423  28.189  41.815  11.365
48841W        W20424  30.082  41.550  11.536
48842W        W20425  36.513  22.844  14.932
48843W        W20426  37.606  34.424  10.718
48844W        W20427   0.885  28.367  13.027
48845W        W20428   3.383  15.032  10.841
48846W        W20429  16.805  26.244   3.157
48847W        W20430   7.009  21.667   0.777
48848W        W20431  23.243  42.888  10.741
48849W        W20432  19.826  12.128   0.859
48850W        W20433  38.058   8.897   0.490
48851W        W20434  31.079  16.560  11.707
48852W        W20435  36.662  38.547   1.965
48853W        W20436  22.286  21.715  14.855
48854W        W20437  20.205  31.025   5.584
48855W        W20438  31.523  21.321   4.500
48856W        W20439  22.951  43.495   4.208
48857W        W20440  19.039  24.700  12.059
48858W        W20441  35.629  26.945   0.971
48859W        W20442  15.689  44.549   4.607
48860W        W20443  36.502  27.721  12.936
48861W        W20444  35.899  40.879   3.573
48862W        W20445  37.298   2.705  11.226
48863W        W20446   9.726  15.822   4.189
48864W        W20447  15.737  12.611   0.984
48865W        W20448  17.740  23.155   3.108
48866W        W20449  15.557  11.107   3.135
48867W        W20450  42.558   4.893  13.473
48868W        W20451   1.818  30.508   3.601
48869W        W20452  43.082  42.305  14.851
48870W        W20453  13.898   3.919  13.250
48871W        W20454  38.145   7.984   5.401
48872W        W20455  39.306  36.739   1.720
48873W        W20456   4.430  31.491  13.053
48874W        W20457  20.071  19.744  14.412
48875W        W20458  36.599  26.269   0.927
48876W        W20459  43.729  21.125  13.257
48877W        W20460  30.137  28.419   3.364
48878W        W20461  41.047  30.431   1.583
48879W        W20462  27.616   8.616   4.189
48880W        W20463   0.369   4.787   0.077
48881W        W20464  22.145  42.061   0.877
48882W        W20465  35.076   8.838  13.286
48883W        W20466  32.535  16.103   4.592
48884W        W20467  38.947  32.414  11.590
48885W        W20468  24.986   6.416   3.690
48886W        W20469  43.225  25.972  12.794
48887W        W20470  15.156  32.026  14.511
48888W        W20471   2.943   6.280   3.295
48889W        W20472   5.185   1.982  14.927
48890W        W20473  38.744  33.953  11.419
48891W        W20474  15.053  26.970   4.684
48892W        W20475  39.601  39.996  10.692
48893W        W20476   1.898   1.288   3.134
48894W        W20477  16.512  35.512   5.525
48895W        W20478  41.087  43.211   2.369
48896W        W20479  28.212  31.192   0.285
48897W        W20480  33.639  37.408  12.484
48898W        W20481  12.318  28.062  14.781
48899W        W20482  18.060  37.102  10.771
48900W        W20483  18.338  34.340   2.417
48901W        W20484  18.851  37.485  13.910
48902W        W20485  37.470  24.030   2.937
48903W        W20486  32.383  18.706  12.873
48904W        W20487  43.440  30.444   5.470
48905W        W20488  24.071  15.458   4.933
48906W        W20489  15.225  35.800  11.049
48907W        W20490  31.313   0.680   4.540
48908W        W20491  38.187  34.983   1.571
48909W        W20492  36.966  13.249  13.510
48910W        W20493   6.415  36.834   3.932
48911W        W20494   3.369  20.309  14.365
48912W        W20495  43.897  16.369  10.622
48913W        W20496  26.131   2.562   4.320
48914W        W20497  18.096  20.430  11.180
48915W        W20498  26.073  41.838   1.982
48916W        W20499  26.514  33.106   4.580
48917W        W20500  28.457  25.552   0.074
48918W        W20501  37.386  32.576  11.136
48919W        W20502  39.115  43.352   3.205
48920W        W20503  24.615  26.902   0.716
48921W        W20504  36.890  18.245   0.494
48922W        W20505   3.730  34.653  13.282
48923W        W20506  34.205  21.127  11.127
48924W        W20507  28.477   6.174   0.725
48925W        W20508   5.176  42.374   3.705
48926W        W20509   7.906  43.476   2.151
48927W        W20510  25.174  15.940  12.661
48928W        W20511  17.329  29.851   0.926
48929W        W20512  29.904  19.646  11.200
48930W        W20513  18.695  27.671  13.897
48931W        W20514  39.507  37.210  12.887
48932W        W20515  12.057  17.785   2.236
48933W        W20516  42.275   7.256   0.504
48934W        W20517  19.614  30.653   1.430
48935W        W20518   1.784   7.842  13.414
48936W        W20519  31.491  39.504   4.275
48937W        W20520  34.364   6.423  12.291
48938W        W20521  39.993  30.404   4.348
48939W        W20522  15.219   9.412  10.641
48940W        W20523  40.267  17.592   2.744
48941W        W20524  44.194   9.565   3.749
48942W        W20525  13.705  14.822   2.911
48943W        W20526  21.119   1.974  12.311
48944W        W20527  23.238   3.802   3.270
48945W        W20528  37.057   3.282  13.184
48946W        W20529   9.199   4.976   0.771
48947W        W20530  27.240  20.991  12.704
48948W        W20531  36.493  39.582  13.435
48949W        W20532  42.913   2.001   3.726
48950W        W20533  40.002  44.739   0.737
48951W        W20534  29.007  28.523  13.061
48952W        W20535   7.088  29.421  12.984
48953W        W20536  44.403  15.068   1.852
48954W        W20537  40.099  14.766   2.619
48955W        W20538  20.664  44.764   0.490
48956W        W20539  36.008   1.812   4.433
48957W        W20540  11.409   6.850   4.126
48958W        W20541  20.048  13.255  14.065
48959W        W20542   8.606  32.627   3.151
48960W        W20543  23.200  35.508   1.231
48961W        W20544  29.915  21.514  11.441
48962W        W20545  28.052  10.335   0.256
48963W        W20546   8.881   5.442   2.381
48964W        W20547  43.814  34.116   4.110
48965W        W20548  38.186   8.854   1.948
48966W        W20549  38.825  33.251  13.842
48967W        W20550  11.709  36.288  11.781
48968W        W20551  33.778  19.121  11.742
48969W        W20552  14.157  20.594   0.294
48970W        W20553  26.967  44.258  14.858
48971W        W20554  38.930  25.111  12.337
48972W        W20555  22.232   6.247   1.225
48973W        W20556  19.478  37.984   4.442
48974W        W20557  44.012   2.450  14.996
48975W        W20558  19.323  30.654   4.623
48976W        W20559   8.953  36.432  14.330
48977W        W20560  43.580  16.959  10.790
48978W        W20561  25.954   7.299  14.411
48979W        W20562   2.065  32.385   2.640
48980W        W20563   5.490   4.350  14.920
48981W        W20564  15.233  32.737  11.414
48982W        W20565  31.065  21.773   0.850
48983W        W20566   5.731   0.411  13.984
48984W        W20567  25.919   7.267   4.058
48985W        W20568   8.201  19.186   2.677
48986W        W20569   3.264  43.896   4.761
48987W        W20570  11.655  11.975   1.939
48988W        W20571  23.244  18.016  10.074
48989W        W20572  25.589  15.139   2.552
48990W        W20573  40.224  39.122   4.089
48991W        W20574  41.761  43.445   1.775
48992W        W20575   0.192  27.532  12.893
48993W        W20576  25.882  30.610  10.549
48994W        W20577  10.162  37.362   1.003
48995W        W20578  25.284   5.246   5.066
48996W        W20579  21.114  11.134  11.243
48997W        W20580   6.439  20.104  14.459
48998W        W20581  42.048  35.042  13.815
48999W        W20582  23.547   5.731   1.375
49000W        W20583  19.891   8.340   1.391
49001W        W20584   5.102  10.839  11.967
49002W        W20585  36.039   0.038   0.608
49003W        W20586  43.340   6.771  10.530
49004W        W20587  16.761  24.656   4.756
49005W        W20588  40.203   6.209  11.959
49006W        W20589  24.092  35.685  12.772
49007W        W20590  15.497  37.145  14.503
49008W        W20591  35.042  12.817   2.277
49009W        W20592  42.537   0.334  12.380
49010W        W20593  26.765  14.702   4.577
49011W        W20594  22.404  34.912  12.825
49012W        W20595  25.090  15.193   2.719
49013W        W20596  13.266  35.170   3.338
49014W        W20597  25.135  14.460   0.425
49015W        W20598  40.551  13.770   4.039
49016W        W20599  27.163  16.318   1.771
49017W        W20600  36.973   0.442   2.784
49018W        W20601  33.040   3.007  11.624
49019W        W20602  31.067  22.219   5.311
49020W        W20603   8.718  33.481  13.996
49021W        W20604  39.934  37.563   4.406
49022W        W20605   2.242  42.565  11.638
49023W        W20606   8.773  22.545  13.470
49024W        W20607  43.325  32.901  11.565
49025W        W20608   1.400   0.765   1.057
49026W        W20609   0.261   3.794  10.840
49027W        W20610   6.207  43.443  11.908
49028W        W20611  27.607  25.002   4.657
49029W        W20612  30.885  10.218   0.525
49030W        W20613  14.475  17.272  12.211
49031W        W20614  29.656  19.830   2.676
49032W        W20615   4.154  13.138  14.473
49033W        W20616  25.455  20.623  12.881
49034W        W20617   6.707  20.957   1.249
49035W        W20618  19.720   3.025   4.536
49036W        W20619  11.726  22.520   0.856
49037W        W20620  42.882  42.409  12.669
49038W        W20621   6.758   6.586  14.152
49039W        W20622  30.504  29.892   0.737
49040W        W20623  32.415  36.408   2.714
49041W        W20624  14.688   0.116  11.560
49042W        W20625  28.263  34.106  14.490
49043W        W20626  22.168   8.254   3.921
49044W        W20627   4.801   1.242   1.491
49045W        W20628  26.901  16.089  12.581
49046W        W20629   4.788   3.444  13.610
49047W        W20630  21.114   3.781   0.001
49048W        W20631  25.389   9.469   2.688
49049W        W20632  21.943  20.201   2.289
49050W        W20633  42.133  12.461  10.226
49051W        W20634  22.211  38.570   0.764
49052W        W20635  34.451  25.973  11.599
49053W        W20636  30.115  12.846   4.035
49054W        W20637  12.161   7.540   0.913
49055W        W20638  25.938  39.660  13.445
49056W        W20639  27.566  37.272   3.963
49057W        W20640  15.578  43.077   0.285
49058W        W20641   5.054   2.885   3.161
49059W        W20642  39.876  44.908  14.894
49060W        W20643  41.349  26.642   0.488
49061W        W20644  37.103  14.865  13.073
49062W        W20645  36.514   3.330  11.903
49063W        W20646  42.863  17.468  10.481
49064W        W20647   2.184   9.746   2.815
49065W        W20648  41.113  15.433  14.737
49066W        W20649   7.388  22.127   0.402
49067W        W20650  26.617   3.320  12.571
49068W        W20651  25.111  15.945   2.293
49069W        W20652  30.659  27.090  10.629
49070W        W20653  37.453  20.629   1.415
49071W        W20654  12.372  40.497   4.705
49072W        W20655  32.919  12.325   2.186
49073W        W20656   6.449  20.070  11.957
49074W        W20657  34.417  14.405  13.316
49075W        W20658  28.576  23.612   1.799
49076W        W20659  26.788  30.329   2.649
49077W        W20660   9.447   6.265   0.385
49078W        W20661  29.380   7.689   2.791
49079W        W20662  30.095  33.549   2.469
49080W        W20663  24.038  27.860  11.647
49081W        W20664  34.355  23.966   1.753
49082W        W20665  16.843  38.625   2.242
49083W        W20666  18.355   0.285   4.271
49084W        W20667  14.691  17.591  14.830
49085W        W20668   9.341  37.810  10.985
49086W        W20669  22.301  21.016  10.314
49087W        W20670  20.507   6.365  11.977
49088W        W20671   1.999  24.959   0.752
49089W        W20672  31.740  22.684  12.911
49090W        W20673   6.766  32.152  11.262
49091W        W20674  42.274  42.059   2.233
49092W        W20675   1.124  35.570  11.134
49093W        W20676  36.866  27.992   1.247
49094W        W20677  25.191   2.930   1.020
49095W        W20678  32.294  25.126   0.750
49096W        W20679   9.916  15.530  11.520
49097W        W20680  12.237   1.479  11.986
49098W        W20681  31.104  18.476   0.278
49099W        W20682   2.043  35.377  10.883
49100W        W20683  18.593  41.300   4.231
49101W        W20684   6.353  16.645  13.475
49102W        W20685  26.736   7.453  14.839
49103W        W20686  23.187  43.645  12.553
49104W        W20687   9.011  35.294   1.776
49105W        W20688  24.783  29.553   0.388
49106W        W20689  18.689  21.450   3.175
49107W        W20690  18.772  39.102   5.068
49108W        W20691   7.090   7.335  12.997
49109W        W20692   8.171  27.462  13.415
49110W        W20693   5.413  23.754  10.811
49111W        W20694   6.935  23.735   3.167
49112W        W20695  27.761  33.043   3.327
49113W        W20696  11.829  19.362   3.953
49114W        W20697  24.142  11.815  11.071
49115W        W20698  14.517  31.471  11.391
49116W        W20699  33.335  26.484   3.391
49117W        W20700  31.866  32.008   2.905
49118W        W20701  15.348   5.394  13.462
49119W        W20702  33.580   1.650   1.299
49120W        W20703  27.112   9.646  13.381
49121W        W20704  37.252  15.839  13.910
49122W        W20705  15.235  32.252  11.590
49123W        W20706  31.469  28.634   2.956
49124W        W20707  29.359   2.352  11.682
49125W        W20708  16.334  18.609   3.585
49126W        W20709   2.640  28.006  10.716
49127W        W20710  10.338  44.468  14.145
49128W        W20711   4.063  25.197   3.749
49129W        W20712  19.451  43.506   2.879
49130W        W20713  36.584  37.878  14.977
49131W        W20714  29.523  14.927  14.240
49132W        W20715  29.908  17.062  12.327
49133W        W20716  12.216  18.023   4.455
49134W        W20717  25.097  43.271   0.426
49135W        W20718   2.842  36.968  13.544
49136W        W20719  20.882  39.348  13.889
49137W        W20720  23.295  43.344   4.562
49138W        W20721  10.411  23.198   1.495
49139W        W20722  33.791  13.684   1.058
49140W        W20723  39.127   3.812  14.594
49141W        W20724   2.112  30.219  12.961
49142W        W20725  12.862  15.641   4.841
49143W        W20726  21.489  22.207  12.167
49144W        W20727  22.520  41.986   3.767
49145W        W20728  32.561  30.946   3.145
49146W        W20729  10.410  26.474  13.025
49147W        W20730  40.935  15.468   2.888
49148W        W20731  44.368  35.799  10.312
49149W        W20732  20.751  43.330  12.068
49150W        W20733  29.516  44.142   0.271
49151W        W20734   2.877   9.115   2.405
49152W        W20735  41.497   1.235   3.208
49153W        W20736  17.043  19.096   0.735
49154W        W20737  23.717  32.937   1.381
49155W        W20738  35.825  44.357   1.912
49156W        W20739  20.616  40.655   1.180
49157W        W20740  25.915  25.457   4.987
49158W        W20741  11.919  23.829  12.659
49159W        W20742  44.330  16.263  12.916
49160W        W20743  35.385  22.016   2.105
49161W        W20744  29.703  24.615  11.510
49162W        W20745  43.908  42.125   0.289
49163W        W20746  21.487  13.249   2.700
49164W        W20747  12.238  16.075  12.838
49165W        W20748  18.031  13.082  11.501
49166W        W20749  38.787  15.622  13.973
49167W        W20750  16.622  35.648  10.242
49168W        W20751  13.626  40.902   4.700
49169W        W20752  41.458   8.179  11.733
49170W        W20753  37.018  10.602   4.176
49171W        W20754  16.819  30.352  13.699
49172W        W20755  43.211  44.254  14.533
49173W        W20756   2.235   1.449   4.924
49174W        W20757  19.218  12.649  10.623
49175W        W20758  25.543   1.821   4.213
49176W        W20759  42.763  12.090  11.348
49177W        W20760   9.199  19.272   1.181
49178W        W20761  23.610  40.153  12.440
49179W        W20762  29.962  20.614   4.303
49180W        W20763   4.688  44.379   1.363
49181W        W20764  23.789   7.612   1.190
49182W        W20765   8.215   0.715   0.052
49183W        W20766  12.856  31.401  14.702
49184W        W20767  40.570  13.124   4.663
49185W        W20768  35.037  41.398  12.675
49186W        W20769  44.480   6.070   1.937
49187W        W20770   2.652   0.879   0.202
49188W        W20771  13.779   8.776  11.989
49189W        W20772  26.609  41.405   3.168
49190W        W20773  14.518  22.680   1.366
49191W        W20774  25.674   5.188   0.763
49192W        W20775  28.556  35.007   4.063
49193W        W20776   5.366  13.221  13.958
49194W        W20777  39.921  40.406  10.578
49195W        W20778  24.040   3.156  11.460
49196W        W20779  11.380  11.166  11.664
49197W        W20780  10.526  23.038   4.281
49198W        W20781  35.024  34.444  10.614
49199W        W20782  41.248  22.384   4.125
49200W        W20783  34.474  14.287   0.381
49201W        W20784  21.997  11.642   4.398
49202W        W20785  29.173  39.730   4.171
49203W        W20786   8.797  38.844   4.943
49204W        W20787  25.630  41.608  12.868
49205W        W20788  37.833  20.140   2.894
49206W        W20789  22.526  33.514  10.516
49207W        W20790   3.301  39.951   0.868
49208W        W20791  38.022  41.199  14.948
49209W        W20792  10.802  19.664   0.997
49210W        W20793  28.006  25.459  12.530
49211W        W20794  39.837   8.225  14.917
49212W        W20795  17.740  33.656   3.203
49213W        W20796  26.216  29.595  13.433
49214W        W20797  36.914  19.250  11.924
49215W        W20798  27.309  12.446  13.494
49216W        W20799  32.664  35.317  12.537
49217W        W20800  38.178  43.997   2.211
49218W        W20801  25.644  28.242   3.343
49219W        W20802  25.165  12.092  11.955
49220W        W20803  39.407   7.153   1.031
49221W        W20804  19.792   4.653   1.732
49222W        W20805  13.392  19.847   3.031
49223W        W20806  19.095   9.762  12.103
49224W        W20807   8.788  11.194   2.394
49225W        W20808  29.662   2.214  14.406
49226W        W20809   7.851  35.171   0.333
49227W        W20810  19.981  26.122   1.712
49228W        W20811   7.258  29.416  14.294
49229W        W20812  31.839  44.451   4.599
49230W        W20813  32.457   5.377   4.099
49231W        W20814  18.294  12.308   4.545
49232W        W20815   3.822   6.914  14.101
49233W        W20816   7.742  26.530   2.179
49234W        W20817  21.740   7.802  13.138
49235W        W20818  19.199  41.357   1.155
49236W        W20819  33.076  38.503  10.787
49237W        W20820  23.203  12.778  14.435
49238W        W20821  30.662  35.543   1.847
49239W        W20822  43.080   9.274   1.704
49240W        W20823  13.257  19.331  12.441
49241W        W20824   7.223  34.020   1.652
49242W        W20825  14.401   0.417  13.034
49243W        W20826   1.408   7.138  13.453
49244W        W20827  14.555  35.009   0.508
49245W        W20828   3.804  39.964  10.674
49246W        W20829  31.176   4.315  11.347
49247W        W20830  33.127  21.563  11.235
49248W        W20831   3.776   2.353   2.794
49249W        W20832   6.883  33.712   4.972
49250W        W20833  31.216  13.679   1.651
49251W        W20834  26.647  28.269  11.603
49252W        W20835   4.730  11.423   1.649
49253W        W20836   0.770  30.434  12.047
49254W        W20837  26.378  14.054  11.772
49255W        W20838  14.216  42.488   4.591
49256W        W20839  26.212  34.345  12.186
49257W        W20840  16.110  17.416  13.736
49258W        W20841  31.579  14.741   4.560
49259W        W20842  37.481  33.890   2.817
49260W        W20843  36.233  15.624  12.350
49261W        W20844  29.684  39.295   3.266
49262W        W20845  28.724  40.023   3.726
49263W        W20846  28.415  27.440  10.712
49264W        W20847  24.597  29.934   2.282
49265W        W20848   3.210  11.298  12.987
49266W        W20849  15.445  18.343  10.603
49267W        W20850  26.946  11.307  11.536
49268W        W20851  31.618   0.424   2.352
49269W        W20852  44.460  24.694  12.240
49270W        W20853   4.847   9.913   0.805
49271W        W20854  23.404  18.705  11.516
49272W        W20855  14.191  42.858   1.142
49273W        W20856  43.488  38.407   3.642
49274W        W20857  25.888  41.541   0.498
49275W        W20858  12.685   2.341   2.384
49276W        W20859  17.753  25.091   1.216
49277W        W20860  10.178  36.315  12.446
49278W        W20861  21.291  29.298   4.597
49279W        W20862  44.632  39.856   9.880
49280W        W20863  11.957   5.639  14.287
49281W        W20864  43.207  15.044   3.360
49282W        W20865  44.826  39.705   0.183
49283W        W20866   1.538  39.490  11.498
49284W        W20867  12.143  36.295  14.833
49285W        W20868  38.070  26.724   0.443
49286W        W20869   7.196  17.211   1.872
49287W        W20870  35.867  15.092  11.989
49288W        W20871  16.803  13.562   4.223
49289W        W20872  13.904  21.111   4.200
49290W        W20873  18.423  11.600  11.557
49291W        W20874  38.465   7.635   0.850
49292W        W20875  37.818  19.743  14.787
49293W        W20876   2.483   6.759  12.940
49294W        W20877   2.802  44.501  13.421
49295W        W20878  27.551  39.033   2.244
49296W        W20879  32.670  25.216   4.851
49297W        W20880  20.738  42.247  11.057
49298W        W20881  13.406  27.500  11.129
49299W        W20882  12.676  24.666   4.197
49300W        W20883  15.837  44.747   2.449
49301W        W20884   1.522  27.815  14.796
49302W        W20885  29.071  34.852   9.989
49303W        W20886   1.514   9.423   0.943
49304W        W20887  12.283   2.467  12.077
49305W        W20888   5.915  35.422  14.881
49306W        W20889   0.071  29.634   3.637
49307W        W20890  34.215   9.456  14.922
49308W        W20891  32.836  38.423  11.233
49309W        W20892  12.481  30.198   4.022
49310W        W20893  13.293   9.229   2.358
49311W        W20894  39.881  35.004  12.135
49312W        W20895  32.449  22.208  13.050
49313W        W20896  12.220   6.337  13.852
49314W        W20897   3.699   7.774   0.757
49315W        W20898   6.999   7.701   3.630
49316W        W20899   3.942  11.704   1.233
49317W        W20900  11.406  38.320   3.314
49318W        W20901  40.842  31.840   0.892
49319W        W20902  13.332  12.211   4.707
49320W        W20903  17.996  25.720   4.891
49321W        W20904  40.711  42.967  10.500
49322W        W20905   2.887   4.953  14.044
49323W        W20906  22.078  41.979  12.458
49324W        W20907  17.329  17.729   3.102
49325W        W20908   9.356  20.319  13.637
49326W        W20909  14.890  26.286   1.341
49327W        W20910  22.198  27.599   3.301
49328W        W20911  35.278  22.671  13.493
49329W        W20912  18.981  22.460  11.836
49330W        W20913  21.131  23.484   1.273
49331W        W20914  44.302  16.472   1.045
49332W        W20915  30.747  25.127   0.880
49333W        W20916  44.482  29.462  12.032
49334W        W20917  15.023  26.226  14.975
49335W        W20918  31.923  29.738  13.906
49336W        W20919  40.967  18.113   3.101
49337W        W20920  32.308  23.076  10.603
49338W        W20921  34.077   2.772   4.914
49339W        W20922  11.134  18.447  13.623
49340W        W20923  41.450  23.781  14.091
49341W        W20924  21.330  10.173   5.026
49342W        W20925  30.681  12.246   3.660
49343W        W20926  21.810  42.726   2.041
49344W        W20927  40.585  29.132   2.259
49345W        W20928  41.201   4.826  14.810
49346W        W20929  33.482  19.435  12.591
49347W        W20930   5.890  33.269  11.051
49348W        W20931   7.357  23.760  12.525
49349W        W20932   8.598  28.102  14.965
49350W        W20933  18.375  40.323  13.857
49351W        W20934  23.255  31.542   4.058
49352W        W20935  24.557  19.964  10.627
49353W        W20936  42.795  19.495  10.759
49354W        W20937   5.827   8.313  12.998
49355W        W20938   0.952  16.017   1.838
49356W        W20939  37.839  21.551   0.697
49357W        W20940  44.587  43.949   3.234
49358W        W20941  10.612  19.620   1.888
49359W        W20942  20.869  29.591   4.627
49360W        W20943  27.964  33.340  10.518
49361W        W20944  33.969  13.688   4.388
49362W        W20945   1.854   3.016   4.562
49363W        W20946  14.188  10.317  14.010
49364W        W20947  10.006  17.970  11.656
49365W        W20948  27.438  27.605   0.745
49366W        W20949   3.403  31.209  14.121
49367W        W20950  20.355  20.151   4.533
49368W        W20951  35.649  35.403   2.876
49369W        W20952   7.959  37.816  11.925
49370W        W20953  18.109  31.606  10.900
49371W        W20954  31.622  25.631  13.881
49372W        W20955  26.037   5.707  13.058
49373W        W20956  32.980   0.052   1.683
49374W        W20957  29.703  20.607   9.863
49375W        W20958  35.348   4.317  12.442
49376W        W20959  28.550  41.312  12.498
49377W        W20960  18.191  16.542   2.270
49378W        W20961   5.383   9.918   2.490
49379W        W20962  42.764  20.150   3.265
49380W        W20963  12.214  41.331  13.898
49381W        W20964  16.132   8.170  14.269
49382W        W20965  20.606  36.070   1.609
49383W        W20966   3.318  17.879   1.741
49384W        W20967  29.428  41.158   5.016
49385W        W20968  30.168   1.923  13.897
49386W        W20969  38.602  19.658   2.762
49387W        W20970  14.769  44.771  11.149
49388W        W20971   1.135  17.636  10.984
49389W        W20972  24.189   8.442   5.107
49390W        W20973  32.577  39.153   1.707
49391W        W20974  24.153  33.940  14.386
49392W        W20975  29.487  30.477   1.976
49393W        W20976  38.491   0.497  11.601
49394W        W20977  27.619  41.077  14.410
49395W        W20978  34.395  34.675  12.916
49396W        W20979   5.193  41.309  11.073
49397W        W20980   5.216   9.067   0.819
49398W        W20981  28.640  44.745  11.997
49399W        W20982  42.959  20.252   2.387
49400W        W20983   7.426  17.730  14.824
49401W        W20984  27.395  25.108  14.632
49402W        W20985  26.185  38.975  11.519
49403W        W20986  40.359  42.303  12.426
49404W        W20987  13.205  10.167  11.161
49405W        W20988  13.209  38.765  13.296
49406W        W20989  22.168   9.348  12.730
49407W        W20990   9.182  38.323   4.393
49408W        W20991  44.055  21.014   4.561
49409W        W20992  30.941  14.369   0.128
49410W        W20993  38.415  41.825  10.864
49411W        W20994  26.741  13.738  11.570
49412W        W20995   8.461  12.377   1.374
49413W        W20996  11.204  24.790   1.921
49414W        W20997  17.413  33.057   4.046
49415W        W20998  40.884  39.993   3.640
49416W        W20999  44.511   2.668  10.593
49417W        W21000  11.356  29.203  12.985
49418W        W21001  30.970  14.758   0.489
49419W        W21002  18.646   1.489   2.359
49420W        W21003  13.575  11.654   0.315
49421W        W21004   3.291  27.988  13.479
49422W        W21005  12.220   3.868   1.677
49423W        W21006  29.546  21.150  12.393
49424W        W21007  31.426  38.409   2.688
49425W        W21008  20.073  37.962   0.828
49426W        W21009  13.160  11.726   1.400
49427W        W21010  16.894  31.489   0.807
49428W        W21011  12.212  26.036   3.898
49429W        W21012  40.966  43.722   3.944
49430W        W21013   0.929   8.526   0.248
49431W        W21014  40.764   3.962  13.772
49432W        W21015  11.298   7.318  13.482
49433W        W21016  34.118  34.502   3.321
49434W        W21017  42.769  21.059   1.146
49435W        W21018  11.790  22.158   3.341
49436W        W21019  42.917  27.391   3.511
49437W        W21020  31.678  20.934  10.857
49438W        W21021  19.954  43.901   1.400
49439W        W21022  25.623  19.173  13.497
49440W        W21023  26.187  34.912   5.009
49441W        W21024  27.379  30.612  14.273
49442W        W21025  42.592   3.549   3.164
49443W        W21026  39.940  19.309  12.611
49444W        W21027  37.094  38.963  12.433
49445W        W21028  20.222   5.468  11.962
49446W        W21029  31.431  44.459  14.036
49447W        W21030  34.385  41.225   1.892
49448W        W21031  38.048   7.220   4.994
49449W        W21032  14.249  42.839   0.228
49450W        W21033   7.220  32.693   2.210
49451W        W21034  43.140  30.908  13.516
49452W        W21035   1.078  22.307   2.197
49453W        W21036  39.237   1.356   3.394
49454W        W21037  34.350  30.525   3.437
49455W        W21038  43.764  35.316   3.705
49456W        W21039  20.569  40.256  13.730
49457W        W21040  39.595  24.462  14.388
49458W        W21041  20.207  17.055   9.790
49459W        W21042  38.061  12.591  14.363
49460W        W21043  17.095  40.474  14.236
49461W        W21044  12.149  21.083   4.954
49462W        W21045  31.498  15.703   4.627
49463W        W21046   4.428  40.788  13.015
49464W        W21047  40.446  18.104  14.561
49465W        W21048   2.146   1.750  12.445
49466W        W21049  15.173  41.968   4.796
49467W        W21050   4.614   1.722   1.312
49468W        W21051  40.841   6.164  13.331
49469W        W21052  38.082  20.503   4.820
49470W        W21053  11.147  16.641  11.576
49471W        W21054  36.911  26.472   4.748
49472W        W21055  27.918  31.868  11.612
49473W        W21056  37.645  29.271  11.611
49474W        W21057  37.509  43.974  10.811
49475W        W21058   7.453  31.001   3.494
49476W        W21059   6.876  11.354   0.049
49477W        W21060  12.692   3.397  14.694
49478W        W21061  26.429  42.345   0.736
49479W        W21062  17.080  36.063  14.676
49480W        W21063  23.673  27.474  11.637
49481W        W21064   3.954  36.994   4.916
49482W        W21065  13.591  31.049  11.087
49483W        W21066  40.148  44.866   2.826
49484W        W21067  17.778  12.850  14.513
49485W        W21068  38.831  15.785   5.006
49486W        W21069  21.147  28.746  14.022
49487W        W21070   8.763  33.605   4.225
49488W        W21071  42.765  16.287   0.888
49489W        W21072  23.583  17.331  12.113
49490W        W21073  18.078  34.023   3.601
49491W        W21074  43.989  22.073   2.878
49492W        W21075   0.603   8.169   2.782
49493W        W21076  10.115   8.887   1.803
49494W        W21077  43.270  17.287  13.418
49495W        W21078  21.672   7.884   1.885
49496W        W21079  14.177  28.434   1.829
49497W        W21080   1.192  32.226  13.157
49498W        W21081  38.594  11.356   2.082
49499W        W21082  40.039  25.587   4.782
49500W        W21083  30.377  28.402  11.663
49501W        W21084  34.209  23.549  13.632
49502W        W21085  15.077  26.598  14.612
49503W        W21086  44.845  36.023   0.853
49504W        W21087   2.010  18.715  11.045
49505W        W21088  44.852  39.435   2.648
49506W        W21089   0.023  15.784   0.715
49507W        W21090  28.481   8.205  13.463
49508W        W21091   3.726  20.524  12.331
49509W        W21092  20.439  25.516   0.367
49510W        W21093  20.062  17.335   0.934
49511W        W21094  34.115  42.474   0.975
49512W        W21095  14.678  42.967  12.299
49513W        W21096  40.169  28.178  11.287
49514W        W21097  44.232  32.507  13.965
49515W        W21098  39.781  22.068   4.404
49516W        W21099  13.138   8.862   0.706
49517W        W21100  26.544  34.488   3.379
49518W        W21101  34.019   3.002   2.847
49519W        W21102  40.519  15.301   1.229
49520W        W21103  14.762  41.580   2.591
49521W        W21104  12.664  10.664  11.390
49522W        W21105  29.635   3.371  12.193
49523W        W21106  20.458  37.913  14.422
49524W        W21107  37.544  25.352   4.241
49525W        W21108  18.710  20.669   4.406
49526W        W21109  25.417  16.703  13.302
49527W        W21110   4.830  21.196  11.204
49528W        W21111   4.080  11.563   3.359
49529W        W21112  23.421  11.213   0.684
49530W        W21113  43.887  31.124   3.351
49531W        W21114  13.984  29.987  13.270
49532W        W21115  21.107   4.307   0.018
49533W        W21116   5.376  15.669  11.180
49534W        W21117  27.898   9.046  13.502
49535W        W21118  39.055  30.804   1.315
49536W        W21119  32.764  33.514  13.576
49537W        W21120   5.588   1.868   1.214
49538W        W21121  38.545  39.417  11.147
49539W        W21122   8.691  44.601  12.761
49540W        W21123  44.313  39.139  11.933
49541W        W21124  15.639   1.765   2.376
49542W        W21125  29.948  36.608   2.291
49543W        W21126  34.460  42.670   2.235
49544W        W21127  12.172  27.653   0.561
49545W        W21128   0.520  36.075  14.736
49546W        W21129  23.936  12.637  14.934
49547W        W21130   0.455  43.728   2.472
49548W        W21131  32.447  21.985   1.530
49549W        W21132  34.684  30.141  13.757
49550W        W21133   3.773  14.919  11.131
49551W        W21134  29.200  43.889  12.095
49552W        W21135  20.611   2.332   2.770
49553W        W21136  15.324   0.461  11.504
49554W        W21137  42.298  18.652  13.954
49555W        W21138  24.565  34.687  13.278
49556W        W21139  14.034  31.100   2.349
49557W        W21140   3.902  25.246   1.438
49558W        W21141  44.304   8.711  11.402
49559W        W21142   4.356  17.144   4.139
49560W        W21143  32.846  43.447   4.357
49561W        W21144  17.380   3.404   3.611
49562W        W21145   5.382  31.435  14.925
49563W        W21146  31.119  16.097  11.449
49564W        W21147  17.648  22.109   3.450
49565W        W21148   0.310   4.940   4.078
49566W        W21149  38.458  26.410   4.161
49567W        W21150  18.227  38.481  12.398
49568W        W21151   3.431   0.658  12.527
49569W        W21152  28.452  38.441  11.986
49570W        W21153  18.803  36.118  11.903
49571W        W21154   0.809  32.370   3.703
49572W        W21155  29.874  29.190   0.959
49573W        W21156  23.465  19.319  12.915
49574W        W21157  42.924  32.025  12.330
49575W        W21158  14.548   5.169   1.853
49576W        W21159  18.062  27.115  10.896
49577W        W21160  42.366  13.850   2.767
49578W        W21161  30.015   2.989   2.323
49579W        W21162  42.826  12.747  13.539
49580W        W21163  13.504  27.124   2.822
49581W        W21164  31.337  32.526   0.384
49582W        W21165   0.528  15.803   0.760
49583W        W21166  34.952  38.978  13.258
49584W        W21167   6.192  30.077  14.834
49585W        W21168  42.950   9.323  14.239
49586W        W21169   5.709   7.312   4.088
49587W        W21170  41.496  11.392  13.372
49588W        W21171   3.431   8.921  12.319
49589W        W21172   2.031  14.586  13.366
49590W        W21173  11.032   7.178  13.898
49591W        W21174   9.133  23.540   4.607
49592W        W21175   9.142  11.395  14.808
49593W        W21176  26.700   2.844  13.515
49594W        W21177  17.016  29.109  13.327
49595W        W21178   3.199  24.105   4.281
49596W        W21179  33.780   1.684  14.253
49597W        W21180  33.611  33.189  12.540
49598W        W21181   0.181   5.821   4.204
49599W        W21182  18.797  17.692   4.376
49600W        W21183  36.543  14.306  11.016
49601W        W21184  35.846   3.859  12.064
49602W        W21185   8.865  35.963  14.547
49603W        W21186  28.324  30.650  12.499
49604W        W21187  21.195  23.636  13.930
49605W        W21188   3.371   7.896   0.352
49606W        W21189  30.700  28.839   2.753
49607W        W21190  34.829  35.974  11.659
49608W        W21191  19.103   0.265  14.877
49609W        W21192  15.524  26.274   4.050
49610W        W21193   6.721   8.826   1.426
49611W        W21194  36.759  25.676   1.914
49612W        W21195  15.558  23.531   4.622
49613W        W21196  16.149  39.006  10.250
49614W        W21197  24.602  27.200   3.104
49615W        W21198  19.711  43.553  12.103
49616W        W21199  41.256  16.070   2.227
49617W        W21200  36.254  22.355  11.702
49618W        W21201  15.200  21.542   3.554
49619W        W21202   4.923  22.988   0.602
49620W        W21203  36.304  11.323   4.169
49621W        W21204  28.610   7.358  14.401
49622W        W21205  26.166  15.962   1.992
49623W        W21206  30.136  38.362   3.858
49624W        W21207  22.821  24.329   3.275
49625W        W21208  12.811  12.159  14.827
49626W        W21209  41.834  37.076   3.069
49627W        W21210  42.820  21.120  12.932
49628W        W21211  14.720  33.149   3.690
49629W        W21212   2.780  44.972  12.126
49630W        W21213   3.917  26.465   3.230
49631W        W21214  15.639  12.861   3.357
49632W        W21215  39.586   6.447   2.598
49633W        W21216  42.935  18.047   0.763
49634W        W21217  28.104  22.719  13.951
49635W        W21218  19.813   5.195   1.806
49636W        W21219   4.744  20.151  11.690
49637W        W21220  32.985  35.138  10.684
49638W        W21221  15.075  43.828  11.550
49639W        W21222  41.495  40.488   4.098
49640W        W21223  35.217  38.116   0.466
49641W        W21224  22.437  22.833  10.744
49642W        W21225  35.372   6.219  12.589
49643W        W21226  34.953   9.557   0.498
49644W        W21227  39.608  43.446   0.376
49645W        W21228  31.539  13.323   3.657
49646W        W21229   0.275  27.547  10.786
49647W        W21230  42.566  11.864  12.542
49648W        W21231  34.553  36.246  11.196
49649W        W21232  36.133  29.729   4.094
49650W        W21233  19.891  16.113   4.862
49651W        W21234  32.405   0.842   2.184
49652W        W21235  37.099  39.949   3.157
49653W        W21236  31.352  28.662  13.331
49654W        W21237  43.287  32.705  13.747
49655W        W21238  21.619  12.745   0.335
49656W        W21239  18.177  30.190  11.053
49657W        W21240  41.055  28.660  13.126
49658W        W21241  42.372  11.600  13.874
49659W        W21242  34.748  41.383  13.092
49660W        W21243   6.135   0.974  14.724
49661W        W21244  38.750   2.798   1.402
49662W        W21245   8.394  13.892  13.481
49663W        W21246  20.931  36.027   2.446
49664W        W21247   1.872  34.633  14.839
49665W        W21248  41.486  26.148   0.413
49666W        W21249  34.477  40.290  11.816
49667W        W21250  44.913  43.227   2.847
49668W        W21251  23.180   0.728  13.744
49669W        W21252  33.973  33.189  10.732
49670W        W21253   9.510  42.913   2.677
49671W        W21254  44.394   0.964   3.189
49672W        W21255  36.511  25.960   0.226
49673W        W21256  31.711  21.915  10.585
49674W        W21257  13.674   2.785   0.356
49675W        W21258   0.337   5.223   0.349
49676W        W21259  23.573   4.384  14.285
49677W        W21260  30.626  37.133  11.181
49678W        W21261  26.537   7.435   1.392
49679W        W21262  40.860  31.121  13.044
49680W        W21263   2.412  30.214  11.458
49681W        W21264  21.957  41.222   3.228
49682W        W21265  22.922  27.948  12.929
49683W        W21266  30.959  20.071  10.133
49684W        W21267   6.177   6.397   4.213
49685W        W21268   5.378  42.070  13.778
49686W        W21269  18.341  27.118  14.514
49687W        W21270  15.687  19.957  11.938
49688W        W21271  32.144  35.387  12.619
49689W        W21272   7.820  34.864  14.908
49690W        W21273  24.219  43.007  10.829
49691W        W21274   0.777  28.434  11.637
49692W        W21275   3.438  37.647   0.980
49693W        W21276  37.907  11.404  10.709
49694W        W21277  44.847  36.167  14.032
49695W        W21278   1.494  14.056  10.981
49696W        W21279  41.840  24.250   3.228
49697W        W21280  40.253  14.217  14.756
49698W        W21281   1.813  33.852  14.342
49699W        W21282  15.322  13.153  13.120
49700W        W21283  22.942  32.794  12.187
49701W        W21284  25.102  19.535   0.108
49702W        W21285  39.520   5.925  11.980
49703W        W21286  13.590  34.492   0.760
49704W        W21287   9.163  23.142   0.789
49705W        W21288  10.197  23.047  13.504
49706W        W21289   4.220  43.446   2.246
49707W        W21290  40.874  12.414  13.963
49708W        W21291  43.941  43.334   3.969
49709W        W21292  40.469  44.037  14.412
49710W        W21293  37.784  21.869   2.471
49711W        W21294  32.899  18.275  14.910
49712W        W21295  33.482  19.811   1.327
49713W        W21296  17.473  10.164  11.551
49714W        W21297   5.495  36.499   4.256
49715W        W21298  25.630  41.315  13.735
49716W        W21299  20.189  43.061   2.667
49717W        W21300  16.577  19.337   4.546
49718W        W21301   2.240   8.772   4.590
49719W        W21302  26.034  24.929  12.902
49720W        W21303  17.520  16.247   4.501
49721W        W21304   0.415  16.738   0.472
49722W        W21305  33.822  21.552   2.697
49723W        W21306  32.435  33.511  12.489
49724W        W21307   8.330   9.717   3.133
49725W        W21308  10.390  37.522  10.078
49726W        W21309   8.640  36.841   4.307
49727W        W21310  33.147  32.480   4.541
49728W        W21311  27.359  22.254   1.819
49729W        W21312  41.914   3.009   2.928
49730W        W21313  10.858  29.363  12.170
49731W        W21314   3.500  13.085   2.675
49732W        W21315  31.074   9.154  11.205
49733W        W21316  19.962  35.512   1.391
49734W        W21317  15.861  12.566   4.903
49735W        W21318  21.499   1.583   2.445
49736W        W21319  37.327  39.601  14.950
49737W        W21320   7.425  19.727   0.809
49738W        W21321  37.277  14.735  11.527
49739W        W21322  21.834  40.598  14.932
49740W        W21323   6.597  22.111  11.210
49741W        W21324  12.931   7.387   1.154
49742W        W21325  44.784  15.704  12.940
49743W        W21326  33.943  36.304   4.788
49744W        W21327  12.939   6.423   1.048
49745W        W21328  40.409  17.043   1.856
49746W        W21329  37.023  12.209   0.813
49747W        W21330   1.901  19.765   3.722
49748W        W21331   8.167  24.151  13.927
49749W        W21332  33.778   0.512   0.058
49750W        W21333  21.176  10.307   2.480
49751W        W21334   3.395  36.025   3.265
49752W        W21335  18.837   2.793  12.666
49753W        W21336  34.140  38.819   3.577
49754W        W21337  29.185  11.758  14.355
49755W        W21338  27.448  23.479  13.044
49756W        W21339  20.775   7.782   1.807
49757W        W21340  41.861   0.000  11.188
49758W        W21341  29.960  22.049   5.322
49759W        W21342  40.561   5.776   1.761
49760W        W21343  35.495   5.930  13.001
49761W        W21344  25.800  10.102   3.659
49762W        W21345  15.052  25.022   3.492
49763W        W21346  26.230  10.721  14.906
49764W        W21347   3.942  14.692   1.306
49765W        W21348   3.531   5.860  13.098
49766W        W21349  16.271   9.114  11.655
49767W        W21350   7.294  33.852   0.237
49768W        W21351   4.348   2.430   1.933
49769W        W21352  38.023  17.397   3.271
49770W        W21353  16.568  11.130   4.478
49771W        W21354  10.759  18.501  10.402
49772W        W21355   7.249  29.704   4.089
49773W        W21356  22.026  19.199   1.481
49774W        W21357   8.112   0.709  13.763
49775W        W21358   4.333  36.956   2.001
49776W        W21359  38.745  17.143  11.899
49777W        W21360   4.792  14.801   2.488
49778W        W21361  21.873   2.514   3.162
49779W        W21362  27.550  43.791  13.506
49780W        W21363  14.040  30.546  14.898
49781W        W21364  34.552  20.175   0.214
49782W        W21365  38.709  39.218  11.585
49783W        W21366   2.741  17.190  10.480
49784W        W21367  40.648  39.350  14.400
49785W        W21368  42.575  16.669  11.187
49786W        W21369  40.362   5.833   0.212
49787W        W21370   4.152  31.919   2.651
49788W        W21371  33.850  31.569  13.024
49789W        W21372   6.339  33.565  11.069
49790W        W21373  11.919   4.970   2.292
49791W        W21374  31.627  30.191   4.201
49792W        W21375  10.707  23.037  10.943
49793W        W21376  43.598  44.048  13.479
49794W        W21377  24.084  34.702  14.835
49795W        W21378  13.730  30.367  13.576
49796W        W21379  24.490  41.235   0.466
49797W        W21380  21.251  27.371   5.703
49798W        W21381  16.562  13.244  14.860
49799W        W21382  21.324  31.987  12.844
49800W        W21383  26.548  11.419   3.271
49801W        W21384   9.541  12.111  14.602
49802W        W21385  35.446  41.811  13.511
49803W        W21386  27.181   3.771  12.079
49804W        W21387  31.036  26.064   4.817
49805W        W21388  16.659  21.067  14.626
49806W        W21389  23.485  39.364   4.732
49807W        W21390   6.746  10.408   0.717
49808W        W21391   0.345  11.771   3.276
49809W        W21392  19.723   7.326  10.627
49810W        W21393   6.342   0.188  13.320
49811W        W21394  37.474  30.105  13.026
49812W        W21395  30.278   5.774  11.668
49813W        W21396  26.560  29.178   3.438
49814W        W21397  42.086  40.916  11.174
49815W        W21398  38.638  17.343  13.502
49816W        W21399  43.778   1.853  10.989
49817W        W21400  39.469  42.753  13.999
49818W        W21401  13.595  22.600   1.464
49819W        W21402  11.590  42.932  10.805
49820W        W21403  20.710  27.629  14.295
49821W        W21404   8.324   9.933  14.096
49822W        W21405   6.050  20.898   2.854
49823W        W21406  19.305   7.934   3.747
49824W        W21407   2.792  15.250  11.518
49825W        W21408  23.661  33.061   0.454
49826W        W21409  20.127  16.823  10.243
49827W        W21410  16.892  17.159  13.447
49828W        W21411  38.883  26.386  14.969
49829W        W21412  35.949  15.296  13.417
49830W        W21413  18.651  23.267  12.316
49831W        W21414  37.338  27.669  13.054
49832W        W21415  10.162   1.790  12.968
49833W        W21416  33.695  23.317  11.019
49834W        W21417   7.713   0.183  10.172
49835W        W21418   4.996  35.638  11.189
49836W        W21419   0.156  28.165   4.620
49837W        W21420  26.263  12.792  11.657
49838W        W21421  22.685  31.102  11.178
49839W        W21422  39.943  41.436  14.502
49840W        W21423  37.530  23.380   2.149
49841W        W21424   4.066   0.664   3.086
49842W        W21425  30.208   7.967  13.429
49843W        W21426  33.419  26.586  14.027
49844W        W21427   4.450  21.490   2.350
49845W        W21428   4.673  42.267   1.197
49846W        W21429  10.620  18.736   1.786
49847W        W21430  33.305  34.620   2.304
49848W        W21431  19.779  22.291  12.435
49849W        W21432  33.119  25.567  10.567
49850W        W21433  42.256   8.865  10.625
49851W        W21434   9.690  33.312  12.808
49852W        W21435  12.292   9.059   2.872
49853W        W21436  41.719  36.970  14.956
49854W        W21437  14.226  17.365  14.940
49855W        W21438  19.715  22.685  14.391
49856W        W21439   6.370  19.559  12.086
49857W        W21440  22.031  32.140   4.116
49858W        W21441  23.246   4.391   2.737
49859W        W21442  18.737  31.679   3.810
49860W        W21443   9.676  15.192   3.854
49861W        W21444  43.472  43.129   1.509
49862W        W21445  10.370  36.990  14.976
49863W        W21446  23.272   7.591   3.249
49864W        W21447  10.830  34.995  10.463
49865W        W21448  39.492   9.616  14.986
49866W        W21449  38.225  25.654   1.545
49867W        W21450  17.776   7.657   0.006
49868W        W21451  30.601  44.405   0.797
49869W        W21452  16.553  36.450  13.456
49870W        W21453  29.962  21.050   5.240
49871W        W21454  44.466  40.804   0.479
49872W        W21455   7.371  14.386   3.586
49873W        W21456   3.696  10.212   0.412
49874W        W21457   9.478  25.303   0.057
49875W        W21458  28.397  34.058   4.034
49876W        W21459   6.569  43.080   0.312
49877W        W21460  40.097  39.748   3.306
49878W        W21461  33.518   6.092   2.326
49879W        W21462  20.837  13.913  10.688
49880W        W21463  44.613   2.784  12.341
49881W        W21464  17.307  41.898   2.285
49882W        W21465  18.759  36.577  12.339
49883W        W21466  26.445   0.456  12.348
49884W        W21467   1.726  34.821   4.212
49885W        W21468  13.975   1.515   3.695
49886W        W21469  40.304   9.253  12.105
49887W        W21470  24.254  36.442   4.500
49888W        W21471  22.007   8.592  11.572
49889W        W21472  42.208   4.984  11.190
49890W        W21473  34.800  30.536  11.626
49891W        W21474  23.534   5.804   0.311
49892W        W21475  39.563  31.403   1.809
49893W        W21476  30.922   2.500   4.919
49894W        W21477  25.665  30.725  11.970
49895W        W21478  34.755  39.088  14.235
49896W        W21479  22.574  28.099  14.404
49897W        W21480  31.413  22.378   4.973
49898W        W21481  24.004  19.716   1.977
49899W        W21482   3.179  17.414   3.329
49900W        W21483   2.175   6.901   3.933
49901W        W21484  24.007  31.178  12.529
49902W        W21485  24.374  10.327   5.047
49903W        W21486  44.506   8.934   2.479
49904W        W21487  16.433  23.740   4.842
49905W        W21488  36.839  37.435  14.966
49906W        W21489  44.762  22.080  11.595
49907W        W21490  29.291  27.106   3.246
49908W        W21491   5.011  20.813   2.058
49909W        W21492  34.588  37.556  11.618
49910W        W21493  44.699   9.106  13.708
49911W        W21494  42.803   8.241  14.466
49912W        W21495  20.656   9.003  13.052
49913W        W21496  19.629  10.699   1.048
49914W        W21497  29.108  19.579  10.776
49915W        W21498  25.035  39.075   0.050
49916W        W21499  19.719  13.253   3.211
49917W        W21500  42.760  17.147  14.800
49918W        W21501  19.547  19.647  14.374
49919W        W21502   1.789  43.072   1.417
49920W        W21503   8.754  17.276  14.638
49921W        W21504   0.988   7.235   2.714
49922W        W21505  38.568  25.918   1.848
49923W        W21506  44.968  33.884  11.513
49924W        W21507  28.457  29.581   3.334
49925W        W21508  34.020   5.487  13.450
49926W        W21509  26.269  34.840   4.495
49927W        W21510  26.638   0.038  11.457
49928W        W21511  10.190  20.678   3.793
49929W        W21512  21.335  42.286   3.601
49930W        W21513  20.619  10.821   4.652
49931W        W21514  34.832  40.333   2.270
49932W        W21515  16.210  25.531  11.070
49933W        W21516   7.572  42.766   0.887
49934W        W21517  32.090  29.878  10.546
49935W        W21518  13.702  32.187   3.685
49936W        W21519   2.039   5.536  12.863
49937W        W21520   7.616  44.001  12.312
49938W        W21521   3.541  32.005   4.636
49939W        W21522  12.600  28.547   2.359
49940W        W21523  29.456  24.056   4.621
49941W        W21524  41.409  13.394  13.292
49942W        W21525  13.315  25.106  13.619
49943W        W21526   2.675  14.751   1.817
49944W        W21527   1.525   7.581   1.399
49945W        W21528   4.564   9.606  10.663
49946W        W21529   2.696   0.378   0.376
49947W        W21530  42.807  35.552   4.445
49948W        W21531  39.396  24.482   3.829
49949W        W21532  33.510  35.895  13.608
49950W        W21533  32.550  40.883   2.490
49951W        W21534   6.306  35.286   0.780
49952W        W21535  30.294  40.525   2.249
49953W        W21536   4.293   0.431  13.387
49954W        W21537  30.575  28.353  14.858
49955W        W21538  16.233  40.265   0.717
49956W        W21539  15.311  39.962  11.432
49957W        W21540  20.591  30.437   3.267
49958W        W21541   3.440  12.664  10.633
49959W        W21542  31.561  37.005   2.837
49960W        W21543   0.937  12.242  13.919
49961W        W21544  28.542  23.489  10.775
49962W        W21545  10.632  38.246   3.833
49963W        W21546   6.681   5.670   2.322
49964W        W21547  32.080  24.974  12.106
49965W        W21548  23.121  28.203  12.527
49966W        W21549  36.476  36.063  14.012
49967W        W21550  27.181   9.298   1.426
49968W        W21551  22.737   6.285   4.151
49969W        W21552   3.233   8.400   3.625
49970W        W21553  17.483  21.047  11.590
49971W        W21554  32.639  14.243  11.192
49972W        W21555  42.255  34.477  13.498
49973W        W21556  30.385  42.723  12.385
49974W        W21557  25.911  16.241  12.963
49975W        W21558   9.411  42.587  13.162
49976W        W21559   5.939  39.927  11.908
49977W        W21560  24.788  11.440   2.878
49978W        W21561  11.151  29.904  13.517
49979W        W21562   4.981  14.711  14.084
49980W        W21563  29.579  22.403   3.281
49981W        W21564  17.741  36.769   0.922
49982W        W21565   3.839   1.019  13.847
49983W        W21566  31.027  44.537   2.100
49984W        W21567  27.832   9.074  14.465
49985W        W21568  11.267  15.129   4.311
49986W        W21569   5.953   6.803   3.297
49987W        W21570  20.119  17.208   3.328
49988W        W21571  39.833  32.042  14.297
49989W        W21572  32.943  10.437  10.692
49990W        W21573   3.460  43.879  13.327
49991W        W21574  42.739  39.894  13.336
49992W        W21575  14.070   9.036   4.006
49993W        W21576  14.228  33.340  13.691
49994W        W21577  35.148  40.150   2.958
49995W        W21578  28.955   0.536   2.749
49996W        W21579   1.234   3.817  13.980
49997W        W21580  24.702  37.455  10.731
49998W        W21581  42.942   6.223   2.624
49999W        W21582  22.492   5.836   4.259
50000W        W21583  16.084  33.588   2.694
50001W        W21584   6.956  26.089  13.235
50002W        W21585  30.881  41.298  12.437
50003W        W21586   4.022   4.808  11.624
50004W        W21587  14.632  23.970  12.622
50005W        W21588  23.240  11.695  14.032
50006W        W21589   7.228  21.004  12.102
50007W        W21590   5.233  35.915   1.856
50008W        W21591  12.342  36.515  12.908
50009W        W21592  37.830  12.349  13.960
50010W        W21593  42.383   5.401   1.230
50011W        W21594  39.460  10.799   0.547
50012W        W21595   5.275  17.786  12.421
50013W        W21596  13.580  19.995  12.415
50014W        W21597  17.569   1.438   3.191
50015W        W21598  12.442  13.763   3.084
50016W        W21599  13.298  23.907   3.416
50017W        W21600   2.343  24.035   0.148
50018W        W21601  28.872  43.960  13.441
50019W        W21602   4.236  13.610   1.722
50020W        W21603   9.197   6.894  12.799
50021W        W21604   2.217  32.566  10.724
50022W        W21605  14.730  29.973   1.510
50023W        W21606  18.139   0.554  13.921
50024W        W21607   0.379   0.040   3.159
50025W        W21608  41.774  29.410  12.963
50026W        W21609  36.094  11.771  12.302
50027W        W21610  34.922  35.663  13.458
50028W        W21611   3.861  35.589  14.838
50029W        W21612   1.646  33.546  11.456
50030W        W21613  38.025  23.285   1.770
50031W        W21614  18.789  21.845  10.859
50032W        W21615   7.002  28.074  11.593
50033W        W21616  13.106  14.151  12.343
50034W        W21617  23.502  29.628  13.885
50035W        W21618  25.449  28.726   1.376
50036W        W21619  30.516  30.025   3.104
50037W        W21620  37.912  26.029  14.844
50038W        W21621   5.702  14.023   3.417
50039W        W21622  21.357  12.025  12.195
50040W        W21623  40.877   0.415  14.240
50041W        W21624  40.860  23.166  12.387
50042W        W21625  43.907  26.442   1.855
50043W        W21626  22.419  13.699   0.834
50044W        W21627  10.100  32.586   2.238
50045W        W21628   4.224   8.369  12.544
50046W        W21629  18.117   5.455  12.469
50047W        W21630   8.661  21.280  10.674
50048W        W21631  30.972   2.099  11.793
50049W        W21632  10.300  28.662   4.273
50050W        W21633  40.245  10.723   4.114
50051W        W21634  33.549   9.347  13.116
50052W        W21635  12.365   6.280  14.758
50053W        W21636   2.100  21.565  12.155
50054W        W21637  14.100  21.048  11.054
50055W        W21638  30.416  15.331   0.987
50056W        W21639  26.553  41.272  13.950
50057W        W21640  39.835   7.421   4.609
50058W        W21641   4.220   6.115   4.321
50059W        W21642  18.263  14.725  13.103
50060W        W21643  12.224  16.148  11.819
50061W        W21644  14.046  12.206  13.295
50062W        W21645  33.297  16.479  13.552
50063W        W21646  35.113   7.229  14.775
50064W        W21647  25.926  16.880   3.781
50065W        W21648   7.399  15.605   4.183
50066W        W21649   8.366  38.884  11.539
50067W        W21650  28.841  23.657  12.945
50068W        W21651   7.628  15.714   3.735
50069W        W21652  31.465  36.827   3.840
50070W        W21653  31.554  17.059   3.122
50071W        W21654  17.111  20.466   4.434
50072W        W21655  12.340  16.698   4.155
50073W        W21656  26.907  21.138   4.589
50074W        W21657  43.918  37.429  13.384
50075W        W21658  11.824  13.362   1.717
50076W        W21659  23.257  43.759  13.906
50077W        W21660   2.131  15.759   0.290
50078W        W21661  40.101  41.622  13.369
50079W        W21662   5.301  14.176   3.134
50080W        W21663  22.103  32.634   3.092
50081W        W21664  14.735   1.828   3.339
50082W        W21665  33.520  32.497   4.165
50083W        W21666  25.021   4.327  13.450
50084W        W21667  28.219  21.682   3.398
50085W        W21668   6.625  10.302  12.060
50086W        W21669  25.748  12.820   2.654
50087W        W21670  19.899  33.784  12.129
50088W        W21671  41.622   3.464  10.453
50089W        W21672   8.855  13.546  12.238
50090W        W21673  31.074  23.977  12.978
50091W        W21674  31.713  14.514  10.766
50092W        W21675  44.466   6.849   3.140
50093W        W21676  15.618  38.070   5.082
50094W        W21677   4.545  15.785   4.174
50095W        W21678   2.718  21.096  13.570
50096W        W21679  17.720  39.904  12.614
50097W        W21680  20.242  33.423  14.628
50098W        W21681  42.736  19.669  12.384
50099W        W21682  10.398  15.033  12.758
50100W        W21683  10.808   3.107   2.683
50101W        W21684  12.151  36.510  11.455
50102W        W21685  25.237  13.947   0.572
50103W        W21686  31.884  27.465  10.570
50104W        W21687  36.589  15.734   3.770
50105W        W21688  15.295  10.937   4.955
50106W        W21689  34.328  34.047  10.544
50107W        W21690  13.214  30.572   0.313
50108W        W21691  41.504  12.826   0.311
50109W        W21692   3.816   9.852   3.621
50110W        W21693   8.323  22.057   4.906
50111W        W21694  43.510  23.765   1.654
50112W        W21695  44.184   5.774  12.511
50113W        W21696  25.265  43.538   3.183
50114W        W21697  36.369  34.918   1.420
50115W        W21698  19.684  25.972  13.010
50116W        W21699  23.302  24.063  14.419
50117W        W21700  40.617  42.677  12.758
50118W        W21701  33.359   2.929  12.598
50119W        W21702  32.482  21.602   0.218
50120W        W21703  13.800  15.662   1.716
50121W        W21704  18.117  28.294   0.001
50122W        W21705  20.030   3.882  13.586
50123W        W21706  10.601  38.259  12.614
50124W        W21707  36.898  37.623  12.335
50125W        W21708  11.127  22.111  14.807
50126W        W21709   7.681  25.355  14.708
50127W        W21710  34.520  34.805   3.188
50128W        W21711  14.552  18.074   3.257
50129W        W21712  39.332  40.586   1.042
50130W        W21713  21.813  33.850   1.789
50131W        W21714  30.682   6.426   3.697
50132W        W21715  38.853  14.379   1.873
50133W        W21716  27.651   1.771  14.872
50134W        W21717  34.643  40.495  10.827
50135W        W21718  18.003  26.136   3.149
50136W        W21719  21.715  20.099  11.616
50137W        W21720  35.976  13.316  12.520
50138W        W21721  25.017  31.091  12.470
50139W        W21722  19.269   0.391  11.972
50140W        W21723   0.262  34.027  11.996
50141W        W21724  33.475  21.665   4.422
50142W        W21725  16.102  15.202   3.961
50143W        W21726  21.788  16.638   9.806
50144W        W21727   3.658  39.211  11.905
50145W        W21728   8.802  27.101   2.201
50146W        W21729  16.583  17.210  13.856
50147W        W21730  17.507   4.258   0.573
50148W        W21731  17.297  24.946  11.934
50149W        W21732   1.009  12.177   3.919
50150W        W21733  25.530  39.976  13.463
50151W        W21734  26.219  14.711   4.002
50152W        W21735  11.279  22.120  13.878
50153W        W21736   2.903  31.375  12.051
50154W        W21737  40.465  44.477   2.983
50155W        W21738  32.558  15.105  10.717
50156W        W21739  31.202  41.392  13.762
50157W        W21740  24.645   6.036   0.436
50158W        W21741  24.132  12.704   1.333
50159W        W21742  33.387  30.169   1.676
50160W        W21743  29.875  21.853   4.795
50161W        W21744  37.362  11.842  12.879
50162W        W21745  40.317   7.372  11.721
50163W        W21746  13.203  39.718  13.035
50164W        W21747  43.799  12.315   2.788
50165W        W21748  15.671  14.349   0.177
50166W        W21749  19.851   6.811  10.544
50167W        W21750  22.768  36.822   2.415
50168W        W21751  36.387  35.356   4.063
50169W        W21752  22.718  31.059  12.496
50170W        W21753   2.510   7.228   1.392
50171W        W21754  18.016  23.197  13.550
50172W        W21755  38.979  38.531   3.343
50173W        W21756  41.248  31.819  13.571
50174W        W21757  23.628  11.759  13.065
50175W        W21758   7.134  24.769   1.344
50176W        W21759  23.810   7.795  13.724
50177W        W21760  33.839   7.280   1.781
50178W        W21761  31.415  23.211   3.683
50179W        W21762  17.266  22.839   1.338
50180W        W21763  19.647  35.988  13.042
50181W        W21764  22.601   5.271   2.943
50182W        W21765   6.912   9.651   3.671
50183W        W21766  25.176  39.566   1.902
50184W        W21767   6.446  25.666  14.489
50185W        W21768  25.979   3.516   0.438
50186W        W21769  16.617  30.112   1.209
50187W        W21770   5.756  26.716   2.922
50188W        W21771  10.051  44.133   4.177
50189W        W21772  28.966  36.835   4.050
50190W        W21773   8.978  20.243  11.522
50191W        W21774   5.235  28.212  11.244
50192W        W21775  22.228  21.661   1.322
50193W        W21776  20.066  42.315   3.151
50194W        W21777  40.418   3.676  12.133
50195W        W21778   9.861  36.458   0.382
50196W        W21779  33.469  17.571  14.093
50197W        W21780   3.239  43.958   3.743
50198W        W21781  44.021   0.893   2.310
50199W        W21782  21.108   1.889   3.093
50200W        W21783  27.263  25.602   2.894
50201W        W21784   4.041   1.324  11.627
50202W        W21785   2.867  27.037   1.971
50203W        W21786  18.501  11.200   2.239
50204W        W21787  29.866  32.839  10.246
50205W        W21788  43.250   5.924   1.773
50206W        W21789  29.370  42.819  10.766
50207W        W21790  27.245   9.172   0.303
50208W        W21791  19.815   7.805   3.753
50209W        W21792  38.444  31.346  10.325
50210W        W21793  42.507   5.929  13.872
50211W        W21794   3.882  18.107   3.233
50212W        W21795  20.467   0.837   0.247
50213W        W21796  43.259  27.716  14.438
50214W        W21797  32.542  27.997  13.861
50215W        W21798  14.713   7.775   2.631
50216W        W21799  38.459  32.482   3.977
50217W        W21800  39.254  10.366   0.325
50218W        W21801  28.039   2.491  11.181
50219W        W21802  21.997  20.350  14.434
50220W        W21803  24.361  27.226  13.442
50221W        W21804  44.004  42.742   3.317
50222W        W21805   0.976   5.439   0.921
50223W        W21806  30.133  39.100   1.764
50224W        W21807  12.159  17.128  14.863
50225W        W21808  13.801  35.765  13.767
50226W        W21809  43.515  44.532   0.465
50227W        W21810  39.580   0.362  14.708
50228W        W21811  32.135  20.508   2.945
50229W        W21812  10.618  25.993  14.405
50230W        W21813  20.308  30.874  10.913
50231W        W21814  34.147  33.434  11.148
50232W        W21815   7.726   4.842  13.854
50233W        W21816  23.021  42.959  12.025
50234W        W21817  19.652   0.405   2.089
50235W        W21818  35.720  13.725  11.285
50236W        W21819  16.390   8.197   0.960
50237W        W21820  43.951   5.385  12.282
50238W        W21821   4.879  10.642  13.810
50239W        W21822  18.558   7.876  14.561
50240W        W21823   6.850   3.357   3.136
50241W        W21824  29.059  23.504  12.492
50242W        W21825  36.275  29.921  12.462
50243W        W21826  34.653  20.043  12.009
50244W        W21827  16.760  22.677  13.865
50245W        W21828   4.793  31.531  14.785
50246W        W21829  42.519  22.560  10.799
50247W        W21830  31.733  15.191   3.807
50248W        W21831  32.396  27.596  11.898
50249W        W21832   0.208  26.490   1.222
50250W        W21833  17.831  39.153   0.732
50251W        W21834  25.057  32.037   2.376
50252W        W21835  15.230  33.535  14.087
50253W        W21836  21.666  43.951   1.704
50254W        W21837   9.577  34.090  12.568
50255W        W21838   2.291   7.763   2.272
50256W        W21839  25.620   1.329   4.421
50257W        W21840  10.299  14.894  11.141
50258W        W21841  18.192  25.218   1.491
50259W        W21842  26.718  28.627  14.000
50260W        W21843  25.132  33.954  14.416
50261W        W21844  14.636   4.048   2.711
50262W        W21845  39.367  36.396   3.785
50263W        W21846  39.866  16.779   4.603
50264W        W21847   1.807   4.894   0.581
50265W        W21848  27.690  43.842   3.393
50266W        W21849  27.548  35.112  12.876
50267W        W21850  27.134  39.644   4.093
50268W        W21851  28.852  37.055  13.613
50269W        W21852   8.348  30.212   3.808
50270W        W21853  34.931   4.004   1.856
50271W        W21854   0.287  22.204  10.632
50272W        W21855  15.136  39.349   3.816
50273W        W21856  10.904  31.370   1.955
50274W        W21857  38.349  27.549   3.757
50275W        W21858   9.280  39.482  12.602
50276W        W21859  27.370  21.492  10.628
50277W        W21860   7.869   5.430  13.803
50278W        W21861  10.307  25.531  13.080
50279W        W21862   7.434  28.184   2.169
50280W        W21863  44.789  25.977  13.853
50281W        W21864  26.252  17.757   3.302
50282W        W21865  21.299   0.410   4.356
50283W        W21866  19.128   8.200  12.316
50284W        W21867  21.782  10.431   5.123
50285W        W21868  14.138   9.906  13.371
50286W        W21869  31.124  19.146   2.865
50287W        W21870  29.721  24.955  11.048
50288W        W21871  42.758  42.938   0.853
50289W        W21872  14.120   2.061   4.212
50290W        W21873   9.168  20.170  12.888
50291W        W21874  25.494  35.517   3.623
50292W        W21875  32.016  36.298   3.987
50293W        W21876   0.293  30.915   4.221
50294W        W21877  38.241   4.644   2.838
50295W        W21878   7.691  40.876  14.845
50296W        W21879   4.519   1.479  10.396
50297W        W21880  28.996  31.106  10.267
50298W        W21881  21.255  30.554   0.039
50299W        W21882   7.743  36.361   0.142
50300W        W21883  22.547   1.222  10.069
50301W        W21884  39.417  16.136  10.629
50302W        W21885  16.647  11.853  11.666
50303W        W21886   0.979   4.345  10.740
50304W        W21887  17.584   4.936  12.462
50305W        W21888   4.793  44.871   1.230
50306W        W21889  22.705  33.967  12.488
50307W        W21890   6.099   2.984  11.930
50308W        W21891  43.752  10.273  10.532
50309W        W21892  16.244  40.768   0.799
50310W        W21893  28.123  13.463  14.515
50311W        W21894  23.290  43.401  14.292
50312W        W21895   1.479  35.850   1.744
50313W        W21896   2.662   6.188  11.162
50314W        W21897  42.733   7.301   3.273
50315W        W21898   6.022   0.919  12.592
50316W        W21899  43.171  40.571  11.885
50317W        W21900   5.149  43.082   3.339
50318W        W21901   8.223  28.001  13.883
50319W        W21902  19.137  17.791  13.739
50320W        W21903  29.316  27.480   0.081
50321W        W21904  31.555   5.739   2.507
50322W        W21905  22.026  41.927  14.342
50323W        W21906  35.547  23.470   1.871
50324W        W21907   1.023  18.108  11.687
50325W        W21908  33.912  22.900   2.718
50326W        W21909  21.430  37.993   1.163
50327W        W21910  10.429  34.888  11.534
50328W        W21911  43.833  32.566  11.559
50329W        W21912  24.947  41.813   3.847
50330W        W21913  15.844  20.109  12.405
50331W        W21914  13.430  43.402   1.334
50332W        W21915  18.678  37.703  14.880
50333W        W21916  35.017  33.832   1.367
50334W        W21917  41.782  29.131   0.031
50335W        W21918  15.382  13.196  14.554
50336W        W21919  15.338  21.842   0.299
50337W        W21920   0.820  34.938   0.276
50338W        W21921   3.029  33.074  11.475
50339W        W21922  30.209  43.831   3.694
50340W        W21923  37.484  38.256   0.406
50341W        W21924  30.481  31.013  10.955
50342W        W21925  17.035  39.556   0.185
50343W        W21926  25.397  17.740   2.319
50344W        W21927  41.739   3.474  11.685
50345W        W21928  15.206  13.552  11.739
50346W        W21929  16.287  28.971  12.031
50347W        W21930  12.930  28.227   3.184
50348W        W21931  20.462   1.771   0.212
50349W        W21932  10.900  20.121   1.210
50350W        W21933  41.073   1.853   2.250
50351W        W21934  17.247  23.146   0.018
50352W        W21935  39.003  40.368   3.821
50353W        W21936  31.528  31.629   0.378
50354W        W21937  39.964   6.063  10.705
50355W        W21938  28.374  42.317  11.409
50356W        W21939   6.182  15.065  10.682
50357W        W21940  35.015  20.279   2.154
50358W        W21941  12.854   3.246  10.496
50359W        W21942  16.007  43.055  11.176
50360W        W21943   7.067  22.504  12.163
50361W        W21944  10.615  43.047  14.915
50362W        W21945  28.108  32.474  10.554
50363W        W21946  34.530   4.118   4.426
50364W        W21947  21.339  35.747   5.149
50365W        W21948   5.802  28.971  12.095
50366W        W21949  41.408  10.083   4.907
50367W        W21950   9.051  19.818  11.951
50368W        W21951  37.373   0.320  11.309
50369W        W21952  12.350   8.748   2.394
50370W        W21953   5.162   2.803  14.484
50371W        W21954  15.376   5.851   1.691
50372W        W21955  33.592  44.735   3.771
50373W        W21956  37.953  15.121  10.919
50374W        W21957  40.532  20.243   3.830
50375W        W21958   1.867  15.526  14.628
50376W        W21959  26.145  29.372   2.247
50377W        W21960  22.719  28.640   9.991
50378W        W21961  23.807  13.601   4.500
50379W        W21962  12.775  14.304  12.693
50380W        W21963  39.866  13.131  11.502
50381W        W21964  29.014   4.961   0.992
50382W        W21965  35.928  12.783  12.358
50383W        W21966  42.525  18.327  11.044
50384W        W21967   5.880  40.493  13.309
50385W        W21968  20.998  10.371  13.550
50386W        W21969  14.890  33.180  10.683
50387W        W21970  37.002  18.084  13.402
50388W        W21971   0.624  21.120   0.737
50389W        W21972   2.144   2.013  14.885
50390W        W21973  12.401  24.541  11.101
50391W        W21974  23.056   2.035  12.748
50392W        W21975  27.061  13.362   2.266
50393W        W21976  16.008  19.359   2.598
50394W        W21977  15.921   9.755  13.932
50395W        W21978  25.566  43.020   4.373
50396W        W21979  26.805  38.329   0.189
50397W        W21980  20.637   1.975   4.424
50398W        W21981  21.460  13.843  12.618
50399W        W21982  36.142  16.218  13.138
50400W        W21983   5.260  24.691   4.348
50401W        W21984  11.726  34.583   0.453
50402W        W21985   2.940   2.845  11.677
50403W        W21986  42.814  13.584   2.827
50404W        W21987   1.241   2.369   0.231
50405W        W21988  21.277  27.965   1.730
50406W        W21989  38.493  14.278  10.717
50407W        W21990  44.706  12.095  10.644
50408W        W21991   3.837  19.433   3.849
50409W        W21992   6.699  32.397   4.177
50410W        W21993  34.547  31.062   0.188
50411W        W21994   9.699  41.306   0.641
50412W        W21995  14.363  31.867  14.820
50413W        W21996  27.469  18.157   3.273
50414W        W21997  16.158  28.996  14.694
50415W        W21998   4.386  27.879  10.486
50416W        W21999  31.455  30.957   4.636
50417W        W22000  23.986  25.163   1.260
50418W        W22001  32.669  40.050  11.930
50419W        W22002  11.760   4.618  14.356
50420W        W22003  20.583  19.132   3.596
50421W        W22004  27.643  27.408  14.659
50422W        W22005   1.534  25.741  13.037
50423W        W22006  21.105   1.863  11.009
50424W        W22007  37.469  34.679  12.998
50425W        W22008   9.202  35.381   2.421
50426W        W22009  20.585  23.449   1.818
50427W        W22010  44.889  40.944  12.177
50428W        W22011  44.712   5.600   3.675
50429W        W22012  15.629  18.746  11.516
50430W        W22013  42.277  18.426  12.238
50431W        W22014   3.921   7.371  11.394
50432W        W22015  10.886   7.275   1.418
50433W        W22016   9.862  14.565   1.207
50434W        W22017  15.654  28.561   0.692
50435W        W22018  16.564  30.601  14.625
50436W        W22019  28.893  44.726   3.189
50437W        W22020  36.585  24.004   3.431
50438W        W22021   1.051  15.772  12.441
50439W        W22022   9.723  15.744   0.725
50440W        W22023  18.369  42.395   3.530
50441W        W22024  20.588  26.928   2.781
50442W        W22025  12.788  25.081   2.455
50443W        W22026  15.379   4.367   3.182
50444W        W22027  27.629   6.298   2.360
50445W        W22028  27.405  19.832  14.231
50446W        W22029   6.162  32.468  12.347
50447W        W22030  17.851  15.342   1.499
50448W        W22031  22.195  39.781   4.464
50449W        W22032  19.779  27.055   2.384
50450W        W22033  36.499   3.722  14.045
50451W        W22034  14.627   3.869   4.352
50452W        W22035  32.599  35.034   2.302
50453W        W22036  33.427   9.704  14.423
50454W        W22037  19.379  10.663   3.718
50455W        W22038  24.036  32.406  14.426
50456W        W22039  37.589  31.571   1.770
50457W        W22040  34.453   0.416  12.606
50458W        W22041  32.819  29.500   0.897
50459W        W22042   6.844  23.976   3.619
50460W        W22043  36.681   8.664  11.248
50461W        W22044   1.396  15.054   2.781
50462W        W22045  20.049  10.340  14.331
50463W        W22046   4.277  39.138   1.384
50464W        W22047  20.034  12.294  11.990
50465W        W22048   2.385  28.852   2.575
50466W        W22049  13.617  30.676   3.787
50467W        W22050  27.904   1.537  12.544
50468W        W22051  38.316   0.418   1.728
50469W        W22052  38.532  31.903  13.359
50470W        W22053   3.840  21.680  10.829
50471W        W22054  12.529  17.619   1.464
50472W        W22055  14.253   3.296  12.104
50473W        W22056  20.445  31.756   0.358
50474W        W22057  32.599  12.241  10.917
50475W        W22058  36.876  32.191  14.361
50476W        W22059  39.542  24.697   4.775
50477W        W22060  31.605  19.325   1.532
50478W        W22061  12.911   9.567   2.320
50479W        W22062  41.810  12.660  10.572
50480W        W22063  31.597  16.513  10.478
50481W        W22064  26.881  12.007   5.143
50482W        W22065  44.370   0.937   1.495
50483W        W22066  24.070   3.247  13.961
50484W        W22067  35.631  30.506   0.955
50485W        W22068  14.297  27.497   4.276
50486W        W22069  30.054   9.155   2.463
50487W        W22070  42.996  17.826  12.460
50488W        W22071  10.145  28.452   3.349
50489W        W22072  19.420  14.843  11.165
50490W        W22073  43.882   4.407   3.068
50491W        W22074  38.768  34.842  11.353
50492W        W22075   4.422  27.084   2.964
50493W        W22076  14.240  16.793   2.873
50494W        W22077  19.778  31.115  10.283
50495W        W22078  42.507  24.645  12.438
50496W        W22079  35.429   7.960  13.921
50497W        W22080  18.433  16.692   4.511
50498W        W22081  36.869  42.377  12.960
50499W        W22082  14.247   5.927  12.487
50500W        W22083  12.280  16.095   2.746
50501W        W22084  23.591  23.503  13.477
50502W        W22085   7.985   8.811   5.048
50503W        W22086   1.879   5.672  14.163
50504W        W22087  21.799  37.173  12.733
50505W        W22088  36.594  14.079  11.492
50506W        W22089  27.924  44.382   3.293
50507W        W22090  27.877  32.369   4.130
50508W        W22091   8.522  21.992  13.814
50509W        W22092  37.470  43.361  13.978
50510W        W22093   8.304  31.916   4.368
50511W        W22094  32.885  20.405  14.773
50512W        W22095  10.351  32.457   4.103
50513W        W22096  20.844  30.561   2.826
50514W        W22097  18.300   3.239  11.154
50515W        W22098  40.361  28.087  13.376
50516W        W22099   6.817  25.500   0.878
50517W        W22100   4.815  25.944   0.265
50518W        W22101  30.034  13.972   2.452
50519W        W22102  30.596  31.955  10.509
50520W        W22103   5.120  20.825   3.799
50521W        W22104  18.711  23.739   0.065
50522W        W22105  25.482  15.152  12.049
50523W        W22106   2.732  34.635   0.281
50524W        W22107  16.212   6.454  10.175
50525W        W22108  32.121   3.721  12.898
50526W        W22109  14.693  34.127   0.240
50527W        W22110  38.000  13.148   2.979
50528W        W22111  36.754  34.677   9.824
50529W        W22112  18.136   8.228  10.806
50530W        W22113  23.739  26.176   1.350
50531W        W22114  19.937  29.074   4.581
50532W        W22115  29.198  41.820  11.194
50533W        W22116  31.566   3.277   2.692
50534W        W22117  42.821   8.406  13.916
50535W        W22118   8.757   2.836   4.155
50536W        W22119  39.856  14.244  12.922
50537W        W22120  21.220  20.436  12.927
50538W        W22121  10.169  12.320  12.456
50539W        W22122  18.369   7.411  11.111
50540W        W22123  23.944  17.073  11.856
50541W        W22124  19.333  34.618  13.899
50542W        W22125  36.975  40.948   2.311
50543W        W22126  42.356  26.673  12.619
50544W        W22127   1.166   9.361   3.127
50545W        W22128  30.016  43.634   2.372
50546W        W22129  20.144  39.757  14.481
50547W        W22130  44.129  16.160   4.211
50548W        W22131  23.093   5.350  12.816
50549W        W22132  29.060  13.566  13.066
50550W        W22133  30.858  19.796   3.211
50551W        W22134   2.142  14.782   1.290
50552W        W22135  30.168  18.866   1.293
50553W        W22136  19.178  19.549   3.808
50554W        W22137   6.290  33.185   1.294
50555W        W22138  27.425  41.979  11.616
50556W        W22139   8.208  19.282   0.364
50557W        W22140  15.361  41.298   0.483
50558W        W22141  41.383  36.453   4.047
50559W        W22142  23.023  10.431  14.484
50560W        W22143  28.837  21.343  11.177
50561W        W22144  28.375  17.862   0.377
50562W        W22145  10.095  20.038   4.652
50563W        W22146  37.629  10.992  13.901
50564W        W22147  38.981  33.884   0.351
50565W        W22148   5.077  24.048   4.074
50566W        W22149  21.563   3.227  11.695
50567W        W22150  22.541   4.842   0.470
50568W        W22151  34.600  22.640  14.540
50569W        W22152   3.313   3.997  14.155
50570W        W22153  39.579  34.095  10.984
50571W        W22154  38.490  32.373  12.996
50572W        W22155   7.063  17.720  12.589
50573W        W22156  28.403   6.398   1.915
50574W        W22157  32.161   6.620   1.883
50575W        W22158   0.415  36.292  13.445
50576W        W22159  27.866  34.066  11.934
50577W        W22160  20.070  21.968   4.181
50578W        W22161  31.819  25.008  11.661
50579W        W22162  40.295   8.323   4.744
50580W        W22163  19.079   0.781  10.689
50581W        W22164  19.330  38.401  12.081
50582W        W22165  23.474  23.985   2.333
50583W        W22166  22.263  39.038   2.858
50584W        W22167  16.145  10.153  11.568
50585W        W22168  44.403  38.481  10.195
50586W        W22169  29.527  38.615   0.364
50587W        W22170  32.445  10.280  10.669
50588W        W22171  15.156  24.002   3.071
50589W        W22172  34.437  26.501  11.641
50590W        W22173  11.283  13.049  13.409
50591W        W22174  37.843  20.106   3.429
50592W        W22175   6.710  19.449   4.137
50593W        W22176  30.030   7.274  14.141
50594W        W22177  25.957  38.613   1.708
50595W        W22178  22.035  11.138  11.524
50596W        W22179  35.013  33.080  11.109
50597W        W22180  26.303  16.353   1.686
50598W        W22181   2.505  31.120   4.474
50599W        W22182  16.793  33.978  12.376
50600W        W22183  22.012  14.247  13.882
50601W        W22184  10.582  41.479  10.638
50602W        W22185  22.958  23.915   2.244
50603W        W22186  34.826   4.344  12.443
50604W        W22187   1.705  42.617   2.365
50605W        W22188  28.520  42.991  11.541
50606W        W22189  18.191  43.728   4.746
50607W        W22190  11.298  36.175  11.053
50608W        W22191  12.647   3.113   0.123
50609W        W22192   5.515  38.711   1.323
50610W        W22193  38.242   4.455   0.899
50611W        W22194  41.811  22.235  10.406
50612W        W22195  20.462  42.491  11.454
50613W        W22196   2.317  10.331   2.801
50614W        W22197  41.838  10.697  11.846
50615W        W22198   2.296  17.030  10.660
50616W        W22199  15.686  43.630  13.912
50617W        W22200  38.056  16.552   4.517
50618W        W22201  35.001  34.422  14.402
50619W        W22202  39.055  20.446  13.106
50620W        W22203  19.116   9.139  12.473
50621W        W22204  28.269  27.962   2.899
50622W        W22205   0.832   3.324  10.673
50623W        W22206  39.621  31.161  11.725
50624W        W22207  28.353   3.318  11.194
50625W        W22208  41.221  21.335  11.701
50626W        W22209  41.627   4.908   3.694
50627W        W22210  21.495   7.720   4.249
50628W        W22211  25.262  39.763  11.610
50629W        W22212  14.809  39.014   3.615
50630W        W22213  14.358   9.409   4.209
50631W        W22214  18.074   1.023   1.200
50632W        W22215   5.019  44.325  12.957
50633W        W22216   2.420  18.176  10.706
50634W        W22217  17.624  11.747  12.744
50635W        W22218  36.837   7.151   4.388
50636W        W22219   1.342  38.814  14.862
50637W        W22220  23.730  11.365   0.298
50638W        W22221  23.648  33.503   2.665
50639W        W22222   8.028  17.163   0.970
50640W        W22223  20.968  22.488   4.171
50641W        W22224  31.379   3.705  12.415
50642W        W22225  41.533  34.508   0.866
50643W        W22226  31.904  28.265  14.750
50644W        W22227  39.677  36.271   3.252
50645W        W22228  13.300   8.705   2.187
50646W        W22229   7.570  20.190   3.673
50647W        W22230   6.183  30.918   2.848
50648W        W22231  28.785  40.971  11.584
50649W        W22232  37.557  32.956   2.674
50650W        W22233  34.863  25.544   0.324
50651W        W22234   0.753  15.552   0.151
50652W        W22235  20.676   9.890  14.832
50653W        W22236  41.568  30.992  14.201
50654W        W22237  34.353  43.932  13.611
50655W        W22238  29.864   0.738   1.362
50656W        W22239   6.301  28.038  10.460
50657W        W22240   1.289   8.466   4.739
50658W        W22241  24.519  10.466  14.832
50659W        W22242  30.311  21.418   5.075
50660W        W22243  40.515   4.024   3.611
50661W        W22244  39.065  17.261   1.203
50662W        W22245  40.503   8.338   3.821
50663W        W22246  27.230  10.710   4.663
50664W        W22247   0.593  23.556   1.409
50665W        W22248  11.652   6.855  10.236
50666W        W22249  15.868  35.954  12.380
50667W        W22250  36.079  20.218   4.403
50668W        W22251  32.962  28.836   0.345
50669W        W22252  13.844  12.078  13.882
50670W        W22253  19.200  25.772   4.508
50671W        W22254  29.905  17.809  10.983
50672W        W22255  11.207  26.230   0.879
50673W        W22256   3.412  20.564   0.729
50674W        W22257  29.469   8.912   0.785
50675W        W22258  40.397  28.080   1.902
50676W        W22259   7.680  36.892   2.203
50677W        W22260  40.481  16.449  11.364
50678W        W22261  15.745   6.247   1.603
50679W        W22262   0.724   3.890   4.733
50680W        W22263  26.570  31.947  13.093
50681W        W22264   1.260  26.110   3.694
50682W        W22265  39.611   7.613   4.164
50683W        W22266  15.597   0.997  10.716
50684W        W22267  33.917  20.411   0.822
50685W        W22268  43.227  24.745   1.686
50686W        W22269  27.100  37.119   3.586
50687W        W22270  16.302  32.430  11.053
50688W        W22271  14.757  42.646   0.039
50689W        W22272  11.319  41.164  12.131
50690W        W22273  13.535  30.704  14.928
50691W        W22274  29.658  39.482   4.193
50692W        W22275  14.412  27.734  10.333
50693W        W22276  15.070  27.722  11.553
50694W        W22277  33.144   6.505   3.754
50695W        W22278   6.019  40.480  11.561
50696W        W22279   6.309  25.197  14.717
50697W        W22280  35.050  14.307  10.790
50698W        W22281  22.042  23.667  12.431
50699W        W22282   4.369  32.138   3.063
50700W        W22283  17.384  37.477   2.808
50701W        W22284  26.195  26.261  14.667
50702W        W22285   4.190  38.441  12.593
50703W        W22286  16.046  36.659   4.078
50704W        W22287   8.326   7.763  13.782
50705W        W22288   2.683   2.925  11.237
50706W        W22289  35.126  30.449  11.999
50707W        W22290  34.903  36.165  12.566
50708W        W22291  29.202  44.825   0.935
50709W        W22292   4.375   6.358   4.765
50710W        W22293  42.480  12.929   1.982
50711W        W22294  40.259   2.976  11.107
50712W        W22295  44.848  31.515   2.735
50713W        W22296  15.785  16.508  12.613
50714W        W22297   7.195  44.084  11.244
50715W        W22298  13.783  33.653   3.745
50716W        W22299   9.195  32.289  12.375
50717W        W22300  34.953  37.355   1.164
50718W        W22301   6.743   3.794   4.094
50719W        W22302  39.569  21.791   1.747
50720W        W22303  26.178  10.427   4.531
50721W        W22304  26.084  31.218   3.781
50722W        W22305  19.018   3.868  10.656
50723W        W22306  42.072  14.734  12.947
50724W        W22307   0.392  36.649  11.478
50725W        W22308  20.975  29.008  14.483
50726W        W22309  18.046  30.827   4.945
50727W        W22310  39.622  44.121   1.872
50728W        W22311  29.469   5.320   0.325
50729W        W22312  25.944   3.702   2.245
50730W        W22313  10.320   6.045  11.160
50731W        W22314   7.726  27.601   4.588
50732W        W22315  23.212  42.915  12.895
50733W        W22316  21.192  30.467   0.937
50734W        W22317  21.956  19.973   3.188
50735W        W22318  26.563  28.920  11.216
50736W        W22319   4.683  15.570   2.878
50737W        W22320  11.187  25.806  13.302
50738W        W22321  38.310  38.924  13.517
50739W        W22322   7.909  44.215   0.412
50740W        W22323  18.917  40.144   2.417
50741W        W22324  31.490  32.499   4.539
50742W        W22325  38.957  31.561  13.242
50743W        W22326   3.028   9.847   4.757
50744W        W22327  32.932  16.064  11.478
50745W        W22328   6.836  18.838  13.536
50746W        W22329   9.314  32.949   0.947
50747W        W22330  13.085  14.111  13.589
50748W        W22331  23.986  34.172  12.126
50749W        W22332  14.275  31.502  14.444
50750W        W22333  16.333  38.088  14.958
50751W        W22334  15.647  42.832  10.786
50752W        W22335   1.325  13.487  12.051
50753W        W22336  20.577   1.307   0.414
50754W        W22337  43.411   3.783  12.109
50755W        W22338  15.804  13.146  11.516
50756W        W22339  42.389   7.557  12.870
50757W        W22340   6.205  43.063  13.932
50758W        W22341  29.929   5.194  14.855
50759W        W22342   0.584  42.922  10.569
50760W        W22343  21.531  41.394   2.304
50761W        W22344  11.749  22.657   3.104
50762W        W22345   3.488  17.708   0.429
50763W        W22346   1.815  16.404   2.714
50764W        W22347   7.290  38.297   3.327
50765W        W22348  41.546  25.473  12.898
50766W        W22349  42.361  38.931   2.817
50767W        W22350  27.880  13.195   4.167
50768W        W22351   1.452  18.782   4.515
50769W        W22352  24.471  41.023   3.887
50770W        W22353  31.994  43.316   4.775
50771W        W22354  24.266  37.988   3.232
50772W        W22355   4.738  26.418  14.633
50773W        W22356   4.867  33.058  12.940
50774W        W22357  32.175  26.518  14.803
50775W        W22358   7.948  39.902   2.316
50776W        W22359   4.730  31.666   4.301
50777W        W22360  12.196  27.740  11.572
50778W        W22361  27.251  32.472  11.610
50779W        W22362   9.474  13.624   4.079
50780W        W22363  35.015   6.281   2.459
50781W        W22364  18.492  14.129  10.882
50782W        W22365  11.907  37.683   5.071
50783W        W22366  38.288  22.644  14.066
50784W        W22367  17.365  38.955  14.450
50785W        W22368  33.612  14.920   2.267
50786W        W22369  12.155  44.930   0.018
50787W        W22370  15.993  36.821   0.013
50788W        W22371  20.289  29.464  14.873
50789W        W22372  38.029  22.190  13.852
50790W        W22373  16.643   0.901   4.773
50791W        W22374  14.066  18.164  11.567
50792W        W22375  21.558  13.429   4.155
50793W        W22376  36.423  30.085  12.960
50794W        W22377  41.801  10.720  13.828
50795W        W22378  25.266  12.590   3.694
50796W        W22379   9.172   2.413  13.390
50797W        W22380  23.715   7.174   2.954
50798W        W22381  39.242  19.584  11.078
50799W        W22382  33.361  39.718  11.452
50800W        W22383  13.258  19.001  12.825
50801W        W22384  29.819  10.795  14.370
50802W        W22385  17.813   5.650  13.939
50803W        W22386  26.499  30.240   2.234
50804W        W22387  40.367  30.119   4.572
50805W        W22388  29.390  26.195   0.971
50806W        W22389  11.378  38.909  11.264
50807W        W22390  36.597  39.154  12.435
50808W        W22391  16.366  44.372   4.587
50809W        W22392  18.003  40.583  11.749
50810W        W22393  20.663  27.389   9.625
50811W        W22394  31.373  15.272   3.348
50812W        W22395  17.148   7.789   2.830
50813W        W22396  32.102  26.428   2.321
50814W        W22397  21.300  41.861   2.376
50815W        W22398  21.986  15.776  14.273
50816W        W22399   0.239  35.092  12.539
50817W        W22400  24.135   6.878   2.848
50818W        W22401  20.100  10.819  12.910
50819W        W22402  29.024  25.683  10.711
50820W        W22403  21.308  16.320   0.392
50821W        W22404  40.896  34.589  14.277
50822W        W22405  42.415  24.667   4.641
50823W        W22406  12.348   0.459   1.863
50824W        W22407  39.326  28.114   1.885
50825W        W22408   8.137  39.985   1.774
50826W        W22409   8.221  35.141  13.569
50827W        W22410   4.907  36.982  14.858
50828W        W22411  19.174  28.850  13.937
50829W        W22412  44.594  26.577  13.531
50830W        W22413  19.844   0.169   0.675
50831W        W22414  42.805  39.827   1.813
50832W        W22415  33.946   1.242  14.964
50833W        W22416   9.802  22.054   4.307
50834W        W22417   0.893  42.338  12.140
50835W        W22418  23.489  22.996   1.395
50836W        W22419  29.402  28.954  10.745
50837W        W22420   9.133   2.378  11.182
50838W        W22421  29.758  31.054  13.361
50839W        W22422  22.757  19.107   1.964
50840W        W22423  35.854  18.370  11.592
50841W        W22424  31.895   0.108  12.020
50842W        W22425   6.154  28.424   2.131
50843W        W22426  38.652   4.317   4.800
50844W        W22427   6.275  34.439   1.821
50845W        W22428  41.073  33.053  13.898
50846W        W22429  19.313  39.710  12.191
50847W        W22430   8.816  44.412   3.639
50848W        W22431   4.502  31.422   0.971
50849W        W22432   1.632  31.975  13.311
50850W        W22433  20.062   2.960  14.054
50851W        W22434  39.636   8.128   0.711
50852W        W22435  43.327   0.487   0.868
50853W        W22436  43.313  10.875  12.477
50854W        W22437  19.553   4.299   3.181
50855W        W22438   7.855   9.656   5.018
50856W        W22439  24.613  19.777   0.173
50857W        W22440  27.485  10.056   9.916
50858W        W22441  40.520  18.073   4.521
50859W        W22442   6.485  36.917  13.508
50860W        W22443   3.684  24.901  12.149
50861W        W22444  22.154  38.856   4.952
50862W        W22445  30.746  44.897   0.863
50863W        W22446  19.540  19.689   4.151
50864W        W22447  16.876  12.724  10.980
50865W        W22448  20.469  32.903   1.042
50866W        W22449   9.884  29.345   0.318
50867W        W22450  13.332  23.054   0.113
50868W        W22451  27.179   8.281   4.746
50869W        W22452   4.879   7.710  11.004
50870W        W22453  31.903  11.662   3.628
50871W        W22454  34.625  44.385  14.389
50872W        W22455  38.340  18.804   2.208
50873W        W22456   1.288  27.660   2.201
50874W        W22457  22.301  29.001   0.829
50875W        W22458  20.659  34.853  13.622
50876W        W22459  39.382  12.065   4.725
50877W        W22460  16.868  10.788  14.464
50878W        W22461  15.411  14.191  10.572
50879W        W22462   9.906  22.449  10.277
50880W        W22463  33.434  41.407  13.847
50881W        W22464  12.163  31.162   3.799
50882W        W22465  37.041  19.821  14.403
50883W        W22466   8.688   3.000   2.130
50884W        W22467  40.510  37.597  12.500
50885W        W22468  28.431  15.623  12.383
50886W        W22469  42.585   6.924  14.098
50887W        W22470  35.106  40.929  12.428
50888W        W22471  39.572  34.679   4.211
50889W        W22472   2.394  19.523   2.888
50890W        W22473  31.587  11.832  14.267
50891W        W22474  12.225   0.771   2.842
50892W        W22475  26.695  31.957  10.069
50893W        W22476   5.240   0.902  14.911
50894W        W22477  36.986  28.445  11.396
50895W        W22478  17.960  25.305   5.171
50896W        W22479   4.743  40.384   4.288
50897W        W22480   3.690  19.120  12.316
50898W        W22481  22.936   2.323   1.339
50899W        W22482  31.514  39.778  12.862
50900W        W22483  19.850   9.768   3.789
50901W        W22484  40.449   6.625  14.255
50902W        W22485  16.110  26.575   2.411
50903W        W22486  29.565   4.299   2.765
50904W        W22487  14.230  42.929  13.046
50905W        W22488  15.694   8.920   2.399
50906W        W22489  18.065  36.409   2.783
50907W        W22490  43.181  13.839  14.086
50908W        W22491  27.982  25.235  12.048
50909W        W22492  42.349  33.605   1.162
50910W        W22493  33.405   0.701  14.306
50911W        W22494  21.028   5.342   2.212
50912W        W22495  40.411  41.791  13.779
50913W        W22496  20.353  11.250   0.296
50914W        W22497   6.764  42.514   1.851
50915W        W22498   1.795  13.837   4.303
50916W        W22499  14.350  32.656   0.316
50917W        W22500  13.764  44.453  13.524
50918W        W22501   1.468   2.159  14.547
50919W        W22502  44.231  32.597  10.498
50920W        W22503  24.453   9.279   0.476
50921W        W22504   7.769  18.781   4.598
50922W        W22505  22.967  25.791  14.926
50923W        W22506  19.645  33.986  14.989
50924W        W22507  34.137  21.122   4.331
50925W        W22508  23.230  29.782  14.371
50926W        W22509  33.825   1.960  13.440
50927W        W22510  37.016   2.532  13.786
50928W        W22511   7.192   8.371   0.046
50929W        W22512  12.344  30.124   4.629
50930W        W22513  23.661  13.777  11.597
50931W        W22514   3.074  15.651   2.503
50932W        W22515  43.991  22.485   0.220
50933W        W22516  19.071  30.311  13.818
50934W        W22517  10.616  33.626   3.478
50935W        W22518  12.954  33.496  11.589
50936W        W22519   3.870   6.838  10.734
50937W        W22520  31.177  26.766  11.941
50938W        W22521  17.945  30.015   0.400
50939W        W22522  23.261  36.872   0.810
50940W        W22523  34.174  43.521  11.498
50941W        W22524  32.828  26.079   0.902
50942W        W22525  16.206   9.083   1.392
50943W        W22526   7.420  18.587   1.337
50944W        W22527  34.951  18.784   1.192
50945W        W22528  18.099  36.984   2.120
50946W        W22529  40.771  34.592  12.065
50947W        W22530  11.330  22.681   4.252
50948W        W22531  10.946  42.652   4.844
50949W        W22532   5.647  33.933   1.730
50950W        W22533   1.795  36.860   2.802
50951W        W22534   0.573   8.901   0.165
50952W        W22535   6.932   0.292   1.464
50953W        W22536  16.109  36.882  10.363
50954W        W22537   7.231   4.085  13.988
50955W        W22538  16.479  37.106  10.103
50956W        W22539   3.508  40.109   3.110
50957W        W22540  20.784  26.426  11.934
50958W        W22541   7.429  38.268  12.874
50959W        W22542  28.743  26.929  14.366
50960W        W22543   0.327  22.514  11.916
50961W        W22544  35.526  40.927  10.699
50962W        W22545  29.683  32.614  10.719
50963W        W22546  23.534  27.121   0.417
50964W        W22547  26.985   2.306  14.708
50965W        W22548   8.163  42.099   3.786
50966W        W22549  34.828  19.435   3.176
50967W        W22550   3.659  36.478  13.331
50968W        W22551  27.669  32.660   4.940
50969W        W22552  42.530  27.600   4.121
50970W        W22553  11.851   1.495   3.975
50971W        W22554   5.615  25.608  14.354
50972W        W22555  38.339  12.262   0.339
50973W        W22556  38.420  12.755   0.257
50974W        W22557  31.643  20.159  12.928
50975W        W22558  15.137   0.901  12.334
50976W        W22559   3.404   8.527  12.634
50977W        W22560  17.083  31.697   0.360
50978W        W22561  21.064  22.144   4.536
50979W        W22562  32.038  20.558  14.025
50980W        W22563  33.996  31.831   0.749
50981W        W22564  30.347  19.222   2.154
50982W        W22565  23.062  41.052   0.656
50983W        W22566  25.099  42.300   3.745
50984W        W22567   3.979   6.371   3.208
50985W        W22568  10.340  42.592  13.728
50986W        W22569  39.588   3.816  14.815
50987W        W22570  30.987  34.009   2.313
50988W        W22571  42.330  17.080  14.521
50989W        W22572   3.194  33.524  13.992
50990W        W22573  30.139  19.680  10.001
50991W        W22574  36.263  22.156  12.477
50992W        W22575  21.516  17.350   0.862
50993W        W22576  12.771  38.045   2.895
50994W        W22577  34.378  30.321   4.259
50995W        W22578   3.317   0.985   4.274
50996W        W22579  42.836   6.419  12.347
50997W        W22580  13.627   1.077   2.839
50998W        W22581   5.496  30.072  14.013
50999W        W22582  27.457  26.687   3.250
51000W        W22583   3.528  35.561  13.978
51001W        W22584  25.594   5.136  12.037
51002W        W22585  28.453  14.451  13.906
51003W        W22586  43.414  38.383   4.491
51004W        W22587  38.881  37.389   4.414
51005W        W22588  37.843   6.907   1.678
51006W        W22589  21.308  16.855   2.274
51007W        W22590  30.475  18.846   1.770
51008W        W22591  10.428  38.416   4.290
51009W        W22592  11.411   1.777  10.531
51010W        W22593  16.858  16.631   0.964
51011W        W22594  22.163   7.639  13.531
51012W        W22595   0.906  15.563  14.663
51013W        W22596  31.893  24.968  12.995
51014W        W22597   0.311  43.397   4.191
51015W        W22598  13.697  35.924  11.085
51016W        W22599  26.950  23.167   2.234
51017W        W22600  41.051   9.693  12.588
51018W        W22601  30.179  30.020   4.506
51019W        W22602  44.430  42.497   3.415
51020W        W22603  20.119   5.214  14.328
51021W        W22604  41.517  37.072  11.155
51022W        W22605  32.531  18.224  12.998
51023W        W22606  34.965  35.586   4.144
51024W        W22607  15.344  32.463   0.246
51025W        W22608   1.591   8.469  12.988
51026W        W22609   1.337  23.419  14.282
51027W        W22610  34.656  44.351   4.109
51028W        W22611  39.044  36.138  10.207
51029W        W22612  35.872  17.271  14.008
51030W        W22613   9.424  43.029  11.070
51031W        W22614  36.911   5.448   3.207
51032W        W22615  24.718  16.722   4.462
51033W        W22616  21.510  14.615   4.848
51034W        W22617   5.169  16.796  12.539
51035W        W22618   2.897  38.542  12.431
51036W        W22619   3.405  43.482   4.476
51037W        W22620   3.635  42.272   2.166
51038W        W22621  21.173   1.029   1.824
51039W        W22622   2.480  24.117   3.711
51040W        W22623  13.708  30.467  14.511
51041W        W22624  30.891  21.710   2.593
51042W        W22625  18.840  43.242   3.698
51043W        W22626  43.332  21.644   2.581
51044W        W22627  29.042  26.636   3.208
51045W        W22628   4.445  27.616   4.691
51046W        W22629   0.479  20.509   0.284
51047W        W22630  34.286  10.278   2.880
51048W        W22631  37.533   6.163   1.975
51049W        W22632   9.100  41.883   2.776
51050W        W22633  35.410  31.427   0.253
51051W        W22634   2.408  38.947   2.832
51052W        W22635  19.762   2.725   0.294
51053W        W22636  23.813  18.480  13.994
51054W        W22637  24.919  28.198   1.262
51055W        W22638   5.517   2.190   3.355
51056W        W22639   5.768  32.626   0.250
51057W        W22640   0.254   7.717   2.081
51058W        W22641  36.520  30.245  11.808
51059W        W22642  38.736   7.746  13.013
51060W        W22643   2.299   9.908  12.100
51061W        W22644  35.038  42.209  13.511
51062W        W22645  44.512  35.768  13.839
51063W        W22646  25.215  36.388   0.483
51064W        W22647  17.781   3.298   0.306
51065W        W22648   4.487  18.236   4.853
51066W        W22649  38.811  29.893   3.195
51067W        W22650   6.674  22.113  13.930
51068W        W22651  10.732  28.699   4.558
51069W        W22652  37.003  40.884   0.762
51070W        W22653  28.938  10.716  10.638
51071W        W22654  22.277  15.247   0.458
51072W        W22655  23.619  32.550  12.500
51073W        W22656  16.585   3.807  14.361
51074W        W22657  21.246   8.609  11.135
51075W        W22658  22.810  32.876  11.688
51076W        W22659  13.297  39.274   2.701
51077W        W22660  41.017  16.097  13.402
51078W        W22661  36.993  40.283  13.943
51079W        W22662  27.061  35.172   1.859
51080W        W22663  35.447  31.901  13.747
51081W        W22664  14.039  39.839   0.861
51082W        W22665  16.127   2.713   2.941
51083W        W22666  19.078  12.267  14.049
51084W        W22667  10.476   3.879   0.975
51085W        W22668  36.069  39.495   0.681
51086W        W22669  25.127  34.474   0.999
51087W        W22670  14.269  16.648   0.215
51088W        W22671  21.128  34.986  13.144
51089W        W22672  22.331   0.622   1.983
51090W        W22673   0.958  27.004   1.395
51091W        W22674  28.464   2.474  12.852
51092W        W22675   5.867  29.555   4.294
51093W        W22676  23.199  27.208  10.621
51094W        W22677  14.536  18.296   4.766
51095W        W22678  34.036  19.949   1.835
51096W        W22679   8.167  35.407  11.537
51097W        W22680  37.747  31.557  14.443
51098W        W22681  23.994  26.679   3.665
51099W        W22682  14.094  22.464  11.335
51100W        W22683  25.011  32.614  12.659
51101W        W22684  37.448  42.320  14.487
51102W        W22685  22.804   1.139   0.716
51103W        W22686  33.663  17.199   4.849
51104W        W22687  34.441  34.917   1.705
51105W        W22688  38.010  13.190   2.469
51106W        W22689  10.408  24.997   3.707
51107W        W22690   1.018   9.896  11.121
51108W        W22691  39.614   0.439   1.354
51109W        W22692  41.539  36.837  14.063
51110W        W22693   6.817  15.726  12.436
51111W        W22694  39.938  22.148   3.457
51112W        W22695  31.240   1.813   1.648
51113W        W22696   8.495  15.980  11.895
51114W        W22697  33.903  38.072   2.342
51115W        W22698   7.626  16.853  12.453
51116W        W22699   3.968  23.784  13.899
51117W        W22700  30.849  28.230  12.512
51118W        W22701  39.581   6.681  12.551
51119W        W22702  39.968  25.159  12.101
51120W        W22703   4.724  31.896   0.758
51121W        W22704  30.877  13.314   4.575
51122W        W22705  38.026   8.415   2.859
51123W        W22706  43.493  12.878   1.244
51124W        W22707  39.862   4.172   3.668
51125W        W22708   1.906  14.050   2.446
51126W        W22709   7.344  33.303   3.287
51127W        W22710  33.400   7.568  14.201
51128W        W22711  24.368  11.428   3.797
51129W        W22712  13.785  20.093   0.911
51130W        W22713   3.727  29.296   0.214
51131W        W22714  20.891  19.449   2.738
51132W        W22715   8.698  14.618  14.096
51133W        W22716   5.712  34.984   4.932
51134W        W22717  34.664  37.949  14.708
51135W        W22718   5.744  10.801   0.683
51136W        W22719  34.284  39.056  11.118
51137W        W22720  26.888  34.202   5.053
51138W        W22721  43.445  20.678   0.494
51139W        W22722  12.090   8.618   2.961
51140W        W22723   6.187  38.648   0.366
51141W        W22724  27.639  23.617  14.556
51142W        W22725   1.800  12.591  11.004
51143W        W22726   4.808  26.013  13.262
51144W        W22727  28.253  32.738   3.628
51145W        W22728  26.158  42.912   2.651
51146W        W22729  10.894  37.875  11.196
51147W        W22730  33.540  14.528   4.506
51148W        W22731   6.914  40.969   3.047
51149W        W22732  14.115  18.552  10.630
51150W        W22733  32.847  34.612  11.500
51151W        W22734  30.028  40.526  10.640
51152W        W22735  37.549  43.436   2.961
51153W        W22736  41.516  35.439  14.524
51154W        W22737   4.514  10.587  11.452
51155W        W22738  18.918  11.795   0.802
51156W        W22739  26.450  11.654  14.371
51157W        W22740  36.287  31.028  14.278
51158W        W22741  13.519  13.817   4.726
51159W        W22742   7.172  15.828   1.774
51160W        W22743  34.116   8.992  10.862
51161W        W22744  38.807  11.053   3.227
51162W        W22745  20.411  41.918   1.228
51163W        W22746  27.069   6.640  13.442
51164W        W22747   0.312  34.575  14.151
51165W        W22748   0.246  44.894   2.197
51166W        W22749   4.592  39.767   1.367
51167W        W22750  28.584   5.608  13.581
51168W        W22751  39.783   7.821  11.472
51169W        W22752  14.874  26.977   4.201
51170W        W22753  17.193  38.234  14.889
51171W        W22754  36.433  23.178  12.019
51172W        W22755  31.617  36.387  14.926
51173W        W22756  44.472  39.138  11.407
51174W        W22757  39.391   1.242   4.630
51175W        W22758  33.609  34.959   4.580
51176W        W22759  30.362  25.102  11.818
51177W        W22760  17.355  12.985   0.285
51178W        W22761  29.914   6.501  13.058
51179W        W22762  41.467  42.517  10.507
51180W        W22763  39.744   2.926  11.182
51181W        W22764  33.154   4.733   0.988
51182W        W22765  18.052  39.167  14.027
51183W        W22766   9.213  40.162  11.517
51184W        W22767   0.887   6.719   1.945
51185W        W22768  26.060   8.783   2.348
51186W        W22769  44.522  40.625  11.660
51187W        W22770  35.622  32.192   4.518
51188W        W22771  30.904  40.743   1.352
51189W        W22772   7.963   5.399   4.508
51190W        W22773   7.951   7.086  14.541
51191W        W22774  42.776  36.458  14.101
51192W        W22775   2.867   1.088   1.078
51193W        W22776  30.377  15.516  12.374
51194W        W22777   3.628  42.880   2.862
51195W        W22778  27.262  24.538  12.367
51196W        W22779  13.801  31.384  14.322
51197W        W22780  40.595  31.036  14.379
51198W        W22781  44.251  15.628   0.336
51199W        W22782   4.815  25.199  13.692
51200W        W22783  43.365   4.724  13.876
51201W        W22784   6.076   1.894   1.437
51202W        W22785  42.204   6.489   4.795
51203W        W22786  33.625  29.550   4.808
51204W        W22787  12.194  34.201  14.829
51205W        W22788  39.141   1.093  11.199
51206W        W22789  26.255   1.859   0.796
51207W        W22790   7.625  42.885   4.266
51208W        W22791   9.329  34.321   1.342
51209W        W22792  29.694  35.590   0.287
51210W        W22793  22.687   0.796  13.946
51211W        W22794  16.324  34.080  14.273
51212W        W22795  14.658  31.066   1.899
51213W        W22796  14.593   4.944  11.396
51214W        W22797  27.649   8.690   3.683
51215W        W22798  38.332  34.953  11.103
51216W        W22799  19.668  37.553  12.990
51217W        W22800  17.521   7.747   5.097
51218W        W22801  35.929  31.980   1.318
51219W        W22802   5.403  13.933   2.207
51220W        W22803  40.875  30.495  14.299
51221W        W22804  25.597   0.807  10.533
51222W        W22805   2.269  31.082  10.906
51223W        W22806   6.242  41.044  13.807
51224W        W22807   9.858   0.721  12.958
51225W        W22808  44.234  36.597  10.636
51226W        W22809  41.840  38.238   2.792
51227W        W22810  41.071  27.041  12.463
51228W        W22811  37.297  25.230   4.693
51229W        W22812  31.309   1.651  13.564
51230W        W22813  37.332  42.022   4.976
51231W        W22814  22.285  40.529   4.102
51232W        W22815   8.751  32.448  12.153
51233W        W22816  18.572  11.206  10.753
51234W        W22817  23.310  43.533   2.150
51235W        W22818  37.558  24.494   1.380
51236W        W22819  24.039  10.111   4.090
51237W        W22820  10.845   7.806  10.417
51238W        W22821   8.757   3.498  12.451
51239W        W22822  25.702  29.114   2.394
51240W        W22823   0.705   2.140  14.394
51241W        W22824  30.956   7.868   1.817
51242W        W22825  11.934  17.439   3.605
51243W        W22826  39.376  17.167  10.657
51244W        W22827  25.582  42.877   0.472
51245W        W22828  12.569  16.874   1.251
51246W        W22829  37.953   0.236  10.469
51247W        W22830  44.684  38.397  11.631
51248W        W22831   3.751  23.271   1.282
51249W        W22832  21.926  12.380  11.951
51250W        W22833  43.407  12.600   4.557
51251W        W22834   9.288   5.473   0.725
51252W        W22835  14.414  17.030  10.425
51253W        W22836   2.442  30.692  10.279
51254W        W22837  33.181  12.686   1.773
51255W        W22838   6.413  23.217  13.353
51256W        W22839  31.939  17.590   1.749
51257W        W22840  38.141  19.446   1.510
51258W        W22841  23.463  10.545  14.770
51259W        W22842   9.832  36.548   0.904
51260W        W22843  41.519   7.399  12.793
51261W        W22844  20.755  44.676   1.009
51262W        W22845   3.219  44.392   0.430
51263W        W22846  16.407  16.991   3.378
51264W        W22847  26.826   5.374  11.556
51265W        W22848   2.725  22.886   2.645
51266W        W22849   2.194  39.890   1.654
51267W        W22850  20.990   9.446   1.162
51268W        W22851   5.382  29.531   2.627
51269W        W22852   7.880  30.476   1.819
51270W        W22853  29.931  34.827  14.246
51271W        W22854  28.523  13.222   0.724
51272W        W22855  38.956  21.998   2.170
51273W        W22856   2.989  25.048  12.368
51274W        W22857  26.202  44.722   2.834
51275W        W22858   5.706  26.853   4.241
51276W        W22859  20.062  12.229  13.596
51277W        W22860  24.180   7.567   2.189
51278W        W22861   7.310  26.184   4.649
51279W        W22862  31.150  18.995   2.350
51280W        W22863  37.029  34.155   2.794
51281W        W22864   8.230  23.059   3.259
51282W        W22865  26.691  17.242  14.605
51283W        W22866  37.074  36.493   1.546
51284W        W22867  17.398   4.036   1.063
51285W        W22868  11.291  20.513   1.220
51286W        W22869  40.011  26.665   2.778
51287W        W22870  12.698  29.041   2.265
51288W        W22871  31.478  26.315   1.648
51289W        W22872  16.782   4.407  10.586
51290W        W22873  41.447  44.865   0.751
51291W        W22874   9.976  24.923  12.466
51292W        W22875  35.470  33.770   1.622
51293W        W22876  41.285   9.643   1.428
51294W        W22877  35.454   5.956   1.250
51295W        W22878  16.950  23.263   2.422
51296W        W22879   4.138  22.065  12.075
51297W        W22880  25.229  42.955   2.649
51298W        W22881   3.731  31.378   4.137
51299W        W22882  42.249  20.665  14.474
51300W        W22883  25.247  30.443  11.193
51301W        W22884  13.667  14.598   2.056
51302W        W22885   8.014  10.094   4.566
51303W        W22886  38.017  39.322   1.186
51304W        W22887  37.056   2.752   3.455
51305W        W22888   2.844   4.205   3.939
51306W        W22889   2.818  34.255   2.601
51307W        W22890  34.653  43.886  14.082
51308W        W22891  27.951  26.469  14.816
51309W        W22892  10.433  44.486   0.203
51310W        W22893   1.963  17.857  11.595
51311W        W22894  41.857  19.218   0.761
51312W        W22895  34.279  11.836   0.634
51313W        W22896   7.783   5.209   1.968
51314W        W22897  32.707   3.412  11.527
51315W        W22898  28.272  39.185   1.629
51316W        W22899  16.076  31.108   2.718
51317W        W22900  37.913  44.530   3.818
51318W        W22901   1.324  10.217   2.725
51319W        W22902  40.486  16.901   3.124
51320W        W22903  13.314  36.321   2.647
51321W        W22904  19.783  15.071  12.427
51322W        W22905  18.357  26.197   4.927
51323W        W22906  29.638  23.434   1.174
51324W        W22907  18.927  27.917  11.659
51325W        W22908  20.696  26.163  14.390
51326W        W22909  27.332   2.747   4.908
51327W        W22910  44.254   3.662   0.857
51328W        W22911   0.982  10.666   0.094
51329W        W22912  36.150  18.120  11.167
51330W        W22913   6.655  17.526  14.142
51331W        W22914  22.169  37.467   4.565
51332W        W22915  33.104  14.620   0.373
51333W        W22916  37.970  41.280  14.443
51334W        W22917  22.695  24.270  10.516
51335W        W22918   6.245  18.220   2.663
51336W        W22919  20.764  21.921   1.729
51337W        W22920   9.903   0.910  13.952
51338W        W22921   0.038   4.134   2.681
51339W        W22922  36.498  25.307   2.210
51340W        W22923   1.927  32.997  14.901
51341W        W22924  23.984  18.647   0.681
51342W        W22925  12.271   2.787   0.278
51343W        W22926  23.935  25.929  12.024
51344W        W22927  34.029  36.507   1.514
51345W        W22928  43.477   9.867  13.979
51346W        W22929  14.256  38.452  14.819
51347W        W22930  23.953   6.932  10.937
51348W        W22931  34.073   4.117  14.402
51349W        W22932  23.213  19.164   3.783
51350W        W22933  15.709  13.632   4.628
51351W        W22934  40.562   2.979   2.366
51352W        W22935  37.570   3.491  12.960
51353W        W22936   9.909  27.284   4.583
51354W        W22937  39.594  40.884  11.090
51355W        W22938   0.072  23.579   1.548
51356W        W22939  41.535   1.977   1.445
51357W        W22940  24.282  40.728  11.486
51358W        W22941  16.781  12.247  14.925
51359W        W22942  15.860   6.356  12.075
51360W        W22943  26.225  34.338  14.547
51361W        W22944  29.159   1.893  13.813
51362W        W22945  26.144  31.402  14.444
51363W        W22946  43.742   2.529   0.441
51364W        W22947  41.333  41.292   0.781
51365W        W22948   1.069   4.440   3.511
51366W        W22949  39.792  32.322   3.116
51367W        W22950  41.600  15.280   4.327
51368W        W22951  26.593  36.822   3.670
51369W        W22952  25.667  25.346   0.454
51370W        W22953   1.568  12.260  14.295
51371W        W22954  19.464  25.994   3.170
51372W        W22955  17.335  40.871   4.610
51373W        W22956  31.573  12.813   3.555
51374W        W22957  44.433  30.368   4.185
51375W        W22958   8.686  31.909  14.026
51376W        W22959   9.709  41.582   3.396
51377W        W22960  11.184  15.419  13.350
51378W        W22961  21.894  44.431  13.765
51379W        W22962   3.414   2.081   0.006
51380W        W22963  43.277  25.146  14.311
51381W        W22964  39.852   9.341   4.883
51382W        W22965  40.405  41.375   0.691
51383W        W22966  40.664   7.312  12.632
51384W        W22967  32.660  35.337  13.323
51385W        W22968   1.902   9.632   3.803
51386W        W22969  23.698   3.231  13.274
51387W        W22970  24.162  43.477  12.462
51388W        W22971  19.427  32.439   4.096
51389W        W22972   4.382  15.058  13.106
51390W        W22973   8.193  30.569   4.652
51391W        W22974  34.688   9.854  14.267
51392W        W22975  34.345   1.987  13.487
51393W        W22976  15.084  14.183  12.435
51394W        W22977  18.320   3.777  14.835
51395W        W22978   9.329  21.083  12.579
51396W        W22979  23.012  10.322   2.530
51397W        W22980  36.373  28.495   1.361
51398W        W22981   4.819  41.108  13.169
51399W        W22982  16.335   1.346  10.495
51400W        W22983  19.465   0.309  10.658
51401W        W22984   3.215  19.633   1.700
51402W        W22985  43.521  15.086  14.347
51403W        W22986  28.937  13.859   1.450
51404W        W22987   3.544  32.242  10.770
51405W        W22988  43.452  16.598  10.423
51406W        W22989  26.868  21.782   0.513
51407W        W22990  35.630  24.654  14.306
51408W        W22991   4.433  31.895   1.212
51409W        W22992  28.876  29.000   0.949
51410W        W22993   0.455  28.552   4.845
51411W        W22994  38.573  41.900  14.294
51412W        W22995  41.061  11.810   4.095
51413W        W22996  34.951   1.398   2.051
51414W        W22997  28.901   8.166  11.969
51415W        W22998   0.850  15.652  11.989
51416W        W22999  34.358  25.647  14.441
51417W        W23000  40.425  19.822   2.141
51418W        W23001  36.956  44.884  11.752
51419W        W23002   4.315  23.032  10.972
51420W        W23003  24.603  19.302   4.914
51421W        W23004   3.277  30.183   3.162
51422W        W23005  20.637  19.308  13.334
51423W        W23006  17.528  33.160  13.078
51424W        W23007  35.492  39.192  12.421
51425W        W23008  38.379  17.840   4.574
51426W        W23009  22.166  11.162   1.613
51427W        W23010   6.293  43.423   3.158
51428W        W23011  31.579  31.116  12.338
51429W        W23012  38.478  29.180   4.001
51430W        W23013  20.967  43.802   2.926
51431W        W23014  26.127  20.511  14.456
51432W        W23015  44.317  23.454  10.351
51433W        W23016  12.822  11.549  12.773
51434W        W23017   6.452  13.135  11.095
51435W        W23018   1.762   3.313  11.600
51436W        W23019  22.282  37.869   2.322
51437W        W23020  18.579  30.162  13.953
51438W        W23021  26.128  36.065  11.556
51439W        W23022  20.508  12.610  13.401
51440W        W23023  24.455   0.855   2.307
51441W        W23024  14.475  16.576   2.432
51442W        W23025  44.075  37.836   4.304
51443W        W23026   0.362   4.795   2.050
51444W        W23027  36.297  35.079   4.535
51445W        W23028  38.542  21.254   0.325
51446W        W23029  12.834  30.219   2.268
51447W        W23030  11.565  20.695   0.806
51448W        W23031   0.015  15.659  11.322
51449W        W23032   5.723  14.808   2.679
51450W        W23033  10.877  10.261  11.471
51451W        W23034  11.640  28.335  11.044
51452W        W23035  30.419  24.912   0.445
51453W        W23036   9.662  16.301  14.425
51454W        W23037  22.008  22.594   1.747
51455W        W23038  21.087  31.282  14.024
51456W        W23039  30.352  34.964   3.777
51457W        W23040  13.398  42.974   4.971
51458W        W23041   0.884  11.103  14.743
51459W        W23042  30.213  18.939   0.451
51460W        W23043  22.972  12.284   4.168
51461W        W23044  19.324  11.196  10.623
51462W        W23045  32.122  24.222   3.156
51463W        W23046  10.548  15.829   4.565
51464W        W23047  13.883  34.480  13.032
51465W        W23048  36.455  18.280   1.198
51466W        W23049  28.732  18.640  12.923
51467W        W23050  33.122  17.591  10.411
51468W        W23051   1.288  38.020   3.060
51469W        W23052  41.315  41.509  12.960
51470W        W23053  35.834   1.383   0.224
51471W        W23054  11.467   9.831  12.034
51472W        W23055   9.872  32.317  11.911
51473W        W23056  34.517  15.410   3.930
51474W        W23057  13.366  29.029   2.703
51475W        W23058  23.493  33.589  11.601
51476W        W23059  38.924   3.874   0.050
51477W        W23060  17.548  12.563   0.502
51478W        W23061   1.392   9.784  12.892
51479W        W23062   6.808  35.040   3.898
51480W        W23063  17.094  30.050   2.823
51481W        W23064   7.202  17.746  11.609
51482W        W23065  44.755  11.099  13.541
51483W        W23066  35.452  30.868   2.896
51484W        W23067  40.191  12.892  12.889
51485W        W23068  34.075  14.647   2.239
51486W        W23069  44.457  31.530  13.830
51487W        W23070  10.139  31.506  12.116
51488W        W23071   1.449   6.219  14.617
51489W        W23072  36.023   4.309   0.433
51490W        W23073  23.181  42.228  14.351
51491W        W23074   3.154   4.696  14.439
51492W        W23075   1.329  16.188   0.899
51493W        W23076  21.483  15.065  10.975
51494W        W23077   0.905   6.286  12.304
51495W        W23078  33.703   7.520   2.667
51496W        W23079   9.578  20.278  13.173
51497W        W23080   2.926   8.784  14.881
51498W        W23081  44.911  10.185   1.301
51499W        W23082  21.083   4.291   3.075
51500W        W23083  28.593  19.062   3.844
51501W        W23084  35.190  32.527  13.061
51502W        W23085  16.070  23.015  13.108
51503W        W23086  15.572  13.241  12.018
51504W        W23087  37.425  16.310  10.954
51505W        W23088  41.590   2.359  12.113
51506W        W23089  16.835  24.596   3.847
51507W        W23090  41.917   8.929  10.218
51508W        W23091  33.481  43.265   0.284
51509W        W23092  24.467   2.324   1.993
51510W        W23093  41.629  29.604  12.498
51511W        W23094   9.661  29.003  14.974
51512W        W23095  11.376   1.691   3.971
51513W        W23096  15.149  23.495   4.107
51514W        W23097  27.710  17.613   0.929
51515W        W23098  11.212  30.415   0.856
51516W        W23099  23.148  35.425   1.741
51517W        W23100  35.823  20.241   0.790
51518W        W23101  26.208  37.649  12.495
51519W        W23102  11.164   4.900   1.797
51520W        W23103   4.601  20.031  12.586
51521W        W23104  15.283  39.027   4.205
51522W        W23105   5.062  16.790  13.248
51523W        W23106   1.886   5.306   0.922
51524W        W23107  12.158   7.789   3.760
51525W        W23108  24.718   9.193   3.754
51526W        W23109   2.851  27.464   4.342
51527W        W23110  22.803  26.704  12.751
51528W        W23111  39.524  33.573  11.607
51529W        W23112  36.351   9.384  11.803
51530W        W23113   2.954   8.183   0.500
51531W        W23114  33.782  30.116  14.299
51532W        W23115  28.878  11.200  14.840
51533W        W23116  33.445  24.009   3.766
51534W        W23117  44.908  18.570  13.608
51535W        W23118  39.843  39.816  13.545
51536W        W23119  35.584  38.912  11.493
51537W        W23120   7.150   8.377  11.689
51538W        W23121  24.596  43.729  12.476
51539W        W23122  43.466  27.615   0.810
51540W        W23123  39.030  25.672   1.799
51541W        W23124  13.981  14.318  13.338
51542W        W23125  24.691  11.064  13.172
51543W        W23126  27.406  17.027   0.721
51544W        W23127   7.258  30.431  11.076
51545W        W23128  19.502  10.249  11.431
51546W        W23129  22.709  40.220   4.151
51547W        W23130  15.629  17.870   1.220
51548W        W23131  10.360  32.171   4.572
51549W        W23132  26.364   1.510   2.173
51550W        W23133  14.696  12.848  10.210
51551W        W23134   1.212   9.709   2.738
51552W        W23135  10.392  29.595  13.900
51553W        W23136   1.669  25.574  11.377
51554W        W23137   4.103  13.691   3.684
51555W        W23138   8.192  13.610   4.621
51556W        W23139   9.610  15.745  13.321
51557W        W23140  31.100  38.085  13.963
51558W        W23141  38.489  36.492  13.883
51559W        W23142   6.136  26.555  12.631
51560W        W23143   5.682  43.709   2.742
51561W        W23144   1.842  34.359   3.072
51562W        W23145   8.527   9.852  10.964
51563W        W23146   2.795   0.424   3.598
51564W        W23147   1.438   7.373   3.643
51565W        W23148  18.477   4.901  12.945
51566W        W23149  22.435   2.513  12.448
51567W        W23150  17.667  17.638   1.806
51568W        W23151   7.722  26.535   3.674
51569W        W23152   0.371  12.595   4.503
51570W        W23153  41.302   9.473  11.202
51571W        W23154  33.127   8.650   4.692
51572W        W23155   0.336  19.807  14.856
51573W        W23156  20.837  26.973   4.118
51574W        W23157   9.653  30.386  14.439
51575W        W23158   7.712  11.965   1.726
51576W        W23159  26.074  44.604  13.841
51577W        W23160  17.606   9.415  12.500
51578W        W23161   3.578  18.846   0.667
51579W        W23162  43.087  15.619   9.679
51580W        W23163  33.069  43.212   3.582
51581W        W23164  12.068  35.532   4.622
51582W        W23165  16.533   6.745  13.582
51583W        W23166  11.024  31.951   0.295
51584W        W23167  21.566   0.303   1.434
51585W        W23168  34.202   3.156   3.308
51586W        W23169  39.840  43.551  13.541
51587W        W23170  33.375  11.727  11.223
51588W        W23171  43.441   1.222  12.078
51589W        W23172  43.863  36.596  11.100
51590W        W23173  37.967  29.289   3.985
51591W        W23174  14.449  38.750   0.799
51592W        W23175  28.592  31.452   5.432
51593W        W23176   9.109   7.438  12.063
51594W        W23177   0.616  11.281   1.394
51595W        W23178  10.769   6.362   0.003
51596W        W23179  12.832  21.583  12.123
51597W        W23180  19.705  20.030   2.118
51598W        W23181  40.091  40.977   0.447
51599W        W23182  26.976  24.597   3.140
51600W        W23183  27.596  15.239  12.408
51601W        W23184   5.740  41.885   4.886
51602W        W23185   3.815  14.094  13.013
51603W        W23186  27.391  11.613   0.812
51604W        W23187  23.455   0.708   4.626
51605W        W23188  42.033   4.925  13.475
51606W        W23189   9.236   4.260  12.465
51607W        W23190  32.464  38.297   2.194
51608W        W23191  31.594  17.483  14.585
51609W        W23192   4.283  17.635   2.426
51610W        W23193  20.371   6.350   3.832
51611W        W23194  17.636   0.892   0.879
51612W        W23195   5.198  28.032   3.586
51613W        W23196  10.025  33.604   4.504
51614W        W23197   5.123  18.290   3.870
51615W        W23198   8.172  19.885  10.817
51616W        W23199  29.428  27.913  13.117
51617W        W23200   3.698  11.581  12.021
51618W        W23201  36.059  36.899  14.777
51619W        W23202  21.807  12.742  13.913
51620W        W23203  19.667  26.021   4.498
51621W        W23204  29.599  28.248   4.366
51622W        W23205  12.390  41.342  14.805
51623W        W23206  15.732   1.614   0.902
51624W        W23207   2.757  28.955   0.309
51625W        W23208  12.326   0.865  14.044
51626W        W23209  44.458  21.456  14.308
51627W        W23210  14.633  38.583  12.364
51628W        W23211  29.601  42.214  11.230
51629W        W23212  16.590  32.913  12.954
51630W        W23213  36.388  26.354  13.341
51631W        W23214  18.794  15.738   5.207
51632W        W23215   1.398   8.611  14.460
51633W        W23216  36.959   1.388   2.322
51634W        W23217  36.588  28.594  12.190
51635W        W23218   0.708  28.526  12.558
51636W        W23219  37.400  33.163  13.037
51637W        W23220   1.239  35.644   3.168
51638W        W23221  27.943   5.454   0.365
51639W        W23222  24.600  31.898   2.937
51640W        W23223   3.549  22.234  11.575
51641W        W23224  44.738  17.997  12.026
51642W        W23225   8.574  13.402  10.557
51643W        W23226  19.860  22.102  11.543
51644W        W23227  21.108  44.352  13.403
51645W        W23228   8.803  40.436  11.417
51646W        W23229  40.767  35.490   3.200
51647W        W23230  31.230  24.487   1.365
51648W        W23231  29.106  43.939   4.553
51649W        W23232  34.136  37.946   1.445
51650W        W23233  13.789  25.990  13.583
51651W        W23234  34.406  33.165  12.337
51652W        W23235  27.646   8.775   2.707
51653W        W23236   1.364  36.176  12.039
51654W        W23237  33.945  17.738   0.196
51655W        W23238   6.164  30.898  11.099
51656W        W23239   5.763  13.508  10.604
51657W        W23240  36.785  38.594   0.002
51658W        W23241  36.518  39.239   0.760
51659W        W23242  19.447   6.588  14.741
51660W        W23243  29.808  30.970   4.447
51661W        W23244  25.703  34.976  14.101
51662W        W23245  28.156  13.364   3.401
51663W        W23246  11.328  42.888  11.268
51664W        W23247  30.371  31.065   0.751
51665W        W23248  10.799  27.712   1.133
51666W        W23249   7.571  31.402   1.806
51667W        W23250  38.329   6.166   4.256
51668W        W23251  16.959  41.574   3.239
51669W        W23252  21.187  42.432  11.973
51670W        W23253  25.315  26.114   4.335
51671W        W23254  20.284  17.384   4.098
51672W        W23255   3.341  23.960   0.313
51673W        W23256  22.103   1.469   0.360
51674W        W23257  29.952  44.999   4.785
51675W        W23258  10.217  33.508  10.733
51676W        W23259  41.611  22.055  14.471
51677W        W23260   3.450  34.483   4.158
51678W        W23261   9.317   6.812  14.293
51679W        W23262   7.653  20.271   1.669
51680W        W23263   3.738  33.590  14.977
51681W        W23264   5.903  24.460  13.929
51682W        W23265  37.994  12.280   2.922
51683W        W23266  30.975  29.875   3.380
51684W        W23267  19.957   0.416  10.725
51685W        W23268  23.775  42.780  10.714
51686W        W23269  41.570  29.656   0.401
51687W        W23270   3.222  16.876   0.843
51688W        W23271  13.656   6.264   0.202
51689W        W23272  18.516   2.878  10.474
51690W        W23273  39.530  34.327   4.595
51691W        W23274   4.240  26.025   1.045
51692W        W23275  18.589  10.055   3.813
51693W        W23276   7.849  40.031  11.555
51694W        W23277  37.347  44.858  13.856
51695W        W23278  19.744   0.531   4.414
51696W        W23279  32.210  10.632  14.323
51697W        W23280  40.524  18.724   5.279
51698W        W23281   1.255  26.573   1.375
51699W        W23282   8.221  37.509   1.811
51700W        W23283   4.658  28.681   2.360
51701W        W23284  17.033  23.258  13.312
51702W        W23285  34.239  25.205  13.342
51703W        W23286  34.128   8.476  11.197
51704W        W23287  44.656  16.959   5.017
51705W        W23288  39.489   8.724   2.515
51706W        W23289  17.275  27.065   0.265
51707W        W23290  10.264  28.495  14.697
51708W        W23291  35.804  12.791   0.944
51709W        W23292  40.840  28.870   2.905
51710W        W23293  22.550  36.292   3.596
51711W        W23294  34.693  31.993   0.543
51712W        W23295  39.513  26.379   1.723
51713W        W23296   8.893   2.564  14.151
51714W        W23297  28.337  43.322  13.828
51715W        W23298  18.185  28.172  12.157
51716W        W23299  33.559  27.549  12.468
51717W        W23300  25.456  14.367  10.481
51718W        W23301  40.081  13.187   3.708
51719W        W23302  17.481  24.115  14.361
51720W        W23303  42.917  21.569   1.264
51721W        W23304  28.192  26.408   3.598
51722W        W23305  12.830  16.978   2.203
51723W        W23306  27.197  22.154  11.160
51724W        W23307  18.595  44.481  11.104
51725W        W23308   6.477  24.095  11.162
51726W        W23309  31.951  14.270  11.972
51727W        W23310  10.429  27.660  14.939
51728W        W23311  13.164  12.146  14.425
51729W        W23312  36.757  24.053   2.197
51730W        W23313  10.628  16.602   2.225
51731W        W23314   4.329   8.230   3.283
51732W        W23315   4.884   5.244   1.780
51733W        W23316  41.954  33.327   1.420
51734W        W23317   8.288  11.436  13.088
51735W        W23318  37.363   0.847   3.913
51736W        W23319  29.912  36.516  10.790
51737W        W23320  32.409  32.299   2.797
51738W        W23321   1.730  35.877   3.053
51739W        W23322  25.182  17.484   4.024
51740W        W23323   4.045  28.240  12.429
51741W        W23324  31.010   5.276   0.864
51742W        W23325  30.075  14.196   4.620
51743W        W23326   6.815   3.434  11.675
51744W        W23327  21.981  34.891  14.495
51745W        W23328  41.023  16.077   3.302
51746W        W23329  18.590  44.045   2.605
51747W        W23330   9.790  33.904  11.809
51748W        W23331  40.460   2.694   1.904
51749W        W23332  39.054  35.011   4.585
51750W        W23333  12.838  21.253  14.895
51751W        W23334  35.417  38.432   0.098
51752W        W23335  15.115  40.334   4.163
51753W        W23336  13.604   1.620   1.661
51754W        W23337  23.691   6.176  14.012
51755W        W23338  22.762  25.979  14.480
51756W        W23339   4.267  15.352   4.698
51757W        W23340  34.628  23.523  13.342
51758W        W23341  40.977  27.737   2.088
51759W        W23342  24.783  14.385   0.004
51760W        W23343  12.798  30.635  12.965
51761W        W23344   0.616  30.187  13.822
51762W        W23345  15.525  41.843  13.813
51763W        W23346  24.057   9.085  13.851
51764W        W23347  14.425  30.299  13.429
51765W        W23348  42.476  30.020  11.190
51766W        W23349  41.914   1.493  13.947
51767W        W23350   5.219   3.508  11.106
51768W        W23351  18.294  27.473  11.587
51769W        W23352  23.818   9.777   1.783
51770W        W23353   6.233  26.510   3.619
51771W        W23354  35.296   6.286   3.401
51772W        W23355   1.759   8.875   1.898
51773W        W23356  10.392   3.837  12.902
51774W        W23357  14.246  22.702  12.320
51775W        W23358   6.191  33.139   0.440
51776W        W23359  39.436  19.143  13.430
51777W        W23360  19.986  11.774  10.698
51778W        W23361  32.774  29.492   2.178
51779W        W23362   0.248  32.059   0.995
51780W        W23363  38.902  13.405   1.665
51781W        W23364   2.659   7.257   3.312
51782W        W23365  32.133  13.209  11.569
51783W        W23366   7.846  34.461   4.541
51784W        W23367  19.022  36.118   1.252
51785W        W23368   6.595   7.176   2.773
51786W        W23369  34.584  44.955   0.515
51787W        W23370   4.905  43.531   4.182
51788W        W23371  22.625   6.134  14.407
51789W        W23372  27.521   1.446   2.730
51790W        W23373  10.093  43.021  13.521
51791W        W23374  34.982  15.770   1.766
51792W        W23375  30.492  42.340   2.279
51793W        W23376  23.536   8.254  13.750
51794W        W23377  14.778  39.471  10.735
51795W        W23378  28.250  20.743   0.252
51796W        W23379   2.817  27.686  12.485
51797W        W23380   6.285  29.529   1.555
51798W        W23381  25.082  37.836   2.537
51799W        W23382  16.115   5.212  13.125
51800W        W23383  23.461  18.309  14.396
51801W        W23384  39.580  38.550   1.148
51802W        W23385  38.953  14.372   0.832
51803W        W23386  28.898  20.586   3.244
51804W        W23387   5.253   3.749  12.014
51805W        W23388  36.056  26.696  12.474
51806W        W23389  11.667   3.537   0.427
51807W        W23390  16.927  38.497   1.422
51808W        W23391  16.793   9.436  14.722
51809W        W23392  26.589  38.054  13.928
51810W        W23393  25.780  31.787  11.944
51811W        W23394  30.278  43.963  14.843
51812W        W23395  16.704  17.627  13.575
51813W        W23396   9.910  14.322   3.356
51814W        W23397  16.145  22.739  13.542
51815W        W23398  43.388  24.587   3.818
51816W        W23399   6.309  33.543   0.782
51817W        W23400  31.055  40.441  14.926
51818W        W23401  18.702  13.384  12.528
51819W        W23402  41.588  19.618  13.284
51820W        W23403  37.117  12.787  12.782
51821W        W23404  37.313  11.368   3.312
51822W        W23405  21.496   7.741  10.729
51823W        W23406  11.892  40.717  13.182
51824W        W23407   5.544  44.921  11.639
51825W        W23408   5.907  19.694   2.816
51826W        W23409   4.791  38.061  11.605
51827W        W23410  11.710  42.520  14.317
51828W        W23411  37.443  43.885  14.103
51829W        W23412  12.666  34.819   3.917
51830W        W23413   1.637  35.353   3.360
51831W        W23414  32.888  41.472  11.059
51832W        W23415  35.049   8.175   1.649
51833W        W23416   2.838  26.299  12.916
51834W        W23417  32.510  26.680   2.537
51835W        W23418   3.626  19.119   1.503
51836W        W23419  15.070  13.270  10.387
51837W        W23420  31.632   2.534  12.865
51838W        W23421   0.057  10.666  11.574
51839W        W23422  19.267   3.359   2.371
51840W        W23423  36.785  13.402  14.554
51841W        W23424  25.126   5.778   3.711
51842W        W23425  26.706  42.930  11.248
51843W        W23426  32.908  33.906   4.452
51844W        W23427  12.462  23.271  14.282
51845W        W23428  31.180   0.636   5.032
51846W        W23429   7.848  23.086  12.405
51847W        W23430  28.986  40.848  12.043
51848W        W23431  18.819  15.751   3.526
51849W        W23432  44.699  13.817  10.972
51850W        W23433  10.276  21.543  11.072
51851W        W23434   9.917  26.547   3.987
51852W        W23435  44.276   4.056   3.169
51853W        W23436   0.470  33.020   3.284
51854W        W23437  41.163  41.459   2.933
51855W        W23438   0.765  36.402   4.784
51856W        W23439  18.463  14.863  14.380
51857W        W23440   1.525  41.741  12.091
51858W        W23441  38.476  33.535   1.829
51859W        W23442  28.089  37.869   1.668
51860W        W23443  10.654  13.560  14.452
51861W        W23444  27.712  28.638  10.525
51862W        W23445   2.733  44.011   1.773
51863W        W23446  40.625   5.366  14.451
51864W        W23447  18.004  25.182   3.196
51865W        W23448  38.054  23.527   0.871
51866W        W23449  24.053  31.656  12.739
51867W        W23450  22.237   8.329  11.165
51868W        W23451  26.632  18.047   1.027
51869W        W23452  30.925  15.644  10.262
51870W        W23453   2.871   1.224   2.355
51871W        W23454   2.479  14.686   0.912
51872W        W23455  36.385  11.188   3.163
51873W        W23456  10.112  40.354  11.294
51874W        W23457  24.796  42.846   3.236
51875W        W23458   7.679  17.386  12.103
51876W        W23459   2.901  37.940  13.430
51877W        W23460  11.916  31.806  14.811
51878W        W23461  13.390  16.040  14.515
51879W        W23462  28.758   4.138   2.315
51880W        W23463  40.070  36.650  11.123
51881W        W23464  34.988  27.224   2.627
51882W        W23465  24.172  32.185   1.325
51883W        W23466  28.930  15.571  14.917
51884W        W23467  18.617   1.975  14.535
51885W        W23468   1.583  21.289  11.028
51886W        W23469  39.358  43.666  13.874
51887W        W23470   4.670  24.002  10.875
51888W        W23471  26.528   7.320   3.570
51889W        W23472  44.008  32.403   1.694
51890W        W23473  28.589  13.594  12.847
51891W        W23474  20.243  12.086  14.535
51892W        W23475  27.719  14.734   0.772
51893W        W23476   9.649   5.327  12.074
51894W        W23477   3.881   0.478  13.715
51895W        W23478  23.294  44.436  13.550
51896W        W23479   0.777  15.046  10.999
51897W        W23480  27.572  13.476  10.499
51898W        W23481  15.620   9.410   2.238
51899W        W23482  13.202  38.891  14.269
51900W        W23483  29.695  26.077   2.295
51901W        W23484  39.828  33.115  12.869
51902W        W23485   2.392  17.442   1.770
51903W        W23486  35.060  37.170  14.452
51904W        W23487  34.301  33.176   1.931
51905W        W23488   9.558  30.236   3.237
51906W        W23489  22.226  25.488   0.923
51907W        W23490  13.084  32.959  12.126
51908W        W23491  10.772   6.914   2.217
51909W        W23492  29.873  11.603   3.630
51910W        W23493  21.032  38.864  13.731
51911W        W23494  34.074  25.523   1.156
51912W        W23495  43.235  34.786  12.460
51913W        W23496  24.906   2.563   3.207
51914W        W23497  10.468   5.666   1.312
51915W        W23498  43.834  38.966  11.575
51916W        W23499  37.527  44.898  14.350
51917W        W23500  14.868  25.179  14.549
51918W        W23501   4.063  35.914  11.600
51919W        W23502  16.791  20.092   4.627
51920W        W23503  24.215  29.561   2.261
51921W        W23504  22.839  42.653   1.344
51922W        W23505  24.457   4.826  14.025
51923W        W23506  37.224  42.091   2.799
51924W        W23507  33.286  16.428   0.764
51925W        W23508   9.316  24.089  13.090
51926W        W23509   5.751  19.157   4.058
51927W        W23510  14.718   7.810  11.118
51928W        W23511  17.155   7.690   0.888
51929W        W23512  28.372  28.643  11.572
51930W        W23513  44.887   5.948   2.330
51931W        W23514  38.087   9.659   1.625
51932W        W23515  17.056  18.299  14.699
51933W        W23516  43.058  29.090   4.159
51934W        W23517  18.784  24.245   3.813
51935W        W23518  37.321   8.516   1.348
51936W        W23519  12.423  15.312   3.168
51937W        W23520  18.184  10.381   4.077
51938W        W23521   2.125  42.320  11.221
51939W        W23522  37.022  30.043  13.853
51940W        W23523  35.532  21.646  12.599
51941W        W23524  30.695   9.778   1.928
51942W        W23525  22.078  29.707   4.167
51943W        W23526  30.348   8.208   2.335
51944W        W23527   6.411  28.867   2.291
51945W        W23528   4.625  14.158   3.795
51946W        W23529   7.829   4.970   0.554
51947W        W23530  14.220  43.321  11.646
51948W        W23531  34.558   0.789   3.659
51949W        W23532  34.631  44.467   0.313
51950W        W23533   7.454  26.073  13.550
51951W        W23534  37.484  19.013  14.456
51952W        W23535  42.764  41.519   3.726
51953W        W23536  40.571  22.631   1.708
51954W        W23537  38.353   5.005   3.791
51955W        W23538  13.668   8.359  14.969
51956W        W23539   9.101   3.424  13.968
51957W        W23540   9.403  22.999  14.416
51958W        W23541  11.183  26.150   2.838
51959W        W23542  27.966  37.862  12.954
51960W        W23543  23.164  20.723  12.002
51961W        W23544  25.273   6.517   0.575
51962W        W23545  38.627  37.832   4.155
51963W        W23546  27.924  11.062  13.841
51964W        W23547  16.398   5.840  11.475
51965W        W23548   2.042   5.170   1.824
51966W        W23549  28.045  24.541   2.483
51967W        W23550  23.215  22.133  14.382
51968W        W23551  32.991  31.899   4.535
51969W        W23552  43.663  15.564   2.708
51970W        W23553  17.129   9.165  12.444
51971W        W23554  12.149  14.143  13.481
51972W        W23555  13.798  34.569  11.381
51973W        W23556  42.462  31.033   1.947
51974W        W23557  23.177  27.266  11.139
51975W        W23558  37.875  43.955   0.004
51976W        W23559  18.749  44.043   2.133
51977W        W23560   4.365  31.270  14.965
51978W        W23561  42.532   2.930   4.086
51979W        W23562   1.193  20.025  12.260
51980W        W23563  42.937   7.164  10.222
51981W        W23564  17.448  23.885  13.891
51982W        W23565  26.856  31.161  13.074
51983W        W23566  40.445  38.058   0.851
51984W        W23567   0.690  19.179  13.342
51985W        W23568   6.329  42.596   0.430
51986W        W23569  23.756  44.771  14.827
51987W        W23570  14.920  27.419  14.618
51988W        W23571  21.007  31.055   5.048
51989W        W23572  10.730  38.043  12.174
51990W        W23573   2.524  12.608  13.654
51991W        W23574   0.051  44.016   2.340
51992W        W23575  40.333  38.839  10.695
51993W        W23576  12.714  19.453   4.383
51994W        W23577  31.462  22.074   1.408
51995W        W23578  13.225  24.230   2.994
51996W        W23579  23.446  24.784  13.386
51997W        W23580  32.368  20.259  12.343
51998W        W23581  44.267   2.506  11.015
51999W        W23582  42.709  14.787  13.442
52000W        W23583  23.780  16.743  14.426
52001W        W23584  28.406  12.225   4.127
52002W        W23585  24.213   0.443   1.951
52003W        W23586   0.218  25.521   1.519
52004W        W23587  36.934  17.809   1.877
52005W        W23588  27.710  31.548   2.394
52006W        W23589  16.058  37.995   2.936
52007W        W23590  29.016  28.463  10.345
52008W        W23591  40.670  25.169  11.125
52009W        W23592  10.888  24.450  11.029
52010W        W23593  44.479  10.685  11.983
52011W        W23594   9.362  20.012  11.259
52012W        W23595   1.387  27.633  10.751
52013W        W23596   8.621  31.230  13.373
52014W        W23597  35.640   3.446  13.073
52015W        W23598  11.853  28.784  13.871
52016W        W23599  21.125  43.252   4.166
52017W        W23600   7.365  12.734   0.947
52018W        W23601  39.778  17.216  12.819
52019W        W23602  36.127  44.385   2.757
52020W        W23603  39.100  37.098  10.310
52021W        W23604  22.727  15.717  11.444
52022W        W23605  18.548  27.037  11.679
52023W        W23606  35.401  22.597   4.157
52024W        W23607   4.287  14.644   2.642
52025W        W23608  27.951  18.761   0.029
52026W        W23609   2.433  19.468  12.809
52027W        W23610  18.956  18.928  10.173
52028W        W23611  20.657  32.086   1.255
52029W        W23612   7.996  44.879   4.096
52030W        W23613  38.340   7.421  11.593
52031W        W23614   1.472  34.583  11.183
52032W        W23615   7.875  18.220   3.592
52033W        W23616  34.029  13.958  10.622
52034W        W23617  17.811   7.904  12.473
52035W        W23618  18.059   2.996  13.106
52036W        W23619  31.208  44.876  12.634
52037W        W23620  33.917  10.188   1.652
52038W        W23621   3.060  39.505  11.647
52039W        W23622   6.072  29.561  11.218
52040W        W23623   6.376  44.046   5.187
52041W        W23624  16.892  27.588  11.744
52042W        W23625  15.748  43.967  13.506
52043W        W23626  31.187  36.527   3.493
52044W        W23627  41.900   5.743   4.493
52045W        W23628  31.087   4.810  12.106
52046W        W23629  14.713  33.039   2.800
52047W        W23630  34.544   6.214  13.282
52048W        W23631  19.044  11.642   1.845
52049W        W23632  17.940   6.164  13.000
52050W        W23633  21.599  39.898   4.175
52051W        W23634   8.669  33.814  13.563
52052W        W23635   8.409  42.610  11.000
52053W        W23636  17.155  43.242  11.594
52054W        W23637  32.151   2.723  10.696
52055W        W23638   1.317  25.097   1.431
52056W        W23639  27.343   7.145   2.527
52057W        W23640   5.714  40.940   2.812
52058W        W23641  18.994  14.854  14.389
52059W        W23642   2.021  28.186  13.028
52060W        W23643  28.548  19.407  10.897
52061W        W23644  42.288  29.016   2.872
52062W        W23645  42.635   5.191   4.072
52063W        W23646  43.954  12.045   1.339
52064W        W23647  43.910  38.917   1.029
52065W        W23648  23.054  16.830  13.310
52066W        W23649  10.634  28.918  14.464
52067W        W23650  42.302  42.110  13.908
52068W        W23651   6.979  12.607  12.086
52069W        W23652  33.224  29.133   1.329
52070W        W23653   3.611  22.435  13.609
52071W        W23654  40.914  14.837  13.944
52072W        W23655   6.587  38.785  14.094
52073W        W23656   4.430  27.854  12.812
52074W        W23657  36.364  18.945   3.550
52075W        W23658  18.655  38.030   2.914
52076W        W23659   8.045   6.255  11.655
52077W        W23660  10.173  44.745  12.288
52078W        W23661  26.733  10.741   2.761
52079W        W23662   0.405   5.672  14.920
52080W        W23663  40.275  40.932   3.618
52081W        W23664  36.319  14.899  11.786
52082W        W23665  29.940   2.634  12.503
52083W        W23666  26.568  29.009  12.805
52084W        W23667  29.421  38.588  10.105
52085W        W23668   6.784  44.358  12.441
52086W        W23669   7.733  17.902  12.019
52087W        W23670  24.147  11.408   4.541
52088W        W23671   8.356  24.518  12.252
52089W        W23672   5.666  17.824  10.991
52090W        W23673  19.441  30.919  10.639
52091W        W23674  40.723  16.664   2.732
52092W        W23675  39.412  23.098   2.113
52093W        W23676  11.436   4.134   0.602
52094W        W23677   0.933  31.295  12.135
52095W        W23678   7.737  21.124   0.947
52096W        W23679  21.003  11.209  13.993
52097W        W23680  15.655  31.830  13.497
52098W        W23681   5.352   6.646  11.592
52099W        W23682  33.051   0.540  10.602
52100W        W23683  38.026   3.553  10.235
52101W        W23684   6.259  43.635  10.266
52102W        W23685  14.762  24.298   3.220
52103W        W23686  43.431  16.555  12.289
52104W        W23687  14.737  20.900  13.890
52105W        W23688  35.685  14.550  13.896
52106W        W23689  18.448  32.758   2.325
52107W        W23690  20.605  38.308   3.434
52108W        W23691  28.882  36.376  14.447
52109W        W23692  30.532  31.664   4.885
52110W        W23693   8.427  18.061  10.644
52111W        W23694   0.431  39.083   1.737
52112W        W23695   1.901  11.678   4.574
52113W        W23696   7.410  40.582   3.682
52114W        W23697  31.580  17.106   0.259
52115W        W23698  13.578  15.140  13.013
52116W        W23699   9.757   7.667  14.316
52117W        W23700  42.483  16.706   4.624
52118W        W23701  30.948  17.113   1.300
52119W        W23702  35.551  12.726   1.394
52120W        W23703   0.958   2.019  13.065
52121W        W23704  19.172  42.850  11.678
52122W        W23705  28.653  42.409  14.887
52123W        W23706   1.185  32.831  12.033
52124W        W23707   0.488  11.234  12.881
52125W        W23708  19.921  11.662   2.470
52126W        W23709  35.871  25.561   0.381
52127W        W23710  26.792  41.891   3.198
52128W        W23711  10.558   3.186   5.302
52129W        W23712   7.861   0.825  13.335
52130W        W23713  30.949  14.720   1.032
52131W        W23714  22.867  18.583   0.433
52132W        W23715   7.290  41.846   4.306
52133W        W23716  26.077   9.853   2.729
52134W        W23717  19.830  12.735  13.842
52135W        W23718   7.722  20.099   4.594
52136W        W23719  26.740  36.970   1.872
52137W        W23720  27.278   1.045  14.300
52138W        W23721  14.888  17.378   2.659
52139W        W23722   7.334   9.382  10.830
52140W        W23723  35.472  38.483  11.131
52141W        W23724  22.976  10.839   1.384
52142W        W23725  24.068   8.354   1.490
52143W        W23726  38.742  42.926  12.783
52144W        W23727  10.713  13.128   3.585
52145W        W23728  33.897   4.673  13.950
52146W        W23729  15.184  32.242   1.356
52147W        W23730  23.877   8.196   4.330
52148W        W23731  28.988  41.332   4.606
52149W        W23732  41.224  16.226  12.956
52150W        W23733   2.898  17.499  11.346
52151W        W23734   5.504  38.384   0.006
52152W        W23735   1.232  37.532  12.317
52153W        W23736  17.279  29.362   1.417
52154W        W23737  38.889  22.676   3.740
52155W        W23738   3.174  25.673   0.905
52156W        W23739  43.034  16.845  10.252
52157W        W23740  13.097  12.817  10.977
52158W        W23741   2.354  19.966  12.909
52159W        W23742  44.200  32.397   0.324
52160W        W23743  36.700  27.836   2.699
52161W        W23744  16.069  33.986   3.756
52162W        W23745  18.135   0.487  12.735
52163W        W23746   1.999  18.245   1.984
52164W        W23747  17.592  35.665  10.202
52165W        W23748   5.352  32.619   3.548
52166W        W23749   0.227  19.682  11.647
52167W        W23750  25.041  42.884  13.558
52168W        W23751  24.909  36.605   2.763
52169W        W23752  34.607  25.165  14.728
52170W        W23753  14.056   2.702  11.190
52171W        W23754  44.350   4.887  10.797
52172W        W23755  33.054  26.099   4.117
52173W        W23756  25.651  20.714   4.571
52174W        W23757  11.342   4.889  11.825
52175W        W23758  19.110  31.604   4.525
52176W        W23759  36.752  26.119   1.421
52177W        W23760   1.470  19.032   1.947
52178W        W23761  34.130  21.541  10.830
52179W        W23762   9.778   9.181   1.000
52180W        W23763  30.940  16.133   1.031
52181W        W23764   2.032   9.074  13.805
52182W        W23765  35.950  20.295  12.516
52183W        W23766  33.490  31.431   3.339
52184W        W23767  12.687  11.681   3.195
52185W        W23768   4.501  29.552  14.815
52186W        W23769  21.605   2.025  13.389
52187W        W23770  26.283  44.617  14.313
52188W        W23771   1.654  11.958  12.894
52189W        W23772  12.358  41.024   0.853
52190W        W23773  27.629  13.451   4.764
52191W        W23774  13.000  34.921   1.696
52192W        W23775  22.444  20.573   2.841
52193W        W23776  31.485  23.637  11.162
52194W        W23777  27.496  27.163  12.475
52195W        W23778  27.407  29.676   0.033
52196W        W23779  41.443  22.517  11.843
52197W        W23780   5.890  22.510  11.594
52198W        W23781   3.103   7.667   4.844
52199W        W23782   1.764  31.112  10.867
52200W        W23783  20.162  17.619  10.581
52201W        W23784  25.261   8.942   0.318
52202W        W23785  14.461   4.248   4.012
52203W        W23786  26.646  23.329   3.705
52204W        W23787   7.389  32.567  10.650
52205W        W23788  29.934  18.116   1.781
52206W        W23789   2.655  37.920  13.914
52207W        W23790  19.674   7.900  14.366
52208W        W23791  30.134  32.971  11.595
52209W        W23792   7.093  28.069   3.019
52210W        W23793  40.543  17.582   4.319
52211W        W23794  40.793  18.226   2.162
52212W        W23795  30.062  11.628  12.218
52213W        W23796  29.980  38.169   1.258
52214W        W23797  38.065  12.189   0.749
52215W        W23798  18.828   7.769   0.032
52216W        W23799  19.524   8.507  10.055
52217W        W23800  21.965   1.727  13.980
52218W        W23801  32.371  41.377  14.530
52219W        W23802  10.744  24.627  13.138
52220W        W23803  37.172   2.771   0.420
52221W        W23804  29.116   1.930  10.592
52222W        W23805  40.823   5.271  13.599
52223W        W23806  13.707   5.657   4.622
52224W        W23807  27.945  39.397   1.287
52225W        W23808  17.651  16.570   1.987
52226W        W23809  42.812  32.096  11.817
52227W        W23810  16.075  37.837   2.448
52228W        W23811  20.263   1.188  11.112
52229W        W23812  16.146  23.009  14.450
52230W        W23813  11.022  21.771  13.094
52231W        W23814  28.142  42.512   4.302
52232W        W23815  21.795  28.003  11.970
52233W        W23816  24.263  33.826   2.257
52234W        W23817   6.921  20.346  12.584
52235W        W23818   7.661  44.457   2.326
52236W        W23819  31.647   3.910  14.169
52237W        W23820  18.036  43.359  13.317
52238W        W23821  39.107  38.474   1.861
52239W        W23822  16.606   3.728   0.815
52240W        W23823   5.735  15.437  12.364
52241W        W23824  18.764  25.094  10.393
52242W        W23825  12.765  26.758   3.783
52243W        W23826  32.175  14.599  11.627
52244W        W23827  23.969  24.156   2.339
52245W        W23828   4.866  23.483   0.791
52246W        W23829  10.682  34.357  13.012
52247W        W23830  13.786  22.746  12.091
52248W        W23831  14.292  20.118  11.505
52249W        W23832  40.784  21.587  14.257
52250W        W23833  28.416  31.484   4.534
52251W        W23834  13.081  20.099  10.683
52252W        W23835  13.811  11.175   3.519
52253W        W23836   0.641  38.633  14.431
52254W        W23837  27.120   7.199  13.121
52255W        W23838  12.658  30.032   1.825
52256W        W23839   6.195  14.760   1.887
52257W        W23840  43.037  19.562   1.859
52258W        W23841  11.588   1.283  13.554
52259W        W23842  43.493  25.110  10.658
52260W        W23843  21.806  11.398   4.850
52261W        W23844  39.918  38.596  13.018
52262W        W23845  13.725  27.201  12.029
52263W        W23846  30.497   2.026   0.966
52264W        W23847  37.834  22.713   1.343
52265W        W23848  32.832  33.533   4.814
52266W        W23849   4.352  36.132   5.537
52267W        W23850  35.454  28.438   4.051
52268W        W23851   5.732  43.456   4.817
52269W        W23852  37.420   2.629  14.613
52270W        W23853  43.797  41.370   1.687
52271W        W23854  30.415  21.531   3.658
52272W        W23855  35.749  36.558  13.839
52273W        W23856  13.183  39.013   0.476
52274W        W23857   4.358  39.994   2.754
52275W        W23858  15.796   3.316  11.570
52276W        W23859  42.030  10.230  11.992
52277W        W23860  25.223  15.136  11.505
52278W        W23861   3.791  27.583  14.006
52279W        W23862  35.969  22.421   0.401
52280W        W23863  40.332  34.000   2.854
52281W        W23864  25.318  24.549  14.849
52282W        W23865  19.557  22.689   2.583
52283W        W23866  28.675  14.327  12.499
52284W        W23867  13.102  42.789  13.867
52285W        W23868  41.553  20.095   1.397
52286W        W23869  12.122  27.627  10.742
52287W        W23870  25.245  26.506   1.617
52288W        W23871  44.024  19.461  12.896
52289W        W23872  44.423   5.492   0.940
52290W        W23873  14.168   4.831  13.685
52291W        W23874  15.136  31.143   0.547
52292W        W23875  26.502   4.909  12.051
52293W        W23876  19.702  21.855  11.131
52294W        W23877  17.067  33.154   2.633
52295W        W23878  27.582  39.181   0.771
52296W        W23879  40.247  11.294  10.695
52297W        W23880  42.606  21.028  12.465
52298W        W23881  29.870  41.614  12.470
52299W        W23882  22.785  16.818  14.082
52300W        W23883  42.594  40.851   1.261
52301W        W23884  19.521   1.738  13.776
52302W        W23885   6.838  27.626   1.016
52303W        W23886   1.700  37.675  13.770
52304W        W23887  43.817  35.112  12.874
52305W        W23888  40.331  24.035   0.309
52306W        W23889  25.659  35.141   1.419
52307W        W23890   6.429   5.653  13.797
52308W        W23891   2.578  17.727  12.851
52309W        W23892  40.385  22.280  12.496
52310W        W23893  36.383  42.875   1.537
52311W        W23894  36.911  22.961  12.887
52312W        W23895   9.065  11.918  14.760
52313W        W23896  39.736  40.677   2.845
52314W        W23897   7.640  12.695  12.984
52315W        W23898   1.801  31.266  10.378
52316W        W23899  15.475  40.845  11.622
52317W        W23900  17.257  40.198   4.685
52318W        W23901  17.036   0.550  11.088
52319W        W23902   7.776   7.833  14.963
52320W        W23903  12.881  33.478   0.725
52321W        W23904  23.750   7.441  14.102
52322W        W23905   1.375  16.455  11.731
52323W        W23906  35.845  29.033   0.569
52324W        W23907  37.372  16.057   0.963
52325W        W23908   2.164  12.153   1.152
52326W        W23909   2.178  33.665   4.749
52327W        W23910  11.749  30.607  13.103
52328W        W23911  13.315  20.694   2.896
52329W        W23912  22.198   9.169  13.557
52330W        W23913  30.015  26.777  14.403
52331W        W23914  23.760  13.505   3.214
52332W        W23915  16.659   8.988   2.344
52333W        W23916  14.154  36.522   4.991
52334W        W23917  43.989  26.417  12.891
52335W        W23918  44.026   1.081  13.092
52336W        W23919  24.665  36.597  11.132
52337W        W23920   6.402  12.244  13.006
52338W        W23921  34.379  21.788   0.854
52339W        W23922  24.187   4.036  10.684
52340W        W23923   0.283  30.118   3.687
52341W        W23924  24.014  30.620  12.393
52342W        W23925  33.073   4.993  12.439
52343W        W23926  10.871  10.161   1.264
52344W        W23927  34.023   4.788  12.532
52345W        W23928  23.953  44.897  13.366
52346W        W23929  42.088  41.891  14.345
52347W        W23930  14.061  37.063   4.303
52348W        W23931  36.524   0.239   4.282
52349W        W23932  43.201   9.840   1.390
52350W        W23933  11.754  34.988  11.526
52351W        W23934  28.547  31.821   1.904
52352W        W23935  23.742  39.660  12.477
52353W        W23936  38.595  38.131   3.259
52354W        W23937  20.815  15.264   3.312
52355W        W23938  36.430   7.178   1.741
52356W        W23939  40.056  24.759  14.391
52357W        W23940  14.529  40.390  11.554
52358W        W23941   6.429   2.266   1.237
52359W        W23942   1.188  36.671   1.443
52360W        W23943  37.784  33.592   4.320
52361W        W23944  37.992  10.143  11.376
52362W        W23945  16.298  17.131  11.603
52363W        W23946  41.111  10.451   5.157
52364W        W23947   5.462   1.483  14.932
52365W        W23948  25.727  26.094  11.548
52366W        W23949  17.754   3.879   2.864
52367W        W23950  38.935  40.707   5.045
52368W        W23951  27.754  40.841   1.424
52369W        W23952  15.807  42.262  13.823
52370W        W23953  44.612  15.650   2.940
52371W        W23954  14.330   6.580   4.206
52372W        W23955  20.331  13.779  10.697
52373W        W23956  17.613   4.635  14.249
52374W        W23957  31.432  37.970   1.327
52375W        W23958  40.452   3.962  14.421
52376W        W23959  41.472  25.078  14.277
52377W        W23960   6.446  34.440   0.781
52378W        W23961  26.117   1.966   4.743
52379W        W23962  19.756   8.138  14.863
52380W        W23963  25.391  25.477  13.525
52381W        W23964  25.843  17.526  13.238
52382W        W23965  27.557  23.624   4.602
52383W        W23966  16.118  42.040   0.488
52384W        W23967   1.833  19.181   4.585
52385W        W23968  20.704  12.847  10.693
52386W        W23969  25.221  21.582   2.163
52387W        W23970  16.108  29.822   0.439
52388W        W23971  36.455  32.328   4.617
52389W        W23972  43.267  31.198  10.705
52390W        W23973  22.330  17.481  10.234
52391W        W23974  13.955  32.205  14.881
52392W        W23975  37.480  42.554   4.134
52393W        W23976  36.922  40.573   1.510
52394W        W23977  16.168   8.862   0.688
52395W        W23978  37.776   9.240  12.864
52396W        W23979  42.013  20.273   0.707
52397W        W23980  33.394  40.091   4.664
52398W        W23981  10.263   5.441  12.864
52399W        W23982  38.328  22.928   1.055
52400W        W23983  39.812   6.851  13.810
52401W        W23984  28.132  19.604  12.482
52402W        W23985   2.713  14.674   2.725
52403W        W23986  43.274  34.914  11.517
52404W        W23987   5.993  11.368   4.172
52405W        W23988   1.259   4.412  12.940
52406W        W23989  20.983   8.782   0.307
52407W        W23990  38.387  36.655   3.296
52408W        W23991   1.964   4.472  10.738
52409W        W23992  18.068  41.741  10.609
52410W        W23993  38.353  12.873   4.606
52411W        W23994  30.709   9.569   3.638
52412W        W23995  24.221  28.438   4.691
52413W        W23996  33.942  12.540  13.231
52414W        W23997  34.506  12.149  12.516
52415W        W23998  31.119  41.075   3.021
52416W        W23999  16.894   0.747  14.246
52417W        W24000   2.337   6.945   1.803
52418W        W24001  42.371  28.711   2.266
52419W        W24002  30.157  12.771   2.552
52420W        W24003  43.337   8.158  14.521
52421W        W24004  30.443  28.476  14.372
52422W        W24005  38.011  37.892   3.164
52423W        W24006   1.237  34.550  14.341
52424W        W24007  34.123  29.754   1.905
52425W        W24008  35.533  36.077   1.860
52426W        W24009  12.552  13.835  14.366
52427W        W24010  31.142  42.782  13.070
52428W        W24011   8.113  22.017   0.922
52429W        W24012  42.779  44.550   2.637
52430W        W24013  20.570   1.761   2.820
52431W        W24014  30.644  31.156   4.259
52432W        W24015  41.303  23.648   3.787
52433W        W24016   7.930  28.074   4.640
52434W        W24017  29.192  25.514  11.567
52435W        W24018  30.102  16.238   3.721
52436W        W24019  43.220  14.909   3.860
52437W        W24020  36.311  24.250   2.380
52438W        W24021  13.634  40.556   3.613
52439W        W24022  44.114  35.829  11.484
52440W        W24023   9.371  39.402   1.436
52441W        W24024  24.714  37.448  14.303
52442W        W24025  21.617  21.311  14.387
52443W        W24026   2.196  38.955  12.933
52444W        W24027   1.858  28.552  11.745
52445W        W24028   5.382  22.091   0.185
52446W        W24029  32.668  10.367  11.151
52447W        W24030  12.863   7.361  12.317
52448W        W24031  35.698  13.862   1.973
52449W        W24032  19.955   4.524   3.466
52450W        W24033   0.727  37.403   1.438
52451W        W24034  28.991  30.132   1.251
52452W        W24035  38.543   8.149   5.110
52453W        W24036   9.392  15.342  11.123
52454W        W24037  35.511  16.629   2.595
52455W        W24038  27.627   5.228  13.774
52456W        W24039  34.125   5.394  10.791
52457W        W24040  26.119  37.870  12.008
52458W        W24041  30.167   9.073   1.366
52459W        W24042  36.468  40.869   4.265
52460W        W24043   4.105  34.170   2.991
52461W        W24044   3.987  44.417  12.805
52462W        W24045  31.567  42.104   2.868
52463W        W24046  13.187  20.890  13.866
52464W        W24047  16.609  25.963   3.581
52465W        W24048   1.787  10.834   0.974
52466W        W24049  33.869   9.837  14.886
52467W        W24050  35.970   9.337   5.039
52468W        W24051  15.805  21.741   4.127
52469W        W24052  15.078  13.166  12.175
52470W        W24053  43.283  14.141   3.260
52471W        W24054  19.238  38.436   4.115
52472W        W24055  12.010   0.203   1.516
52473W        W24056   4.123   0.751   0.275
52474W        W24057  32.017   7.943  12.643
52475W        W24058  23.514  37.781  11.807
52476W        W24059  39.125  43.642   0.479
52477W        W24060  36.044   4.473  13.788
52478W        W24061  24.818   2.266   1.060
52479W        W24062  10.739  13.597   1.891
52480W        W24063  44.437  40.551   3.348
52481W        W24064  20.333  14.709   4.129
52482W        W24065   6.376  29.874   1.180
52483W        W24066   6.833  15.671  14.810
52484W        W24067  23.717  13.805   1.993
52485W        W24068  36.239  28.969  14.248
52486W        W24069  32.830  21.683   2.971
52487W        W24070  25.699  44.358  11.519
52488W        W24071  41.775   7.162  11.212
52489W        W24072  32.870  43.141  14.286
52490W        W24073   6.500  26.622  10.814
52491W        W24074  34.159  42.860  14.836
52492W        W24075  28.629   9.310  10.611
52493W        W24076   0.756  22.512  10.165
52494W        W24077  29.084  14.021   2.249
52495W        W24078  27.369  33.435   2.586
52496W        W24079  22.772  23.377  12.420
52497W        W24080  38.791   7.149   4.170
52498W        W24081  31.418  32.340  10.385
52499W        W24082  33.672   6.352  14.323
52500W        W24083  44.629  24.032  13.550
52501W        W24084  43.307  32.006  11.981
52502W        W24085  27.295  25.959   0.279
52503W        W24086  17.074  16.465  11.597
52504W        W24087  34.178   7.382  11.243
52505W        W24088  16.602   7.891  11.544
52506W        W24089  10.627  39.866   4.393
52507W        W24090   8.122   3.181  13.903
52508W        W24091  37.636  27.683  12.179
52509W        W24092  30.819  25.114   4.232
52510W        W24093  16.357  16.333   4.329
52511W        W24094  21.635  39.377  12.889
52512W        W24095  17.146   2.569  10.801
52513W        W24096  31.563  18.287   1.373
52514W        W24097   4.321  18.763   3.824
52515W        W24098  14.329  17.762  11.358
52516W        W24099  21.563  26.135   4.851
52517W        W24100   3.745  21.185   3.022
52518W        W24101  31.436  31.773   2.753
52519W        W24102  43.450  24.604  10.829
52520W        W24103  42.701   9.603   0.495
52521W        W24104  43.822  35.775  13.469
52522W        W24105   8.775  39.109  14.876
52523W        W24106  19.241  23.783  13.415
52524W        W24107   2.710  44.679   4.072
52525W        W24108  29.158   7.812   1.429
52526W        W24109  38.703  41.883  13.375
52527W        W24110  19.682  38.830   3.227
52528W        W24111  21.327   4.237  11.974
52529W        W24112   8.370  25.474   1.787
52530W        W24113  20.146  37.537  14.239
52531W        W24114  23.150   5.261   2.683
52532W        W24115  41.307  14.066   2.388
52533W        W24116  36.057  41.887   4.271
52534W        W24117  38.846  40.769  14.422
52535W        W24118  21.246  44.797  12.496
52536W        W24119   4.581  41.450   3.686
52537W        W24120  22.796   3.991   0.948
52538W        W24121   6.395  39.245   3.057
52539W        W24122  12.807  14.258  11.724
52540W        W24123  37.374  21.110  10.742
52541W        W24124  40.092  24.079   4.148
52542W        W24125   8.364   5.640   3.212
52543W        W24126  43.899  27.602   3.388
52544W        W24127  37.479  23.564   3.866
52545W        W24128  25.984  25.454  12.671
52546W        W24129  15.802  32.319  13.429
52547W        W24130  27.305  13.531   1.825
52548W        W24131  40.472  35.462  12.103
52549W        W24132  32.144  26.002  14.923
52550W        W24133  42.356  21.556  14.382
52551W        W24134  20.223  15.999   1.405
52552W        W24135  19.501  27.484  12.160
52553W        W24136  14.726  33.773   2.815
52554W        W24137   7.302  35.531   3.240
52555W        W24138  39.816  12.788   2.788
52556W        W24139   2.883  26.950   2.882
52557W        W24140  16.596  21.187   3.690
52558W        W24141  44.361  35.422  12.666
52559W        W24142  22.008  17.309   2.464
52560W        W24143  33.598  11.654   5.105
52561W        W24144  19.718  18.295  11.116
52562W        W24145  12.214  17.512  11.089
52563W        W24146  10.718  39.494  11.998
52564W        W24147  42.240  27.633  14.411
52565W        W24148  21.558  16.053   1.717
52566W        W24149  42.816   5.496  11.535
52567W        W24150  26.465  12.411   5.153
52568W        W24151  34.420  34.907   0.851
52569W        W24152  22.707  43.796  13.927
52570W        W24153  31.545  33.900   0.716
52571W        W24154  34.785   5.906  14.808
52572W        W24155  42.409  42.476  11.585
52573W        W24156  11.986  19.799  13.338
52574W        W24157  17.992  42.455  10.807
52575W        W24158   8.395  28.456   0.304
52576W        W24159   6.770  35.940   3.265
52577W        W24160  35.041  14.477   0.518
52578W        W24161  36.641  44.960  12.863
52579W        W24162  30.393  39.093  14.898
52580W        W24163  18.768  14.155   2.248
52581W        W24164   8.207  16.014  13.175
52582W        W24165  43.582  37.802  13.551
52583W        W24166  14.006  26.613   2.284
52584W        W24167  24.918  16.751  13.396
52585W        W24168  35.666  36.312  11.610
52586W        W24169  37.618  26.247  11.133
52587W        W24170  44.504  34.554   2.706
52588W        W24171  18.598   1.855   3.271
52589W        W24172  34.361  12.581  14.405
52590W        W24173   6.939  20.552  10.850
52591W        W24174   8.119   6.657  12.034
52592W        W24175  16.786  27.275   2.384
52593W        W24176  34.553  12.045  11.495
52594W        W24177   9.191  20.791   3.872
52595W        W24178  18.599   0.743   0.491
52596W        W24179   7.444  38.114  14.305
52597W        W24180  17.666  18.673  11.487
52598W        W24181  13.490  42.340   3.303
52599W        W24182  21.628  22.950   2.858
52600W        W24183  25.523  44.918  14.991
52601W        W24184  12.264  23.099   3.574
52602W        W24185   8.611   9.743  12.295
52603W        W24186  36.084   3.766  14.510
52604W        W24187  19.981  25.139   3.254
52605W        W24188  39.327   7.737  12.502
52606W        W24189  16.601   8.442  11.549
52607W        W24190   5.711  26.774  10.383
52608W        W24191  28.786  27.137   3.214
52609W        W24192  21.520  16.360  12.550
52610W        W24193  16.528  40.666   1.221
52611W        W24194  40.606  44.317  10.750
52612W        W24195  10.625  42.523  11.916
52613W        W24196  22.271   4.301  12.861
52614W        W24197  35.179   2.050  11.515
52615W        W24198  10.716   8.418   4.866
52616W        W24199   2.940  19.205  14.762
52617W        W24200  11.950  13.248  12.762
52618W        W24201  10.635   7.859  11.500
52619W        W24202  44.461  16.448   3.950
52620W        W24203  30.188  23.065   0.484
52621W        W24204  42.368   7.640   3.071
52622W        W24205  19.541  21.558  14.751
52623W        W24206  43.007  35.939  12.933
52624W        W24207  11.775  14.411  11.955
52625W        W24208  19.385  14.240  12.625
52626W        W24209  32.139  25.916   2.234
52627W        W24210  44.190  43.010  13.328
52628W        W24211  20.609  28.469  10.033
52629W        W24212  14.580  43.344  14.462
52630W        W24213  14.596  18.017  10.800
52631W        W24214  28.912  37.475  10.517
52632W        W24215  18.574  21.556  13.934
52633W        W24216  15.642  41.816   4.507
52634W        W24217   3.748  42.498   0.511
52635W        W24218  20.109   9.453   0.046
52636W        W24219  16.795   7.693   2.475
52637W        W24220  17.739  33.095  11.114
52638W        W24221  40.529  12.118  10.442
52639W        W24222   4.397  40.831   0.793
52640W        W24223  39.116  36.420  13.163
52641W        W24224  44.969   1.431  12.984
52642W        W24225  32.020  22.970   1.661
52643W        W24226  32.050  19.556   3.699
52644W        W24227  11.167  26.682  10.441
52645W        W24228   9.445  13.879  12.572
52646W        W24229  31.940  27.210   1.937
52647W        W24230   5.463  44.414  11.690
52648W        W24231   7.720  13.628   3.528
52649W        W24232  44.559  36.622   1.869
52650W        W24233  29.607  14.740  12.823
52651W        W24234  29.599  40.128  11.654
52652W        W24235  15.030   6.866   1.863
52653W        W24236  29.601  13.294  13.330
52654W        W24237   9.596  44.759  14.523
52655W        W24238  23.004   8.838  13.317
52656W        W24239   8.188  39.320  14.018
52657W        W24240  35.010  28.115   4.144
52658W        W24241  40.046  40.342   4.657
52659W        W24242  14.609  22.626  10.602
52660W        W24243   6.832   0.234   3.702
52661W        W24244  17.716   1.986  11.965
52662W        W24245  20.514  26.216  13.251
52663W        W24246  14.845  21.515   2.664
52664W        W24247  37.854   0.028   0.806
52665W        W24248  40.086   9.778   4.767
52666W        W24249  28.080  10.949   5.004
52667W        W24250  30.179  40.029   1.658
52668W        W24251  36.642   8.283   3.621
52669W        W24252  37.451  40.640  13.760
52670W        W24253  42.784  16.922   4.159
52671W        W24254  14.153  15.098   2.731
52672W        W24255  20.612  25.759  14.938
52673W        W24256  10.601  18.678  13.469
52674W        W24257  31.954  29.709  14.965
52675W        W24258  44.402  33.159   2.377
52676W        W24259  34.134  23.851   2.999
52677W        W24260  25.221  44.758  12.919
52678W        W24261   9.153  42.901  14.802
52679W        W24262   0.792  34.524  13.869
52680W        W24263  44.799  22.157   2.611
52681W        W24264  12.161  10.208   4.661
52682W        W24265   7.600  23.615  11.697
52683W        W24266  32.075   4.646  11.360
52684W        W24267  18.109  37.302   3.894
52685W        W24268   7.997  39.008  14.411
52686W        W24269  23.082  23.891   4.954
52687W        W24270  15.615  42.679  12.079
52688W        W24271  23.077   3.841  12.625
52689W        W24272   9.741  32.796  12.790
52690W        W24273   4.457  39.701   3.204
52691W        W24274  27.903   6.181   4.068
52692W        W24275  30.908  27.936  13.002
52693W        W24276  22.566  28.547   0.957
52694W        W24277  17.128  25.156   4.661
52695W        W24278  38.649  17.124  11.376
52696W        W24279   1.513  35.391  10.836
52697W        W24280   3.174  25.305  11.564
52698W        W24281   5.245  17.158  10.548
52699W        W24282  17.322   1.354   2.764
52700W        W24283  19.150  20.184   1.465
52701W        W24284  39.400   4.901  14.798
52702W        W24285  35.824  43.526   0.323
52703W        W24286  33.554   9.794  13.454
52704W        W24287  13.245  18.808  11.264
52705W        W24288  12.662  14.595   1.019
52706W        W24289   3.297  10.212  10.991
52707W        W24290   9.804  42.552   3.225
52708W        W24291  30.732  18.814  10.645
52709W        W24292  33.878  31.006   1.966
52710W        W24293  28.122  15.364   1.756
52711W        W24294  36.635  29.838   3.953
52712W        W24295  38.902  37.499   3.901
52713W        W24296  18.096  44.882  11.676
52714W        W24297  26.203  20.772  14.023
52715W        W24298  18.577   9.305   0.343
52716W        W24299  15.735  29.747  14.792
52717W        W24300  12.833   0.727   1.916
52718W        W24301  19.772  16.792   2.159
52719W        W24302   0.980  13.475  12.446
52720W        W24303  17.340  38.592  12.315
52721W        W24304   3.823  17.335  13.365
52722W        W24305  16.644  23.750  11.954
52723W        W24306  39.426   6.600  13.392
52724W        W24307  42.559  40.157   4.134
52725W        W24308  37.379  35.352   0.680
52726W        W24309   3.432   6.903   2.725
52727W        W24310  22.794  36.125  13.937
52728W        W24311   0.463  37.491   2.747
52729W        W24312  36.161   9.260   2.053
52730W        W24313  21.940  16.221   2.060
52731W        W24314  20.939  31.795   5.592
52732W        W24315   9.477   3.943  12.019
52733W        W24316  24.629  22.539  12.856
52734W        W24317  34.261  34.167   0.244
52735W        W24318  28.168  21.659   0.888
52736W        W24319  23.757   7.280  12.556
52737W        W24320   1.519  33.071  11.208
52738W        W24321  26.000  24.944  10.412
52739W        W24322  42.312  31.302  14.941
52740W        W24323  23.567  31.050   5.511
52741W        W24324  19.131  44.541  12.525
52742W        W24325  14.241   2.531   3.339
52743W        W24326  19.313   8.211   2.298
52744W        W24327  16.805  23.560  12.408
52745W        W24328  25.697   3.875   0.223
52746W        W24329   0.610  44.465   4.651
52747W        W24330   2.312   5.461  13.989
52748W        W24331  20.785   4.678  14.252
52749W        W24332  26.691  40.742   1.456
52750W        W24333  43.471  34.099   0.418
52751W        W24334  27.053  27.492   0.404
52752W        W24335  23.313  31.295  14.357
52753W        W24336  20.547  35.172   4.575
52754W        W24337  16.742   7.222  13.513
52755W        W24338  28.080   3.911   3.616
52756W        W24339  42.043  35.072   0.838
52757W        W24340   4.762   7.984  11.421
52758W        W24341  40.558  10.202  11.057
52759W        W24342  12.713   2.849   2.478
52760W        W24343  25.479  28.286  12.494
52761W        W24344  37.765  39.219   5.057
52762W        W24345   7.892  24.037  11.594
52763W        W24346   1.791   3.746  10.768
52764W        W24347  26.162   3.807  13.954
52765W        W24348  43.920   3.459  14.691
52766W        W24349  44.179  12.618  14.777
52767W        W24350  42.804  15.638   0.518
52768W        W24351  42.014  35.635  12.965
52769W        W24352   2.011  31.623   0.995
52770W        W24353  20.900  14.874  14.418
52771W        W24354   1.297  21.172  10.602
52772W        W24355  43.818  25.737   0.386
52773W        W24356  28.468   2.730   3.316
52774W        W24357  38.055  13.103  14.352
52775W        W24358  14.617  32.131  14.445
52776W        W24359  40.466   8.784   4.603
52777W        W24360  16.651  13.130  12.050
52778W        W24361  20.044   5.390  13.435
52779W        W24362   1.743  18.489  13.613
52780W        W24363  37.574   3.710  11.851
52781W        W24364  21.171  28.520  14.479
52782W        W24365   7.708  35.472   2.312
52783W        W24366  35.474  40.923   1.007
52784W        W24367  26.104  19.731   3.331
52785W        W24368  22.113  31.585   0.021
52786W        W24369  10.274  40.973   4.078
52787W        W24370  38.464  23.102   2.053
52788W        W24371  19.568   9.047  12.789
52789W        W24372  41.785   0.311   2.175
52790W        W24373  16.345  21.816  11.635
52791W        W24374  34.010  40.584   3.749
52792W        W24375  23.454   0.482  13.333
52793W        W24376  25.461  39.135  14.719
52794W        W24377   7.203  33.594  11.604
52795W        W24378   3.427   5.034   3.168
52796W        W24379  11.376  39.939   0.843
52797W        W24380  40.264  18.060  14.074
52798W        W24381  35.616  17.371  13.509
52799W        W24382   5.857  29.282   1.856
52800W        W24383  12.107   0.854  10.409
52801W        W24384  40.269  13.385   2.154
52802W        W24385  26.986   3.259   1.695
52803W        W24386  11.412   8.806  12.800
52804W        W24387   8.828   0.879  14.383
52805W        W24388  38.908   1.979  11.946
52806W        W24389   4.263   0.487   0.723
52807W        W24390  40.984  16.631  13.542
52808W        W24391   9.906  23.469  12.519
52809W        W24392  32.734   2.276   1.236
52810W        W24393  35.977  39.367   4.629
52811W        W24394  30.464  28.202   2.293
52812W        W24395  28.159   7.197   0.226
52813W        W24396  17.342  30.597  12.375
52814W        W24397  21.746  20.814   1.773
52815W        W24398  31.658  20.522  13.640
52816W        W24399  40.536  34.620  11.619
52817W        W24400  21.676   0.080  13.554
52818W        W24401   6.587  18.962   4.281
52819W        W24402  44.785  44.246  12.479
52820W        W24403  44.228  42.766   0.765
52821W        W24404  12.395  29.473  12.637
52822W        W24405  44.554   3.460   4.978
52823W        W24406  27.641  29.524   4.406
52824W        W24407  42.548   3.857  12.306
52825W        W24408   1.240  25.991   2.681
52826W        W24409  26.049  12.125   5.039
52827W        W24410  32.038  20.017   2.799
52828W        W24411  43.508  40.380   1.382
52829W        W24412  41.347   6.193  14.483
52830W        W24413  23.710   1.275  12.675
52831W        W24414  32.892  20.709   4.631
52832W        W24415  15.979   1.798  11.685
52833W        W24416  31.179  24.104  12.365
52834W        W24417  37.005   0.872   3.087
52835W        W24418  24.724   3.314   3.855
52836W        W24419  42.118  29.489   3.086
52837W        W24420  33.406  43.271  11.070
52838W        W24421   6.503  42.208   2.293
52839W        W24422  25.576  35.582  12.096
52840W        W24423  21.685  24.227   1.301
52841W        W24424  23.427  20.653   4.489
52842W        W24425  36.363  44.773  11.952
52843W        W24426  40.231  24.525  10.682
52844W        W24427  38.864  44.901   2.263
52845W        W24428  14.528  34.138   4.622
52846W        W24429  39.756  39.028   1.777
52847W        W24430  30.165  29.641   2.657
52848W        W24431  17.830  21.804   1.085
52849W        W24432  44.586  34.518  14.828
52850W        W24433  41.584  27.728   5.116
52851W        W24434  24.231  44.781   1.207
52852W        W24435  30.006  35.885  12.828
52853W        W24436  11.366   8.678   2.316
52854W        W24437  44.255  19.807   3.736
52855W        W24438  44.498  13.542  11.657
52856W        W24439  10.188   5.000   5.069
52857W        W24440  10.744  13.745  10.912
52858W        W24441  37.450  23.073  12.821
52859W        W24442  17.483  16.247  10.745
52860W        W24443  14.285  17.542  13.046
52861W        W24444   6.813  17.068  10.266
52862W        W24445  40.733  33.635  12.076
52863W        W24446  41.018   2.868   2.624
52864W        W24447   6.448   0.655  12.534
52865W        W24448  32.060  44.374   3.582
52866W        W24449  22.266  33.895  10.725
52867W        W24450  37.391  35.993  11.654
52868W        W24451  18.568   1.420  13.887
52869W        W24452  15.891  25.981  11.107
52870W        W24453  12.172  21.786   0.242
52871W        W24454  43.138   7.367   4.706
52872W        W24455  14.690  15.162   2.211
52873W        W24456   1.882  11.150   4.680
52874W        W24457  31.883   5.780   4.276
52875W        W24458   7.974  28.207   2.895
52876W        W24459   5.189  20.106   2.277
52877W        W24460   1.694  14.677  12.409
52878W        W24461   8.805  37.938  14.306
52879W        W24462  29.716   4.853  12.124
52880W        W24463   9.755   0.808  11.261
52881W        W24464  38.088  40.204  14.900
52882W        W24465  44.901   5.007   1.408
52883W        W24466   8.628   2.568   4.615
52884W        W24467   6.297   2.972   0.852
52885W        W24468   6.868   7.107  11.052
52886W        W24469  22.064  33.839   2.255
52887W        W24470  31.425   5.497   4.137
52888W        W24471  32.368  31.273   2.791
52889W        W24472  37.445   8.678   1.822
52890W        W24473  16.628  23.993   3.213
52891W        W24474  25.959  32.341  14.459
52892W        W24475  13.170   9.837   0.375
52893W        W24476  24.188  13.164  11.991
52894W        W24477  34.169   7.168   1.395
52895W        W24478  19.628  37.495   4.583
52896W        W24479  23.526   7.508  13.375
52897W        W24480  20.689  34.724  13.062
52898W        W24481  43.066  27.518   1.789
52899W        W24482  19.274   2.742   0.061
52900W        W24483  37.424  17.650   3.946
52901W        W24484  40.230   0.384  12.976
52902W        W24485   4.767  17.811  14.016
52903W        W24486   3.433  14.377  12.158
52904W        W24487   3.740   2.895  10.671
52905W        W24488  33.344   6.926   4.050
52906W        W24489  28.952  19.460   2.268
52907W        W24490  18.086  43.919  14.984
52908W        W24491  11.235  32.728   4.091
52909W        W24492  29.438  14.336   9.527
52910W        W24493  40.793  32.736   3.258
52911W        W24494  10.401   5.218   2.765
52912W        W24495   7.146  16.737   2.111
52913W        W24496   8.928   6.963   1.402
52914W        W24497  32.161   2.263   0.394
52915W        W24498  18.761  12.203  13.073
52916W        W24499  21.537  23.131  12.955
52917W        W24500  41.580  16.738  11.432
52918W        W24501  24.358  21.473  13.855
52919W        W24502  36.115  16.336  12.462
52920W        W24503  31.154  20.303  12.415
52921W        W24504  15.469  39.708  13.001
52922W        W24505  13.669   8.433   2.440
52923W        W24506  26.643   8.422  12.357
52924W        W24507  39.810  39.724   2.887
52925W        W24508  38.814  21.119   2.520
52926W        W24509  10.409  32.895   3.282
52927W        W24510  42.852  39.894  13.864
52928W        W24511  11.884   1.983  10.431
52929W        W24512  35.064  23.507  12.026
52930W        W24513  23.070  20.937  13.046
52931W        W24514  18.987  28.047  14.598
52932W        W24515  22.780  29.462   2.242
52933W        W24516  29.071   6.337  11.454
52934W        W24517  32.925  18.718  13.848
52935W        W24518  43.986  19.518  14.734
52936W        W24519   7.997  35.090   2.089
52937W        W24520  18.148   3.782   1.214
52938W        W24521  40.399   6.283   9.810
52939W        W24522  32.032  30.660   4.529
52940W        W24523  39.605  29.468  11.196
52941W        W24524  44.334  35.057  14.474
52942W        W24525  28.400  43.238   4.580
52943W        W24526  28.130   2.156  14.347
52944W        W24527  36.289   5.944   2.249
52945W        W24528  17.328  26.613   5.211
52946W        W24529  33.582  30.888  13.998
52947W        W24530   0.386  35.739  14.344
52948W        W24531  41.887  23.233   4.257
52949W        W24532  30.024  18.499  13.799
52950W        W24533   1.364  11.056  12.589
52951W        W24534  10.279  13.846   1.761
52952W        W24535   7.302   0.005   1.706
52953W        W24536  23.795  43.347   2.198
52954W        W24537  16.321  18.822  13.511
52955W        W24538  14.479  33.606   0.938
52956W        W24539  11.745  29.789  11.400
52957W        W24540  19.214  44.996  11.626
52958W        W24541  10.286  11.937   1.872
52959W        W24542   1.094   2.705   0.992
52960W        W24543  30.794  31.606   4.052
52961W        W24544  16.109  40.373  13.411
52962W        W24545  31.930  18.566  11.153
52963W        W24546   4.207  12.689   4.128
52964W        W24547  38.989  29.784   4.050
52965W        W24548   9.280  33.788   4.115
52966W        W24549  22.027  36.595   0.978
52967W        W24550   9.748   4.212  11.066
52968W        W24551  28.502  38.361  10.691
52969W        W24552   7.471  32.008  13.355
52970W        W24553  39.418  25.181  12.072
52971W        W24554  14.370  17.163   1.374
52972W        W24555   3.456  42.481   0.945
52973W        W24556  25.975  26.162   2.688
52974W        W24557   1.009   5.969   3.322
52975W        W24558   4.586  24.363  11.235
52976W        W24559  12.449   0.292   4.063
52977W        W24560  33.669   8.399   2.363
52978W        W24561  22.547  28.130   1.262
52979W        W24562  28.165  29.325   4.287
52980W        W24563  42.885  11.883  13.645
52981W        W24564   5.948  33.615  12.854
52982W        W24565  29.466  26.723   4.125
52983W        W24566  14.262  26.924   1.714
52984W        W24567  13.184  23.428  12.046
52985W        W24568  42.979  33.091  10.233
52986W        W24569  28.725  25.066   2.326
52987W        W24570   2.713  31.994  12.539
52988W        W24571  16.044  43.373  11.700
52989W        W24572  39.333  19.871   2.300
52990W        W24573  18.270  16.166   0.349
52991W        W24574   8.377  21.587   1.071
52992W        W24575  25.744   9.141   4.623
52993W        W24576  11.871  25.464   0.298
52994W        W24577   2.605  12.526  11.162
52995W        W24578   9.087  30.949  10.666
52996W        W24579  13.542  17.848  13.231
52997W        W24580  15.299  26.778   1.769
52998W        W24581   7.839  11.020   2.258
52999W        W24582  13.839  10.879   2.917
53000W        W24583  15.243  28.394   4.377
53001W        W24584   0.426  29.097   3.105
53002W        W24585   4.898  12.071   4.479
53003W        W24586  28.750  39.108   0.852
53004W        W24587  34.827  41.326   3.225
53005W        W24588  32.387  44.224  10.295
53006W        W24589  36.356   0.837  10.734
53007W        W24590   1.783  35.335   4.264
53008W        W24591  25.675  14.832   0.786
53009W        W24592  26.178  36.044  10.759
53010W        W24593  18.887  31.437   1.423
53011W        W24594  41.000  23.075   3.671
53012W        W24595  33.663   9.202   1.847
53013W        W24596   1.079  21.990   1.253
53014W        W24597   8.214  44.514   1.448
53015W        W24598  34.475  18.532  11.607
53016W        W24599   8.865  31.050   4.677
53017W        W24600  12.160  39.948   0.394
53018W        W24601  41.379  39.086  11.047
53019W        W24602  21.295  27.523  11.178
53020W        W24603  35.909  17.863  11.561
53021W        W24604  16.930  30.680  14.279
53022W        W24605  29.086  31.894  14.433
53023W        W24606  20.593   3.255  10.758
53024W        W24607  26.838  10.611   4.318
53025W        W24608  21.198  11.007   3.088
53026W        W24609   7.509  28.160  11.633
53027W        W24610  39.656  41.173   2.796
53028W        W24611  37.920  40.306  12.391
53029W        W24612  28.155   8.464  11.754
53030W        W24613  28.565  27.000   0.407
53031W        W24614  21.518   3.553  13.788
53032W        W24615   0.541  36.799   0.248
53033W        W24616  10.403  27.989  14.497
53034W        W24617  35.976   5.748  13.160
53035W        W24618  15.077   7.095   2.300
53036W        W24619   6.192  10.292  13.953
53037W        W24620  18.536  20.646   3.384
53038W        W24621  30.481  16.842   4.269
53039W        W24622   6.509  28.011   1.310
53040W        W24623  36.315   9.284  14.743
53041W        W24624   1.426  24.098  13.505
53042W        W24625  15.068  17.236  13.496
53043W        W24626  35.304  24.748  12.531
53044W        W24627  11.165  12.713   0.854
53045W        W24628  33.150  25.714  11.054
53046W        W24629  40.379  26.968   4.162
53047W        W24630   2.811   4.422  11.527
53048W        W24631  27.535  25.543  11.677
53049W        W24632  39.441  10.235  13.241
53050W        W24633  39.452  13.889  11.268
53051W        W24634  11.789   9.386  14.768
53052W        W24635  38.020   5.506   2.601
53053W        W24636   6.808   6.694   2.754
53054W        W24637  25.662   6.162  14.396
53055W        W24638  22.750  42.505  12.008
53056W        W24639   7.163  24.148  12.984
53057W        W24640   0.781  37.734  12.149
53058W        W24641   9.487  15.123  12.075
53059W        W24642  40.721  18.122  13.041
53060W        W24643  23.438   3.139   0.998
53061W        W24644  32.187  37.132  10.333
53062W        W24645  30.487  22.816   3.227
53063W        W24646  17.208  13.215  10.913
53064W        W24647  25.763  41.482   1.722
53065W        W24648  19.552  40.598   3.507
53066W        W24649  19.015   1.782  10.901
53067W        W24650  37.326   0.329   1.975
53068W        W24651   9.366  15.122  13.818
53069W        W24652  10.765  43.675  14.495
53070W        W24653  36.490  27.722  11.371
53071W        W24654  11.145  18.062   1.415
53072W        W24655  12.264   3.643  12.872
53073W        W24656  40.894  13.807   4.833
53074W        W24657  37.044  44.385   4.723
53075W        W24658  40.917  40.618  13.926
53076W        W24659  32.998  32.641  13.103
53077W        W24660  35.770  26.204  11.791
53078W        W24661   6.327  10.888  11.831
53079W        W24662  11.751  13.375   3.526
53080W        W24663  40.856  19.849  11.035
53081W        W24664   4.461  27.971  12.318
53082W        W24665  12.207   4.341   1.393
53083W        W24666   7.026  44.025  14.556
53084W        W24667  28.523  36.718  11.458
53085W        W24668   9.934  34.192  12.207
53086W        W24669  14.114  35.665   3.943
53087W        W24670  42.470   6.795   2.287
53088W        W24671  13.376  42.815  12.453
53089W        W24672  11.582  31.057   0.315
53090W        W24673  21.610  34.614  13.281
53091W        W24674  38.056  39.780  10.692
53092W        W24675   8.151  41.583   3.047
53093W        W24676  29.615  28.968  14.780
53094W        W24677   8.683  44.477  14.797
53095W        W24678  33.189  31.559  13.416
53096W        W24679  41.571  13.578   4.162
53097W        W24680  14.442  23.146  14.096
53098W        W24681  22.427   4.625  12.469
53099W        W24682   8.664  37.287   3.048
53100W        W24683   5.780  11.061   4.554
53101W        W24684  29.446  10.316   1.133
53102W        W24685   0.991   0.332  14.831
53103W        W24686  10.134  12.203  13.383
53104W        W24687  17.081  16.854   3.255
53105W        W24688   2.061  35.495   2.996
53106W        W24689   9.493  42.401   4.790
53107W        W24690  12.172  32.358  13.494
53108W        W24691  24.405  20.717  14.297
53109W        W24692  31.092  12.855  13.888
53110W        W24693   8.944  27.143   4.261
53111W        W24694   8.976  35.790   2.979
53112W        W24695  40.431  12.068   4.467
53113W        W24696  22.105  43.498   0.039
53114W        W24697  26.458  10.602  12.512
53115W        W24698  12.216  14.838  10.947
53116W        W24699   5.681  34.062   2.227
53117W        W24700  44.800   1.281   3.284
53118W        W24701  30.018  35.471   3.376
53119W        W24702  22.771  36.141   0.416
53120W        W24703  32.499   2.947  11.618
53121W        W24704  31.266  20.556  10.320
53122W        W24705  26.058  24.539   0.503
53123W        W24706  36.174  25.055  13.561
53124W        W24707  42.058   4.839  11.667
53125W        W24708  13.412  39.817   1.939
53126W        W24709  42.766   0.199   0.882
53127W        W24710  38.315  28.038  12.880
53128W        W24711  36.658  30.347  10.410
53129W        W24712  27.301  16.083  11.917
53130W        W24713  21.616  26.708   0.782
53131W        W24714  37.980   8.784  13.958
53132W        W24715  14.281  31.007  11.933
53133W        W24716  19.780  14.007  12.396
53134W        W24717  15.287  42.780  11.686
53135W        W24718  38.817  36.270  12.496
53136W        W24719  43.834  28.457   3.389
53137W        W24720   3.735  43.902  11.610
53138W        W24721  35.846   2.399  13.748
53139W        W24722  32.230  24.951  13.841
53140W        W24723  12.025  44.854  12.859
53141W        W24724  30.556  16.336   4.177
53142W        W24725  41.907  15.783  14.569
53143W        W24726  18.540  32.177   3.812
53144W        W24727  16.576  13.794   3.828
53145W        W24728   6.778   1.770  14.777
53146W        W24729   5.907  16.683  11.395
53147W        W24730  39.827   2.431  13.824
53148W        W24731   5.805  34.045   2.718
53149W        W24732  34.348  20.451   3.648
53150W        W24733  40.476  40.278  11.186
53151W        W24734  18.894  34.623   2.767
53152W        W24735  11.705  19.644   1.861
53153W        W24736  13.332  41.104  10.600
53154W        W24737  18.084  23.530   1.215
53155W        W24738  29.558  19.476   0.798
53156W        W24739  19.534  10.192  10.918
53157W        W24740  36.065  37.892   4.219
53158W        W24741  44.563  16.209  13.949
53159W        W24742   6.184  40.036   2.673
53160W        W24743  40.836  25.898   4.061
53161W        W24744  27.037  22.483  10.294
53162W        W24745   6.107  41.327   2.825
53163W        W24746   2.986  32.521  14.296
53164W        W24747   7.271  25.453   1.714
53165W        W24748  26.569  22.908  12.585
53166W        W24749  11.929  36.618  12.090
53167W        W24750   0.010  23.969  11.149
53168W        W24751  22.018   7.368   3.638
53169W        W24752  40.403  40.759   1.828
53170W        W24753  28.075   3.427   3.441
53171W        W24754  31.029  15.654  14.801
53172W        W24755   5.191  42.484   4.570
53173W        W24756  37.904  41.902  10.906
53174W        W24757  19.064  11.801  13.818
53175W        W24758  13.248  27.086   0.022
53176W        W24759  35.565   7.813   2.209
53177W        W24760  44.785  14.611   2.412
53178W        W24761  15.377   5.641   2.615
53179W        W24762   5.757  33.837  13.269
53180W        W24763   0.033  20.748  14.082
53181W        W24764  25.681  28.609  10.558
53182W        W24765  25.497  17.305  10.351
53183W        W24766   3.143   8.755   0.492
53184W        W24767  35.502  15.253   3.251
53185W        W24768  34.871  42.387  14.372
53186W        W24769  37.011  34.703  11.467
53187W        W24770  38.291  17.431   2.194
53188W        W24771  11.714  11.663   1.524
53189W        W24772  12.177   3.159  10.641
53190W        W24773   1.362  38.831  13.147
53191W        W24774  41.984  39.292  12.130
53192W        W24775  33.935  14.150  11.088
53193W        W24776  43.559  31.097  11.111
53194W        W24777  10.106  41.502   5.155
53195W        W24778  41.531  37.446   2.675
53196W        W24779  10.593  26.768  14.805
53197W        W24780  12.735   0.661  13.791
53198W        W24781  29.462  36.384  13.120
53199W        W24782  42.800   0.358  12.854
53200W        W24783  21.919  41.499  11.628
53201W        W24784   0.264  33.630  13.895
53202W        W24785  35.546  19.711   0.791
53203W        W24786  43.517   8.848  12.536
53204W        W24787  21.466  13.320   2.174
53205W        W24788  37.410  19.536  12.939
53206W        W24789  21.239  10.714  13.999
53207W        W24790  19.699  19.560   1.276
53208W        W24791   3.331  35.018   1.982
53209W        W24792   6.798  37.428  11.165
53210W        W24793   2.525  10.632  14.437
53211W        W24794  15.245  31.213   3.196
53212W        W24795  19.808  11.947  11.660
53213W        W24796  25.003  34.574  12.992
53214W        W24797   0.200  11.663   0.959
53215W        W24798  10.118  31.455  13.167
53216W        W24799   3.788  29.407  13.003
53217W        W24800   7.939  23.679  13.971
53218W        W24801   6.959  25.696  11.162
53219W        W24802   1.821  31.462   1.871
53220W        W24803  43.741  28.700  12.394
53221W        W24804  26.922   1.426  13.352
53222W        W24805  39.318  21.255  11.041
53223W        W24806  21.590  12.424   4.344
53224W        W24807  41.915  18.025   1.782
53225W        W24808  20.838  23.453  14.801
53226W        W24809  10.363  25.030   2.360
53227W        W24810  26.546  15.004   1.148
53228W        W24811   9.993  31.597   3.285
53229W        W24812   5.438  10.729   3.719
53230W        W24813  31.622  16.839  11.507
53231W        W24814  39.848  18.555  10.667
53232W        W24815   1.816   1.545   0.010
53233W        W24816  20.205  24.272   0.292
53234W        W24817  19.180  15.082  13.892
53235W        W24818  35.726  11.852  13.801
53236W        W24819  20.333   0.931  12.898
53237W        W24820  43.239   5.983  12.492
53238W        W24821   3.312  27.411   2.301
53239W        W24822  27.404   7.933   1.937
53240W        W24823  31.152  43.411  14.982
53241W        W24824  13.843  41.229   4.335
53242W        W24825  13.241   7.319  10.548
53243W        W24826  43.023   8.759  12.575
53244W        W24827  16.318  30.098   0.800
53245W        W24828  25.661  40.146   3.150
53246W        W24829   5.587  22.929   4.255
53247W        W24830  44.087  17.703   3.586
53248W        W24831  17.708   4.632  14.901
53249W        W24832  21.925  24.972  14.032
53250W        W24833  24.874  18.560   4.238
53251W        W24834  23.253  39.291  11.470
53252W        W24835  16.043   2.981   3.866
53253W        W24836  26.577   4.463   1.298
53254W        W24837   5.607   5.463   3.356
53255W        W24838  20.630  43.021  12.985
53256W        W24839  43.355  11.268   3.232
53257W        W24840  22.942  17.583   0.541
53258W        W24841  37.498  20.288  14.026
53259W        W24842  44.929   1.769   0.312
53260W        W24843   4.896  30.878  14.149
53261W        W24844  41.030  11.655  13.344
53262W        W24845   0.312  13.550  12.536
53263W        W24846  11.308   9.167   2.475
53264W        W24847  31.469  28.423  13.782
53265W        W24848  36.242  24.469  12.310
53266W        W24849  11.336  23.148  12.173
53267W        W24850   4.870   6.418  11.527
53268W        W24851  20.239  12.213   1.813
53269W        W24852   9.835  20.490  13.774
53270W        W24853  20.241  34.491   0.482
53271W        W24854  11.243  14.687   0.949
53272W        W24855  22.916   1.283  10.623
53273W        W24856  43.963   0.809  10.973
53274W        W24857  26.981  39.967  14.414
53275W        W24858  20.951  23.100   4.548
53276W        W24859  30.822   7.276   5.060
53277W        W24860   6.324   0.700   4.618
53278W        W24861  43.051  35.820   0.005
53279W        W24862  44.210  33.234  10.228
53280W        W24863  33.839  14.143  12.042
53281W        W24864  27.513  20.753  12.332
53282W        W24865  19.726  32.494  13.995
53283W        W24866  12.868  14.736  11.976
53284W        W24867  17.258  37.781  14.621
53285W        W24868  30.912   9.857   0.899
53286W        W24869   3.522  33.031   1.260
53287W        W24870   7.941  42.278  11.181
53288W        W24871  15.082  43.287  13.219
53289W        W24872  35.416  18.729  10.404
53290W        W24873  27.676  32.856  11.549
53291W        W24874  13.826  37.964  11.212
53292W        W24875   1.917   0.528   0.877
53293W        W24876  38.505  28.922   3.191
53294W        W24877  37.420  15.218  11.586
53295W        W24878  38.465  26.071  14.862
53296W        W24879  21.396  38.743   2.827
53297W        W24880   0.256   3.837   0.845
53298W        W24881   7.308  35.172   0.400
53299W        W24882  20.707  14.844   1.844
53300W        W24883  35.841  43.457  11.179
53301W        W24884  13.329  28.668   4.286
53302W        W24885  28.269  22.145  12.010
53303W        W24886  33.623  39.363  12.220
53304W        W24887  14.178  41.304   3.807
53305W        W24888   3.522  31.610   1.949
53306W        W24889  14.116   5.336  10.755
53307W        W24890  37.123   2.364  14.258
53308W        W24891  16.793  34.802   3.199
53309W        W24892  36.952  31.675   3.849
53310W        W24893  40.067  18.354  13.642
53311W        W24894  34.550  10.288  14.043
53312W        W24895  30.768  10.593  11.233
53313W        W24896  31.144  32.921   4.452
53314W        W24897   8.163  43.782   0.224
53315W        W24898  14.004   7.826  11.541
53316W        W24899  23.310   5.926   2.298
53317W        W24900  15.307   8.361  12.375
53318W        W24901   0.452  11.233  13.794
53319W        W24902  11.882  41.463   4.727
53320W        W24903   7.968   7.629  11.011
53321W        W24904  28.602  14.847  11.712
53322W        W24905  29.476  41.286   0.014
53323W        W24906  12.256  40.087   1.917
53324W        W24907  41.781   0.459   0.196
53325W        W24908  42.100  43.236  14.600
53326W        W24909  14.810  36.862   2.866
53327W        W24910  43.077   8.408  14.894
53328W        W24911  39.082  21.561  14.974
53329W        W24912   2.869  42.619   1.745
53330W        W24913  14.145  15.330   2.257
53331W        W24914   6.254   2.838  10.631
53332W        W24915  17.300  21.692  12.852
53333W        W24916  33.826  23.255  12.533
53334W        W24917  19.497  24.011  10.628
53335W        W24918  35.557   9.255   3.737
53336W        W24919   6.750  39.912   0.124
53337W        W24920   0.249  39.629   4.169
53338W        W24921   4.313   1.947  13.441
53339W        W24922  44.491  28.928  11.250
53340W        W24923  34.984  25.107  12.784
53341W        W24924  33.177   4.492  14.599
53342W        W24925  20.225  31.531  12.516
53343W        W24926  42.475  25.182  13.793
53344W        W24927  32.865  29.941  11.012
53345W        W24928  20.268  17.773  11.403
53346W        W24929   5.199  38.814  10.996
53347W        W24930  29.027  21.330  14.077
53348W        W24931  35.077  34.782   2.365
53349W        W24932   0.819  31.368   0.287
53350W        W24933  20.588  13.130   0.258
53351W        W24934  30.660  22.521   1.292
53352W        W24935  13.102  41.740   1.855
53353W        W24936  32.054   3.958   0.494
53354W        W24937  31.323   9.702   2.767
53355W        W24938   6.271  25.610  13.067
53356W        W24939  42.064  18.479  14.383
53357W        W24940   2.494  12.046  10.977
53358W        W24941  29.764  23.251  12.040
53359W        W24942  24.762  14.082   1.179
53360W        W24943  16.468   1.650  11.680
53361W        W24944  32.595   7.514  14.910
53362W        W24945  22.120  31.064   0.018
53363W        W24946  43.144  20.228   0.551
53364W        W24947  37.916  41.510   3.691
53365W        W24948   1.665  32.517  13.809
53366W        W24949  15.604   1.242   4.172
53367W        W24950  33.609   8.931   3.267
53368W        W24951  25.673   3.730  13.794
53369W        W24952  32.180  19.212   5.399
53370W        W24953   5.733  30.480   2.441
53371W        W24954   8.462  11.553  12.609
53372W        W24955  22.312  32.635   1.476
53373W        W24956  12.710  17.828  12.896
53374W        W24957   8.310  37.548   4.014
53375W        W24958  36.981  20.861   2.779
53376W        W24959   1.525  10.329  14.018
53377W        W24960  27.639   0.226   1.436
53378W        W24961  41.605   6.757  12.026
53379W        W24962   0.727  38.740   1.481
53380W        W24963  10.585  11.626   0.372
53381W        W24964  19.961   0.960   3.825
53382W        W24965  21.226  40.970   2.360
53383W        W24966   6.364  29.557   5.058
53384W        W24967   0.349  10.356   3.518
53385W        W24968  29.402  17.371  14.056
53386W        W24969  44.955  41.950   3.253
53387W        W24970  40.009  32.110  13.794
53388W        W24971  39.890  29.948   4.664
53389W        W24972  36.313   8.333   0.458
53390W        W24973  24.502   2.168  10.687
53391W        W24974  15.841  42.540  11.205
53392W        W24975  30.345  37.494   0.872
53393W        W24976  33.886  14.289   0.548
53394W        W24977  24.076  41.836   2.355
53395W        W24978  18.087  43.413  14.795
53396W        W24979  43.388  35.667  10.499
53397W        W24980  44.144  23.572   3.844
53398W        W24981  18.955  27.103  12.050
53399W        W24982  20.693   9.053  10.599
53400W        W24983  34.326  25.917  12.976
53401W        W24984   4.682  36.039   0.804
53402W        W24985  12.468  19.594  14.139
53403W        W24986  34.880  33.488   2.493
53404W        W24987  40.471   8.875  11.000
53405W        W24988   7.719  40.381   2.229
53406W        W24989   8.900   4.320  12.050
53407W        W24990   6.008   5.912  12.403
53408W        W24991  36.104   5.451   1.831
53409W        W24992  17.280  22.083  13.822
53410W        W24993   7.195  33.076  11.765
53411W        W24994  10.798   4.129  11.574
53412W        W24995  13.608   0.458   1.429
53413W        W24996  44.311   9.189  14.089
53414W        W24997  25.952  34.014   4.398
53415W        W24998  15.863  23.781  10.346
53416W        W24999  42.289  43.698   2.763
53417W        W25000  35.055  12.606  13.871
53418W        W25001  11.842  39.826  13.329
53419W        W25002  15.329  35.462   4.063
53420W        W25003   5.857  33.135  12.962
53421W        W25004  41.434  30.688   1.327
53422W        W25005  12.840  18.210  11.099
53423W        W25006  25.267  39.055   0.914
53424W        W25007   2.165  25.529   1.057
53425W        W25008  39.492  34.423  11.622
53426W        W25009  43.189  22.928   1.447
53427W        W25010  31.007  10.603  11.703
53428W        W25011  36.947  32.721  12.559
53429W        W25012  19.113   4.060  11.453
53430W        W25013  28.981  42.727   3.945
53431W        W25014   5.829  16.557  14.378
53432W        W25015  25.179  16.352  14.367
53433W        W25016   1.780  36.780   4.215
53434W        W25017   0.395  14.927  12.962
53435W        W25018  29.812  15.828   3.663
53436W        W25019  15.932   7.872  11.040
53437W        W25020   3.242  32.647  10.943
53438W        W25021  26.545  37.536  10.740
53439W        W25022   1.900  17.211   1.684
53440W        W25023   8.279  25.041   1.468
53441W        W25024   3.303   4.368   3.736
53442W        W25025   5.000  11.374   0.804
53443W        W25026  30.161  39.228   4.101
53444W        W25027  38.315  31.880   0.413
53445W        W25028  28.908  30.073  13.995
53446W        W25029  11.583  25.176  13.184
53447W        W25030  30.345  36.918  12.494
53448W        W25031  43.173  10.406  10.512
53449W        W25032   4.498   7.711  12.156
53450W        W25033  34.180  32.781  14.000
53451W        W25034  39.343  39.845  11.103
53452W        W25035   4.848  38.887  12.213
53453W        W25036  34.438   2.532  13.424
53454W        W25037   5.834  34.568   4.626
53455W        W25038   3.829  29.515   3.613
53456W        W25039  37.420  14.674   2.402
53457W        W25040  21.719  24.973  13.281
53458W        W25041  16.601  41.109   2.367
53459W        W25042  17.307   0.457   0.765
53460W        W25043  44.026  31.479   4.035
53461W        W25044  25.024  22.573  12.517
53462W        W25045  41.073  33.172   4.083
53463W        W25046  43.410  40.819   2.820
53464W        W25047  32.126  20.381   5.014
53465W        W25048  29.086  11.692  12.588
53466W        W25049  11.760  26.506  13.323
53467W        W25050  39.546  15.284  12.047
53468W        W25051  31.175   6.827  12.128
53469W        W25052  30.904   9.048  12.524
53470W        W25053   7.394   3.632  10.592
53471W        W25054  20.049  11.849   4.728
53472W        W25055  44.488  24.033   0.976
53473W        W25056  23.167  21.653  14.178
53474W        W25057  25.622  21.508   0.255
53475W        W25058   1.653  43.434   2.194
53476W        W25059  44.495  14.688   4.246
53477W        W25060  44.459  23.567  12.984
53478W        W25061  18.980  35.062  13.284
53479W        W25062  23.590   6.708  14.825
53480W        W25063  31.050  29.946   2.408
53481W        W25064  32.639  26.501  13.518
53482W        W25065   2.410  43.002  14.283
53483W        W25066   9.450  43.304  13.946
53484W        W25067  20.560  43.839  11.958
53485W        W25068   8.187  14.297   5.028
53486W        W25069  43.470  26.436   4.900
53487W        W25070  25.015  21.662  12.004
53488W        W25071  17.813   4.451   4.540
53489W        W25072  37.514  13.240  13.510
53490W        W25073  44.394  32.740   1.658
53491W        W25074  41.918  37.582  13.882
53492W        W25075  14.438   7.759  14.473
53493W        W25076  44.342  42.227  13.493
53494W        W25077  23.669  37.368  12.621
53495W        W25078  26.628  27.274  13.524
53496W        W25079  23.827  25.596  10.725
53497W        W25080  40.077  18.963   0.683
53498W        W25081  21.925   2.519  12.400
53499W        W25082  19.658  18.450  12.943
53500W        W25083  20.468   8.033  10.456
53501W        W25084   6.222  42.630  11.619
53502W        W25085  30.514   8.709   3.059
53503W        W25086   5.948  31.972  13.885
53504W        W25087  24.958  23.055   0.422
53505W        W25088  35.007  16.079   4.635
53506W        W25089  26.189  42.477   0.279
53507W        W25090  42.764  12.253   0.921
53508W        W25091   1.341  25.979  11.237
53509W        W25092   8.405  44.960   2.872
53510W        W25093  30.117  30.980   0.293
53511W        W25094  33.413  44.934  13.909
53512W        W25095  30.602   8.021  10.679
53513W        W25096   6.406   8.620   2.759
53514W        W25097  37.482   6.709  10.142
53515W        W25098   8.102  15.805   0.789
53516W        W25099  29.812  14.260  10.606
53517W        W25100  28.366  13.378   4.164
53518W        W25101  34.540  27.765   1.205
53519W        W25102  43.416  29.009  12.633
53520W        W25103  19.564  20.305   2.931
53521W        W25104  40.404  12.560  14.041
53522W        W25105  36.932   0.529  13.978
53523W        W25106  12.770   5.293   1.070
53524W        W25107  28.193   1.902   4.171
53525W        W25108  22.110  14.471   3.494
53526W        W25109   6.445  33.880   2.843
53527W        W25110  44.130  20.208   0.013
53528W        W25111  40.063  20.122   4.051
53529W        W25112  26.938  15.056   0.790
53530W        W25113   6.751   2.025   0.757
53531W        W25114   8.805  40.346  12.432
53532W        W25115  31.667  20.687   1.385
53533W        W25116   1.399  25.972   4.241
53534W        W25117  39.869  31.889  12.824
53535W        W25118  17.194  23.642   2.100
53536W        W25119  17.587  41.465   0.862
53537W        W25120  21.936  37.555   4.103
53538W        W25121   9.346  26.207  14.719
53539W        W25122  13.290  34.206  14.407
53540W        W25123  22.380   9.600  13.781
53541W        W25124  41.714  32.228  12.927
53542W        W25125  14.975   9.372   1.940
53543W        W25126  29.232   4.471   4.674
53544W        W25127  33.767   7.841  12.562
53545W        W25128  14.100  36.513   3.510
53546W        W25129  17.698   4.789   0.417
53547W        W25130  16.666  16.982   2.911
53548W        W25131  33.959  10.404   3.669
53549W        W25132  21.530  10.757  12.423
53550W        W25133  39.708  37.866  11.528
53551W        W25134   1.240  23.218   2.335
53552W        W25135  20.184  29.199   3.744
53553W        W25136  35.416   7.896  12.991
53554W        W25137   3.759  39.455  13.320
53555W        W25138  11.746  20.612   1.649
53556W        W25139   0.528  25.175  10.726
53557W        W25140  15.191  27.002  13.076
53558W        W25141  10.205  18.621  11.943
53559W        W25142   7.342  44.936   4.353
53560W        W25143   3.198  32.347   0.526
53561W        W25144   4.166   7.951  14.355
53562W        W25145  43.415  19.773   4.529
53563W        W25146   6.958  13.695   0.921
53564W        W25147   2.692  33.823  12.899
53565W        W25148  42.982  40.539   0.368
53566W        W25149  10.713   9.385  11.918
53567W        W25150  38.071  23.256  12.091
53568W        W25151  26.980  35.904  11.798
53569W        W25152   7.458  27.109   1.417
53570W        W25153  44.909   7.386  14.082
53571W        W25154  12.734   2.127  11.973
53572W        W25155  14.686   2.746   0.995
53573W        W25156  26.550  14.725  14.006
53574W        W25157  18.020   1.154   1.697
53575W        W25158  21.329  41.845  14.598
53576W        W25159  20.677   0.409   3.652
53577W        W25160  11.828   9.761   4.641
53578W        W25161  40.429  21.839   0.933
53579W        W25162  24.967  14.384  11.985
53580W        W25163  18.387  43.812   0.858
53581W        W25164  10.313  32.003   3.217
53582W        W25165  25.772  18.167  11.937
53583W        W25166  40.471   5.308   5.040
53584W        W25167  39.567  14.697  14.720
53585W        W25168  25.280  19.380   0.602
53586W        W25169  18.354  17.564  11.274
53587W        W25170  16.667   6.570  13.139
53588W        W25171  38.814   5.568  12.423
53589W        W25172  23.289  13.680  12.953
53590W        W25173  29.461   0.823   2.707
53591W        W25174  35.792  35.006   3.736
53592W        W25175  41.080  21.637   2.994
53593W        W25176   8.938  41.339   0.734
53594W        W25177  27.078  34.336   3.657
53595W        W25178  33.867  29.167   2.845
53596W        W25179   6.989  15.755  12.928
53597W        W25180  34.537  30.900  10.486
53598W        W25181   6.735  10.224   2.838
53599W        W25182  32.069   3.681   3.223
53600W        W25183  16.609   0.403  14.514
53601W        W25184  18.068   3.897   0.291
53602W        W25185  20.634  42.759  11.019
53603W        W25186  24.545   5.807  12.623
53604W        W25187  10.192  44.002  13.844
53605W        W25188  19.676   2.141  12.483
53606W        W25189  39.981  11.822   4.360
53607W        W25190  32.571   3.262   0.955
53608W        W25191   3.841  36.588  14.470
53609W        W25192  25.796  30.507   2.717
53610W        W25193  39.794  39.916  11.359
53611W        W25194  24.026   6.909  10.426
53612W        W25195  41.555  30.428   0.893
53613W        W25196   3.209  36.371   5.104
53614W        W25197  17.118  44.405   0.413
53615W        W25198   7.278   7.902  12.598
53616W        W25199  38.795   0.949   0.019
53617W        W25200  23.910   1.368  10.396
53618W        W25201  11.445  33.436   1.307
53619W        W25202  26.642  36.430   1.183
53620W        W25203  36.370  35.549  14.749
53621W        W25204  33.338  16.536  14.412
53622W        W25205   6.239  17.546   3.659
53623W        W25206  40.203  37.861   1.307
53624W        W25207   5.831  33.553  11.481
53625W        W25208   6.191  28.153  11.682
53626W        W25209  26.986  32.174   0.250
53627W        W25210  15.262  40.309   3.652
53628W        W25211  31.629   6.208   4.842
53629W        W25212  35.829  36.202   3.690
53630W        W25213   4.442  13.004  10.633
53631W        W25214  32.359  19.814  13.877
53632W        W25215  15.390   4.551   4.479
53633W        W25216  14.389  10.449  11.520
53634W        W25217  29.721  18.633   1.232
53635W        W25218  28.377  37.368   2.403
53636W        W25219  28.160   8.332  14.759
53637W        W25220  26.042   9.742   0.821
53638W        W25221  38.492   3.279   4.086
53639W        W25222  36.588  18.638   4.278
53640W        W25223  43.939   5.175   3.562
53641W        W25224  34.523  14.640  11.522
53642W        W25225  41.685   9.034  11.561
53643W        W25226  27.982   2.767   0.697
53644W        W25227  13.821  18.680  11.065
53645W        W25228  33.376  19.663  13.106
53646W        W25229  11.871  39.441   3.167
53647W        W25230  12.732  35.045  13.342
53648W        W25231  12.844  19.701  13.799
53649W        W25232   2.257  18.018   1.321
53650W        W25233  40.940  28.979   4.864
53651W        W25234  34.981   8.898   9.817
53652W        W25235  27.214  16.475  12.736
53653W        W25236  35.138  28.444  12.590
53654W        W25237  22.582   9.390  14.981
53655W        W25238  43.782  21.973   0.763
53656W        W25239  42.940  24.485   2.576
53657W        W25240  44.917   6.125  12.042
53658W        W25241   7.336   0.578  12.457
53659W        W25242   8.233  31.043   3.423
53660W        W25243  42.704  38.506  11.071
53661W        W25244   8.848  43.298   2.709
53662W        W25245   9.282  19.822   4.085
53663W        W25246  34.604  13.079  10.711
53664W        W25247   2.969  35.416   2.333
53665W        W25248  27.551   2.005   1.884
53666W        W25249   3.240  39.329  14.777
53667W        W25250   3.463  11.559  13.420
53668W        W25251  42.517  42.597  13.969
53669W        W25252  23.202  43.979   2.369
53670W        W25253  44.115  17.714  13.550
53671W        W25254   5.708  30.510   4.266
53672W        W25255   8.265  25.963  11.910
53673W        W25256   9.825  44.666   0.861
53674W        W25257  17.296  32.042  13.902
53675W        W25258  23.699  30.991  11.197
53676W        W25259  29.285  23.925  13.097
53677W        W25260  25.144  35.162   1.414
53678W        W25261  35.918  38.657   1.507
53679W        W25262  13.198  17.137  10.332
53680W        W25263  26.069  10.163   4.102
53681W        W25264  24.121  11.541  11.507
53682W        W25265  43.771  14.559   2.683
53683W        W25266   5.984  16.800   4.177
53684W        W25267  12.939  34.016  11.021
53685W        W25268  38.505  32.234   3.535
53686W        W25269  33.145  37.118   1.393
53687W        W25270  35.892  17.254   1.948
53688W        W25271   1.487  12.544  12.141
53689W        W25272   5.448  18.622   3.608
53690W        W25273  25.135  44.287   2.132
53691W        W25274  30.893  40.222   4.189
53692W        W25275  23.426  29.191  14.262
53693W        W25276  34.537  42.419   1.292
53694W        W25277   7.188  22.590   0.295
53695W        W25278  22.519  44.803  13.019
53696W        W25279  27.186   2.994  11.611
53697W        W25280  35.417   8.942   0.560
53698W        W25281  41.786  43.736   2.839
53699W        W25282  38.367   3.355  14.559
53700W        W25283  31.966  38.949  12.401
53701W        W25284  30.236  38.019   0.829
53702W        W25285   3.970  14.611   3.640
53703W        W25286  21.142  16.879  13.534
53704W        W25287  37.847  38.061  12.931
53705W        W25288  40.272  14.828   3.303
53706W        W25289  18.016  14.688   2.225
53707W        W25290   0.715  10.101   5.109
53708W        W25291  33.725   2.152   1.370
53709W        W25292  10.752  37.417  10.992
53710W        W25293  37.410  21.020  12.030
53711W        W25294  33.994  42.841   3.884
53712W        W25295  14.320  10.624  10.984
53713W        W25296  15.504   7.923   2.249
53714W        W25297   7.658  37.696  14.509
53715W        W25298   0.474  23.286  13.984
53716W        W25299  28.010  12.858   3.366
53717W        W25300  27.309   1.302  11.338
53718W        W25301  30.461  23.268  11.582
53719W        W25302  27.704  32.622   2.161
53720W        W25303   8.706  18.775   1.611
53721W        W25304  25.120  14.600  14.213
53722W        W25305  13.901  20.247  11.962
53723W        W25306  32.148  34.573   1.882
53724W        W25307   2.471  26.657  13.193
53725W        W25308  22.613  27.815  10.189
53726W        W25309  34.134  21.851  10.397
53727W        W25310  17.243  33.780   2.340
53728W        W25311   3.982  21.090  11.204
53729W        W25312  32.632  22.725  13.005
53730W        W25313   9.130  12.171  14.291
53731W        W25314  25.192  32.881   3.400
53732W        W25315  17.321   1.153   4.260
53733W        W25316  33.690  16.070   3.783
53734W        W25317  41.414   0.315   0.516
53735W        W25318  42.093   9.281  14.746
53736W        W25319  37.889   6.178  13.326
53737W        W25320  32.904   8.478  10.397
53738W        W25321  30.587  26.502   1.368
53739W        W25322   3.631  24.188  12.367
53740W        W25323  17.835  17.652  12.093
53741W        W25324  40.331  18.376   2.317
53742W        W25325  23.257  20.293  13.882
53743W        W25326  37.555  12.269   0.785
53744W        W25327  21.018  38.398   0.267
53745W        W25328  35.902   0.863   1.034
53746W        W25329   7.179  43.327  10.647
53747W        W25330  11.901  24.625  13.908
53748W        W25331  32.071  10.198  13.017
53749W        W25332  17.722  19.403   0.836
53750W        W25333  27.558  30.660  13.397
53751W        W25334  12.484  11.722   3.700
53752W        W25335   5.311  11.856  13.573
53753W        W25336  20.069   5.163   1.381
53754W        W25337  17.458  13.054   3.112
53755W        W25338  25.327  12.158  12.745
53756W        W25339  36.863  34.451   0.569
53757W        W25340  37.792   7.435   4.609
53758W        W25341  28.681  30.144   1.674
53759W        W25342   6.222  11.054  12.343
53760W        W25343   2.992  44.308   4.906
53761W        W25344  16.737  26.734   2.278
53762W        W25345  25.917  35.081  12.476
53763W        W25346  42.401   3.877  11.563
53764W        W25347  18.702  33.257   3.787
53765W        W25348  27.583  35.807  10.274
53766W        W25349  36.503  14.955   1.463
53767W        W25350  10.292  19.554   2.296
53768W        W25351  10.031  19.722  11.962
53769W        W25352  26.556  17.540   1.903
53770W        W25353  36.410   1.993   3.135
53771W        W25354  34.582   1.795   2.254
53772W        W25355  25.878  28.389   2.197
53773W        W25356  30.542  24.476  13.977
53774W        W25357   9.012  14.175  13.044
53775W        W25358  40.300  25.187  12.922
53776W        W25359  35.776  20.190   2.547
53777W        W25360  44.286   4.792   1.911
53778W        W25361   3.989  19.057  13.805
53779W        W25362  14.787  27.548   0.451
53780W        W25363  30.434   8.532   0.248
53781W        W25364  32.949   6.234   1.001
53782W        W25365  25.275  19.071   1.928
53783W        W25366  41.416  40.045   3.759
53784W        W25367  15.406  32.174   3.281
53785W        W25368  35.089  22.556   3.730
53786W        W25369   2.821   1.943   2.810
53787W        W25370   7.741   9.700  14.421
53788W        W25371   7.817  18.033  11.124
53789W        W25372  26.921  15.813   4.411
53790W        W25373   4.411  22.685  10.586
53791W        W25374  16.380  23.542   9.902
53792W        W25375  20.501  27.710   0.836
53793W        W25376  38.140  11.128   1.949
53794W        W25377  36.263  14.359   0.107
53795W        W25378  20.228  40.755  11.090
53796W        W25379  37.963  16.181   2.814
53797W        W25380  36.866  25.451   3.163
53798W        W25381  41.189   6.433  11.897
53799W        W25382   6.446  43.222   5.044
53800W        W25383  30.597  39.768  13.937
53801W        W25384   8.817  26.078   0.242
53802W        W25385  15.635  38.927  10.461
53803W        W25386  12.886  11.389  12.198
53804W        W25387   2.826  42.797  14.014
53805W        W25388   4.734  18.015  14.506
53806W        W25389  20.280  24.327   1.590
53807W        W25390  34.625  41.708   4.184
53808W        W25391  26.448  13.961   0.345
53809W        W25392   4.741   3.801   2.327
53810W        W25393  16.958  28.791   4.069
53811W        W25394  42.593  22.513  13.957
53812W        W25395  40.041  40.137  10.983
53813W        W25396  37.579  25.299  11.232
53814W        W25397  20.280  22.386   0.328
53815W        W25398  18.168  21.459   1.302
53816W        W25399   9.377  21.017   0.221
53817W        W25400  16.582  12.163   1.344
53818W        W25401  24.261  18.249  10.931
53819W        W25402  18.833   8.426   0.715
53820W        W25403  34.505  32.468   0.490
53821W        W25404  10.389  43.914   4.575
53822W        W25405   3.011  24.788   3.814
53823W        W25406  40.404   4.945  10.157
53824W        W25407  16.002  31.441  13.458
53825W        W25408  39.884  12.230  11.663
53826W        W25409  37.374  23.273  13.278
53827W        W25410  42.932   2.921  13.542
53828W        W25411  12.398  26.961   1.771
53829W        W25412  15.942  17.203   3.252
53830W        W25413  31.051  30.440   2.557
53831W        W25414   6.886  40.488   1.839
53832W        W25415  28.648   2.441  11.168
53833W        W25416  29.830  16.815  11.908
53834W        W25417   4.260  30.157   1.380
53835W        W25418  11.799  24.893   4.516
53836W        W25419  14.343  41.358  13.292
53837W        W25420  27.207  41.851  12.872
53838W        W25421  21.006  38.323   1.186
53839W        W25422   3.939  18.028  14.011
53840W        W25423  13.549  19.852   3.879
53841W        W25424   5.256  43.988  14.771
53842W        W25425  36.992  38.663   0.503
53843W        W25426  41.225  30.475  11.053
53844W        W25427  27.638  31.591  10.774
53845W        W25428  36.020  26.121  14.535
53846W        W25429  12.889  23.588   3.618
53847W        W25430   5.764  12.557   0.056
53848W        W25431  37.522  29.610  11.148
53849W        W25432  21.308  31.445  14.495
53850W        W25433  25.100  34.574   3.813
53851W        W25434   3.258  40.412   0.577
53852W        W25435  36.048  18.630  11.144
53853W        W25436  10.142  35.836   3.799
53854W        W25437  17.093  26.143   4.111
53855W        W25438  17.022  44.984  13.851
53856W        W25439  20.572  13.747  14.391
53857W        W25440   7.897  26.149   0.280
53858W        W25441  20.279  22.382  12.409
53859W        W25442   0.726  40.734  12.590
53860W        W25443   6.384  12.674   1.828
53861W        W25444   7.626  44.823  13.500
53862W        W25445   0.715  24.691  10.710
53863W        W25446  23.182  41.877   2.460
53864W        W25447  37.874  36.052  14.864
53865W        W25448   7.602  24.152   0.656
53866W        W25449  28.073  17.546  11.235
53867W        W25450  15.047  10.317  14.322
53868W        W25451   0.604  42.669   4.824
53869W        W25452  12.538   6.364   3.041
53870W        W25453  26.121  19.734   2.305
53871W        W25454  42.171  36.141  13.109
53872W        W25455  23.488  27.501   0.015
53873W        W25456  14.692  44.923   4.455
53874W        W25457  31.678   6.704  12.393
53875W        W25458  18.169   1.395  14.270
53876W        W25459  34.857  25.918   1.352
53877W        W25460  12.275  24.670   0.804
53878W        W25461   8.783  37.494  14.004
53879W        W25462  23.352  31.563   3.136
53880W        W25463  44.129  24.203  13.478
53881W        W25464  29.222  29.149  14.431
53882W        W25465   8.377  38.387  11.528
53883W        W25466  43.745   2.379   2.267
53884W        W25467  15.197  24.770  13.424
53885W        W25468  30.134  22.210  12.978
53886W        W25469  27.615  27.409  11.110
53887W        W25470  13.258   8.050  11.966
53888W        W25471  15.230   0.518   2.416
53889W        W25472  43.512  28.016   0.401
53890W        W25473   3.052  24.728  11.103
53891W        W25474  24.691  40.341  12.158
53892W        W25475   3.407  26.103  11.225
53893W        W25476   2.398   8.663  10.980
53894W        W25477   1.298  21.797   3.347
53895W        W25478   9.191   8.392  12.097
53896W        W25479   0.681   2.659   1.881
53897W        W25480  14.750  27.800  10.722
53898W        W25481  15.449  21.052   1.935
53899W        W25482  17.572  15.203  11.995
53900W        W25483  30.583  29.888   4.161
53901W        W25484   8.766  31.046  11.988
53902W        W25485  20.771  27.519  11.105
53903W        W25486  26.757  41.569   2.682
53904W        W25487  36.779  44.398   0.399
53905W        W25488  33.597  12.161   4.915
53906W        W25489  18.643  10.290   2.242
53907W        W25490  24.766  41.988  11.003
53908W        W25491  32.792  30.028   1.044
53909W        W25492  44.550  37.651  14.496
53910W        W25493  42.072   9.354   1.890
53911W        W25494  40.035  11.896  13.893
53912W        W25495  44.781   2.023   3.618
53913W        W25496   2.786   2.113   1.143
53914W        W25497   9.457  11.917  11.195
53915W        W25498  38.784  16.148   4.160
53916W        W25499  36.551  38.856  14.065
53917W        W25500   8.294  39.880   3.611
53918W        W25501  32.067  27.536  12.499
53919W        W25502  28.886   1.776  12.438
53920W        W25503   4.514  19.140   1.315
53921W        W25504   2.787   7.856  11.278
53922W        W25505  11.555  29.799   3.366
53923W        W25506  28.938   5.728   4.359
53924W        W25507   0.861  31.862   3.625
53925W        W25508  43.321  18.669  13.461
53926W        W25509  41.550  32.951  10.953
53927W        W25510  11.104  31.154   4.190
53928W        W25511   3.350  22.223   2.704
53929W        W25512  41.290  23.224  12.758
53930W        W25513   9.068  38.028   3.192
53931W        W25514  36.804  33.546   0.562
53932W        W25515   6.191   0.070  11.084
53933W        W25516   8.690  25.173   5.102
53934W        W25517   3.022  25.814  12.826
53935W        W25518  30.857  22.469  11.389
53936W        W25519   2.916  35.284   5.080
53937W        W25520  20.003  18.439  13.805
53938W        W25521  31.904  32.165  11.569
53939W        W25522  22.038  26.822  11.539
53940W        W25523  37.812   0.995  12.440
53941W        W25524   0.454  44.089  13.902
53942W        W25525  43.727  15.620   0.404
53943W        W25526   6.075  27.057  12.412
53944W        W25527  28.611   7.338   0.471
53945W        W25528  23.032  18.176   5.110
53946W        W25529  24.820  26.377  14.870
53947W        W25530  40.085  35.818   2.194
53948W        W25531  39.292  12.429  12.927
53949W        W25532   4.153  43.945  13.976
53950W        W25533  11.729  17.584  14.293
53951W        W25534  30.060   4.837   4.438
53952W        W25535  28.994  11.819  11.607
53953W        W25536  19.215   3.295  12.034
53954W        W25537   5.356   2.655   0.801
53955W        W25538   0.292  42.562   1.369
53956W        W25539  16.648  23.720  14.424
53957W        W25540  27.387  23.988   4.260
53958W        W25541  40.836  21.616  14.765
53959W        W25542   4.738  42.163   0.693
53960W        W25543  22.685  31.532   4.445
53961W        W25544  36.496   7.684   3.375
53962W        W25545  12.750  10.383   1.937
53963W        W25546   9.646   9.660   2.443
53964W        W25547  27.155  34.870   4.574
53965W        W25548  15.013  35.986   2.506
53966W        W25549  32.169  10.093  11.643
53967W        W25550  13.656  35.626  14.246
53968W        W25551  43.391  38.395   0.475
53969W        W25552  44.549  39.774  12.362
53970W        W25553   1.829   0.833   1.380
53971W        W25554  35.890  14.748   0.783
53972W        W25555  27.003  20.534  10.965
53973W        W25556   8.807   2.017   2.631
53974W        W25557   5.303  25.737   1.232
53975W        W25558  18.646  33.871   1.167
53976W        W25559   0.340  13.134   1.239
53977W        W25560  20.117  15.033  14.306
53978W        W25561  31.586   0.042   1.679
53979W        W25562   6.817   6.362  11.516
53980W        W25563  35.898   1.902   2.880
53981W        W25564   6.341  25.678   0.894
53982W        W25565  18.163  35.872   3.669
53983W        W25566  18.494  14.634   0.409
53984W        W25567  41.005   8.119  11.508
53985W        W25568  18.666  36.896  11.616
53986W        W25569  43.253  14.378   4.115
53987W        W25570  15.263  37.121  10.928
53988W        W25571  19.608   5.722  13.526
53989W        W25572  40.578  26.188   3.650
53990W        W25573  30.536  11.780   4.474
53991W        W25574  15.952   2.440   3.806
53992W        W25575  23.608   2.437  13.963
53993W        W25576  20.313   9.175   0.923
53994W        W25577  32.625  40.107  14.028
53995W        W25578  39.004  43.542  10.336
53996W        W25579  23.664  41.174   2.929
53997W        W25580   9.266  19.655   2.322
53998W        W25581  34.905  15.537   2.244
53999W        W25582   5.131  31.108  12.446
54000W        W25583  16.070  21.538  14.979
54001W        W25584  16.664  13.255   4.801
54002W        W25585  35.877   3.909  13.013
54003W        W25586  42.939  14.364   1.263
54004W        W25587  28.333  12.790   2.524
54005W        W25588  44.953  38.878  10.978
54006W        W25589   5.658  20.042   3.864
54007W        W25590  18.546   5.039   4.085
54008W        W25591  14.878  31.039   4.177
54009W        W25592  21.479  23.102   4.616
54010W        W25593  29.170  20.446  11.181
54011W        W25594  36.026  32.114   2.821
54012W        W25595  12.951  15.207  12.186
54013W        W25596   9.393  42.645  10.332
54014W        W25597  37.287  14.439   0.294
54015W        W25598   3.863   2.574  12.493
54016W        W25599  11.736  23.569   1.803
54017W        W25600  17.194  36.905   4.984
54018W        W25601  40.028   6.399  14.581
54019W        W25602  11.082  16.171  13.158
54020W        W25603  10.767  13.236   2.548
54021W        W25604  18.131   4.336   1.995
54022W        W25605  28.017  39.054  13.587
54023W        W25606  15.401  41.435   3.504
54024W        W25607  12.037   2.713   3.530
54025W        W25608   8.141  38.950   0.158
54026W        W25609  11.728  29.885   0.849
54027W        W25610   2.238  39.686  11.325
54028W        W25611  22.544  16.803   4.309
54029W        W25612  29.971  37.314  12.439
54030W        W25613  21.712  33.414  12.482
54031W        W25614   7.132  27.476  13.250
54032W        W25615  38.119  12.376  13.527
54033W        W25616  41.942  25.601   4.311
54034W        W25617   7.864  42.450  12.470
54035W        W25618  43.902  29.078  10.125
54036W        W25619  10.005  10.118  13.238
54037W        W25620  40.968  20.489   1.898
54038W        W25621  34.218  44.356  11.562
54039W        W25622  22.943   2.400  12.393
54040W        W25623   6.650   1.379   3.304
54041W        W25624  14.867  25.458  10.665
54042W        W25625  30.021  39.308  13.382
54043W        W25626  18.088  11.699  14.821
54044W        W25627  30.541   4.993  10.369
54045W        W25628  18.685  31.831   0.782
54046W        W25629  13.673  21.333   1.732
54047W        W25630  21.762  14.281  12.443
54048W        W25631  43.170   3.526   4.073
54049W        W25632  10.326  39.872  13.502
54050W        W25633   2.635  12.205   3.074
54051W        W25634  16.312   9.767   3.601
54052W        W25635  44.427  44.240   0.701
54053W        W25636  34.894  37.492   4.103
54054W        W25637  38.320  11.181   0.080
54055W        W25638  34.905  19.303   4.621
54056W        W25639  22.815  42.986  14.932
54057W        W25640  33.463  35.538  12.214
54058W        W25641   1.077  28.465   2.624
54059W        W25642  34.927  39.484  11.668
54060W        W25643  42.287  40.584  11.761
54061W        W25644  29.165  28.128   3.175
54062W        W25645  24.647  36.485   4.167
54063W        W25646  25.609   5.373   4.640
54064W        W25647  11.686  16.290  10.153
54065W        W25648   5.334  31.599  13.580
54066W        W25649  20.251  22.918  12.499
54067W        W25650  31.623  31.499   1.424
54068W        W25651  29.932   1.067   2.813
54069W        W25652  14.958  40.904  11.647
54070W        W25653   7.698   4.951  12.891
54071W        W25654  14.923   9.216   0.792
54072W        W25655   4.262  22.458   1.183
54073W        W25656  32.554   3.492   4.684
54074W        W25657  21.912   8.774   3.610
54075W        W25658  22.509  21.770   3.620
54076W        W25659  42.188  26.914  11.959
54077W        W25660  36.387  18.574   1.685
54078W        W25661  11.611  43.111  13.516
54079W        W25662  39.328  32.518   3.240
54080W        W25663  40.433  35.485  11.604
54081W        W25664  13.202  44.028  11.390
54082W        W25665  10.781  33.810  13.594
54083W        W25666   1.132  43.252  13.938
54084W        W25667  15.690  12.765  12.582
54085W        W25668  27.513  11.869   2.166
54086W        W25669  32.906   6.953   3.788
54087W        W25670  44.691  33.622   0.624
54088W        W25671  41.301  33.931  11.618
54089W        W25672  29.479  33.108  13.341
54090W        W25673  32.577  34.484   4.112
54091W        W25674  13.431  14.169   0.602
54092W        W25675  14.091  27.559   3.295
54093W        W25676  36.479  24.184  11.985
54094W        W25677   5.298  28.406   4.412
54095W        W25678   9.692  39.462  12.916
54096W        W25679   4.974  25.055   0.259
54097W        W25680  28.125  40.599  14.934
54098W        W25681   3.292  30.975  12.861
54099W        W25682   6.278   5.662   3.777
54100W        W25683   1.035  13.217  13.753
54101W        W25684  28.477  29.072  10.269
54102W        W25685  37.020  13.736   4.290
54103W        W25686  30.700  12.221   2.647
54104W        W25687  17.715  37.042   4.120
54105W        W25688  10.913   7.743  14.605
54106W        W25689  30.183  36.450   3.648
54107W        W25690  43.687  28.581   1.429
54108W        W25691  42.763   4.704  13.042
54109W        W25692   7.827   8.132   1.854
54110W        W25693  23.251  26.783  10.965
54111W        W25694   1.989  26.351  10.997
54112W        W25695  29.681  14.864  12.326
54113W        W25696  38.087  19.920   1.226
54114W        W25697  20.935  37.606  13.820
54115W        W25698  22.632  13.444   2.011
54116W        W25699  21.040   8.509   2.571
54117W        W25700  16.598  35.059   0.539
54118W        W25701   3.817  17.850   2.320
54119W        W25702  27.225  38.806  11.555
54120W        W25703  24.548  31.644  12.034
54121W        W25704  29.414  39.465   3.706
54122W        W25705   8.182   3.449  14.825
54123W        W25706  32.677  41.800  14.445
54124W        W25707  43.474  18.629  12.478
54125W        W25708  20.290  19.432  14.036
54126W        W25709  29.430  44.029  14.325
54127W        W25710  39.191  17.576   0.715
54128W        W25711  39.983   9.914   1.473
54129W        W25712   3.851  21.195   4.066
54130W        W25713  35.072  32.117  14.806
54131W        W25714  33.102  38.789   1.064
54132W        W25715  23.312  40.582  13.129
54133W        W25716   4.134  43.242   0.266
54134W        W25717  32.482  24.696   0.454
54135W        W25718  37.510  42.032   4.058
54136W        W25719   3.857   3.413  10.691
54137W        W25720  20.810   7.213   4.212
54138W        W25721  36.884  15.098  12.262
54139W        W25722  18.715  17.536  10.630
54140W        W25723  28.603  20.429  13.023
54141W        W25724  25.476  26.866  11.092
54142W        W25725  20.490  33.091   3.704
54143W        W25726   0.835  17.348  12.623
54144W        W25727   4.888  30.440   2.783
54145W        W25728  12.223  29.859   0.523
54146W        W25729  41.776   3.486   2.847
54147W        W25730  19.230  11.722  13.320
54148W        W25731  20.023  38.854   0.984
54149W        W25732  42.068  14.891  11.602
54150W        W25733  36.615  25.587  14.882
54151W        W25734  17.337   5.468  11.210
54152W        W25735  44.393  24.725  14.786
54153W        W25736   8.265  26.621  10.946
54154W        W25737   1.025  34.975  12.256
54155W        W25738  34.978  43.181  10.175
54156W        W25739  43.812  24.716  13.056
54157W        W25740   2.890  28.764   2.657
54158W        W25741  23.026   1.415   1.382
54159W        W25742  37.938  27.075  14.569
54160W        W25743  14.168  41.003  14.550
54161W        W25744  41.331   0.180  14.210
54162W        W25745  38.450  20.773  14.145
54163W        W25746  11.929  30.088  11.770
54164W        W25747   4.711  38.372  13.507
54165W        W25748  29.701  19.958  11.581
54166W        W25749  13.708  11.759  11.248
54167W        W25750  44.967  28.945   0.406
54168W        W25751  12.452  38.524   1.690
54169W        W25752  42.766   7.262   1.443
54170W        W25753  33.777   0.268  11.709
54171W        W25754  41.061  39.970  14.859
54172W        W25755   3.583  13.645  12.031
54173W        W25756  15.150  29.690   3.317
54174W        W25757  18.856  36.645   1.347
54175W        W25758  17.145   8.709  10.726
54176W        W25759   7.517  18.253  14.791
54177W        W25760  23.678  31.377   3.820
54178W        W25761  40.281   4.842  11.213
54179W        W25762  19.554  42.002   0.255
54180W        W25763   5.364  42.217  14.608
54181W        W25764   4.213  17.306  10.703
54182W        W25765  10.812  28.122  13.528
54183W        W25766  28.108  14.431  13.061
54184W        W25767  10.320  19.196   2.703
54185W        W25768  43.436  18.064  14.188
54186W        W25769  33.982  35.474  10.788
54187W        W25770   2.030  26.767  11.965
54188W        W25771  29.267  26.991   2.248
54189W        W25772  40.312   4.115  13.481
54190W        W25773  42.875  43.671  11.435
54191W        W25774   0.308  39.455   2.389
54192W        W25775  30.080  33.426   5.451
54193W        W25776   6.006  28.523   2.627
54194W        W25777  13.315  27.760  10.689
54195W        W25778  37.042  14.187   0.722
54196W        W25779  16.759  43.491  14.274
54197W        W25780  15.251  42.130  14.994
54198W        W25781   1.827  24.051  10.970
54199W        W25782  21.934  36.888   3.643
54200W        W25783  44.051  22.558  10.590
54201W        W25784  40.367   6.366   5.517
54202W        W25785  19.794   1.897   4.211
54203W        W25786  40.909   2.521   3.792
54204W        W25787  14.309  29.963  12.505
54205W        W25788   0.331   8.607  14.271
54206W        W25789  13.660   9.270   3.839
54207W        W25790  44.029  28.053  12.926
54208W        W25791  13.401  20.354  14.717
54209W        W25792  25.280   8.845  12.452
54210W        W25793  43.247  21.090  13.778
54211W        W25794  22.495  24.144  14.039
54212W        W25795  17.809  22.997  10.672
54213W        W25796  15.360  43.471  12.317
54214W        W25797   2.878   9.744  11.205
54215W        W25798  39.624   7.810  10.603
54216W        W25799   7.698  15.827   2.719
54217W        W25800  35.459  36.517   4.513
54218W        W25801   7.813   4.237   4.697
54219W        W25802   8.884  42.342  11.030
54220W        W25803  28.425   1.334   0.211
54221W        W25804  24.315   5.839   3.099
54222W        W25805  15.760  23.242  12.348
54223W        W25806   2.433  16.459  12.394
54224W        W25807  34.151  30.427  13.408
54225W        W25808  25.341  31.614   2.179
54226W        W25809  19.664  12.463  10.822
54227W        W25810  38.011  23.413   3.729
54228W        W25811  12.954  10.768  11.796
54229W        W25812  12.517  12.670   0.446
54230W        W25813   6.331  31.847   3.402
54231W        W25814   1.715   3.746   2.073
54232W        W25815  42.761  17.703   2.858
54233W        W25816  24.820  14.735  11.637
54234W        W25817  29.097  37.572  13.506
54235W        W25818  32.142  43.077   4.244
54236W        W25819  26.776  37.297   1.475
54237W        W25820  26.003   9.551  11.978
54238W        W25821  16.248  38.171  10.805
54239W        W25822  33.387  28.985  11.530
54240W        W25823  25.825  39.077   4.702
54241W        W25824  22.066  26.961  12.524
54242W        W25825   2.689   6.844  12.466
54243W        W25826  42.079  37.411  11.086
54244W        W25827  26.610  19.017   2.296
54245W        W25828   0.405   6.282  12.155
54246W        W25829  42.828  30.427   4.547
54247W        W25830  39.950   6.573  10.812
54248W        W25831  33.143  42.840  11.107
54249W        W25832  13.698   2.386   4.903
54250W        W25833   7.911  35.555  13.533
54251W        W25834  18.928  31.850   3.113
54252W        W25835  37.630  16.201   4.564
54253W        W25836  37.572  37.332   0.182
54254W        W25837  30.288  39.261   3.380
54255W        W25838  32.812  41.946  10.809
54256W        W25839  36.813  23.580   0.470
54257W        W25840  44.595  20.743  11.421
54258W        W25841  18.667  11.938  12.520
54259W        W25842  28.159   4.004  14.958
54260W        W25843  32.893  16.576  11.500
54261W        W25844   5.725  13.485   3.457
54262W        W25845   8.844  23.285  13.068
54263W        W25846   0.070  11.358   4.201
54264W        W25847  26.921  28.484  11.197
54265W        W25848   1.588  12.084  11.923
54266W        W25849  33.840  24.117  12.979
54267W        W25850   3.680  38.894   3.973
54268W        W25851  17.905  42.010   3.318
54269W        W25852  27.027  28.184   3.265
54270W        W25853   8.440   7.420   3.630
54271W        W25854  31.063  24.119   4.301
54272W        W25855  42.577  10.688   4.298
54273W        W25856  37.270  19.062   2.703
54274W        W25857  28.104   2.499  14.727
54275W        W25858  38.419  38.463  13.816
54276W        W25859  24.607   5.989   0.959
54277W        W25860   4.616  11.493   4.543
54278W        W25861  44.234  35.075   2.750
54279W        W25862  12.713  44.443   4.535
54280W        W25863  39.285  35.507   0.778
54281W        W25864  39.756  16.389  13.800
54282W        W25865   7.895  37.280   0.003
54283W        W25866  33.895  26.042   3.730
54284W        W25867  19.413  43.437   4.269
54285W        W25868  23.403  25.911  12.050
54286W        W25869  18.528   0.743   4.129
54287W        W25870  19.922  19.187   2.183
54288W        W25871  35.083  39.029  11.479
54289W        W25872  33.965  39.092  14.712
54290W        W25873  43.446  26.728   1.767
54291W        W25874  14.699  26.945   0.754
54292W        W25875  43.458  28.719   4.222
54293W        W25876   3.332   1.137   0.759
54294W        W25877  15.734  34.890   2.229
54295W        W25878  15.236  29.157  10.799
54296W        W25879   0.231  12.760   3.192
54297W        W25880  35.292  30.441   0.233
54298W        W25881   7.041   4.335  11.264
54299W        W25882  40.346  30.269   5.050
54300W        W25883  26.745  35.933   2.378
54301W        W25884   1.434   2.772  11.567
54302W        W25885  17.812   9.847  14.418
54303W        W25886  19.760  23.807  11.175
54304W        W25887  12.868  30.582  11.129
54305W        W25888  19.657  44.329   0.466
54306W        W25889  39.766   5.228  14.642
54307W        W25890  28.485   2.750   2.444
54308W        W25891  12.544  25.473  13.320
54309W        W25892   2.825  36.415   0.993
54310W        W25893  12.137  24.600  13.397
54311W        W25894   6.332  44.302   3.104
54312W        W25895  23.531  33.566   0.353
54313W        W25896  38.358   5.539  14.183
54314W        W25897  43.358  23.850  12.422
54315W        W25898  30.343   5.035   1.710
54316W        W25899  30.898   3.372   9.782
54317W        W25900  44.888  12.653   4.049
54318W        W25901  26.143   1.647   1.670
54319W        W25902  23.593  36.279   3.139
54320W        W25903  14.031  27.726  12.480
54321W        W25904  30.613  31.780   0.315
54322W        W25905  34.984  24.764  12.119
54323W        W25906   5.453  32.239   0.364
54324W        W25907  37.600  44.251  13.566
54325W        W25908   6.913  35.846  11.973
54326W        W25909  18.250  22.805   0.360
54327W        W25910  23.947  29.913  13.962
54328W        W25911  20.964  28.033   2.992
54329W        W25912  20.685   8.124   2.716
54330W        W25913  33.929  33.720  10.710
54331W        W25914  38.252   7.818  12.916
54332W        W25915  42.777  41.425  12.927
54333W        W25916  28.417  33.198  12.010
54334W        W25917  28.945  30.113   0.398
54335W        W25918  41.319  39.858  13.421
54336W        W25919  14.812   3.049  12.372
54337W        W25920  36.539  27.647  13.771
54338W        W25921  17.804  20.557  12.837
54339W        W25922  27.635  41.827  12.478
54340W        W25923  17.903  32.575  11.148
54341W        W25924   9.634  34.927   2.209
54342W        W25925  10.132  15.599  13.457
54343W        W25926  37.003   7.951  14.214
54344W        W25927  25.877  10.627   3.968
54345W        W25928  26.004  24.025  14.436
54346W        W25929  41.394   7.886  14.929
54347W        W25930  30.453  35.923  14.966
54348W        W25931  38.604  40.789   0.286
54349W        W25932  22.265  17.716  14.728
54350W        W25933  11.593  44.735  10.657
54351W        W25934  44.154  14.920  10.341
54352W        W25935  26.666  30.596  11.907
54353W        W25936  27.733  24.299   0.312
54354W        W25937  14.608   5.775  11.383
54355W        W25938  31.705  33.545  11.123
54356W        W25939  19.195  27.466  11.752
54357W        W25940  15.744  30.276  14.766
54358W        W25941  23.102   3.340  13.940
54359W        W25942   9.179  38.393  14.588
54360W        W25943  20.283  41.527  14.799
54361W        W25944  16.301  14.222   3.749
54362W        W25945  41.510   5.627  13.239
54363W        W25946  37.011  43.474   2.684
54364W        W25947  40.364  34.009   3.358
54365W        W25948  28.689  18.206   0.849
54366W        W25949  18.240  44.861  14.529
54367W        W25950  14.527  10.914  12.365
54368W        W25951  32.889  41.088  11.483
54369W        W25952  20.994  41.432   2.333
54370W        W25953  32.439  36.577   0.963
54371W        W25954  42.160  34.541   4.731
54372W        W25955  29.451  13.865  12.380
54373W        W25956  23.584   9.587   4.792
54374W        W25957  22.403  28.502   2.944
54375W        W25958  10.052  30.254   2.974
54376W        W25959  14.128  11.811  10.663
54377W        W25960  35.116   7.731  14.907
54378W        W25961  22.993   5.240  14.750
54379W        W25962  38.416  11.693  12.465
54380W        W25963  44.787  37.999   1.951
54381W        W25964   9.290   0.924  14.766
54382W        W25965  19.468  19.992   1.097
54383W        W25966   5.614   0.963   1.383
54384W        W25967  10.626  29.122   5.017
54385W        W25968   4.148  29.098   2.925
54386W        W25969  33.581  25.583  10.812
54387W        W25970  36.910  10.208  14.957
54388W        W25971   8.246  32.387  13.713
54389W        W25972  18.639  28.016   2.886
54390W        W25973  28.286  34.204   0.798
54391W        W25974  19.016   9.586  14.496
54392W        W25975  23.767  23.029   2.273
54393W        W25976  32.574  38.023  11.112
54394W        W25977   9.877  41.754   4.209
54395W        W25978  32.556  44.900   2.815
54396W        W25979   4.467  33.455   4.537
54397W        W25980  29.447   4.450   0.485
54398W        W25981  40.966   4.749  12.468
54399W        W25982   1.313  41.036  14.389
54400W        W25983  23.958  21.088  12.983
54401W        W25984  24.705  14.967  12.518
54402W        W25985  15.364  44.783   2.721
54403W        W25986  38.681  40.799   3.749
54404W        W25987  30.998  41.328  10.680
54405W        W25988  16.485  11.876  14.025
54406W        W25989  21.754  12.634  13.046
54407W        W25990  40.776  18.670   2.418
54408W        W25991   9.782  38.530  11.357
54409W        W25992  37.284  24.695   3.472
54410W        W25993  27.989  36.618   3.388
54411W        W25994  29.219   3.896   2.908
54412W        W25995  13.924   6.930  12.455
54413W        W25996  12.159  14.663   1.187
54414W        W25997  29.634  43.300  13.446
54415W        W25998  18.375  29.202   4.119
54416W        W25999   5.787  22.452   1.530
54417W        W26000  31.863   5.372  12.075
54418W        W26001  10.895  25.260  14.861
54419W        W26002  13.878   6.395  13.824
54420W        W26003  41.708  39.441  11.199
54421W        W26004  38.850   3.415  14.406
54422W        W26005  27.776  14.487   2.770
54423W        W26006   6.244   0.173   3.789
54424W        W26007   7.697   6.370  12.004
54425W        W26008   0.857  19.252  14.243
54426W        W26009  31.120   1.284   0.344
54427W        W26010   6.797   4.518  13.110
54428W        W26011  10.633  15.160  11.570
54429W        W26012  23.287  23.678  13.091
54430W        W26013  24.524  17.187   3.254
54431W        W26014  14.701  30.056   0.454
54432W        W26015  38.943  15.538  14.884
54433W        W26016  34.642   3.628   4.543
54434W        W26017  38.550   7.691   3.338
54435W        W26018  38.596  22.164   2.561
54436W        W26019  21.119   2.955   3.776
54437W        W26020  30.130   0.753  13.890
54438W        W26021  41.243   9.602  14.360
54439W        W26022  27.195  43.341   2.414
54440W        W26023  42.331  41.524  13.862
54441W        W26024  29.491   3.007  11.863
54442W        W26025  13.087  40.854  12.498
54443W        W26026  32.705  21.483   4.213
54444W        W26027  28.052   7.462   2.940
54445W        W26028  37.834  27.946   0.690
54446W        W26029  42.176  38.603   4.198
54447W        W26030  31.939  12.763  11.415
54448W        W26031  31.674   8.905  13.022
54449W        W26032  23.517  15.579   2.328
54450W        W26033  40.857  19.766   1.302
54451W        W26034  26.291  27.428  14.831
54452W        W26035   9.256   5.751   0.273
54453W        W26036  24.584  34.843  14.895
54454W        W26037  21.693  37.106   3.205
54455W        W26038   9.145  12.488  12.496
54456W        W26039   8.651  40.757  13.431
54457W        W26040   0.891  16.775   3.595
54458W        W26041  19.991  38.849  11.663
54459W        W26042  15.754   9.146  11.598
54460W        W26043  19.696  23.098  13.364
54461W        W26044  40.666  37.381  11.263
54462W        W26045  30.746  21.439  10.202
54463W        W26046  25.122  24.603   5.031
54464W        W26047  35.804  36.836  11.057
54465W        W26048  44.297  37.317  11.137
54466W        W26049  29.837  21.099   0.475
54467W        W26050  19.116  43.312  13.750
54468W        W26051   6.610   2.206  14.532
54469W        W26052  16.203   8.057  13.336
54470W        W26053  31.024  32.721  11.077
54471W        W26054  30.635  10.395   3.175
54472W        W26055  36.498   2.172  14.841
54473W        W26056   4.862   7.642  14.853
54474W        W26057   5.235  35.120  14.850
54475W        W26058  40.600  22.014  14.524
54476W        W26059  15.181  27.288   1.786
54477W        W26060  15.724  28.152   4.772
54478W        W26061  10.835  16.475  10.641
54479W        W26062  10.647  32.885  14.504
54480W        W26063   3.052  23.518  14.888
54481W        W26064   4.651   1.533  13.492
54482W        W26065  28.996  41.050   0.023
54483W        W26066  39.619  12.680  11.644
54484W        W26067  11.644  42.704   1.281
54485W        W26068  43.432  14.199   4.991
54486W        W26069  35.495  25.495   1.649
54487W        W26070  19.672  20.411   1.318
54488W        W26071  11.733  23.963  10.364
54489W        W26072  10.602   9.335   4.904
54490W        W26073  40.236  25.417  11.718
54491W        W26074  30.384  18.884  12.430
54492W        W26075  24.726  33.797  12.468
54493W        W26076  12.099   0.280  12.382
54494W        W26077   0.379  30.169   1.444
54495W        W26078  36.354  43.012  13.988
54496W        W26079  13.769   9.726  14.008
54497W        W26080  35.871   3.245   1.799
54498W        W26081   7.279  22.807   3.413
54499W        W26082  44.943  15.632   3.401
54500W        W26083   7.779   9.095  14.588
54501W        W26084  43.482  18.608   1.935
54502W        W26085  17.970  30.941  14.948
54503W        W26086  41.776  40.311  13.450
54504W        W26087  23.016  11.681   3.383
54505W        W26088  12.808  18.962   2.137
54506W        W26089   7.653   6.861   4.583
54507W        W26090  36.485  42.553  11.002
54508W        W26091  39.163  12.315   4.278
54509W        W26092   1.485  42.697  12.732
54510W        W26093  14.268   3.942  13.821
54511W        W26094   2.289   7.773  13.239
54512W        W26095  30.273  34.901   1.939
54513W        W26096   9.363  27.891  14.334
54514W        W26097  36.476  35.089   0.356
54515W        W26098  40.339   7.223   0.504
54516W        W26099  24.141   8.796  14.327
54517W        W26100  27.467   7.481   1.644
54518W        W26101   7.389  14.478  14.489
54519W        W26102  13.693  13.727   3.851
54520W        W26103  20.796  21.102   4.742
54521W        W26104   3.747  44.920  14.837
54522W        W26105  37.537  38.401  12.145
54523W        W26106  35.415   9.276  11.428
54524W        W26107  37.399   9.646   4.941
54525W        W26108   3.279  19.153  14.357
54526W        W26109  14.775  37.581   4.181
54527W        W26110  40.877  15.226  10.884
54528W        W26111   2.598  31.733  13.335
54529W        W26112  29.352   9.889   0.788
54530W        W26113  24.420  31.933  11.409
54531W        W26114  14.415   7.828   3.352
54532W        W26115   8.147  12.260  14.933
54533W        W26116  22.712  20.780  14.947
54534W        W26117  38.730  43.908  10.655
54535W        W26118  29.396  23.235   0.018
54536W        W26119   6.232  44.385   1.153
54537W        W26120  42.812   5.113   1.327
54538W        W26121  21.811  42.397   1.183
54539W        W26122  43.294   1.378  10.682
54540W        W26123  39.277  30.103   1.203
54541W        W26124  19.789  38.383   0.866
54542W        W26125  14.667  23.170  11.173
54543W        W26126  12.249   0.209   3.606
54544W        W26127  41.203  16.692   0.512
54545W        W26128   1.207  11.623   0.922
54546W        W26129  24.729  22.588  13.875
54547W        W26130  43.533  43.139   2.856
54548W        W26131   1.953  15.201   4.967
54549W        W26132  32.405  14.671   3.991
54550W        W26133   1.512  22.415  12.684
54551W        W26134  43.309   5.783   3.972
54552W        W26135  31.142  23.770   1.726
54553W        W26136  35.756   7.053  12.088
54554W        W26137  21.463  27.424   4.512
54555W        W26138   4.494  13.308  14.857
54556W        W26139  33.435  30.432   4.134
54557W        W26140   1.739  29.058   4.439
54558W        W26141  13.089  36.957  12.419
54559W        W26142   4.056   5.874  13.068
54560W        W26143  43.473  18.740  14.949
54561W        W26144  34.411  22.607  11.063
54562W        W26145  43.674  18.747   3.665
54563W        W26146  23.764   4.390   2.804
54564W        W26147  20.298   3.386  11.254
54565W        W26148  35.715  42.408  14.714
54566W        W26149  28.424  34.530   2.814
54567W        W26150  24.457  32.574  12.829
54568W        W26151   6.415   7.350  11.107
54569W        W26152  34.661  22.150  10.934
54570W        W26153  28.895  22.701   5.033
54571W        W26154   8.961   4.722   1.945
54572W        W26155  39.570  12.664   0.372
54573W        W26156   3.868  40.890  13.943
54574W        W26157  22.750   1.761  10.740
54575W        W26158  38.049  13.879  14.781
54576W        W26159  43.698  35.097  12.379
54577W        W26160   5.629  38.947  10.771
54578W        W26161   4.596  39.211   3.174
54579W        W26162   9.846  22.633   3.816
54580W        W26163  22.451  16.152  11.579
54581W        W26164   4.987  34.969  11.613
54582W        W26165  18.754   6.425   3.589
54583W        W26166   0.402  29.604   3.239
54584W        W26167  37.993  30.500  13.949
54585W        W26168  39.894   6.780  11.266
54586W        W26169  25.534  42.084   4.457
54587W        W26170  34.928  40.446   3.705
54588W        W26171  32.981  10.661   1.374
54589W        W26172   5.877   7.201  14.867
54590W        W26173  11.858  44.720  11.880
54591W        W26174   4.251  32.896   2.886
54592W        W26175  40.009  10.118   3.440
54593W        W26176  35.589  15.257   0.404
54594W        W26177  13.510  35.913   2.903
54595W        W26178  35.382  31.792   4.695
54596W        W26179   1.577  33.390   3.672
54597W        W26180   2.824  27.777   2.502
54598W        W26181  36.893   7.603   4.095
54599W        W26182   9.850  19.363   2.870
54600W        W26183  16.738  19.682   1.926
54601W        W26184  19.386   8.243   1.323
54602W        W26185  36.853  38.503  12.350
54603W        W26186   0.147  26.434   2.389
54604W        W26187   8.774  33.471  13.040
54605W        W26188  20.035   8.312  12.848
54606W        W26189  21.436  36.940  13.447
54607W        W26190  26.316  21.502  12.947
54608W        W26191  14.520  20.255  14.521
54609W        W26192  20.276   3.306   2.248
54610W        W26193  10.143  26.267  11.482
54611W        W26194   6.706  23.537   1.785
54612W        W26195  32.375  44.226  12.180
54613W        W26196  30.115   4.451  10.720
54614W        W26197  23.480  14.668   1.372
54615W        W26198  30.314  44.979   2.348
54616W        W26199  19.208   7.738  12.092
54617W        W26200  27.493  19.816  10.906
54618W        W26201  12.564  32.991   3.742
54619W        W26202   9.078  36.308   5.078
54620W        W26203  12.395  29.388  14.847
54621W        W26204  18.310  42.731  13.469
54622W        W26205  18.110  30.978   1.355
54623W        W26206  16.734  32.429  10.548
54624W        W26207   9.421  29.160   0.418
54625W        W26208  33.420  18.587  13.866
54626W        W26209  43.405   8.197  13.087
54627W        W26210  13.261  26.114  14.542
54628W        W26211   3.742  19.837   4.874
54629W        W26212  21.131  28.943   1.938
54630W        W26213  30.375   9.915   0.922
54631W        W26214  13.150  30.916   3.816
54632W        W26215  30.528  11.227  14.463
54633W        W26216  16.020   1.193   0.521
54634W        W26217  39.964  28.409  13.544
54635W        W26218  19.075  17.509  14.665
54636W        W26219  34.216   3.376  13.110
54637W        W26220  12.991  17.009   0.815
54638W        W26221  35.875  14.830  11.516
54639W        W26222  43.576  22.558  12.434
54640W        W26223   6.385  11.603  12.447
54641W        W26224  32.580  15.144   4.137
54642W        W26225  43.885  35.271   1.364
54643W        W26226  17.861  26.352   2.471
54644W        W26227   4.489  20.481   4.648
54645W        W26228  22.135  12.353  12.816
54646W        W26229   1.195  32.498   1.498
54647W        W26230  22.636  30.040  14.343
54648W        W26231  26.795  27.806  10.404
54649W        W26232  43.405  13.909  12.689
54650W        W26233   5.709  16.228   2.126
54651W        W26234  26.744  29.059  13.707
54652W        W26235   4.399   2.389  10.486
54653W        W26236  39.674   8.336  11.609
54654W        W26237   3.291  13.819   3.299
54655W        W26238  31.766  19.097  14.712
54656W        W26239  13.362  29.711  14.129
54657W        W26240  43.238  21.032   1.804
54658W        W26241  12.405  35.501   2.384
54659W        W26242  35.325  43.886  10.716
54660W        W26243   9.986   5.729   1.519
54661W        W26244  31.643  35.050  14.111
54662W        W26245  30.579  26.329   4.969
54663W        W26246  41.874  20.083   3.676
54664W        W26247  29.415  11.911   1.793
54665W        W26248   2.704  29.145  11.065
54666W        W26249   4.310  20.702   4.171
54667W        W26250   8.245  10.647   3.355
54668W        W26251  37.314  43.696  14.990
54669W        W26252  33.188  15.380  14.227
54670W        W26253  21.740  20.307   3.584
54671W        W26254  20.482  13.357   4.553
54672W        W26255  32.896  40.868   3.312
54673W        W26256   8.881  22.494   1.924
54674W        W26257   4.807  20.127  14.261
54675W        W26258   6.120  18.019   1.250
54676W        W26259  18.079  15.306  12.019
54677W        W26260  41.459   1.521  13.441
54678W        W26261  36.252   4.136  13.350
54679W        W26262  42.300  17.046  13.448
54680W        W26263  37.249   4.352   1.920
54681W        W26264  43.468   8.843   1.246
54682W        W26265  36.218  44.373  10.785
54683W        W26266   2.923   5.924   2.685
54684W        W26267  44.349  21.715   1.681
54685W        W26268  21.437   5.905  11.691
54686W        W26269  20.796  33.071  11.577
54687W        W26270  20.152  39.264  11.092
54688W        W26271  19.165  38.360   2.532
54689W        W26272   6.350   1.490  10.432
54690W        W26273  16.506  36.929  11.485
54691W        W26274  22.033  34.350   2.339
54692W        W26275  30.126  35.618   3.874
54693W        W26276  33.150  29.130  13.397
54694W        W26277  31.656  33.435  12.936
54695W        W26278  31.508  29.190   0.474
54696W        W26279  43.748  43.097   4.456
54697W        W26280  44.306  38.195   4.041
54698W        W26281  22.759  17.516  12.245
54699W        W26282  19.193  18.845  12.079
54700W        W26283  24.521   3.969  14.851
54701W        W26284  44.271   4.583   3.362
54702W        W26285  43.555  38.314   3.139
54703W        W26286  15.521  15.323   4.231
54704W        W26287  13.570   0.960  14.939
54705W        W26288   2.296  23.721  11.141
54706W        W26289   6.948  15.118   0.397
54707W        W26290  43.948  15.359  10.730
54708W        W26291   1.455   6.612  13.426
54709W        W26292  34.456  18.030  11.601
54710W        W26293  28.581   8.811  12.521
54711W        W26294  44.890  30.981   3.815
54712W        W26295  14.122  11.635   2.704
54713W        W26296  28.072  42.047   2.717
54714W        W26297  26.675  39.439   3.965
54715W        W26298  22.336  33.007  12.487
54716W        W26299  17.565  24.275  11.505
54717W        W26300  36.366  32.022  13.312
54718W        W26301  34.968  31.099  10.707
54719W        W26302  19.634  44.462   2.555
54720W        W26303   5.570   9.939  10.669
54721W        W26304  18.086  25.707   9.811
54722W        W26305  31.992  36.130   3.448
54723W        W26306  10.495  18.159   2.395
54724W        W26307   1.950  37.365  14.561
54725W        W26308  12.073  42.913   4.177
54726W        W26309   0.245   1.376  14.366
54727W        W26310  34.783  10.192  10.623
54728W        W26311  22.448  15.554   1.387
54729W        W26312   9.359  11.638   5.018
54730W        W26313  29.071  12.120  14.709
54731W        W26314   9.832  22.812   1.549
54732W        W26315   9.773  24.387  10.572
54733W        W26316  13.249  28.570  13.884
54734W        W26317  40.535   2.080  14.452
54735W        W26318  18.665  14.192  11.388
54736W        W26319  30.692  35.100  12.500
54737W        W26320  13.289  13.662   2.782
54738W        W26321  27.034  30.685   0.654
54739W        W26322  14.612  15.634  10.721
54740W        W26323  20.137  27.185   2.817
54741W        W26324  23.535  27.450   4.205
54742W        W26325  27.931  30.292   4.044
54743W        W26326   3.780  13.553  12.552
54744W        W26327   5.661  17.387  10.729
54745W        W26328  36.580   4.392  12.819
54746W        W26329  30.844  18.118   2.105
54747W        W26330  31.984  33.594   3.710
54748W        W26331  24.591  27.276   4.268
54749W        W26332  21.243  22.731   0.370
54750W        W26333  39.569  33.547   2.858
54751W        W26334  15.639  13.095  11.017
54752W        W26335  27.398   0.596  11.871
54753W        W26336  40.114  44.522   4.118
54754W        W26337  19.344  44.474  11.669
54755W        W26338  40.109   7.655   3.220
54756W        W26339  27.025  16.187   3.246
54757W        W26340   5.259  25.157   3.559
54758W        W26341  30.170  17.978   0.883
54759W        W26342  27.429  27.953  11.961
54760W        W26343  36.899  22.946   1.661
54761W        W26344  29.537  22.451  11.005
54762W        W26345  42.091  35.322   3.367
54763W        W26346  39.058   4.943   1.250
54764W        W26347  10.229  11.708  13.058
54765W        W26348  20.088   9.778  10.467
54766W        W26349  13.313  31.183  11.526
54767W        W26350  34.905  30.598  10.735
54768W        W26351  33.674   7.395  11.302
54769W        W26352  20.399  33.662  12.206
54770W        W26353   1.216   2.594   1.912
54771W        W26354   6.201  26.612  12.127
54772W        W26355  16.750  23.565   1.004
54773W        W26356  36.298   1.497   4.118
54774W        W26357  24.729   8.646  11.706
54775W        W26358  34.071  31.397  13.483
54776W        W26359   2.309  24.233  11.140
54777W        W26360   3.553  19.280  11.514
54778W        W26361  42.416  42.955  11.805
54779W        W26362  17.093  24.255  13.832
54780W        W26363   9.277   5.923  13.228
54781W        W26364  21.400  13.207  14.581
54782W        W26365  43.685  23.016   1.478
54783W        W26366   1.786  19.329   0.339
54784W        W26367  20.426   4.986   4.153
54785W        W26368  33.512  16.849  10.649
54786W        W26369  43.347   4.478   1.759
54787W        W26370   6.866  10.444  12.572
54788W        W26371   9.215  23.477  14.297
54789W        W26372  21.710   7.545   1.426
54790W        W26373  38.734  26.756  11.658
54791W        W26374  34.536  29.107   4.111
54792W        W26375   4.218  13.936   1.298
54793W        W26376  23.501  25.914   4.148
54794W        W26377   2.413  43.814   4.146
54795W        W26378   1.488   0.300  10.582
54796W        W26379  21.138   6.985   4.684
54797W        W26380  34.267   5.946  14.796
54798W        W26381  32.394  40.835   3.417
54799W        W26382  18.458  26.554   3.736
54800W        W26383   5.134  23.498  13.435
54801W        W26384  29.087  29.390   0.623
54802W        W26385  29.914  10.834   0.723
54803W        W26386   8.211   0.589  14.277
54804W        W26387   3.763  15.096   0.977
54805W        W26388  17.264  21.060  14.526
54806W        W26389  37.209  22.031  10.869
54807W        W26390  11.807   7.890   2.355
54808W        W26391  35.025  39.902  11.964
54809W        W26392  19.711  15.789   3.593
54810W        W26393   4.205  15.754   2.864
54811W        W26394  19.980   3.403  13.299
54812W        W26395  25.955  11.811  14.497
54813W        W26396  40.261  26.553   1.279
54814W        W26397  43.500  18.254   3.772
54815W        W26398  18.643  43.429   4.920
54816W        W26399   0.267  36.274  14.333
54817W        W26400  20.638  15.415   2.389
54818W        W26401  14.766   5.980  12.857
54819W        W26402  27.136  28.681   2.666
54820W        W26403  28.710  22.330  11.224
54821W        W26404  30.679  29.990  13.363
54822W        W26405  36.865  44.916   0.349
54823W        W26406   4.463   5.737  12.788
54824W        W26407  18.488  42.283   1.726
54825W        W26408   4.269  27.511  12.399
54826W        W26409  31.941   3.151   3.032
54827W        W26410  10.113  26.177  10.969
54828W        W26411  24.866   4.060  12.967
54829W        W26412  16.130   5.796  11.987
54830W        W26413  42.525  26.122   1.677
54831W        W26414  36.996  23.142   3.093
54832W        W26415  26.306  28.030  12.923
54833W        W26416  37.119  18.971  14.858
54834W        W26417  17.714  11.904   2.430
54835W        W26418  13.739   5.187   4.355
54836W        W26419   8.247   9.277   4.382
54837W        W26420   8.090  43.871  11.432
54838W        W26421  26.141   6.335  14.210
54839W        W26422   9.634  44.377   1.301
54840W        W26423  41.515  35.978  13.882
54841W        W26424  37.917  19.524  13.767
54842W        W26425  43.234  15.399  13.022
54843W        W26426  37.054   9.304  13.578
54844W        W26427  29.115  12.867   1.497
54845W        W26428  26.399  17.171   1.571
54846W        W26429  34.982  16.628   4.629
54847W        W26430  21.216   1.459   3.531
54848W        W26431  44.266  32.886   0.448
54849W        W26432   7.647  37.939  13.848
54850W        W26433  32.161   1.898   3.808
54851W        W26434  27.088   2.208  12.931
54852W        W26435   5.214   4.832  13.382
54853W        W26436  22.549  34.171   4.620
54854W        W26437   9.125   4.743   2.757
54855W        W26438   9.794  44.191   0.723
54856W        W26439  33.026  25.618   3.393
54857W        W26440  24.669  24.984  10.645
54858W        W26441  31.547   0.928   1.669
54859W        W26442  30.116   8.780  13.083
54860W        W26443  11.536  15.312  12.949
54861W        W26444  35.391   7.877   0.344
54862W        W26445  31.013  39.157  14.014
54863W        W26446  37.452   4.852  12.484
54864W        W26447  40.317   6.771   0.253
54865W        W26448   1.927  30.277  10.599
54866W        W26449  41.835  10.305  11.505
54867W        W26450  15.307  18.276   1.244
54868W        W26451  21.835  37.601   3.175
54869W        W26452  28.259  18.537   3.301
54870W        W26453  14.747   5.228   4.000
54871W        W26454  40.892  36.083  11.095
54872W        W26455  24.694  28.584  13.068
54873W        W26456  27.735  18.604   3.321
54874W        W26457   2.431  27.258   1.814
54875W        W26458  15.413  42.944  14.486
54876W        W26459  42.437  32.116  13.463
54877W        W26460   2.823   3.512   5.074
54878W        W26461  32.916  26.028  10.414
54879W        W26462  29.527  22.381  10.313
54880W        W26463  34.558  16.212  12.011
54881W        W26464   1.854  37.760  14.251
54882W        W26465  32.426   1.686   4.191
54883W        W26466   6.737  42.239  14.269
54884W        W26467  44.868  39.063  11.994
54885W        W26468  25.762   0.192   3.485
54886W        W26469   6.609  38.966   0.344
54887W        W26470  40.233  16.183   4.005
54888W        W26471  30.916  12.980  12.964
54889W        W26472   6.971   9.061  14.469
54890W        W26473  33.862  21.522  14.920
54891W        W26474  28.006  31.572  13.421
54892W        W26475   0.484  41.013  13.023
54893W        W26476  12.321   1.783   4.526
54894W        W26477  38.555  18.170   1.415
54895W        W26478  23.226  38.930  13.545
54896W        W26479  12.649   4.681   3.414
54897W        W26480  18.289  39.613  13.306
54898W        W26481  32.079  32.103   4.168
54899W        W26482  10.333  33.111  12.092
54900W        W26483  30.628  42.506   3.850
54901W        W26484   0.078  17.264   4.499
54902W        W26485   3.161  32.106  14.690
54903W        W26486   8.930  27.004   1.271
54904W        W26487  29.100  39.453  13.394
54905W        W26488  23.708  27.189   4.626
54906W        W26489  41.436  23.175   4.540
54907W        W26490   5.929   7.366   0.665
54908W        W26491  12.056   6.701  14.954
54909W        W26492   0.280  22.298   2.740
54910W        W26493  32.074   0.399   0.430
54911W        W26494  22.926  34.953   1.856
54912W        W26495   2.840   0.531   1.193
54913W        W26496  32.979  25.218  10.955
54914W        W26497  27.629  35.989  14.470
54915W        W26498  23.178  10.145  13.767
54916W        W26499  32.229   3.488   1.316
54917W        W26500  25.012  27.930   2.146
54918W        W26501  29.094  16.044  13.300
54919W        W26502  23.182  13.174   1.362
54920W        W26503  17.965   6.808  12.703
54921W        W26504  44.939  16.740  11.366
54922W        W26505  16.820  32.094  13.504
54923W        W26506   2.434  35.657  12.071
54924W        W26507  34.617  28.286   1.229
54925W        W26508  41.230   4.996  11.190
54926W        W26509  26.462   8.446  14.682
54927W        W26510  38.259  20.545   3.567
54928W        W26511  18.295  13.638  10.689
54929W        W26512  43.558  12.377  11.544
54930W        W26513  33.723  32.857   3.524
54931W        W26514  32.659  21.696   9.995
54932W        W26515  36.232  18.732   1.214
54933W        W26516   9.732  18.574   4.181
54934W        W26517  36.126  40.458   4.513
54935W        W26518  16.695   3.721   2.667
54936W        W26519  42.241   2.264   3.254
54937W        W26520  43.949  43.569  13.574
54938W        W26521  14.566  18.133   2.377
54939W        W26522  40.409  14.315  12.974
54940W        W26523  25.549  26.792   1.249
54941W        W26524  27.078  18.224  11.452
54942W        W26525  12.140  26.796   4.737
54943W        W26526  37.879  31.128  13.313
54944W        W26527   6.060  37.152  10.126
54945W        W26528  28.504  23.496   0.386
54946W        W26529  40.455  19.256  11.999
54947W        W26530   5.803  29.919  13.618
54948W        W26531  34.819  39.451   2.418
54949W        W26532   1.561  40.439  13.439
54950W        W26533  30.113  23.294   1.344
54951W        W26534  10.872  27.005  13.454
54952W        W26535  29.241  11.954   4.618
54953W        W26536  16.286  41.518   4.753
54954W        W26537  27.250  12.706  11.336
54955W        W26538   2.925  23.112   4.825
54956W        W26539  38.326  18.252  13.812
54957W        W26540   4.177   0.996  12.079
54958W        W26541  28.114  29.949   3.105
54959W        W26542   8.766  24.096   4.158
54960W        W26543   6.737  41.766   0.258
54961W        W26544   7.646  12.813  14.611
54962W        W26545  12.894   1.227   1.215
54963W        W26546  40.915  16.820   1.816
54964W        W26547  10.307  35.755   1.860
54965W        W26548  20.661  21.736   0.940
54966W        W26549   5.125  44.974  13.438
54967W        W26550  24.810  22.699   1.239
54968W        W26551  20.142   1.325   3.124
54969W        W26552  40.274   2.900  12.931
54970W        W26553   5.473  42.086   3.383
54971W        W26554   3.387  31.906   0.739
54972W        W26555  35.540  18.513  14.308
54973W        W26556  15.827  25.103  14.658
54974W        W26557  16.112   0.245  11.115
54975W        W26558  42.765  22.179   2.346
54976W        W26559   1.289   6.657   0.892
54977W        W26560  30.097   5.455   3.170
54978W        W26561  21.044  19.113  14.948
54979W        W26562  27.640  34.017   3.720
54980W        W26563  41.528  11.607  11.112
54981W        W26564  24.609  11.753  13.801
54982W        W26565  26.376  18.348  11.178
54983W        W26566  40.318  16.014  12.534
54984W        W26567  28.550  30.567  10.692
54985W        W26568  40.313  44.720  12.129
54986W        W26569   8.643  40.415   3.587
54987W        W26570  42.314  32.403   1.644
54988W        W26571  19.172  15.716   0.651
54989W        W26572  10.792  18.115   3.637
54990W        W26573  30.550  41.829   1.714
54991W        W26574   4.869  36.467  14.822
54992W        W26575  26.744  24.000  14.949
54993W        W26576  40.537  36.447  11.176
54994W        W26577  44.269  44.290  11.486
54995W        W26578  37.705  31.832  11.350
54996W        W26579  18.286  38.425   4.554
54997W        W26580  40.566  26.896  12.540
54998W        W26581   2.849  29.569   4.661
54999W        W26582  11.375  25.023   3.367
55000W        W26583  32.900  42.375   1.445
55001W        W26584  36.847  29.077   0.897
55002W        W26585  44.713   3.986  12.720
55003W        W26586   3.678   5.902   2.220
55004W        W26587  26.270  39.987  11.650
55005W        W26588   1.245   7.514   3.177
55006W        W26589  20.954  40.877   3.775
55007W        W26590  40.265   0.832   2.863
55008W        W26591  18.583   4.259  13.701
55009W        W26592  27.676   7.147   0.795
55010W        W26593   1.312  43.942   4.615
55011W        W26594  19.994   8.438  13.822
55012W        W26595  15.271  14.102   0.390
55013W        W26596  10.905  11.649  12.304
55014W        W26597  21.616  37.370   0.429
55015W        W26598  17.436   2.993   3.195
55016W        W26599  23.689  23.052   3.606
55017W        W26600  40.996  14.811   2.170
55018W        W26601   2.481  30.486  13.874
55019W        W26602  13.140  36.475  13.454
55020W        W26603  10.007  19.990  13.114
55021W        W26604  11.994  12.624  11.662
55022W        W26605  30.252  30.542  14.044
55023W        W26606  26.405  25.609  13.393
55024W        W26607  40.506  36.503   4.235
55025W        W26608  17.006   9.952  12.021
55026W        W26609  24.705  11.090  10.629
55027W        W26610  21.004   2.835  11.183
55028W        W26611  25.787   2.834  12.997
55029W        W26612  18.881   3.840   0.734
55030W        W26613   4.706  41.705  14.878
55031W        W26614  37.609  44.775  12.540
55032W        W26615  27.183  35.579   3.008
55033W        W26616   8.828  38.082   0.783
55034W        W26617  40.918   1.943   4.636
55035W        W26618  38.845  35.563  11.052
55036W        W26619   3.712  13.688  13.358
55037W        W26620  17.767   3.290  12.792
55038W        W26621  11.682  10.075   9.911
55039W        W26622  22.410  18.817   0.406
55040W        W26623  43.011  37.565  14.934
55041W        W26624  40.819  19.269   4.719
55042W        W26625  13.096  32.528  13.013
55043W        W26626  22.326  35.145   2.701
55044W        W26627  41.323  43.266  11.141
55045W        W26628  11.578  17.091  12.479
55046W        W26629  44.295  20.469  14.475
55047W        W26630  41.913  30.892  10.486
55048W        W26631  39.131   8.853   2.167
55049W        W26632   2.265  40.905   3.564
55050W        W26633  14.168   6.350  14.311
55051W        W26634  22.227  36.410   2.327
55052W        W26635  36.376  26.190   4.175
55053W        W26636  31.433   9.267  13.543
55054W        W26637   4.961  39.034  13.046
55055W        W26638  29.912  15.283   2.697
55056W        W26639  36.142   2.264   1.651
55057W        W26640  33.820  44.419   0.766
55058W        W26641  15.701  10.577   3.135
55059W        W26642  31.376  18.525   2.713
55060W        W26643  36.520   3.852  10.604
55061W        W26644  27.008   4.688   3.678
55062W        W26645  36.059   5.430  11.842
55063W        W26646  43.515  18.286   2.399
55064W        W26647  25.572  18.716   1.125
55065W        W26648   7.194   8.261   0.578
55066W        W26649  10.547  11.583  11.939
55067W        W26650  28.024  44.315  13.034
55068W        W26651  30.466  43.729   0.373
55069W        W26652  32.795  24.970   0.751
55070W        W26653  26.385   1.638  11.192
55071W        W26654  19.135  19.150   0.053
55072W        W26655  29.907  40.985   0.177
55073W        W26656  15.314  26.583   4.429
55074W        W26657   5.473  14.702  14.200
55075W        W26658  34.636  11.429   1.455
55076W        W26659  31.710  42.884   5.040
55077W        W26660  28.435  14.149  11.467
55078W        W26661  11.974  18.384  11.101
55079W        W26662  29.499  17.083   3.983
55080W        W26663  32.644   4.392   0.249
55081W        W26664  39.722   1.460   2.323
55082W        W26665  39.000   2.489  13.303
55083W        W26666  19.939  14.845  11.135
55084W        W26667  11.606   3.843  12.468
55085W        W26668  14.465  23.714  13.064
55086W        W26669  40.360  11.127   1.707
55087W        W26670  43.780  34.996  11.509
55088W        W26671  32.385   4.941   4.364
55089W        W26672  15.784  33.202  14.436
55090W        W26673  44.519  14.823  11.121
55091W        W26674   9.404  21.552  11.671
55092W        W26675  12.968  16.775   3.434
55093W        W26676   6.477   3.028  11.069
55094W        W26677  31.928   8.375  12.942
55095W        W26678  34.662  20.600   2.850
55096W        W26679  43.799   8.033  13.847
55097W        W26680  22.125  11.842  12.828
55098W        W26681   0.827  10.170  10.150
55099W        W26682  11.927  27.135   0.041
55100W        W26683  12.789  31.418   1.618
55101W        W26684  31.689  35.014  11.668
55102W        W26685  39.958  30.089  10.643
55103W        W26686  44.977  39.393  14.313
55104W        W26687  42.317   1.589   0.986
55105W        W26688  29.452   9.404  11.135
55106W        W26689   1.885  41.519  11.764
55107W        W26690   8.870   7.146   2.768
55108W        W26691  28.997  23.680  10.578
55109W        W26692  15.344  44.824   3.654
55110W        W26693   2.332   1.338   3.420
55111W        W26694  21.490   1.520  10.800
55112W        W26695  26.091  33.861   2.898
55113W        W26696   9.780  25.111  11.425
55114W        W26697  44.965  27.521  13.367
55115W        W26698  38.719   7.653  13.908
55116W        W26699  30.067   3.991  13.058
55117W        W26700   5.018  35.745   1.039
55118W        W26701   9.778   9.110   5.009
55119W        W26702  44.028  13.618  10.839
55120W        W26703  17.141  35.223   9.631
55121W        W26704  21.751  42.899   3.038
55122W        W26705  22.134  10.243   2.503
55123W        W26706  26.158  16.836  12.539
55124W        W26707  30.925   7.808   3.672
55125W        W26708   2.702   8.672  12.056
55126W        W26709  15.257   8.547  11.105
55127W        W26710  40.589  38.712  13.504
55128W        W26711  38.608  13.706  11.592
55129W        W26712  38.452  27.678  11.552
55130W        W26713  19.306   6.892  11.155
55131W        W26714  18.516  37.204   2.394
55132W        W26715   0.483   6.266  12.654
55133W        W26716  14.690  21.466   4.658
55134W        W26717  34.539  41.666   0.283
55135W        W26718   5.357  15.174   3.180
55136W        W26719  17.533  17.806  11.675
55137W        W26720   2.960  19.662   4.541
55138W        W26721   9.890  24.941   3.699
55139W        W26722  15.979  18.247   1.330
55140W        W26723  37.578  14.206   0.652
55141W        W26724   1.177  25.526  11.534
55142W        W26725  18.308  38.911  12.637
55143W        W26726  22.254  37.790  13.280
55144W        W26727   2.956  37.804   4.327
55145W        W26728  24.504  35.445   1.246
55146W        W26729   5.915  31.455   0.794
55147W        W26730  14.887  39.945  14.239
55148W        W26731  44.939   2.301   3.189
55149W        W26732  24.636  33.654   3.643
55150W        W26733   8.059  13.770   0.087
55151W        W26734  18.556  21.832  14.890
55152W        W26735  30.388  31.960  11.828
55153W        W26736  19.672  26.443   3.022
55154W        W26737  33.713  18.100   4.320
55155W        W26738  21.006  38.106  11.023
55156W        W26739  10.321   8.211   4.176
55157W        W26740  16.380  43.929   2.421
55158W        W26741  14.381  16.336   5.215
55159W        W26742  15.559   5.268   0.650
55160W        W26743  33.847   6.467  13.434
55161W        W26744   7.965  13.826  10.940
55162W        W26745  36.589  27.768  10.884
55163W        W26746  28.620  44.712  14.744
55164W        W26747   7.759  44.330   3.194
55165W        W26748  18.038  13.355   2.188
55166W        W26749  36.028   0.644  11.123
55167W        W26750  43.717  40.960   4.139
55168W        W26751  37.416  37.516  12.320
55169W        W26752   2.734  32.906  11.110
55170W        W26753  13.253  34.423   2.701
55171W        W26754  11.850  27.434   2.263
55172W        W26755  15.098  44.296  11.228
55173W        W26756  23.742   4.599  12.508
55174W        W26757   2.283   9.282   4.505
55175W        W26758  28.600   3.365  11.627
55176W        W26759   5.928  20.152  14.383
55177W        W26760  27.225  25.667  12.135
55178W        W26761  16.383   4.304  11.181
55179W        W26762   2.654  42.386   1.246
55180W        W26763   6.003  18.794  10.775
55181W        W26764  40.985  39.039  11.396
55182W        W26765   0.890  36.515  13.455
55183W        W26766   7.604  44.494   5.052
55184W        W26767  26.562  41.726  13.675
55185W        W26768  11.682   3.986  11.475
55186W        W26769   4.794  14.534   4.937
55187W        W26770  37.578  35.048   4.092
55188W        W26771  43.032  36.495   4.539
55189W        W26772  39.119  30.182  14.605
55190W        W26773  40.953   2.329  13.532
55191W        W26774  29.906  41.806   4.595
55192W        W26775  22.178  14.250   3.950
55193W        W26776  36.319  36.072   1.931
55194W        W26777   8.429  19.233  12.467
55195W        W26778  27.731   0.185  11.887
55196W        W26779  38.810  39.877  11.046
55197W        W26780  25.049  10.883   4.154
55198W        W26781  40.532  11.183   1.211
55199W        W26782  14.215  16.296   1.149
55200W        W26783   7.122  17.704   4.144
55201W        W26784  18.301   3.444   0.345
55202W        W26785  35.842   4.479  14.753
55203W        W26786  24.559  17.674   4.499
55204W        W26787  25.423  31.023   4.408
55205W        W26788  23.765  17.102   1.362
55206W        W26789   6.816  27.477   2.487
55207W        W26790   3.310   5.146   0.011
55208W        W26791   5.170   1.384  14.488
55209W        W26792  15.643  14.925   3.345
55210W        W26793  22.232  32.940   2.720
55211W        W26794  38.519  35.150   4.532
55212W        W26795  41.506  22.649  10.581
55213W        W26796  33.163  40.064  13.898
55214W        W26797  15.935  33.960  10.185
55215W        W26798  22.247  41.751   2.164
55216W        W26799  14.090  11.143   0.364
55217W        W26800  12.752  19.429  14.605
55218W        W26801  27.697   6.947  11.032
55219W        W26802   5.562  43.049   0.053
55220W        W26803  30.869   4.361   1.871
55221W        W26804  44.247  11.896  12.467
55222W        W26805  43.360  42.497  12.926
55223W        W26806  15.885   6.868  10.188
55224W        W26807  13.933  16.034   3.769
55225W        W26808  25.090  12.080   3.295
55226W        W26809  14.844  14.546  14.853
55227W        W26810  14.405   8.229  13.885
55228W        W26811  43.432  16.743  14.160
55229W        W26812  32.381  21.698   2.751
55230W        W26813  31.655  38.800   4.753
55231W        W26814  15.285  24.297  11.060
55232W        W26815  10.153  23.439  10.310
55233W        W26816  30.506  32.794   2.808
55234W        W26817  33.860  42.065   0.751
55235W        W26818   3.337  27.705  12.379
55236W        W26819   9.363  12.735  12.077
55237W        W26820  12.369  37.254   1.483
55238W        W26821  13.793  14.240   2.465
55239W        W26822  21.053  17.994  12.883
55240W        W26823  32.976  33.558   3.632
55241W        W26824  12.348  36.183  14.098
55242W        W26825  40.510  10.220   2.619
55243W        W26826  22.032  18.477   0.328
55244W        W26827   6.654  21.739   1.643
55245W        W26828  32.833  31.012   1.876
55246W        W26829  18.038  18.618  14.275
55247W        W26830  19.817   8.734   4.973
55248W        W26831  24.039  33.917   0.810
55249W        W26832  40.344  41.846   3.677
55250W        W26833   8.238  10.524   4.865
55251W        W26834  22.469  20.578  14.533
55252W        W26835   3.074  25.995   3.431
55253W        W26836  37.327  24.860   4.325
55254W        W26837  32.115  26.533   0.663
55255W        W26838  41.088  21.719  12.020
55256W        W26839  32.108  28.076   1.643
55257W        W26840  44.925  20.694   3.344
55258W        W26841  44.746  32.920  11.185
55259W        W26842  25.728  18.255   9.834
55260W        W26843  35.349  20.605   4.488
55261W        W26844   6.049   5.234  10.921
55262W        W26845  38.451  36.350   3.702
55263W        W26846  42.515  40.125  12.919
55264W        W26847  22.173  43.039   4.137
55265W        W26848  16.277  34.836   4.092
55266W        W26849  26.505  18.900   4.673
55267W        W26850  14.122  44.548  11.280
55268W        W26851  23.977  25.741  14.457
55269W        W26852  37.016   4.643  12.626
55270W        W26853   5.321  33.931  11.939
55271W        W26854  32.540  21.069  13.462
55272W        W26855  17.762   1.620  10.902
55273W        W26856  12.352  18.546   2.997
55274W        W26857   5.922  20.970  10.233
55275W        W26858  14.853   9.717   0.947
55276W        W26859   2.741  28.458   1.161
55277W        W26860  19.453  31.616   0.260
55278W        W26861  29.023  12.585  13.221
55279W        W26862   3.695  36.855   1.278
55280W        W26863  25.039  31.390   1.815
55281W        W26864  23.510  37.248   1.850
55282W        W26865   1.369  40.576   3.952
55283W        W26866  20.137   7.704   0.587
55284W        W26867   2.980  15.133   2.686
55285W        W26868  19.589  39.903   0.399
55286W        W26869   8.263  36.870  13.836
55287W        W26870  17.630  36.127   3.052
55288W        W26871  12.298   6.297   4.946
55289W        W26872  12.826   8.673  12.125
55290W        W26873   2.274  43.579  12.560
55291W        W26874   5.169  15.401  11.655
55292W        W26875  30.460  33.398   2.107
55293W        W26876  24.981  10.397   1.925
55294W        W26877  15.316  40.063   4.559
55295W        W26878  18.838  31.434  14.390
55296W        W26879  37.055  21.293   0.942
55297W        W26880  26.174   1.535  10.704
55298W        W26881   5.238  43.875   0.300
55299W        W26882   5.193   4.433  13.940
55300W        W26883   3.671  30.007  13.530
55301W        W26884   5.284  42.066  13.275
55302W        W26885   5.803  15.809  10.870
55303W        W26886  26.489   1.372  13.031
55304W        W26887  15.263  18.639  13.990
55305W        W26888  29.615  23.743   2.751
55306W        W26889   4.460   8.091  11.813
55307W        W26890  10.492  19.057  13.143
55308W        W26891  25.019   4.897  13.256
55309W        W26892  10.335   7.765  12.418
55310W        W26893   3.185  38.716  12.824
55311W        W26894  18.696  33.133   4.922
55312W        W26895  25.441  42.442   2.651
55313W        W26896  41.960  24.461   2.755
55314W        W26897   1.222   8.869   1.839
55315W        W26898  43.992   0.356  10.647
55316W        W26899  26.721   9.322   1.215
55317W        W26900   1.498  31.457   0.951
55318W        W26901   4.274  15.824  12.441
55319W        W26902  29.416  41.763   0.205
55320W        W26903  21.446  31.436   2.984
55321W        W26904  18.135  24.399   1.988
55322W        W26905  13.703   2.484   0.786
55323W        W26906  18.719   7.711  11.678
55324W        W26907  41.405  16.697   4.311
55325W        W26908   0.938  16.329  13.962
55326W        W26909   3.028  10.367   4.968
55327W        W26910   4.884  17.006  11.897
55328W        W26911   7.630   5.961  12.909
55329W        W26912  28.122  42.019   4.121
55330W        W26913  30.105  42.831   1.790
55331W        W26914  18.820   8.728  12.515
55332W        W26915  39.618   7.079  13.367
55333W        W26916  26.008   3.021  11.024
55334W        W26917  29.969  24.655   0.295
55335W        W26918  40.283  30.895  13.997
55336W        W26919   0.325  35.196   0.941
55337W        W26920   3.619  41.473   1.087
55338W        W26921  35.085  34.988  13.851
55339W        W26922  44.458  32.861  12.478
55340W        W26923  16.083  25.106  12.400
55341W        W26924  34.361  41.648  12.810
55342W        W26925  40.373  18.604  10.800
55343W        W26926  12.315  24.090   4.596
55344W        W26927  33.404   8.074  11.704
55345W        W26928  33.590   4.239   4.679
55346W        W26929  12.596  12.281   0.925
55347W        W26930  32.566  21.313  10.730
55348W        W26931  15.724  32.893  10.679
55349W        W26932  23.137  15.241  11.636
55350W        W26933  33.955  31.586   0.296
55351W        W26934  35.625  18.475   2.300
55352W        W26935  11.524   2.855  11.120
55353W        W26936  39.577  26.445   2.268
55354W        W26937   4.275  10.360   1.255
55355W        W26938  22.534   9.181  14.050
55356W        W26939  14.137  28.717   0.648
55357W        W26940  12.018  42.300  11.432
55358W        W26941  34.409  30.045  12.504
55359W        W26942  22.831   4.778  12.194
55360W        W26943  34.972   7.857   4.910
55361W        W26944  27.210  12.677   3.772
55362W        W26945  20.696  17.623  10.487
55363W        W26946  44.631  20.706  13.527
55364W        W26947  41.828  32.817   3.609
55365W        W26948  35.985  14.199   1.453
55366W        W26949  23.003  42.032  14.791
55367W        W26950  27.767  22.693  14.601
55368W        W26951  44.780   6.432  13.107
55369W        W26952   2.713   3.260   1.288
55370W        W26953  23.115  31.678  12.646
55371W        W26954  20.709  40.000   4.872
55372W        W26955  31.441  11.926  12.896
55373W        W26956  14.925  43.002   2.286
55374W        W26957  28.180  23.008  14.391
55375W        W26958  32.839  13.520   3.203
55376W        W26959  19.273  32.563  12.449
55377W        W26960   3.412   0.621   0.857
55378W        W26961  22.069  36.139   4.100
55379W        W26962  13.128  42.358  12.366
55380W        W26963  15.058  10.247   2.124
55381W        W26964  28.328   1.273  14.690
55382W        W26965  30.621  18.219  11.667
55383W        W26966  13.484  23.114  14.199
55384W        W26967  14.510  31.522   2.699
55385W        W26968  36.855  17.164   0.511
55386W        W26969   9.891  32.259   4.206
55387W        W26970  17.536   6.805   2.766
55388W        W26971   0.934   7.229   3.774
55389W        W26972  43.793  35.671  10.796
55390W        W26973  31.307  21.679   2.990
55391W        W26974   2.524  18.810   2.303
55392W        W26975  16.125  29.937   1.253
55393W        W26976  19.174  32.457  13.226
55394W        W26977  14.582  31.395  12.649
55395W        W26978  38.416  35.953  12.448
55396W        W26979  37.305  19.870   3.318
55397W        W26980  11.308   3.317   3.623
55398W        W26981  29.573  28.765  14.300
55399W        W26982  28.786  40.826   2.438
55400W        W26983   5.222  39.269   3.680
55401W        W26984  13.184  19.545  14.336
55402W        W26985  41.354   9.102  14.476
55403W        W26986  41.890   5.415  13.504
55404W        W26987  30.675  16.837  11.575
55405W        W26988  32.923  33.145  11.480
55406W        W26989  35.376  11.886   1.954
55407W        W26990  28.638  17.196  10.212
55408W        W26991  23.099  29.129  11.572
55409W        W26992   8.736  37.025  14.810
55410W        W26993   3.820   2.008   3.671
55411W        W26994  38.039  20.754  14.966
55412W        W26995  25.779  25.295   4.227
55413W        W26996  35.439  38.481   4.555
55414W        W26997   3.071  27.010  13.490
55415W        W26998  35.661  36.782   2.958
55416W        W26999   5.859  32.580  10.668
55417W        W27000  10.349  33.092   5.057
55418W        W27001  18.832  39.874   3.424
55419W        W27002  26.904  21.605  10.427
55420W        W27003   2.797  11.924   1.925
55421W        W27004   9.611  41.766  12.994
55422W        W27005  18.298   7.850   1.822
55423W        W27006  12.359  24.065   3.012
55424W        W27007   7.609  31.871   1.089
55425W        W27008  26.957  19.766   3.421
55426W        W27009  29.329  27.765   1.791
55427W        W27010   5.999  17.109  13.057
55428W        W27011  38.671   9.709  13.225
55429W        W27012  31.948  26.004   4.036
55430W        W27013   6.156  39.380  12.999
55431W        W27014  28.094  23.577   4.599
55432W        W27015  35.989   7.589   4.376
55433W        W27016   7.668  11.806  12.840
55434W        W27017  39.712  21.514   2.775
55435W        W27018  38.397  31.903   3.144
55436W        W27019   0.433   7.825   1.377
55437W        W27020   1.704  34.631  12.526
55438W        W27021  31.367   9.900   4.187
55439W        W27022  35.571   6.470   1.205
55440W        W27023  43.363  41.395  13.919
55441W        W27024  10.096  32.038  14.305
55442W        W27025  29.939  36.941   3.737
55443W        W27026   1.849  14.010  10.605
55444W        W27027  23.525  21.107   1.440
55445W        W27028  27.430  16.033  12.444
55446W        W27029  40.032  40.544  14.237
55447W        W27030  33.484  22.159   1.579
55448W        W27031  40.604  27.934  13.817
55449W        W27032  35.558  27.987   0.659
55450W        W27033  15.811  28.909  13.851
55451W        W27034  26.252  30.546   3.279
55452W        W27035   5.322  12.153   1.259
55453W        W27036  25.823  19.584  11.403
55454W        W27037   3.782  36.665   2.668
55455W        W27038  11.614  33.987  10.704
55456W        W27039   9.736  11.298   0.729
55457W        W27040  29.174  42.385  11.034
55458W        W27041  24.450  38.814   1.196
55459W        W27042  12.339  25.476  13.781
55460W        W27043  16.316  39.233  11.753
55461W        W27044  21.651   2.279  11.372
55462W        W27045  35.507   3.235   0.070
55463W        W27046  26.496  34.944   3.613
55464W        W27047  36.414  28.211  10.688
55465W        W27048  33.758  20.215  14.553
55466W        W27049  28.642  16.145   3.472
55467W        W27050  40.439  37.293  13.300
55468W        W27051  24.066  30.652  11.440
55469W        W27052   7.118  19.305  14.762
55470W        W27053   8.399  40.744  11.524
55471W        W27054  21.217  15.976   5.026
55472W        W27055   5.914   5.306   3.759
55473W        W27056  32.837  43.878   1.470
55474W        W27057  18.766  27.244   1.610
55475W        W27058  22.707   6.178   5.077
55476W        W27059   5.554  36.985  11.892
55477W        W27060   5.722   6.287   3.973
55478W        W27061  43.548  13.140   3.759
55479W        W27062  20.178  27.962  11.545
55480W        W27063  18.737   5.654  12.460
55481W        W27064  15.720  12.579   2.477
55482W        W27065   3.173   3.866   0.498
55483W        W27066   7.443  22.127   1.741
55484W        W27067   5.372  15.850   0.018
55485W        W27068  12.824  41.962  11.955
55486W        W27069  23.042   5.618   4.602
55487W        W27070   0.287  23.871  10.531
55488W        W27071  41.246   9.845   3.673
55489W        W27072   7.485  13.185  11.230
55490W        W27073  38.316  13.244  11.574
55491W        W27074  20.015  14.297   4.566
55492W        W27075   8.975  12.771  10.259
55493W        W27076  21.844   4.147  11.924
55494W        W27077  26.046  26.486   0.086
55495W        W27078  43.774  31.633   4.468
55496W        W27079  25.138   4.636  10.450
55497W        W27080  11.551   5.949   4.041
55498W        W27081  44.560   6.904  13.441
55499W        W27082  14.381  14.786   3.716
55500W        W27083  36.095   4.274   4.310
55501W        W27084  42.286  39.559  12.474
55502W        W27085  34.824  15.774   5.048
55503W        W27086   4.920   0.516  11.181
55504W        W27087  15.540  29.464   2.436
55505W        W27088  41.596  41.193   2.825
55506W        W27089  40.887  39.609  13.579
55507W        W27090   6.149   3.372   3.706
55508W        W27091  26.546  32.331  12.129
55509W        W27092  27.210   0.009   1.724
55510W        W27093  33.893   6.201  13.889
55511W        W27094  43.901  35.024   3.145
55512W        W27095   7.076   0.814   1.281
55513W        W27096  27.077   8.637  10.966
55514W        W27097   2.528  18.655  14.554
55515W        W27098  29.109   7.303   0.719
55516W        W27099  32.587   5.182  11.589
55517W        W27100  37.001  12.628  11.460
55518W        W27101  14.723   5.756  10.874
55519W        W27102  33.245  31.077   0.433
55520W        W27103   8.187  42.452   3.398
55521W        W27104  35.254  38.609  11.719
55522W        W27105  39.095  35.975  12.818
55523W        W27106  44.263  37.039  12.832
55524W        W27107   1.270  27.920   1.749
55525W        W27108  26.806  13.087  13.578
55526W        W27109  23.345  43.350  11.192
55527W        W27110  27.951  42.761  12.117
55528W        W27111  25.535  22.747  13.491
55529W        W27112  10.008   3.182  13.998
55530W        W27113  44.881  17.577  12.802
55531W        W27114   8.748  29.209   2.809
55532W        W27115   6.340  35.758  14.956
55533W        W27116  27.271   2.434   2.130
55534W        W27117  18.333  38.430  10.429
55535W        W27118  30.333  42.908   3.980
55536W        W27119  10.222  20.686   1.363
55537W        W27120  21.557  12.731  14.363
55538W        W27121   9.885  21.193   0.233
55539W        W27122  22.679  38.729   5.062
55540W        W27123  13.731  44.166   4.124
55541W        W27124  35.179  19.787   4.088
55542W        W27125   2.699  11.094  12.769
55543W        W27126  14.247  17.044  12.957
55544W        W27127  36.337  24.103   4.610
55545W        W27128  43.776   8.008   4.560
55546W        W27129  41.920  30.147  14.060
55547W        W27130  23.353  16.190  12.549
55548W        W27131  16.186  32.022   9.858
55549W        W27132   5.471  17.048  12.999
55550W        W27133  10.528   8.406   0.297
55551W        W27134   2.912  35.287  10.215
55552W        W27135  29.904  25.338  11.915
55553W        W27136  43.266  21.166   1.227
55554W        W27137  30.459  26.993   1.524
55555W        W27138  36.850  40.034  11.253
55556W        W27139  40.478  22.502  14.398
55557W        W27140  29.137  36.469   1.888
55558W        W27141  28.521  27.760  14.381
55559W        W27142   5.820  15.748   2.947
55560W        W27143  24.466  32.109   3.385
55561W        W27144  23.645   5.512  11.511
55562W        W27145  17.815  24.696   3.265
55563W        W27146  44.460  26.274   2.218
55564W        W27147  33.124   8.074   1.417
55565W        W27148  38.872  20.457  13.987
55566W        W27149  27.910  30.902  13.041
55567W        W27150  34.900  35.608   3.152
55568W        W27151  44.839   4.258  13.859
55569W        W27152  20.521   1.614  12.393
55570W        W27153  44.398  12.421  13.666
55571W        W27154  31.655  38.228   3.735
55572W        W27155   8.673  24.087   3.275
55573W        W27156  21.403  38.144  13.316
55574W        W27157  40.958   4.043  11.035
55575W        W27158   2.962  12.028   4.057
55576W        W27159   8.281  27.922   2.095
55577W        W27160  14.487  20.791   1.339
55578W        W27161  27.310  28.144  11.222
55579W        W27162  40.386  27.486   3.288
55580W        W27163  37.378  15.785  10.807
55581W        W27164   7.434  34.388  12.049
55582W        W27165  17.011  34.650   5.164
55583W        W27166  39.461  20.051  13.499
55584W        W27167  26.211  38.755   4.757
55585W        W27168   8.597   1.673  13.340
55586W        W27169  26.047  28.600  13.404
55587W        W27170   8.727   0.149  11.564
55588W        W27171  37.177  11.726  11.906
55589W        W27172   8.911   6.629   0.548
55590W        W27173  11.896   7.220  14.953
55591W        W27174  10.008  10.837  14.385
55592W        W27175  10.789  18.620  12.993
55593W        W27176   2.256  38.193   2.317
55594W        W27177   3.146  20.947  13.343
55595W        W27178  26.577  15.164   1.661
55596W        W27179   3.967  44.493   0.027
55597W        W27180  41.686  40.927   2.311
55598W        W27181   8.053  34.494   3.209
55599W        W27182   9.798  36.825  13.115
55600W        W27183  29.846  32.079  10.699
55601W        W27184  10.273  34.333  12.593
55602W        W27185  35.798   9.266  14.823
55603W        W27186  27.499  30.071   1.482
55604W        W27187  18.039  20.951  14.079
55605W        W27188   0.272  35.835   3.662
55606W        W27189  24.016  28.088   1.341
55607W        W27190  27.758  32.340  11.536
55608W        W27191  41.404  44.401   0.946
55609W        W27192  20.028  15.285  11.345
55610W        W27193  10.406  32.456  14.354
55611W        W27194  17.761  30.046  11.616
55612W        W27195  37.040   5.247  14.481
55613W        W27196  27.213  42.999   0.819
55614W        W27197  22.126   8.784   4.085
55615W        W27198  33.443  37.254   0.552
55616W        W27199  11.335  11.759  10.943
55617W        W27200   8.798  15.321  13.450
55618W        W27201   8.924  10.268   2.265
55619W        W27202  39.366  19.815  12.875
55620W        W27203  34.003  28.572   4.665
55621W        W27204  25.583   7.242   1.253
55622W        W27205  37.488  30.037   3.148
55623W        W27206  37.638  21.323  11.685
55624W        W27207  40.111  28.582  10.702
55625W        W27208  42.739  18.151  12.121
55626W        W27209  28.647   7.825   1.372
55627W        W27210  39.898   9.452   1.263
55628W        W27211  10.348   0.176  12.071
55629W        W27212  16.095  41.457  11.040
55630W        W27213  38.358  17.742   1.199
55631W        W27214   1.260  33.638  11.776
55632W        W27215  13.771  30.916  10.594
55633W        W27216  39.658  13.134  13.463
55634W        W27217  16.710  29.931   2.131
55635W        W27218  25.786   5.133  14.277
55636W        W27219   0.474  23.981  11.544
55637W        W27220  23.529  42.943   1.954
55638W        W27221  31.894   7.691  12.145
55639W        W27222  30.540  40.782  14.078
55640W        W27223  42.719  43.006  13.469
55641W        W27224  43.507   5.249  14.490
55642W        W27225  11.784  35.019   2.437
55643W        W27226  44.229  13.988  11.165
55644W        W27227  32.473   1.274   1.879
55645W        W27228   3.858  12.958  11.442
55646W        W27229  33.487   6.371  14.808
55647W        W27230  10.874  16.692   2.680
55648W        W27231  33.537  18.532  13.333
55649W        W27232  15.149  35.942  13.067
55650W        W27233  20.538  30.927   5.194
55651W        W27234  35.108   5.205  12.047
55652W        W27235  14.199  19.674   2.665
55653W        W27236  25.730  33.505   3.077
55654W        W27237   2.176  32.469  13.860
55655W        W27238  27.251   7.573  13.447
55656W        W27239   5.721  19.669   2.207
55657W        W27240  25.679   8.261   0.631
55658W        W27241  39.321   1.943  11.105
55659W        W27242  21.463  18.018  10.746
55660W        W27243  10.912  16.211  11.459
55661W        W27244  34.966  19.064  10.468
55662W        W27245  32.048  34.677  11.467
55663W        W27246  43.871  22.775  14.222
55664W        W27247  12.398   7.127  14.998
55665W        W27248  37.543  15.310   3.790
55666W        W27249  24.774  41.279   2.668
55667W        W27250  30.738   2.894   0.827
55668W        W27251  22.699   9.708   5.317
55669W        W27252   8.730  23.603   1.154
55670W        W27253   8.647  12.284  14.439
55671W        W27254  23.311  28.007  12.099
55672W        W27255  33.653  17.278   4.316
55673W        W27256   0.536  11.731  13.493
55674W        W27257  34.156  31.341   0.881
55675W        W27258   1.864  39.357  11.130
55676W        W27259  36.462   2.645   4.643
55677W        W27260  31.906  20.096  13.823
55678W        W27261  26.657  26.728   4.875
55679W        W27262  31.013  20.502  14.179
55680W        W27263  40.301  43.809   0.765
55681W        W27264  31.986  43.180  12.023
55682W        W27265  24.490  42.788  11.442
55683W        W27266  44.537  42.804   2.822
55684W        W27267  34.545  42.884  10.914
55685W        W27268  15.725  37.647   4.629
55686W        W27269  41.502  23.227   3.529
55687W        W27270  14.726  40.032   1.109
55688W        W27271  26.217  21.539   4.450
55689W        W27272  33.158   0.459  13.923
55690W        W27273  33.440  27.303   0.516
55691W        W27274  29.601  29.252   0.516
55692W        W27275  19.688  23.111   1.448
55693W        W27276  17.561  19.214   0.353
55694W        W27277   4.911  28.912   1.209
55695W        W27278   4.793  30.721   3.210
55696W        W27279  32.085  17.182   3.814
55697W        W27280  22.611  13.284  13.999
55698W        W27281  44.329  10.887  13.329
55699W        W27282  15.550  21.499  14.955
55700W        W27283  17.779  44.977  14.347
55701W        W27284  43.469  24.934  11.613
55702W        W27285  28.609  42.030   0.609
55703W        W27286  22.630   5.705   3.332
55704W        W27287  30.766  30.976   1.434
55705W        W27288   4.378  41.593   4.140
55706W        W27289  11.562  38.578  12.427
55707W        W27290   8.143  27.393   3.788
55708W        W27291  29.128   6.075  14.451
55709W        W27292  28.194  20.819   4.322
55710W        W27293  14.690  29.677  14.477
55711W        W27294   9.209  11.160   2.738
55712W        W27295   0.389   0.891  14.230
55713W        W27296  44.002   1.949  12.738
55714W        W27297  38.875  14.719   4.098
55715W        W27298  11.660  38.546  13.855
55716W        W27299  22.277  12.162   0.162
55717W        W27300  31.632  34.590   1.766
55718W        W27301  32.411  43.384  13.710
55719W        W27302   9.069  16.186   3.674
55720W        W27303   5.763  32.639  12.017
55721W        W27304  25.609  14.851  14.911
55722W        W27305   3.866   9.427   2.070
55723W        W27306  15.603   9.882   1.988
55724W        W27307  28.550   7.461   2.666
55725W        W27308  35.034  17.658   4.609
55726W        W27309  27.469  39.086   3.197
55727W        W27310  39.263  31.567  11.626
55728W        W27311  35.380  33.169   0.865
55729W        W27312  20.567  17.122  13.935
55730W        W27313   3.702  23.167   2.221
55731W        W27314   0.407  44.024   0.300
55732W        W27315  35.350   5.524   2.296
55733W        W27316  14.349  14.053  14.527
55734W        W27317  34.465  44.926  12.753
55735W        W27318  32.047  29.111  11.153
55736W        W27319  21.964  18.104   3.322
55737W        W27320   4.714  22.275  12.984
55738W        W27321  13.104  22.294  14.405
55739W        W27322  35.965   9.997   3.827
55740W        W27323  15.317  20.242  11.624
55741W        W27324  16.922   4.912  14.754
55742W        W27325   2.509  32.146   4.768
55743W        W27326  16.807  36.427  14.960
55744W        W27327  44.584  40.228   4.757
55745W        W27328  24.905  32.874   2.019
55746W        W27329  31.513  34.065  10.748
55747W        W27330  40.313  28.895  14.881
55748W        W27331   9.638  36.557   4.325
55749W        W27332  13.744  19.583   4.276
55750W        W27333  43.597  44.023   0.276
55751W        W27334  34.491   3.271   4.170
55752W        W27335  25.641  10.564  14.329
55753W        W27336  22.588  37.162   0.366
55754W        W27337  27.667   3.167   4.209
55755W        W27338   1.750   4.386   0.383
55756W        W27339   6.372  25.982   1.774
55757W        W27340  26.684  34.392  12.421
55758W        W27341  27.392  31.034  13.932
55759W        W27342  40.003  33.679  10.657
55760W        W27343  37.853  26.665  12.374
55761W        W27344  19.909  20.034   9.928
55762W        W27345  17.131  42.836  10.638
55763W        W27346  27.083  33.860  12.887
55764W        W27347  39.078   9.745   1.456
55765W        W27348  28.631  38.197  11.576
55766W        W27349  14.734  25.114   4.574
55767W        W27350  28.737  32.345   2.917
55768W        W27351  28.909   3.602  14.179
55769W        W27352  37.978  36.357  10.643
55770W        W27353  11.687  13.358   0.363
55771W        W27354  43.478  36.945   3.188
55772W        W27355   4.276   7.427  10.425
55773W        W27356   7.950  12.634  12.079
55774W        W27357   2.772   5.645  13.345
55775W        W27358  33.469  33.735  13.569
55776W        W27359  25.559  18.563  10.720
55777W        W27360  41.714  23.590  10.938
55778W        W27361   5.458  19.983  12.064
55779W        W27362  27.276  11.419  11.136
55780W        W27363  10.443   0.920  11.447
55781W        W27364  15.215  38.574  13.571
55782W        W27365  38.133   0.373  11.936
55783W        W27366  37.489  41.053  14.053
55784W        W27367   5.749  44.153   4.067
55785W        W27368  28.621   4.835   4.409
55786W        W27369  36.329  31.366   4.632
55787W        W27370   2.826  41.412  13.427
55788W        W27371  10.728  15.063  13.989
55789W        W27372   7.874   8.332   4.174
55790W        W27373  40.010  44.233   0.689
55791W        W27374  24.468   8.697  11.261
55792W        W27375  26.496  40.311   4.229
55793W        W27376  21.730  18.817   0.062
55794W        W27377  23.637  40.424  14.869
55795W        W27378  34.802   3.758  12.956
55796W        W27379   7.899  40.481  13.641
55797W        W27380  42.289  12.288  12.520
55798W        W27381  20.172  13.433   0.414
55799W        W27382  30.974   8.673  14.951
55800W        W27383   6.854   5.424  11.647
55801W        W27384  26.653  22.021   0.952
55802W        W27385   0.370  15.531  13.953
55803W        W27386  35.484  13.255   3.376
55804W        W27387   8.408  15.712  11.471
55805W        W27388  29.152  13.654   4.106
55806W        W27389  40.942  44.949   4.214
55807W        W27390   8.864   0.914   1.815
55808W        W27391  14.901  42.286   1.308
55809W        W27392  14.408  35.755   3.183
55810W        W27393  13.250  44.230   2.834
55811W        W27394  12.122  24.564   3.042
55812W        W27395  21.599  16.747   0.274
55813W        W27396   7.293  26.906   0.535
55814W        W27397   8.262  32.534  11.954
55815W        W27398  18.331  41.840   1.311
55816W        W27399  24.478  17.683  13.776
55817W        W27400  13.333  44.881  14.170
55818W        W27401  41.276  15.603   0.744
55819W        W27402  17.836   8.691   0.490
55820W        W27403  28.891   4.122  14.018
55821W        W27404   8.763   0.345  12.050
55822W        W27405  24.931  29.580   1.807
55823W        W27406   4.388  34.757  12.897
55824W        W27407  14.081  29.283  11.004
55825W        W27408   1.968  10.747   0.168
55826W        W27409   9.897  13.370  13.430
55827W        W27410  12.557   8.665   4.095
55828W        W27411  32.329  12.481   4.154
55829W        W27412  29.411  26.531  11.928
55830W        W27413   2.411  14.468  13.027
55831W        W27414  33.527  12.735  11.162
55832W        W27415  40.282  41.017  14.515
55833W        W27416  39.898  10.625  14.701
55834W        W27417  33.503  22.728  12.154
55835W        W27418  43.333  16.213   4.638
55836W        W27419  42.105   6.846  11.940
55837W        W27420  36.388  14.883   3.269
55838W        W27421  30.333  22.437   5.330
55839W        W27422  32.079  40.814   2.223
55840W        W27423  39.330  37.427   2.629
55841W        W27424  15.867  10.837  14.370
55842W        W27425  14.254  31.030  11.413
55843W        W27426  24.118  23.487  11.606
55844W        W27427   9.087  22.045   2.084
55845W        W27428   1.986  44.441  10.924
55846W        W27429  12.096   9.677  13.326
55847W        W27430   2.537  25.753  12.935
55848W        W27431  24.710  17.176  14.525
55849W        W27432  29.617   5.715   1.649
55850W        W27433  12.282   8.935  12.925
55851W        W27434  27.444  35.350  11.596
55852W        W27435  32.933   0.051  11.382
55853W        W27436   4.465  44.267  10.138
55854W        W27437  43.279  33.081   4.759
55855W        W27438  39.850   1.718  11.937
55856W        W27439   8.675  19.302   4.764
55857W        W27440  39.630  43.693   2.202
55858W        W27441  24.564  14.136   2.782
55859W        W27442   5.454   4.187   4.941
55860W        W27443  21.235  24.709  13.280
55861W        W27444  25.171   9.431  14.335
55862W        W27445  34.125   1.700  13.847
55863W        W27446   1.450  39.934  14.192
55864W        W27447  16.619  12.227   3.894
55865W        W27448   7.650  32.420  12.450
55866W        W27449  27.625  41.786  13.876
55867W        W27450  26.417   3.917   2.137
55868W        W27451  15.210  16.305   1.919
55869W        W27452   7.874  36.957  11.591
55870W        W27453  15.172  33.407   3.773
55871W        W27454  11.577  10.081   4.199
55872W        W27455  18.552  20.766   3.895
55873W        W27456  12.215   6.790   3.033
55874W        W27457  34.841  37.792   0.852
55875W        W27458   8.730   8.818  10.312
55876W        W27459  24.498   5.845  12.133
55877W        W27460  39.681   6.484   4.590
55878W        W27461  25.459  26.987   2.786
55879W        W27462  14.281   7.203   0.104
55880W        W27463   1.337  44.776  10.398
55881W        W27464  43.901  14.597  13.104
55882W        W27465  14.244  40.252  10.612
55883W        W27466  25.139  18.098   3.925
55884W        W27467  32.138  40.877   0.781
55885W        W27468   2.802  15.848  12.081
55886W        W27469  42.854  20.533   0.948
55887W        W27470  17.640  36.101  12.972
55888W        W27471  21.404   8.701   3.549
55889W        W27472   6.232  35.423   3.860
55890W        W27473  16.740  25.726  11.113
55891W        W27474  38.793  43.760   0.866
55892W        W27475  28.529  17.029   1.906
55893W        W27476  13.090  30.895  14.265
55894W        W27477   8.531  22.505  13.927
55895W        W27478  17.241   2.648  12.154
55896W        W27479  35.081  19.369   1.737
55897W        W27480   0.758  30.152  10.269
55898W        W27481   2.417  36.339   1.617
55899W        W27482   0.611   0.825  13.331
55900W        W27483  29.021   2.554   0.356
55901W        W27484  10.873  44.734   0.442
55902W        W27485   5.386  38.840   0.846
55903W        W27486  37.052  21.075  14.124
55904W        W27487   0.858   3.318  12.459
55905W        W27488  30.479  39.349  10.968
55906W        W27489   9.880  11.581   5.020
55907W        W27490  12.079  31.923   0.282
55908W        W27491  21.730  11.001   2.603
55909W        W27492  39.583   8.784  11.896
55910W        W27493  15.260   4.354  11.387
55911W        W27494  28.645  41.461  10.714
55912W        W27495  13.114  43.186   3.478
55913W        W27496   3.652  27.149   3.597
55914W        W27497   8.664  37.960  13.745
55915W        W27498  44.950  16.273  13.028
55916W        W27499  28.493  41.295   1.327
55917W        W27500   4.801   3.250  14.086
55918W        W27501  30.936  22.987  14.920
55919W        W27502  17.773  20.322   3.386
55920W        W27503   5.892   4.048   4.682
55921W        W27504   8.313  39.875   3.096
55922W        W27505  38.311   3.914   3.404
55923W        W27506  44.080  39.443   0.870
55924W        W27507  36.954   8.898   1.763
55925W        W27508  29.933  32.358   2.385
55926W        W27509  12.321  29.716  13.079
55927W        W27510  23.239  17.577  12.632
55928W        W27511   5.067  38.520   4.218
55929W        W27512   3.482  26.786   3.211
55930W        W27513  22.653  30.873   4.520
55931W        W27514  38.935  23.576   4.060
55932W        W27515  19.481   1.962   3.812
55933W        W27516  25.561  43.582  14.813
55934W        W27517  44.976  23.581  13.138
55935W        W27518  16.798   4.705   1.778
55936W        W27519  17.682   3.440   3.161
55937W        W27520  40.872   8.129   1.899
55938W        W27521  38.230  18.732   2.803
55939W        W27522  38.932  38.540   3.858
55940W        W27523  27.468   2.727   4.407
55941W        W27524  28.425  33.575  13.382
55942W        W27525  37.491  39.289  11.496
55943W        W27526  15.733  25.359   1.631
55944W        W27527  31.426   9.852   0.739
55945W        W27528   6.060  32.242  11.884
55946W        W27529  17.039  21.818   2.171
55947W        W27530  13.674  20.615   4.292
55948W        W27531  32.546  42.578   4.750
55949W        W27532  40.465   1.296   3.189
55950W        W27533  13.160   6.995   4.577
55951W        W27534   4.726  39.075  13.951
55952W        W27535  26.953   1.037   4.179
55953W        W27536  16.136   0.077   2.163
55954W        W27537  21.866  33.824  14.378
55955W        W27538  28.630   0.075   2.209
55956W        W27539  30.377   0.862   1.390
55957W        W27540  33.563  24.666  11.937
55958W        W27541  40.484  11.713   1.311
55959W        W27542  16.780   5.026   3.391
55960W        W27543  22.990   7.860   2.860
55961W        W27544  44.814  22.099  12.510
55962W        W27545  27.430  32.515  13.330
55963W        W27546  23.109   6.751  12.567
55964W        W27547  26.010  35.410   0.297
55965W        W27548  20.482   5.880   4.015
55966W        W27549  31.116  26.733  10.142
55967W        W27550  18.182  24.376   4.146
55968W        W27551  24.080   6.458  10.689
55969W        W27552  24.199  26.464   1.473
55970W        W27553  18.146   6.028  11.593
55971W        W27554  37.117  18.112  12.843
55972W        W27555  33.433  38.882   3.181
55973W        W27556   1.137  43.419   4.611
55974W        W27557   8.232  35.459  13.977
55975W        W27558   6.883  40.855  12.968
55976W        W27559  20.088   8.391   5.268
55977W        W27560  39.066  11.604  11.481
55978W        W27561  25.862  31.649   2.250
55979W        W27562  36.102  26.230  14.045
55980W        W27563  42.031  17.242   2.788
55981W        W27564   3.795  18.616   3.089
55982W        W27565  10.753  39.213   3.773
55983W        W27566   7.446  20.679   0.813
55984W        W27567  42.670  32.182  14.788
55985W        W27568   6.578  29.485  11.087
55986W        W27569  18.104  34.683   2.112
55987W        W27570  21.518   9.284  14.944
55988W        W27571  16.547  41.795  12.668
55989W        W27572  17.396  33.510   3.767
55990W        W27573   3.764   9.600   1.216
55991W        W27574  22.134  17.070  12.430
55992W        W27575  29.850   9.908   0.929
55993W        W27576   9.740  25.555  10.889
55994W        W27577   6.310  37.402  12.842
55995W        W27578   3.839  18.777   2.604
55996W        W27579  35.795  43.560  13.502
55997W        W27580  40.310  34.455  11.184
55998W        W27581  28.195  42.378  14.278
55999W        W27582  35.337  31.049  13.080
56000W        W27583   2.306   1.959   2.750
56001W        W27584  13.123  25.629   4.950
56002W        W27585   7.082  41.916  14.861
56003W        W27586  18.286  12.603  14.469
56004W        W27587   9.911  23.340   1.565
56005W        W27588  38.471   2.225  12.112
56006W        W27589   3.255  34.042   3.896
56007W        W27590  36.028  41.306   2.482
56008W        W27591  43.494   9.869  12.517
56009W        W27592  24.490  25.052  14.783
56010W        W27593  16.069  36.243  13.538
56011W        W27594  22.207   9.723   4.567
56012W        W27595   4.154   1.056  11.183
56013W        W27596  32.150   8.260   3.636
56014W        W27597   6.979  44.298   0.748
56015W        W27598  20.710   7.262   0.863
56016W        W27599   7.454  19.509  13.413
56017W        W27600  24.779  12.519  13.313
56018W        W27601   8.082  39.441  12.600
56019W        W27602   3.787  12.810   1.842
56020W        W27603  34.019  28.683  14.424
56021W        W27604  37.232  39.415  10.647
56022W        W27605  26.406  31.906   1.926
56023W        W27606  12.932  39.905  14.266
56024W        W27607  18.486  16.374  14.900
56025W        W27608  22.343  40.152  11.977
56026W        W27609  43.943  30.439  13.065
56027W        W27610  18.087  18.499   0.781
56028W        W27611  31.129  26.073  14.803
56029W        W27612  36.557   4.775  12.443
56030W        W27613  44.430   5.867  10.851
56031W        W27614  17.215  33.993  13.882
56032W        W27615  43.993  34.597  14.738
56033W        W27616  15.559  38.082  14.320
56034W        W27617  43.139  38.403   4.046
56035W        W27618   8.922  15.724  10.588
56036W        W27619  40.970   0.892   4.292
56037W        W27620  24.288   0.920   4.651
56038W        W27621  27.020  30.435   3.715
56039W        W27622  39.381  13.337  13.035
56040W        W27623  23.463  41.981   4.456
56041W        W27624  39.838  27.413  11.861
56042W        W27625  24.477  28.638   2.686
56043W        W27626  43.073  44.887  13.007
56044W        W27627   7.837   5.568  12.386
56045W        W27628  13.338  32.983   1.846
56046W        W27629  13.843   4.494  11.142
56047W        W27630  41.390   4.835   0.308
56048W        W27631  19.598  41.074   1.345
56049W        W27632  41.648  31.170   4.231
56050W        W27633  10.936  36.618  14.421
56051W        W27634  15.050  38.921  13.936
56052W        W27635  32.697  30.646   1.367
56053W        W27636  25.717  22.613   3.827
56054W        W27637  13.912  28.164   2.723
56055W        W27638  36.426  26.056   2.696
56056W        W27639  37.930  30.414   1.271
56057W        W27640  21.234  34.429   0.436
56058W        W27641   4.984  33.582   1.263
56059W        W27642  13.241  13.972  11.627
56060W        W27643  20.329  25.853  11.530
56061W        W27644  30.091  29.402   3.114
56062W        W27645   6.180   4.648  12.095
56063W        W27646  21.461   5.398  14.290
56064W        W27647  16.989  25.053   3.145
56065W        W27648  32.374  18.726  11.344
56066W        W27649  37.709  37.340   9.941
56067W        W27650  17.667  34.728   2.370
56068W        W27651  40.114  20.239   3.522
56069W        W27652  42.266  37.054   1.738
56070W        W27653  41.582   0.785   0.945
56071W        W27654  34.399  14.810  11.038
56072W        W27655   9.434  22.624  14.028
56073W        W27656  33.110  18.456  14.264
56074W        W27657   2.635  12.869  11.604
56075W        W27658  20.770   0.737  11.559
56076W        W27659  11.869  29.014   3.752
56077W        W27660  28.697  23.708  11.570
56078W        W27661  14.023  11.264  13.495
56079W        W27662  12.236  22.731  12.068
56080W        W27663   9.461  16.153  11.871
56081W        W27664  12.302  30.563  14.804
56082W        W27665  29.159  26.559   1.255
56083W        W27666  15.283  40.189  12.942
56084W        W27667  20.720  19.603  13.755
56085W        W27668  41.814  44.749   4.439
56086W        W27669  18.224  16.264   4.222
56087W        W27670  18.066  13.896  14.442
56088W        W27671  25.268   1.757  10.632
56089W        W27672   7.901  17.742   1.126
56090W        W27673  28.590  35.530   0.749
56091W        W27674   6.101  28.559  12.490
56092W        W27675  32.502  26.645  10.540
56093W        W27676  18.458  25.551   5.013
56094W        W27677   5.675  32.483  12.560
56095W        W27678  10.214  13.834   2.710
56096W        W27679   8.405  18.596   4.536
56097W        W27680  15.018   1.466   0.933
56098W        W27681  16.196  22.708  11.673
56099W        W27682  31.495  18.480  12.980
56100W        W27683   6.683  40.599   4.267
56101W        W27684  16.373  23.187  14.908
56102W        W27685  32.607  39.511   0.679
56103W        W27686  27.296  15.146   2.127
56104W        W27687  41.465  36.903   4.322
56105W        W27688   5.926  32.091   2.679
56106W        W27689  12.093  21.744  10.582
56107W        W27690  24.000  34.185  14.871
56108W        W27691   7.907  36.308  14.658
56109W        W27692  28.158   7.287   4.488
56110W        W27693   7.221   9.726   4.482
56111W        W27694  17.724   1.363   0.391
56112W        W27695   3.903  25.970  11.175
56113W        W27696  23.414  31.847  14.912
56114W        W27697  34.318  10.446  10.662
56115W        W27698  20.618   5.182  14.281
56116W        W27699  15.206  37.101   1.128
56117W        W27700  27.873  30.773   1.704
56118W        W27701  12.010   8.159   4.120
56119W        W27702  42.140  38.226  12.597
56120W        W27703   9.158  44.926  13.601
56121W        W27704  21.506  12.198   2.188
56122W        W27705  25.906  15.529   2.892
56123W        W27706  35.415  14.153  13.671
56124W        W27707  26.585  27.303   0.467
56125W        W27708  18.173  42.077  14.499
56126W        W27709   2.762  44.816  13.999
56127W        W27710   0.450  26.614  11.965
56128W        W27711  18.599   8.364   1.671
56129W        W27712   9.646  28.233  13.058
56130W        W27713   4.308  18.242   3.870
56131W        W27714   5.882  31.877  10.197
56132W        W27715   4.802  35.785  12.539
56133W        W27716  11.432  29.886   4.990
56134W        W27717  40.520  15.796  13.993
56135W        W27718  29.123  33.407   1.286
56136W        W27719  28.229  19.125   2.783
56137W        W27720   8.526  30.196   3.306
56138W        W27721  26.256  31.590  12.872
56139W        W27722  11.192  20.822  10.687
56140W        W27723  26.656   9.820   1.955
56141W        W27724  12.885   1.265  12.604
56142W        W27725  24.706   8.132  11.926
56143W        W27726  14.736  33.955  13.421
56144W        W27727   8.226  32.371   4.077
56145W        W27728  42.992  12.156  10.379
56146W        W27729  43.303  18.018  11.963
56147W        W27730  28.485  39.306  13.760
56148W        W27731  32.380  17.754  11.118
56149W        W27732  18.916  25.585  12.493
56150W        W27733  40.519  23.106  12.797
56151W        W27734   4.935  36.611  10.707
56152W        W27735   4.178  31.507  12.410
56153W        W27736  25.448  23.629  11.374
56154W        W27737  15.728  29.881  13.813
56155W        W27738  34.002  38.431   2.705
56156W        W27739   1.242  27.033   1.811
56157W        W27740   5.254  43.001   4.579
56158W        W27741  19.977  12.758   4.700
56159W        W27742   2.311  20.803  14.949
56160W        W27743  43.917  25.573   2.404
56161W        W27744  19.757  28.338   5.614
56162W        W27745  25.564  15.894   0.809
56163W        W27746  27.998  41.748   9.944
56164W        W27747  28.939  32.537   0.161
56165W        W27748   3.294  41.915   0.104
56166W        W27749  25.050  23.191   1.509
56167W        W27750   8.312  13.748   2.264
56168W        W27751   6.076  39.951   1.659
56169W        W27752  27.012  38.864   2.938
56170W        W27753  31.159  40.108   0.362
56171W        W27754   0.998  33.305  12.062
56172W        W27755   3.839   5.405   1.359
56173W        W27756  18.054  19.274   2.619
56174W        W27757  29.722   7.390  12.668
56175W        W27758  30.646  24.555  11.467
56176W        W27759  20.310  30.451   4.487
56177W        W27760  20.646  32.795  10.665
56178W        W27761  40.993   5.481  12.096
56179W        W27762  23.901  29.195  12.708
56180W        W27763  14.380   9.012   0.372
56181W        W27764  24.911   2.423  14.396
56182W        W27765   7.456  10.294  13.438
56183W        W27766  30.995  13.967  13.049
56184W        W27767  25.422   2.828  13.395
56185W        W27768  21.283  35.279   2.659
56186W        W27769   1.535  44.822   0.383
56187W        W27770  43.277   6.773   2.682
56188W        W27771  34.940  34.211   3.789
56189W        W27772  43.197   5.498  12.712
56190W        W27773  19.102   1.282  12.989
56191W        W27774  17.569  32.106  10.281
56192W        W27775  28.514   9.373   4.158
56193W        W27776  44.240  38.607   4.692
56194W        W27777  18.341  12.203   3.191
56195W        W27778  31.113   6.170   4.989
56196W        W27779  14.513  19.250  11.988
56197W        W27780  22.098  38.068   1.812
56198W        W27781   4.623  27.411  14.519
56199W        W27782  33.817  37.069   3.158
56200W        W27783  13.770  15.387  13.462
56201W        W27784  28.215  39.405  11.160
56202W        W27785  33.426   8.419  13.623
56203W        W27786   5.916   8.992   0.787
56204W        W27787  15.597  34.157  11.202
56205W        W27788  28.326  41.080   2.566
56206W        W27789  16.423  26.085   0.998
56207W        W27790   2.744  41.961   3.666
56208W        W27791  31.553   1.438  13.975
56209W        W27792  19.751  18.826  11.107
56210W        W27793  13.811  22.199   4.626
56211W        W27794   5.772  35.190  10.746
56212W        W27795  35.441  40.822  14.351
56213W        W27796  15.118  24.675   0.276
56214W        W27797   6.214   0.654   3.625
56215W        W27798  15.728  22.631  10.783
56216W        W27799  35.549  30.354   1.982
56217W        W27800  32.957   6.676   0.701
56218W        W27801  18.689  37.785   0.435
56219W        W27802   9.908  17.412   0.857
56220W        W27803  12.103  39.443  13.073
56221W        W27804  26.769  34.847   2.201
56222W        W27805  26.213   5.028  14.942
56223W        W27806  13.679  33.190   2.835
56224W        W27807  12.250  37.549  12.988
56225W        W27808  27.458  36.680  12.563
56226W        W27809  37.411   7.401   2.262
56227W        W27810  41.846  18.959   3.177
56228W        W27811  35.335  22.031  11.629
56229W        W27812  32.873  10.429   3.001
56230W        W27813  16.740  33.697   1.206
56231W        W27814  30.275  21.352  10.614
56232W        W27815   9.417   0.757  13.883
56233W        W27816  41.499  42.467  13.885
56234W        W27817  31.649  26.070  14.868
56235W        W27818  16.599   2.028  13.830
56236W        W27819  39.067  44.305  12.231
56237W        W27820  24.084  29.674  10.663
56238W        W27821  12.554   8.751   1.489
56239W        W27822  18.854  12.170  14.929
56240W        W27823   5.311  30.893   4.324
56241W        W27824  19.782  27.487  11.125
56242W        W27825  17.462  28.702   4.108
56243W        W27826   4.892  23.393   4.541
56244W        W27827  15.662  20.252  13.948
56245W        W27828  27.523  38.670   0.796
56246W        W27829  33.558  32.881  10.768
56247W        W27830  28.687  30.074  13.479
56248W        W27831  13.513   4.178   1.852
56249W        W27832  25.465  27.556  11.513
56250W        W27833  40.632  44.537   4.053
56251W        W27834  26.579   9.569   5.410
56252W        W27835   7.611   8.896   1.371
56253W        W27836  40.112  39.599   4.234
56254W        W27837  42.818   0.412   2.426
56255W        W27838  11.838  22.331   2.167
56256W        W27839  29.168  33.132  12.642
56257W        W27840  34.930  43.484  14.287
56258W        W27841  26.705  20.555   0.027
56259W        W27842  41.996  19.780  10.776
56260W        W27843   5.229   8.785   4.660
56261W        W27844  29.634  44.007   4.566
56262W        W27845  16.567  20.553  13.351
56263W        W27846  32.146   4.624   2.772
56264W        W27847  29.263  18.612   0.274
56265W        W27848   1.399  39.916  13.667
56266W        W27849  20.307   9.921   0.211
56267W        W27850   7.787   8.281  13.826
56268W        W27851  13.816  24.395   2.240
56269W        W27852  16.572  33.124   3.688
56270W        W27853  37.428  31.087   1.701
56271W        W27854  10.828  37.840   0.280
56272W        W27855   3.100  43.819  12.941
56273W        W27856  18.155  40.614   0.540
56274W        W27857  38.049  40.610   5.023
56275W        W27858  11.615   1.401  14.043
56276W        W27859  28.563   3.806  14.536
56277W        W27860  40.375   8.165  14.935
56278W        W27861  25.964   5.883  11.539
56279W        W27862  35.584  19.290   1.651
56280W        W27863  22.650  15.115  10.738
56281W        W27864   0.545  13.141  13.500
56282W        W27865  23.687  43.781  10.913
56283W        W27866  17.774  16.624  10.967
56284W        W27867   3.202  38.614   1.734
56285W        W27868   0.062  15.151  14.613
56286W        W27869  40.286  40.254   0.016
56287W        W27870  22.986  29.255   4.102
56288W        W27871   5.369  27.727  11.304
56289W        W27872  28.765  22.391  10.280
56290W        W27873  35.057   1.422  13.239
56291W        W27874  33.091   2.498   2.897
56292W        W27875  33.673   5.645  12.082
56293W        W27876   7.838   4.375   2.580
56294W        W27877   3.712  24.236   0.517
56295W        W27878   5.690  33.639   0.246
56296W        W27879  24.997  21.559   0.850
56297W        W27880  18.734  15.231   3.611
56298W        W27881   7.376  36.077  12.091
56299W        W27882   8.741  20.705   1.384
56300W        W27883   8.312   8.753  13.847
56301W        W27884  32.426  39.735  14.376
56302W        W27885  11.624   4.684   0.859
56303W        W27886   3.486   6.798  13.736
56304W        W27887   7.333  21.741   3.772
56305W        W27888  35.248  37.382  12.562
56306W        W27889  10.658  44.745   2.274
56307W        W27890  16.825  24.884   1.066
56308W        W27891  27.696  36.238  12.666
56309W        W27892  35.590  18.888   1.970
56310W        W27893  14.425  16.103   2.648
56311W        W27894  34.111  42.438   4.234
56312W        W27895  29.654   5.699   3.288
56313W        W27896  24.990  26.166  11.116
56314W        W27897  16.593  43.859   4.683
56315W        W27898  13.776  41.699   4.563
56316W        W27899  25.155  25.022  13.387
56317W        W27900   2.014  18.588  12.081
56318W        W27901  10.238   5.761   2.324
56319W        W27902  28.577  20.776   4.714
56320W        W27903   2.759  42.290  13.844
56321W        W27904  33.908  16.675   0.275
56322W        W27905   3.357   0.898  11.664
56323W        W27906  33.427  31.978   4.266
56324W        W27907  29.023  28.595  10.843
56325W        W27908   3.369  27.021  14.152
56326W        W27909   2.779  11.579  13.026
56327W        W27910  41.390  40.547  12.047
56328W        W27911  24.243   9.309  14.277
56329W        W27912  34.820  27.124  14.869
56330W        W27913  39.898  20.582   3.848
56331W        W27914  43.361  22.877  10.014
56332W        W27915  19.086  16.739  14.455
56333W        W27916   1.462   7.893   2.881
56334W        W27917  38.926  12.199  14.712
56335W        W27918  37.832  22.226   2.085
56336W        W27919  15.622  39.482  14.432
56337W        W27920  38.549  42.339  10.812
56338W        W27921  44.990  33.933   3.216
56339W        W27922  33.898  11.940   0.958
56340W        W27923  27.494  37.897   3.307
56341W        W27924   7.010  35.859   4.208
56342W        W27925  38.581  38.472  12.772
56343W        W27926  33.696  30.814   0.445
56344W        W27927  27.477  16.822   3.591
56345W        W27928  35.051  36.529   0.402
56346W        W27929  17.769  26.950  14.316
56347W        W27930  13.806  42.374  13.593
56348W        W27931  16.382  33.413  12.955
56349W        W27932  15.765  11.989   3.159
56350W        W27933  36.684  26.156  11.380
56351W        W27934   9.712  36.007  12.053
56352W        W27935  10.204   9.608  11.641
56353W        W27936  18.240  28.477  14.124
56354W        W27937  44.027  29.868   1.385
56355W        W27938  37.989  22.717   4.133
56356W        W27939  30.945  39.044  12.160
56357W        W27940  37.421  27.012  13.946
56358W        W27941  21.118  11.103   2.168
56359W        W27942  41.242   9.936  11.437
56360W        W27943  30.874  20.616   1.826
56361W        W27944  42.730  40.650  13.446
56362W        W27945  26.268  14.760   3.214
56363W        W27946  13.501   6.305   3.779
56364W        W27947  39.018  44.045  14.401
56365W        W27948   6.779  37.082   1.870
56366W        W27949   5.309  21.441  12.001
56367W        W27950  40.057  22.847  11.261
56368W        W27951   5.462  36.873   1.479
56369W        W27952  15.734  35.867  11.152
56370W        W27953  36.879   4.198  10.815
56371W        W27954  27.400   6.829   0.349
56372W        W27955  36.831   3.204  11.545
56373W        W27956  29.927  10.641   1.576
56374W        W27957  25.256  41.491   1.802
56375W        W27958  17.683  26.449   1.405
56376W        W27959  34.852   6.571  13.014
56377W        W27960  31.171  38.104   1.836
56378W        W27961  25.689  20.635  14.810
56379W        W27962  37.685  12.676   3.928
56380W        W27963  43.318  36.579   1.244
56381W        W27964  13.819  19.476  11.584
56382W        W27965  19.794  26.699  13.621
56383W        W27966  35.631  15.796  13.047
56384W        W27967  14.658  41.084   3.758
56385W        W27968   7.074  28.349  14.347
56386W        W27969  11.908  17.550  11.518
56387W        W27970  25.740  23.577  13.906
56388W        W27971   3.971  44.430   4.313
56389W        W27972  41.992  35.384  14.232
56390W        W27973   3.689  32.986  12.418
56391W        W27974   0.030   4.884  11.593
56392W        W27975  34.917  32.325  12.601
56393W        W27976   0.338  18.463   2.203
56394W        W27977  20.761  35.170  12.824
56395W        W27978   6.553  30.961  14.229
56396W        W27979   8.157  10.798  12.340
56397W        W27980  20.621  15.032   3.787
56398W        W27981  16.084   9.431  13.533
56399W        W27982   8.647  30.583   4.161
56400W        W27983  40.767  25.411   0.492
56401W        W27984  17.030  25.025  10.211
56402W        W27985  32.046  26.407  12.861
56403W        W27986  12.005  30.971   4.248
56404W        W27987  26.509  11.750  14.884
56405W        W27988   2.203  41.246   2.607
56406W        W27989   7.803  44.510  14.563
56407W        W27990  36.997   1.870  12.804
56408W        W27991   0.425   4.608  13.351
56409W        W27992   7.275  14.988   1.351
56410W        W27993  38.417   4.112  13.960
56411W        W27994  23.955  40.280   3.246
56412W        W27995  41.017   9.864   3.140
56413W        W27996   5.726  13.370   2.949
56414W        W27997  23.097  12.897  11.135
56415W        W27998   8.305  15.064   0.310
56416W        W27999   3.456  38.306  13.038
56417W        W28000   8.086  23.026  12.849
56418W        W28001  34.984  16.036   2.212
56419W        W28002  26.182  43.006   1.123
56420W        W28003  35.923  42.533  13.392
56421W        W28004  19.057   7.314  12.885
56422W        W28005  24.284  39.345   0.013
56423W        W28006   5.062  19.109   1.992
56424W        W28007  34.460  42.956   1.786
56425W        W28008  24.079  11.165  11.128
56426W        W28009  27.434  25.573  13.451
56427W        W28010   2.871  16.098   1.767
56428W        W28011  12.760  22.059  12.345
56429W        W28012  24.929  35.020  13.401
56430W        W28013   2.918  35.760   3.255
56431W        W28014  25.195  20.995   1.671
56432W        W28015  17.403  25.022  13.035
56433W        W28016  20.591  17.790   4.811
56434W        W28017  30.469  37.856  14.528
56435W        W28018  19.567  11.711  12.876
56436W        W28019  21.938  13.324   0.911
56437W        W28020  28.155  23.799  11.519
56438W        W28021  13.125  14.622   1.967
56439W        W28022  35.481  13.630   4.368
56440W        W28023   4.212   9.386   1.513
56441W        W28024   1.510  39.858  11.034
56442W        W28025  16.697  26.500  14.728
56443W        W28026  20.526  43.400  13.340
56444W        W28027  39.793  10.781   2.875
56445W        W28028   4.851  26.771  10.282
56446W        W28029  29.430  21.117  14.380
56447W        W28030  20.529  25.601   4.959
56448W        W28031  25.873  31.214   0.803
56449W        W28032   2.844  42.013   0.335
56450W        W28033  31.999  24.800  11.193
56451W        W28034  40.837  31.639  13.015
56452W        W28035  33.113  37.093   3.777
56453W        W28036  21.107   6.650  10.955
56454W        W28037  16.434   9.764  13.805
56455W        W28038   4.833  23.574   4.066
56456W        W28039  18.903  17.353  12.477
56457W        W28040  12.427  29.686   1.181
56458W        W28041   6.680   1.891  10.576
56459W        W28042  32.508  32.627   1.358
56460W        W28043   0.742  40.332   3.617
56461W        W28044  20.122  44.503   0.332
56462W        W28045  16.792   8.339   4.086
56463W        W28046  28.989  44.552  14.394
56464W        W28047  26.159  18.811   3.622
56465W        W28048  25.549  13.785   1.884
56466W        W28049   6.293  20.857   0.003
56467W        W28050  27.174   0.551   0.340
56468W        W28051  23.740   7.927   3.688
56469W        W28052  38.636  22.714   3.276
56470W        W28053   0.676   6.860   0.502
56471W        W28054  26.771  31.586  12.783
56472W        W28055   8.915  22.895  11.241
56473W        W28056  37.454  41.707  12.080
56474W        W28057  39.564  26.493  14.302
56475W        W28058  20.296  42.546   2.745
56476W        W28059  10.147   6.292   1.635
56477W        W28060  18.035  15.514  14.757
56478W        W28061  32.630  31.200   1.224
56479W        W28062   3.661  42.412   3.593
56480W        W28063  34.172  34.092  13.530
56481W        W28064  29.400  17.757  10.733
56482W        W28065  37.644  16.112  14.734
56483W        W28066  44.501  16.744  11.677
56484W        W28067   4.713  33.449  10.395
56485W        W28068  12.879   4.229  14.298
56486W        W28069  38.574  13.408  11.143
56487W        W28070  18.007   7.752  13.546
56488W        W28071  35.440  38.785   4.111
56489W        W28072  25.692  23.207  13.350
56490W        W28073  19.335  43.162  11.296
56491W        W28074  14.769  39.042  12.167
56492W        W28075  34.920  13.591  13.024
56493W        W28076   6.438  41.241   0.875
56494W        W28077   6.855   1.552  13.115
56495W        W28078  25.223  16.821   4.546
56496W        W28079   5.850  43.848  10.580
56497W        W28080  14.114  18.665  11.495
56498W        W28081  27.057  23.598   4.812
56499W        W28082  22.223  29.131  14.046
56500W        W28083   7.074  38.523  12.540
56501W        W28084  40.549  14.299   1.425
56502W        W28085  13.075  32.528   1.965
56503W        W28086  14.210  30.603  10.645
56504W        W28087   1.140  30.621   2.724
56505W        W28088   2.887  42.724  13.503
56506W        W28089  41.911  29.618  11.294
56507W        W28090   9.820  13.768   2.397
56508W        W28091  35.608  25.252   2.081
56509W        W28092   8.147  24.315  10.739
56510W        W28093  40.129  28.693  13.949
56511W        W28094  24.679  35.014  12.885
56512W        W28095   1.378  21.039   1.483
56513W        W28096   5.049  16.046  10.968
56514W        W28097  43.806  40.812   0.845
56515W        W28098   9.355  38.978   3.689
56516W        W28099  12.350   9.841  11.118
56517W        W28100  23.196  12.179  14.946
56518W        W28101  25.759  36.779   4.191
56519W        W28102  16.148  19.629   0.670
56520W        W28103  16.320  39.903   3.585
56521W        W28104  41.443  42.007   1.331
56522W        W28105   3.091   9.336  13.413
56523W        W28106  15.697  41.672  14.705
56524W        W28107  29.980  25.050  11.492
56525W        W28108   9.749   1.283  12.384
56526W        W28109  23.739  37.489   1.455
56527W        W28110  40.871  42.872  13.163
56528W        W28111  22.720  38.655   1.334
56529W        W28112  39.354  42.721   2.258
56530W        W28113  20.319  39.481   1.748
56531W        W28114  10.944  37.531  12.582
56532W        W28115  40.430  40.366  13.667
56533W        W28116  25.959   1.433  14.517
56534W        W28117   1.650  32.230   2.873
56535W        W28118  12.097  25.584   2.131
56536W        W28119   8.919   8.958   4.993
56537W        W28120  38.389  23.133   3.092
56538W        W28121   2.465  42.879   1.289
56539W        W28122  14.318  38.777  14.422
56540W        W28123  19.969  17.119  10.652
56541W        W28124   3.206  37.364  12.083
56542W        W28125  44.534   3.936   2.643
56543W        W28126  37.099  28.564   3.236
56544W        W28127  40.905   6.344  14.245
56545W        W28128  37.509  19.163   3.178
56546W        W28129  41.223  34.326   1.267
56547W        W28130   8.161  31.857  13.838
56548W        W28131  43.887  27.427  11.015
56549W        W28132  44.206   6.522  11.605
56550W        W28133   2.750  19.599  14.489
56551W        W28134  12.949  29.013  11.626
56552W        W28135   1.775   6.635  13.886
56553W        W28136  40.465   0.408   0.216
56554W        W28137  19.718  44.815  11.519
56555W        W28138  36.976   6.247  14.278
56556W        W28139  38.793  33.436  12.949
56557W        W28140   8.627  22.522   1.463
56558W        W28141  13.615  41.808   1.902
56559W        W28142  18.526   3.880   4.103
56560W        W28143  16.285  14.139  10.730
56561W        W28144   1.282   4.163   1.428
56562W        W28145   5.958   7.697   2.803
56563W        W28146  30.393   9.936  14.501
56564W        W28147  42.353  23.213   2.189
56565W        W28148  30.403  34.913  11.171
56566W        W28149  19.668   5.896  12.518
56567W        W28150  33.183  27.942   4.716
56568W        W28151  21.738  25.430   1.933
56569W        W28152  44.308  37.313   2.360
56570W        W28153  30.720  29.806  14.288
56571W        W28154  35.426  26.978   1.890
56572W        W28155  20.856   4.279   2.091
56573W        W28156   1.336  44.927   1.352
56574W        W28157   4.285  44.753   1.262
56575W        W28158  29.893  43.843   4.109
56576W        W28159  27.086   3.052  12.482
56577W        W28160  20.529  17.727  13.254
56578W        W28161  35.791  29.348  10.935
56579W        W28162  34.114  20.154  13.575
56580W        W28163   1.745  35.619  13.790
56581W        W28164  13.993  24.039  14.960
56582W        W28165  19.033  19.658   0.340
56583W        W28166  23.863   9.802   3.100
56584W        W28167  39.894  14.086  13.420
56585W        W28168   5.214  15.416   3.613
56586W        W28169   5.859  13.701  11.711
56587W        W28170  41.506  42.478  11.557
56588W        W28171   4.272  44.085   2.829
56589W        W28172  41.612  19.075   3.989
56590W        W28173   7.306  23.511  12.089
56591W        W28174  27.195  27.221  14.796
56592W        W28175  43.768   6.847  14.678
56593W        W28176  35.777  19.118   2.800
56594W        W28177   6.830  44.415   4.308
56595W        W28178  15.842  40.407  12.003
56596W        W28179  11.451  27.858   3.203
56597W        W28180  36.972   9.354   4.690
56598W        W28181  24.143  27.208   0.742
56599W        W28182  43.298   4.032  12.955
56600W        W28183   2.793  15.430  14.269
56601W        W28184  23.589  31.937  11.179
56602W        W28185   9.264  20.543   1.439
56603W        W28186  39.798  16.364  12.846
56604W        W28187  34.459   8.707   3.672
56605W        W28188   4.509  15.851   1.209
56606W        W28189  33.525  30.923   4.279
56607W        W28190  34.953  38.345   4.777
56608W        W28191  12.576  43.305   3.318
56609W        W28192   7.892  35.862  14.976
56610W        W28193   9.276  32.897  10.657
56611W        W28194  29.452   3.682   3.325
56612W        W28195  31.625  37.453  12.604
56613W        W28196   4.719  11.307  13.019
56614W        W28197  24.693   1.880   2.781
56615W        W28198  27.087  19.627  13.092
56616W        W28199   5.809  31.513  12.731
56617W        W28200  43.282  32.905  14.752
56618W        W28201  36.947  19.777  11.857
56619W        W28202  21.783  40.927  13.021
56620W        W28203  11.340  16.310  10.576
56621W        W28204  21.460  21.708   3.673
56622W        W28205  34.411  14.847  12.010
56623W        W28206  23.150  28.625  13.082
56624W        W28207  41.440  31.176  10.511
56625W        W28208  10.776  15.880  10.020
56626W        W28209  12.258   0.970   1.753
56627W        W28210  10.332  16.731  12.945
56628W        W28211   4.303  43.025   4.590
56629W        W28212  35.681  39.437   1.975
56630W        W28213  14.282  17.604   0.912
56631W        W28214   2.415  26.456   2.312
56632W        W28215   8.847  17.303   4.108
56633W        W28216  18.758  38.370   4.296
56634W        W28217  25.339  32.364   3.497
56635W        W28218  10.779   6.603  11.534
56636W        W28219  15.129  15.360   0.910
56637W        W28220  34.317  44.538   4.465
56638W        W28221  10.629  31.997  14.379
56639W        W28222  25.109   4.336   0.669
56640W        W28223  22.701  27.454  11.041
56641W        W28224  42.479  18.365   3.232
56642W        W28225  10.122  44.376   2.589
56643W        W28226  11.790  34.907   2.957
56644W        W28227   9.282  33.997  11.598
56645W        W28228  23.630  38.847  13.985
56646W        W28229  23.079  40.773   2.184
56647W        W28230  38.748  40.934   4.606
56648W        W28231  14.021  17.302  11.303
56649W        W28232   1.579  32.515   3.287
56650W        W28233  11.394  19.991   1.283
56651W        W28234   3.488  20.655  11.508
56652W        W28235  17.569  36.816  13.446
56653W        W28236  30.256   8.471  11.702
56654W        W28237  21.661  26.145   4.319
56655W        W28238   9.330   6.196  14.486
56656W        W28239  27.433   3.475   1.765
56657W        W28240   2.483  44.075  14.835
56658W        W28241  22.776  15.214  12.057
56659W        W28242  12.334  41.881  11.437
56660W        W28243  44.240  29.209  11.616
56661W        W28244  38.546   4.022   0.838
56662W        W28245   2.750  33.143   1.870
56663W        W28246   5.132  11.553  12.069
56664W        W28247  44.230  21.919   1.040
56665W        W28248  10.893  20.567   0.056
56666W        W28249  37.294  23.905   4.748
56667W        W28250   3.413   6.923  10.487
56668W        W28251  14.867  22.688  11.055
56669W        W28252  36.196  38.566  13.774
56670W        W28253   7.268  34.024   0.720
56671W        W28254  13.625  10.850  14.533
56672W        W28255  25.997  25.129   3.707
56673W        W28256  40.623  20.283  12.876
56674W        W28257  25.677  10.853  10.277
56675W        W28258  37.443   2.225   5.153
56676W        W28259   8.366  35.687  11.914
56677W        W28260  21.581  24.256   4.184
56678W        W28261  27.980  27.612   3.167
56679W        W28262  20.070  29.707   2.188
56680W        W28263   6.303   3.779   4.903
56681W        W28264  20.752  28.052   4.056
56682W        W28265  37.329  12.219   0.331
56683W        W28266  42.323  25.701   1.893
56684W        W28267  35.085  40.408   4.641
56685W        W28268  44.209  12.105   5.040
56686W        W28269  38.700  33.812   1.287
56687W        W28270  11.762   1.292  11.959
56688W        W28271   8.761   5.740  13.937
56689W        W28272  18.137  30.597   4.086
56690W        W28273  12.219   1.294   2.714
56691W        W28274   8.969  18.537   5.220
56692W        W28275   4.027  22.067   2.925
56693W        W28276  44.882  43.269   1.968
56694W        W28277  10.254  19.779  13.535
56695W        W28278  24.510  32.908  11.541
56696W        W28279   7.432  41.090   3.709
56697W        W28280  32.367   0.251  11.357
56698W        W28281  39.159  32.298   2.770
56699W        W28282   1.090   0.710  13.472
56700W        W28283  31.032  29.150   1.812
56701W        W28284  23.605  30.806  14.899
56702W        W28285  13.422  30.756  11.783
56703W        W28286  18.968   0.761  12.174
56704W        W28287  39.489  41.371  11.221
56705W        W28288  22.227  15.045   1.472
56706W        W28289  18.966  27.669  14.971
56707W        W28290  40.869  21.262  12.116
56708W        W28291  11.432   8.761   1.341
56709W        W28292   1.456   0.700  14.986
56710W        W28293  29.689  38.630   3.618
56711W        W28294  16.203   9.189  12.496
56712W        W28295  23.708  21.897   3.648
56713W        W28296  13.240  37.624   0.318
56714W        W28297   1.182  10.688   1.431
56715W        W28298  38.122   8.617   1.361
56716W        W28299   0.480  10.045  11.956
56717W        W28300   9.259  36.019  14.872
56718W        W28301  15.325  30.568   1.351
56719W        W28302  30.769  37.623  11.174
56720W        W28303  31.780  42.143  12.506
56721W        W28304  19.494  22.365   0.796
56722W        W28305  27.574  31.866  12.888
56723W        W28306  20.153  23.684  13.559
56724W        W28307  16.113  28.438   3.177
56725W        W28308  39.611   7.214   3.777
56726W        W28309  24.189  30.713   0.809
56727W        W28310  30.072  43.600   0.667
56728W        W28311  13.121  43.015   2.111
56729W        W28312   9.821  27.742  11.851
56730W        W28313   0.719   2.860   1.374
56731W        W28314  27.191  39.035   4.908
56732W        W28315  18.654   2.779  11.458
56733W        W28316  37.002  26.710  12.587
56734W        W28317  31.913  14.725   2.877
56735W        W28318  42.257  29.208  10.618
56736W        W28319   3.148  19.301   4.206
56737W        W28320  16.819   1.769  10.785
56738W        W28321  27.760  30.023  14.883
56739W        W28322   6.396  35.883  11.148
56740W        W28323  28.590  18.937   0.201
56741W        W28324  18.162  32.629  13.106
56742W        W28325   8.948  19.755   4.773
56743W        W28326  34.814  34.345   2.280
56744W        W28327  11.259  41.381  12.595
56745W        W28328  34.701   3.178   5.091
56746W        W28329  10.242  22.544   1.789
56747W        W28330  16.997  24.561   2.760
56748W        W28331  36.324   2.782  12.059
56749W        W28332  25.210  30.019   1.935
56750W        W28333  36.925  12.486   3.990
56751W        W28334  18.198  27.428  10.522
56752W        W28335  42.292  18.869  13.468
56753W        W28336  16.017  23.697   2.719
56754W        W28337   7.596  19.736   4.931
56755W        W28338  23.241  14.315  11.029
56756W        W28339   9.688   3.843   2.069
56757W        W28340  11.416  43.537  12.588
56758W        W28341  29.898   1.579   2.843
56759W        W28342  35.150  15.784   2.643
56760W        W28343  35.659  25.304  12.144
56761W        W28344  17.553  16.322  13.681
56762W        W28345  44.569  15.451  12.552
56763W        W28346  44.369  26.944   3.470
56764W        W28347  36.489   3.267  13.775
56765W        W28348  33.834   8.792   2.732
56766W        W28349   2.460   0.933   1.826
56767W        W28350  38.657  16.101  10.502
56768W        W28351  27.158  16.028   0.767
56769W        W28352  28.771  24.735   4.310
56770W        W28353  37.163  36.063  12.110
56771W        W28354  29.345   1.448  10.550
56772W        W28355  25.144  11.823   2.818
56773W        W28356  37.453  20.052   3.775
56774W        W28357  30.380  21.331  14.470
56775W        W28358   1.498   3.003   1.710
56776W        W28359  19.153  24.297   5.004
56777W        W28360   5.809  10.920  10.557
56778W        W28361  10.229   5.175   2.236
56779W        W28362  18.914   9.842   4.762
56780W        W28363   6.678  33.359   0.462
56781W        W28364  10.314  38.067  11.896
56782W        W28365  12.475  37.829   3.721
56783W        W28366  31.107  37.043   0.190
56784W        W28367  16.566  37.817   1.903
56785W        W28368   6.906  17.225   4.779
56786W        W28369  12.206   5.824   0.009
56787W        W28370  21.487  42.379   0.293
56788W        W28371  17.303  27.115   4.352
56789W        W28372  26.371  27.390   4.122
56790W        W28373  16.819  31.156   4.585
56791W        W28374  42.356  23.007  12.522
56792W        W28375  15.711   3.834  12.003
56793W        W28376  16.211  19.552   1.174
56794W        W28377  43.033  10.747  12.037
56795W        W28378  33.834  18.245   0.946
56796W        W28379  27.627   2.802  13.478
56797W        W28380  37.672  36.220   5.119
56798W        W28381   8.967  40.797   3.735
56799W        W28382  37.053  27.003   0.981
56800W        W28383  32.432  32.595  10.515
56801W        W28384   4.444  15.531   3.736
56802W        W28385  25.804  42.285  14.051
56803W        W28386  33.368  34.820  14.536
56804W        W28387  29.091  18.809  11.964
56805W        W28388  38.964  19.731   0.199
56806W        W28389   8.186  18.046   4.093
56807W        W28390   8.585  24.107  12.021
56808W        W28391   7.268  32.049   0.353
56809W        W28392  34.563   4.375   0.352
56810W        W28393   3.359  25.400  12.037
56811W        W28394  22.504  30.580  13.393
56812W        W28395  21.192   0.794  13.776
56813W        W28396   7.942  23.730   4.400
56814W        W28397  29.738  37.963   0.822
56815W        W28398  32.853  12.613  11.847
56816W        W28399   0.353  43.242   0.790
56817W        W28400  14.099  33.667  12.163
56818W        W28401  40.240   5.729   3.313
56819W        W28402  38.031   9.980  10.899
56820W        W28403  15.828  34.452  12.950
56821W        W28404  22.613  29.306  11.483
56822W        W28405  26.639   3.736   3.112
56823W        W28406  42.818  14.869  14.833
56824W        W28407  22.432   3.932   0.174
56825W        W28408  11.816  42.041  14.128
56826W        W28409  36.498  11.450   0.530
56827W        W28410  22.664   8.919   1.965
56828W        W28411  32.339  37.009  13.769
56829W        W28412  16.236  40.028   2.614
56830W        W28413  37.396  35.980   1.377
56831W        W28414  12.324  12.800  10.461
56832W        W28415  25.617   7.785   4.652
56833W        W28416  33.141  28.624   4.032
56834W        W28417  17.628  22.022  13.402
56835W        W28418  38.186  24.290   4.085
56836W        W28419   8.424   6.376   2.680
56837W        W28420  15.271  25.516   2.881
56838W        W28421   5.636  29.988   2.567
56839W        W28422  10.245  18.175   0.077
56840W        W28423   7.393   8.431   1.921
56841W        W28424  13.488   8.140   1.308
56842W        W28425  19.213   3.779   2.760
56843W        W28426   9.809  37.658   3.546
56844W        W28427  34.904  23.117  10.708
56845W        W28428  27.160  28.838  14.447
56846W        W28429  40.005  27.040   4.957
56847W        W28430  14.134  13.228   2.320
56848W        W28431  31.115  33.845   1.346
56849W        W28432  31.190   3.836  14.402
56850W        W28433  43.095  34.587  14.785
56851W        W28434  43.813  26.026  12.604
56852W        W28435  36.574  31.471   1.838
56853W        W28436  30.606  40.277  13.180
56854W        W28437  26.616  11.960  12.938
56855W        W28438  20.869  40.324   0.849
56856W        W28439   6.507  32.497  11.973
56857W        W28440   4.243  31.494  10.645
56858W        W28441   4.916  33.855   0.806
56859W        W28442  26.536  12.040  10.322
56860W        W28443  22.077  20.355  11.941
56861W        W28444  23.875  30.088   1.633
56862W        W28445  34.069  18.263  12.250
56863W        W28446  30.448  24.085   3.638
56864W        W28447   0.313  18.605  14.086
56865W        W28448   5.450  21.986   1.390
56866W        W28449   2.863  40.004  13.440
56867W        W28450  11.714  28.156  13.982
56868W        W28451  24.092   8.807   3.331
56869W        W28452  15.343   6.135   0.807
56870W        W28453  33.128   0.826  11.859
56871W        W28454  16.224  10.664  12.872
56872W        W28455   6.798  39.833  11.693
56873W        W28456   5.154  32.175   3.715
56874W        W28457   0.434   8.536   1.944
56875W        W28458  15.600   0.095  12.096
56876W        W28459  19.068  35.133   2.577
56877W        W28460  40.301  33.410   1.347
56878W        W28461   4.030  28.895  11.269
56879W        W28462  43.535  19.119  10.518
56880W        W28463  37.301   5.047   3.173
56881W        W28464  20.189  13.275   3.847
56882W        W28465  24.247  36.980   3.221
56883W        W28466  11.390  12.814   4.563
56884W        W28467   2.135  37.941  13.842
56885W        W28468  28.381  37.936  12.046
56886W        W28469  22.621  40.347  13.911
56887W        W28470  41.324  18.458  12.535
56888W        W28471  27.030  30.883   1.170
56889W        W28472  10.117  12.852  10.506
56890W        W28473  18.799  25.071   1.833
56891W        W28474  37.397   4.973  14.786
56892W        W28475  11.674  43.847   3.293
56893W        W28476  44.945  13.547   3.296
56894W        W28477  39.909  18.247   1.218
56895W        W28478   7.809  32.524   3.813
56896W        W28479  43.936  25.826   3.754
56897W        W28480   8.391  16.852  12.943
56898W        W28481  16.868  11.808   2.135
56899W        W28482  33.185  31.513  14.843
56900W        W28483   9.070  19.659  11.025
56901W        W28484  33.090   7.309  11.854
56902W        W28485   0.976   5.316   3.832
56903W        W28486  35.495  17.664  11.201
56904W        W28487  23.749   1.972   1.855
56905W        W28488  36.336  34.422   4.094
56906W        W28489   4.868  19.113  14.933
56907W        W28490  25.689  26.271   4.635
56908W        W28491  21.252  30.956   3.798
56909W        W28492  27.046   0.215  10.595
56910W        W28493   5.160  39.814   2.081
56911W        W28494  13.440  38.783   2.658
56912W        W28495  35.111  20.501   3.241
56913W        W28496  18.806  32.023  10.608
56914W        W28497  33.062   6.300   2.068
56915W        W28498   7.282   2.919   2.293
56916W        W28499   5.771   5.839   3.679
56917W        W28500  43.863   0.977  12.220
56918W        W28501  21.250   6.365   3.832
56919W        W28502  14.203   7.852   0.875
56920W        W28503   7.943  38.803  13.509
56921W        W28504  26.466   0.130   2.298
56922W        W28505  33.032  12.951   0.858
56923W        W28506  10.816   1.775  11.549
56924W        W28507   0.895  27.675  13.767
56925W        W28508  27.545  24.393   2.499
56926W        W28509  30.951  12.341  13.847
56927W        W28510  21.260  35.034   3.795
56928W        W28511  10.265  25.383  12.582
56929W        W28512   6.171   0.935  10.741
56930W        W28513   0.055  25.009  14.019
56931W        W28514  18.964  35.728  10.980
56932W        W28515  16.237   9.831   4.822
56933W        W28516  39.897  16.308   0.727
56934W        W28517  42.989  32.790  11.178
56935W        W28518  21.531  39.007   3.588
56936W        W28519  27.737  35.521  11.986
56937W        W28520  19.317  27.055   2.639
56938W        W28521  27.626   1.355  14.516
56939W        W28522  41.356   7.179  10.386
56940W        W28523  20.322   1.507   0.841
56941W        W28524  36.561  19.281  10.625
56942W        W28525  35.894  16.804   1.708
56943W        W28526   0.831  35.281  11.439
56944W        W28527   4.169  11.789  12.002
56945W        W28528  18.211  28.918   4.529
56946W        W28529  36.171  43.720   2.249
56947W        W28530  20.979  23.834   9.978
56948W        W28531  13.091   6.698  11.164
56949W        W28532   8.160  22.458   1.211
56950W        W28533  36.027   2.487   3.873
56951W        W28534  31.017   3.914  11.659
56952W        W28535  17.999  27.039   3.084
56953W        W28536   1.492   5.778   2.792
56954W        W28537   1.339   7.689   2.409
56955W        W28538  27.390   0.845   4.491
56956W        W28539  41.822  38.339   0.887
56957W        W28540  16.617  17.825  12.673
56958W        W28541  24.906  30.384   4.232
56959W        W28542  22.561  43.749   4.527
56960W        W28543   4.162  34.522  14.232
56961W        W28544  34.890  32.649   1.752
56962W        W28545  40.839  35.563  11.116
56963W        W28546  33.463  42.329  11.891
56964W        W28547  14.255  12.307  14.215
56965W        W28548  10.460  21.087  12.601
56966W        W28549   8.108  42.969   0.776
56967W        W28550  18.932  25.618   1.306
56968W        W28551  27.752  30.347   3.348
56969W        W28552  20.948  20.796   4.362
56970W        W28553  11.264  21.673  12.644
56971W        W28554   2.435  41.372   4.534
56972W        W28555   0.424  38.330   3.207
56973W        W28556  40.562  15.313  13.131
56974W        W28557  23.268  17.816   4.243
56975W        W28558  13.057  25.564  13.347
56976W        W28559  24.619  29.562  12.336
56977W        W28560  17.232  24.086   2.354
56978W        W28561  17.619  43.282   2.098
56979W        W28562  35.398  37.039   4.768
56980W        W28563   8.341  31.114  11.245
56981W        W28564  29.667  38.452  13.339
56982W        W28565  22.014   8.965   1.333
56983W        W28566  16.069  33.455  11.041
56984W        W28567  39.451  41.576  14.674
56985W        W28568  42.973   7.339  12.899
56986W        W28569  34.947  42.607   2.813
56987W        W28570  19.403  19.655   5.040
56988W        W28571  17.579  11.315  14.355
56989W        W28572   1.938  23.713   1.850
56990W        W28573  32.329  24.379  10.451
56991W        W28574  33.022  21.660   1.951
56992W        W28575  44.465   8.796   1.446
56993W        W28576  13.299  34.716  12.116
56994W        W28577  31.489  37.368   3.203
56995W        W28578  39.026  10.164   4.183
56996W        W28579  30.003   4.395  14.400
56997W        W28580  38.606  12.553   0.702
56998W        W28581  36.046  32.071  10.661
56999W        W28582  20.669  28.137  11.673
57000W        W28583  23.162  34.516   3.956
57001W        W28584  41.886  35.478   4.897
57002W        W28585  44.315  36.844  12.352
57003W        W28586  17.344  39.400  11.868
57004W        W28587  41.987  41.058  10.334
57005W        W28588  37.337  11.590  11.078
57006W        W28589  31.894  29.323   3.317
57007W        W28590   2.545  41.057  13.935
57008W        W28591   2.125  30.849   2.699
57009W        W28592   9.560  25.199  12.670
57010W        W28593  13.160  17.087  10.832
57011W        W28594  29.487  10.244  11.179
57012W        W28595  23.283  13.813  14.707
57013W        W28596  30.099   4.992   3.413
57014W        W28597   8.199  37.161   4.367
57015W        W28598  30.215  35.923   3.215
57016W        W28599  34.418   1.316  11.572
57017W        W28600  13.786  44.616  10.243
57018W        W28601  28.719   4.144  11.710
57019W        W28602  18.225  41.807   2.371
57020W        W28603  27.109  15.093  13.400
57021W        W28604   1.189   9.484   2.224
57022W        W28605  33.408  36.860   3.433
57023W        W28606  31.177  23.181   0.371
57024W        W28607  36.491  25.136  12.774
57025W        W28608   1.769  36.809   0.871
57026W        W28609  18.724  33.896  12.773
57027W        W28610  29.418  12.329   4.136
57028W        W28611  32.989   8.638  13.946
57029W        W28612  35.560  29.726  13.935
57030W        W28613  13.877  24.219  14.470
57031W        W28614  32.104  22.985  11.947
57032W        W28615  42.345  44.021  14.351
57033W        W28616   6.638  40.839  14.711
57034W        W28617   0.928   9.675  10.513
57035W        W28618  29.500  30.755   4.806
57036W        W28619  37.509  30.940   3.873
57037W        W28620  38.849  12.903   3.126
57038W        W28621  40.455  43.209   4.793
57039W        W28622  10.148  12.869  11.646
57040W        W28623  31.207  20.782   0.446
57041W        W28624   3.712  36.547   3.582
57042W        W28625  43.319  16.862  13.089
57043W        W28626   7.346   3.693   0.421
57044W        W28627  37.918  30.609   3.700
57045W        W28628  33.823  26.689  13.029
57046W        W28629  19.614   3.359   4.167
57047W        W28630  39.376  20.581   4.644
57048W        W28631  20.502  17.105   0.830
57049W        W28632  21.728  35.423   2.879
57050W        W28633  28.896  38.016   2.029
57051W        W28634   5.310  14.277   4.615
57052W        W28635  42.743  42.958   4.493
57053W        W28636  15.702  21.690  10.383
57054W        W28637  42.248   2.444  12.567
57055W        W28638  15.012  19.272  11.921
57056W        W28639  43.903  22.896  13.731
57057W        W28640  35.372  38.061  11.800
57058W        W28641  41.259   4.316   2.634
57059W        W28642  21.532  43.272  10.979
57060W        W28643  12.582   7.921  13.857
57061W        W28644  28.673  32.883   2.806
57062W        W28645  29.093  35.867   3.237
57063W        W28646  34.540   3.632  14.807
57064W        W28647   2.014  18.241   0.928
57065W        W28648  19.889  28.225   3.680
57066W        W28649  44.361  10.381  12.438
57067W        W28650  20.667  24.953  10.750
57068W        W28651  17.526   3.306   1.680
57069W        W28652  19.506  19.106  11.656
57070W        W28653   4.498   2.816   2.287
57071W        W28654  37.613  26.082   0.699
57072W        W28655  43.051   4.675  11.696
57073W        W28656  31.938   1.465  14.941
57074W        W28657   6.412   6.406  10.222
57075W        W28658  28.628  20.549   4.228
57076W        W28659  11.670   6.393  12.439
57077W        W28660  22.261  24.940  13.179
57078W        W28661  15.303  37.928  10.494
57079W        W28662  17.856  17.031  14.840
57080W        W28663   2.477  29.237   0.784
57081W        W28664  39.780  12.472  14.743
57082W        W28665   3.260  42.732  10.743
57083W        W28666  12.621   1.941   0.845
57084W        W28667   7.834   8.096   2.826
57085W        W28668  11.099  17.690  12.516
57086W        W28669   4.265  40.954   0.311
57087W        W28670  24.031  44.944   1.946
57088W        W28671  11.313  11.773   0.674
57089W        W28672  17.432  41.795   3.202
57090W        W28673  21.755  15.092   1.696
57091W        W28674  23.661  19.639  12.502
57092W        W28675  12.155  26.991   2.505
57093W        W28676   0.320  21.929   4.807
57094W        W28677  18.086  14.964   0.297
57095W        W28678   2.485  22.660  11.697
57096W        W28679   8.295   8.902   3.639
57097W        W28680   5.795  10.537  14.842
57098W        W28681  36.202  13.253   1.814
57099W        W28682  29.641  29.669   0.931
57100W        W28683  26.173   6.911   1.094
57101W        W28684  33.433  22.442  10.290
57102W        W28685  20.201  13.197  12.613
57103W        W28686  11.298  39.024   0.928
57104W        W28687  12.857  44.294  10.623
57105W        W28688  38.917  38.065   0.419
57106W        W28689  31.145  39.788   3.988
57107W        W28690   5.208  16.375   2.087
57108W        W28691   4.955   9.216  10.741
57109W        W28692  14.724  30.132  12.244
57110W        W28693   0.989  12.280   2.132
57111W        W28694  12.283  11.335  11.965
57112W        W28695   5.706  36.366   0.441
57113W        W28696   7.852   9.060   4.599
57114W        W28697  16.110   1.428   4.222
57115W        W28698  38.830  28.013   4.533
57116W        W28699  38.423  28.357  13.464
57117W        W28700  24.051  40.822   4.153
57118W        W28701  11.267  12.094  11.599
57119W        W28702  12.650  33.076  10.668
57120W        W28703  31.603  33.697   0.225
57121W        W28704   7.953  14.816  13.319
57122W        W28705   0.472  34.224   4.506
57123W        W28706  20.833   3.811   2.903
57124W        W28707  35.835  25.605  14.472
57125W        W28708  12.115  21.626  11.089
57126W        W28709  41.237   8.825  13.020
57127W        W28710   9.386  17.083   2.278
57128W        W28711  37.947  15.224   0.309
57129W        W28712  33.914  22.193   3.861
57130W        W28713  39.515   6.782   3.022
57131W        W28714  19.798  19.556  13.922
57132W        W28715   2.520  37.524   0.085
57133W        W28716  16.617  35.232   4.074
57134W        W28717  41.283  39.859  14.404
57135W        W28718  12.308  16.102  12.323
57136W        W28719   1.782  18.254  13.001
57137W        W28720  42.906  26.681  11.430
57138W        W28721  19.232   5.731  12.079
57139W        W28722   2.399  39.401   9.456
57140W        W28723  19.340  20.824   1.995
57141W        W28724  35.864  30.435   3.259
57142W        W28725  21.087  18.720   4.084
57143W        W28726  44.512  12.718   0.164
57144W        W28727  31.631   4.337  11.117
57145W        W28728  40.372   3.405  13.012
57146W        W28729   2.810  10.755   3.250
57147W        W28730  34.429  10.698   3.707
57148W        W28731  11.119  23.202   0.316
57149W        W28732  36.922  13.544   0.028
57150W        W28733   8.089  29.561   0.786
57151W        W28734  33.139  27.744   4.230
57152W        W28735  41.442  44.233  10.237
57153W        W28736  27.717  29.120  14.009
57154W        W28737  17.744   2.524  12.023
57155W        W28738   7.361  34.861  10.657
57156W        W28739  44.962  15.585  14.364
57157W        W28740   9.252  36.753  10.985
57158W        W28741  26.713   8.880  10.234
57159W        W28742  37.322   2.323  12.545
57160W        W28743  14.312  33.957  11.665
57161W        W28744   9.131  14.629  13.804
57162W        W28745  20.961  17.123  10.588
57163W        W28746  11.295  10.185   0.064
57164W        W28747  24.429  24.977   4.574
57165W        W28748  35.979  20.044   1.429
57166W        W28749  27.313  15.343  11.552
57167W        W28750  29.140  43.481   0.815
57168W        W28751  41.143  22.022   4.501
57169W        W28752  11.774   9.752  13.951
57170W        W28753  19.530  10.226  14.207
57171W        W28754  19.033  16.880  10.936
57172W        W28755  28.641   0.707  13.472
57173W        W28756  34.635  12.527   1.463
57174W        W28757  31.930   9.674   4.626
57175W        W28758  38.409  39.811   0.449
57176W        W28759  15.637   3.701   4.165
57177W        W28760  16.257  22.671   1.881
57178W        W28761  30.641  25.927  11.606
57179W        W28762  27.396  34.073   4.191
57180W        W28763  37.753  31.140  11.011
57181W        W28764  17.368  25.752  13.788
57182W        W28765  17.295  43.994   3.768
57183W        W28766  29.406   9.366   1.032
57184W        W28767   8.239   5.453  14.414
57185W        W28768  19.334   2.889   4.180
57186W        W28769  29.092  22.147  11.913
57187W        W28770  33.641  20.288  11.149
57188W        W28771  23.260  22.955   2.221
57189W        W28772  16.126  37.031   0.998
57190W        W28773  19.974  23.175   5.563
57191W        W28774  11.633  40.263  14.524
57192W        W28775  14.526  30.438  14.765
57193W        W28776  10.098  11.617   2.256
57194W        W28777   7.337  32.857   4.193
57195W        W28778  10.600  29.940  12.948
57196W        W28779  42.847  21.536   3.314
57197W        W28780   6.418   1.755  14.330
57198W        W28781  28.065  38.969  11.431
57199W        W28782   4.478   9.188   1.912
57200W        W28783  22.752  31.074   5.397
57201W        W28784  21.252  22.143   3.490
57202W        W28785  32.343  32.066   0.761
57203W        W28786  14.057  41.766   1.099
57204W        W28787  42.168  20.749   2.676
57205W        W28788  28.504  12.275   2.718
57206W        W28789   7.341  13.222   3.059
57207W        W28790  40.921  23.032   3.125
57208W        W28791   7.901   0.467  11.169
57209W        W28792   6.303  27.209  14.850
57210W        W28793   4.460  12.967  11.919
57211W        W28794  16.586  17.639  14.606
57212W        W28795  28.492  21.920   2.671
57213W        W28796  16.091  26.618  12.077
57214W        W28797  39.549  13.629   4.254
57215W        W28798   4.823  15.507   9.911
57216W        W28799   2.003  43.365  14.281
57217W        W28800  44.022  42.471   3.756
57218W        W28801  24.865  31.537   2.420
57219W        W28802  41.020  43.860  14.289
57220W        W28803  12.560  42.912  11.943
57221W        W28804  42.452  23.034   0.278
57222W        W28805  35.595  10.735   2.777
57223W        W28806  19.301  15.249  12.488
57224W        W28807   2.745  27.051   0.502
57225W        W28808  16.124  39.042   0.406
57226W        W28809   3.159  16.173   3.614
57227W        W28810  13.645  32.866  12.206
57228W        W28811  27.137  37.086  12.581
57229W        W28812  11.551   0.303  14.484
57230W        W28813  33.630  27.611  13.027
57231W        W28814  25.231  27.190  14.930
57232W        W28815  44.841  33.171  12.714
57233W        W28816  32.531  29.154  14.355
57234W        W28817  15.331  39.056  13.453
57235W        W28818  37.800  19.738   5.042
57236W        W28819   8.492  21.239   2.551
57237W        W28820  11.333   3.209   4.370
57238W        W28821  32.671  22.095   0.168
57239W        W28822  27.928   3.873  10.575
57240W        W28823  36.753  25.999  13.334
57241W        W28824  40.930   9.869   0.216
57242W        W28825  34.101  17.871   2.646
57243W        W28826  13.993  27.215  12.489
57244W        W28827  35.399  42.366   0.233
57245W        W28828   6.480  15.689  12.993
57246W        W28829  14.117  19.644  12.792
57247W        W28830   0.776  24.162   4.602
57248W        W28831  32.163  21.738  11.975
57249W        W28832  40.313  36.558  12.568
57250W        W28833   4.528  22.270  10.859
57251W        W28834  21.992  16.796   3.628
57252W        W28835  26.555   4.369  14.342
57253W        W28836   0.062  37.600   3.535
57254W        W28837   7.174   3.419   2.686
57255W        W28838  26.628   6.191  10.518
57256W        W28839  33.496  28.441  12.435
57257W        W28840  11.385  12.775   1.331
57258W        W28841  18.781  33.082   4.330
57259W        W28842  29.401  24.620   0.362
57260W        W28843  27.017  13.906   1.580
57261W        W28844   1.414  25.783   2.204
57262W        W28845  43.795   4.653   3.532
57263W        W28846  33.284  44.951  11.005
57264W        W28847  30.621  30.503   1.297
57265W        W28848  23.029   6.876   4.890
57266W        W28849  36.793   2.688  11.472
57267W        W28850   9.796  42.710  11.221
57268W        W28851  33.352  24.806   0.165
57269W        W28852  35.046   5.860  13.489
57270W        W28853  20.062   6.682  14.037
57271W        W28854  20.740  22.269   2.609
57272W        W28855  17.525  32.899   1.884
57273W        W28856  41.468  11.914   0.336
57274W        W28857  17.060  42.621   3.508
57275W        W28858  15.466  15.727  12.894
57276W        W28859  11.665  14.800   4.898
57277W        W28860  16.027  15.097  11.749
57278W        W28861  36.848  39.676   1.469
57279W        W28862  14.458  23.881  11.502
57280W        W28863  26.884  14.170   1.135
57281W        W28864  20.129  21.103   0.410
57282W        W28865   3.836   1.335   4.762
57283W        W28866  37.419  16.951  12.337
57284W        W28867  28.237  15.300   0.284
57285W        W28868  36.572  36.917  13.733
57286W        W28869  10.472  36.543  12.025
57287W        W28870  18.407  34.998   0.818
57288W        W28871  44.634  24.646   1.873
57289W        W28872   8.471  41.222  13.533
57290W        W28873   3.381  21.078   3.855
57291W        W28874  29.153  20.263  13.911
57292W        W28875  18.377  43.696  12.259
57293W        W28876  19.652  30.011  13.961
57294W        W28877  34.313  37.995   3.306
57295W        W28878  17.205   5.466   2.901
57296W        W28879  19.648  24.953  14.880
57297W        W28880   9.357  39.666  10.800
57298W        W28881  13.389  28.302   3.376
57299W        W28882  12.705  13.857   0.748
57300W        W28883  14.622  21.982  12.984
57301W        W28884  10.100  32.501   3.143
57302W        W28885  38.798  17.604   1.959
57303W        W28886   8.900   2.067   4.672
57304W        W28887  25.030  43.874  10.967
57305W        W28888  35.768  39.805  13.046
57306W        W28889   6.104  16.281   4.213
57307W        W28890  16.031   6.349   4.774
57308W        W28891   1.131  31.101   2.871
57309W        W28892  42.127  44.252  12.572
57310W        W28893   2.843  43.635   3.875
57311W        W28894  40.012  30.129   2.292
57312W        W28895  38.748  23.705  10.344
57313W        W28896  17.155  20.666  10.157
57314W        W28897   4.324  21.410   1.538
57315W        W28898   2.784  37.458  13.749
57316W        W28899  25.582   4.555   2.344
57317W        W28900   0.502  25.489  12.137
57318W        W28901  25.664  11.824  11.211
57319W        W28902  29.512  34.594  14.451
57320W        W28903  36.086   8.096  14.105
57321W        W28904  21.445   1.320   1.228
57322W        W28905  27.620  43.983  10.673
57323W        W28906  27.683  18.275  13.431
57324W        W28907  21.698  23.241   3.264
57325W        W28908  26.977  34.497  10.540
57326W        W28909   0.319  43.242  14.904
57327W        W28910  22.189  25.164   1.894
57328W        W28911  38.795   6.214   3.228
57329W        W28912  16.714  27.816   4.512
57330W        W28913  26.847  27.731   4.110
57331W        W28914  20.954   4.971  12.999
57332W        W28915  39.730   8.707   5.456
57333W        W28916  35.369  19.058   2.430
57334W        W28917   3.745  15.141   1.470
57335W        W28918  40.189  34.524   5.024
57336W        W28919   2.358   0.430   2.727
57337W        W28920  13.335   8.819  13.212
57338W        W28921  25.879  18.301   2.895
57339W        W28922  37.850  28.256   3.110
57340W        W28923   2.849  10.176  12.635
57341W        W28924  38.493  32.066  14.264
57342W        W28925  36.510  20.796  12.136
57343W        W28926  27.943  17.972  10.116
57344W        W28927  39.741  20.101   2.582
57345W        W28928  14.664  34.162  14.257
57346W        W28929  28.047   8.811   4.867
57347W        W28930   0.499  27.533  13.343
57348W        W28931  42.018  43.265   2.786
57349W        W28932  40.344  34.514   3.043
57350W        W28933  31.512  10.747  10.663
57351W        W28934  15.804  39.289   0.996
57352W        W28935  28.072  38.968   0.106
57353W        W28936   9.885  28.394   1.317
57354W        W28937  22.305  27.691  11.252
57355W        W28938  28.043  22.197   2.777
57356W        W28939  29.925  17.614  11.465
57357W        W28940  27.436  19.751  14.732
57358W        W28941  37.871  31.635   3.658
57359W        W28942  17.953  35.529   0.466
57360W        W28943  28.984  13.813  12.592
57361W        W28944   4.953  30.143  10.644
57362W        W28945   4.491  41.371   1.670
57363W        W28946   0.011  12.131  12.868
57364W        W28947  32.216  41.534  14.045
57365W        W28948  30.177  24.946  10.784
57366W        W28949   2.805  37.104  11.381
57367W        W28950   7.506  22.571  13.091
57368W        W28951  35.362  43.734  14.465
57369W        W28952  14.923  16.669  12.381
57370W        W28953   5.873  31.338  11.395
57371W        W28954  26.265  19.246   0.941
57372W        W28955  36.563  15.745   1.271
57373W        W28956  42.031  11.783  11.062
57374W        W28957  24.240  28.324  10.401
57375W        W28958   6.813   2.258  12.599
57376W        W28959  24.245   8.584  13.877
57377W        W28960  16.291  20.588  12.928
57378W        W28961  40.328  13.182  12.462
57379W        W28962  19.731  13.177   0.320
57380W        W28963  43.940  29.863  13.562
57381W        W28964   2.331  35.420  14.830
57382W        W28965  24.073   8.303   3.832
57383W        W28966  26.859   0.430   1.700
57384W        W28967  15.542  28.598   4.012
57385W        W28968   7.806  31.819  14.705
57386W        W28969   8.273  25.948   4.112
57387W        W28970   2.194  37.890   0.341
57388W        W28971  34.877  18.069  10.760
57389W        W28972  29.382  41.330  11.205
57390W        W28973  39.094   5.096   5.350
57391W        W28974  41.112  22.938  13.840
57392W        W28975  30.545   1.202  12.774
57393W        W28976  42.053  29.090   2.436
57394W        W28977  14.030  28.634  13.494
57395W        W28978  18.243  38.375   2.125
57396W        W28979  11.235   6.547   2.628
57397W        W28980  23.126  23.036   3.613
57398W        W28981  43.980  34.619   2.784
57399W        W28982  21.526   8.307   3.215
57400W        W28983  34.449  14.106   3.902
57401W        W28984  32.142  12.306  14.666
57402W        W28985  24.655   6.626   1.267
57403W        W28986   7.161  29.898   1.925
57404W        W28987  43.831  16.059   4.633
57405W        W28988  13.782  36.511  14.597
57406W        W28989   9.869  39.404   4.248
57407W        W28990  40.427  44.465   0.918
57408W        W28991  34.016  41.099  14.908
57409W        W28992  34.240  32.537  10.907
57410W        W28993  24.451   1.535  12.964
57411W        W28994  42.920  13.483  11.995
57412W        W28995   0.057   0.442  14.816
57413W        W28996  17.809  23.022   9.883
57414W        W28997  18.296  36.755  14.412
57415W        W28998  25.794  32.494   0.828
57416W        W28999  15.200   9.868  12.459
57417W        W29000  12.612  20.084   3.956
57418W        W29001   0.894  38.375  14.058
57419W        W29002  25.675  15.383   0.799
57420W        W29003  18.206  25.473   2.709
57421W        W29004  24.959  10.726   9.805
57422W        W29005  14.101  22.457   0.703
57423W        W29006  39.839  28.663   4.079
57424W        W29007  19.763  42.569   2.828
57425W        W29008  20.100  12.159   2.337
57426W        W29009  12.223  19.579  11.979
57427W        W29010  37.282   6.286  10.849
57428W        W29011  25.996   1.997   0.373
57429W        W29012  35.201   1.317   1.605
57430W        W29013  41.783  22.027  13.541
57431W        W29014  36.154  22.604   3.603
57432W        W29015  30.587   8.551   0.760
57433W        W29016   6.278   5.142   1.820
57434W        W29017  39.036  19.653  11.540
57435W        W29018   7.211  11.990   1.601
57436W        W29019  30.419   8.678   2.532
57437W        W29020  41.306  32.138  14.789
57438W        W29021  17.485  25.482   0.975
57439W        W29022  16.260  38.014  12.671
57440W        W29023  37.435  13.686  13.852
57441W        W29024  20.008  41.031   2.546
57442W        W29025   2.341  12.199  13.384
57443W        W29026  20.708   3.505  13.889
57444W        W29027  19.101  12.767   2.827
57445W        W29028  14.873  43.193   1.724
57446W        W29029  26.393  40.830   2.303
57447W        W29030  22.818   7.995  10.733
57448W        W29031  27.881   1.770  14.031
57449W        W29032  31.289  19.487  13.484
57450W        W29033  37.478  23.517  14.273
57451W        W29034  22.760  11.596  13.864
57452W        W29035  23.516  39.233  11.934
57453W        W29036  25.987  22.567  10.659
57454W        W29037  20.076   3.294   1.760
57455W        W29038  23.505  12.870   2.654
57456W        W29039  27.702   0.014  10.554
57457W        W29040  17.373  22.474  11.077
57458W        W29041  42.311  39.416   3.638
57459W        W29042  32.383  36.068   3.108
57460W        W29043  19.076   9.283   0.448
57461W        W29044   6.406  39.364   4.705
57462W        W29045  39.253  24.538   3.336
57463W        W29046   0.825  15.670   4.555
57464W        W29047   7.078  42.828   2.755
57465W        W29048  37.998  32.627  11.518
57466W        W29049  10.220  10.889   4.661
57467W        W29050  12.591   6.458  11.795
57468W        W29051  16.605   1.218  11.444
57469W        W29052  25.236  24.030  14.735
57470W        W29053  14.189  37.892   2.331
57471W        W29054  31.027  17.278  11.928
57472W        W29055  38.458  37.235   1.709
57473W        W29056  44.526  33.980   3.470
57474W        W29057   6.163   5.385   0.414
57475W        W29058  29.212  18.619  11.205
57476W        W29059  29.042   5.761  13.085
57477W        W29060  31.462  13.203   2.292
57478W        W29061   4.883   0.038   2.142
57479W        W29062  39.031  27.686   1.846
57480W        W29063  32.056   0.747  13.126
57481W        W29064  21.995  22.119  14.011
57482W        W29065   8.817  31.974   4.438
57483W        W29066  31.909  40.997   0.289
57484W        W29067  24.029  41.435  10.737
57485W        W29068  23.776  35.286   1.982
57486W        W29069  30.625  40.162  14.816
57487W        W29070  44.006   7.102  13.886
57488W        W29071  22.506  13.885   4.139
57489W        W29072   0.693  31.431  11.726
57490W        W29073  42.666  36.371  10.647
57491W        W29074   0.950   3.088  12.917
57492W        W29075   4.862  19.668  11.882
57493W        W29076  14.593  16.086  12.843
57494W        W29077  14.176  29.881   2.694
57495W        W29078  31.298  15.093  13.918
57496W        W29079  24.541  23.947   0.118
57497W        W29080  20.207  10.372   4.585
57498W        W29081   0.779  23.260  12.035
57499W        W29082   8.239  34.998   1.672
57500W        W29083  24.167  36.424  13.587
57501W        W29084  44.737  42.998   2.385
57502W        W29085   9.183   5.312   1.230
57503W        W29086   0.370  22.745   3.073
57504W        W29087   1.469  37.163  12.071
57505W        W29088  11.823   2.457  11.194
57506W        W29089  36.018  32.640  13.937
57507W        W29090  29.286  28.622   3.129
57508W        W29091  26.798  15.302   2.194
57509W        W29092  14.327  14.794  11.308
57510W        W29093   8.075  38.678  11.906
57511W        W29094  40.362  42.864   3.219
57512W        W29095  29.692  19.629  10.256
57513W        W29096  35.600  39.670  12.567
57514W        W29097  23.097  25.467   0.345
57515W        W29098  29.603  35.887  12.397
57516W        W29099   0.566   1.999   2.322
57517W        W29100  23.249  34.986   2.683
57518W        W29101  43.954  12.392   3.728
57519W        W29102   5.306   4.517   1.875
57520W        W29103   0.342  32.137  13.998
57521W        W29104  40.490   6.576  13.320
57522W        W29105  16.734  22.777   4.093
57523W        W29106  16.059  27.773   1.270
57524W        W29107  23.539  27.628  14.504
57525W        W29108  27.664  42.008   3.019
57526W        W29109  36.362  18.092   1.920
57527W        W29110  44.878  23.142   2.849
57528W        W29111  36.429  32.999   3.605
57529W        W29112  32.442   3.317  12.475
57530W        W29113   5.569  19.789  14.261
57531W        W29114   3.596  24.643   1.748
57532W        W29115   5.140  43.715  11.200
57533W        W29116  22.034  32.607  13.022
57534W        W29117   8.434  42.179   4.220
57535W        W29118  40.489  21.101   0.342
57536W        W29119   1.028  27.184   2.263
57537W        W29120   6.319   3.277  11.523
57538W        W29121   9.671  23.264  13.445
57539W        W29122   6.709  22.126  12.970
57540W        W29123   4.799  16.862   1.365
57541W        W29124   0.754  18.112  12.134
57542W        W29125  42.773  23.197   1.387
57543W        W29126   9.217  18.367   1.288
57544W        W29127  12.076  23.236   4.029
57545W        W29128  40.590  39.856   1.521
57546W        W29129   5.870  27.016  13.093
57547W        W29130  39.024   9.686  13.913
57548W        W29131  28.047  25.271  13.003
57549W        W29132  13.026  13.169   3.319
57550W        W29133  11.841  32.291   0.681
57551W        W29134   3.340   7.894  13.408
57552W        W29135  25.634  36.098  12.024
57553W        W29136  29.594   3.546   1.241
57554W        W29137   9.614  25.161   1.539
57555W        W29138   1.855  32.536   0.643
57556W        W29139  22.016  34.122   4.611
57557W        W29140  39.609  17.336  11.077
57558W        W29141   1.299  22.804   3.267
57559W        W29142  30.939  12.778  14.875
57560W        W29143   0.398  34.414  10.716
57561W        W29144  28.684  22.685  14.138
57562W        W29145  19.154  31.901  13.903
57563W        W29146  17.614  33.021   2.917
57564W        W29147  12.413  22.071   1.237
57565W        W29148  36.585   0.571  11.104
57566W        W29149   5.979  31.299  11.924
57567W        W29150  33.197  14.609  13.512
57568W        W29151  25.214  12.198  13.270
57569W        W29152  41.293  24.642  14.057
57570W        W29153  26.248  35.920  14.335
57571W        W29154  27.024  21.711  10.940
57572W        W29155  15.930  27.092  12.278
57573W        W29156  22.575   0.824   4.531
57574W        W29157  19.990  29.994   1.119
57575W        W29158  21.104  25.003  14.477
57576W        W29159   4.831  22.400   0.994
57577W        W29160   0.844  36.944   1.696
57578W        W29161   7.709  41.508   0.419
57579W        W29162  16.936  13.096   2.234
57580W        W29163  16.715  35.433  14.372
57581W        W29164  33.680  19.273  13.997
57582W        W29165  21.480  36.798   2.807
57583W        W29166  39.108  19.539   2.686
57584W        W29167  34.614  26.132   2.342
57585W        W29168  16.095  29.320   0.439
57586W        W29169  38.465  34.612  12.459
57587W        W29170  20.940  35.498  12.419
57588W        W29171  40.604  42.516   2.339
57589W        W29172  20.444  14.726   0.827
57590W        W29173  10.592  31.640  13.039
57591W        W29174   5.742  13.921  13.045
57592W        W29175  27.734  22.236  11.080
57593W        W29176  27.084  20.081   4.703
57594W        W29177  12.097  37.423  11.457
57595W        W29178  24.997  19.762  11.746
57596W        W29179  40.757  24.635   0.781
57597W        W29180   1.876   4.190  14.356
57598W        W29181   8.666  23.227   0.726
57599W        W29182  26.459  32.525  13.788
57600W        W29183  40.863  39.539  12.579
57601W        W29184   9.176  24.156  10.737
57602W        W29185  17.631  26.303  11.007
57603W        W29186  39.234  23.260  11.169
57604W        W29187  44.368   1.302  13.412
57605W        W29188  34.418  42.679  11.699
57606W        W29189  23.123  27.747  10.934
57607W        W29190  40.408  34.478   3.562
57608W        W29191  24.797  15.365   0.755
57609W        W29192  31.142   3.241   2.990
57610W        W29193   6.637  23.260  12.009
57611W        W29194   7.586  33.658   2.329
57612W        W29195  38.300  22.528   1.425
57613W        W29196   4.019  32.206   1.786
57614W        W29197  31.171  10.038   1.320
57615W        W29198  18.308  38.268   2.630
57616W        W29199  39.148  16.597   0.420
57617W        W29200  22.209  36.884  12.839
57618W        W29201  44.851  30.836  12.121
57619W        W29202   5.119  30.623   9.913
57620W        W29203   0.743  20.665   0.953
57621W        W29204  15.973  16.694   3.495
57622W        W29205  43.409   3.319   0.954
57623W        W29206  38.854  21.147  12.499
57624W        W29207  18.331   5.364  12.011
57625W        W29208  25.781  18.220  13.790
57626W        W29209   6.283  13.220   3.196
57627W        W29210  31.460  21.593  11.385
57628W        W29211  32.659   5.360  13.527
57629W        W29212  27.993  43.991  13.411
57630W        W29213   0.122  35.564  10.955
57631W        W29214  43.281  19.190  13.365
57632W        W29215  22.790  24.621   0.758
57633W        W29216   8.238   5.930  13.490
57634W        W29217  34.549  11.059  14.651
57635W        W29218  27.958   8.755   1.347
57636W        W29219   3.467   8.628   0.902
57637W        W29220  28.752  23.834  14.371
57638W        W29221  32.981   1.394   4.808
57639W        W29222  40.513  37.799  10.992
57640W        W29223  22.981  31.888   2.351
57641W        W29224  29.603  20.181  11.106
57642W        W29225  21.952  44.771   1.773
57643W        W29226   8.705  19.358  14.610
57644W        W29227  23.094  17.986   2.343
57645W        W29228  37.065  38.372   3.570
57646W        W29229  38.807   5.084   4.036
57647W        W29230  42.825  18.590  13.936
57648W        W29231   9.321  17.255  12.565
57649W        W29232  39.142  30.504   3.799
57650W        W29233  44.438  34.686  12.045
57651W        W29234  14.620  39.558  14.475
57652W        W29235  15.795  32.463   3.099
57653W        W29236   7.456  41.771   3.245
57654W        W29237  31.286   0.932  11.613
57655W        W29238   7.408  41.791  12.039
57656W        W29239  22.981  41.832   4.636
57657W        W29240   6.191  35.374  12.571
57658W        W29241   2.443   8.103  13.927
57659W        W29242  40.255  34.584  12.058
57660W        W29243  44.227  39.196  14.592
57661W        W29244  44.436  32.370   4.344
57662W        W29245  31.939  22.188  12.943
57663W        W29246  44.464  26.419  12.128
57664W        W29247   0.193  33.233   1.860
57665W        W29248  37.872   1.873   3.285
57666W        W29249  20.472  18.352   1.830
57667W        W29250  15.894  35.471  12.535
57668W        W29251   6.157  19.100  11.966
57669W        W29252  30.469  29.650   1.595
57670W        W29253  43.864  29.063   4.242
57671W        W29254  29.149  23.610   3.726
57672W        W29255  34.896   5.896   3.297
57673W        W29256  14.523  17.005  13.445
57674W        W29257  10.872  26.588  10.843
57675W        W29258   5.424  15.804   0.872
57676W        W29259  12.701   4.965   2.990
57677W        W29260  37.208  14.327  14.649
57678W        W29261  35.467  14.733   3.135
57679W        W29262  13.370  14.912  12.098
57680W        W29263   4.927  25.419   2.351
57681W        W29264   1.801   1.173   0.407
57682W        W29265   1.426  21.226  14.787
57683W        W29266  41.369  28.115   3.800
57684W        W29267  22.175  20.002   1.874
57685W        W29268  31.427  40.966   4.312
57686W        W29269  10.839   8.412   3.395
57687W        W29270  31.113  12.557   3.598
57688W        W29271  28.264  12.822   4.239
57689W        W29272  13.285  14.636   0.372
57690W        W29273  17.650  25.581  11.495
57691W        W29274  43.102  42.187   4.952
57692W        W29275   6.388  19.650   1.870
57693W        W29276  12.842  34.915  12.401
57694W        W29277  22.554   0.026  13.508
57695W        W29278  10.768  12.531  11.137
57696W        W29279  22.132  20.259  10.992
57697W        W29280  41.476  43.482   3.662
57698W        W29281  15.301  21.184   1.433
57699W        W29282  34.857  12.604  12.015
57700W        W29283  13.565   2.744  14.457
57701W        W29284  26.230   4.861  14.334
57702W        W29285  24.483  42.458  14.882
57703W        W29286  32.921  20.138   0.209
57704W        W29287  31.075  38.638  14.055
57705W        W29288  12.779  16.704   0.350
57706W        W29289  43.776  17.778  10.420
57707W        W29290  36.072  18.681   2.100
57708W        W29291  20.757  33.102   1.448
57709W        W29292   8.138   7.441   1.657
57710W        W29293  38.885  27.483   4.600
57711W        W29294  28.936   8.423   0.352
57712W        W29295  33.026   2.342  11.167
57713W        W29296  42.483  33.966   0.789
57714W        W29297  29.874  38.046  14.496
57715W        W29298  15.568  13.602   2.419
57716W        W29299  21.170  39.511   2.708
57717W        W29300  25.202  26.025   2.172
57718W        W29301   7.486   7.037  13.662
57719W        W29302  31.909  10.694   2.706
57720W        W29303  24.440  25.702  13.138
57721W        W29304  41.469  31.053  13.667
57722W        W29305  10.461  14.071  10.144
57723W        W29306  18.778   0.439  11.796
57724W        W29307  22.626  37.420  13.256
57725W        W29308  25.715  23.659   4.645
57726W        W29309   2.436   7.324  11.678
57727W        W29310   5.753  35.088  12.909
57728W        W29311  16.015  15.191   0.275
57729W        W29312  15.712  30.559  11.123
57730W        W29313  26.529  13.758  11.094
57731W        W29314  26.137  12.764  11.082
57732W        W29315  14.078  16.226  13.485
57733W        W29316  24.440  24.128  12.835
57734W        W29317  40.423  11.686  13.469
57735W        W29318   7.895   7.382  13.658
57736W        W29319   7.396  13.992  13.573
57737W        W29320  10.335  44.791   4.939
57738W        W29321  22.664  31.812  13.880
57739W        W29322  20.246   1.808  12.783
57740W        W29323  29.445  32.099  14.885
57741W        W29324   0.830   5.195   2.911
57742W        W29325   9.131  31.117  14.242
57743W        W29326  29.424  33.660  13.382
57744W        W29327  39.378  14.229  14.625
57745W        W29328  30.205  30.978  12.377
57746W        W29329  15.052  36.900   4.084
57747W        W29330  27.623   4.685  12.893
57748W        W29331   8.294  25.199   0.980
57749W        W29332   7.463  10.265   3.254
57750W        W29333  37.064  33.220  12.591
57751W        W29334  19.316  13.008  12.094
57752W        W29335  42.027  24.537   1.336
57753W        W29336  17.605  13.692   3.756
57754W        W29337  22.024   5.485  11.962
57755W        W29338  11.681  37.802   2.753
57756W        W29339  32.946  17.744  14.880
57757W        W29340   8.882  28.901  13.217
57758W        W29341  12.121   1.285  10.710
57759W        W29342  16.652  18.107  13.803
57760W        W29343  22.401  11.905   5.139
57761W        W29344   4.013   8.630  14.492
57762W        W29345  44.863  32.030   1.951
57763W        W29346  34.902   7.546   3.348
57764W        W29347  14.890   7.972   4.508
57765W        W29348  42.071  34.551   0.895
57766W        W29349   5.002  20.542   4.652
57767W        W29350  22.613  42.460   2.228
57768W        W29351   2.759  35.278  11.932
57769W        W29352  41.846  34.833   4.046
57770W        W29353  19.886  11.900  12.337
57771W        W29354   1.478  41.042   0.704
57772W        W29355  17.768   5.679  12.923
57773W        W29356  39.332  44.550  11.175
57774W        W29357  27.143  41.007   3.791
57775W        W29358  44.802  12.661   0.782
57776W        W29359  15.762  42.815  12.972
57777W        W29360   8.671  39.255   2.332
57778W        W29361  26.932  26.639   4.090
57779W        W29362  43.069  43.569  10.976
57780W        W29363   1.249  19.187   4.077
57781W        W29364  22.500  21.490   1.779
57782W        W29365  21.078  37.183   2.881
57783W        W29366  31.652  34.137  13.895
57784W        W29367   0.965  27.463   3.411
57785W        W29368  30.389  26.665  10.440
57786W        W29369  38.437  11.251  11.972
57787W        W29370   5.975  29.611  14.835
57788W        W29371  36.678  31.052  13.847
57789W        W29372  16.870  18.543   2.211
57790W        W29373   5.939   3.957  12.792
57791W        W29374  19.585   9.263  11.486
57792W        W29375  33.381  42.019   5.007
57793W        W29376  38.792  38.873   1.757
57794W        W29377   8.152  16.613  13.825
57795W        W29378  10.226   3.266  11.710
57796W        W29379  13.577  28.532  11.051
57797W        W29380  29.756  32.500  14.777
57798W        W29381  37.559  39.057   3.409
57799W        W29382  35.585   6.166   1.711
57800W        W29383   5.490  10.210   4.194
57801W        W29384   7.533  35.354   2.802
57802W        W29385  24.132  44.513   3.774
57803W        W29386   7.591  42.739   2.756
57804W        W29387  19.013   1.292  10.679
57805W        W29388  30.100  11.826   4.076
57806W        W29389   7.787  22.691  10.722
57807W        W29390  17.109  43.481   4.156
57808W        W29391   6.594  11.548  11.084
57809W        W29392  44.039   0.351  12.396
57810W        W29393  17.813   2.354   4.305
57811W        W29394  13.144  31.197   2.315
57812W        W29395   8.320  41.320  14.026
57813W        W29396  10.538   3.011   4.805
57814W        W29397  10.547   5.399  11.951
57815W        W29398  11.082   8.220   1.572
57816W        W29399   6.815  18.193  14.370
57817W        W29400   5.311  37.859  12.841
57818W        W29401  17.566   3.727  10.700
57819W        W29402  36.583  14.111  14.312
57820W        W29403  40.655   8.355   5.189
57821W        W29404  41.642  27.640  10.778
57822W        W29405  24.712   5.034   1.263
57823W        W29406   5.496  32.679   1.242
57824W        W29407  42.315  30.049   2.136
57825W        W29408  31.849  43.428   2.172
57826W        W29409   0.896  23.764   4.891
57827W        W29410  15.351   2.775   2.417
57828W        W29411  37.835   6.174   2.405
57829W        W29412  35.886  33.167  10.705
57830W        W29413  42.465  31.030  13.766
57831W        W29414  25.229  23.494   2.339
57832W        W29415  37.015  13.619  11.983
57833W        W29416  29.712  12.284  12.583
57834W        W29417   8.368  40.070   2.598
57835W        W29418  27.502  26.268   4.820
57836W        W29419  33.338  38.399  11.267
57837W        W29420  22.203  22.243  12.548
57838W        W29421  43.874  37.965  11.741
57839W        W29422  11.931  36.817   4.472
57840W        W29423  41.781  23.121  12.610
57841W        W29424   2.282  30.609   3.850
57842W        W29425  13.079   1.926   3.348
57843W        W29426   7.240  39.793   0.298
57844W        W29427   6.552  43.451   4.564
57845W        W29428   7.756  35.677  13.053
57846W        W29429  14.446  41.325   3.351
57847W        W29430  23.130   7.830  11.121
57848W        W29431   6.730  29.504   1.276
57849W        W29432   7.393   8.317  14.407
57850W        W29433   6.768   2.481   1.572
57851W        W29434  38.497   3.462   0.816
57852W        W29435  28.947   7.603   3.022
57853W        W29436  31.927  19.661  14.119
57854W        W29437   0.433   6.196   2.179
57855W        W29438  20.455   7.638   4.153
57856W        W29439  16.912  28.561   1.886
57857W        W29440  19.836  44.483  13.134
57858W        W29441  36.486  24.769  11.971
57859W        W29442  28.171  19.376   3.634
57860W        W29443   8.293  10.646  13.387
57861W        W29444  11.625  40.759  14.441
57862W        W29445  38.999  20.842  11.110
57863W        W29446   3.117  31.102   1.382
57864W        W29447   9.297  29.010   3.388
57865W        W29448  32.653   9.171   2.627
57866W        W29449  20.713   9.906   5.108
57867W        W29450  27.642  27.193   3.720
57868W        W29451  20.065  43.756  13.916
57869W        W29452  12.827  12.582  10.595
57870W        W29453   6.899  11.970   1.210
57871W        W29454   0.770  36.384   2.333
57872W        W29455  40.329  31.096   2.750
57873W        W29456  42.964  14.008  11.915
57874W        W29457  22.661  20.509   0.433
57875W        W29458  36.420  21.651   0.551
57876W        W29459   0.661  29.394   2.622
57877W        W29460  27.930   6.690   1.828
57878W        W29461  14.825  10.487   2.673
57879W        W29462  31.025  43.677   4.319
57880W        W29463  38.528   9.676  13.733
57881W        W29464   6.909  32.395   0.265
57882W        W29465  27.511   0.907  14.777
57883W        W29466   3.298  43.350   4.958
57884W        W29467  22.185  30.968  12.083
57885W        W29468  43.764   8.522   4.329
57886W        W29469  36.108  35.252  14.365
57887W        W29470  18.978  24.969   2.332
57888W        W29471  23.720  14.038  11.070
57889W        W29472  28.505  23.290  12.731
57890W        W29473  29.133  24.710  10.477
57891W        W29474  10.161   4.957   3.671
57892W        W29475  12.595  22.860   0.868
57893W        W29476  17.669  38.043   2.196
57894W        W29477  34.517  20.717  11.075
57895W        W29478  36.846  11.542  12.970
57896W        W29479  18.462  17.375   4.128
57897W        W29480   5.756  43.968  12.484
57898W        W29481  12.663  20.179  11.007
57899W        W29482  38.786  29.459  12.950
57900W        W29483  21.512  27.916  12.825
57901W        W29484  40.177  11.820   3.888
57902W        W29485   2.700  19.629   0.384
57903W        W29486  32.787  24.600  13.291
57904W        W29487   4.057   2.771   3.250
57905W        W29488  23.623  31.547   1.868
57906W        W29489  31.588   9.488  12.014
57907W        W29490  41.606  18.726   1.968
57908W        W29491   5.699  14.867  10.716
57909W        W29492  40.761  29.651  12.061
57910W        W29493  32.470  19.247  14.432
57911W        W29494  29.679  44.096  14.781
57912W        W29495  16.293  16.312  14.399
57913W        W29496  18.564  30.720   5.070
57914W        W29497  44.438  41.228   4.539
57915W        W29498   1.308  35.370  13.957
57916W        W29499  20.543  30.910   2.196
57917W        W29500  28.196  20.442  11.227
57918W        W29501   5.926  17.643  13.022
57919W        W29502   3.811  21.627   2.715
57920W        W29503  30.466  16.752   0.994
57921W        W29504  17.286  10.225  10.768
57922W        W29505  23.449  40.214   3.319
57923W        W29506  15.573  36.098   2.136
57924W        W29507  20.123  31.551  10.361
57925W        W29508  30.922  16.610   1.230
57926W        W29509  16.352  15.548   0.420
57927W        W29510   9.450  18.834   1.252
57928W        W29511  14.319  13.230   3.255
57929W        W29512  13.213  29.153  10.400
57930W        W29513  43.959   2.240   1.791
57931W        W29514  36.815  32.473   3.367
57932W        W29515   8.223   3.468  13.466
57933W        W29516  14.851  16.100  10.712
57934W        W29517  36.996   9.124  13.058
57935W        W29518   2.161  39.152  12.055
57936W        W29519  33.600  15.833  11.532
57937W        W29520  27.996  29.542  13.337
57938W        W29521  18.537  39.838  11.651
57939W        W29522  20.400  44.436   1.336
57940W        W29523  11.545  19.830  11.264
57941W        W29524  40.893  27.445   3.222
57942W        W29525  41.997   1.994   1.670
57943W        W29526  38.534  13.225   0.031
57944W        W29527   6.647  15.286  12.648
57945W        W29528  14.682  44.368   1.276
57946W        W29529   7.232   0.885   4.617
57947W        W29530  34.428  14.131  14.776
57948W        W29531  25.029  25.230  13.842
57949W        W29532  30.009  38.783   0.423
57950W        W29533  33.586  13.703   2.141
57951W        W29534  30.906   1.378  10.592
57952W        W29535  12.933  10.304  10.711
57953W        W29536  15.153   0.344  14.937
57954W        W29537   6.367  22.185   1.730
57955W        W29538  41.319  25.516  14.065
57956W        W29539  36.537  17.349   1.359
57957W        W29540   9.894  17.227   4.412
57958W        W29541  12.473   4.761   1.231
57959W        W29542   7.093  27.923   4.314
57960W        W29543  29.218  20.757  11.607
57961W        W29544  41.947  36.536  13.398
57962W        W29545   4.108  24.961  11.871
57963W        W29546  18.542  34.086  13.570
57964W        W29547  43.524  26.526  14.239
57965W        W29548  11.556  24.992   2.862
57966W        W29549   8.199  11.171   1.657
57967W        W29550  20.037  40.543   4.825
57968W        W29551   7.625   7.251  14.112
57969W        W29552  44.161  21.040   3.336
57970W        W29553  31.443   5.774   0.404
57971W        W29554  18.670   8.236  12.564
57972W        W29555   5.160   7.805   0.915
57973W        W29556   3.686  14.420  11.010
57974W        W29557  41.376  18.026  12.243
57975W        W29558   7.036  16.123   4.733
57976W        W29559  37.596   3.270  11.124
57977W        W29560  33.534  28.139  14.252
57978W        W29561  13.208   7.271  13.529
57979W        W29562  33.152  40.628  11.532
57980W        W29563  20.699  22.713   3.805
57981W        W29564  29.477   4.090  10.861
57982W        W29565   4.421  12.785  14.788
57983W        W29566  33.174  19.171   3.486
57984W        W29567  28.860  11.802   9.762
57985W        W29568   7.413  10.708   1.370
57986W        W29569  33.955  27.968   3.432
57987W        W29570  16.796  38.931  14.428
57988W        W29571   9.829  40.605  13.821
57989W        W29572  12.869  12.584   3.526
57990W        W29573  21.628  23.678   1.290
57991W        W29574  22.702  11.505  12.004
57992W        W29575  20.058  37.328  14.692
57993W        W29576  29.184  30.556   0.246
57994W        W29577  29.143  16.699  12.625
57995W        W29578  20.587  12.786   1.787
57996W        W29579   8.579  42.846   2.830
57997W        W29580   6.903  16.093  10.780
57998W        W29581  13.117  11.623   2.769
57999W        W29582  24.316  15.580   3.989
58000W        W29583  36.829   2.377   0.740
58001W        W29584   1.759   3.122  14.355
58002W        W29585  37.122  39.029   0.884
58003W        W29586   1.214  20.012   3.764
58004W        W29587  10.275  30.615   0.695
58005W        W29588  16.881  37.229   5.273
58006W        W29589   6.145  38.840   1.258
58007W        W29590   5.788  35.615   1.405
58008W        W29591  28.169   3.925   0.889
58009W        W29592  23.637  11.657   4.005
58010W        W29593  31.857  30.068  10.949
58011W        W29594  12.238  17.592  14.648
58012W        W29595  41.385  18.391  14.604
58013W        W29596  16.826  13.263  12.547
58014W        W29597  35.390  27.439   4.996
58015W        W29598  13.549   3.251   2.726
58016W        W29599   3.510  39.619   9.734
58017W        W29600  43.623  22.280  12.965
58018W        W29601  26.776   6.237  13.630
58019W        W29602   0.256  40.712  13.376
58020W        W29603  24.944   8.481   0.266
58021W        W29604  39.337  39.976   3.659
58022W        W29605  15.900  18.551  11.115
58023W        W29606  35.500   2.204   2.786
58024W        W29607   3.205  33.473   1.273
58025W        W29608   9.653  41.768   2.203
58026W        W29609  30.885  42.532  14.924
58027W        W29610   3.951  20.235   4.588
58028W        W29611  18.201   2.883   0.899
58029W        W29612   0.872  31.938  12.069
58030W        W29613  10.448  10.157  12.921
58031W        W29614  30.470   7.714  14.978
58032W        W29615  18.111  41.542  11.080
58033W        W29616  23.587  27.407  12.662
58034W        W29617  13.454  38.364  13.536
58035W        W29618  17.628  28.073   0.688
58036W        W29619  22.010  15.620   1.149
58037W        W29620  20.723  30.722  13.417
58038W        W29621  15.594   4.985  12.715
58039W        W29622  10.737  21.492  11.888
58040W        W29623   6.808   4.796  10.480
58041W        W29624  27.416   6.314   4.176
58042W        W29625  38.623  44.732   3.763
58043W        W29626  26.695  29.499   9.604
58044W        W29627  33.972   3.471  10.999
58045W        W29628  34.602  40.552   0.881
58046W        W29629  33.311   3.750   3.603
58047W        W29630  21.041  10.907  14.445
58048W        W29631  22.123   1.760  13.475
58049W        W29632  29.001  26.993  12.800
58050W        W29633  26.565  13.059  12.099
58051W        W29634  24.215  32.927  13.181
58052W        W29635  40.491  11.400   3.205
58053W        W29636   2.480   3.778   4.786
58054W        W29637  15.135   1.701   4.193
58055W        W29638  29.443  12.113  11.956
58056W        W29639  23.473  34.484   1.459
58057W        W29640  10.692  36.577   0.894
58058W        W29641  34.803  30.271   0.378
58059W        W29642  41.929  27.528  11.187
58060W        W29643  21.687   2.065   4.266
58061W        W29644   7.871  11.094  11.126
58062W        W29645  17.759  29.512   1.340
58063W        W29646  30.477  34.536  13.716
58064W        W29647   9.442  15.677   4.599
58065W        W29648  23.038  10.771   4.444
58066W        W29649  41.957  12.641  11.489
58067W        W29650   7.326  25.515   0.800
58068W        W29651   6.214  25.597  13.608
58069W        W29652  18.481  19.132  12.942
58070W        W29653  42.528  34.889  11.990
58071W        W29654  11.183  12.702   4.134
58072W        W29655  29.556   6.323  11.598
58073W        W29656  28.570  31.410  12.016
58074W        W29657  13.542  42.970  10.636
58075W        W29658  16.235  30.188  14.513
58076W        W29659  26.050  23.373   2.447
58077W        W29660  33.917  25.723  13.295
58078W        W29661  41.704  15.710   1.486
58079W        W29662  12.118  26.450   3.084
58080W        W29663  31.988  34.906   3.702
58081W        W29664  14.803   2.439  12.505
58082W        W29665  11.642  22.794   1.285
58083W        W29666  29.903  19.515   2.324
58084W        W29667  38.882  35.443   4.850
58085W        W29668  42.872  27.163   0.309
58086W        W29669  10.185   6.898   0.007
58087W        W29670  41.628  44.691   2.855
58088W        W29671  14.205   4.954  12.263
58089W        W29672  36.040  31.735  12.699
58090W        W29673  28.928  22.968  13.745
58091W        W29674  15.791   7.601   2.523
58092W        W29675  20.058  38.617   4.192
58093W        W29676  31.531  40.303   4.714
58094W        W29677  27.424   8.429   1.112
58095W        W29678  16.277  27.052   4.209
58096W        W29679  37.857  34.304   1.525
58097W        W29680  29.204  36.085   2.223
58098W        W29681  23.136  38.955  12.173
58099W        W29682  34.044  33.610   0.881
58100W        W29683  26.128  23.461   4.403
58101W        W29684  30.186  24.629  11.699
58102W        W29685  42.843   0.766  13.419
58103W        W29686  26.244  34.081  14.085
58104W        W29687   0.203   9.345   3.501
58105W        W29688  25.618  38.379  14.919
58106W        W29689  44.151   5.448  13.829
58107W        W29690   2.650  23.244   2.264
58108W        W29691  16.394   4.857  14.832
58109W        W29692  22.469  38.258  13.178
58110W        W29693  39.647   8.962   3.852
58111W        W29694  24.044   9.703   3.564
58112W        W29695  23.432  41.476   4.645
58113W        W29696  17.291  14.616   1.670
58114W        W29697  12.744  43.338  11.577
58115W        W29698  17.737  36.169   2.054
58116W        W29699  37.865   1.245   2.186
58117W        W29700   4.812  11.816   2.940
58118W        W29701   3.058  31.409   4.772
58119W        W29702   2.844  21.051  14.547
58120W        W29703   4.272  40.748  11.067
58121W        W29704  23.706  41.830  12.843
58122W        W29705  15.380  39.604   1.969
58123W        W29706  37.504   6.231  12.964
58124W        W29707  10.335  12.786  14.726
58125W        W29708  29.662  24.515   3.891
58126W        W29709  39.612  36.400  14.400
58127W        W29710  24.671  33.898  11.394
58128W        W29711   5.798  36.607   2.435
58129W        W29712  27.433  32.746  12.405
58130W        W29713  40.495  15.066   0.769
58131W        W29714  18.997  19.020  12.980
58132W        W29715  40.504  37.790  10.475
58133W        W29716  34.904   7.705   0.389
58134W        W29717  13.971  14.444   3.481
58135W        W29718  44.519  15.729   1.684
58136W        W29719  19.560  44.191   4.515
58137W        W29720  40.241  31.668   4.590
58138W        W29721  31.496  10.627   2.176
58139W        W29722  44.892  41.340  11.364
58140W        W29723  21.549  12.922   4.195
58141W        W29724  40.286  16.751  12.091
58142W        W29725  29.114  24.810  14.252
58143W        W29726  15.332  26.508  11.551
58144W        W29727  41.027   4.386   3.145
58145W        W29728  40.364  20.290  14.480
58146W        W29729   0.003  33.970  13.286
58147W        W29730  41.728  16.575  14.193
58148W        W29731   0.751  22.928   2.185
58149W        W29732  25.548  33.765  12.122
58150W        W29733  44.204  25.654  10.231
58151W        W29734  38.296  42.874  11.501
58152W        W29735   5.733  14.241  14.443
58153W        W29736  44.599  20.757  10.493
58154W        W29737  18.258  13.623  14.047
58155W        W29738  41.229   5.994   3.201
58156W        W29739  28.536  22.252   3.705
58157W        W29740  23.633  35.902   0.152
58158W        W29741  31.181   6.875  14.818
58159W        W29742  39.597   2.593   4.177
58160W        W29743  34.513  33.081  14.920
58161W        W29744  17.027  33.919  11.905
58162W        W29745  19.832  35.875   0.393
58163W        W29746  16.530  19.345  10.391
58164W        W29747  42.819  21.260  14.846
58165W        W29748  17.232  33.189  11.015
58166W        W29749  33.049  22.147  14.793
58167W        W29750  43.073   9.193  12.845
58168W        W29751  27.595   5.961  11.447
58169W        W29752   8.176   8.843  11.525
58170W        W29753  38.881  11.772  13.411
58171W        W29754  40.538  26.191  11.103
58172W        W29755  14.613   5.472   3.561
58173W        W29756  24.629  44.856  11.593
58174W        W29757  22.931  41.425  10.716
58175W        W29758   3.499  44.959   2.303
58176W        W29759  15.636  21.253  14.041
58177W        W29760   8.123   2.709  11.193
58178W        W29761  17.082  29.922   3.324
58179W        W29762  38.091   4.154   3.820
58180W        W29763  29.461  11.352   2.010
58181W        W29764  42.427  32.953   4.209
58182W        W29765  41.969   0.295  10.759
58183W        W29766  15.158  25.615  13.343
58184W        W29767   0.920  40.784   3.802
58185W        W29768  38.260  16.161   4.164
58186W        W29769   2.348  37.923  14.330
58187W        W29770  44.227  14.359  10.281
58188W        W29771   8.221  11.781   2.331
58189W        W29772  13.594  11.354   2.046
58190W        W29773  13.537   2.440  12.603
58191W        W29774  39.268  41.954   0.470
58192W        W29775   2.889  10.042  14.121
58193W        W29776  42.518   5.616  12.029
58194W        W29777  28.943  12.115   3.259
58195W        W29778  19.151  38.681   2.118
58196W        W29779  14.813  40.254  12.720
58197W        W29780   6.452  21.613  14.724
58198W        W29781  36.355   3.803  12.053
58199W        W29782   2.859  36.756   4.214
58200W        W29783   2.643  26.012  12.487
58201W        W29784  18.267  39.765  12.791
58202W        W29785  13.346   6.534  11.970
58203W        W29786   5.828  28.526   3.626
58204W        W29787  13.620  36.494  13.275
58205W        W29788  10.455  38.926  14.371
58206W        W29789  29.145  17.154  14.461
58207W        W29790  32.894  30.198   2.067
58208W        W29791  38.752  44.864   3.091
58209W        W29792  35.072  41.546   3.645
58210W        W29793  13.685   3.996  11.141
58211W        W29794  29.659  15.091   0.450
58212W        W29795  16.324  19.482   5.073
58213W        W29796   8.205  12.182  10.914
58214W        W29797  13.888  30.909   3.248
58215W        W29798  40.136  42.328   4.287
58216W        W29799  15.714   6.427  10.424
58217W        W29800   4.437  15.131   2.757
58218W        W29801  19.767   7.275  12.644
58219W        W29802  29.434   8.372   1.285
58220W        W29803  31.586   0.027  12.943
58221W        W29804   5.823  22.172   1.077
58222W        W29805   5.142   0.314   3.082
58223W        W29806   5.696  17.661   2.229
58224W        W29807   5.821   1.964   2.398
58225W        W29808  13.037  38.334   3.971
58226W        W29809  18.122  19.243   0.305
58227W        W29810  11.604  26.096   1.910
58228W        W29811  23.465  37.862   0.419
58229W        W29812   0.772  18.353  13.955
58230W        W29813  18.201  33.192  11.892
58231W        W29814  28.986   5.108  12.365
58232W        W29815   9.338  35.656  14.510
58233W        W29816  14.167  36.928  10.610
58234W        W29817  31.896  21.665  10.175
58235W        W29818  16.542  26.938   3.785
58236W        W29819  39.742   7.703  14.044
58237W        W29820  34.763  11.673   0.817
58238W        W29821  36.558   2.538   4.139
58239W        W29822  12.850  13.619  10.592
58240W        W29823   4.041  42.017  13.590
58241W        W29824  25.523  14.278   4.722
58242W        W29825   8.552  18.936  13.604
58243W        W29826  30.595  18.219   1.008
58244W        W29827   0.879  42.356   0.211
58245W        W29828   7.930  27.919  13.361
58246W        W29829  27.018  38.336  10.830
58247W        W29830  20.395  41.996  12.352
58248W        W29831  25.956  34.887  13.469
58249W        W29832   2.996  11.893   0.453
58250W        W29833  44.881  32.193   4.695
58251W        W29834  29.945  11.538  12.709
58252W        W29835   6.886  30.749  12.901
58253W        W29836   2.801   1.593  11.154
58254W        W29837  40.407  40.526  14.589
58255W        W29838  14.036  32.728  11.126
58256W        W29839  14.960  25.216  13.632
58257W        W29840  29.446   2.260  13.078
58258W        W29841  25.088  23.725   0.892
58259W        W29842  36.004   7.869   1.722
58260W        W29843  10.691  10.024  12.469
58261W        W29844  41.807   0.467   1.298
58262W        W29845  35.211   5.903  10.439
58263W        W29846  17.760   8.820   1.406
58264W        W29847  28.018  17.532   1.338
58265W        W29848  34.406  21.394  13.384
58266W        W29849  21.964  17.835   4.576
58267W        W29850  23.970  26.088   1.810
58268W        W29851   1.403  41.215  11.148
58269W        W29852  20.072  36.838  13.852
58270W        W29853  23.173  20.765  14.716
58271W        W29854  31.937  18.183   2.346
58272W        W29855  22.183  15.867   3.194
58273W        W29856  33.819  20.498  10.716
58274W        W29857  20.146  13.640   2.137
58275W        W29858   6.383  40.717  12.985
58276W        W29859  28.443  22.243  14.032
58277W        W29860  10.267  26.126  10.464
58278W        W29861   6.271  36.923  13.048
58279W        W29862  34.916  12.049   1.789
58280W        W29863  41.344  29.009   1.926
58281W        W29864  44.452  21.311  10.436
58282W        W29865  32.876  43.837   4.689
58283W        W29866  34.919  15.336  12.416
58284W        W29867  28.059  17.257   4.579
58285W        W29868  44.582   3.409   3.915
58286W        W29869  33.115  22.525  12.472
58287W        W29870  23.707  12.846  10.555
58288W        W29871  12.780  44.024   2.776
58289W        W29872  17.222  36.779   1.768
58290W        W29873  37.057   4.330  13.029
58291W        W29874  11.232  43.087   2.337
58292W        W29875  34.079  13.808  14.972
58293W        W29876  10.340  22.303   3.101
58294W        W29877  17.364  10.833  14.359
58295W        W29878   8.398   3.272   1.175
58296W        W29879  43.154   4.436  12.173
58297W        W29880  37.472  16.078  12.825
58298W        W29881   3.403  11.634  10.594
58299W        W29882  38.158   6.395   3.819
58300W        W29883  39.325   0.850   1.428
58301W        W29884   1.291   3.139  10.897
58302W        W29885  10.343   8.876  14.474
58303W        W29886   2.727   2.158  13.857
58304W        W29887   0.410   4.220   1.308
58305W        W29888  12.167   2.260   3.772
58306W        W29889  34.063  15.983   3.222
58307W        W29890  15.662   5.382   4.676
58308W        W29891  23.124  34.674  13.823
58309W        W29892  32.908   2.730   3.341
58310W        W29893   7.373  29.087  14.711
58311W        W29894   0.891  31.666  14.876
58312W        W29895   9.969   1.652   0.339
58313W        W29896  39.554  35.806  11.989
58314W        W29897  25.441  39.414   4.575
58315W        W29898  37.970  23.672  10.761
58316W        W29899  36.830  31.147   0.915
58317W        W29900   5.831  36.876   3.382
58318W        W29901  19.687  44.913   2.292
58319W        W29902   8.088  39.866   0.423
58320W        W29903   4.793  36.049  12.104
58321W        W29904  32.940  38.340   2.008
58322W        W29905  37.341   7.277   3.197
58323W        W29906  10.667   8.881   3.607
58324W        W29907  22.489  26.701   3.755
58325W        W29908  20.203  15.635   0.958
58326W        W29909  30.403  24.142   1.323
58327W        W29910  15.713  18.613  14.823
58328W        W29911  21.637  33.719  12.048
58329W        W29912   2.934  39.298   0.753
58330W        W29913  26.242  11.356   0.512
58331W        W29914   8.633  32.128   0.728
58332W        W29915   6.985  11.246  14.557
58333W        W29916   0.034  36.142  14.948
58334W        W29917  40.061  18.280  11.085
58335W        W29918  32.638  30.359  12.088
58336W        W29919  19.297   0.925   1.661
58337W        W29920  12.025  14.667   3.721
58338W        W29921  32.656  41.794   0.843
58339W        W29922   7.233  24.244  10.700
58340W        W29923  18.827  34.608   3.715
58341W        W29924  25.518   7.950   3.192
58342W        W29925  11.823  29.737   4.243
58343W        W29926  35.268  44.908   1.663
58344W        W29927   6.896   7.300   1.225
58345W        W29928  17.187   9.197   3.135
58346W        W29929   0.001   7.152   3.645
58347W        W29930  38.994   5.846  10.977
58348W        W29931   4.304  12.795   2.576
58349W        W29932  37.141  10.697   2.603
58350W        W29933  18.654  21.959   1.714
58351W        W29934  10.878  33.776   2.418
58352W        W29935  26.164  22.457   4.089
58353W        W29936  27.695  44.952  12.354
58354W        W29937   1.234   3.458  12.086
58355W        W29938   9.219   6.390  10.732
58356W        W29939  20.281   6.838   2.893
58357W        W29940  29.980  19.983  10.824
58358W        W29941  30.985   5.390   3.208
58359W        W29942  41.358  21.814  12.530
58360W        W29943  44.448  37.960  13.301
58361W        W29944   2.164  44.955   2.757
58362W        W29945  31.148   5.374  10.724
58363W        W29946  43.216  36.281  12.530
58364W        W29947  34.963  19.308   4.083
58365W        W29948  36.433  29.501  11.684
58366W        W29949  11.792   3.033   0.416
58367W        W29950  17.582  31.854   0.301
58368W        W29951  31.829  32.474   2.216
58369W        W29952  30.191   4.816  12.556
58370W        W29953   1.409  44.229   3.303
58371W        W29954  41.531  23.718   3.335
58372W        W29955  18.228  15.697  10.535
58373W        W29956  32.131  14.091   2.607
58374W        W29957   8.113  31.507   3.594
58375W        W29958  11.931  13.698  11.565
58376W        W29959  34.580   7.733  13.430
58377W        W29960  35.857  28.671  13.421
58378W        W29961  29.440  16.689  11.576
58379W        W29962  18.700  17.266  14.918
58380W        W29963  26.613  44.391   2.240
58381W        W29964  35.163  14.055  12.956
58382W        W29965  21.643  11.456  11.616
58383W        W29966  10.291  15.587  14.815
58384W        W29967  42.658   4.325  12.096
58385W        W29968   9.509  14.463   3.020
58386W        W29969  20.689   6.356   1.649
58387W        W29970  17.025  10.376  11.723
58388W        W29971  26.274  40.792  10.655
58389W        W29972  18.051   0.173  13.156
58390W        W29973  30.068  12.573  11.877
58391W        W29974  28.978   4.978   4.824
58392W        W29975  25.902   9.505   1.887
58393W        W29976  25.073  39.305   0.506
58394W        W29977   0.199  42.874   2.186
58395W        W29978  22.763  35.331   3.721
58396W        W29979  43.743   4.873  14.212
58397W        W29980  38.345  17.160  12.623
58398W        W29981  14.330  22.272  14.832
58399W        W29982  26.707  14.596   0.822
58400W        W29983  37.620   9.918  10.597
58401W        W29984  42.288   5.630   1.730
58402W        W29985  11.286  32.523  14.903
58403W        W29986  35.651   6.719  14.475
58404W        W29987  33.571  13.565   4.927
58405W        W29988  34.047  44.966   2.840
58406W        W29989  23.483  22.904   4.044
58407W        W29990   4.322  37.147  11.944
58408W        W29991  32.301  12.836   1.502
58409W        W29992  19.906  34.675   2.817
58410W        W29993  20.200  22.816  11.700
58411W        W29994  36.731   5.547  14.130
58412W        W29995  27.944  32.523  13.482
58413W        W29996  44.536  38.342   0.173
58414W        W29997  33.637   5.817   1.874
58415W        W29998  34.838  37.874   3.372
58416W        W29999  15.450  13.885  12.648
58417W        W30000  16.568  44.364  10.904
58418W        W30001  12.744  20.512  11.606
58419W        W30002  20.185   3.391  13.771
58420W        W30003  18.123  26.959   3.688
58421W        W30004  23.486   3.719   1.717
58422W        W30005  26.795  14.578   2.620
58423W        W30006  44.427   9.530  14.506
58424W        W30007  43.961  37.083   0.767
58425W        W30008  27.174  16.243   4.613
58426W        W30009   0.428  13.867   4.363
58427W        W30010  23.388  42.505   3.204
58428W        W30011  17.326  32.236   4.226
58429W        W30012  18.165  34.411  13.360
58430W        W30013   1.290   7.235  12.139
58431W        W30014   9.376  22.465   2.190
58432W        W30015  23.657  41.537   1.332
58433W        W30016  30.982  14.903   3.396
58434W        W30017  41.921  18.024   4.233
58435W        W30018  14.715  34.202  12.965
58436W        W30019  19.550  27.053  12.861
58437W        W30020  43.694  37.570   1.532
58438W        W30021  34.402   9.746  12.012
58439W        W30022  30.191  12.443   3.700
58440W        W30023  44.690  13.282  14.994
58441W        W30024  33.154  41.208   4.036
58442W        W30025   5.427  10.319   2.149
58443W        W30026   6.925  24.785   1.879
58444W        W30027  21.185  26.120  13.031
58445W        W30028  22.286   0.423   2.843
58446W        W30029  29.317  41.335   0.933
58447W        W30030   3.149  32.227  12.404
58448W        W30031  31.980  11.342   0.024
58449W        W30032   9.047  19.750  10.336
58450W        W30033   7.937  28.683   1.692
58451W        W30034   8.477   5.240   0.333
58452W        W30035  19.700   5.753   0.756
58453W        W30036  13.914  20.221   3.774
58454W        W30037  12.744  32.095  11.603
58455W        W30038  17.091  18.593  14.280
58456W        W30039  21.514  23.111   3.764
58457W        W30040   9.082  14.691   0.032
58458W        W30041  12.672  41.659   1.355
58459W        W30042  41.791  19.163   0.179
58460W        W30043  28.247  17.210  11.566
58461W        W30044  41.015  35.148   0.757
58462W        W30045  21.637  33.539   9.606
58463W        W30046   1.951   3.327   0.823
58464W        W30047  16.346   1.887   0.013
58465W        W30048  34.262  19.848  11.179
58466W        W30049  41.365   9.764   0.919
58467W        W30050   6.861  11.675  14.308
58468W        W30051  11.535  11.162  14.426
58469W        W30052   1.200  43.277   2.335
58470W        W30053  16.786  14.721  12.093
58471W        W30054   2.780  42.491  10.683
58472W        W30055  42.281  42.364  14.381
58473W        W30056   6.164   0.802   2.745
58474W        W30057  37.081  26.141  14.322
58475W        W30058  18.678  22.251  13.776
58476W        W30059  43.724   4.332  12.894
58477W        W30060   4.453  16.768  13.923
58478W        W30061  42.295  32.880   1.822
58479W        W30062  12.721  23.124  13.279
58480W        W30063   5.784  33.044  11.547
58481W        W30064  40.982  42.195  11.634
58482W        W30065  28.470  44.533  12.925
58483W        W30066  34.017  27.018   1.641
58484W        W30067  29.170  26.527  12.581
58485W        W30068   2.685  30.307   1.150
58486W        W30069  33.778  19.804  13.421
58487W        W30070  31.543   7.655  10.583
58488W        W30071   2.837  23.726   2.943
58489W        W30072  31.704  12.092  11.863
58490W        W30073  27.134  10.822  12.991
58491W        W30074  38.522  15.517   1.905
58492W        W30075  21.941   4.323  11.058
58493W        W30076   6.383  33.069  13.656
58494W        W30077  15.087  43.483   2.119
58495W        W30078  39.813  22.137  10.723
58496W        W30079  43.761   7.684   2.896
58497W        W30080  41.608  34.471   0.005
58498W        W30081  18.776   5.446  14.652
58499W        W30082  14.123  18.105   1.851
58500W        W30083  24.088   7.885  11.464
58501W        W30084  17.199  14.794   1.183
58502W        W30085   0.764  42.023  13.914
58503W        W30086  17.545  22.580  12.518
58504W        W30087  34.120  44.834   0.727
58505W        W30088  22.756  17.004  12.008
58506W        W30089  19.664  22.391  14.832
58507W        W30090  28.960  24.411   0.682
58508W        W30091  41.358  22.812   3.245
58509W        W30092  19.170  37.569  12.036
58510W        W30093   0.224  13.430   4.530
58511W        W30094  16.832  36.244   4.227
58512W        W30095  29.493   9.888   3.900
58513W        W30096  23.697  17.172   3.799
58514W        W30097  13.905  20.193  11.164
58515W        W30098  44.597  38.862  13.122
58516W        W30099  16.234   1.733  12.124
58517W        W30100  31.609  11.650  14.776
58518W        W30101   6.793  22.114   2.670
58519W        W30102   8.676  24.219  10.653
58520W        W30103   3.379   1.797  14.318
58521W        W30104   7.770  36.298   3.286
58522W        W30105  26.269  13.279  10.577
58523W        W30106  17.609  35.343   1.442
58524W        W30107  25.675  11.914  13.046
58525W        W30108  17.981   4.786  13.047
58526W        W30109   3.960  22.650  11.616
58527W        W30110  24.887  30.585  12.540
58528W        W30111   7.899  29.201  14.765
58529W        W30112   3.254   8.216  12.255
58530W        W30113   8.316  19.563   2.110
58531W        W30114  15.799   8.692  12.927
58532W        W30115  34.423   1.490  14.286
58533W        W30116   4.457  21.803  11.745
58534W        W30117  31.427  26.349   0.250
58535W        W30118  16.094  39.133   1.432
58536W        W30119  23.172  42.561  13.327
58537W        W30120  13.155  35.746  11.235
58538W        W30121  40.868   7.625  11.565
58539W        W30122   5.163   4.786  12.307
58540W        W30123  25.399  41.342  13.262
58541W        W30124  33.579  44.311  13.322
58542W        W30125  27.168   4.306  14.493
58543W        W30126  24.021   2.608  11.523
58544W        W30127  44.617  31.028   2.649
58545W        W30128   0.798  42.506  11.494
58546W        W30129   4.843  15.257  14.706
58547W        W30130  32.112  33.506  10.749
58548W        W30131  34.074  34.945   1.235
58549W        W30132  42.160  31.076   4.225
58550W        W30133  20.488  30.906   0.207
58551W        W30134  35.622  21.808   1.666
58552W        W30135  28.701  17.251  14.711
58553W        W30136  33.194  20.503  13.414
58554W        W30137   7.680  11.112  13.925
58555W        W30138  18.042  29.068   1.319
58556W        W30139  37.380  25.324   1.433
58557W        W30140  33.098   9.075   0.304
58558W        W30141  16.639  28.759   1.066
58559W        W30142  33.872   6.931  11.351
58560W        W30143  15.715  39.177   4.466
58561W        W30144  15.145   4.897   4.087
58562W        W30145  22.969  36.600  12.666
58563W        W30146  28.439   4.759  14.222
58564W        W30147  13.685  44.496   2.768
58565W        W30148   3.434  18.364   1.934
58566W        W30149  13.675   6.153  11.748
58567W        W30150   4.185   2.199  11.422
58568W        W30151  27.928  39.847   3.378
58569W        W30152   1.763   9.461   1.384
58570W        W30153  33.364  36.041   3.215
58571W        W30154  22.451  44.765  12.302
58572W        W30155  15.733  39.947   1.795
58573W        W30156  10.338   8.267   3.283
58574W        W30157   4.308  12.056   3.271
58575W        W30158  36.212  16.825  12.592
58576W        W30159  21.277  24.391  12.298
58577W        W30160  18.985  17.316   4.090
58578W        W30161  43.901  13.704  13.577
58579W        W30162   1.856  28.580   4.251
58580W        W30163   7.284  41.026  11.190
58581W        W30164  24.452  16.235  13.313
58582W        W30165  43.460   3.009   2.418
58583W        W30166  39.350   6.911   2.540
58584W        W30167  11.718  21.646   0.466
58585W        W30168  40.540   8.063   4.297
58586W        W30169   4.706  35.831   3.398
58587W        W30170  27.409  11.148  13.858
58588W        W30171   0.960   7.753   2.801
58589W        W30172   1.747  10.908   4.186
58590W        W30173  42.912  30.126  12.885
58591W        W30174  33.477  32.477  14.280
58592W        W30175  39.295   4.374   2.605
58593W        W30176  30.930  10.371  13.773
58594W        W30177  15.219   3.298   2.456
58595W        W30178  18.135   5.804   4.537
58596W        W30179   4.748   9.158   1.448
58597W        W30180  10.870  23.791  13.809
58598W        W30181   9.151  37.359   2.874
58599W        W30182   4.080  18.092  11.544
58600W        W30183  43.536  25.428  11.459
58601W        W30184  27.461  12.773   2.475
58602W        W30185   9.642  10.269  11.986
58603W        W30186   5.284  26.478  10.281
58604W        W30187  39.550   6.378  14.847
58605W        W30188  16.328  21.041   4.111
58606W        W30189  27.639   0.397   4.667
58607W        W30190  36.483  36.510  14.416
58608W        W30191  43.222  44.372   0.061
58609W        W30192  26.650  35.266  11.228
58610W        W30193  25.753  22.730  12.502
58611W        W30194  44.808  43.589  10.473
58612W        W30195  37.503   6.193   0.968
58613W        W30196  25.651  20.646  10.687
58614W        W30197  22.155  11.370  11.967
58615W        W30198  29.490  18.196   1.451
58616W        W30199  24.736  43.400   4.493
58617W        W30200  37.112  12.926   4.681
58618W        W30201  44.513  25.927  10.986
58619W        W30202  13.502  20.853   1.658
58620W        W30203  13.314  21.768  13.497
58621W        W30204  39.134  38.866   0.815
58622W        W30205  24.197  31.192  12.055
58623W        W30206  37.334   6.338   4.250
58624W        W30207  12.312  44.234  14.094
58625W        W30208  38.924  43.834  11.132
58626W        W30209  26.881  39.470  12.118
58627W        W30210  39.449  22.979  14.732
58628W        W30211  19.913  19.125   3.287
58629W        W30212  38.126  19.394   0.031
58630W        W30213  31.843   0.454   2.810
58631W        W30214  10.007  30.481   5.007
58632W        W30215  32.531   3.443   3.312
58633W        W30216  28.679  42.505  11.781
58634W        W30217  13.805  44.214   3.202
58635W        W30218  17.377  17.641  10.806
58636W        W30219  37.014   4.460   0.922
58637W        W30220  26.207  35.015  13.925
58638W        W30221   9.358  16.622   2.773
58639W        W30222  42.948  32.524   0.939
58640W        W30223   6.184   5.803   2.700
58641W        W30224  30.879  36.323  12.979
58642W        W30225  22.601   4.473   4.001
58643W        W30226  24.303  20.965   3.732
58644W        W30227  13.411  11.192  10.562
58645W        W30228   1.301   2.831   2.374
58646W        W30229  32.450  21.264  12.982
58647W        W30230  25.677  33.402  11.228
58648W        W30231  28.640  11.198   1.802
58649W        W30232   2.364  11.462   3.416
58650W        W30233  29.248   7.382  11.781
58651W        W30234  40.062  32.620   1.795
58652W        W30235  11.285  18.053   0.051
58653W        W30236  26.397  21.044   3.777
58654W        W30237   8.347  39.981  10.639
58655W        W30238  41.919  38.943   3.142
58656W        W30239  11.888  43.462  12.859
58657W        W30240  24.886  18.007   2.623
58658W        W30241  24.637  41.889   4.907
58659W        W30242  24.599  14.396  12.745
58660W        W30243  37.061   1.237  12.088
58661W        W30244  16.339  31.202  12.682
58662W        W30245   9.703   6.126   1.347
58663W        W30246  23.225  33.105   4.972
58664W        W30247  12.672  21.545  11.242
58665W        W30248  38.098   1.824   2.766
58666W        W30249  23.766  33.727  12.030
58667W        W30250  44.373  42.698  10.142
58668W        W30251  28.650   2.424  12.034
58669W        W30252  10.231  43.749   3.352
58670W        W30253  44.589  24.620   0.268
58671W        W30254  25.280  36.068  12.922
58672W        W30255  42.815  43.335   4.127
58673W        W30256  14.307  44.754   3.682
58674W        W30257  30.668  36.523   2.723
58675W        W30258  39.320  15.288  12.580
58676W        W30259  27.660  11.681   2.657
58677W        W30260   9.879  14.854   0.160
58678W        W30261   0.251  36.383   4.589
58679W        W30262  30.507  33.937  12.836
58680W        W30263   7.041  35.347  11.994
58681W        W30264  28.583  22.472  14.987
58682W        W30265  31.244  10.406  11.296
58683W        W30266  41.408  35.992   4.286
58684W        W30267  12.076  14.745   4.542
58685W        W30268  21.491   5.337  13.758
58686W        W30269   7.050   6.240  13.919
58687W        W30270  12.293  30.201  12.103
58688W        W30271   6.860  13.134  12.017
58689W        W30272  23.757  25.091   9.897
58690W        W30273   7.425  28.728   2.656
58691W        W30274  31.144  25.740   2.017
58692W        W30275   2.339  25.121  11.367
58693W        W30276  42.999  42.035   2.999
58694W        W30277  40.543  28.540   3.568
58695W        W30278  21.921  35.561   3.381
58696W        W30279   0.490  40.817   1.979
58697W        W30280  34.247  22.670  13.365
58698W        W30281  27.389  34.155   5.137
58699W        W30282  43.148  29.920   2.288
58700W        W30283   6.008  11.913   4.182
58701W        W30284  30.204  32.492  10.026
58702W        W30285  36.279  28.402  13.558
58703W        W30286  21.834  29.608  11.851
58704W        W30287  15.466   1.841   2.843
58705W        W30288  35.922  12.064   4.630
58706W        W30289  25.261  12.971  10.137
58707W        W30290  32.200  22.491   1.489
58708W        W30291  38.052  19.244   3.110
58709W        W30292  35.786   9.581   4.070
58710W        W30293  20.746  22.700  10.703
58711W        W30294  14.024  15.817   1.270
58712W        W30295  12.550  41.429   2.135
58713W        W30296  38.618  24.693   5.138
58714W        W30297   7.044  35.786  13.668
58715W        W30298  17.519  11.189  12.336
58716W        W30299  11.931   8.219   3.605
58717W        W30300  25.003   3.917  12.458
58718W        W30301  23.149   7.813   4.550
58719W        W30302  40.842   3.473  11.904
58720W        W30303  32.926  44.445   1.480
58721W        W30304  33.424  28.997   9.834
58722W        W30305  31.186   1.271  11.059
58723W        W30306  14.216  41.173  12.302
58724W        W30307   4.043  30.144  11.242
58725W        W30308  20.493   8.451  13.044
58726W        W30309  31.389  18.412  14.326
58727W        W30310  16.810   7.821  14.480
58728W        W30311  26.054  34.231  10.927
58729W        W30312  40.496   7.987   3.337
58730W        W30313  14.772  26.009  11.235
58731W        W30314  27.759   9.119   9.963
58732W        W30315   1.859   5.890  14.630
58733W        W30316  35.131  37.558   3.058
58734W        W30317   0.150  23.398  13.594
58735W        W30318   7.522   6.303   0.493
58736W        W30319  30.048  15.816   4.664
58737W        W30320  28.567   2.851  13.502
58738W        W30321  22.650   3.773  12.950
58739W        W30322  14.142  14.555   2.734
58740W        W30323  39.209   5.390  11.161
58741W        W30324  18.199  40.816   2.827
58742W        W30325  33.353  37.367  13.999
58743W        W30326  14.208   2.935  12.983
58744W        W30327   3.335  18.098  13.349
58745W        W30328   4.235  31.381   1.902
58746W        W30329   5.317   0.826  11.555
58747W        W30330  32.435  22.907   1.237
58748W        W30331  28.952  38.510  12.861
58749W        W30332  20.092  17.541  11.815
58750W        W30333   5.778   0.452   3.812
58751W        W30334  25.293  11.312   2.812
58752W        W30335  30.929  29.151   4.006
58753W        W30336  41.811  12.561   4.051
58754W        W30337  28.105  13.264   4.632
58755W        W30338   2.163   6.882  11.627
58756W        W30339  24.624  25.462   4.584
58757W        W30340  41.872  43.842   1.450
58758W        W30341  30.146  44.342  10.703
58759W        W30342  24.799  16.905  11.145
58760W        W30343  44.759  28.693   3.822
58761W        W30344  15.287  30.641   2.331
58762W        W30345  16.656   4.451   2.219
58763W        W30346   0.385  29.038  14.460
58764W        W30347  21.706  36.416   1.388
58765W        W30348   7.519  10.288  14.941
58766W        W30349  22.991   6.769  11.015
58767W        W30350  42.808  27.951   1.689
58768W        W30351  25.240  11.345   0.450
58769W        W30352  42.823   3.979   3.328
58770W        W30353  32.412   9.919  11.228
58771W        W30354  31.558  38.777  10.733
58772W        W30355  10.834  11.535  11.110
58773W        W30356   3.971  39.627   3.544
58774W        W30357  43.765  36.613   4.107
58775W        W30358  30.511  21.804   4.102
58776W        W30359  14.206   0.196  13.895
58777W        W30360  29.336  37.056  13.451
58778W        W30361  10.835  36.127  14.399
58779W        W30362  19.086   5.926   1.247
58780W        W30363  35.626   5.786  14.546
58781W        W30364  42.946  16.306  12.419
58782W        W30365  42.033  43.243  11.555
58783W        W30366  14.518   5.690   4.053
58784W        W30367  24.548  33.385   4.096
58785W        W30368  35.930  19.732  11.629
58786W        W30369  28.232   5.213   9.966
58787W        W30370  44.938  18.873   0.320
58788W        W30371  13.294  29.177  13.989
58789W        W30372  22.231   3.926   2.289
58790W        W30373  22.231  40.777   3.415
58791W        W30374  14.623  29.317   2.462
58792W        W30375  38.332  23.293  14.240
58793W        W30376  22.240   6.522  14.945
58794W        W30377  33.692   3.354  13.238
58795W        W30378  25.082  31.008   3.666
58796W        W30379  44.710  16.756   0.967
58797W        W30380  14.062  20.212   3.272
58798W        W30381  14.044  33.982  12.982
58799W        W30382   9.975  18.838   0.339
58800W        W30383  11.920   3.191  11.989
58801W        W30384  38.725  15.079  14.809
58802W        W30385   8.928  36.090   1.993
58803W        W30386  18.222   1.889   0.909
58804W        W30387  35.470  30.834   0.562
58805W        W30388  27.559  17.141  14.356
58806W        W30389   1.350   8.395   3.638
58807W        W30390  21.529  22.063   2.270
58808W        W30391  31.543  41.407   4.049
58809W        W30392  25.028  14.501   3.673
58810W        W30393  29.845   4.090   0.432
58811W        W30394   3.133  35.528   1.752
58812W        W30395   2.390  43.530  14.726
58813W        W30396  33.624  26.771   4.290
58814W        W30397   2.140  30.148  13.480
58815W        W30398   1.778  10.677  11.650
58816W        W30399  35.365  25.638  11.279
58817W        W30400   8.283   7.149   1.019
58818W        W30401   2.947  32.157   3.280
58819W        W30402  40.213  37.364  12.838
58820W        W30403  20.932  27.172  14.306
58821W        W30404   6.719   9.890   4.626
58822W        W30405   8.755  35.954  11.695
58823W        W30406  16.667  16.556   3.220
58824W        W30407  19.755   0.781  12.670
58825W        W30408  10.808   2.304   3.211
58826W        W30409  26.669  13.455  13.151
58827W        W30410  26.777  30.642   3.315
58828W        W30411  13.784  29.220   1.274
58829W        W30412  34.191  17.804  11.999
58830W        W30413  32.448   6.108  13.978
58831W        W30414   9.303  14.612   2.253
58832W        W30415  26.747  28.476   0.328
58833W        W30416  26.643  17.590   2.859
58834W        W30417  23.455  19.778  13.768
58835W        W30418  26.160  15.435   1.953
58836W        W30419  40.999  26.066  12.012
58837W        W30420  20.945  25.484   4.315
58838W        W30421  42.447  42.596   1.185
58839W        W30422   8.529  22.264   4.103
58840W        W30423  12.325  43.668   3.693
58841W        W30424  33.787  44.851  11.069
58842W        W30425  41.478  26.195   3.781
58843W        W30426  39.926  10.963   3.763
58844W        W30427  39.744  24.432  12.924
58845W        W30428  16.844  29.035  13.850
58846W        W30429   2.028  31.358   4.327
58847W        W30430  25.876  24.757   2.406
58848W        W30431   0.791  39.982   4.907
58849W        W30432  34.588  12.836   1.961
58850W        W30433   2.174  34.051   3.831
58851W        W30434  32.563  35.333   4.348
58852W        W30435  17.179   9.439  12.881
58853W        W30436  23.242  23.326  11.105
58854W        W30437  22.095  40.359  12.385
58855W        W30438  13.381  23.175  11.396
58856W        W30439   1.863  36.467  14.967
58857W        W30440  34.792  25.173   0.759
58858W        W30441  11.382  44.240  12.620
58859W        W30442   4.411  23.553  10.742
58860W        W30443  19.047  38.001  11.009
58861W        W30444  26.248  29.207  11.562
58862W        W30445   2.893  43.447   4.669
58863W        W30446  14.136  39.923   4.711
58864W        W30447  25.403  42.657  14.006
58865W        W30448  27.709  17.854  13.132
58866W        W30449  14.129   9.695  11.973
58867W        W30450  17.789  12.119   1.952
58868W        W30451   3.772  21.695   2.190
58869W        W30452  35.844   5.472  13.994
58870W        W30453  11.795   4.800  13.393
58871W        W30454  21.773  32.127   1.726
58872W        W30455  10.649  10.131  14.443
58873W        W30456  30.403  13.239   2.663
58874W        W30457  26.253  41.260  14.842
58875W        W30458   1.504   5.954   3.270
58876W        W30459  26.377  28.119  13.442
58877W        W30460  14.874  15.053   3.172
58878W        W30461  36.527   8.598   1.767
58879W        W30462   7.690  12.813  12.475
58880W        W30463  28.362  41.386  13.484
58881W        W30464  27.166   9.785   2.100
58882W        W30465  15.592  24.661  13.092
58883W        W30466  12.663  43.871   0.227
58884W        W30467  31.602  39.188   0.101
58885W        W30468  39.340  16.883   0.024
58886W        W30469   2.866  30.417   0.315
58887W        W30470   7.073  31.064  11.642
58888W        W30471  34.842  37.421   4.616
58889W        W30472  25.354  29.004  10.661
58890W        W30473  28.528  26.977  10.888
58891W        W30474  31.233  30.592   2.122
58892W        W30475  26.534  40.796   4.498
58893W        W30476  31.377  17.124  14.280
58894W        W30477  13.732   5.825  12.550
58895W        W30478   6.909  42.038   4.630
58896W        W30479  13.758  10.474  11.150
58897W        W30480   8.684  25.093  12.795
58898W        W30481  31.453  11.676  11.064
58899W        W30482  19.745  38.949  11.197
58900W        W30483   7.136  41.925  11.633
58901W        W30484  40.034   3.004   1.726
58902W        W30485   8.720  29.904  14.633
58903W        W30486  17.193   9.730  11.566
58904W        W30487  14.536  22.754   3.618
58905W        W30488  39.444  15.134   2.811
58906W        W30489  23.789  31.332   3.288
58907W        W30490  35.180  34.321   2.727
58908W        W30491  21.074   8.488   4.452
58909W        W30492  28.010  11.897   2.359
58910W        W30493  34.115   8.841   3.177
58911W        W30494  36.569   1.724  14.042
58912W        W30495   9.167  43.986  14.403
58913W        W30496  13.594  17.373   3.832
58914W        W30497  29.677  22.966   3.272
58915W        W30498   3.052   5.390   3.211
58916W        W30499  26.145  18.333   3.781
58917W        W30500  11.686   0.499   2.857
58918W        W30501  41.560  38.274   0.214
58919W        W30502  28.015   2.567  12.432
58920W        W30503  38.070  37.484   2.376
58921W        W30504  20.028  23.188  12.042
58922W        W30505   3.756   4.851  14.971
58923W        W30506  44.247  22.147   0.548
58924W        W30507  24.604   7.149   2.955
58925W        W30508  11.385  22.620  13.524
58926W        W30509   4.263   4.835  12.870
58927W        W30510  42.041  29.073   1.008
58928W        W30511  36.274  17.174   3.185
58929W        W30512  22.033   5.629  12.447
58930W        W30513  16.277   9.648  11.610
58931W        W30514   0.295  38.517   1.287
58932W        W30515  31.836  11.676  11.574
58933W        W30516  19.236  44.130   2.319
58934W        W30517  14.747   7.980   0.157
58935W        W30518  13.585  44.762  10.702
58936W        W30519  27.659  19.710   1.852
58937W        W30520  31.018  27.608  13.437
58938W        W30521   5.757  23.637   0.758
58939W        W30522  11.804  13.284  14.746
58940W        W30523  15.724  34.251  13.454
58941W        W30524   4.390  10.522  10.766
58942W        W30525  18.779   9.247   4.395
58943W        W30526  11.790  22.906  12.995
58944W        W30527   8.903  29.011  14.455
58945W        W30528  20.944  21.094   2.316
58946W        W30529  13.891  17.169   2.864
58947W        W30530  42.972   5.932  12.044
58948W        W30531  24.585  25.468  12.700
58949W        W30532  34.053  42.857   5.003
58950W        W30533  30.241  23.569  10.607
58951W        W30534  16.892  14.114   3.581
58952W        W30535  25.575   9.929   2.845
58953W        W30536  27.684  33.558   1.694
58954W        W30537  29.249  19.609  13.308
58955W        W30538  30.946  25.593   3.809
58956W        W30539  24.831  18.926  10.972
58957W        W30540  43.921  24.470  12.192
58958W        W30541  28.622  21.738   1.188
58959W        W30542  24.493  32.667  14.370
58960W        W30543  10.139  20.086  13.970
58961W        W30544  16.276   4.379  13.220
58962W        W30545   1.492  16.938  12.471
58963W        W30546  43.360  44.141  12.421
58964W        W30547  38.568  11.661  11.608
58965W        W30548  13.530  10.673   0.537
58966W        W30549  36.432  36.116   0.536
58967W        W30550  19.828   6.775  11.645
58968W        W30551  30.594  43.402  10.600
58969W        W30552   3.296   9.391   1.305
58970W        W30553  29.103   9.829  11.218
58971W        W30554   3.305  24.330  14.934
58972W        W30555  14.347  20.694  14.787
58973W        W30556  34.560  15.108   3.460
58974W        W30557  23.055  42.267  12.370
58975W        W30558  17.314   5.863  14.750
58976W        W30559  15.724   3.292  14.509
58977W        W30560  11.199  42.923   1.029
58978W        W30561   0.472   8.523   3.870
58979W        W30562  28.891  22.760   4.102
58980W        W30563  34.986  12.350  12.668
58981W        W30564  21.317  16.354  10.195
58982W        W30565   1.271  36.632   3.471
58983W        W30566  21.291  19.053   0.416
58984W        W30567   0.956  22.495   1.234
58985W        W30568  18.972  26.045   3.106
58986W        W30569  43.086  18.997  11.263
58987W        W30570  29.948  31.866   5.086
58988W        W30571  42.611  24.646  10.495
58989W        W30572   0.414  41.865   0.764
58990W        W30573  21.204  22.053   4.006
58991W        W30574  33.455   3.886  13.052
58992W        W30575  42.514  16.697  14.862
58993W        W30576  13.586  25.585  14.526
58994W        W30577  27.165  10.353   3.557
58995W        W30578  38.614   4.478  14.302
58996W        W30579  42.015  21.484   3.459
58997W        W30580  13.055   0.416  13.453
58998W        W30581  18.840  26.450   4.993
58999W        W30582  26.458  36.573  10.768
59000W        W30583  37.801  22.572   0.464
59001W        W30584  10.123  27.891   3.805
59002W        W30585  43.906  42.212  10.542
59003W        W30586  42.874  37.455  13.608
59004W        W30587   1.257  27.060  13.178
59005W        W30588  36.807  13.871   4.900
59006W        W30589  41.267   2.391   1.285
59007W        W30590   7.660  10.630  14.074
59008W        W30591  34.639  29.719   1.469
59009W        W30592  31.454  27.916  10.658
59010W        W30593  42.772   8.287   4.085
59011W        W30594  32.599  19.316   9.694
59012W        W30595   6.948  12.180  10.597
59013W        W30596  43.936  29.084   0.343
59014W        W30597  38.754   3.826   5.036
59015W        W30598  25.716  26.396  14.355
59016W        W30599  41.207  43.753  11.967
59017W        W30600   5.464  38.342  11.120
59018W        W30601  36.946  44.413   3.271
59019W        W30602  35.401  30.135  12.557
59020W        W30603  20.281  36.346   4.211
59021W        W30604  15.008   0.656   0.592
59022W        W30605  14.855   2.875   2.340
59023W        W30606  32.504  38.234  14.499
59024W        W30607  15.537  18.012   0.413
59025W        W30608  36.857  39.605  10.336
59026W        W30609   7.952   0.408   4.595
59027W        W30610  11.412   2.955  13.178
59028W        W30611   2.269  16.273   3.398
59029W        W30612  23.727  19.105  11.631
59030W        W30613  12.625  21.027   5.195
59031W        W30614   5.353   8.718  11.474
59032W        W30615   6.817   7.784   4.107
59033W        W30616  19.489   5.235  11.418
59034W        W30617  29.065  26.129  13.963
59035W        W30618   7.122  22.516  11.224
59036W        W30619  16.072   0.256  11.987
59037W        W30620  44.718  18.628   2.877
59038W        W30621  25.501  16.472   3.161
59039W        W30622  18.195  40.773  14.757
59040W        W30623  12.864  15.551   1.793
59041W        W30624   6.516  21.855  12.538
59042W        W30625  30.046  24.612  14.243
59043W        W30626  37.570  23.557  14.851
59044W        W30627  20.739   3.263  14.350
59045W        W30628   0.319  24.313   3.712
59046W        W30629  11.757  29.649   0.380
59047W        W30630  15.489  11.217   1.383
59048W        W30631  13.653  29.929  12.413
59049W        W30632  23.719  13.661  14.939
59050W        W30633  32.285  11.725  13.571
59051W        W30634   2.219  40.602   0.482
59052W        W30635  36.888  25.584   0.355
59053W        W30636   6.750  23.044   0.137
59054W        W30637  39.628  21.661   4.093
59055W        W30638  38.094  40.061  11.492
59056W        W30639  13.919  33.611   4.681
59057W        W30640  39.380  26.152   5.013
59058W        W30641  43.915  30.471  10.594
59059W        W30642  38.087  44.557  14.365
59060W        W30643  32.541  36.143   1.213
59061W        W30644   1.302   5.244  11.607
59062W        W30645  39.015   6.906  14.300
59063W        W30646   6.659  15.728   4.748
59064W        W30647  18.859   0.425   4.433
59065W        W30648  22.504  29.519   2.723
59066W        W30649   2.282  43.148  12.829
59067W        W30650   7.527  29.507   3.669
59068W        W30651  26.179  10.085  10.252
59069W        W30652   8.315  28.904   3.643
59070W        W30653  15.893  21.995  14.819
59071W        W30654  33.936   7.731   0.131
59072W        W30655  30.147  19.559   3.792
59073W        W30656  31.966   3.092  11.037
59074W        W30657  43.468  20.314   2.261
59075W        W30658   9.354  26.468   4.028
59076W        W30659  19.100  16.306  14.922
59077W        W30660   6.428   1.545  11.950
59078W        W30661   6.207   0.683   2.249
59079W        W30662  27.231   8.413   1.840
59080W        W30663   5.957  34.511   1.405
59081W        W30664  40.881  43.391  14.948
59082W        W30665  41.992   0.228   1.710
59083W        W30666  23.315  32.386  11.075
59084W        W30667  34.044   4.495  10.663
59085W        W30668  17.321   9.667   2.867
59086W        W30669  15.352  27.772   1.715
59087W        W30670  43.014  35.070  14.595
59088W        W30671  31.251   5.752  13.424
59089W        W30672  26.028   6.256   2.491
59090W        W30673   9.419  35.369   0.976
59091W        W30674  22.268  41.199  12.062
59092W        W30675  36.932   0.792  14.439
59093W        W30676  37.117  10.705  13.264
59094W        W30677  34.942  13.877  11.522
59095W        W30678  18.380   3.386   3.772
59096W        W30679  15.554  30.525  14.330
59097W        W30680  21.292  16.040   4.264
59098W        W30681  44.176  31.610  14.373
59099W        W30682  37.277  32.265   4.646
59100W        W30683  15.330   8.674   3.246
59101W        W30684  16.257   8.900  13.709
59102W        W30685  16.685  30.997  13.024
59103W        W30686  20.309  26.574  12.002
59104W        W30687   9.688  22.560  14.508
59105W        W30688  25.942  30.177   1.363
59106W        W30689   6.472  32.448   1.900
59107W        W30690  26.637  28.572  12.036
59108W        W30691  32.059  19.156   2.191
59109W        W30692   6.016  15.260   1.972
59110W        W30693  28.887   0.905  11.621
59111W        W30694  34.644  44.786  13.759
59112W        W30695  36.286  40.445  13.415
59113W        W30696  11.657   6.857  11.109
59114W        W30697   4.792  24.933  12.305
59115W        W30698  23.132  28.725  12.519
59116W        W30699  17.500  21.383  14.846
59117W        W30700  19.256  41.032   3.432
59118W        W30701   1.730  31.432   4.754
59119W        W30702   2.210   8.203  11.115
59120W        W30703  14.896   3.984  10.601
59121W        W30704  31.394  22.674  14.493
59122W        W30705   7.012   8.415   4.719
59123W        W30706   2.966  35.823  12.797
59124W        W30707  13.252  44.510  11.518
59125W        W30708  44.711   4.824  11.169
59126W        W30709  13.721  44.126  14.478
59127W        W30710  16.251  10.288  12.432
59128W        W30711   4.664  31.110  13.297
59129W        W30712  37.264  30.470   0.495
59130W        W30713  21.093  13.228  11.125
59131W        W30714  12.549  39.990   4.730
59132W        W30715   6.237  35.458  10.714
59133W        W30716  25.149  21.268   0.313
59134W        W30717  33.565  21.349   3.591
59135W        W30718  29.253  27.788   2.666
59136W        W30719  42.658  13.737  13.075
59137W        W30720  21.996  26.149   3.308
59138W        W30721  30.883  14.271   4.202
59139W        W30722  43.390   6.925  12.405
59140W        W30723   7.190  40.067   2.817
59141W        W30724  42.201   8.891  11.647
59142W        W30725   4.205  23.307   2.459
59143W        W30726  31.713  15.357  14.331
59144W        W30727  34.375  35.788  10.956
59145W        W30728  42.509   9.889   3.075
59146W        W30729  43.934  16.571  11.579
59147W        W30730  43.855  42.388  12.293
59148W        W30731  10.815  42.295   3.220
59149W        W30732  39.719   8.796  10.596
59150W        W30733  37.849   8.243   5.039
59151W        W30734  24.947  10.202  14.948
59152W        W30735  10.596  16.626   1.268
59153W        W30736  23.971   3.332   3.259
59154W        W30737   7.221  42.067   3.821
59155W        W30738  39.364  27.185   1.160
59156W        W30739  28.862  43.992   4.089
59157W        W30740  32.086   2.266  14.557
59158W        W30741  16.192  37.019  12.329
59159W        W30742  28.502  31.889   2.785
59160W        W30743   4.431  38.967  10.872
59161W        W30744  18.434  39.546   3.699
59162W        W30745  23.289   4.738  14.930
59163W        W30746  41.119   6.153   5.005
59164W        W30747  22.526  44.175   2.259
59165W        W30748   4.751  23.194  11.994
59166W        W30749  11.417  18.955  13.538
59167W        W30750   5.325  23.634   4.275
59168W        W30751   7.940   3.379   4.024
59169W        W30752  34.018   0.681  11.905
59170W        W30753  31.393  22.999  13.168
59171W        W30754   1.035  37.537  10.821
59172W        W30755   6.806  38.991   3.783
59173W        W30756   9.613  31.419   0.796
59174W        W30757   2.596  23.607  12.161
59175W        W30758  33.040  29.014   3.706
59176W        W30759  35.052  23.969   1.056
59177W        W30760   8.203  31.750  12.384
59178W        W30761  28.189  24.341   2.959
59179W        W30762   1.421  34.678  12.051
59180W        W30763  28.547  22.421   2.732
59181W        W30764  24.181  37.184   3.692
59182W        W30765  22.175  24.462  12.936
59183W        W30766  10.440  31.554  12.534
59184W        W30767  20.278  39.360   3.711
59185W        W30768   2.901  23.141   1.687
59186W        W30769  10.810  13.865  13.327
59187W        W30770  19.146  40.442   2.789
59188W        W30771   2.175  34.746   2.929
59189W        W30772  28.331  16.044  12.054
59190W        W30773  24.254  32.166  13.076
59191W        W30774  40.429   4.247  12.091
59192W        W30775   8.226   2.758   2.246
59193W        W30776  28.053  32.473   1.239
59194W        W30777   9.913  39.988  12.162
59195W        W30778  11.739   5.699  14.779
59196W        W30779  15.562   2.770   3.732
59197W        W30780  21.047  43.449   4.806
59198W        W30781   5.803  18.498  12.105
59199W        W30782  25.352   2.783  10.700
59200W        W30783   6.690  26.431  12.014
59201W        W30784   8.735  23.928   2.237
59202W        W30785  19.694  19.555   4.618
59203W        W30786   5.688  11.906  14.493
59204W        W30787  37.792  29.650   3.254
59205W        W30788   5.198   7.233   4.122
59206W        W30789  28.099  22.576  12.288
59207W        W30790  16.538  31.572  13.509
59208W        W30791   5.230   4.668   3.812
59209W        W30792   5.901  38.938  11.218
59210W        W30793  27.131  44.056  13.565
59211W        W30794   8.435  42.572   1.937
59212W        W30795  35.532  32.680   4.610
59213W        W30796   4.189  30.959   0.365
59214W        W30797   1.779  34.195  11.022
59215W        W30798  41.476  28.433  14.840
59216W        W30799   2.177  18.222   2.862
59217W        W30800  18.738   2.384   3.136
59218W        W30801   6.241  13.866  14.747
59219W        W30802  33.546   6.757   4.497
59220W        W30803  23.323   1.193   4.726
59221W        W30804  12.944  43.657  13.912
59222W        W30805  10.616  22.019  11.034
59223W        W30806  15.992  25.957  13.808
59224W        W30807  17.396  36.893   4.494
59225W        W30808  10.720   5.158  12.865
59226W        W30809  17.905   5.429  14.403
59227W        W30810  19.758  21.004   3.789
59228W        W30811  33.139  37.438  12.687
59229W        W30812   1.701  39.579   3.103
59230W        W30813  42.357  31.148  10.584
59231W        W30814  15.909  34.915  14.025
59232W        W30815  15.827  14.560  12.983
59233W        W30816  35.018  38.391  12.622
59234W        W30817  24.944  28.096   0.406
59235W        W30818  21.840  44.127   2.431
59236W        W30819  22.709   1.846   1.370
59237W        W30820   5.234  16.230   3.679
59238W        W30821  28.625   9.194  11.522
59239W        W30822   0.281  17.632   3.469
59240W        W30823  13.526   7.890   3.172
59241W        W30824  16.017   3.429  11.116
59242W        W30825  25.048  24.423  12.136
59243W        W30826  22.460  16.293  13.965
59244W        W30827  44.897  41.792  11.626
59245W        W30828  42.404  21.368   1.879
59246W        W30829  22.764   0.938   1.214
59247W        W30830  15.251  36.350  14.781
59248W        W30831  14.689  31.696  10.557
59249W        W30832  34.392  13.159   0.698
59250W        W30833  34.786  24.679  12.594
59251W        W30834  38.044  27.932  11.116
59252W        W30835  23.467  14.593   4.486
59253W        W30836  22.435  39.376  13.824
59254W        W30837  43.472  39.741   0.586
59255W        W30838  15.316  29.471   3.747
59256W        W30839  14.670  33.640  10.544
59257W        W30840   2.241  42.522   3.778
59258W        W30841  30.518   3.487   3.809
59259W        W30842  19.125  22.763   0.895
59260W        W30843  31.973  43.766   2.881
59261W        W30844  25.101  41.916   4.680
59262W        W30845  44.376  16.594   0.538
59263W        W30846  18.435  34.211  12.404
59264W        W30847   9.554  34.968  14.295
59265W        W30848  16.272  40.722  13.895
59266W        W30849  44.041   8.447  13.584
59267W        W30850  17.824  39.342  13.373
59268W        W30851  23.109   8.196   0.055
59269W        W30852  42.329  44.719  10.452
59270W        W30853   9.145  21.633  14.887
59271W        W30854   8.193  25.965   1.806
59272W        W30855  17.287  19.218   1.951
59273W        W30856  38.884  37.168  13.937
59274W        W30857  26.470  14.245   4.178
59275W        W30858  28.073  18.644  10.665
59276W        W30859  29.540  14.541   3.815
59277W        W30860  23.637  41.604  13.922
59278W        W30861  10.383  30.839  11.081
59279W        W30862  12.159  42.968   2.337
59280W        W30863  43.930  21.114  11.947
59281W        W30864  13.099  22.636  10.530
59282W        W30865  27.204  29.347  14.401
59283W        W30866  26.980  28.013  14.020
59284W        W30867  32.516  28.413   0.834
59285W        W30868  14.094  27.793  11.646
59286W        W30869  25.502  24.501  10.957
59287W        W30870  14.137   2.425  13.334
59288W        W30871  22.485   2.450   2.245
59289W        W30872  28.141  44.986   4.180
59290W        W30873  19.188  28.143   2.761
59291W        W30874  18.672   3.759  13.501
59292W        W30875  26.158  44.404   1.371
59293W        W30876  39.955  34.967   2.412
59294W        W30877  41.003  18.107   2.600
59295W        W30878  21.093  17.702   4.074
59296W        W30879  14.137  44.451  14.439
59297W        W30880  36.979  36.696   4.285
59298W        W30881  39.875  25.122   0.231
59299W        W30882   0.093  14.739  13.708
59300W        W30883  30.930  29.554  13.477
59301W        W30884  11.211  42.606   3.066
59302W        W30885   6.737  37.993   0.274
59303W        W30886   6.852  11.175  12.006
59304W        W30887   1.379   3.224  13.474
59305W        W30888   6.107   9.518  14.582
59306W        W30889  39.465  24.010  10.676
59307W        W30890  44.853  39.821   0.706
59308W        W30891  16.684  19.096   0.342
59309W        W30892   8.147  41.805   4.440
59310W        W30893  13.643   7.328   0.052
59311W        W30894  13.789  30.441   2.247
59312W        W30895  13.683   0.262   0.390
59313W        W30896   0.819  11.137   0.278
59314W        W30897  41.404   3.149   0.784
59315W        W30898  39.327  27.446  13.390
59316W        W30899  21.639   7.692  13.643
59317W        W30900  23.502  30.514  13.599
59318W        W30901   7.810  10.289   4.100
59319W        W30902  12.172   9.238   2.427
59320W        W30903  41.861  44.410   5.002
59321W        W30904  36.543  21.131  13.368
59322W        W30905   3.510  23.939  13.595
59323W        W30906  42.373  31.903  14.100
59324W        W30907  12.312  13.445  14.750
59325W        W30908  24.988  19.204   2.347
59326W        W30909  21.752  32.564   1.438
59327W        W30910  10.886  44.504  14.961
59328W        W30911  34.528  29.625  11.119
59329W        W30912  32.361  24.535  12.256
59330W        W30913  15.119  33.606  13.574
59331W        W30914  31.552  27.000  10.220
59332W        W30915  27.524  15.648  12.074
59333W        W30916  36.809  34.634   2.838
59334W        W30917  36.735  38.907   3.669
59335W        W30918  22.311  13.631  14.883
59336W        W30919  38.577   8.291  12.559
59337W        W30920  37.478  41.274   4.380
59338W        W30921  33.584  43.833  11.967
59339W        W30922  17.312  34.416   3.397
59340W        W30923  39.959  44.007  13.296
59341W        W30924  18.484  28.411  11.171
59342W        W30925   4.265  19.654  13.033
59343W        W30926   0.503  37.627   0.952
59344W        W30927  20.156  27.638  13.940
59345W        W30928   1.082  21.307  11.049
59346W        W30929   5.272  44.370   0.164
59347W        W30930  32.324   0.903   4.602
59348W        W30931  14.344  25.717   1.281
59349W        W30932  17.719  33.937   2.731
59350W        W30933  19.883   4.416   0.211
59351W        W30934  14.604  37.906  13.503
59352W        W30935   1.901  14.391  10.949
59353W        W30936   6.293   8.138   4.192
59354W        W30937  17.037  34.430   4.327
59355W        W30938  29.054  12.139   0.230
59356W        W30939   5.759   4.367  12.452
59357W        W30940  10.694  19.699  14.983
59358W        W30941   1.004  42.552  13.877
59359W        W30942  41.752  33.942  10.751
59360W        W30943  35.130   3.861   0.285
59361W        W30944  44.261   9.455   0.415
59362W        W30945   2.357  35.311   1.737
59363W        W30946  38.608   4.366  12.584
59364W        W30947  43.846   4.924   2.189
59365W        W30948   7.305  32.919   2.679
59366W        W30949  43.993   5.652  11.014
59367W        W30950  22.711  42.898   2.471
59368W        W30951  42.873  30.582   4.063
59369W        W30952  43.260   6.222   1.289
59370W        W30953  17.739  40.328   4.556
59371W        W30954  19.145  30.867   3.119
59372W        W30955  26.758  37.722   2.321
59373W        W30956  32.963  22.605   3.813
59374W        W30957  27.576   3.001   0.931
59375W        W30958  43.429  15.373   3.676
59376W        W30959   6.940  43.984  10.389
59377W        W30960  31.018  31.932   4.908
59378W        W30961  10.724  22.689  14.798
59379W        W30962  43.777   8.094   4.057
59380W        W30963  16.308  14.773   4.148
59381W        W30964   9.226  40.569  10.191
59382W        W30965  14.673  15.156  11.418
59383W        W30966  41.783  17.720   2.755
59384W        W30967   9.479   8.399   2.296
59385W        W30968  15.203   5.292  11.375
59386W        W30969  12.396  31.960   3.321
59387W        W30970  11.292  14.051  13.326
59388W        W30971  37.012  13.770   2.799
59389W        W30972   0.755  32.073   0.845
59390W        W30973  20.758  12.865  12.050
59391W        W30974  27.755  32.113   3.219
59392W        W30975  41.415   3.982   1.232
59393W        W30976  16.866  35.353  14.904
59394W        W30977  39.129  39.503   3.489
59395W        W30978   2.977  22.565   3.639
59396W        W30979  18.090  26.728   2.160
59397W        W30980  42.903  43.484  13.455
59398W        W30981  26.156   0.485   3.246
59399W        W30982  17.156  15.470   5.039
59400W        W30983  34.879  23.088  14.474
59401W        W30984  32.401   9.385  11.063
59402W        W30985  36.842  23.555   3.395
59403W        W30986  35.573  15.233  14.492
59404W        W30987   6.133  12.272   3.823
59405W        W30988  17.290   1.756   0.986
59406W        W30989  13.522  30.482   1.772
59407W        W30990   3.572  41.122   2.883
59408W        W30991   7.053  31.694   4.716
59409W        W30992  38.187  37.091   2.696
59410W        W30993  27.998  18.638   2.848
59411W        W30994  33.791  14.117   4.157
59412W        W30995  20.560  35.627  12.094
59413W        W30996   2.584  27.097   3.263
59414W        W30997  32.582  28.600  11.624
59415W        W30998  40.566   5.837  11.079
59416W        W30999   3.353  38.799  12.352
59417W        W31000  42.216   5.898   2.855
59418W        W31001  25.003  11.322  12.833
59419W        W31002  26.490  11.167   4.898
59420W        W31003  14.496  10.829   0.254
59421W        W31004  22.602  18.070  11.535
59422W        W31005  16.138  15.653   3.724
59423W        W31006  42.739   6.437  14.504
59424W        W31007  28.620  26.208   2.177
59425W        W31008  15.550  43.490  13.419
59426W        W31009   9.339  13.122   4.176
59427W        W31010   2.133   4.799  14.491
59428W        W31011  23.131  12.331  12.363
59429W        W31012  44.210  11.668   2.357
59430W        W31013  29.230   4.812  13.456
59431W        W31014  10.641  44.020  14.129
59432W        W31015  23.578  16.197   3.187
59433W        W31016   6.622  10.878  14.354
59434W        W31017  23.155  33.647  13.944
59435W        W31018  31.570  36.917  11.143
59436W        W31019  28.452  16.037   2.996
59437W        W31020  15.270  42.600  10.488
59438W        W31021  36.631  44.741   1.750
59439W        W31022  16.128  23.016   2.321
59440W        W31023  36.688  12.828  11.827
59441W        W31024  12.702   6.083  12.234
59442W        W31025  25.176  43.748  10.490
59443W        W31026  18.288  30.068  13.400
59444W        W31027  10.484  38.835  11.460
59445W        W31028  29.011  37.387  11.525
59446W        W31029   0.461  43.083   1.811
59447W        W31030  19.084  16.086  12.287
59448W        W31031  31.169   6.349  13.027
59449W        W31032  43.892  43.234   3.362
59450W        W31033  36.052  17.600   4.708
59451W        W31034  26.933  39.409  10.789
59452W        W31035  36.334  19.616  14.044
59453W        W31036  40.853  38.960  14.777
59454W        W31037  14.505  22.647  14.286
59455W        W31038   1.633  16.047   4.572
59456W        W31039  12.358  35.048  12.435
59457W        W31040  31.013  11.242  14.685
59458W        W31041  27.153  13.882   4.149
59459W        W31042  14.147   5.946  11.557
59460W        W31043  19.828  33.171  11.506
59461W        W31044  31.150  15.891   5.007
59462W        W31045  41.488  13.152  11.995
59463W        W31046  29.040  40.466  14.842
59464W        W31047  17.218   7.257  11.265
59465W        W31048  32.933   6.225  10.772
59466W        W31049   2.852  32.411  11.162
59467W        W31050   8.859  42.468   2.230
59468W        W31051  32.269  18.795  10.841
59469W        W31052   9.187  15.294  10.658
59470W        W31053  24.756  25.543   2.790
59471W        W31054  28.906   5.626   2.766
59472W        W31055  17.613  15.268  11.081
59473W        W31056  23.272  24.935   0.207
59474W        W31057  17.069  24.878   5.107
59475W        W31058  17.584  16.633  14.552
59476W        W31059  18.004  22.987   1.197
59477W        W31060  44.958   3.624   2.758
59478W        W31061  40.292   9.265  12.619
59479W        W31062   7.193  15.309  12.773
59480W        W31063  32.198  38.532  12.638
59481W        W31064   8.637  33.165   1.958
59482W        W31065  10.448  26.661  11.609
59483W        W31066  44.183  31.988  13.827
59484W        W31067  29.077  35.903  14.412
59485W        W31068  37.958  21.103  14.011
59486W        W31069  44.970  36.305   1.850
59487W        W31070  17.505  43.824   4.219
59488W        W31071  19.257  42.786  13.492
59489W        W31072  42.578  10.101   0.394
59490W        W31073   1.093  44.718   9.869
59491W        W31074  17.820  20.183   1.928
59492W        W31075  29.927  32.560   1.907
59493W        W31076  18.294  30.580  14.734
59494W        W31077  34.467  10.253  12.001
59495W        W31078   1.772  26.601   4.450
59496W        W31079  26.901  22.238  11.591
59497W        W31080  39.116  36.517  14.484
59498W        W31081  11.109  11.116  11.224
59499W        W31082   0.820  35.632  14.642
59500W        W31083  30.254  23.611   4.511
59501W        W31084   4.843  29.157  12.552
59502W        W31085  23.519  19.244   3.336
59503W        W31086  35.563  37.819  14.796
59504W        W31087  22.583  24.761   5.051
59505W        W31088  34.991  15.311   3.182
59506W        W31089  35.233   3.083  10.641
59507W        W31090   5.696  22.938   2.740
59508W        W31091  15.555  24.312  11.789
59509W        W31092  41.891   1.530   2.944
59510W        W31093   3.077  16.642  11.803
59511W        W31094  41.087   2.302  13.030
59512W        W31095  40.071   5.545   4.638
59513W        W31096   7.625   3.796   3.935
59514W        W31097  12.739  26.117   4.608
59515W        W31098  27.899   5.111  12.912
59516W        W31099  43.048  12.600  12.588
59517W        W31100  34.814  40.032  11.527
59518W        W31101  32.111  13.120  12.423
59519W        W31102   1.204   2.905  14.463
59520W        W31103   1.397  24.173  11.251
59521W        W31104  38.006   3.108   5.024
59522W        W31105  10.466  22.065  14.167
59523W        W31106  44.924  16.218  10.619
59524W        W31107   4.079   8.575   0.405
59525W        W31108  36.785  21.253   1.406
59526W        W31109   1.924  20.796   0.606
59527W        W31110  34.915  27.490   2.153
59528W        W31111  43.847  33.038   4.217
59529W        W31112  27.558  23.032  12.814
59530W        W31113   5.212  14.291  14.422
59531W        W31114  36.957   4.719   3.351
59532W        W31115  14.213  25.001  13.940
59533W        W31116  15.596  24.193   3.287
59534W        W31117   9.105  36.871  13.403
59535W        W31118  43.079   4.778  13.443
59536W        W31119  29.621  42.884   3.316
59537W        W31120   2.994  33.440  14.473
59538W        W31121   2.451  15.378  13.896
59539W        W31122  44.222  29.393   2.795
59540W        W31123   7.123  10.757  10.681
59541W        W31124  26.134  41.980  13.503
59542W        W31125  10.879  38.986  12.040
59543W        W31126  25.339  17.122   2.963
59544W        W31127  31.481  15.761  14.539
59545W        W31128   8.921   7.718  10.709
59546W        W31129  37.067  15.693  14.377
59547W        W31130   2.801  43.293  14.518
59548W        W31131  31.506   9.995  14.284
59549W        W31132  27.073   0.952  11.641
59550W        W31133  23.074   2.714  11.468
59551W        W31134  23.517  20.112   3.212
59552W        W31135  35.969   9.465  11.075
59553W        W31136  26.597  20.287  14.587
59554W        W31137  34.630   9.203   4.581
59555W        W31138  44.495  32.521   0.753
59556W        W31139  35.005  13.303  12.591
59557W        W31140  32.945  35.415  12.083
59558W        W31141  37.126  33.027  13.884
59559W        W31142  32.955  37.846   2.135
59560W        W31143  14.246  16.170   1.640
59561W        W31144  42.981  23.965   2.468
59562W        W31145  18.363  12.823   0.309
59563W        W31146  18.777  40.823  11.584
59564W        W31147  38.293   6.295   9.824
59565W        W31148   8.207  14.355   0.866
59566W        W31149   6.269  15.390  14.741
59567W        W31150  44.749   9.292   0.502
59568W        W31151  13.404  42.494  10.443
59569W        W31152   1.405  12.703   2.853
59570W        W31153   9.340  12.659   2.092
59571W        W31154  42.368  25.511  10.498
59572W        W31155   9.809  42.829   4.085
59573W        W31156  31.452  32.617  10.822
59574W        W31157  25.867  13.592  10.506
59575W        W31158  27.104  19.631  12.566
59576W        W31159   4.959  38.927   3.395
59577W        W31160   5.371  32.658   4.542
59578W        W31161  16.340  11.318   0.068
59579W        W31162  35.656  37.016   0.077
59580W        W31163  40.890  12.791  10.698
59581W        W31164  39.271  31.917  14.922
59582W        W31165  22.522  15.690   9.940
59583W        W31166  33.034  43.814  13.271
59584W        W31167  26.407  21.255  14.071
59585W        W31168  34.607   7.173   0.654
59586W        W31169  24.745   8.276  14.726
59587W        W31170  38.581  36.845   1.364
59588W        W31171  33.619  22.578   0.652
59589W        W31172  14.718  13.660   1.839
59590W        W31173  34.960  16.621  12.041
59591W        W31174   1.820  11.613   3.136
59592W        W31175  12.154  15.363   2.289
59593W        W31176  22.008  42.309   4.629
59594W        W31177  18.513  10.095   0.448
59595W        W31178  24.744  40.595  13.033
59596W        W31179  40.516  37.305  10.288
59597W        W31180  10.740   6.314   3.434
59598W        W31181  36.965   3.951  14.980
59599W        W31182  40.522  21.036  13.414
59600W        W31183  22.963  11.223   4.196
59601W        W31184  33.495  22.394  14.937
59602W        W31185   8.571  32.990  14.396
59603W        W31186  29.104   3.303  11.713
59604W        W31187  16.259  30.721  12.889
59605W        W31188   9.035   5.849   2.081
59606W        W31189   1.595  40.797  14.035
59607W        W31190  35.658   0.005   3.512
59608W        W31191  34.595  24.527  13.052
59609W        W31192  17.335  10.939  13.438
59610W        W31193  39.277   5.373   1.868
59611W        W31194  23.024  37.352  11.359
59612W        W31195  30.971  27.041   0.778
59613W        W31196  28.210  42.326  11.958
59614W        W31197   6.601  34.946  13.312
59615W        W31198  17.976  36.436  11.942
59616W        W31199  44.499  13.700   0.264
59617W        W31200  11.865  34.003   2.293
59618W        W31201   4.105  35.431  14.371
59619W        W31202  43.921  34.033   2.825
59620W        W31203  39.840  40.846   2.312
59621W        W31204  41.232  15.581  12.549
59622W        W31205  34.473  38.402  14.864
59623W        W31206   7.211  20.208   0.805
59624W        W31207   8.928  21.079  11.059
59625W        W31208  21.408  25.096  11.149
59626W        W31209  28.448  20.222   3.209
59627W        W31210  16.553   9.701  12.034
59628W        W31211  13.995   6.878  14.357
59629W        W31212  41.868   8.250  12.953
59630W        W31213   4.419  40.219   3.237
59631W        W31214  34.689   8.079  12.496
59632W        W31215  25.486  42.568   0.058
59633W        W31216  42.491  30.434  12.071
59634W        W31217  36.350  21.772   3.210
59635W        W31218  13.189  29.895   1.792
59636W        W31219  12.822  38.484  11.913
59637W        W31220  26.003  27.795  13.275
59638W        W31221  29.625  26.426  11.453
59639W        W31222  25.209  35.616  11.485
59640W        W31223  43.067  31.886   1.411
59641W        W31224  25.707  28.434   3.810
59642W        W31225  12.914   0.364   2.334
59643W        W31226  27.523  39.524  11.491
59644W        W31227  44.802  13.300  10.868
59645W        W31228  33.877  34.469   3.761
59646W        W31229  40.157  36.115  11.097
59647W        W31230   3.701  15.447  11.099
59648W        W31231  24.515  30.088  13.054
59649W        W31232  17.728  17.529  14.797
59650W        W31233  20.756   6.515  12.460
59651W        W31234   9.794  34.895  10.726
59652W        W31235  19.764  33.518  14.785
59653W        W31236  29.437  39.281  14.089
59654W        W31237  12.805  11.306   4.118
59655W        W31238  11.923  31.991   2.449
59656W        W31239   4.668  29.212  10.765
59657W        W31240  29.969  11.915  11.228
59658W        W31241  35.603   9.912   3.091
59659W        W31242  38.986  42.990  11.512
59660W        W31243  16.839  31.551  12.067
59661W        W31244  10.809  24.483   1.780
59662W        W31245  22.272   7.873   3.572
59663W        W31246  27.180  17.239   2.232
59664W        W31247  36.407  15.789   4.250
59665W        W31248  26.039   9.278   4.196
59666W        W31249  20.987  20.598  14.433
59667W        W31250   4.428  21.196  13.920
59668W        W31251  13.490  32.724  10.785
59669W        W31252  22.150  32.155  12.756
59670W        W31253  42.226  17.541   0.889
59671W        W31254  10.097   5.156  11.907
59672W        W31255  19.584  42.497   0.433
59673W        W31256   0.338  27.971   2.290
59674W        W31257  28.572   5.207   0.933
59675W        W31258   0.203  25.046   3.371
59676W        W31259  10.762   6.340  11.963
59677W        W31260  37.536  43.743  13.614
59678W        W31261  41.141   7.797  14.049
59679W        W31262  22.027  19.621  13.910
59680W        W31263  32.458   5.844  14.466
59681W        W31264  18.127   7.331   0.285
59682W        W31265  33.574  40.861   2.377
59683W        W31266   9.285  27.935   2.987
59684W        W31267  36.929  32.127  10.742
59685W        W31268   9.383  43.827   1.768
59686W        W31269  34.089  21.309   2.332
59687W        W31270  33.135   3.487   2.635
59688W        W31271  40.007  17.285   1.125
59689W        W31272  42.279  44.869   3.798
59690W        W31273   6.020  16.301  12.445
59691W        W31274  37.021  13.134   1.356
59692W        W31275  21.440  34.919   4.719
59693W        W31276  41.490  41.519  14.807
59694W        W31277  27.650   7.892   3.404
59695W        W31278  18.255   5.912   4.051
59696W        W31279   6.198  36.313   1.701
59697W        W31280  21.952  39.835  12.040
59698W        W31281   0.543  25.738  14.386
59699W        W31282  16.304  39.215  13.020
59700W        W31283  39.866  44.847  11.845
59701W        W31284  33.518  15.856  13.122
59702W        W31285  31.233  20.238  13.776
59703W        W31286   6.152  27.920  14.165
59704W        W31287  38.545  40.277  11.949
59705W        W31288  24.625  38.914   4.757
59706W        W31289  37.474   4.836   1.186
59707W        W31290  28.103  27.635   4.612
59708W        W31291  23.763  44.836   0.967
59709W        W31292  42.491   5.159   1.734
59710W        W31293  42.606  41.626  11.336
59711W        W31294   2.572  44.585  12.965
59712W        W31295  21.035  17.306  13.784
59713W        W31296  33.430  12.437   2.268
59714W        W31297  28.702   0.225  14.906
59715W        W31298   1.198  29.626  12.005
59716W        W31299   1.286  12.000   0.311
59717W        W31300   9.377   7.349  13.075
59718W        W31301   6.106   0.418   4.242
59719W        W31302   8.088  33.624   2.177
59720W        W31303  37.088  15.868  12.072
59721W        W31304  35.663   6.976   1.243
59722W        W31305  31.031  10.404  10.830
59723W        W31306  41.883  37.874   0.044
59724W        W31307  38.338  22.126   4.124
59725W        W31308  19.496  43.710   1.569
59726W        W31309  25.020  38.805  10.698
59727W        W31310  24.467  37.471  10.263
59728W        W31311   4.331  15.790  13.004
59729W        W31312   1.778  24.065   0.845
59730W        W31313  18.710  16.696  11.979
59731W        W31314   5.231   8.386  13.814
59732W        W31315   5.184  18.682  14.831
59733W        W31316  16.575  33.395   2.714
59734W        W31317  16.702  13.360  11.594
59735W        W31318  29.371  27.335  12.556
59736W        W31319  22.119  11.042   3.172
59737W        W31320   9.746  27.499   1.482
59738W        W31321   9.906   8.745  11.950
59739W        W31322   4.734  43.135   0.880
59740W        W31323  18.337  44.859   2.859
59741W        W31324  17.507   9.138   2.728
59742W        W31325   7.101   8.732   4.276
59743W        W31326  19.585  15.374  12.934
59744W        W31327  24.156  23.688  12.565
59745W        W31328  33.076  31.526   1.190
59746W        W31329  19.560  12.336   3.639
59747W        W31330  26.133  18.478   0.342
59748W        W31331  26.541  31.488   1.643
59749W        W31332  31.634  23.305   1.847
59750W        W31333  26.707  25.940   1.288
59751W        W31334  30.246  44.164   0.509
59752W        W31335   7.277  21.204  12.624
59753W        W31336   3.794  18.111  11.985
59754W        W31337  18.950  12.803  12.357
59755W        W31338  17.763  30.500  11.101
59756W        W31339  18.578   4.095   1.370
59757W        W31340  24.206  21.112  12.378
59758W        W31341  39.076  39.474   0.266
59759W        W31342  11.337  35.016   2.702
59760W        W31343  11.240  13.211   4.852
59761W        W31344  10.607   8.210  14.437
59762W        W31345  41.925  18.818  14.753
59763W        W31346  26.851  26.597  11.954
59764W        W31347   7.640  27.445  13.393
59765W        W31348  16.670  33.128   4.540
59766W        W31349  33.409   1.797  10.647
59767W        W31350   6.205  35.023  10.425
59768W        W31351  29.594   0.998  14.931
59769W        W31352   5.000   3.359   2.173
59770W        W31353  21.787   6.891  12.945
59771W        W31354   4.071  35.856   5.169
59772W        W31355  42.492  31.317   3.255
59773W        W31356  15.816  13.836  10.680
59774W        W31357  22.204  24.644  11.566
59775W        W31358  13.896  15.996  14.392
59776W        W31359  18.238  28.525   2.091
59777W        W31360  21.100  28.488   4.775
59778W        W31361   5.951  39.705   0.529
59779W        W31362  38.112  12.483   1.665
59780W        W31363  30.188  15.636  14.224
59781W        W31364  14.542   2.152   1.575
59782W        W31365  18.216  23.501   2.746
59783W        W31366  17.131  37.342  11.105
59784W        W31367  30.131  43.819   1.899
59785W        W31368  14.773  19.951  14.968
59786W        W31369  43.860   2.932   4.129
59787W        W31370  35.500  15.028  13.947
59788W        W31371   6.959   5.863   1.912
59789W        W31372  31.861  29.670   0.893
59790W        W31373   2.699  37.130   1.811
59791W        W31374  43.238   2.334   4.570
59792W        W31375  34.455  43.730  10.629
59793W        W31376  19.227  38.881   5.387
59794W        W31377   9.006   2.325  10.682
59795W        W31378  12.321  28.194   1.289
59796W        W31379   1.264  18.088   2.824
59797W        W31380  38.500  27.027  13.816
59798W        W31381  14.780   1.897  10.584
59799W        W31382  23.905  15.494  10.462
59800W        W31383  38.743   1.740   2.189
59801W        W31384  25.635  32.833   3.641
59802W        W31385  11.170  20.817  12.205
59803W        W31386  42.325   2.016  13.643
59804W        W31387  15.872  19.589  11.116
59805W        W31388  34.788  44.407   1.755
59806W        W31389   4.207  11.211  13.017
59807W        W31390  25.160  17.177   3.610
59808W        W31391  25.790  17.283   0.398
59809W        W31392   8.333   1.441   1.242
59810W        W31393  29.644  40.962   4.585
59811W        W31394   3.708  41.482  10.630
59812W        W31395  12.802  10.603   1.469
59813W        W31396  36.233   4.208   3.805
59814W        W31397  11.141   4.857  14.978
59815W        W31398  39.786  31.866   1.740
59816W        W31399  22.513  37.083   2.788
59817W        W31400  37.518  31.454  13.499
59818W        W31401  18.197  27.016   4.596
59819W        W31402  27.853  15.610  13.290
59820W        W31403  31.509  17.484   3.412
59821W        W31404  22.562  28.084   2.283
59822W        W31405  24.974  11.224   4.660
59823W        W31406   0.939  20.650   1.418
59824W        W31407  10.924  17.757  13.408
59825W        W31408  10.532  12.771   1.688
59826W        W31409  18.119   4.985  11.660
59827W        W31410  41.610  15.106  14.779
59828W        W31411   2.260   8.307  13.448
59829W        W31412  19.992  23.942   0.672
59830W        W31413  22.431   0.287  10.846
59831W        W31414  15.862   7.362  10.478
59832W        W31415  20.883  35.101   2.384
59833W        W31416  18.136  20.636   2.573
59834W        W31417  25.935   6.756   3.286
59835W        W31418  34.107  16.928  12.393
59836W        W31419  35.671  28.987   3.953
59837W        W31420  35.163  27.673  13.935
59838W        W31421  26.466  37.313   4.191
59839W        W31422  20.525  42.882   0.433
59840W        W31423  41.905  43.740  11.593
59841W        W31424  33.458  39.067  14.723
59842W        W31425  18.349  35.545  14.887
59843W        W31426  29.361  35.881   1.728
59844W        W31427  32.215  39.517  11.756
59845W        W31428  17.827   1.561   3.601
59846W        W31429   0.761  40.847   4.286
59847W        W31430  20.496  38.927   2.651
59848W        W31431  42.034  24.059  13.036
59849W        W31432   9.641  25.169   0.533
59850W        W31433  33.347  19.084   0.906
59851W        W31434  19.355  12.278   4.238
59852W        W31435   9.738  27.991   4.164
59853W        W31436   7.193  29.183   2.814
59854W        W31437  12.775   1.535   3.725
59855W        W31438   7.527  19.578  11.337
59856W        W31439   0.891  20.244  11.700
59857W        W31440  33.634   2.756  14.502
59858W        W31441  21.885  40.856  11.896
59859W        W31442  37.072  22.444   2.447
59860W        W31443  38.812  12.589  11.167
59861W        W31444  31.449   8.919  14.446
59862W        W31445  34.432  31.443   3.330
59863W        W31446  31.916  43.565   4.307
59864W        W31447  31.875  38.900   4.259
59865W        W31448  16.845   2.247   2.735
59866W        W31449   2.915   3.978   2.691
59867W        W31450  16.398  12.690  11.879
59868W        W31451  39.324   7.498  10.251
59869W        W31452  20.662   5.275   2.655
59870W        W31453   7.155  42.865   0.577
59871W        W31454  32.586  34.812   0.929
59872W        W31455  31.875  17.640   4.032
59873W        W31456  41.412  35.890  13.031
59874W        W31457  34.648   9.198   3.671
59875W        W31458  40.910   4.913  14.267
59876W        W31459   0.056  28.421   1.661
59877W        W31460  28.917  18.416   2.332
59878W        W31461  42.791  12.753   1.618
59879W        W31462  26.518   5.275  12.419
59880W        W31463  20.091  34.892   3.923
59881W        W31464  34.969  26.713   4.611
59882W        W31465   0.758  21.118  12.148
59883W        W31466  44.587  23.091  13.245
59884W        W31467  44.982  30.009  12.431
59885W        W31468  42.762   6.750   2.712
59886W        W31469   0.341  44.979  13.480
59887W        W31470  43.496  41.414   1.277
59888W        W31471   2.655   7.022   3.797
59889W        W31472  20.343  15.735  13.848
59890W        W31473  40.935  18.070  14.770
59891W        W31474  33.585  41.984  13.262
59892W        W31475   9.648  23.731   4.592
59893W        W31476  19.837  34.836  14.465
59894W        W31477   4.359  25.627   1.354
59895W        W31478   8.703   7.053  11.063
59896W        W31479   9.362  42.948   2.183
59897W        W31480   0.958   6.792   3.487
59898W        W31481  21.269  11.656  14.881
59899W        W31482  19.543   6.783   2.198
59900W        W31483   2.879  11.776   4.854
59901W        W31484  36.946  31.571   2.813
59902W        W31485  15.307  16.220   4.323
59903W        W31486   6.674  21.568   3.197
59904W        W31487  29.955  43.821  10.433
59905W        W31488  13.979  11.623   1.779
59906W        W31489  31.162  34.150  14.078
59907W        W31490  34.955   8.216   1.147
59908W        W31491  32.921  36.490   4.131
59909W        W31492  15.337  15.767   2.660
59910W        W31493  17.221  32.242  10.776
59911W        W31494  10.419  29.592   1.467
59912W        W31495  23.246  11.699   1.397
59913W        W31496  30.428  12.682   0.524
59914W        W31497   5.303  31.974   1.870
59915W        W31498  28.561   7.665  11.964
59916W        W31499  40.855   8.255   9.592
59917W        W31500   1.990  12.381  12.000
59918W        W31501  14.767  10.915  11.068
59919W        W31502  31.072  37.874  11.611
59920W        W31503  44.834  39.918  10.660
59921W        W31504   4.152  10.682  11.845
59922W        W31505  23.551  11.826  11.540
59923W        W31506  42.560  43.590   2.307
59924W        W31507  38.107  33.538  14.898
59925W        W31508  39.102  20.145   3.845
59926W        W31509  13.418  38.834  11.516
59927W        W31510  22.193  22.580  14.872
59928W        W31511  28.041  35.670   3.375
59929W        W31512  31.819  12.140   0.644
59930W        W31513  44.411   6.602   2.116
59931W        W31514  30.485  31.344  14.405
59932W        W31515  18.364  22.386  14.737
59933W        W31516  41.855  34.833  11.269
59934W        W31517  18.593   6.725  11.324
59935W        W31518  42.540  26.540   2.954
59936W        W31519  13.732  38.964   2.191
59937W        W31520  37.995  30.168   2.907
59938W        W31521  22.626   0.176  14.418
59939W        W31522  36.328   7.256   5.059
59940W        W31523   3.452   2.029   4.087
59941W        W31524  17.106  43.712  12.504
59942W        W31525  13.366  23.946  13.778
59943W        W31526  38.948   0.223  11.511
59944W        W31527  18.998  29.851   0.048
59945W        W31528  16.732  20.991   1.659
59946W        W31529  25.038  12.322  13.747
59947W        W31530  43.454  38.103  13.030
59948W        W31531  11.609   0.694   0.170
59949W        W31532  33.799  27.545  14.024
59950W        W31533  38.277  41.452  14.045
59951W        W31534   1.229   0.529   4.668
59952W        W31535  15.069  28.025  13.850
59953W        W31536  29.105  23.131  11.332
59954W        W31537  15.375   0.659   3.635
59955W        W31538  28.501  16.619   0.337
59956W        W31539  41.318  18.395   0.493
59957W        W31540  20.810  16.561  11.900
59958W        W31541   5.362  14.833  11.664
59959W        W31542   4.403  36.126   1.700
59960W        W31543  39.811  36.357  10.777
59961W        W31544  21.143   8.128   0.849
59962W        W31545  10.238   4.833   4.571
59963W        W31546  34.936  18.540  10.511
59964W        W31547  26.981  15.022  14.794
59965W        W31548   7.306  42.929  13.078
59966W        W31549  18.708  26.214   2.643
59967W        W31550  13.927   7.103   0.457
59968W        W31551   6.899  30.026   0.540
59969W        W31552   3.455  40.108   4.472
59970W        W31553   9.426  35.712   2.759
59971W        W31554  17.597  13.172   0.945
59972W        W31555  42.647  28.581   0.416
59973W        W31556  37.948   0.231  12.753
59974W        W31557  41.941  17.001   3.229
59975W        W31558  24.046  38.819   4.311
59976W        W31559   6.881  44.385  14.233
59977W        W31560  28.862  43.352   0.394
59978W        W31561   9.916  27.846   0.650
59979W        W31562   3.217   1.923   4.548
59980W        W31563  33.366  26.043   3.720
59981W        W31564  34.231  10.368  11.523
59982W        W31565  18.512  39.582  11.153
59983W        W31566  31.210  27.931  13.797
59984W        W31567  40.010  23.597  14.374
59985W        W31568  23.641  35.144  12.139
59986W        W31569  26.022  33.071   3.879
59987W        W31570  10.357  28.597   1.265
59988W        W31571  32.133   8.665   3.942
59989W        W31572   0.309   9.857  12.698
59990W        W31573  31.496   5.950   3.935
59991W        W31574  18.828   4.861   1.763
59992W        W31575  29.286  30.361   5.085
59993W        W31576   0.485  42.480   2.883
59994W        W31577   8.966  20.245   0.401
59995W        W31578  14.795  41.299   9.855
59996W        W31579   2.962   1.359  11.616
59997W        W31580  30.175  36.359   0.800
59998W        W31581  20.085  24.169   4.166
59999W        W31582  43.396  34.099   4.598
60000W        W31583  17.071  18.878   2.575
60001W        W31584  22.816  19.778  14.723
60002W        W31585  29.956   1.626  13.422
60003W        W31586  41.499  31.732   0.060
60004W        W31587  19.869  41.458   3.962
60005W        W31588  28.265  39.766   1.480
60006W        W31589  43.263  40.101   0.953
60007W        W31590  20.201  27.030   1.774
60008W        W31591  41.061  28.845  10.482
60009W        W31592  22.965  19.694   4.608
60010W        W31593  17.590  12.676  12.772
60011W        W31594  28.069  26.509   1.579
60012W        W31595  16.088  26.105   3.662
60013W        W31596   8.394   6.875  13.492
60014W        W31597  37.572  13.144  11.070
60015W        W31598   6.701   9.696   1.532
60016W        W31599  33.848  12.618  14.402
60017W        W31600  15.860   7.162  11.537
60018W        W31601  20.164   3.569   1.276
60019W        W31602  33.673  34.178   2.307
60020W        W31603  18.194   8.526  11.984
60021W        W31604  14.724  23.762  13.528
60022W        W31605  17.838   4.060  11.193
60023W        W31606  13.900  23.588   2.287
60024W        W31607  44.738  17.551   4.219
60025W        W31608  38.891   8.692   9.683
60026W        W31609   7.446   0.793   1.971
60027W        W31610  14.722  38.106   3.577
60028W        W31611  19.283   6.621  13.091
60029W        W31612  29.605   0.191  12.942
60030W        W31613  11.839  40.080  14.961
60031W        W31614  44.712  14.764   2.936
60032W        W31615  10.619  31.810   1.864
60033W        W31616  10.829  26.517   2.775
60034W        W31617  17.772   3.333   1.228
60035W        W31618   9.839  31.092  13.826
60036W        W31619  31.576   7.994  10.975
60037W        W31620  25.631   3.302   1.961
60038W        W31621  17.708  22.714  14.402
60039W        W31622  34.425   4.467   0.847
60040W        W31623  20.190  15.176   2.582
60041W        W31624  38.032  32.336  11.962
60042W        W31625  41.949  20.989   4.783
60043W        W31626   9.070  43.482  11.748
60044W        W31627  29.046  21.182   1.058
60045W        W31628   2.239   4.516  11.192
60046W        W31629  33.303  38.766   9.921
60047W        W31630  13.564  30.885   2.319
60048W        W31631  30.882  34.844   5.182
60049W        W31632  24.089  38.951   4.800
60050W        W31633  38.993  41.784  14.910
60051W        W31634   5.998  10.568   1.083
60052W        W31635  36.021  28.642  11.481
60053W        W31636   9.715  16.726   3.175
60054W        W31637  11.078  16.731   1.462
60055W        W31638  30.971  26.111   0.310
60056W        W31639  13.235  22.796   2.293
60057W        W31640   0.786  14.221   2.764
60058W        W31641  39.785  13.591   3.796
60059W        W31642  38.070  11.014  11.053
60060W        W31643  26.804  11.123  11.071
60061W        W31644  38.773  12.110   1.394
60062W        W31645  30.588  37.095  12.002
60063W        W31646   7.139  31.364   2.709
60064W        W31647  18.246  44.293  12.937
60065W        W31648  38.932  22.277   3.390
60066W        W31649   7.763  30.863  14.544
60067W        W31650  28.596  13.399  14.784
60068W        W31651  35.460   1.479  13.953
60069W        W31652  17.110  25.739   2.341
60070W        W31653   4.202  23.309   0.930
60071W        W31654  11.705  42.872   0.793
60072W        W31655  20.703  14.163  11.556
60073W        W31656  14.785  33.362  13.871
60074W        W31657   7.066  43.224  11.846
60075W        W31658  10.380  33.519   1.233
60076W        W31659  41.520  27.650   1.995
60077W        W31660  12.276   4.013  11.079
60078W        W31661  40.321   6.594  11.527
60079W        W31662  41.256  35.859  14.317
60080W        W31663  16.343  37.938   5.845
60081W        W31664   2.282  37.386   0.525
60082W        W31665  12.001  27.106  10.721
60083W        W31666  18.226  26.209   4.078
60084W        W31667  12.841   7.954   4.690
60085W        W31668   3.178  10.712   0.931
60086W        W31669  17.060  18.250   0.209
60087W        W31670   7.385   0.216   2.864
60088W        W31671  23.897   1.361  10.901
60089W        W31672  36.535  11.638  10.856
60090W        W31673  44.996  37.142   3.758
60091W        W31674  33.829   4.273  12.662
60092W        W31675   2.458  17.828   2.163
60093W        W31676   8.671   1.088   2.846
60094W        W31677  26.530   9.523   4.633
60095W        W31678  12.918  44.913  13.319
60096W        W31679  14.061  16.292   2.957
60097W        W31680  17.950  14.314  11.886
60098W        W31681  37.896  24.144   1.230
60099W        W31682   9.257  41.054  10.966
60100W        W31683  41.255  42.838   4.659
60101W        W31684   4.811  39.519   0.752
60102W        W31685  27.906   4.862   0.382
60103W        W31686  23.095  37.930  13.116
60104W        W31687  42.041   6.399  12.174
60105W        W31688   2.492  39.616  10.882
60106W        W31689   3.800  39.581  12.417
60107W        W31690  23.020  36.893   2.864
60108W        W31691   5.118  16.614   1.058
60109W        W31692  25.230  25.706  13.988
60110W        W31693  40.003   5.204  12.142
60111W        W31694  17.348  33.993   4.206
60112W        W31695  41.505   8.653   1.306
60113W        W31696   8.790  31.050  14.642
60114W        W31697  42.498  24.177  11.179
60115W        W31698  33.466  19.946   2.991
60116W        W31699  35.762  21.665  11.610
60117W        W31700  21.448  42.401  11.519
60118W        W31701   2.717  35.984  10.939
60119W        W31702  38.827   7.449   4.607
60120W        W31703  22.808  37.838   2.270
60121W        W31704  39.742   6.317  12.198
60122W        W31705  11.390   3.758  12.014
60123W        W31706  26.332  41.284  13.470
60124W        W31707  22.881  23.089  14.501
60125W        W31708  36.603  24.451   1.881
60126W        W31709   8.765  27.972  10.573
60127W        W31710  12.021  22.167  11.388
60128W        W31711  39.431  16.054  14.550
60129W        W31712  29.101  19.106   0.152
60130W        W31713  26.008  38.329   4.507
60131W        W31714   5.409  44.396  13.911
60132W        W31715   8.239   7.971   2.132
60133W        W31716   3.628  13.538  14.903
60134W        W31717   5.732  38.337  13.574
60135W        W31718  41.184  15.243   1.965
60136W        W31719   6.593  41.008  12.550
60137W        W31720   5.244   2.981   2.683
60138W        W31721   1.255  26.507   2.869
60139W        W31722  19.440   5.933   2.763
60140W        W31723  29.871   7.829  12.874
60141W        W31724  33.480  20.087   0.860
60142W        W31725  34.542   4.991   0.954
60143W        W31726   9.598   1.863   1.243
60144W        W31727  18.988  13.254   2.401
60145W        W31728  44.856  34.296   4.962
60146W        W31729  24.443  29.931  11.564
60147W        W31730  36.304  29.464  12.175
60148W        W31731   0.721  10.756  13.085
60149W        W31732  35.128  43.783   0.951
60150W        W31733   9.935  26.481  13.261
60151W        W31734  19.563  29.632   0.922
60152W        W31735  26.947  32.574   3.263
60153W        W31736  35.827  27.566   3.740
60154W        W31737  11.030  32.990  11.424
60155W        W31738   4.743  44.757  13.755
60156W        W31739  35.524  12.372   1.802
60157W        W31740  13.546   2.268   4.071
60158W        W31741  24.226  25.743  12.444
60159W        W31742  16.240   5.766   0.902
60160W        W31743  17.507  14.630   2.153
60161W        W31744  29.062  14.717   1.228
60162W        W31745  32.864  28.775  12.901
60163W        W31746   5.964   5.313  11.419
60164W        W31747  22.113  37.364  13.563
60165W        W31748   6.346   9.203   4.641
60166W        W31749  19.932   0.994   2.786
60167W        W31750  34.394   0.291  13.113
60168W        W31751   1.717   4.499  11.182
60169W        W31752  43.099  12.373   3.862
60170W        W31753  42.375  15.303  14.152
60171W        W31754  16.236   4.348   1.906
60172W        W31755  31.982  24.732   0.898
60173W        W31756   6.790  29.975   1.541
60174W        W31757   6.751  44.324   1.218
60175W        W31758   4.857  12.449  14.859
60176W        W31759  36.061   9.870  13.821
60177W        W31760  30.679  15.042   2.318
60178W        W31761  36.810  10.400   2.007
60179W        W31762  30.943  37.867   2.814
60180W        W31763  23.602  13.730   2.754
60181W        W31764  39.516  12.570   3.657
60182W        W31765  30.430  17.711  13.893
60183W        W31766   8.757  21.482  13.420
60184W        W31767   1.007  43.994   4.191
60185W        W31768  41.563  23.464   1.514
60186W        W31769  10.541   1.913   4.035
60187W        W31770   7.207   9.043  13.428
60188W        W31771  18.681  10.223  10.725
60189W        W31772   7.905  41.032  12.918
60190W        W31773   5.149  18.620   2.166
60191W        W31774  21.952  32.545  11.452
60192W        W31775   0.196  17.503   0.994
60193W        W31776   1.464  26.118   1.238
60194W        W31777  31.044  19.814   4.567
60195W        W31778  33.584  21.029   2.213
60196W        W31779  38.815  22.577   2.792
60197W        W31780  34.425   8.850  14.500
60198W        W31781  28.456  32.069  14.449
60199W        W31782  25.046   6.248  10.712
60200W        W31783  38.815   1.174   4.605
60201W        W31784  30.856   3.860   3.627
60202W        W31785  15.698  36.850   1.759
60203W        W31786  39.547   0.420   4.086
60204W        W31787  17.278   3.888  13.873
60205W        W31788   4.802  35.709   5.520
60206W        W31789  37.808  21.036   2.259
60207W        W31790  40.973  30.758   3.511
60208W        W31791  33.429  39.870   4.174
60209W        W31792  39.336  37.778   0.476
60210W        W31793  12.995  32.797   0.305
60211W        W31794  24.534  44.305  14.949
60212W        W31795   4.439  16.283   4.323
60213W        W31796  16.776   4.902   0.302
60214W        W31797  38.487  13.570   0.805
60215W        W31798  15.683   1.736   4.198
60216W        W31799   3.012  30.952   4.536
60217W        W31800  39.248   4.745   3.379
60218W        W31801  29.719  11.236  10.652
60219W        W31802   1.818  35.814  10.961
60220W        W31803  36.429  17.055  12.990
60221W        W31804  18.260  23.814  12.875
60222W        W31805  36.945  18.517  13.125
60223W        W31806  22.474   2.724   0.178
60224W        W31807   2.743  36.729  12.041
60225W        W31808  13.622  35.692   5.376
60226W        W31809  24.598  17.271  12.483
60227W        W31810   1.252  44.380   0.284
60228W        W31811  32.151  18.171  10.257
60229W        W31812   6.714  21.148  11.422
60230W        W31813   4.807  25.674  12.876
60231W        W31814  30.550  29.659   4.644
60232W        W31815   2.891   3.405  14.733
60233W        W31816   8.733  34.917   1.535
60234W        W31817  41.529  12.510  13.017
60235W        W31818   1.772  17.282  14.312
60236W        W31819   7.992  33.562  11.134
60237W        W31820  10.224  30.059  10.727
60238W        W31821   7.886  38.145  14.732
60239W        W31822  43.343   3.444   2.702
60240W        W31823  23.365  38.382   0.284
60241W        W31824   7.802  20.638   3.951
60242W        W31825  22.027  18.068  14.383
60243W        W31826   7.339   8.032   1.602
60244W        W31827  36.518  11.380  13.619
60245W        W31828  17.653   7.250   0.492
60246W        W31829  44.965   8.622   1.743
60247W        W31830  19.967  42.109   2.688
60248W        W31831   6.784  31.033  13.305
60249W        W31832  16.591  21.537  10.453
60250W        W31833  33.976  28.903   3.818
60251W        W31834  10.973  34.262   4.222
60252W        W31835  11.856   4.187   3.744
60253W        W31836   6.995  27.855  14.543
60254W        W31837  29.507  10.364   2.269
60255W        W31838  12.821  19.011  11.550
60256W        W31839   6.940  28.689   4.091
60257W        W31840  40.921  34.493   3.819
60258W        W31841  14.567  33.881  12.100
60259W        W31842  40.785   1.824   4.142
60260W        W31843   9.214   8.474   2.748
60261W        W31844   2.482  25.484  13.962
60262W        W31845  41.782  17.227  14.796
60263W        W31846  26.041  14.761   1.281
60264W        W31847  32.560  15.556  12.898
60265W        W31848  12.765  12.763   4.137
60266W        W31849  43.374  20.848  11.501
60267W        W31850  26.638  28.171   0.831
60268W        W31851  20.814  19.646   4.584
60269W        W31852   4.660  16.539  13.489
60270W        W31853  26.484  25.082   3.933
60271W        W31854  23.130   3.244   0.536
60272W        W31855  18.107  19.653   0.614
60273W        W31856  12.107  24.749   1.828
60274W        W31857   2.782  10.756   1.271
60275W        W31858  35.358   5.608   0.336
60276W        W31859  35.206  35.828   1.507
60277W        W31860  34.061   7.206  14.489
60278W        W31861  22.326   9.789   2.290
60279W        W31862  41.763  33.095   0.006
60280W        W31863   2.314  42.649  10.880
60281W        W31864  29.734  18.065  11.598
60282W        W31865  20.184  18.287  11.368
60283W        W31866  12.653   6.383   3.536
60284W        W31867  18.871   1.914   4.804
60285W        W31868  20.818  12.394   0.915
60286W        W31869  35.965   2.973  14.974
60287W        W31870  44.763  26.950  12.784
60288W        W31871   9.864  34.987   0.853
60289W        W31872  19.644  25.488   4.509
60290W        W31873  21.177  28.561   4.255
60291W        W31874  42.950  38.471  12.669
60292W        W31875   9.398  27.149  12.480
60293W        W31876  26.625  24.924   1.882
60294W        W31877  38.086  21.185  12.974
60295W        W31878  24.175  33.967   0.311
60296W        W31879  38.847  18.727  12.537
60297W        W31880  41.080  18.699   1.995
60298W        W31881  40.052  22.907   3.271
60299W        W31882  14.738  14.570   4.089
60300W        W31883  15.873  37.072  10.767
60301W        W31884  19.205  29.434   9.767
60302W        W31885  26.678  30.484  11.139
60303W        W31886  33.923   9.066  14.784
60304W        W31887   7.659  17.588   4.004
60305W        W31888  11.763   6.555   1.825
60306W        W31889   2.038  25.721  13.069
60307W        W31890  15.295  44.551  10.181
60308W        W31891  32.360  12.664  13.135
60309W        W31892  24.641  38.446  12.072
60310W        W31893  26.037  22.817  13.350
60311W        W31894  34.471  22.772   3.160
60312W        W31895  29.415  18.487  11.657
60313W        W31896   2.001  33.375  14.284
60314W        W31897   6.911   3.862   1.862
60315W        W31898   8.167  41.060   3.036
60316W        W31899   8.098   0.388  12.973
60317W        W31900  43.979   3.596   3.637
60318W        W31901  40.359  17.650  12.389
60319W        W31902  33.066  32.918   4.889
60320W        W31903  40.335  36.843  13.999
60321W        W31904  31.651   6.529   1.844
60322W        W31905  42.980  28.050  14.125
60323W        W31906  38.842   5.255  14.818
60324W        W31907   5.924   7.364  12.412
60325W        W31908   8.212  22.197   3.679
60326W        W31909   5.475  24.020  14.830
60327W        W31910  41.568   4.455   4.039
60328W        W31911  36.280  13.270  10.771
60329W        W31912  36.404   0.339   2.443
60330W        W31913   5.970  36.128   2.166
60331W        W31914  35.285  24.942   0.815
60332W        W31915  40.244  19.350   2.109
60333W        W31916  16.108  19.038  11.927
60334W        W31917  29.851  32.962  12.012
60335W        W31918  32.905  21.464  11.683
60336W        W31919  24.232  40.563   3.716
60337W        W31920  12.906  40.396   0.477
60338W        W31921  11.958  26.949   2.029
60339W        W31922  39.638   0.681   1.903
60340W        W31923  22.577   3.278  13.086
60341W        W31924  26.823  30.983  14.928
60342W        W31925  16.089   9.948  12.033
60343W        W31926  44.769  12.715  13.408
60344W        W31927  41.801  11.345   3.215
60345W        W31928  23.360  17.519  10.082
60346W        W31929  44.480   3.386   2.572
60347W        W31930  42.312  20.976  12.905
60348W        W31931  17.678  39.060   3.322
60349W        W31932  30.546  37.668   1.794
60350W        W31933  44.450  29.630  14.360
60351W        W31934  27.692   8.231  11.604
60352W        W31935  22.687  42.439  14.284
60353W        W31936  36.515  14.211  13.384
60354W        W31937  28.243  39.331   2.917
60355W        W31938  29.826  32.187  13.345
60356W        W31939  15.887  13.169  14.458
60357W        W31940   4.866  34.788  13.801
60358W        W31941  12.641  12.349  14.377
60359W        W31942   1.946  23.595   0.702
60360W        W31943  13.740  28.752   3.654
60361W        W31944  30.960  36.066  13.886
60362W        W31945  10.650  23.793   3.253
60363W        W31946  25.129   8.001   2.680
60364W        W31947  17.249  29.893  11.111
60365W        W31948  13.612  17.652   2.313
60366W        W31949  23.225   0.851   2.792
60367W        W31950  38.723  32.493  12.535
60368W        W31951  43.708  12.869  14.061
60369W        W31952   5.163  37.470   4.197
60370W        W31953  28.190  44.882   1.935
60371W        W31954   6.274  35.308   2.774
60372W        W31955  38.841  27.032   3.307
60373W        W31956   5.747  25.023   3.904
60374W        W31957   0.526   3.499  14.926
60375W        W31958   5.326  21.944  11.969
60376W        W31959  12.341  23.641  13.874
60377W        W31960  24.520  35.978   2.423
60378W        W31961  10.136  37.844  13.498
60379W        W31962  28.672  19.873  10.756
60380W        W31963  12.839  36.578  11.137
60381W        W31964  35.307  13.243  13.056
60382W        W31965   9.389   2.425  12.902
60383W        W31966   1.579   8.359   4.093
60384W        W31967   6.037   4.785   3.646
60385W        W31968   4.483  29.345   4.190
60386W        W31969  24.079   0.213   1.498
60387W        W31970  19.481  24.790   0.912
60388W        W31971  27.682  40.482  13.342
60389W        W31972   1.530  39.100   0.828
60390W        W31973  42.452  36.881  12.079
60391W        W31974  22.481  22.594   3.122
60392W        W31975  39.174  32.196   4.860
60393W        W31976   6.115  12.731   4.929
60394W        W31977  41.519  16.255   3.116
60395W        W31978  11.637  44.808   2.334
60396W        W31979  10.695  18.545  12.072
60397W        W31980   0.747  28.571  13.488
60398W        W31981  31.832  12.310   4.195
60399W        W31982  10.889  29.751   1.264
60400W        W31983   0.002  30.905   4.687
60401W        W31984  19.721  10.192   1.124
60402W        W31985  15.761  12.502   2.990
60403W        W31986  26.386  12.424   5.683
60404W        W31987   9.370  36.472   0.710
60405W        W31988  26.144  14.467  11.429
60406W        W31989  31.956  22.695  13.646
60407W        W31990   6.447  37.467   3.726
60408W        W31991   3.463   2.971   3.722
60409W        W31992  14.028   3.315   0.420
60410W        W31993  26.984  25.521   0.237
60411W        W31994  23.030  11.201   3.627
60412W        W31995  17.953   6.343  14.408
60413W        W31996   9.893  20.769  10.624
60414W        W31997  17.646   9.735   1.382
60415W        W31998  38.279   7.891  12.417
60416W        W31999  31.579   3.238   4.573
60417W        W32000   4.571  44.805  14.485
60418W        W32001  26.241  10.887   3.626
60419W        W32002  40.283  14.991  13.432
60420W        W32003  31.205  32.970  13.346
60421W        W32004  32.313  43.013   3.752
60422W        W32005  43.751  18.745   2.607
60423W        W32006  20.920  36.347  11.578
60424W        W32007  23.835  31.282  13.021
60425W        W32008  32.062   3.011   1.170
60426W        W32009  27.565  28.486   0.745
60427W        W32010  42.952  42.969   1.750
60428W        W32011  34.564  16.322   1.353
60429W        W32012  22.414   1.380  10.574
60430W        W32013   6.463   7.898  14.594
60431W        W32014   2.027  17.754  14.207
60432W        W32015   1.809   6.385  11.531
60433W        W32016  43.313  26.406  13.756
60434W        W32017  43.745  21.562  11.227
60435W        W32018  27.726   4.918   0.958
60436W        W32019  31.588   2.237  14.489
60437W        W32020   6.656  23.457   3.511
60438W        W32021  28.147  19.228   4.137
60439W        W32022  29.709  30.400  12.998
60440W        W32023   0.219  18.507  14.596
60441W        W32024  20.491  19.795   0.291
60442W        W32025  11.610  11.197  11.189
60443W        W32026  24.214  11.644   1.500
60444W        W32027  31.072   5.105   3.653
60445W        W32028  28.046  27.120  10.976
60446W        W32029  23.055   3.698  11.469
60447W        W32030  14.287  26.248  11.115
60448W        W32031  28.236  38.420   4.751
60449W        W32032  30.580  24.550   4.776
60450W        W32033   5.503  34.988  10.346
60451W        W32034  29.220  32.396   3.918
60452W        W32035  14.179   1.693   2.406
60453W        W32036  30.242   9.946   1.754
60454W        W32037   2.507  15.117  10.784
60455W        W32038   2.289   6.393   0.003
60456W        W32039  33.022   0.240   3.245
60457W        W32040  30.084  13.924  14.974
60458W        W32041   8.417  35.930   2.722
60459W        W32042  43.445  32.534  11.167
60460W        W32043  19.282  19.631  14.839
60461W        W32044  20.743  22.695  12.968
60462W        W32045   0.942   7.785   0.992
60463W        W32046  31.449  36.836  13.835
60464W        W32047  44.538   0.368  12.469
60465W        W32048  40.559  44.921   0.659
60466W        W32049  24.159  12.050   2.431
60467W        W32050  23.361  31.473   1.233
60468W        W32051  18.492  32.242   2.475
60469W        W32052  18.809  19.693  12.084
60470W        W32053  30.739  36.628   4.709
60471W        W32054  42.287  31.912   4.584
60472W        W32055  33.043  30.551  13.635
60473W        W32056   7.634  34.055   4.865
60474W        W32057  37.448   5.369  12.513
60475W        W32058  18.304  22.489   4.048
60476W        W32059  17.211  23.439   3.702
60477W        W32060   8.278  11.906   2.837
60478W        W32061  29.029  42.526  13.747
60479W        W32062  25.296   1.954  12.986
60480W        W32063  10.660  35.565  13.745
60481W        W32064   0.450   2.160   4.079
60482W        W32065  16.849   6.641  11.845
60483W        W32066  40.871   7.990   0.019
60484W        W32067  42.298  18.034   0.086
60485W        W32068  14.188  23.561  13.469
60486W        W32069  34.143  27.476  13.030
60487W        W32070  28.131  44.349   1.226
60488W        W32071  36.722  17.855  10.097
60489W        W32072  44.184  11.769  11.438
60490W        W32073  11.937   3.648  13.769
60491W        W32074   0.911  36.782   2.662
60492W        W32075  10.194  35.076  13.174
60493W        W32076   5.737  28.934  13.408
60494W        W32077   2.159   7.131  12.075
60495W        W32078  28.216  40.967   4.325
60496W        W32079  41.008   3.854   0.258
60497W        W32080  43.847  23.692  12.979
60498W        W32081   9.214  23.268   2.585
60499W        W32082  19.097  22.775  12.616
60500W        W32083  14.819  27.573   2.647
60501W        W32084  25.413  18.220   1.217
60502W        W32085  34.681  15.811   0.427
60503W        W32086  44.477  28.069   1.306
60504W        W32087  28.895   7.903   3.837
60505W        W32088  22.589  10.435   0.261
60506W        W32089  31.832  28.249   2.118
60507W        W32090  22.194   6.736  14.478
60508W        W32091  29.009   4.944  11.860
60509W        W32092  13.723  24.249   0.376
60510W        W32093   2.204  35.542  12.844
60511W        W32094  16.208  21.541   4.422
60512W        W32095  15.037  44.305  12.162
60513W        W32096   1.661  23.220   4.698
60514W        W32097  23.620  35.968  12.084
60515W        W32098   5.482  30.546   0.672
60516W        W32099   5.786  16.085  13.433
60517W        W32100   8.861  16.875  14.165
60518W        W32101  39.969   8.117  10.100
60519W        W32102  15.639  13.574  11.236
60520W        W32103  24.681  38.413  10.707
60521W        W32104  30.412  13.285  12.121
60522W        W32105  20.668  23.862  11.613
60523W        W32106   5.824  21.999   1.787
60524W        W32107  19.287   1.908  10.494
60525W        W32108   5.867  38.061   4.167
60526W        W32109  44.087   4.937  13.857
60527W        W32110   1.757  18.164   1.406
60528W        W32111  44.003   3.234   1.772
60529W        W32112  41.868  13.294   1.383
60530W        W32113   1.524  14.454   0.033
60531W        W32114  37.188  24.719   2.593
60532W        W32115  31.211   1.897  14.020
60533W        W32116  33.940  36.480   3.956
60534W        W32117  30.028   0.431  14.317
60535W        W32118  20.095  22.111  13.210
60536W        W32119   7.216   2.665  13.946
60537W        W32120   1.902  38.796   3.994
60538W        W32121  40.376  17.132  14.544
60539W        W32122  34.475  42.215  12.636
60540W        W32123  12.137   2.688  14.325
60541W        W32124  24.507  40.930   0.904
60542W        W32125   9.249   0.322   1.059
60543W        W32126  43.738  19.616   2.786
60544W        W32127  38.907  19.245   0.496
60545W        W32128  29.819  12.698   2.136
60546W        W32129  27.632  32.150   5.092
60547W        W32130  28.902  25.744  14.893
60548W        W32131  24.202  26.128  13.311
60549W        W32132  26.594  26.864   3.759
60550W        W32133  37.354   1.475  12.943
60551W        W32134  23.956  44.123   0.353
60552W        W32135  33.613  14.428   2.112
60553W        W32136   0.858   3.406   4.586
60554W        W32137  31.748  43.339   0.202
60555W        W32138  29.738  28.775   0.278
60556W        W32139  27.326  25.639  11.186
60557W        W32140  20.509  28.380   2.099
60558W        W32141  36.999  42.928   0.725
60559W        W32142  42.309  13.241   0.306
60560W        W32143  14.673  24.039   2.768
60561W        W32144  20.643  32.647   3.505
60562W        W32145  10.740  37.143   1.680
60563W        W32146  25.502  33.764   4.323
60564W        W32147  31.587  16.190   4.822
60565W        W32148  33.657   0.945  11.143
60566W        W32149   3.956  28.191   0.731
60567W        W32150  43.294  20.068   3.232
60568W        W32151  28.236  12.350   2.256
60569W        W32152  26.290  39.827   1.310
60570W        W32153  20.566   9.260   1.378
60571W        W32154  40.340   8.808  13.404
60572W        W32155  19.578  29.485   3.225
60573W        W32156  14.179  44.972  14.836
60574W        W32157  17.232  12.370   4.556
60575W        W32158  35.817  44.018  12.395
60576W        W32159   4.940   7.901  11.924
60577W        W32160  38.759  33.399   4.113
60578W        W32161   7.303   9.278   0.979
60579W        W32162   0.757   3.156  14.365
60580W        W32163   7.461   4.821   1.759
60581W        W32164  18.846  41.878   2.992
60582W        W32165  26.335  34.005   3.327
60583W        W32166  24.454  13.288   0.515
60584W        W32167  12.699   6.784   3.837
60585W        W32168  15.422  42.890   2.437
60586W        W32169   6.633  23.447   1.123
60587W        W32170  41.522   3.784  13.335
60588W        W32171  35.980  30.413  12.997
60589W        W32172  10.784  33.633  14.080
60590W        W32173  25.431   5.155  11.411
60591W        W32174  39.577  44.749  14.479
60592W        W32175  30.547  17.287  14.171
60593W        W32176  41.746  43.338   4.261
60594W        W32177  22.179   7.142   9.751
60595W        W32178   2.831  39.668  10.193
60596W        W32179   2.307   0.967  11.497
60597W        W32180  16.817  30.952  10.478
60598W        W32181  25.488  25.741   3.322
60599W        W32182  13.202   6.642   1.443
60600W        W32183  30.350   2.354  14.927
60601W        W32184  44.583  44.307  13.388
60602W        W32185  32.505   9.479   0.858
60603W        W32186  30.547  18.567  11.078
60604W        W32187  24.945  29.996   3.374
60605W        W32188  23.873   4.839   3.917
60606W        W32189   7.606   0.551  12.988
60607W        W32190  31.929  14.183   1.572
60608W        W32191  24.512  34.560   3.820
60609W        W32192  14.655  20.400  13.996
60610W        W32193  38.276   4.244  14.636
60611W        W32194  44.223  24.024  12.868
60612W        W32195   3.158  16.799   4.272
60613W        W32196  35.348  10.674  12.322
60614W        W32197  21.723  16.302   4.313
60615W        W32198  11.780   2.654  10.708
60616W        W32199  44.784   0.780  11.077
60617W        W32200   9.848  23.561   3.781
60618W        W32201  15.220  29.021   0.013
60619W        W32202   3.492   1.420  11.681
60620W        W32203  43.975  23.192  14.533
60621W        W32204  41.900   5.797  11.513
60622W        W32205  27.602  27.593   1.378
60623W        W32206  32.635  15.142  14.911
60624W        W32207  34.146   3.984  10.711
60625W        W32208  12.635  10.410  11.978
60626W        W32209   3.713   6.855   4.720
60627W        W32210  24.573  38.051   3.710
60628W        W32211  21.274  17.363   4.416
60629W        W32212  43.923   6.222   0.815
60630W        W32213  30.670  25.101  10.814
60631W        W32214   3.149  40.122   1.886
60632W        W32215  44.725  24.984   2.644
60633W        W32216   3.034   5.864  12.974
60634W        W32217   9.290  41.029   0.521
60635W        W32218  10.426   0.355   0.159
60636W        W32219   0.476  30.567   4.565
60637W        W32220  19.969   7.826  13.017
60638W        W32221  35.827   6.458   0.376
60639W        W32222  35.882  44.429  14.948
60640W        W32223   5.789  38.638   3.586
60641W        W32224  37.586  26.191   1.891
60642W        W32225  30.976  41.991   5.185
60643W        W32226   5.795  21.218   3.207
60644W        W32227  19.188  23.171   0.568
60645W        W32228   5.799   0.239  12.001
60646W        W32229   7.595  41.076  12.507
60647W        W32230   4.775  15.024   4.682
60648W        W32231  32.404  11.176  14.756
60649W        W32232  13.593  37.311  13.510
60650W        W32233   5.157   3.960  14.874
60651W        W32234  14.630  38.557   3.808
60652W        W32235  29.121  39.481   0.804
60653W        W32236  10.994  36.120  12.672
60654W        W32237   4.158  22.624   1.677
60655W        W32238  29.150  31.652   4.219
60656W        W32239   8.453  23.022  11.077
60657W        W32240  43.237  11.397   2.308
60658W        W32241  23.690  36.312   1.751
60659W        W32242  34.274  26.972   3.717
60660W        W32243  43.457   9.354  12.518
60661W        W32244  31.480  36.166  12.307
60662W        W32245   7.703  21.074  11.688
60663W        W32246   0.398  34.832  11.657
60664W        W32247   9.149   7.609   2.159
60665W        W32248  37.640  17.592   0.241
60666W        W32249  10.121  27.190   2.607
60667W        W32250  44.728  27.944  13.574
60668W        W32251  30.418  11.744   1.241
60669W        W32252   2.705  19.034  10.632
60670W        W32253   9.872  43.874   3.729
60671W        W32254  40.824  28.426   4.182
60672W        W32255  20.077  10.674  14.761
60673W        W32256  26.992   7.162   3.417
60674W        W32257  35.264  32.871   0.464
60675W        W32258  19.494  13.414   2.371
60676W        W32259  11.653  21.154  13.053
60677W        W32260   2.018  29.215  13.915
60678W        W32261  25.227  12.356  14.234
60679W        W32262  17.806  35.502  11.524
60680W        W32263  40.332  25.921  11.618
60681W        W32264  34.027  38.082  13.467
60682W        W32265  22.659   1.205  14.320
60683W        W32266  32.399   7.880  11.037
60684W        W32267  27.677  33.911  14.686
60685W        W32268  14.091   0.498   0.735
60686W        W32269  32.035   3.279   4.025
60687W        W32270  12.602   3.967  11.494
60688W        W32271   9.169  34.500   4.610
60689W        W32272  15.983  35.057   2.761
60690W        W32273  37.286  38.517  12.639
60691W        W32274   0.565  35.259  14.324
60692W        W32275  31.052   8.884   0.879
60693W        W32276  36.036  24.724   4.034
60694W        W32277  41.384  44.026  11.567
60695W        W32278  21.684  24.561  11.515
60696W        W32279   3.945   0.729  12.498
60697W        W32280   3.510  14.697   0.809
60698W        W32281  11.854  42.275  13.247
60699W        W32282   0.304   1.078  11.083
60700W        W32283  38.438  24.559  12.145
60701W        W32284   8.893   3.921   0.914
60702W        W32285  35.966  35.909  11.490
60703W        W32286   8.326   4.395  11.149
60704W        W32287  33.380   9.749  14.935
60705W        W32288  30.452  34.500  11.474
60706W        W32289   6.910  13.518  14.391
60707W        W32290  32.195  33.184   1.833
60708W        W32291  32.514  35.357  11.122
60709W        W32292  21.500  12.810  13.470
60710W        W32293  39.394   8.891  12.876
60711W        W32294  21.208  16.253   2.849
60712W        W32295  11.344  36.368  13.004
60713W        W32296  33.987  23.631   0.583
60714W        W32297  23.629  26.969  12.373
60715W        W32298  10.440  32.873  10.205
60716W        W32299  42.675  23.536  14.372
60717W        W32300  23.140   9.964   5.437
60718W        W32301   3.150  43.525  13.559
60719W        W32302  11.288  39.236   0.428
60720W        W32303   7.916  34.077   2.387
60721W        W32304  18.336  28.638   1.266
60722W        W32305  29.213  19.538   4.385
60723W        W32306  25.421  38.395   2.770
60724W        W32307   9.642  33.471   3.158
60725W        W32308  18.641  31.616   4.777
60726W        W32309   5.220  33.053   4.252
60727W        W32310  13.224  36.272   1.251
60728W        W32311  24.189  39.139  10.892
60729W        W32312  12.833  40.385  11.175
60730W        W32313  39.064  37.031  14.400
60731W        W32314  34.195  24.276  13.319
60732W        W32315  22.631   7.120   0.671
60733W        W32316  26.914  20.666   4.073
60734W        W32317  36.463  28.988   1.226
60735W        W32318   1.955   1.226  10.815
60736W        W32319  41.453  27.014   0.160
60737W        W32320  11.433  15.323   3.051
60738W        W32321  31.643  27.788   3.325
60739W        W32322  36.424  16.309  14.038
60740W        W32323   6.126   5.294  12.165
60741W        W32324  23.229  44.524   0.618
60742W        W32325  13.149   3.280   3.132
60743W        W32326  38.006  33.677  11.609
60744W        W32327  21.078   0.511  13.054
60745W        W32328   0.425  21.504   0.451
60746W        W32329  25.196   8.901   4.192
60747W        W32330   9.198  33.304   4.217
60748W        W32331   8.287   0.456   2.821
60749W        W32332  17.287   5.376   2.116
60750W        W32333  28.680  28.193  10.721
60751W        W32334  37.906  16.092  12.455
60752W        W32335   1.783  19.056  12.011
60753W        W32336  29.023  29.699   2.163
60754W        W32337  27.555  35.352   2.084
60755W        W32338  37.100  12.307   3.020
60756W        W32339  23.443   0.322  10.625
60757W        W32340   8.168  43.040  14.825
60758W        W32341  20.827   7.192   2.337
60759W        W32342  39.344  34.450   1.411
60760W        W32343   1.334   8.879  13.990
60761W        W32344   0.770  22.666   3.414
60762W        W32345  25.104  13.085  12.828
60763W        W32346   6.916  42.804  12.759
60764W        W32347   5.954  38.141   2.675
60765W        W32348  10.652  37.176  13.534
60766W        W32349  18.580  17.553  12.981
60767W        W32350   9.271  25.401   4.139
60768W        W32351   8.281  25.144  13.087
60769W        W32352  35.156  25.484  13.088
60770W        W32353   7.627  39.702  14.950
60771W        W32354  18.577   4.779   2.195
60772W        W32355  26.696  41.075  12.938
60773W        W32356  16.331  43.606   3.859
60774W        W32357  44.549  44.466   0.248
60775W        W32358   8.883  25.096  14.380
60776W        W32359  34.861  28.189  10.400
60777W        W32360  21.040  15.323  12.943
60778W        W32361  26.601  19.545   2.225
60779W        W32362  15.944  26.187   0.851
60780W        W32363  39.910  23.515   2.283
60781W        W32364   7.867   3.991   2.938
60782W        W32365  24.608  35.134  14.443
60783W        W32366  17.040   4.853  13.413
60784W        W32367  18.530  44.737  11.951
60785W        W32368  25.509  26.964   1.735
60786W        W32369   7.908  38.253  11.657
60787W        W32370  19.697  21.329   2.803
60788W        W32371  11.914   1.788   0.317
60789W        W32372  44.493  42.303   3.885
60790W        W32373  20.094   7.911  10.115
60791W        W32374  38.433  17.246  14.979
60792W        W32375  30.646   7.686   2.283
60793W        W32376  16.208  11.597  13.065
60794W        W32377  39.256  20.035   1.792
60795W        W32378   5.703   1.755  11.476
60796W        W32379   0.301  18.962  12.368
60797W        W32380  19.971  16.273  12.990
60798W        W32381  29.080  43.499  12.390
60799W        W32382   2.034   7.454   1.423
60800W        W32383  27.235  21.144   3.368
60801W        W32384  26.832  14.788  12.028
60802W        W32385  18.259   9.430  14.060
60803W        W32386   7.437  42.970   3.773
60804W        W32387   2.807  13.876  12.369
60805W        W32388  22.962   5.277  12.303
60806W        W32389  39.797  12.490  11.186
60807W        W32390  35.257  36.329  13.830
60808W        W32391   2.981  18.888   2.601
60809W        W32392  12.717  26.414   2.413
60810W        W32393  33.068  11.843  11.646
60811W        W32394  27.006  12.832   2.249
60812W        W32395  23.096  14.601   2.711
60813W        W32396  12.807  28.718  12.130
60814W        W32397  35.754  25.352  11.113
60815W        W32398  12.140   3.926  13.348
60816W        W32399  22.791  41.232  14.390
60817W        W32400  28.572  39.436   1.219
60818W        W32401  38.262  43.332   0.396
60819W        W32402  26.689   5.221  13.756
60820W        W32403   8.581  26.637   2.266
60821W        W32404   7.133  33.491   0.738
60822W        W32405   1.224  19.733  14.730
60823W        W32406  35.417  15.033  12.554
60824W        W32407   9.257   0.860   1.183
60825W        W32408  14.813  20.134   4.606
60826W        W32409  15.592  35.886  14.791
60827W        W32410   3.282  42.047  14.105
60828W        W32411  41.907  36.739   3.518
60829W        W32412  40.867  28.410   2.109
60830W        W32413  31.138   4.123   2.664
60831W        W32414  25.537  29.231   3.479
60832W        W32415  40.878   7.856   2.675
60833W        W32416   4.095  29.829   2.885
60834W        W32417  39.382  13.913   2.271
60835W        W32418   9.667  32.628   4.527
60836W        W32419  20.048  22.076   3.692
60837W        W32420  24.171  42.859   4.972
60838W        W32421  42.805  30.061  11.879
60839W        W32422  34.460  15.534  14.503
60840W        W32423  11.749   6.617   2.711
60841W        W32424  42.293  44.740  12.487
60842W        W32425  28.805  10.736   2.013
60843W        W32426  43.075  43.640   0.356
60844W        W32427  21.540  40.307   1.917
60845W        W32428  15.359  16.272   2.427
60846W        W32429  37.720  19.363   1.853
60847W        W32430  16.296  29.247   4.175
60848W        W32431  36.637   7.313   2.550
60849W        W32432   1.793  17.980   0.119
60850W        W32433   1.838   9.995  10.801
60851W        W32434  39.417  27.097   4.611
60852W        W32435  20.707  16.056   2.805
60853W        W32436  42.098  11.801  14.403
60854W        W32437   8.243  11.342  12.180
60855W        W32438  24.145  43.505  10.763
60856W        W32439  22.973  30.196  12.507
60857W        W32440  20.256  41.211   0.214
60858W        W32441  16.014  34.458   2.236
60859W        W32442  35.206  20.672  13.372
60860W        W32443  37.748  12.100   1.623
60861W        W32444   8.460  21.155  11.221
60862W        W32445  33.560  14.555  12.406
60863W        W32446  34.540  29.656  13.816
60864W        W32447  35.607  29.569   3.441
60865W        W32448  23.402  14.709  10.751
60866W        W32449  17.195   7.685  10.618
60867W        W32450   8.442  13.264   1.217
60868W        W32451   4.440  21.725  13.756
60869W        W32452  19.242  14.352   0.369
60870W        W32453  10.061   9.771   0.261
60871W        W32454  22.077  26.465  11.917
60872W        W32455  43.846  14.311  11.011
60873W        W32456  31.119  19.207  14.601
60874W        W32457   6.797  29.034  11.093
60875W        W32458  43.225  23.420   2.657
60876W        W32459  36.778  15.593  12.398
60877W        W32460   6.630  24.662  10.324
60878W        W32461  34.523   6.170   3.587
60879W        W32462  29.712  37.098  13.791
60880W        W32463  43.289  37.407   4.554
60881W        W32464  21.188  35.960   3.824
60882W        W32465  12.423  43.733   4.578
60883W        W32466  19.278  39.211  13.526
60884W        W32467   7.182  27.563   4.690
60885W        W32468  25.097  24.705  10.725
60886W        W32469  35.098  36.847  14.041
60887W        W32470  24.214  37.644  10.687
60888W        W32471  37.773  27.360  12.974
60889W        W32472   7.393   1.016  14.439
60890W        W32473  33.273  20.363  14.421
60891W        W32474  10.449   0.503   4.448
60892W        W32475  41.346  25.895  13.102
60893W        W32476  29.418   4.430  12.855
60894W        W32477  14.410  42.844  14.332
60895W        W32478  36.975  35.316   0.330
60896W        W32479   8.379  42.692   4.417
60897W        W32480   9.217  44.883  11.630
60898W        W32481  20.653  44.287   4.619
60899W        W32482  37.610  20.724   4.899
60900W        W32483  43.384  21.280   4.917
60901W        W32484  42.257  41.351   0.882
60902W        W32485  36.421  24.544   0.375
60903W        W32486   9.116   4.479   0.646
60904W        W32487  27.968  13.937  13.065
60905W        W32488   5.437  32.590  11.594
60906W        W32489  36.728  40.249  10.763
60907W        W32490  38.243  13.215   0.462
60908W        W32491  17.688  33.050  12.008
60909W        W32492  40.837  12.160  14.555
60910W        W32493  30.837  42.883  12.633
60911W        W32494  42.247  35.545  14.706
60912W        W32495   2.699  26.721  13.752
60913W        W32496   1.924   5.758   0.652
60914W        W32497  31.969  25.722  13.436
60915W        W32498  25.014  31.068   1.403
60916W        W32499  13.926  22.177   1.444
60917W        W32500  26.402   9.452   2.755
60918W        W32501  35.839   1.937  13.426
60919W        W32502   5.540  42.449  13.041
60920W        W32503   2.347   0.691   2.263
60921W        W32504  22.749  23.292   0.745
60922W        W32505  34.661  38.866   3.606
60923W        W32506   8.368  42.780   1.433
60924W        W32507  18.553  43.029   2.190
60925W        W32508  36.886  34.288   3.257
60926W        W32509  11.085  40.978   4.314
60927W        W32510  43.897  14.642  13.991
60928W        W32511  23.706  30.856   3.813
60929W        W32512  23.501  10.700  13.577
60930W        W32513  13.098  21.984   2.847
60931W        W32514  13.834   5.977  13.022
60932W        W32515  23.169  15.211  14.016
60933W        W32516  41.437  44.445  14.918
60934W        W32517  43.596   5.892  12.101
60935W        W32518  29.626  11.877   4.272
60936W        W32519  21.992   4.938   1.348
60937W        W32520   4.222   0.467  11.614
60938W        W32521  25.487   8.154  11.862
60939W        W32522  36.240  22.926  12.447
60940W        W32523  23.588  35.789   2.786
60941W        W32524  20.162  32.291   4.866
60942W        W32525   8.168  16.001   3.114
60943W        W32526  25.793  34.900   2.210
60944W        W32527  39.566  12.094   1.734
60945W        W32528  28.276  19.112  10.599
60946W        W32529   5.486   9.923   3.329
60947W        W32530  37.447   0.906  11.546
60948W        W32531  35.995  21.045  14.714
60949W        W32532   9.812   2.344   3.238
60950W        W32533   4.680  12.873   1.879
60951W        W32534   3.847  16.534   3.131
60952W        W32535  17.239  11.032   1.005
60953W        W32536  11.286   6.001  12.592
60954W        W32537  23.783   7.273  12.034
60955W        W32538   0.881  26.704   0.948
60956W        W32539  20.784   2.807   0.261
60957W        W32540  34.292  44.795  14.516
60958W        W32541   3.312  32.951   2.695
60959W        W32542  38.471   4.719  14.798
60960W        W32543   8.518   7.812  14.791
60961W        W32544  27.899  37.757  10.274
60962W        W32545  32.388  18.731   2.772
60963W        W32546  41.031  35.094  14.889
60964W        W32547  22.523  23.069   2.860
60965W        W32548   3.298   4.097   0.061
60966W        W32549  38.015   3.894   1.275
60967W        W32550   1.353   2.407  13.239
60968W        W32551   3.112  22.253   4.100
60969W        W32552   9.862  10.241  14.980
60970W        W32553   5.239   4.308  12.436
60971W        W32554  34.008  17.235   1.014
60972W        W32555  17.602   1.447   1.830
60973W        W32556  38.772  31.468  12.755
60974W        W32557  43.538   5.819   2.197
60975W        W32558  25.247  33.669  11.087
60976W        W32559  43.722   0.037   1.194
60977W        W32560  38.065  18.024  10.656
60978W        W32561  31.784  12.340  14.243
60979W        W32562  12.626  35.429  12.175
60980W        W32563  29.249   6.407   0.373
60981W        W32564   2.632  29.547   1.755
60982W        W32565  25.615  33.997  11.059
60983W        W32566  36.198  35.356   1.649
60984W        W32567  40.756   4.246   2.726
60985W        W32568  33.528  44.378  10.358
60986W        W32569  42.189  11.710   3.236
60987W        W32570  26.504  41.767  14.671
60988W        W32571  14.027  35.331  14.438
60989W        W32572  34.915  43.928  13.012
60990W        W32573   9.451  20.079  11.745
60991W        W32574  38.345   6.462   2.276
60992W        W32575  37.767  13.675  13.386
60993W        W32576  28.183  18.486   1.295
60994W        W32577   8.816  43.682   2.277
60995W        W32578   5.428  34.808   3.684
60996W        W32579   9.933  15.643   3.745
60997W        W32580   9.330  31.612  13.382
60998W        W32581  24.706  44.824   1.377
60999W        W32582  17.672  39.280  11.493
61000W        W32583  20.847  23.437  12.560
61001W        W32584  29.077  30.931  13.759
61002W        W32585  21.929  31.426   2.777
61003W        W32586  44.560  38.042   1.477
61004W        W32587   6.337  27.986   0.458
61005W        W32588  30.422  32.424   1.914
61006W        W32589  23.382  38.748   4.237
61007W        W32590  43.218  11.116   4.601
61008W        W32591  42.926  34.943   0.113
61009W        W32592   4.528  11.608  12.329
61010W        W32593  27.018  12.308   4.169
61011W        W32594  34.138  18.682   2.238
61012W        W32595  18.525  13.817   4.536
61013W        W32596  18.217  33.021   3.621
61014W        W32597   4.634  36.014  10.785
61015W        W32598  10.292   2.752  14.718
61016W        W32599   6.840  34.537  13.528
61017W        W32600   7.237   5.290  12.925
61018W        W32601  26.392  42.264  14.834
61019W        W32602   8.226  20.266   2.698
61020W        W32603  30.934  32.048   3.400
61021W        W32604  33.983   1.390   2.331
61022W        W32605  35.996  23.738  11.587
61023W        W32606  41.297  36.121   0.226
61024W        W32607   7.201   8.556   1.433
61025W        W32608  31.465  37.339  13.988
61026W        W32609  22.981  42.997  11.172
61027W        W32610  29.025  11.348   1.257
61028W        W32611  19.791  11.146  13.884
61029W        W32612  23.733  30.240   2.441
61030W        W32613  11.348  22.156   2.137
61031W        W32614  33.256  13.857   3.214
61032W        W32615  17.546  23.166   4.137
61033W        W32616  39.537  31.436  12.664
61034W        W32617   3.028   4.458  10.779
61035W        W32618   1.868  32.964   0.918
61036W        W32619  40.598  23.131  13.825
61037W        W32620  33.623  37.863   1.410
61038W        W32621  13.869  38.434   0.506
61039W        W32622  12.588   8.760  11.183
61040W        W32623  35.195  10.287  11.543
61041W        W32624  44.870  15.253   0.600
61042W        W32625   1.332  24.191  10.742
61043W        W32626   3.683  38.471   4.706
61044W        W32627  13.012  22.086   4.423
61045W        W32628  30.514   2.019  13.467
61046W        W32629  13.570  25.753   3.611
61047W        W32630  25.379  28.099   2.932
61048W        W32631  27.242  23.218   4.507
61049W        W32632  10.676   3.411  14.742
61050W        W32633  10.126  28.218   1.995
61051W        W32634  35.393  18.032   2.118
61052W        W32635  38.346  14.804  11.080
61053W        W32636  16.708  25.225  13.801
61054W        W32637   5.318  27.540  10.419
61055W        W32638  44.366  41.741   4.553
61056W        W32639  31.074  44.332   4.599
61057W        W32640   3.033  18.736  14.510
61058W        W32641  39.458  41.519   0.665
61059W        W32642  23.590   8.704   4.932
61060W        W32643  16.774  28.404  14.050
61061W        W32644  39.285   0.826  14.879
61062W        W32645  38.191  27.043  12.899
61063W        W32646  18.917  30.284   2.784
61064W        W32647  40.513  35.061   1.581
61065W        W32648   1.916  36.285   4.118
61066W        W32649  16.278  14.739  12.066
61067W        W32650  24.818  19.954  13.865
61068W        W32651  44.289  30.813   4.478
61069W        W32652  15.711  20.323   3.296
61070W        W32653  34.423  28.712  13.945
61071W        W32654  11.369  41.638   3.047
61072W        W32655  14.050  28.450  14.270
61073W        W32656  36.955  12.550  10.935
61074W        W32657   6.123  16.786  12.252
61075W        W32658  23.766   4.775   5.271
61076W        W32659  43.242  28.652  13.528
61077W        W32660  36.659  23.938   4.239
61078W        W32661  38.142  18.000   4.125
61079W        W32662  27.622   8.250   1.563
61080W        W32663  39.846  27.040   1.034
61081W        W32664  10.767  16.417   0.777
61082W        W32665  38.160   1.118   4.107
61083W        W32666   7.446  28.417   1.685
61084W        W32667   5.331  22.571   2.239
61085W        W32668  38.876  25.141  13.413
61086W        W32669  34.528  29.435  13.344
61087W        W32670  35.034  33.906   4.185
61088W        W32671  37.822  42.428   4.639
61089W        W32672  23.138  26.124  13.578
61090W        W32673  28.418  12.789  12.442
61091W        W32674  42.444  24.619  11.512
61092W        W32675  28.099  26.533  13.406
61093W        W32676   1.199  40.695  14.836
61094W        W32677   4.840  29.455  14.442
61095W        W32678  32.034   2.227  10.800
61096W        W32679  41.344  26.871   5.041
61097W        W32680  15.775  11.349   1.825
61098W        W32681   3.604  43.371  13.378
61099W        W32682  25.930  29.749   3.597
61100W        W32683   1.778  16.714   0.041
61101W        W32684  16.049  16.316   0.710
61102W        W32685   5.327  15.674  10.659
61103W        W32686  20.936  29.514  14.362
61104W        W32687  35.280  28.186  14.709
61105W        W32688   9.143   9.641   3.937
61106W        W32689  39.837  33.947   0.632
61107W        W32690  43.334  37.141  12.799
61108W        W32691  40.434  39.525  10.461
61109W        W32692  39.819  33.352   4.100
61110W        W32693   7.865  26.567  13.912
61111W        W32694  26.950  41.371   1.295
61112W        W32695  24.955  30.306   4.781
61113W        W32696  44.473   9.101  13.229
61114W        W32697  19.615   9.760  12.064
61115W        W32698  38.642  41.029   1.941
61116W        W32699  16.149  36.339   3.658
61117W        W32700  29.844  32.649   4.037
61118W        W32701  32.306  25.282  12.987
61119W        W32702  43.135  16.119   1.213
61120W        W32703  15.157  15.594  13.387
61121W        W32704  30.580  10.326  12.496
61122W        W32705  23.421  15.510  12.009
61123W        W32706  26.966   2.776   1.928
61124W        W32707  38.321  28.225   1.885
61125W        W32708  38.846  15.679   3.919
61126W        W32709  12.981   6.931  12.571
61127W        W32710  20.575  16.813   1.716
61128W        W32711   1.368  17.393   4.919
61129W        W32712  23.724  28.726  13.987
61130W        W32713   9.405  31.614  11.651
61131W        W32714  16.737  15.091  12.920
61132W        W32715   2.818  12.325  12.475
61133W        W32716  35.038  26.426  10.959
61134W        W32717  23.171   9.580   0.308
61135W        W32718  19.570  26.187   0.247
61136W        W32719  21.625  10.644  12.929
61137W        W32720  28.145  15.182  12.355
61138W        W32721  24.984  40.525  12.518
61139W        W32722   4.870  19.267   5.005
61140W        W32723  44.327  25.142  12.457
61141W        W32724  34.541  36.016  10.530
61142W        W32725  26.532  30.539   3.773
61143W        W32726   6.273  15.823   4.071
61144W        W32727   2.843  32.665  13.340
61145W        W32728  19.805  37.370   1.885
61146W        W32729   7.794  15.860  12.258
61147W        W32730  18.067  24.710   1.454
61148W        W32731  44.675   0.440   3.701
61149W        W32732  41.950  23.162   1.354
61150W        W32733   3.969   8.265  11.743
61151W        W32734  27.215  29.741  13.381
61152W        W32735  25.587  29.139  11.088
61153W        W32736  14.122  10.845  14.302
61154W        W32737  20.862   5.837  10.020
61155W        W32738  44.040  16.807   3.251
61156W        W32739   7.390  33.158  12.657
61157W        W32740   9.396   9.205  11.702
61158W        W32741  21.409  36.038   2.278
61159W        W32742  26.522  43.203   0.182
61160W        W32743  21.032  14.760  12.054
61161W        W32744   0.914  41.435   5.030
61162W        W32745  33.350  36.070  12.456
61163W        W32746  25.289  22.465   4.089
61164W        W32747  13.927  43.299  12.856
61165W        W32748   8.755   3.549   4.940
61166W        W32749   1.494  21.811  11.079
61167W        W32750  40.298  38.396  14.224
61168W        W32751  27.510  19.348  14.361
61169W        W32752  34.381  39.891   4.140
61170W        W32753   5.913  14.734   1.206
61171W        W32754  38.805  32.849  14.596
61172W        W32755   6.465  37.834   3.273
61173W        W32756   6.841  26.610   0.749
61174W        W32757  42.942  10.382   1.336
61175W        W32758  19.554  37.936   0.724
61176W        W32759  32.936  32.472  14.677
61177W        W32760  41.737   0.910   0.465
61178W        W32761   8.198  30.504   2.230
61179W        W32762  35.183  18.303   4.001
61180W        W32763  33.199   2.468  12.430
61181W        W32764   6.891  44.880  10.709
61182W        W32765   2.645  14.506   4.103
61183W        W32766  12.053  28.015   2.883
61184W        W32767  18.840  27.455   2.097
61185W        W32768   2.750  40.540  11.828
61186W        W32769  20.745   1.362   3.761
61187W        W32770  30.534  33.092  12.479
61188W        W32771  36.422   2.041  11.109
61189W        W32772  37.932  32.312   1.596
61190W        W32773   9.417  36.957  10.512
61191W        W32774  36.032  31.257  12.492
61192W        W32775   9.630   3.982  13.533
61193W        W32776  22.872  29.490   0.674
61194W        W32777  21.431  34.083   4.931
61195W        W32778  40.432  39.557  12.297
61196W        W32779  30.613   1.705  12.942
61197W        W32780  44.909  18.143   2.961
61198W        W32781  35.277  29.606  14.873
61199W        W32782  14.180  35.922  14.960
61200W        W32783  40.446  25.709  12.093
61201W        W32784  20.826  42.438   2.715
61202W        W32785   2.701  30.186  13.475
61203W        W32786  34.577  32.550   3.162
61204W        W32787  21.183  23.539  14.432
61205W        W32788   1.756   2.009  11.991
61206W        W32789   4.427  23.643   2.135
61207W        W32790   4.867   4.748  11.853
61208W        W32791  38.380  16.891  13.596
61209W        W32792   1.143  13.863  12.815
61210W        W32793   4.955  18.718   4.114
61211W        W32794  17.137  36.667  10.695
61212W        W32795  31.113  33.365  14.398
61213W        W32796  11.764  19.747   1.034
61214W        W32797  29.583  25.809   4.157
61215W        W32798  32.973  30.526  12.450
61216W        W32799  40.544  19.339   2.529
61217W        W32800  39.930   1.237   1.907
61218W        W32801  33.678  33.683  11.171
61219W        W32802  11.842   1.743  14.362
61220W        W32803  29.498  34.079  14.517
61221W        W32804  42.897  19.096  13.017
61222W        W32805   1.345   3.428  14.448
61223W        W32806  25.287  31.502  12.733
61224W        W32807  29.101  40.853   0.994
61225W        W32808  12.565  15.203  13.165
61226W        W32809  43.505   4.487  14.941
61227W        W32810  37.520  12.710   2.373
61228W        W32811  32.449   0.553  12.824
61229W        W32812   1.811  10.940  11.220
61230W        W32813   1.761  37.635   2.458
61231W        W32814  21.032  27.255  14.954
61232W        W32815  31.665  26.629  11.898
61233W        W32816   0.249  41.010  10.520
61234W        W32817   9.947  24.710   2.341
61235W        W32818  18.538  39.999  13.503
61236W        W32819  44.317  31.018  13.816
61237W        W32820  36.932   2.732  10.442
61238W        W32821  20.953  22.126   3.066
61239W        W32822  29.361   1.012  11.454
61240W        W32823   0.844  29.881   3.329
61241W        W32824  26.024  13.698   1.167
61242W        W32825   7.978   0.528   0.657
61243W        W32826   4.364  42.507   0.778
61244W        W32827  11.178  19.503  13.417
61245W        W32828   4.033  43.730   1.301
61246W        W32829  12.750   8.808   3.639
61247W        W32830   0.787  33.991  11.948
61248W        W32831  13.864  40.675   4.301
61249W        W32832  19.471  38.039  11.298
61250W        W32833  25.550  26.882  14.420
61251W        W32834  14.009  17.089  12.034
61252W        W32835   8.405   4.694   4.173
61253W        W32836  26.453  15.931  12.356
61254W        W32837  40.729  32.637  12.824
61255W        W32838  16.320  34.189  11.478
61256W        W32839  19.280  21.031   3.669
61257W        W32840  42.083  13.712   2.306
61258W        W32841  29.903   8.221  12.521
61259W        W32842  30.490  42.030  10.750
61260W        W32843  18.507  10.258  11.650
61261W        W32844   3.398  23.449   0.288
61262W        W32845  41.933  38.283  11.177
61263W        W32846   8.849  34.439   0.826
61264W        W32847  26.626  34.640   4.935
61265W        W32848   6.616  15.104   1.803
61266W        W32849  29.885  22.052  12.523
61267W        W32850  29.776  44.760  12.748
61268W        W32851   0.469  44.745  14.542
61269W        W32852  36.383  37.492   2.955
61270W        W32853  43.775  38.046  11.233
61271W        W32854   7.989   0.868   5.070
61272W        W32855  15.648  29.552  14.245
61273W        W32856   1.828   4.383  13.783
61274W        W32857   9.809   2.636  12.102
61275W        W32858  39.684  30.003   4.178
61276W        W32859  14.819  30.592  11.486
61277W        W32860  23.774  23.092  14.771
61278W        W32861  22.073  29.096   1.322
61279W        W32862   7.913  21.776   2.116
61280W        W32863  21.876   9.723  13.874
61281W        W32864  36.427  17.296  11.160
61282W        W32865  43.988  14.386   3.560
61283W        W32866  33.312  11.585  14.417
61284W        W32867  42.078  39.814  12.887
61285W        W32868  22.318  19.610  14.833
61286W        W32869  44.730  14.046   1.877
61287W        W32870  22.240  16.248  11.125
61288W        W32871  28.177  22.760  14.901
61289W        W32872  24.556  22.532  13.390
61290W        W32873  16.193  19.957  12.028
61291W        W32874  44.745   5.437   3.189
61292W        W32875  16.669  29.882   4.001
61293W        W32876  22.319  14.955  14.436
61294W        W32877  13.878  14.067  14.224
61295W        W32878  30.637   8.295   1.608
61296W        W32879  34.459  35.409   0.756
61297W        W32880  24.151  10.688   4.407
61298W        W32881  32.876  42.954  11.521
61299W        W32882  22.642  29.861   3.215
61300W        W32883  29.395  14.504  14.839
61301W        W32884  24.151  24.212  12.430
61302W        W32885  29.611  16.434  11.147
61303W        W32886  28.282  20.050  14.798
61304W        W32887  20.121   2.485  13.878
61305W        W32888  33.868  25.078  11.965
61306W        W32889  37.350  20.132  11.112
61307W        W32890   0.471  41.650  14.372
61308W        W32891  22.553  44.290  13.184
61309W        W32892  38.465  37.795   0.418
61310W        W32893  17.110  17.278   2.843
61311W        W32894  19.725   7.651  11.699
61312W        W32895   6.385   9.716  11.544
61313W        W32896  27.628   1.936  13.383
61314W        W32897  37.019  35.834   0.376
61315W        W32898  33.846  31.108   2.967
61316W        W32899  27.362  10.225   1.843
61317W        W32900  19.480  41.479   0.344
61318W        W32901  26.032  41.049   1.621
61319W        W32902   1.842   9.265  12.477
61320W        W32903  28.051  19.473  10.277
61321W        W32904  27.976  36.630  12.481
61322W        W32905  40.449  20.303   0.789
61323W        W32906   0.229  10.130   1.892
61324W        W32907  14.669  24.679  11.264
61325W        W32908  38.827  27.449  14.969
61326W        W32909  16.656  39.337  11.366
61327W        W32910  16.001  44.476  10.053
61328W        W32911  25.460  19.043   2.457
61329W        W32912  37.456  41.494   3.929
61330W        W32913  16.846  18.702  13.553
61331W        W32914  42.515  11.111  11.213
61332W        W32915  40.079   9.354   4.041
61333W        W32916  32.505  16.500   2.243
61334W        W32917  25.769  17.605  14.588
61335W        W32918  30.102   8.404   4.721
61336W        W32919  35.708  36.931   1.343
61337W        W32920   6.700  19.033  13.987
61338W        W32921  32.995  26.672  12.124
61339W        W32922   6.669  42.727  11.913
61340W        W32923  40.872  28.420  13.535
61341W        W32924  31.998   7.124  14.382
61342W        W32925   4.311   1.200   1.278
61343W        W32926  26.434   3.157  14.560
61344W        W32927  24.116  32.373  10.642
61345W        W32928   4.956   8.345   1.674
61346W        W32929  38.862  26.712  13.626
61347W        W32930  30.666  21.996  11.118
61348W        W32931   7.747  39.167  14.847
61349W        W32932  43.251  24.469  11.272
61350W        W32933  16.784  32.595  13.335
61351W        W32934  31.655  19.653  12.124
61352W        W32935  17.795   9.931   2.745
61353W        W32936  18.311  33.169   4.118
61354W        W32937  37.013   3.895   4.438
61355W        W32938   5.203   3.708   1.325
61356W        W32939  25.616  23.801   0.708
61357W        W32940  42.079  32.386   4.493
61358W        W32941  20.475   2.558   3.199
61359W        W32942  42.034  44.300   4.525
61360W        W32943  23.111   0.501   4.101
61361W        W32944  39.904   4.816  14.372
61362W        W32945  41.463  22.337  12.575
61363W        W32946  16.782  36.697  13.928
61364W        W32947  31.202  33.711   4.590
61365W        W32948  40.321   8.696  14.829
61366W        W32949   4.200  16.851  14.378
61367W        W32950  28.928   1.435   0.403
61368W        W32951   4.246  20.255   2.847
61369W        W32952  19.693  23.540  14.118
61370W        W32953  15.824  32.848  12.562
61371W        W32954  42.261  21.132   4.395
61372W        W32955   7.821  19.439  12.190
61373W        W32956   7.273  26.451   1.904
61374W        W32957  43.788  41.284  12.898
61375W        W32958  32.471   7.994   0.014
61376W        W32959  16.253  41.528   1.363
61377W        W32960   7.246  21.642  14.306
61378W        W32961  13.754  28.363  13.859
61379W        W32962  37.832  10.796  12.486
61380W        W32963  26.043  28.116  12.484
61381W        W32964   1.056  39.453  12.370
61382W        W32965   8.259  38.525   4.840
61383W        W32966  42.656  41.057  12.602
61384W        W32967  32.143  27.646   0.491
61385W        W32968  16.528  16.022   3.556
61386W        W32969   1.252  27.477   1.358
61387W        W32970  32.955  18.806   2.747
61388W        W32971  41.475  28.967  14.019
61389W        W32972   8.511  25.901   1.410
61390W        W32973  16.709  18.264   3.702
61391W        W32974  12.112  43.051   3.264
61392W        W32975   4.356  28.697   3.769
61393W        W32976  11.654  22.262   4.329
61394W        W32977   0.215  10.174  11.524
61395W        W32978  26.172   2.894   0.857
61396W        W32979  29.521  27.946  11.573
61397W        W32980  35.023  29.337  13.468
61398W        W32981  26.974   4.404   1.732
61399W        W32982  36.824  21.583  13.402
61400W        W32983   2.861   0.367   1.685
61401W        W32984  31.154  40.129   3.586
61402W        W32985  16.774  36.138  10.288
61403W        W32986  39.557  29.959  12.067
61404W        W32987  28.098  21.745   1.868
61405W        W32988  18.738  22.455   1.637
61406W        W32989  30.675   9.641  13.877
61407W        W32990  29.660  44.640  10.711
61408W        W32991  36.528  38.437   0.440
61409W        W32992  17.645  19.916   4.192
61410W        W32993  43.066  38.044   1.203
61411W        W32994   9.784   0.506  11.940
61412W        W32995  14.654  17.693   3.629
61413W        W32996  37.510   1.777  14.095
61414W        W32997   3.379  20.887  11.998
61415W        W32998  32.299   3.423   5.143
61416W        W32999  21.071  42.438  13.395
61417W        W33000  40.828  26.148  13.799
61418W        W33001  44.843  24.662  10.621
61419W        W33002  16.671  11.297  12.943
61420W        W33003  25.994   6.457  12.641
61421W        W33004  24.776   1.995  12.876
61422W        W33005  10.063  44.338   4.665
61423W        W33006   2.015  35.832  13.243
61424W        W33007   1.933  11.339  10.927
61425W        W33008  17.988   7.740  10.978
61426W        W33009  28.419  23.208  14.947
61427W        W33010  10.987  12.035  13.647
61428W        W33011  21.139  44.876  13.229
61429W        W33012   0.819  12.087  12.489
61430W        W33013  38.694   2.717  14.025
61431W        W33014  14.022  39.940  13.026
61432W        W33015  16.838  23.854   5.125
61433W        W33016  42.961  39.513   3.167
61434W        W33017  15.410  34.845   1.127
61435W        W33018  33.502  40.285  11.826
61436W        W33019  40.859  36.536  14.812
61437W        W33020  41.891  23.657   1.148
61438W        W33021  37.523   7.858   4.716
61439W        W33022   3.735  32.522   4.777
61440W        W33023  34.503  40.586   4.607
61441W        W33024  10.721  24.948   2.732
61442W        W33025  30.239   7.736  14.257
61443W        W33026  44.408   9.281  11.654
61444W        W33027  33.418   2.398   3.813
61445W        W33028  38.547   4.416   3.282
61446W        W33029  14.911  44.734  13.544
61447W        W33030  28.685   0.075  11.628
61448W        W33031  26.447  19.065  12.947
61449W        W33032  40.124  37.577  14.196
61450W        W33033  37.549  14.106  12.482
61451W        W33034  23.987  25.662   2.335
61452W        W33035  15.511   6.965  11.161
61453W        W33036  41.533   5.953  11.209
61454W        W33037  18.820  21.288  13.517
61455W        W33038  23.410   8.839   3.783
61456W        W33039   8.533  18.411  13.713
61457W        W33040   9.950  10.637  12.922
61458W        W33041   9.741  16.107   4.636
61459W        W33042   3.420  37.788  12.347
61460W        W33043  43.788  44.021  11.239
61461W        W33044  23.767  24.602  12.012
61462W        W33045  13.609  31.580  11.690
61463W        W33046  18.896  24.114  13.671
61464W        W33047  31.839  19.604   1.979
61465W        W33048  17.484  20.618  13.308
61466W        W33049  27.083  28.852   2.169
61467W        W33050   6.892  16.034   2.188
61468W        W33051  29.052  11.736   0.905
61469W        W33052  22.834   7.791  14.818
61470W        W33053  44.544   9.184   0.041
61471W        W33054   0.669  32.511  13.816
61472W        W33055  35.966  23.365   3.985
61473W        W33056  33.303   3.626  14.391
61474W        W33057  15.567  39.468   4.074
61475W        W33058  33.833  20.772  11.164
61476W        W33059  30.343  34.378   1.892
61477W        W33060  21.067   9.225   1.625
61478W        W33061  14.452  10.888  11.853
61479W        W33062  21.068  41.190   4.556
61480W        W33063  32.803   1.802  13.321
61481W        W33064  44.900  25.268  11.540
61482W        W33065  28.147   8.349   3.033
61483W        W33066  26.099   9.337  13.858
61484W        W33067  24.373   2.389  12.371
61485W        W33068  28.452  22.870  11.978
61486W        W33069  28.516   3.352   0.393
61487W        W33070  31.457  36.623   0.841
61488W        W33071   9.841  39.483   4.775
61489W        W33072  17.034  19.288   2.884
61490W        W33073  15.660  33.057   0.444
61491W        W33074  20.330  29.515  11.103
61492W        W33075   1.211  36.127   1.404
61493W        W33076  32.954   5.860  14.304
61494W        W33077  16.275  42.795  12.992
61495W        W33078  13.372  16.212   2.176
61496W        W33079   0.900  31.347   3.665
61497W        W33080  32.739  32.220  14.020
61498W        W33081  39.827  17.740  14.212
61499W        W33082  31.499   7.587  13.895
61500W        W33083   8.593  22.034  11.190
61501W        W33084  36.143  36.142  12.164
61502W        W33085   1.197  29.927  13.117
61503W        W33086  33.158  16.786  12.032
61504W        W33087  11.344  44.784   3.570
61505W        W33088  25.472   7.764  12.592
61506W        W33089   8.724  21.097  13.814
61507W        W33090  23.258  16.719   4.467
61508W        W33091  43.245  12.128   4.532
61509W        W33092   7.169  15.394   3.761
61510W        W33093  16.198  30.386  11.219
61511W        W33094  16.135  27.614   4.098
61512W        W33095  20.287  10.062  12.420
61513W        W33096  41.579  14.696  12.869
61514W        W33097  27.715  24.273  12.837
61515W        W33098  13.228  37.957   1.739
61516W        W33099  11.837  22.544  10.730
61517W        W33100  33.076   9.401  12.378
61518W        W33101  24.748   7.609  12.029
61519W        W33102  22.728  23.786   0.840
61520W        W33103   7.753  27.579   0.732
61521W        W33104  23.752   6.007  13.032
61522W        W33105  24.047  34.664   2.558
61523W        W33106  15.227   4.414   0.457
61524W        W33107  20.394  38.246  14.839
61525W        W33108  42.737   0.059   0.280
61526W        W33109  24.971  44.521   1.691
61527W        W33110   8.830  31.798   2.130
61528W        W33111  27.134   8.920   1.802
61529W        W33112  11.353  26.209   3.709
61530W        W33113  26.131  28.922   3.215
61531W        W33114   7.666   9.778   0.952
61532W        W33115  43.838  32.892  13.049
61533W        W33116   1.247  23.970   3.719
61534W        W33117  44.500   0.224   4.146
61535W        W33118  33.423  37.649   2.261
61536W        W33119  30.493  20.531  14.073
61537W        W33120  41.701  15.043   3.220
61538W        W33121  37.530  14.780   1.356
61539W        W33122   9.979  36.221   4.631
61540W        W33123  10.121   6.634  11.105
61541W        W33124  30.771  24.506   3.654
61542W        W33125  30.923   4.921   4.534
61543W        W33126  26.910   2.791  10.652
61544W        W33127  17.310  35.335  11.464
61545W        W33128  17.134  12.291   3.135
61546W        W33129  12.420  14.315  13.066
61547W        W33130   6.802  13.593   3.705
61548W        W33131  17.734   6.855  11.496
61549W        W33132  14.400  18.380  12.620
61550W        W33133  40.906  22.051   2.696
61551W        W33134  41.018  27.934   3.400
61552W        W33135  32.956  15.765  14.616
61553W        W33136  36.748  28.594   0.344
61554W        W33137  28.654   3.241  12.538
61555W        W33138  35.057  17.999  13.023
61556W        W33139  30.545  13.550  11.395
61557W        W33140  44.280   8.703   4.263
61558W        W33141  23.434  33.045   0.931
61559W        W33142   0.543  42.714  14.322
61560W        W33143  44.804  22.596  11.963
61561W        W33144  34.144  40.591  10.677
61562W        W33145  19.439  21.260   4.124
61563W        W33146   3.756   8.619   2.382
61564W        W33147   8.073  12.722  13.978
61565W        W33148  41.485  15.428  12.134
61566W        W33149  41.309  25.028  12.785
61567W        W33150  10.246  28.218   2.891
61568W        W33151   6.501  11.668   3.864
61569W        W33152   7.709  27.426  14.435
61570W        W33153  16.247  12.144  12.036
61571W        W33154  38.612  36.280  11.673
61572W        W33155  26.954   8.149  12.671
61573W        W33156  12.196  19.737   4.090
61574W        W33157  26.127  15.293   1.405
61575W        W33158  41.965  30.455  10.761
61576W        W33159  35.833  19.711   2.315
61577W        W33160  38.732  31.149  12.312
61578W        W33161  18.236  23.721   3.272
61579W        W33162  44.317   9.164  11.170
61580W        W33163   7.402   8.769   4.737
61581W        W33164  41.124  29.502   1.790
61582W        W33165  18.313  43.066   0.384
61583W        W33166  39.818  40.534   4.254
61584W        W33167  24.264   8.361  11.702
61585W        W33168  29.900  17.535  12.510
61586W        W33169  35.253  20.103   4.780
61587W        W33170  22.116  38.582   3.119
61588W        W33171  37.973  25.017  13.184
61589W        W33172  36.404  32.351  13.718
61590W        W33173  35.518   7.180  11.203
61591W        W33174  30.841   1.496   3.666
61592W        W33175  40.096  11.539  14.888
61593W        W33176  16.276  39.706  12.910
61594W        W33177  11.344  27.620  12.036
61595W        W33178  18.853  21.029   1.651
61596W        W33179  33.939  15.326   4.682
61597W        W33180  24.718  23.323   3.698
61598W        W33181  25.837  26.861   0.389
61599W        W33182  13.287  12.839  13.050
61600W        W33183  30.913  24.701   0.450
61601W        W33184  27.909  36.067   4.180
61602W        W33185  32.213   1.011  14.921
61603W        W33186  16.506  36.934  14.907
61604W        W33187   3.451  12.643   0.064
61605W        W33188   1.643  17.002  13.745
61606W        W33189  36.923  43.490   4.328
61607W        W33190  21.785  44.340   3.020
61608W        W33191  23.009  16.752   1.797
61609W        W33192   5.811  12.121   2.212
61610W        W33193  32.775  23.555  13.272
61611W        W33194   8.538  26.734  10.533
61612W        W33195  10.783  22.252   3.821
61613W        W33196  13.229  16.633  11.081
61614W        W33197  38.911  36.189  10.700
61615W        W33198   3.829  28.123   3.811
61616W        W33199  37.397  39.067  10.313
61617W        W33200  22.987  17.173  10.119
61618W        W33201  29.490  38.568  10.696
61619W        W33202  24.986  36.827  12.781
61620W        W33203  41.793   9.374  14.307
61621W        W33204  38.181  28.704   4.702
61622W        W33205   0.799  29.905   1.786
61623W        W33206   7.773  40.108   1.389
61624W        W33207  15.760  25.932  11.992
61625W        W33208   3.345  13.000  14.200
61626W        W33209  39.574  22.178   0.379
61627W        W33210  34.101  14.102   0.974
61628W        W33211   4.192  10.805   1.004
61629W        W33212  29.619  12.557  12.161
61630W        W33213  31.950   5.632   1.649
61631W        W33214  42.601   9.194   2.739
61632W        W33215  38.664  34.645   4.592
61633W        W33216   0.923  41.425  11.062
61634W        W33217  31.989  28.020   4.635
61635W        W33218   6.634  15.326  10.141
61636W        W33219  40.265   7.629   5.478
61637W        W33220  29.830  42.097  13.986
61638W        W33221  12.396   1.091  11.684
61639W        W33222  39.591  21.496   0.010
61640W        W33223  16.157  28.797   1.329
61641W        W33224  19.868  30.835   1.872
61642W        W33225   9.872  28.766  12.010
61643W        W33226  36.666   1.591  11.123
61644W        W33227  14.429  40.303  12.347
61645W        W33228  29.669   0.496   4.290
61646W        W33229  25.002   3.276  14.528
61647W        W33230  22.499  26.755  13.198
61648W        W33231   1.310   0.485   2.862
61649W        W33232  14.149  41.832  13.457
61650W        W33233  36.261  19.245   2.656
61651W        W33234  27.774  38.457   4.498
61652W        W33235  40.923  37.766   0.858
61653W        W33236  29.086  17.692  13.066
61654W        W33237  41.934  32.478   2.465
61655W        W33238  26.919  40.920   1.032
61656W        W33239  34.258  17.117   2.001
61657W        W33240  33.611  30.486   4.619
61658W        W33241   6.485  25.508  11.140
61659W        W33242   5.119  20.939  10.109
61660W        W33243   2.821  40.496   0.830
61661W        W33244  23.201  35.984   1.028
61662W        W33245  15.606  41.087  13.489
61663W        W33246  28.923  17.164  13.839
61664W        W33247  16.770   6.947   3.812
61665W        W33248  13.306  42.615  10.938
61666W        W33249  30.163  32.920   4.327
61667W        W33250  38.563  40.027   3.168
61668W        W33251   5.488  33.581   1.401
61669W        W33252   3.177   5.415  14.036
61670W        W33253  34.738  13.794   3.063
61671W        W33254   6.253  14.881  13.765
61672W        W33255  11.578   6.192  10.870
61673W        W33256  31.392  29.276  10.603
61674W        W33257  41.396   6.407   2.919
61675W        W33258   4.795  37.312   2.294
61676W        W33259  44.216  13.978  12.578
61677W        W33260  28.498  19.261  14.330
61678W        W33261   1.914  43.284   3.582
61679W        W33262  34.898  10.904  12.438
61680W        W33263  39.782   2.198   2.948
61681W        W33264   3.440   2.924  13.004
61682W        W33265  38.935  25.066  12.868
61683W        W33266  25.515  22.228  11.525
61684W        W33267  31.952  29.586   1.795
61685W        W33268  29.519  14.251   4.583
61686W        W33269  15.760  30.960  14.128
61687W        W33270   5.652   0.706   1.840
61688W        W33271  18.695   4.400   4.959
61689W        W33272  15.688   5.402   0.145
61690W        W33273  19.403  12.033   3.215
61691W        W33274  31.571  40.574  13.378
61692W        W33275  22.758  12.888   0.700
61693W        W33276  14.203  12.340  14.730
61694W        W33277  21.253  38.225   2.846
61695W        W33278  15.200  30.967  10.916
61696W        W33279  30.886  44.762  13.016
61697W        W33280   5.212  28.868   4.625
61698W        W33281   2.370   1.193  13.889
61699W        W33282  12.749  37.981   2.009
61700W        W33283  17.307  34.375  11.418
61701W        W33284  40.446   5.241  13.941
61702W        W33285  42.905  38.057  14.836
61703W        W33286  37.452   4.190  13.327
61704W        W33287  41.990  36.066   0.798
61705W        W33288  35.869  35.069  10.762
61706W        W33289  33.644   3.330   1.829
61707W        W33290   4.884  17.065   3.370
61708W        W33291   9.802  32.069   3.206
61709W        W33292  25.449  19.782   0.888
61710W        W33293  41.622  35.172   3.122
61711W        W33294  34.405  29.173   0.225
61712W        W33295   1.489  43.594  11.025
61713W        W33296  31.106  40.796  12.464
61714W        W33297  31.508  26.718   3.063
61715W        W33298  35.551  44.795   0.759
61716W        W33299  36.821  12.322  14.014
61717W        W33300  38.534  22.711   2.374
61718W        W33301  41.813  26.711   1.391
61719W        W33302  27.965  26.625  11.952
61720W        W33303  39.778  26.920   3.686
61721W        W33304   3.612   7.192  11.026
61722W        W33305   0.394   8.301   3.238
61723W        W33306   1.826  31.211   1.295
61724W        W33307   3.166   3.246  11.426
61725W        W33308  12.397  22.814   0.396
61726W        W33309  33.193  35.463   3.322
61727W        W33310  30.212   6.345   0.577
61728W        W33311   8.760  18.451   2.779
61729W        W33312  42.116  32.038  11.185
61730W        W33313  32.145  35.073  11.871
61731W        W33314  40.310  27.596  13.539
61732W        W33315  27.860  30.876   3.310
61733W        W33316  39.417  42.000   2.800
61734W        W33317  10.709   1.940  13.611
61735W        W33318  41.776  15.368   0.289
61736W        W33319  29.148   0.513  14.374
61737W        W33320  15.111  28.922  14.487
61738W        W33321  37.799  18.975  11.663
61739W        W33322   9.112   8.248  12.946
61740W        W33323  41.411  16.253   1.155
61741W        W33324  32.468  18.758   1.170
61742W        W33325  25.929   0.270   2.009
61743W        W33326  19.289  36.143  10.990
61744W        W33327  14.235  18.179   2.769
61745W        W33328   4.147  28.612   2.236
61746W        W33329  43.447  32.556   3.992
61747W        W33330  14.876   5.620   1.758
61748W        W33331  37.435  30.423  12.139
61749W        W33332  44.960  25.217   4.558
61750W        W33333  14.627  38.653  11.846
61751W        W33334   4.875   2.660   4.584
61752W        W33335  22.058  30.459   3.428
61753W        W33336  33.544   6.969  13.481
61754W        W33337   7.275  42.767   0.087
61755W        W33338  11.160  22.171   4.166
61756W        W33339  44.320  42.889   1.257
61757W        W33340   6.151  12.150  13.767
61758W        W33341  24.576  22.355  12.367
61759W        W33342  24.139  17.054  12.899
61760W        W33343   9.249  15.631   4.110
61761W        W33344  35.394  36.039  12.498
61762W        W33345   1.855  16.788  14.510
61763W        W33346  14.262   0.518   3.231
61764W        W33347  29.635  19.457  11.583
61765W        W33348  21.645  28.565  14.294
61766W        W33349   3.895  25.947   3.277
61767W        W33350  37.267   8.318   4.694
61768W        W33351  37.596   5.285  13.608
61769W        W33352  23.492  43.204  12.487
61770W        W33353  25.601  44.283   0.182
61771W        W33354  31.175  15.753   1.314
61772W        W33355   2.385  25.376   1.953
61773W        W33356  21.250  29.214  10.288
61774W        W33357  44.354   9.898  13.498
61775W        W33358  22.509  25.387   4.129
61776W        W33359  27.986  11.489  11.360
61777W        W33360  15.714   2.259  14.213
61778W        W33361   1.979  43.855  12.192
61779W        W33362  22.661   4.474   1.816
61780W        W33363  25.604  32.391   3.928
61781W        W33364  26.003   4.800  11.432
61782W        W33365  25.582  10.545  10.684
61783W        W33366  41.917  17.115  11.635
61784W        W33367  37.777  26.526  11.887
61785W        W33368  28.939  38.790   3.153
61786W        W33369  43.116  41.905  11.347
61787W        W33370  24.776  23.245   2.390
61788W        W33371  29.630  27.958  13.908
61789W        W33372   5.845  25.727   1.769
61790W        W33373  43.034  43.954  10.635
61791W        W33374  38.968  27.528   1.368
61792W        W33375  27.117   2.272  10.700
61793W        W33376  10.889  41.559   2.795
61794W        W33377  30.082   8.332   2.756
61795W        W33378   3.226  26.913   3.725
61796W        W33379   7.959   4.416  10.777
61797W        W33380  21.334  38.390   0.743
61798W        W33381  15.157  25.619  14.575
61799W        W33382  41.714  38.444  14.550
61800W        W33383   4.195   2.516   0.031
61801W        W33384   3.865  29.105   1.409
61802W        W33385  20.549  12.417   2.182
61803W        W33386  35.907  15.938   4.224
61804W        W33387  42.397  12.925  13.274
61805W        W33388  38.390  17.533  14.427
61806W        W33389   2.322  31.109   0.021
61807W        W33390  13.076   7.500   0.056
61808W        W33391   2.520   6.077   0.387
61809W        W33392  28.458  39.033  13.319
61810W        W33393  33.043  15.615   3.247
61811W        W33394   1.403  42.535   1.878
61812W        W33395   6.217  30.558   4.130
61813W        W33396  15.608  11.286  11.024
61814W        W33397  18.744  25.486   0.831
61815W        W33398  19.035   0.382  13.052
61816W        W33399   6.648  39.420   2.230
61817W        W33400  14.159  24.218   2.591
61818W        W33401  27.541  16.347   3.255
61819W        W33402  44.385  20.091  12.112
61820W        W33403  20.725  12.414  12.946
61821W        W33404  27.861  12.808   2.784
61822W        W33405   2.979  24.566   4.300
61823W        W33406   9.409  18.184  11.055
61824W        W33407  18.555  28.926  13.420
61825W        W33408  18.811  14.077  11.994
61826W        W33409  13.880  10.084   1.317
61827W        W33410   2.519  14.614  13.529
61828W        W33411   7.131   5.360   0.845
61829W        W33412  25.219  44.372  12.589
61830W        W33413  39.250  34.450  11.158
61831W        W33414  40.494   0.086  14.299
61832W        W33415  10.209  29.969   4.423
61833W        W33416   9.703  17.651   3.789
61834W        W33417  11.590  19.364  12.004
61835W        W33418  32.688   4.798   3.384
61836W        W33419  20.595  42.395  13.603
61837W        W33420  10.642  26.636   3.252
61838W        W33421  26.023  19.659  10.465
61839W        W33422   9.820  28.123  11.473
61840W        W33423  17.158   0.171   2.258
61841W        W33424  17.025   1.396  14.864
61842W        W33425   2.627   3.835   3.673
61843W        W33426   0.337  31.642   2.492
61844W        W33427   2.506  18.654   4.539
61845W        W33428  44.874   0.693   2.451
61846W        W33429  14.011  11.263   1.188
61847W        W33430  38.178  41.516   5.033
61848W        W33431  12.198  32.845  11.094
61849W        W33432  25.317  44.295  14.267
61850W        W33433  15.199   0.453   3.187
61851W        W33434  37.297  10.340  10.598
61852W        W33435  39.480  25.219  14.861
61853W        W33436  33.911  33.502  14.359
61854W        W33437  44.751  14.596   4.715
61855W        W33438  30.213  21.552  14.005
61856W        W33439  20.207  28.811  12.628
61857W        W33440   9.133   2.902  13.858
61858W        W33441   2.917  18.706  12.574
61859W        W33442   2.270  15.077  13.501
61860W        W33443   0.365  25.002   4.303
61861W        W33444  30.498  25.893   0.276
61862W        W33445  40.826  33.126   3.628
61863W        W33446  19.790  26.181   4.018
61864W        W33447   4.342  39.001  12.391
61865W        W33448  34.597  33.900   3.081
61866W        W33449   6.457  19.322   0.717
61867W        W33450  39.874  10.143  14.992
61868W        W33451  43.874  15.112   1.783
61869W        W33452  23.633  19.965   1.709
61870W        W33453  39.639  11.789  12.852
61871W        W33454  37.527  35.923   0.468
61872W        W33455  40.468   1.747  10.639
61873W        W33456  18.635  37.131   4.462
61874W        W33457   9.346  36.357  13.332
61875W        W33458  16.658  20.650  11.640
61876W        W33459  14.890  16.349   2.782
61877W        W33460   4.726  33.378   2.701
61878W        W33461  11.104  17.078  12.321
61879W        W33462  22.087  41.533   0.915
61880W        W33463  21.674   5.118   1.705
61881W        W33464  10.582  33.467   0.378
61882W        W33465  21.558   4.946  14.578
61883W        W33466  21.491  22.112   1.199
61884W        W33467   5.387  42.773   0.987
61885W        W33468  42.333   8.112   0.239
61886W        W33469  20.652  11.746   3.049
61887W        W33470  43.514   8.703   3.761
61888W        W33471  42.376  25.647   0.389
61889W        W33472  36.499   7.865   3.868
61890W        W33473  38.008   0.729  13.394
61891W        W33474  25.895  13.197  13.238
61892W        W33475   7.438  29.958   2.388
61893W        W33476  16.985  16.410   3.613
61894W        W33477  31.572  35.807  11.952
61895W        W33478  22.765  40.435  11.929
61896W        W33479  25.246  44.011   3.326
61897W        W33480   5.369   9.814   1.972
61898W        W33481  41.449  11.935  11.644
61899W        W33482   3.510  15.332   4.194
61900W        W33483  39.072  31.170   0.359
61901W        W33484  26.363  21.629  14.794
61902W        W33485  10.862  18.036  12.122
61903W        W33486  36.423  43.517   0.845
61904W        W33487  25.066  13.159  14.878
61905W        W33488   2.708  37.106  14.097
61906W        W33489   5.384  18.600   2.632
61907W        W33490  21.345   2.403  13.135
61908W        W33491   8.383  18.151   3.642
61909W        W33492  33.362   1.272  11.998
61910W        W33493  35.917  41.657   4.731
61911W        W33494  24.718   1.088   0.678
61912W        W33495  16.792  33.635   4.621
61913W        W33496  26.693  31.086   1.984
61914W        W33497  28.015  20.634  14.276
61915W        W33498  37.987  14.780   3.234
61916W        W33499  15.603  17.172   0.679
61917W        W33500   8.437  35.668  14.925
61918W        W33501   0.183  40.216  14.275
61919W        W33502  17.820  23.523  13.915
61920W        W33503   7.272  37.661   4.081
61921W        W33504  19.167   9.897  11.183
61922W        W33505   5.820  38.649   2.671
61923W        W33506  35.884  36.543   0.192
61924W        W33507  20.664  24.402  14.129
61925W        W33508  40.892  15.718  13.065
61926W        W33509  24.496   1.399   1.588
61927W        W33510   5.155   5.405   0.346
61928W        W33511   7.199  29.621   1.436
61929W        W33512  32.084  31.621  10.687
61930W        W33513  30.353  38.861   4.579
61931W        W33514  35.387  20.448  14.256
61932W        W33515   2.193   6.474   4.258
61933W        W33516   8.608  10.896  14.120
61934W        W33517  38.069  13.267  13.545
61935W        W33518   3.473  23.686  11.635
61936W        W33519  22.745  38.445  14.228
61937W        W33520  23.061  21.249  14.927
61938W        W33521  30.393  30.945   2.629
61939W        W33522   1.107   1.976   2.345
61940W        W33523  22.992  34.109   3.133
61941W        W33524  16.027  21.774   4.852
61942W        W33525  44.347  32.091  13.015
61943W        W33526  30.390  38.355  12.834
61944W        W33527  44.310  25.953   1.248
61945W        W33528  32.561  29.882   3.461
61946W        W33529  13.074  17.242  14.673
61947W        W33530  31.019  43.450   2.870
61948W        W33531  33.847  23.650  14.090
61949W        W33532  36.966  42.596   4.080
61950W        W33533  13.687  33.154   1.462
61951W        W33534  23.173  14.328   0.657
61952W        W33535  36.309   1.282   0.041
61953W        W33536  41.317  12.047   4.623
61954W        W33537  38.340  33.069   3.224
61955W        W33538  11.313  41.492  11.726
61956W        W33539   8.907  36.360   2.432
61957W        W33540   6.091  14.365   4.324
61958W        W33541  20.085   8.242  12.308
61959W        W33542  33.595  14.851   4.087
61960W        W33543  35.251  24.468  11.104
61961W        W33544  40.500  12.172   2.606
61962W        W33545  37.265  19.747  10.186
61963W        W33546  12.440  31.257   4.243
61964W        W33547  24.603  10.597  10.580
61965W        W33548  21.016  32.206   2.268
61966W        W33549  27.219  34.023  13.913
61967W        W33550   2.953  40.064  11.884
61968W        W33551  31.713  22.863   3.881
61969W        W33552  39.479  34.944   1.452
61970W        W33553  34.490  25.541   1.524
61971W        W33554   5.701  19.791  12.545
61972W        W33555  36.498   0.918  14.737
61973W        W33556  38.914  34.571  12.971
61974W        W33557  26.008  34.439   2.289
61975W        W33558  39.406  18.274  11.279
61976W        W33559  15.296  27.885  12.007
61977W        W33560  34.000  13.807  11.464
61978W        W33561  20.883  32.570   3.978
61979W        W33562  34.795  38.800   0.888
61980W        W33563  29.949  33.390  14.225
61981W        W33564  20.479  30.861  11.453
61982W        W33565  27.150  16.787   0.229
61983W        W33566  36.900  17.920   0.942
61984W        W33567  23.463  37.533  10.721
61985W        W33568  22.574  25.906   0.884
61986W        W33569   8.627  36.325   4.288
61987W        W33570  12.277   8.940   0.057
61988W        W33571  37.039   9.724   0.166
61989W        W33572  35.059  44.996   2.680
61990W        W33573  21.597  27.252   1.968
61991W        W33574  43.124   7.873  12.676
61992W        W33575  31.432  28.821  10.317
61993W        W33576  19.045  21.374   1.258
61994W        W33577  43.528  20.577  13.905
61995W        W33578  29.177  26.888   2.762
61996W        W33579  33.609  30.682  14.939
61997W        W33580  21.247  39.929   4.679
61998W        W33581  35.176  35.923  12.961
61999W        W33582   8.134  27.425  14.757
62000W        W33583  24.186  37.449   4.613
62001W        W33584  16.749  37.547  10.122
62002W        W33585  42.716  32.592  10.779
62003W        W33586   2.626  39.128   2.402
62004W        W33587  27.383  33.079  11.984
62005W        W33588  11.383   5.100   3.527
62006W        W33589   4.670  13.465  10.686
62007W        W33590  44.676  21.139   3.501
62008W        W33591  32.171  40.375  11.663
62009W        W33592  18.087   8.313   1.698
62010W        W33593  28.955  39.875   1.971
62011W        W33594  24.207   8.653   4.197
62012W        W33595   4.257  13.495   0.303
62013W        W33596  43.117  22.697  14.768
62014W        W33597   0.834  19.978  10.480
62015W        W33598  25.878   6.934  12.858
62016W        W33599  43.852  28.096   4.134
62017W        W33600  29.170  11.457  13.931
62018W        W33601  34.370  18.669  12.389
62019W        W33602   8.893  31.526   3.169
62020W        W33603   1.589  43.261   4.402
62021W        W33604  32.437  11.553   1.230
62022W        W33605  26.390   9.702  12.362
62023W        W33606  43.386   7.821   4.867
62024W        W33607  17.301  26.674   1.683
62025W        W33608  44.055  37.963   1.429
62026W        W33609   8.515  14.645  11.233
62027W        W33610  14.877   9.267   4.180
62028W        W33611  44.484  29.128   3.651
62029W        W33612   4.274  26.181  10.811
62030W        W33613  23.575   4.979  11.562
62031W        W33614  19.915  21.449  12.602
62032W        W33615  41.056  21.144   2.562
62033W        W33616  22.483   8.913   0.393
62034W        W33617  34.251  39.949  12.511
62035W        W33618  21.693  18.614  13.159
62036W        W33619  43.170   6.711   0.336
62037W        W33620  28.394  10.560   5.080
62038W        W33621  41.608  14.612   0.643
62039W        W33622  43.309   1.520   0.848
62040W        W33623  10.216  15.108  13.247
62041W        W33624  19.250  28.714  12.046
62042W        W33625  11.375  10.737   1.484
62043W        W33626  41.603   7.718  12.004
62044W        W33627  17.999  30.147   4.345
62045W        W33628  11.639  37.559  13.336
62046W        W33629   3.322  39.740  13.370
62047W        W33630  17.716  31.944  10.744
62048W        W33631  44.548  39.583  13.171
62049W        W33632  27.025  43.384  12.997
62050W        W33633  33.994  32.118  11.906
62051W        W33634   2.486  25.441   3.730
62052W        W33635   2.280  23.573   1.486
62053W        W33636   4.871   1.427   1.989
62054W        W33637  29.907   3.253   4.690
62055W        W33638  21.503   8.870   1.278
62056W        W33639  12.358  22.824   4.138
62057W        W33640   2.602  21.537  14.630
62058W        W33641  19.793  37.882  12.475
62059W        W33642  44.512  15.748  11.235
62060W        W33643   1.453   0.294   3.320
62061W        W33644   9.542  32.163   2.763
62062W        W33645  16.155   8.371  13.776
62063W        W33646  36.515   5.715  13.000
62064W        W33647   8.375  27.691  10.786
62065W        W33648  19.438  27.043   1.243
62066W        W33649  38.384  19.935   0.785
62067W        W33650   8.686  12.121  11.652
62068W        W33651  31.572   3.427  14.372
62069W        W33652  12.712  20.228   1.854
62070W        W33653  27.305   9.553  11.625
62071W        W33654  32.590  37.837   4.666
62072W        W33655  30.885  39.458  11.270
62073W        W33656  18.204  21.588   3.410
62074W        W33657   5.277  30.355   1.380
62075W        W33658   3.743  12.468  11.581
62076W        W33659  39.020  26.389   0.845
62077W        W33660  39.577  37.807   1.740
62078W        W33661  44.910  34.401   4.157
62079W        W33662  27.498  33.937  12.282
62080W        W33663  12.149  39.490   2.657
62081W        W33664  44.625   3.620   1.778
62082W        W33665  22.661  22.541  12.443
62083W        W33666  34.836  21.543  14.989
62084W        W33667  28.900  25.877  13.517
62085W        W33668  37.052  30.142  11.714
62086W        W33669  35.471  14.451   0.821
62087W        W33670   7.918  37.386  12.642
62088W        W33671  28.461  16.536   1.237
62089W        W33672  41.893  21.504   4.629
62090W        W33673  28.363  42.241   1.562
62091W        W33674  40.689  24.228  11.238
62092W        W33675   9.135  41.623  12.831
62093W        W33676  26.672  24.939   4.996
62094W        W33677   1.660  33.762   0.221
62095W        W33678  36.375  25.389   3.118
62096W        W33679  32.846  33.783   3.192
62097W        W33680   9.680  38.015   2.892
62098W        W33681   6.399  31.508  14.852
62099W        W33682  18.468  37.945   4.351
62100W        W33683  11.249  22.517   3.772
62101W        W33684  28.745  29.854   0.001
62102W        W33685  32.600   6.894  11.912
62103W        W33686  35.160   8.109   2.144
62104W        W33687  44.929  21.645   0.528
62105W        W33688  14.777  36.952   1.473
62106W        W33689  22.266  16.662   5.541
62107W        W33690   5.853  40.777  12.161
62108W        W33691   1.010  20.422  13.088
62109W        W33692  39.913  33.459   0.454
62110W        W33693   5.041  34.176   3.193
62111W        W33694   4.808  27.116  13.857
62112W        W33695  35.897  10.665  13.335
62113W        W33696  35.328  29.314  10.589
62114W        W33697  35.079   4.301   1.458
62115W        W33698  17.555  21.369  12.007
62116W        W33699  37.151   8.749  12.243
62117W        W33700   0.320   3.164   1.223
62118W        W33701  44.436  41.620   2.326
62119W        W33702  21.228  16.383  13.553
62120W        W33703  24.822  24.131   2.733
62121W        W33704  19.755  30.594  12.601
62122W        W33705  34.589  18.576   0.890
62123W        W33706  40.910   2.913  11.887
62124W        W33707   9.139  26.964  12.879
62125W        W33708  21.344  29.886   1.442
62126W        W33709   3.266  36.801   3.602
62127W        W33710  36.555   1.357   1.972
62128W        W33711   8.423   7.108   1.922
62129W        W33712  28.211  31.852   3.211
62130W        W33713  38.041  40.332  13.519
62131W        W33714  41.647  38.983   0.392
62132W        W33715  16.311   1.812  10.718
62133W        W33716   9.801   4.970  11.516
62134W        W33717  33.322  18.514   5.002
62135W        W33718  39.840   0.339  12.592
62136W        W33719   1.903   4.475   2.456
62137W        W33720  29.406  36.304   4.077
62138W        W33721  13.328  40.596   2.256
62139W        W33722   1.210  33.660  13.497
62140W        W33723  19.062   5.485  11.556
62141W        W33724   5.659  25.714  11.533
62142W        W33725  24.095   8.710  10.887
62143W        W33726   5.681   8.601  10.675
62144W        W33727  34.479  26.929  14.509
62145W        W33728  16.192  43.252  14.472
62146W        W33729  29.376  20.483   1.726
62147W        W33730  10.211  16.702  13.779
62148W        W33731  36.139  11.811  14.089
62149W        W33732   7.298  18.497   3.265
62150W        W33733   7.751  23.493  12.681
62151W        W33734  32.347   8.434   4.548
62152W        W33735  23.858  28.192  11.278
62153W        W33736  13.746  21.500   2.217
62154W        W33737  31.633  26.711  13.384
62155W        W33738  27.215   6.337   0.257
62156W        W33739   0.389   8.014   3.677
62157W        W33740   9.655  13.219   3.784
62158W        W33741  32.012  34.810  14.374
62159W        W33742  19.512  33.442   0.237
62160W        W33743  36.948  29.085   3.032
62161W        W33744  18.601  38.137  11.219
62162W        W33745   0.169  42.773   0.537
62163W        W33746   5.445  11.052  11.313
62164W        W33747   9.187  16.144   1.392
62165W        W33748  24.234  29.137  11.233
62166W        W33749  42.100  10.284   0.750
62167W        W33750  12.746  30.930  12.513
62168W        W33751   3.336  15.778  12.077
62169W        W33752  26.514  22.452   0.725
62170W        W33753   3.656  32.587   3.814
62171W        W33754  12.366  40.880  10.768
62172W        W33755   8.215  20.851  12.130
62173W        W33756  24.982  18.671   2.481
62174W        W33757  11.108   3.803   4.495
62175W        W33758  11.343  10.886   3.290
62176W        W33759  29.036  33.687   1.740
62177W        W33760  41.285  34.025   1.766
62178W        W33761  32.068  31.897  11.122
62179W        W33762  25.035  35.109   2.730
62180W        W33763  34.207   8.253  12.437
62181W        W33764  14.286   6.286   1.453
62182W        W33765   5.376  13.278   2.573
62183W        W33766  35.134  27.713   0.848
62184W        W33767   4.946  10.635   2.851
62185W        W33768  11.101   5.973  14.283
62186W        W33769  39.094  18.602   1.706
62187W        W33770   5.192  13.118   3.039
62188W        W33771  36.983   0.956   2.597
62189W        W33772  31.184  15.232   1.200
62190W        W33773  17.829  28.769   3.228
62191W        W33774  15.311  27.398   2.674
62192W        W33775  19.233  12.256  14.558
62193W        W33776   7.210   0.758  10.743
62194W        W33777  20.628   0.367   1.290
62195W        W33778  44.855   0.522   0.763
62196W        W33779  23.512  26.882  11.880
62197W        W33780  34.882  10.155  14.998
62198W        W33781  32.059  25.504  12.106
62199W        W33782  20.308  32.026  10.046
62200W        W33783  10.260   2.379  11.073
62201W        W33784  35.546   4.517   1.401
62202W        W33785  31.366  17.039   4.370
62203W        W33786   9.662  21.157  12.963
62204W        W33787  24.502  31.788   3.795
62205W        W33788  19.595   0.352   2.591
62206W        W33789  28.921  39.490  11.915
62207W        W33790  40.529  19.289  14.289
62208W        W33791  20.600   3.314   1.835
62209W        W33792   0.678  18.493   3.285
62210W        W33793  28.267  39.872   2.806
62211W        W33794  15.685  18.715   1.395
62212W        W33795  40.893   2.880  10.548
62213W        W33796  13.367   2.467   4.514
62214W        W33797   9.389  34.173   3.196
62215W        W33798  32.677  36.962   0.170
62216W        W33799  29.160   3.280   1.163
62217W        W33800  44.397   5.974  10.347
62218W        W33801  22.546   7.963   1.797
62219W        W33802  27.197   6.211  13.032
62220W        W33803  35.833  43.492  14.475
62221W        W33804  43.386  29.932   0.213
62222W        W33805  12.762  22.650  12.050
62223W        W33806  26.342   8.881  14.069
62224W        W33807  29.603  21.991  13.550
62225W        W33808  23.244  21.927   0.252
62226W        W33809  19.084   2.997  13.087
62227W        W33810  15.303  19.780  10.704
62228W        W33811  30.606  25.642  12.056
62229W        W33812  17.178  42.985   3.870
62230W        W33813   0.282   0.523   4.546
62231W        W33814  25.368  30.510   4.520
62232W        W33815  23.388  34.686  12.107
62233W        W33816   1.860   1.137  13.960
62234W        W33817  18.042   0.481   2.340
62235W        W33818   1.319  11.574  12.973
62236W        W33819  42.392  44.412  11.694
62237W        W33820   7.360  30.501  12.449
62238W        W33821  33.873  12.361   2.548
62239W        W33822  13.088  11.379   0.261
62240W        W33823  36.436  21.752  13.102
62241W        W33824  37.293   7.347   4.528
62242W        W33825  14.536  16.584  14.756
62243W        W33826   9.051  32.126   0.401
62244W        W33827   0.980  18.497   0.847
62245W        W33828  26.693   0.094  13.063
62246W        W33829  39.959  41.279   0.946
62247W        W33830   0.312  40.970   1.022
62248W        W33831  18.200   0.469   3.204
62249W        W33832  43.006  23.999  11.050
62250W        W33833  15.465  28.528  11.867
62251W        W33834  15.295   9.908  11.603
62252W        W33835  14.113  10.757  12.743
62253W        W33836  29.947  36.810  14.998
62254W        W33837  35.894  35.514   3.748
62255W        W33838  22.236   9.454   0.879
62256W        W33839  15.752  43.492   3.139
62257W        W33840  19.819  15.668  13.841
62258W        W33841   6.962  16.328   0.856
62259W        W33842  21.148  10.187  14.011
62260W        W33843  26.388  39.994  13.430
62261W        W33844  11.071  34.100  10.668
62262W        W33845  38.956  28.985   1.180
62263W        W33846  27.371   9.208   2.764
62264W        W33847  11.644  15.261   9.861
62265W        W33848  32.709  24.756   3.744
62266W        W33849   2.475  34.084   4.841
62267W        W33850  43.912  15.577   1.390
62268W        W33851  35.501  16.826   1.166
62269W        W33852   9.807  14.152   3.866
62270W        W33853  40.928  31.457  11.970
62271W        W33854  29.808  31.111  10.381
62272W        W33855  34.961  27.728   4.537
62273W        W33856  12.835  24.967   3.239
62274W        W33857   5.679  32.032   4.129
62275W        W33858  37.623  18.095   4.181
62276W        W33859  32.081  16.565  12.360
62277W        W33860  26.185  31.482   3.009
62278W        W33861  15.324  17.648   3.350
62279W        W33862  20.539   2.535  12.432
62280W        W33863  40.023  34.909   0.808
62281W        W33864   4.647  19.571   4.660
62282W        W33865  13.916  19.750  10.896
62283W        W33866  27.307  35.988  12.871
62284W        W33867  28.655  42.295  10.995
62285W        W33868   7.198   8.666  13.842
62286W        W33869  22.585   5.538  14.918
62287W        W33870  22.455  38.709   0.347
62288W        W33871  38.442  26.500  10.866
62289W        W33872  16.739  22.900  12.921
62290W        W33873   6.481  41.745   0.737
62291W        W33874  14.176  25.275  10.945
62292W        W33875  40.483   8.789   3.610
62293W        W33876  32.593   6.891   4.605
62294W        W33877  14.842  39.099  11.659
62295W        W33878  12.612  33.448   3.164
62296W        W33879   0.811  24.177  10.667
62297W        W33880  24.242  28.637   0.389
62298W        W33881  40.848  34.063   4.108
62299W        W33882  40.974   8.118   3.654
62300W        W33883  14.810   1.224   1.890
62301W        W33884   7.400  41.927   1.768
62302W        W33885   9.096  32.768  13.930
62303W        W33886  28.646  27.144  13.817
62304W        W33887  38.873  16.097   0.348
62305W        W33888  32.171  39.872   2.385
62306W        W33889  20.397  19.940  13.978
62307W        W33890  26.006  29.586   1.789
62308W        W33891  35.541  17.337   1.179
62309W        W33892  10.923  21.763   3.699
62310W        W33893  36.453  32.381   2.732
62311W        W33894   7.712  39.956  12.494
62312W        W33895  11.350  16.526  11.112
62313W        W33896  31.054  19.211  10.713
62314W        W33897  38.450   5.435   2.306
62315W        W33898   3.274  15.072  13.170
62316W        W33899  30.363  28.416  12.474
62317W        W33900  33.907  30.557  11.496
62318W        W33901  42.844  26.105  10.682
62319W        W33902  16.789  21.734   0.960
62320W        W33903  26.113  30.956   2.265
62321W        W33904  35.506  44.002   4.292
62322W        W33905   5.409   0.246  14.355
62323W        W33906  16.586   2.191   4.121
62324W        W33907  27.239  12.927  11.932
62325W        W33908  35.837   9.821  12.974
62326W        W33909   9.833  32.714   0.081
62327W        W33910  23.915  18.633  11.540
62328W        W33911  27.975  32.573   3.232
62329W        W33912  43.871  37.070  11.269
62330W        W33913  22.332  42.394   1.333
62331W        W33914  23.334  21.989   4.414
62332W        W33915   4.756  22.938   3.279
62333W        W33916   9.146  43.638   1.044
62334W        W33917   7.931  17.963  14.747
62335W        W33918  25.717   8.762   5.038
62336W        W33919  43.061   2.571  12.051
62337W        W33920  12.557  22.218  13.286
62338W        W33921  32.046  20.124  14.336
62339W        W33922  11.568  40.290  13.131
62340W        W33923  14.277   6.698  13.933
62341W        W33924  37.889  12.259  11.274
62342W        W33925  38.346  44.466  11.484
62343W        W33926  26.605  10.136   4.521
62344W        W33927  21.636  27.566  10.756
62345W        W33928  25.237  17.555   1.825
62346W        W33929   6.411  30.980   3.902
62347W        W33930   5.141   5.715  13.356
62348W        W33931   5.268   9.686   0.112
62349W        W33932  23.714  35.799   3.721
62350W        W33933  27.527  40.034  11.499
62351W        W33934  12.405  18.731  11.704
62352W        W33935   1.240  23.607  11.943
62353W        W33936  20.286   0.800   2.443
62354W        W33937  22.511  17.749   3.766
62355W        W33938  27.936  26.194  13.037
62356W        W33939  27.967   9.249  13.013
62357W        W33940  35.802  29.594  14.925
62358W        W33941  13.190  39.071   3.699
62359W        W33942  14.706   7.876   2.130
62360W        W33943  34.934  22.590  10.987
62361W        W33944  18.300   1.297  13.369
62362W        W33945  23.979  27.515   2.571
62363W        W33946  36.338  15.893   2.245
62364W        W33947   3.084  33.505  13.485
62365W        W33948   7.157  13.219   3.549
62366W        W33949  26.841  40.882  14.259
62367W        W33950   6.701  11.193  12.505
62368W        W33951  19.564  37.110  14.713
62369W        W33952  10.201  13.609  13.042
62370W        W33953  30.146  11.820   2.225
62371W        W33954   2.787  32.978  11.900
62372W        W33955  23.939  24.150  12.904
62373W        W33956  16.118   0.177  13.734
62374W        W33957  31.070  29.690  11.287
62375W        W33958  33.440   1.221   5.537
62376W        W33959  30.054  24.123  11.128
62377W        W33960  36.632   4.737   0.700
62378W        W33961  18.973  36.597   2.781
62379W        W33962  44.275  17.732   4.064
62380W        W33963  42.337   3.983  13.735
62381W        W33964   5.792   8.216   3.996
62382W        W33965   0.297  34.453  13.654
62383W        W33966   9.578  26.434   4.841
62384W        W33967  41.549   8.022  13.828
62385W        W33968  16.534  19.296   0.804
62386W        W33969  16.623  43.533  13.743
62387W        W33970  14.697  14.435  12.115
62388W        W33971   0.946  25.272  12.558
62389W        W33972  28.953  21.317   3.398
62390W        W33973  38.276   1.983   2.304
62391W        W33974  27.274  10.734   1.881
62392W        W33975  12.471  40.369  10.746
62393W        W33976  40.522  36.001   4.271
62394W        W33977  36.887  35.087  11.774
62395W        W33978  26.143  44.679   0.763
62396W        W33979  21.728  14.429   4.171
62397W        W33980  13.089  19.812  14.796
62398W        W33981   0.990   9.007  13.602
62399W        W33982   8.640  26.219  11.075
62400W        W33983   1.112  41.516  13.910
62401W        W33984   3.722  37.157   2.748
62402W        W33985  37.092  13.125  12.070
62403W        W33986  27.076   2.738  11.130
62404W        W33987  13.386  34.391  11.136
62405W        W33988  27.424  29.373  13.059
62406W        W33989  34.109  38.499  12.471
62407W        W33990  22.882  31.914  14.893
62408W        W33991  12.821  13.421   2.897
62409W        W33992  21.958  10.151   4.738
62410W        W33993   5.557  41.862   0.835
62411W        W33994  16.653   9.428  10.748
62412W        W33995   1.938  14.832   0.794
62413W        W33996  28.741  16.667   2.228
62414W        W33997  32.133  15.387  10.784
62415W        W33998  17.782  16.830   2.422
62416W        W33999   0.913  18.581   2.197
62417W        W34000   4.228  17.824  11.073
62418W        W34001  15.105  30.055  11.446
62419W        W34002  26.144  32.091   2.334
62420W        W34003  40.440   1.764   4.576
62421W        W34004   4.125   3.347  11.724
62422W        W34005  40.392  37.545   0.939
62423W        W34006  32.446  27.655   2.309
62424W        W34007  19.488   5.288  14.156
62425W        W34008  34.877  14.331  11.737
62426W        W34009  27.000   3.952  13.663
62427W        W34010  31.389  16.804   1.362
62428W        W34011   7.835   8.662   1.802
62429W        W34012  27.078  25.826  11.625
62430W        W34013  25.170  38.637  14.830
62431W        W34014  26.166  42.474  13.304
62432W        W34015   4.194  42.701   0.319
62433W        W34016   4.127   7.822   4.712
62434W        W34017   5.687  38.562  11.514
62435W        W34018  18.602  29.953  10.848
62436W        W34019   1.768  26.290   3.645
62437W        W34020  28.556  30.831   2.818
62438W        W34021  16.580   0.011   3.168
62439W        W34022  19.921  34.181   2.974
62440W        W34023  41.626  35.560   1.702
62441W        W34024  26.271   2.308   2.125
62442W        W34025  17.787  31.395   3.777
62443W        W34026   3.588  37.001  14.301
62444W        W34027  26.712  25.373   2.120
62445W        W34028  39.938  15.492  14.582
62446W        W34029  21.167  39.897   3.670
62447W        W34030  19.973  24.931   0.910
62448W        W34031  33.214  28.417   3.076
62449W        W34032  28.978   0.248  12.635
62450W        W34033   8.890  12.605  13.357
62451W        W34034  36.084  16.698   3.232
62452W        W34035  12.653  19.136   4.807
62453W        W34036  18.093  31.133  10.624
62454W        W34037   4.030  13.395  11.725
62455W        W34038   9.535  32.529  14.068
62456W        W34039   2.218  28.959  11.006
62457W        W34040  29.721  20.036  13.037
62458W        W34041  19.924  25.483   4.952
62459W        W34042  20.604  28.521   4.675
62460W        W34043  10.672  23.212  11.461
62461W        W34044  38.115  20.327   0.310
62462W        W34045  17.831  17.249  14.377
62463W        W34046  13.439  34.698   3.154
62464W        W34047   9.300  26.239   1.536
62465W        W34048  19.133   3.521   4.266
62466W        W34049  22.217  17.153  14.542
62467W        W34050   1.280  36.385  13.777
62468W        W34051  33.917  42.407   2.504
62469W        W34052  42.266   4.451  10.569
62470W        W34053  20.272  12.408   0.935
62471W        W34054  40.162   0.777   1.907
62472W        W34055   9.475  36.307  10.936
62473W        W34056  36.825   9.349   3.742
62474W        W34057  29.341  42.143  13.843
62475W        W34058  38.561  14.267   9.794
62476W        W34059  41.880   8.867  12.045
62477W        W34060  23.522  33.948   1.434
62478W        W34061  11.026  23.178   0.828
62479W        W34062  26.326  27.536  14.292
62480W        W34063   5.148   1.969   5.002
62481W        W34064   7.278   6.619  12.170
62482W        W34065  38.275  31.992  14.708
62483W        W34066   3.793  29.451   3.069
62484W        W34067  27.003  43.845  14.368
62485W        W34068   1.353  37.615  14.227
62486W        W34069  10.196   6.294   3.147
62487W        W34070  21.574   9.078  10.441
62488W        W34071  33.407  41.063   1.928
62489W        W34072  34.455  13.680   4.681
62490W        W34073  14.767  37.045  10.654
62491W        W34074  11.265  33.546  14.237
62492W        W34075  40.955   1.385  13.449
62493W        W34076  23.867  23.567   3.540
62494W        W34077  10.843   8.246   1.035
62495W        W34078   0.084  26.229  11.966
62496W        W34079  10.523  43.292   3.431
62497W        W34080  44.038   8.174   3.603
62498W        W34081  43.316   8.200  14.016
62499W        W34082  10.344  26.221  13.485
62500W        W34083  12.517  16.015  11.131
62501W        W34084  15.099  13.166  10.912
62502W        W34085  34.891  38.305   0.818
62503W        W34086  15.125  21.120   4.800
62504W        W34087  44.750  41.809  12.116
62505W        W34088  43.753  32.029  11.621
62506W        W34089  11.357  14.645  14.438
62507W        W34090  36.474  40.801   0.827
62508W        W34091  34.447  35.584   0.252
62509W        W34092  42.021  34.568  10.831
62510W        W34093  12.634  33.673   0.296
62511W        W34094  17.535  12.160  14.122
62512W        W34095   1.650  22.502   0.349
62513W        W34096  25.348  19.431  11.563
62514W        W34097   9.942  35.342  12.806
62515W        W34098  28.597  42.268   4.026
62516W        W34099  35.161   4.492  14.476
62517W        W34100  27.681  23.602  12.605
62518W        W34101  31.992  11.887   2.153
62519W        W34102  29.624  28.314   3.396
62520W        W34103  14.192  14.259   0.366
62521W        W34104  35.446   2.984  11.638
62522W        W34105  15.523   6.654   0.867
62523W        W34106   7.254  34.849   3.179
62524W        W34107  44.477   5.101   3.493
62525W        W34108  19.154  25.081   0.069
62526W        W34109  38.408  41.639   3.942
62527W        W34110  29.197   9.717   1.704
62528W        W34111  20.076  40.670   0.220
62529W        W34112  18.090  32.696   4.126
62530W        W34113   7.250  38.465   0.926
62531W        W34114   1.757  24.772   2.656
62532W        W34115  20.772   3.456   2.335
62533W        W34116  10.435   5.119  11.514
62534W        W34117  40.707  22.195  13.090
62535W        W34118   9.658  32.063   1.832
62536W        W34119   8.869  27.856   1.442
62537W        W34120  42.427  12.429  13.438
62538W        W34121  37.286  35.928   4.035
62539W        W34122  10.931   1.407   4.076
62540W        W34123  42.948  31.996  12.845
62541W        W34124  31.908   7.578   4.751
62542W        W34125  35.010  23.962  14.364
62543W        W34126  12.850  38.082  14.551
62544W        W34127   6.739  40.328  12.961
62545W        W34128  27.981  29.495   0.880
62546W        W34129  35.047  20.195  12.995
62547W        W34130  28.043  23.154  11.054
62548W        W34131  14.770  10.233   4.387
62549W        W34132  36.077   7.785   0.186
62550W        W34133  35.858  26.977   1.616
62551W        W34134  38.556  41.305   2.405
62552W        W34135  27.120  42.764  12.547
62553W        W34136  35.878  19.622  14.293
62554W        W34137  20.722  21.662  14.535
62555W        W34138   2.355   5.789   1.964
62556W        W34139   0.028  39.522   1.915
62557W        W34140  30.744  25.416  11.623
62558W        W34141  13.877  22.957   2.647
62559W        W34142  14.886   8.818   1.871
62560W        W34143   5.293   1.202  12.901
62561W        W34144   5.984  14.391  10.729
62562W        W34145  42.836  37.399   2.157
62563W        W34146  31.505  25.856   0.310
62564W        W34147  32.510  15.616   1.374
62565W        W34148  17.815  30.868  14.446
62566W        W34149  44.710  44.821   1.334
62567W        W34150   4.436  42.733  11.214
62568W        W34151   7.631  23.686   4.903
62569W        W34152  42.749  13.535  10.990
62570W        W34153  17.199  42.815   2.502
62571W        W34154  34.082   6.937  13.424
62572W        W34155  13.222   7.640   2.375
62573W        W34156  37.133  23.031   2.114
62574W        W34157  25.181  14.874  13.385
62575W        W34158  19.067  13.533  12.131
62576W        W34159  44.470  13.798   2.596
62577W        W34160  25.188  15.422   2.284
62578W        W34161  32.335  40.411   2.416
62579W        W34162  37.884   5.039   4.027
62580W        W34163  20.023  19.042   0.481
62581W        W34164   0.936  26.947  11.391
62582W        W34165  39.316  28.199  13.032
62583W        W34166  39.431   4.415  14.020
62584W        W34167  44.646  13.010  11.703
62585W        W34168  22.684  29.013   2.764
62586W        W34169  39.095  29.472  14.011
62587W        W34170  27.386  40.040  13.442
62588W        W34171  11.857  14.548  14.350
62589W        W34172  29.921  28.971   4.863
62590W        W34173   7.742  11.883   3.118
62591W        W34174   1.782  36.169   2.219
62592W        W34175   6.943  42.484  14.740
62593W        W34176  31.619  40.813   0.774
62594W        W34177  44.846  22.700  12.804
62595W        W34178  19.203  30.523   1.134
62596W        W34179  26.355  21.062  11.302
62597W        W34180  14.885  30.842  14.839
62598W        W34181  22.742  40.422  14.918
62599W        W34182  13.029  19.793  11.104
62600W        W34183  34.925  20.639  14.918
62601W        W34184  21.572   7.213  10.893
62602W        W34185  16.320  42.264   2.669
62603W        W34186  13.626  18.886   3.697
62604W        W34187  13.074  37.825  12.948
62605W        W34188  38.399  22.148  14.814
62606W        W34189  23.507   1.179  11.224
62607W        W34190   5.322  13.023  13.096
62608W        W34191   4.900  17.455   3.062
62609W        W34192  20.554  11.732   4.594
62610W        W34193  28.161  24.191   4.255
62611W        W34194  26.769  18.609  11.333
62612W        W34195   5.645   1.353   0.507
62613W        W34196   4.244  22.007  12.890
62614W        W34197  18.041  20.431  11.852
62615W        W34198  37.799  17.579  13.822
62616W        W34199  12.824   1.835   2.352
62617W        W34200  28.659  15.823  10.786
62618W        W34201  31.886  13.396  13.822
62619W        W34202   9.170  35.600   4.544
62620W        W34203   7.693  44.551   1.420
62621W        W34204  27.622  26.984   0.029
62622W        W34205  41.289  32.046  11.585
62623W        W34206  22.700   7.061   9.709
62624W        W34207   3.946  22.698  10.802
62625W        W34208  26.969   1.376  14.630
62626W        W34209  17.376   9.287  13.878
62627W        W34210  27.656  38.052  10.639
62628W        W34211  41.320   2.915   1.361
62629W        W34212  13.538  19.890  14.538
62630W        W34213  41.739  25.696  13.839
62631W        W34214  21.525  18.454  11.565
62632W        W34215  22.074  40.462  11.623
62633W        W34216  30.690  38.045   1.039
62634W        W34217  23.612  19.289  13.837
62635W        W34218  31.369  31.682  13.745
62636W        W34219  37.041   8.705  11.703
62637W        W34220  32.935  26.523  11.466
62638W        W34221  28.949  19.598   0.333
62639W        W34222  23.434  10.664   2.315
62640W        W34223   9.642  36.848   2.290
62641W        W34224  44.163  43.437  13.018
62642W        W34225  12.703  24.724   3.689
62643W        W34226   1.059   7.221   4.441
62644W        W34227  21.091  19.292  12.563
62645W        W34228  32.759  39.000   4.560
62646W        W34229  19.196   1.653   1.276
62647W        W34230  23.630  20.446   1.841
62648W        W34231  38.410  30.942   2.932
62649W        W34232  11.856   2.322   1.905
62650W        W34233  27.480   9.846   9.444
62651W        W34234  21.218  18.786  12.518
62652W        W34235  33.658  20.782   4.140
62653W        W34236   2.377   4.345   2.663
62654W        W34237   9.190  13.758   4.993
62655W        W34238  16.183  28.282   1.326
62656W        W34239  34.153   8.912   4.545
62657W        W34240  10.397  16.200   1.043
62658W        W34241  11.348  40.904   3.882
62659W        W34242  39.522  30.706  12.774
62660W        W34243  15.888   5.771  11.520
62661W        W34244  42.045  16.665   1.293
62662W        W34245  27.537  44.052  11.447
62663W        W34246  41.994  29.023   3.325
62664W        W34247  12.658  24.357  14.912
62665W        W34248  33.775   7.388   0.525
62666W        W34249  34.296   2.315   2.318
62667W        W34250  23.888  22.770   0.922
62668W        W34251  25.770  28.998  11.556
62669W        W34252  30.975  44.470   2.620
62670W        W34253  18.358  21.723  13.460
62671W        W34254  42.539  41.527  12.438
62672W        W34255  14.395  35.202  12.217
62673W        W34256  18.159   8.891  11.647
62674W        W34257   5.465  34.016   3.437
62675W        W34258  25.337   6.424  11.111
62676W        W34259  39.493  29.309  12.512
62677W        W34260  14.030  39.424   3.195
62678W        W34261  22.873  23.517   3.678
62679W        W34262   9.851   1.630   0.860
62680W        W34263  16.874  44.014  10.624
62681W        W34264   6.827  35.432   3.043
62682W        W34265  17.289  43.404   1.691
62683W        W34266  27.457  26.093  12.854
62684W        W34267  12.903  36.758   2.373
62685W        W34268  13.722  21.086  14.868
62686W        W34269   1.710   7.128  13.022
62687W        W34270  11.850   3.542  10.480
62688W        W34271  43.412  23.193   4.196
62689W        W34272  16.173   0.740   1.213
62690W        W34273  17.363  13.162  12.635
62691W        W34274  12.158   4.243  11.521
62692W        W34275  41.186  26.700  10.893
62693W        W34276  21.093  41.336  12.545
62694W        W34277  33.166  30.560   2.712
62695W        W34278  35.101  17.276  13.513
62696W        W34279  32.328  29.517   3.120
62697W        W34280  14.662   9.939   0.180
62698W        W34281   8.642   5.344  13.030
62699W        W34282   7.704  33.118   5.017
62700W        W34283  36.508  18.495   3.787
62701W        W34284  30.966  27.738   4.094
62702W        W34285  38.487  40.374   1.178
62703W        W34286  16.076   3.969   4.230
62704W        W34287  18.467  31.064  14.932
62705W        W34288  41.319  40.769  11.590
62706W        W34289  23.082  24.163   0.777
62707W        W34290   3.823  31.979   0.452
62708W        W34291  32.036   5.229   0.742
62709W        W34292  19.709   7.941  12.105
62710W        W34293  28.678  35.027   1.854
62711W        W34294  23.760  39.149  12.413
62712W        W34295   7.245  24.170   1.355
62713W        W34296  44.919   3.512   3.338
62714W        W34297   0.687  32.079  12.533
62715W        W34298  25.208   3.638  12.040
62716W        W34299  38.748   0.603   3.650
62717W        W34300   4.618  21.968   2.205
62718W        W34301  13.576  27.998   4.077
62719W        W34302  37.447  28.033   3.870
62720W        W34303  38.682  16.655  13.980
62721W        W34304  41.869  24.298   4.159
62722W        W34305  31.666  25.470  10.774
62723W        W34306  12.895  16.763   4.011
62724W        W34307  32.071  39.024   3.798
62725W        W34308  17.703  14.267   2.860
62726W        W34309  32.713  13.285   4.552
62727W        W34310  25.149  37.835   0.537
62728W        W34311  11.780   4.805  10.564
62729W        W34312  28.642  21.681   0.660
62730W        W34313  41.547  43.299   3.023
62731W        W34314  20.237  36.838  12.097
62732W        W34315  23.579  19.071   1.618
62733W        W34316  29.722  43.048   2.832
62734W        W34317  22.924   9.359   9.627
62735W        W34318   7.860   1.416  12.097
62736W        W34319  26.469   5.507   1.344
62737W        W34320  10.420  35.404   3.643
62738W        W34321  29.696  30.054   4.235
62739W        W34322  30.388  12.049  14.911
62740W        W34323  29.410   7.641  12.992
62741W        W34324   5.940   1.493  14.705
62742W        W34325  19.820  17.812   4.692
62743W        W34326  43.335  39.360   1.407
62744W        W34327  12.733  16.938  10.579
62745W        W34328  11.649  13.669  12.880
62746W        W34329   6.405   2.333  10.640
62747W        W34330  33.182  38.000   1.685
62748W        W34331   3.296   4.442   2.718
62749W        W34332  27.593   6.650   0.975
62750W        W34333  41.643  37.898  12.991
62751W        W34334  27.041  34.951  12.942
62752W        W34335  39.947  41.185  14.972
62753W        W34336   1.845  30.186   2.751
62754W        W34337   9.404  16.126  11.351
62755W        W34338   1.900  23.538   3.265
62756W        W34339   0.769  31.991   1.885
62757W        W34340  38.350  35.366   0.258
62758W        W34341  29.069  35.628  13.949
62759W        W34342  25.769  12.267  14.736
62760W        W34343  27.103   7.210   2.084
62761W        W34344  10.136  27.651   4.304
62762W        W34345   3.245  15.273   3.172
62763W        W34346  22.747   9.270   3.465
62764W        W34347  30.686  15.145   0.281
62765W        W34348   6.374  13.776   4.044
62766W        W34349   5.139  29.572  11.594
62767W        W34350  43.980  21.863  13.050
62768W        W34351   2.438  23.078  13.236
62769W        W34352  27.632  25.621  13.931
62770W        W34353  39.074  32.988  11.286
62771W        W34354  36.693  24.692   1.386
62772W        W34355  41.873  13.117  10.794
62773W        W34356  39.751   0.812   2.866
62774W        W34357  20.162  41.779   1.685
62775W        W34358  12.591  16.484  10.364
62776W        W34359   2.252  17.639   3.658
62777W        W34360  12.403   7.952   0.488
62778W        W34361  32.561  42.915  13.894
62779W        W34362  43.776  21.027  13.766
62780W        W34363  32.462   7.832   1.868
62781W        W34364  40.045  37.571  10.286
62782W        W34365  28.073  12.380  11.608
62783W        W34366  12.648   1.561   2.780
62784W        W34367  43.031  19.556  14.509
62785W        W34368   7.305  44.749  13.093
62786W        W34369  41.002  10.827   2.187
62787W        W34370   9.360  37.012  12.911
62788W        W34371  20.483  32.583  14.891
62789W        W34372  28.911  39.515   3.748
62790W        W34373  19.405  23.646  12.622
62791W        W34374  32.996  24.997   2.049
62792W        W34375  20.129  13.568   3.427
62793W        W34376   5.354   8.298   4.816
62794W        W34377   3.209  18.752  13.032
62795W        W34378  23.456  35.824  12.562
62796W        W34379   5.853  29.118  14.088
62797W        W34380   9.071  33.456   0.405
62798W        W34381  40.790  40.953  10.738
62799W        W34382  27.004  25.671   2.430
62800W        W34383  43.844   9.926  11.100
62801W        W34384  17.385  32.674  11.096
62802W        W34385  22.656   3.211   0.292
62803W        W34386  18.808  19.915   3.675
62804W        W34387  21.158  15.678  14.039
62805W        W34388  44.579  35.471   0.796
62806W        W34389  32.408  26.163   4.365
62807W        W34390  24.104  31.881  10.471
62808W        W34391   0.935  32.140   3.173
62809W        W34392  10.617   1.985  11.112
62810W        W34393  23.952  38.383   3.194
62811W        W34394  29.582  10.282  12.658
62812W        W34395   1.712  39.197  12.997
62813W        W34396  36.831   3.250  12.307
62814W        W34397  13.029  29.656   0.443
62815W        W34398   2.243  43.249  12.151
62816W        W34399   2.353  28.626  11.607
62817W        W34400   7.983   3.281  13.024
62818W        W34401   0.712  17.026  13.521
62819W        W34402   2.257   1.265  13.268
62820W        W34403  34.625  14.844  13.510
62821W        W34404   2.979  29.640   2.705
62822W        W34405  32.063  43.361  13.345
62823W        W34406  40.946  26.439   1.734
62824W        W34407  31.030  44.507  14.918
62825W        W34408  20.371  21.572  10.517
62826W        W34409   1.056  10.856  14.314
62827W        W34410  11.698  13.732   1.362
62828W        W34411  33.790  38.267  11.452
62829W        W34412   2.211  33.839  14.689
62830W        W34413  28.514  26.698   3.277
62831W        W34414  24.053  12.176   3.463
62832W        W34415   0.041   2.779   2.655
62833W        W34416  13.073  11.273  10.932
62834W        W34417  14.345   2.887   3.666
62835W        W34418  40.010  44.496  13.592
62836W        W34419  20.519  38.044   1.128
62837W        W34420  36.060   7.687   3.654
62838W        W34421  32.506  28.633  12.531
62839W        W34422  13.354  35.856   3.387
62840W        W34423  15.512  40.278   2.131
62841W        W34424  37.325   6.702   2.640
62842W        W34425   1.261  13.954  11.827
62843W        W34426  21.771   8.421  14.472
62844W        W34427   0.833  34.230  14.335
62845W        W34428   0.526  44.221  13.035
62846W        W34429  19.362  34.683  13.374
62847W        W34430  17.756  12.284  13.057
62848W        W34431  39.258   0.221   4.495
62849W        W34432  29.655  40.841  10.423
62850W        W34433  19.586  36.643  12.206
62851W        W34434   0.045  35.232   3.710
62852W        W34435  17.979  29.157   0.428
62853W        W34436  35.528  30.598  12.787
62854W        W34437  26.904  17.152   3.209
62855W        W34438  20.467  37.457   1.229
62856W        W34439  29.904  14.277  11.622
62857W        W34440  31.861  44.994  11.085
62858W        W34441  22.136  13.668   0.392
62859W        W34442  24.927  17.501  12.857
62860W        W34443  18.723  39.134   1.320
62861W        W34444  36.879  40.082   1.771
62862W        W34445  20.264   3.747  14.931
62863W        W34446  12.292  41.564  12.465
62864W        W34447  38.462  28.994  13.104
62865W        W34448  40.576  17.141   0.454
62866W        W34449  24.608  13.192   3.828
62867W        W34450  10.325  44.813   1.767
62868W        W34451  12.035  25.020   0.506
62869W        W34452  11.565  11.603  12.905
62870W        W34453  29.012  40.349   1.773
62871W        W34454  32.029   1.732   1.072
62872W        W34455  28.255  40.958  11.593
62873W        W34456  26.554  25.105  14.043
62874W        W34457   7.778  14.133  14.833
62875W        W34458  30.688   6.681  11.982
62876W        W34459  41.861   0.024   1.022
62877W        W34460  17.200   0.861  12.454
62878W        W34461  42.196   6.739  13.809
62879W        W34462  14.081  43.208  14.479
62880W        W34463  15.214  13.805  13.912
62881W        W34464  18.320  13.803  13.515
62882W        W34465  30.176  21.661   1.837
62883W        W34466  10.787  35.746  14.735
62884W        W34467  31.656  38.894   1.339
62885W        W34468  24.761  42.349   0.289
62886W        W34469  13.118  23.667   0.024
62887W        W34470  12.359  41.717  11.947
62888W        W34471  11.227  17.518  12.050
62889W        W34472   7.861  29.581  13.490
62890W        W34473  34.470  11.778  11.057
62891W        W34474  30.190  35.025  12.515
62892W        W34475  35.584   0.023  12.825
62893W        W34476  21.767   4.494   4.191
62894W        W34477  19.460  43.073  12.074
62895W        W34478  10.407   0.812  13.888
62896W        W34479  34.109  18.611   0.723
62897W        W34480   1.741  38.573  10.640
62898W        W34481   7.811  37.651   0.929
62899W        W34482  35.398  31.983   1.338
62900W        W34483   0.008  16.781   4.704
62901W        W34484  28.873  39.446   2.274
62902W        W34485  22.006   6.761   4.171
62903W        W34486   7.329  34.584  14.272
62904W        W34487  27.463  22.599   3.831
62905W        W34488  40.903   0.879  13.520
62906W        W34489  14.791  39.484   0.360
62907W        W34490  16.201  32.879  14.317
62908W        W34491  36.440  36.786  10.792
62909W        W34492  30.098   2.069  13.105
62910W        W34493  38.866  11.319  13.196
62911W        W34494  30.063  17.632   1.982
62912W        W34495  43.697  38.755  12.012
62913W        W34496  21.410  36.355   1.877
62914W        W34497  16.656   7.299  14.493
62915W        W34498   7.797   4.525   3.054
62916W        W34499   1.384  41.016   3.648
62917W        W34500  33.599   8.648   1.007
62918W        W34501  34.829  27.018  10.782
62919W        W34502  15.446   9.922   3.753
62920W        W34503   2.878   7.235   2.457
62921W        W34504  41.013  32.511  11.959
62922W        W34505   6.921  32.503  11.609
62923W        W34506  21.723  31.052  10.711
62924W        W34507  35.509  22.519  11.122
62925W        W34508  16.817  26.747   3.255
62926W        W34509  12.148   8.053   0.961
62927W        W34510  32.828  15.251   4.588
62928W        W34511  32.968  42.774   3.200
62929W        W34512  13.623  16.180  12.874
62930W        W34513  21.558  24.546  14.077
62931W        W34514  35.789  10.676  11.441
62932W        W34515  40.413  16.193  10.598
62933W        W34516  21.422  27.142  14.449
62934W        W34517   1.949  28.120   3.453
62935W        W34518  35.845   5.001   3.632
62936W        W34519   4.811  17.589  13.556
62937W        W34520  22.144  35.879  14.317
62938W        W34521   0.798  28.158   0.845
62939W        W34522  31.026  21.019  14.073
62940W        W34523  27.531   5.348  14.791
62941W        W34524  29.407   8.479   2.195
62942W        W34525  38.825  34.318   1.362
62943W        W34526  19.511  30.133   4.284
62944W        W34527  26.318  19.956   4.266
62945W        W34528  26.153  10.823  14.027
62946W        W34529   8.797   6.746  11.469
62947W        W34530  28.612  29.741   1.319
62948W        W34531   7.260  37.950   0.233
62949W        W34532  13.082  20.100  14.360
62950W        W34533   1.397  23.687  13.056
62951W        W34534  35.859  13.816   4.687
62952W        W34535  43.932  37.902  13.146
62953W        W34536   1.286   6.835  13.874
62954W        W34537  37.990  42.069   0.179
62955W        W34538  13.200  32.351  13.477
62956W        W34539  41.825  13.618   0.762
62957W        W34540  17.672  20.743  11.143
62958W        W34541  24.639  16.656   1.923
62959W        W34542   2.544  11.652  14.394
62960W        W34543  38.411  23.922   1.394
62961W        W34544  42.893  31.282  14.437
62962W        W34545   5.732  13.058  13.463
62963W        W34546   4.124  14.706   0.000
62964W        W34547   7.207  34.832   4.231
62965W        W34548  26.297  34.313  13.189
62966W        W34549  26.999   6.821   4.550
62967W        W34550  44.596  23.715  14.332
62968W        W34551  35.123  16.069   0.350
62969W        W34552   8.210   8.737  13.343
62970W        W34553  41.510  36.313  14.358
62971W        W34554  38.911  22.149  13.415
62972W        W34555  20.063  39.322  12.753
62973W        W34556  26.147  11.728  10.686
62974W        W34557  29.558  22.205  14.855
62975W        W34558   7.819  18.931  12.095
62976W        W34559  32.541  34.285  13.363
62977W        W34560  18.063  16.062   3.766
62978W        W34561  43.051  35.576  14.502
62979W        W34562  27.566  15.808  11.570
62980W        W34563  29.009  33.401   4.073
62981W        W34564  41.945  14.151  11.773
62982W        W34565  31.051  19.803   3.687
62983W        W34566  36.892   8.130   4.113
62984W        W34567  34.337   8.762  12.534
62985W        W34568  34.946   3.786   1.352
62986W        W34569  36.106  17.803  13.367
62987W        W34570  21.771  29.925  10.950
62988W        W34571  28.971  13.103   0.987
62989W        W34572  19.574  15.264   2.898
62990W        W34573  20.797  24.161  12.115
62991W        W34574  17.571  18.493   4.050
62992W        W34575  26.296  18.108   4.792
62993W        W34576  24.648  31.007  10.796
62994W        W34577  43.881  34.078  14.693
62995W        W34578  16.167  14.087  13.412
62996W        W34579  43.827  21.952   4.475
62997W        W34580  30.541  20.311  11.556
62998W        W34581  19.321  14.701   4.116
62999W        W34582   1.417  24.270  14.022
63000W        W34583  15.658  24.928   1.929
63001W        W34584   5.747   7.139  13.693
63002W        W34585  25.989  36.491   0.025
63003W        W34586  10.532  35.927   1.395
63004W        W34587  30.895   3.519   4.802
63005W        W34588  19.665  15.678   2.603
63006W        W34589  25.096  34.097   2.841
63007W        W34590  12.678  27.040  13.755
63008W        W34591  19.503  10.204   0.212
63009W        W34592  20.092   5.380   2.284
63010W        W34593  27.597   2.457   0.427
63011W        W34594  20.966   9.798   1.895
63012W        W34595   7.277  42.349   4.429
63013W        W34596  20.483  37.048  14.837
63014W        W34597  34.550  20.392  12.821
63015W        W34598  29.973  37.895   4.012
63016W        W34599  34.440  40.945   1.205
63017W        W34600  20.818  42.289  12.372
63018W        W34601  20.817  31.659  14.487
63019W        W34602  27.460  40.318  10.708
63020W        W34603  13.190   6.964   1.001
63021W        W34604  21.501  10.618   4.154
63022W        W34605  30.647  25.603   4.239
63023W        W34606  42.639  17.917  13.593
63024W        W34607   8.399  17.743   1.669
63025W        W34608  37.537  44.797   2.098
63026W        W34609  15.288  36.446  11.867
63027W        W34610   7.638  10.854  11.541
63028W        W34611  43.247  28.154  10.327
63029W        W34612  13.175  26.464   3.644
63030W        W34613  25.561  24.504   1.269
63031W        W34614  26.478   4.739   0.425
63032W        W34615  11.689  35.388  10.762
63033W        W34616   9.370   6.030   4.509
63034W        W34617  25.546  21.371   1.777
63035W        W34618  24.938  44.391   4.526
63036W        W34619  14.786   1.280   3.303
63037W        W34620  37.298  29.093  13.073
63038W        W34621   3.056  23.695   4.587
63039W        W34622  30.169  15.643  10.481
63040W        W34623  36.405  18.631  10.731
63041W        W34624  25.698  30.694  14.379
63042W        W34625  34.494  14.155   3.387
63043W        W34626  42.704   5.925  12.502
63044W        W34627  19.159  42.438   3.611
63045W        W34628  25.022  10.369   4.248
63046W        W34629  19.653  26.644   0.555
63047W        W34630  44.045  22.118  14.795
63048W        W34631  20.612  16.780   3.338
63049W        W34632  25.996  44.789   3.832
63050W        W34633   9.196  43.854   4.796
63051W        W34634  25.217  19.093   3.644
63052W        W34635  40.073  13.619   1.266
63053W        W34636  28.756  10.165   2.929
63054W        W34637  10.082   4.727  13.963
63055W        W34638  34.530  33.140  11.379
63056W        W34639  11.761  32.502   3.807
63057W        W34640  34.664  30.522   4.647
63058W        W34641   3.257  11.668   0.872
63059W        W34642   8.423  36.581  14.418
63060W        W34643  42.511  40.571   2.365
63061W        W34644   6.740   7.179   0.217
63062W        W34645  41.030  29.198  13.909
63063W        W34646  40.074   4.686   2.872
63064W        W34647  38.106  42.724  12.542
63065W        W34648  21.103  17.772   3.095
63066W        W34649  42.400  11.299   4.076
63067W        W34650  23.446  28.796   2.318
63068W        W34651  35.924  27.111  13.390
63069W        W34652   3.419  25.177  13.808
63070W        W34653   2.956  20.799  10.699
63071W        W34654  14.919  31.899  14.077
63072W        W34655  13.799   9.376  11.068
63073W        W34656   1.886  25.871  12.251
63074W        W34657  32.956  37.847  11.399
63075W        W34658  11.800  11.724  10.733
63076W        W34659  22.674  32.094  11.551
63077W        W34660  12.217  14.276   3.091
63078W        W34661  36.301   2.421  11.540
63079W        W34662  37.665  26.287  14.451
63080W        W34663   1.805  43.721   4.548
63081W        W34664   7.218  28.173   3.516
63082W        W34665  32.108  10.310   1.922
63083W        W34666  11.342   1.734  11.045
63084W        W34667  34.646  40.410  14.490
63085W        W34668  12.723   9.859   1.951
63086W        W34669  26.621   8.853  12.631
63087W        W34670  28.986   0.044  14.515
63088W        W34671  10.922  17.894   0.795
63089W        W34672  19.535  29.405   1.832
63090W        W34673  18.548  23.491  11.584
63091W        W34674   3.440  11.046  13.390
63092W        W34675  14.260  10.807  13.783
63093W        W34676  18.848   8.436   2.205
63094W        W34677  30.222  30.500  12.994
63095W        W34678  24.203  21.987  13.966
63096W        W34679   0.370   9.108  12.993
63097W        W34680  32.025  32.354   1.411
63098W        W34681  21.704  28.680  12.397
63099W        W34682  33.625   0.946  14.683
63100W        W34683  24.084   7.771  14.347
63101W        W34684   5.211   6.206  14.093
63102W        W34685   5.737  42.823  13.353
63103W        W34686  27.029  33.577   0.989
63104W        W34687  25.806  32.629   1.789
63105W        W34688  30.093  19.571   2.841
63106W        W34689  24.235  38.155  10.678
63107W        W34690  42.861   2.393  13.477
63108W        W34691   1.976  22.264   1.460
63109W        W34692   3.657   9.398   4.366
63110W        W34693  31.535  28.450   0.642
63111W        W34694  16.123  14.313   2.373
63112W        W34695   2.039  41.024  13.927
63113W        W34696   5.943   0.553  11.073
63114W        W34697   3.964   0.732   3.599
63115W        W34698  32.604  34.297   0.869
63116W        W34699  26.361  26.847  13.376
63117W        W34700   9.903  10.411   2.655
63118W        W34701  36.290   5.258   3.574
63119W        W34702  33.985  22.794  12.375
63120W        W34703  26.825   9.094   4.671
63121W        W34704  44.134  27.343  12.980
63122W        W34705  29.173  24.524   3.692
63123W        W34706  14.604  36.862  12.034
63124W        W34707   4.978  13.575  11.157
63125W        W34708  43.039  11.854  14.437
63126W        W34709   2.434  43.300   0.636
63127W        W34710  10.835  11.318  11.598
63128W        W34711   0.759  24.743  12.051
63129W        W34712   5.219  20.998   4.683
63130W        W34713  39.630  24.717   2.909
63131W        W34714  38.581  43.138  12.351
63132W        W34715  34.136   6.936   0.584
63133W        W34716  38.174   9.873  13.387
63134W        W34717   5.685  25.972  13.993
63135W        W34718  21.012  32.340   4.434
63136W        W34719  34.977  35.120  11.194
63137W        W34720  26.517  39.364   1.378
63138W        W34721  24.434  36.874   2.721
63139W        W34722  14.248  40.184   5.139
63140W        W34723  11.797   4.017   4.307
63141W        W34724  22.636  44.292  12.227
63142W        W34725  23.467  36.394   0.888
63143W        W34726  20.180  22.239  13.706
63144W        W34727  29.486  41.775  12.140
63145W        W34728  22.738  27.286  12.400
63146W        W34729   4.774  39.065   3.844
63147W        W34730   7.127  16.768  13.820
63148W        W34731  37.041  11.111  10.395
63149W        W34732  34.645  30.639   2.509
63150W        W34733  24.661   0.286  13.956
63151W        W34734  36.691  12.808   2.342
63152W        W34735  39.327  16.197  12.415
63153W        W34736  41.928   8.979   1.204
63154W        W34737  26.655   3.038   0.011
63155W        W34738   5.507   5.205  14.389
63156W        W34739  36.815  28.940  13.106
63157W        W34740  19.542  18.875  14.886
63158W        W34741  24.911   7.336  13.301
63159W        W34742   0.520  31.416   4.289
63160W        W34743  21.821  16.248  10.231
63161W        W34744  27.390  28.937   1.512
63162W        W34745   8.800  17.502  11.063
63163W        W34746  18.177   7.321  13.826
63164W        W34747  44.051  43.334  14.872
63165W        W34748  31.453  32.653  13.823
63166W        W34749  41.373  30.994  13.177
63167W        W34750   3.455  39.519   3.627
63168W        W34751  31.287  31.704   4.132
63169W        W34752  34.117  43.376  14.888
63170W        W34753  36.679  33.585   3.154
63171W        W34754  20.336  14.202  14.320
63172W        W34755  11.871  10.178  13.302
63173W        W34756  38.056  35.479  10.393
63174W        W34757  27.061  23.643   1.708
63175W        W34758  41.835  37.438  10.616
63176W        W34759   9.399  43.397  12.588
63177W        W34760  35.348  37.268  11.652
63178W        W34761  15.216  38.389  14.059
63179W        W34762  22.983  18.832   0.860
63180W        W34763  40.290  14.183  13.825
63181W        W34764   5.500  41.254  10.670
63182W        W34765  36.433  31.092   1.500
63183W        W34766  43.979  29.563   1.805
63184W        W34767  36.029  25.708  13.955
63185W        W34768  34.478   0.306   1.378
63186W        W34769  32.557  15.340   1.823
63187W        W34770   4.284   5.383   3.149
63188W        W34771  43.796  12.699  13.578
63189W        W34772  38.410  16.875   2.253
63190W        W34773  43.241  44.936   0.206
63191W        W34774  21.493  31.823   0.808
63192W        W34775  43.725  11.871  11.853
63193W        W34776   0.270  13.849  12.961
63194W        W34777   0.916  37.274   2.864
63195W        W34778  27.743  11.562  11.992
63196W        W34779  16.084  40.993  12.502
63197W        W34780   4.827  31.417  12.750
63198W        W34781  12.682   6.371  12.656
63199W        W34782  17.268  32.481  12.005
63200W        W34783  21.177  25.594  13.006
63201W        W34784   0.453  19.361  12.050
63202W        W34785  24.942  34.240  12.587
63203W        W34786  17.126  28.625   4.526
63204W        W34787  36.162  32.871   0.302
63205W        W34788  40.691  19.459  10.752
63206W        W34789  34.615   8.666   4.647
63207W        W34790  38.971  35.932   2.809
63208W        W34791  40.960  27.448   0.794
63209W        W34792  13.122  23.761  14.459
63210W        W34793  15.105  20.701  11.716
63211W        W34794  14.497  23.083   1.927
63212W        W34795  27.787  42.380  12.501
63213W        W34796  12.187   0.433  11.869
63214W        W34797  11.206  15.801   1.311
63215W        W34798   1.709  12.105   3.149
63216W        W34799  17.127   5.975   3.425
63217W        W34800   0.795  24.483   1.032
63218W        W34801  11.666   7.803   4.866
63219W        W34802   1.880   9.939  13.111
63220W        W34803   5.261   3.701   0.796
63221W        W34804  29.975  20.151   4.974
63222W        W34805   0.826  19.496  10.695
63223W        W34806  28.066  10.190  10.540
63224W        W34807  32.435  38.992  14.831
63225W        W34808  10.263  33.173  14.715
63226W        W34809  11.296  22.223   0.438
63227W        W34810   6.894   3.320   1.231
63228W        W34811  43.767   3.228  10.885
63229W        W34812  34.048  35.836  14.919
63230W        W34813  42.507  29.277  13.364
63231W        W34814  39.092  42.294  14.860
63232W        W34815  32.042  34.278   2.889
63233W        W34816  10.643  14.188  11.710
63234W        W34817  13.279   7.524  12.016
63235W        W34818   7.163  12.636  14.333
63236W        W34819  29.870  24.150  11.613
63237W        W34820  17.711  25.424  10.625
63238W        W34821  15.392  14.244  13.025
63239W        W34822  21.043  35.494   3.605
63240W        W34823   2.455  17.330  11.057
63241W        W34824  31.955  20.246  14.831
63242W        W34825  11.419  41.961  11.586
63243W        W34826  33.922  23.587   4.301
63244W        W34827  14.850   8.755   2.780
63245W        W34828  27.625  17.986  12.449
63246W        W34829   6.613  26.979  12.458
63247W        W34830  33.664  17.615   2.692
63248W        W34831  15.116  43.513  13.698
63249W        W34832  34.536   4.812  13.483
63250W        W34833   7.732  14.807  12.043
63251W        W34834  40.330  21.136   1.759
63252W        W34835  38.917  13.566   0.223
63253W        W34836  43.527   1.780  11.994
63254W        W34837   8.983  37.347   5.188
63255W        W34838  14.196  25.944  11.997
63256W        W34839   3.902  40.079  14.249
63257W        W34840  36.981   4.726   0.306
63258W        W34841  18.826   6.706  14.433
63259W        W34842   1.758   0.243  11.559
63260W        W34843   6.181  39.021   3.955
63261W        W34844  26.631  19.883   2.658
63262W        W34845  34.611  26.085   0.170
63263W        W34846  17.373  11.830   2.046
63264W        W34847  10.748  38.317  10.929
63265W        W34848  36.990   6.428  13.785
63266W        W34849   2.316   9.410  14.698
63267W        W34850  44.677  30.226   2.265
63268W        W34851  12.854  32.545   3.810
63269W        W34852   8.789   4.820  10.906
63270W        W34853  16.666  10.073   0.206
63271W        W34854  31.087   2.808  14.095
63272W        W34855  39.388  26.999  14.302
63273W        W34856  43.706  18.131   1.875
63274W        W34857  10.122  30.056  13.890
63275W        W34858   8.374   0.252  11.174
63276W        W34859  21.083  32.096   0.403
63277W        W34860  20.492  27.698   4.672
63278W        W34861  36.417  10.739  12.022
63279W        W34862  35.853  27.910   1.560
63280W        W34863  43.931   8.582   0.744
63281W        W34864  14.584   1.802  11.056
63282W        W34865   0.782  18.584  10.528
63283W        W34866  27.827  35.694  11.490
63284W        W34867  35.859  31.528   1.027
63285W        W34868  21.640  27.642   9.624
63286W        W34869  21.184   9.558   3.153
63287W        W34870   0.508  21.198  12.953
63288W        W34871  34.919  41.770   2.280
63289W        W34872  11.098  16.089  10.970
63290W        W34873  28.931  44.411  13.181
63291W        W34874  32.985   1.675   2.358
63292W        W34875  26.050  22.057   4.886
63293W        W34876  20.458  35.156  11.943
63294W        W34877  12.895  15.626  11.898
63295W        W34878  30.160  44.060   4.510
63296W        W34879   4.634  24.060  10.376
63297W        W34880  13.374  10.136   4.254
63298W        W34881  11.154  44.286   2.873
63299W        W34882   6.962   7.856   2.376
63300W        W34883   7.872   1.700   2.957
63301W        W34884  13.676  43.853  13.491
63302W        W34885  42.112  22.414   4.461
63303W        W34886  17.066  37.276   1.917
63304W        W34887  22.031  34.678   1.434
63305W        W34888  16.247  17.638   2.411
63306W        W34889  15.902  19.518   3.626
63307W        W34890   6.833  19.537   2.807
63308W        W34891  23.376  32.131   0.788
63309W        W34892  15.872   1.921   3.702
63310W        W34893  31.207   0.206   4.709
63311W        W34894  38.955  16.771  14.411
63312W        W34895  41.581  25.159   3.289
63313W        W34896   9.580  17.148   3.501
63314W        W34897   1.362  38.499  11.899
63315W        W34898  40.402  28.157   0.380
63316W        W34899  21.020  40.455  13.932
63317W        W34900  18.492  44.151  11.934
63318W        W34901   3.934  32.066   1.275
63319W        W34902  23.481   1.029   3.209
63320W        W34903   2.023  20.107  14.332
63321W        W34904   7.834  44.249  14.101
63322W        W34905   9.185  15.912   3.256
63323W        W34906   2.760  24.715   0.626
63324W        W34907  20.158   8.167   3.315
63325W        W34908  30.511   5.491  14.023
63326W        W34909  11.021   7.942   2.726
63327W        W34910  34.184  36.010  14.454
63328W        W34911  17.941  43.586   4.005
63329W        W34912  15.940  44.234   2.375
63330W        W34913  22.732  20.996   5.069
63331W        W34914  43.117  29.453   0.296
63332W        W34915  18.224  31.236   3.186
63333W        W34916  11.118  11.860  12.757
63334W        W34917  20.201  26.738   0.899
63335W        W34918  33.724   9.805  13.958
63336W        W34919  22.252  15.776   0.733
63337W        W34920   9.687  11.224   2.935
63338W        W34921  35.262   3.883   3.645
63339W        W34922  31.521   6.787   2.711
63340W        W34923  18.993  19.108   2.719
63341W        W34924  37.583  41.539   5.047
63342W        W34925  25.806  14.622   2.609
63343W        W34926   2.030   3.703  13.549
63344W        W34927  39.928  15.414  14.067
63345W        W34928  44.334  16.169   2.001
63346W        W34929  16.145  14.973  12.867
63347W        W34930  24.447  25.998  12.010
63348W        W34931  42.488  11.336  14.884
63349W        W34932  21.222  26.926  13.465
63350W        W34933  17.802   9.620  13.938
63351W        W34934  41.439   3.577   4.544
63352W        W34935  14.892   2.478  13.856
63353W        W34936  31.679   8.621  13.843
63354W        W34937  29.593  24.653  12.356
63355W        W34938  41.814   9.837  13.009
63356W        W34939  21.255  22.685  12.900
63357W        W34940  18.961  13.789   1.353
63358W        W34941   1.341  31.686   4.538
63359W        W34942   2.474  24.595   3.447
63360W        W34943  19.037   4.443   3.301
63361W        W34944  36.978   5.317   4.178
63362W        W34945  21.066   0.268   2.384
63363W        W34946  33.854  10.676  11.015
63364W        W34947  10.971  14.679   3.675
63365W        W34948   1.157  39.304  10.576
63366W        W34949  43.293  12.635   1.650
63367W        W34950  22.295  29.086  14.923
63368W        W34951   0.301  27.694   4.863
63369W        W34952  13.921  25.071  11.786
63370W        W34953  24.442  10.976   2.246
63371W        W34954  31.501  15.022  11.273
63372W        W34955  37.983   8.966   1.001
63373W        W34956  12.426   8.397   0.168
63374W        W34957  42.740   3.834   0.991
63375W        W34958  31.091  22.301   0.905
63376W        W34959   4.441   9.136  12.028
63377W        W34960  19.616  22.409  11.203
63378W        W34961  14.253  18.650   0.381
63379W        W34962  30.140   4.014  11.952
63380W        W34963  12.157  18.937  14.907
63381W        W34964   7.904  27.010  13.525
63382W        W34965  28.250  19.599   0.976
63383W        W34966  11.406   9.539   3.738
63384W        W34967   7.682  13.273  14.857
63385W        W34968  10.681   6.459   2.955
63386W        W34969  16.537  15.746  11.468
63387W        W34970  21.461  41.358  14.430
63388W        W34971  43.295   8.337   4.086
63389W        W34972  39.910  31.604  13.995
63390W        W34973   2.527  39.946   2.632
63391W        W34974  38.526  36.542   4.779
63392W        W34975  21.910  10.827  13.388
63393W        W34976  17.143   0.414   3.996
63394W        W34977   6.232  30.194  12.869
63395W        W34978  39.594  14.879  12.894
63396W        W34979   6.189   0.286  13.800
63397W        W34980  37.782  22.165  12.525
63398W        W34981  21.523  19.321  11.006
63399W        W34982  28.808  11.083  11.037
63400W        W34983   2.861  32.209   0.138
63401W        W34984  10.153  23.365  11.549
63402W        W34985  43.419  31.253  13.826
63403W        W34986   9.765  31.734   4.105
63404W        W34987  29.041  23.046  14.280
63405W        W34988  14.719  25.614  13.869
63406W        W34989  42.249  21.182  10.669
63407W        W34990  11.094   1.934   1.466
63408W        W34991  28.053  21.055  13.389
63409W        W34992  28.475   5.680   0.789
63410W        W34993  26.029  35.019  11.599
63411W        W34994   8.162  18.168  13.456
63412W        W34995   8.062  26.518  12.450
63413W        W34996  14.612  40.996  14.251
63414W        W34997  20.143  12.272  10.739
63415W        W34998  30.458  16.838  14.498
63416W        W34999  27.962   3.381  14.465
63417W        W35000  20.199  40.102   3.050
63418W        W35001  20.126   0.295   4.146
63419W        W35002  37.554  43.388  11.977
63420W        W35003  35.785  33.659  11.274
63421W        W35004  43.987   3.708   4.666
63422W        W35005  35.889  28.824  11.023
63423W        W35006  11.358   8.858  10.504
63424W        W35007   0.607   4.883   5.062
63425W        W35008   5.148  30.932  14.956
63426W        W35009  38.580   4.217  13.086
63427W        W35010  21.783   0.486   4.215
63428W        W35011  11.294  19.119   2.430
63429W        W35012  19.253  40.921   4.354
63430W        W35013  16.183  27.375  12.645
63431W        W35014  26.856  12.416   5.488
63432W        W35015  44.829  43.158   5.119
63433W        W35016   8.130  27.930  14.758
63434W        W35017   1.738  13.844  11.625
63435W        W35018  22.071  44.566   3.390
63436W        W35019  31.112  14.590   3.837
63437W        W35020  39.324  29.593  14.792
63438W        W35021   9.080  35.907  14.086
63439W        W35022   2.314  27.583   0.396
63440W        W35023   4.627  34.775  13.362
63441W        W35024  38.319   3.795  12.940
63442W        W35025  12.218   3.400   3.729
63443W        W35026   7.406  13.149   1.247
63444W        W35027  43.324  29.821  12.920
63445W        W35028  13.258  11.172  11.879
63446W        W35029  10.248  12.605  11.231
63447W        W35030  12.079  43.554   0.095
63448W        W35031   3.996  15.850   1.190
63449W        W35032  10.742  32.174  12.131
63450W        W35033  37.134  34.513  12.409
63451W        W35034   3.328  12.749  13.299
63452W        W35035  30.187  24.035   1.960
63453W        W35036  19.390  35.570  14.942
63454W        W35037  41.249  30.995  12.679
63455W        W35038   5.173  43.945  14.096
63456W        W35039  30.166   1.404   4.668
63457W        W35040  32.419  14.205   4.190
63458W        W35041  42.963  30.040  11.391
63459W        W35042  38.585  34.236   3.704
63460W        W35043  14.603   1.029  13.016
63461W        W35044  16.623   3.166   0.801
63462W        W35045  33.093   0.237   2.224
63463W        W35046  29.448   2.943  13.855
63464W        W35047   4.622  17.305   2.660
63465W        W35048  32.106  35.672  11.236
63466W        W35049  10.164  11.350   1.259
63467W        W35050  27.362  44.329  10.987
63468W        W35051   2.450  17.593   0.383
63469W        W35052  25.406  31.169   1.048
63470W        W35053  42.617  23.030  11.659
63471W        W35054  24.985  28.029  13.823
63472W        W35055  39.405  28.720   0.932
63473W        W35056  25.197  35.062  11.479
63474W        W35057  22.968  19.559  12.902
63475W        W35058  31.907  22.881  12.421
63476W        W35059  31.629   0.494   1.398
63477W        W35060  20.660  12.299   3.058
63478W        W35061  24.646   2.512  12.818
63479W        W35062  16.695  29.596   4.424
63480W        W35063  37.063  25.249   1.852
63481W        W35064  26.967  40.960   3.282
63482W        W35065  28.587  35.367  10.424
63483W        W35066  39.648  31.904  11.184
63484W        W35067  16.694  14.603   4.890
63485W        W35068  11.634  23.919  13.115
63486W        W35069  14.322  34.291  13.329
63487W        W35070  21.264  29.567  14.743
63488W        W35071   7.516  31.703   0.610
63489W        W35072  38.558  24.407   1.580
63490W        W35073  21.985  23.477  13.863
63491W        W35074  32.197  29.030  13.366
63492W        W35075  43.560  25.133  12.908
63493W        W35076  14.942  15.689  12.936
63494W        W35077  19.225   7.449   0.341
63495W        W35078  20.175   8.215   3.829
63496W        W35079  43.778  15.549  14.391
63497W        W35080  15.124  20.201   0.306
63498W        W35081   3.924  22.906   2.634
63499W        W35082  37.321  41.439  13.769
63500W        W35083  19.228  33.720  14.826
63501W        W35084  35.208  38.545  13.499
63502W        W35085  16.963  35.339  12.358
63503W        W35086   4.438  11.230  14.314
63504W        W35087   5.225   3.244  11.966
63505W        W35088  38.861  43.012   1.276
63506W        W35089  39.889  43.544  13.013
63507W        W35090   8.203  18.120   4.632
63508W        W35091  35.049  16.329   0.854
63509W        W35092  43.503  40.050  10.574
63510W        W35093  17.811  30.610   4.515
63511W        W35094   2.522   7.905   1.745
63512W        W35095  16.337  28.140  11.417
63513W        W35096   5.439   9.408  10.736
63514W        W35097  19.603  35.655   4.674
63515W        W35098  32.615  27.910   1.747
63516W        W35099  36.054   5.667  10.768
63517W        W35100  43.183  15.587   2.485
63518W        W35101  38.860  43.779   2.723
63519W        W35102  43.934  16.582   4.465
63520W        W35103  18.211  23.485  14.790
63521W        W35104  21.765  26.546  12.390
63522W        W35105  15.843   6.912  12.991
63523W        W35106  22.709   7.577  11.031
63524W        W35107  28.021  42.773   1.276
63525W        W35108  17.312  12.755   3.819
63526W        W35109  44.143  16.490   2.792
63527W        W35110  26.167   8.983   0.298
63528W        W35111  19.268  35.115   4.203
63529W        W35112  20.675   8.266   0.033
63530W        W35113   5.620   9.417   0.818
63531W        W35114  16.792   5.910  12.479
63532W        W35115   4.838   1.222  14.990
63533W        W35116  19.494   8.640  10.549
63534W        W35117   4.328   8.974   1.191
63535W        W35118  35.959  44.895   1.091
63536W        W35119  26.118  44.356  13.026
63537W        W35120  28.027  24.614   4.573
63538W        W35121  41.242  42.970  14.802
63539W        W35122  25.600  34.586   3.575
63540W        W35123  37.491   4.605  12.012
63541W        W35124  11.154   1.117  13.340
63542W        W35125   9.829  19.578  12.868
63543W        W35126  21.509  10.163  14.392
63544W        W35127  24.176  12.163   2.964
63545W        W35128  39.969  29.615   3.850
63546W        W35129  39.007  40.946  11.900
63547W        W35130   2.430   6.250  13.365
63548W        W35131  15.634  22.748   0.772
63549W        W35132  15.884  24.025   1.248
63550W        W35133   9.838   8.812   1.397
63551W        W35134   6.361  35.679   3.107
63552W        W35135  10.759  12.272  12.064
63553W        W35136   8.664  39.546   3.328
63554W        W35137  31.602  14.572   1.649
63555W        W35138  32.507  11.640  10.262
63556W        W35139  17.222  28.196  14.903
63557W        W35140  30.996  36.367   1.734
63558W        W35141   6.445  25.190  13.336
63559W        W35142  25.588  15.644   3.334
63560W        W35143  32.523  25.089   2.240
63561W        W35144   9.157   2.743   2.192
63562W        W35145   9.224   7.957   2.672
63563W        W35146  13.318  35.052  13.552
63564W        W35147  13.684  12.290   2.502
63565W        W35148   2.431  38.839  12.457
63566W        W35149  32.740   1.297   0.475
63567W        W35150  40.810  15.580  10.142
63568W        W35151  41.796  17.570  11.454
63569W        W35152  26.956   0.089   1.232
63570W        W35153   9.746   7.177   2.810
63571W        W35154  12.076  22.520   1.280
63572W        W35155   4.254  15.968   0.343
63573W        W35156  23.094  41.419   3.365
63574W        W35157  39.001  29.020   2.267
63575W        W35158   6.175   9.410  11.144
63576W        W35159  27.377  39.046   4.407
63577W        W35160   4.315   8.398  14.971
63578W        W35161  24.278  25.976   0.251
63579W        W35162  39.540  24.228   3.043
63580W        W35163   2.032  38.429   3.606
63581W        W35164  43.928  38.364  12.925
63582W        W35165  23.478   4.139  11.199
63583W        W35166   4.806  21.587   3.079
63584W        W35167  39.566  32.969  12.420
63585W        W35168   1.386  38.932   3.124
63586W        W35169   1.949  34.860   2.184
63587W        W35170  23.697  39.755  12.984
63588W        W35171  11.682  10.798   4.659
63589W        W35172   1.249   8.857  13.095
63590W        W35173  13.180  11.627  14.505
63591W        W35174   9.239  41.499  10.728
63592W        W35175  37.503  44.226   3.114
63593W        W35176   4.991  22.030   3.271
63594W        W35177  40.407  33.625   4.696
63595W        W35178   7.276  20.910   4.199
63596W        W35179   7.872   4.636  11.227
63597W        W35180   9.718  38.274   2.118
63598W        W35181  31.615  19.931  14.550
63599W        W35182  17.471  44.342   0.820
63600W        W35183  12.273  13.358  10.608
63601W        W35184  26.637  29.552   4.245
63602W        W35185  28.987  18.998  11.507
63603W        W35186  41.810  10.482   2.800
63604W        W35187   5.921  35.957   3.094
63605W        W35188  43.925  20.805  14.266
63606W        W35189   0.599   7.274  14.834
63607W        W35190  35.351  26.715   1.435
63608W        W35191  15.931  26.475  14.276
63609W        W35192  35.398  27.220   1.369
63610W        W35193  37.534  16.290   2.369
63611W        W35194  26.958   4.637  10.309
63612W        W35195  39.558  28.889   0.391
63613W        W35196  24.038  43.371  14.983
63614W        W35197  43.905  38.427   1.199
63615W        W35198  17.340   8.167   0.719
63616W        W35199  12.610  10.945  12.142
63617W        W35200   7.091  14.186   3.179
63618W        W35201  12.310  17.824   3.594
63619W        W35202  17.635  37.605   1.824
63620W        W35203  17.226  32.333   1.156
63621W        W35204   3.792  38.543  10.767
63622W        W35205   3.347  39.217  13.525
63623W        W35206  16.240  32.623   0.760
63624W        W35207   6.786   6.970  12.838
63625W        W35208  36.983  39.855   0.260
63626W        W35209  30.961  13.817   4.724
63627W        W35210  15.099   4.796  11.185
63628W        W35211  24.161  13.098  14.763
63629W        W35212  44.485  19.744   4.231
63630W        W35213  31.842   7.203   4.432
63631W        W35214  13.354   0.514   3.242
63632W        W35215  14.267  15.614   2.786
63633W        W35216  35.061  40.085  13.407
63634W        W35217  22.049   5.852  11.012
63635W        W35218   5.960  20.075   2.458
63636W        W35219  30.534  29.265   1.925
63637W        W35220   2.834  21.802   2.917
63638W        W35221  24.193  30.688  11.930
63639W        W35222  18.022  37.525   1.468
63640W        W35223   1.507  20.290  11.092
63641W        W35224  41.346   3.271   2.684
63642W        W35225  21.633  14.271  14.238
63643W        W35226  27.256  14.900   3.222
63644W        W35227   4.363  34.922  12.412
63645W        W35228  13.823   0.218   4.097
63646W        W35229  31.859  16.619  14.485
63647W        W35230  28.597   3.709   0.033
63648W        W35231  22.090  22.701   0.355
63649W        W35232   4.532  18.822  14.287
63650W        W35233  19.545   8.710   1.487
63651W        W35234  10.300   5.935  14.947
63652W        W35235  37.995   4.930   1.201
63653W        W35236  21.837  42.556  14.821
63654W        W35237  28.283  10.789   1.923
63655W        W35238  44.304  39.219  12.893
63656W        W35239  37.957  15.053  13.334
63657W        W35240  39.114  44.782   2.718
63658W        W35241   8.934  10.664  11.979
63659W        W35242  24.176  31.777   2.633
63660W        W35243  30.923  21.479   3.302
63661W        W35244  39.756  12.383   1.357
63662W        W35245   3.996  41.478   0.281
63663W        W35246  39.100  23.959  11.027
63664W        W35247  43.928   6.426   2.202
63665W        W35248  27.872  13.089  10.324
63666W        W35249   4.166  22.375   3.316
63667W        W35250   1.308  34.089  12.868
63668W        W35251  26.792   3.912  14.401
63669W        W35252   7.192   2.392   3.327
63670W        W35253  42.339   6.218  11.136
63671W        W35254  38.081  38.328   3.379
63672W        W35255  28.642  19.028   4.941
63673W        W35256   9.960   0.536   3.160
63674W        W35257  23.395  15.844   4.112
63675W        W35258  35.110   5.437   2.769
63676W        W35259  26.421  28.366  14.362
63677W        W35260  14.909   7.606  12.465
63678W        W35261  12.185  17.294   0.764
63679W        W35262  26.755  10.306  11.111
63680W        W35263  36.972  23.794  10.510
63681W        W35264  26.376   0.056  14.023
63682W        W35265   9.450  20.076   1.302
63683W        W35266   1.467  32.374   1.930
63684W        W35267  18.503  13.723  11.182
63685W        W35268  34.505  43.688  12.095
63686W        W35269  17.082  26.214   4.620
63687W        W35270  21.935  19.115  11.203
63688W        W35271  16.270  35.969  13.958
63689W        W35272  38.264   5.411   9.684
63690W        W35273  14.847  41.378  13.413
63691W        W35274   1.782  16.186   2.261
63692W        W35275  33.596   2.868   0.045
63693W        W35276  41.559  31.916  12.522
63694W        W35277   3.855   1.565   2.369
63695W        W35278  32.525  20.148   5.458
63696W        W35279   7.877  30.121   9.724
63697W        W35280  29.111  17.606   4.672
63698W        W35281  42.535  40.279   3.271
63699W        W35282  13.147  41.571  11.839
63700W        W35283   2.021  39.599  12.462
63701W        W35284  22.308   9.391   2.634
63702W        W35285  37.987   0.741   4.749
63703W        W35286  20.750  22.121  13.469
63704W        W35287  26.569  24.585  13.996
63705W        W35288  44.416   0.549   2.255
63706W        W35289  28.694  34.509  10.606
63707W        W35290  35.006  38.513   3.773
63708W        W35291  31.693  32.009  12.522
63709W        W35292   2.359   8.329   3.687
63710W        W35293  20.818  27.381  13.835
63711W        W35294  29.421  19.707  13.799
63712W        W35295  29.100  23.561   1.287
63713W        W35296   4.124  36.624   4.615
63714W        W35297  34.843  18.484  12.996
63715W        W35298  25.719  43.455   2.184
63716W        W35299  42.076  16.732  11.300
63717W        W35300  10.347  38.917  11.979
63718W        W35301   1.656  30.577   0.905
63719W        W35302  39.454  27.740  11.679
63720W        W35303   1.883  20.480  14.922
63721W        W35304  35.030  44.128   1.343
63722W        W35305  16.622  10.297  13.788
63723W        W35306   8.007  44.425  13.378
63724W        W35307  27.171   6.407  13.960
63725W        W35308  33.934  37.135  13.289
63726W        W35309  34.273   7.731  12.491
63727W        W35310  24.131   1.089  14.940
63728W        W35311  11.166  20.994  14.856
63729W        W35312  38.941  10.968   4.621
63730W        W35313  42.281  17.680   2.737
63731W        W35314  41.797  31.057  14.880
63732W        W35315  27.606  28.153  10.756
63733W        W35316  26.727   4.832   1.783
63734W        W35317  27.530  24.620  14.928
63735W        W35318  20.249  10.507  11.076
63736W        W35319  43.307  36.781  12.420
63737W        W35320  21.798  17.173  13.579
63738W        W35321  42.550  37.867  12.082
63739W        W35322  29.382  37.409  14.904
63740W        W35323  33.079   1.337  11.202
63741W        W35324  18.915  23.047   5.459
63742W        W35325   8.388  39.384   4.897
63743W        W35326   0.065  24.568   3.213
63744W        W35327  35.814  38.743  14.538
63745W        W35328  37.510  12.418  11.585
63746W        W35329  33.659  34.679  11.326
63747W        W35330  32.934  19.593  13.350
63748W        W35331  40.888  27.077   4.166
63749W        W35332  15.997   0.259   2.645
63750W        W35333  42.872  19.753   0.537
63751W        W35334  14.306  32.128   1.901
63752W        W35335  11.886  10.987   4.206
63753W        W35336  30.937  19.722   5.091
63754W        W35337   0.386  41.469  11.203
63755W        W35338  12.537   7.659   2.817
63756W        W35339  34.920  43.382  12.920
63757W        W35340  20.751   4.324  12.856
63758W        W35341  17.284  10.681   1.420
63759W        W35342  15.320  44.519  13.845
63760W        W35343  28.670  20.406  14.891
63761W        W35344  12.730  20.697  14.025
63762W        W35345   4.096  35.246   3.695
63763W        W35346  11.879  28.091  10.675
63764W        W35347  37.763  11.568   1.864
63765W        W35348  11.373  42.871   0.401
63766W        W35349  34.953  11.175   2.237
63767W        W35350  40.801  27.200  13.769
63768W        W35351  39.679   9.603  11.435
63769W        W35352  11.273  28.720  11.124
63770W        W35353  23.720  22.744   0.379
63771W        W35354  28.051  27.645   2.109
63772W        W35355  15.825  37.441   3.064
63773W        W35356  22.187  35.036  11.049
63774W        W35357  33.326  27.312  14.486
63775W        W35358  10.241  23.780   4.053
63776W        W35359   1.388  31.352  11.461
63777W        W35360  41.889  10.825  14.349
63778W        W35361  26.046  27.042   1.673
63779W        W35362  32.823  18.969  11.353
63780W        W35363  20.228  33.129   2.396
63781W        W35364  27.618  39.449   4.189
63782W        W35365   3.538  31.476  13.371
63783W        W35366  33.494   0.715  12.644
63784W        W35367  41.991  16.187  12.010
63785W        W35368  22.249  20.078  10.519
63786W        W35369  36.445  21.522   4.034
63787W        W35370  38.168  34.031  13.974
63788W        W35371  22.540  39.637   0.348
63789W        W35372  39.559  23.101   3.152
63790W        W35373  31.090  22.004  10.713
63791W        W35374  13.882   9.284   4.891
63792W        W35375   5.048  32.893   2.809
63793W        W35376  10.559  17.226  14.403
63794W        W35377  27.473  20.295  12.603
63795W        W35378  40.383   1.504   4.136
63796W        W35379  41.122   0.325  14.673
63797W        W35380  42.263  36.336   3.958
63798W        W35381   2.316  29.753  14.488
63799W        W35382  32.558  43.858   3.181
63800W        W35383  33.609  25.749  11.303
63801W        W35384  35.111   6.435  11.461
63802W        W35385  44.430  33.427   4.084
63803W        W35386  22.412  17.692   0.748
63804W        W35387  42.148  16.531  12.954
63805W        W35388  43.929  42.702  11.883
63806W        W35389  40.867  41.704   1.476
63807W        W35390   9.926  13.735   0.960
63808W        W35391  15.548  37.311   2.656
63809W        W35392  41.820  39.236  14.970
63810W        W35393  18.994  43.387  14.809
63811W        W35394  20.254  12.503   4.229
63812W        W35395  32.974  17.049  12.458
63813W        W35396   1.947   2.459  14.733
63814W        W35397  18.255  16.178  13.029
63815W        W35398  12.818  39.737  13.777
63816W        W35399  18.352  20.602  12.885
63817W        W35400  32.216  38.581  10.195
63818W        W35401  34.564  17.319  14.306
63819W        W35402  26.017  43.655  14.536
63820W        W35403  37.392   7.386  12.641
63821W        W35404   4.433  41.086   4.098
63822W        W35405  43.904  44.491   1.934
63823W        W35406  11.159  41.004  13.515
63824W        W35407  17.692   7.132  14.989
63825W        W35408  29.825  39.036   0.008
63826W        W35409  30.042   9.982  11.596
63827W        W35410  23.593   5.851  12.549
63828W        W35411   8.918   3.727  12.893
63829W        W35412  33.450  18.644  12.828
63830W        W35413  28.747  29.299   2.925
63831W        W35414  39.360  12.719  13.371
63832W        W35415  27.199  43.052  11.295
63833W        W35416  37.192  10.314  12.325
63834W        W35417  10.124   7.305  14.321
63835W        W35418  17.724  16.793  11.652
63836W        W35419  24.511  18.635  10.684
63837W        W35420  36.054  31.181  14.875
63838W        W35421  12.577  30.094  11.158
63839W        W35422  41.610  17.343   4.930
63840W        W35423  39.081  41.052  14.010
63841W        W35424   1.292  41.441  14.715
63842W        W35425  27.515  32.757   1.298
63843W        W35426   9.629  18.685  12.342
63844W        W35427   9.167  24.139  14.972
63845W        W35428  37.470  28.070   2.403
63846W        W35429  18.449  23.521   1.759
63847W        W35430  14.237  22.798   4.234
63848W        W35431  31.144   3.655   1.724
63849W        W35432  43.974   7.728   0.677
63850W        W35433  37.055   1.560  14.163
63851W        W35434  35.469   6.943  14.000
63852W        W35435  12.625  39.464  12.932
63853W        W35436  37.396  32.704   0.207
63854W        W35437  16.016   4.484   4.268
63855W        W35438  25.174  32.312  13.524
63856W        W35439   5.779  24.674  14.806
63857W        W35440  33.239   6.498  11.732
63858W        W35441  43.989  33.079   2.713
63859W        W35442  35.882   1.432   3.124
63860W        W35443   7.212   1.049  12.147
63861W        W35444   9.366  40.404   4.747
63862W        W35445  15.553   1.505  14.690
63863W        W35446  21.996  43.959   0.246
63864W        W35447  10.376  29.432  14.933
63865W        W35448  22.086  19.856  10.103
63866W        W35449  19.291  30.085  13.390
63867W        W35450   0.856  34.954   1.315
63868W        W35451  28.194  13.055   3.796
63869W        W35452  12.219  11.955   3.304
63870W        W35453  42.770  38.458  11.648
63871W        W35454   5.975  21.270  13.288
63872W        W35455  26.606  18.735  13.328
63873W        W35456  22.693  22.100  14.487
63874W        W35457  36.229  40.355  10.725
63875W        W35458  18.064  19.310  12.650
63876W        W35459  15.528  16.479   1.264
63877W        W35460  17.332  43.469   0.258
63878W        W35461  29.917  33.659  13.299
63879W        W35462  27.839  43.450   0.273
63880W        W35463  32.683  35.877  10.541
63881W        W35464  10.359  17.176   4.679
63882W        W35465  21.247  28.525   0.318
63883W        W35466  20.055  27.778  10.239
63884W        W35467   7.974  24.229   1.652
63885W        W35468  31.476  30.060   2.740
63886W        W35469  14.108   8.747  11.565
63887W        W35470  41.458   9.116   0.391
63888W        W35471  17.476   1.334  13.160
63889W        W35472  30.489  18.181   0.480
63890W        W35473  29.442  15.488   2.920
63891W        W35474  30.150   1.824  10.647
63892W        W35475  22.129   7.920   0.688
63893W        W35476  34.464  14.617  14.982
63894W        W35477   0.318  24.002   4.265
63895W        W35478  19.747  20.213   5.185
63896W        W35479  28.436  25.495   2.261
63897W        W35480  18.677   2.401   4.119
63898W        W35481  17.834  19.405  14.905
63899W        W35482  40.967  31.919  10.134
63900W        W35483  15.616  44.795   1.998
63901W        W35484  33.606  28.567  14.886
63902W        W35485  15.705  16.690  13.877
63903W        W35486   8.198  28.430  14.818
63904W        W35487  27.262  20.305   1.288
63905W        W35488  33.355   8.442  10.680
63906W        W35489  41.372  11.885  10.703
63907W        W35490  38.450   7.451   1.918
63908W        W35491  20.538  25.251  14.813
63909W        W35492   9.623  30.906  14.306
63910W        W35493  17.586   0.915   1.865
63911W        W35494  40.019   4.244  10.819
63912W        W35495   1.483   0.759  14.466
63913W        W35496  25.732  42.877   3.400
63914W        W35497  41.101  41.856  12.631
63915W        W35498   2.992  19.990  14.246
63916W        W35499   9.088   2.852   4.558
63917W        W35500   1.978  10.346   0.888
63918W        W35501  15.080  12.785  10.560
63919W        W35502  12.274  43.163   3.742
63920W        W35503  37.487  10.553  13.592
63921W        W35504  12.086  30.872  13.424
63922W        W35505  31.252   5.251  14.329
63923W        W35506  14.286  40.785  10.612
63924W        W35507   3.188  38.590   2.929
63925W        W35508  30.930  22.772   1.830
63926W        W35509  27.973  37.901   0.775
63927W        W35510   4.507  15.812   3.299
63928W        W35511  25.919  16.393   3.985
63929W        W35512  34.572  23.669  11.893
63930W        W35513  18.720   6.466   1.741
63931W        W35514  34.180   2.421   1.528
63932W        W35515  24.456  27.786   4.195
63933W        W35516  32.653  44.320  11.774
63934W        W35517  40.981  30.050   1.944
63935W        W35518  44.780  36.921  12.594
63936W        W35519  25.478  39.585   2.383
63937W        W35520  33.978  35.287   2.957
63938W        W35521  19.199   4.232  10.979
63939W        W35522   6.237  17.444  13.378
63940W        W35523   9.114   3.706   5.286
63941W        W35524  31.455  43.855   4.075
63942W        W35525  21.761  12.926  14.807
63943W        W35526  36.439  32.579  13.259
63944W        W35527   1.275   6.251   0.108
63945W        W35528  41.388  26.165   1.808
63946W        W35529  17.160  44.507   4.064
63947W        W35530   0.004  44.543   3.834
63948W        W35531  29.154  26.457  11.220
63949W        W35532   9.679  12.568   5.042
63950W        W35533   6.272  36.572   2.140
63951W        W35534  38.249  24.783   4.272
63952W        W35535   8.338  24.619   1.762
63953W        W35536  20.535   7.914  13.810
63954W        W35537  33.531  31.324   1.383
63955W        W35538  13.388   8.584  12.758
63956W        W35539  25.495   7.451   4.287
63957W        W35540  17.798  14.741  12.151
63958W        W35541  21.013  16.727   0.271
63959W        W35542  42.860  38.884  11.372
63960W        W35543  42.702  14.667  14.376
63961W        W35544   5.334  12.161  11.539
63962W        W35545  28.321  32.171   4.441
63963W        W35546  28.370   8.120  12.062
63964W        W35547  16.252  22.743  10.704
63965W        W35548  25.224  11.772   1.651
63966W        W35549  27.623   5.262   2.382
63967W        W35550  37.452  32.183   0.126
63968W        W35551  31.582   3.465   3.226
63969W        W35552  39.520  17.105   0.992
63970W        W35553  15.814  25.760   0.407
63971W        W35554  42.249   5.257  12.743
63972W        W35555  32.095   9.845   1.636
63973W        W35556   2.846   6.377  11.630
63974W        W35557  30.650  15.805   4.208
63975W        W35558  43.950  11.385  11.190
63976W        W35559  35.078   3.669   3.206
63977W        W35560  22.714  35.941  13.027
63978W        W35561  19.603  40.867  14.979
63979W        W35562  18.208   2.381   3.899
63980W        W35563  20.279  11.268   4.057
63981W        W35564  34.322  35.696   4.535
63982W        W35565  42.628  34.133  13.361
63983W        W35566  30.404  33.115  14.247
63984W        W35567   6.733  33.579   2.016
63985W        W35568  38.208   5.314  11.166
63986W        W35569  38.794  43.457   1.849
63987W        W35570  41.975  25.859  11.122
63988W        W35571  16.634   2.715   2.657
63989W        W35572  21.299  36.337   5.071
63990W        W35573  10.223  34.458  11.792
63991W        W35574   5.267   2.317   3.807
63992W        W35575  17.263  32.917   1.429
63993W        W35576  13.078  16.127   4.157
63994W        W35577  36.455  44.043   1.162
63995W        W35578  16.706  18.284   0.946
63996W        W35579   8.327  12.653  11.076
63997W        W35580   2.798  16.510   2.796
63998W        W35581  24.125  15.731  12.619
63999W        W35582   9.790   6.193   0.835
64000W        W35583  30.697  13.123  11.660
64001W        W35584   1.187  24.956   4.123
64002W        W35585   9.316   1.801   2.704
64003W        W35586  15.906  27.336   0.450
64004W        W35587  11.261  13.057  12.013
64005W        W35588  19.192  36.846  11.502
64006W        W35589  34.421   4.890   4.237
64007W        W35590  21.152   6.112   2.937
64008W        W35591  43.271  34.845   1.816
64009W        W35592  44.903  13.299  11.367
64010W        W35593   6.308  29.675   3.546
64011W        W35594  43.411  33.051  13.374
64012W        W35595   6.969  20.650   4.528
64013W        W35596  21.589  42.765   4.478
64014W        W35597   8.730  36.778  11.688
64015W        W35598  30.108   6.264  11.437
64016W        W35599  34.499  11.722   2.121
64017W        W35600  38.629  40.107  11.471
64018W        W35601  28.118  11.531   1.022
64019W        W35602  25.724  44.305  10.987
64020W        W35603  22.667  40.051  11.583
64021W        W35604   8.133  44.905  13.522
64022W        W35605  25.420  43.437   2.664
64023W        W35606  12.249  22.110  14.842
64024W        W35607  25.727  10.596  13.274
64025W        W35608  24.101  16.751   1.794
64026W        W35609  43.246   8.729  12.115
64027W        W35610  27.265  31.378   1.164
64028W        W35611  22.572  41.275   0.878
64029W        W35612  43.791  30.998  10.666
64030W        W35613  19.241  12.443  11.116
64031W        W35614   1.472   3.953   2.781
64032W        W35615  24.106  10.439  12.556
64033W        W35616   6.762  10.133   1.236
64034W        W35617  14.103  27.971   4.068
64035W        W35618  33.238  33.038   3.452
64036W        W35619  40.669  12.886  14.842
64037W        W35620  39.557  24.553  12.444
64038W        W35621  19.037   8.693  14.425
64039W        W35622  27.013   9.184   0.796
64040W        W35623  27.208  14.357  12.037
64041W        W35624  31.908  17.135  14.856
64042W        W35625  11.356  33.600   0.798
64043W        W35626  22.369   2.332   3.251
64044W        W35627  10.114  16.716  11.506
64045W        W35628  43.005   6.803   1.344
64046W        W35629   6.082  12.155  10.994
64047W        W35630  41.783  22.297   0.897
64048W        W35631  13.122  11.664   4.497
64049W        W35632  36.867   6.705  11.400
64050W        W35633  28.562   0.206  12.264
64051W        W35634   5.978  38.452  11.060
64052W        W35635  33.934   1.744  10.744
64053W        W35636  38.564  37.599  12.773
64054W        W35637  36.149  16.642   4.870
64055W        W35638  14.644   8.863  12.041
64056W        W35639   7.263  28.453  14.845
64057W        W35640   3.231   2.314  13.876
64058W        W35641  27.914  12.511   0.693
64059W        W35642  30.407  37.058   4.870
64060W        W35643  32.320  19.125   0.811
64061W        W35644  21.585  27.679  13.785
64062W        W35645   6.665  41.008   2.601
64063W        W35646  29.958  40.524   4.728
64064W        W35647  29.635   1.895  10.601
64065W        W35648   6.042  12.757   3.108
64066W        W35649   0.471  15.104  12.462
64067W        W35650   7.823  39.074  10.355
64068W        W35651   1.216  38.478  12.792
64069W        W35652   4.305  23.159   3.431
64070W        W35653   9.369  31.958  11.037
64071W        W35654  14.827  37.955  10.699
64072W        W35655   4.678  26.636   1.855
64073W        W35656   0.632  14.191  11.169
64074W        W35657   1.340  31.432  14.833
64075W        W35658  37.619   3.933   1.645
64076W        W35659   3.405  43.762   0.091
64077W        W35660  39.694  35.883  14.304
64078W        W35661  37.537  10.117  11.968
64079W        W35662   4.873  43.298  11.887
64080W        W35663  24.409  10.669  13.405
64081W        W35664  38.610   2.674   0.394
64082W        W35665   3.511  26.092   1.834
64083W        W35666  10.572   7.700  14.997
64084W        W35667   2.260  44.820  10.700
64085W        W35668  28.543  22.740   1.422
64086W        W35669   0.267  26.952   2.332
64087W        W35670  13.829  21.684   1.321
64088W        W35671  26.091  11.640   3.261
64089W        W35672  35.654   1.398   1.874
64090W        W35673   2.007   5.320  14.660
64091W        W35674  28.495  39.444   0.156
64092W        W35675   3.214  13.344   3.552
64093W        W35676  22.555  38.777   4.564
64094W        W35677  20.495  25.194   3.258
64095W        W35678  16.593  42.106  14.445
64096W        W35679  35.997  15.565  14.401
64097W        W35680  40.425  25.150   4.515
64098W        W35681   0.937  30.365  12.965
64099W        W35682   1.445  11.239  12.124
64100W        W35683  28.165  22.993   1.182
64101W        W35684  34.043  42.111  13.007
64102W        W35685  23.648  12.963  13.567
64103W        W35686   2.890  26.582  10.622
64104W        W35687   2.953  28.204  11.096
64105W        W35688  24.714  32.090  13.328
64106W        W35689  39.955  34.356   0.321
64107W        W35690  15.113  16.188   0.504
64108W        W35691   2.339  26.031  11.220
64109W        W35692  33.947  12.266   3.074
64110W        W35693  34.864  36.900   0.898
64111W        W35694   6.856  19.371  13.561
64112W        W35695   7.785  36.119  11.496
64113W        W35696  35.384  43.429  13.791
64114W        W35697  16.054   4.376   0.032
64115W        W35698  20.565  30.942   0.711
64116W        W35699  15.084  26.625   2.222
64117W        W35700  10.815  44.231   0.432
64118W        W35701  38.670  34.012  14.072
64119W        W35702  31.962  22.314  11.209
64120W        W35703  19.579  31.082   4.378
64121W        W35704  29.998  28.959  11.231
64122W        W35705  20.184  40.316  13.372
64123W        W35706   1.956  13.648   2.101
64124W        W35707  40.025  24.121   3.646
64125W        W35708  22.478  25.132   3.667
64126W        W35709  27.022  22.671  14.903
64127W        W35710  29.065  40.059  11.603
64128W        W35711  29.849   2.353  14.883
64129W        W35712  43.060  16.339   2.265
64130W        W35713   6.173   8.302  14.808
64131W        W35714  13.771  29.195  11.960
64132W        W35715  30.056  17.621  13.527
64133W        W35716  19.293   2.921   2.723
64134W        W35717   4.931  20.237  12.964
64135W        W35718   2.424  34.149   4.304
64136W        W35719  24.442  26.139  12.850
64137W        W35720  44.266  30.012   1.838
64138W        W35721  42.844   3.834  14.777
64139W        W35722   8.792  16.501  11.173
64140W        W35723  10.101   8.142  13.762
64141W        W35724  14.875  14.263  13.072
64142W        W35725  39.938   0.975   4.767
64143W        W35726   1.811  40.024   2.429
64144W        W35727  24.654   3.311   0.318
64145W        W35728  41.955  22.594   0.490
64146W        W35729   0.091   1.443   2.890
64147W        W35730  43.410  35.116   2.244
64148W        W35731  42.920  23.067  12.100
64149W        W35732  35.369  26.551  11.766
64150W        W35733  17.999  18.486  14.777
64151W        W35734  44.031  14.201  12.138
64152W        W35735  38.067  34.581  10.553
64153W        W35736  34.391  22.281   0.676
64154W        W35737  16.282  15.379  13.927
64155W        W35738   3.297  34.368  13.445
64156W        W35739  44.961  41.949  12.561
64157W        W35740  35.463  39.930  14.483
64158W        W35741  30.229  42.661   3.521
64159W        W35742  10.214   5.663   4.300
64160W        W35743  22.664  16.675   0.083
64161W        W35744  27.122  43.203   2.905
64162W        W35745  18.755  31.975   4.262
64163W        W35746  24.896  26.874  12.131
64164W        W35747  18.218  20.121   1.039
64165W        W35748  11.161  14.721  14.926
64166W        W35749   9.031  13.100   4.978
64167W        W35750  24.663   5.827   2.363
64168W        W35751  10.519  40.404  11.627
64169W        W35752  29.386  12.417   3.331
64170W        W35753  27.677   9.313   0.554
64171W        W35754  35.365  13.263   4.724
64172W        W35755  21.202  15.363  12.445
64173W        W35756  19.604  34.440  14.723
64174W        W35757   8.858  31.806   4.915
64175W        W35758  29.465   2.697  14.359
64176W        W35759   9.157  40.319   3.660
64177W        W35760  34.801  35.262   2.378
64178W        W35761  37.871  36.848  10.666
64179W        W35762  22.548  35.680  14.023
64180W        W35763   1.457   6.114   2.399
64181W        W35764  27.530   3.324  13.973
64182W        W35765   0.729  32.400   1.271
64183W        W35766  28.553  18.713   2.080
64184W        W35767   3.923   5.157  11.280
64185W        W35768  39.576  31.108  14.470
64186W        W35769  22.126   6.014  10.505
64187W        W35770  22.378  13.070   2.299
64188W        W35771  43.863  44.928  14.660
64189W        W35772  25.425  14.193  11.914
64190W        W35773   5.463  40.851  14.506
64191W        W35774  19.104  28.683   0.752
64192W        W35775  42.528  10.321  14.920
64193W        W35776   1.243   6.271   4.505
64194W        W35777   0.019  15.121  14.094
64195W        W35778  29.994  25.225   1.249
64196W        W35779  39.127   2.197   1.276
64197W        W35780  30.083  32.153   2.848
64198W        W35781  42.401  38.841  11.720
64199W        W35782  36.430  44.287  13.996
64200W        W35783   9.329  14.911   1.818
64201W        W35784  31.509  19.657  13.058
64202W        W35785  41.701   9.360   0.869
64203W        W35786  43.391  22.942   2.792
64204W        W35787  21.308  21.062   4.066
64205W        W35788  39.317   6.428  12.904
64206W        W35789   3.757  25.576   4.421
64207W        W35790   4.221  14.083   1.935
64208W        W35791  41.812   1.408  10.993
64209W        W35792  22.033  25.959   0.908
64210W        W35793  13.779   1.960   2.048
64211W        W35794   1.450  22.404   1.309
64212W        W35795  42.446  12.754   3.686
64213W        W35796  39.133  16.101  11.955
64214W        W35797  35.472  17.087   1.635
64215W        W35798   5.241  24.712  13.067
64216W        W35799  37.091   3.192  11.114
64217W        W35800  15.256  14.559   4.218
64218W        W35801  15.113   7.193  13.320
64219W        W35802  21.624  10.194   4.371
64220W        W35803  39.307  26.045   2.947
64221W        W35804  10.560  25.472   1.379
64222W        W35805  25.453  31.894   3.178
64223W        W35806   8.401  22.188  14.300
64224W        W35807  14.717  24.591   4.683
64225W        W35808  26.985  19.653   5.155
64226W        W35809  23.073   9.587  10.624
64227W        W35810  35.033  10.327  13.782
64228W        W35811  14.077  26.963  13.057
64229W        W35812   3.949   2.766   1.960
64230W        W35813   4.245  12.655   2.067
64231W        W35814  27.247  36.352   0.403
64232W        W35815  38.041  30.828   2.296
64233W        W35816  31.447  17.208  11.091
64234W        W35817  32.927  31.615  12.976
64235W        W35818  42.496  35.825  12.857
64236W        W35819   4.311  15.362  12.711
64237W        W35820  16.047  27.074   3.742
64238W        W35821   0.066  17.590   0.001
64239W        W35822   2.302  28.197  13.465
64240W        W35823  40.444  10.011  14.896
64241W        W35824  29.535  14.256   1.701
64242W        W35825  19.337  34.484   2.138
64243W        W35826  38.746  19.305   4.104
64244W        W35827  44.900   3.455   1.344
64245W        W35828  13.113  39.215  12.924
64246W        W35829  10.606  17.856  12.516
64247W        W35830  42.425  29.954  13.023
64248W        W35831   7.906  13.282   1.297
64249W        W35832  11.309  36.425  11.505
64250W        W35833  28.972   8.849  11.767
64251W        W35834  17.064  30.496   4.097
64252W        W35835   8.288  16.566   0.400
64253W        W35836  43.551  27.510  12.164
64254W        W35837  10.583  27.468  12.869
64255W        W35838  34.154  43.908  14.114
64256W        W35839   1.532  20.928  11.862
64257W        W35840  23.154   9.251   0.718
64258W        W35841  23.108  15.814  11.097
64259W        W35842   1.734  34.108   1.664
64260W        W35843  43.775  17.315  13.575
64261W        W35844  32.824  14.302  12.833
64262W        W35845  20.824   1.825   1.921
64263W        W35846  44.805   8.683  10.607
64264W        W35847  42.701  19.762   3.655
64265W        W35848   6.301  20.251   0.875
64266W        W35849  20.956  28.532   2.832
64267W        W35850  39.201  38.971  10.553
64268W        W35851  17.778  42.692   4.101
64269W        W35852  38.556  16.888   0.962
64270W        W35853  36.490  26.093  14.728
64271W        W35854  35.112  26.942  11.192
64272W        W35855  36.564  33.026  11.009
64273W        W35856  27.577  11.973   3.065
64274W        W35857  16.671   2.909  13.924
64275W        W35858  31.793  38.637  12.028
64276W        W35859  18.076  33.621   4.245
64277W        W35860   6.196  31.936   1.864
64278W        W35861  12.108  36.311   0.774
64279W        W35862   5.742  42.746  11.843
64280W        W35863  43.306  15.635  10.401
64281W        W35864   3.816   2.852   4.093
64282W        W35865  42.447  33.157   1.404
64283W        W35866   0.023  22.690   1.442
64284W        W35867  16.743  27.628  10.776
64285W        W35868  34.826  36.957   3.434
64286W        W35869   4.756  35.174  11.173
64287W        W35870   3.871  24.846  10.371
64288W        W35871  12.816  23.920  12.576
64289W        W35872  34.666   1.450  11.138
64290W        W35873   4.883   5.733  13.805
64291W        W35874  24.831  44.828  14.245
64292W        W35875   9.556  40.544   0.916
64293W        W35876  30.374  44.095  11.144
64294W        W35877  20.097  14.390   0.004
64295W        W35878  42.851  21.476   2.781
64296W        W35879  16.273   1.342   2.887
64297W        W35880  37.334  23.559   3.219
64298W        W35881  30.130  13.838   0.981
64299W        W35882  12.536  15.239  14.553
64300W        W35883  39.440   1.564  10.727
64301W        W35884  21.593  36.102   3.231
64302W        W35885   9.664  42.923  14.859
64303W        W35886  25.718  43.457   1.242
64304W        W35887  41.379  11.090   4.627
64305W        W35888   7.561  34.434  10.371
64306W        W35889  30.517  32.550  14.383
64307W        W35890   7.890   9.769   4.013
64308W        W35891   9.450  36.945   2.814
64309W        W35892  44.902  12.589  12.506
64310W        W35893  15.328  27.085   2.233
64311W        W35894   9.643  25.565   3.824
64312W        W35895   2.272  31.660  14.240
64313W        W35896  14.907  20.330  12.056
64314W        W35897  27.691  39.085  14.405
64315W        W35898   1.987   2.226   3.296
64316W        W35899  12.902  12.803  14.017
64317W        W35900  27.538  19.483   2.293
64318W        W35901  35.589  37.054  14.023
64319W        W35902  23.728   8.665   0.053
64320W        W35903   6.002  10.270  13.478
64321W        W35904  19.007  35.406  12.877
64322W        W35905  13.196  21.936   3.371
64323W        W35906  29.427  16.878   2.825
64324W        W35907  17.324  17.259  14.494
64325W        W35908  41.505  42.439   4.470
64326W        W35909   5.477  36.216  12.982
64327W        W35910  23.258  43.972   3.184
64328W        W35911  24.730  29.625  11.841
64329W        W35912  34.998  20.639   0.903
64330W        W35913  28.215  41.760   1.369
64331W        W35914  19.324  28.612   3.089
64332W        W35915  44.804  17.723  10.831
64333W        W35916  32.518   8.138  12.634
64334W        W35917   1.532   0.989   4.727
64335W        W35918  17.361  42.415   3.889
64336W        W35919  28.482  25.300  14.270
64337W        W35920  27.732  22.160  13.355
64338W        W35921   2.449  43.111  13.794
64339W        W35922  33.844  38.090  11.960
64340W        W35923  15.081  38.555  11.643
64341W        W35924  13.463   1.929  12.630
64342W        W35925  16.234  34.562   4.551
64343W        W35926  18.290  11.387   2.664
64344W        W35927   8.649  41.880   4.621
64345W        W35928   7.202   7.816   4.501
64346W        W35929  28.471  38.047  14.231
64347W        W35930  16.340  26.825  10.574
64348W        W35931   4.291   6.518   1.794
64349W        W35932  38.800  19.219   4.999
64350W        W35933  37.602  12.241   3.340
64351W        W35934   6.878  13.230   1.236
64352W        W35935  36.092   4.124  10.566
64353W        W35936  14.590   4.353  11.997
64354W        W35937   6.214  37.938   2.213
64355W        W35938   0.297  42.367   0.868
64356W        W35939   3.929  33.104  12.889
64357W        W35940  40.927  26.155  12.884
64358W        W35941  32.159  29.897   0.407
64359W        W35942   1.994  41.514   0.476
64360W        W35943  18.860  26.369   9.991
64361W        W35944  22.531   6.357  10.166
64362W        W35945   2.424  26.437  12.687
64363W        W35946  16.078  40.911  13.416
64364W        W35947  28.143  44.686   3.765
64365W        W35948  42.328   7.882   1.724
64366W        W35949  13.266  18.519   2.962
64367W        W35950  19.484   6.795  13.860
64368W        W35951  10.193  33.990  10.520
64369W        W35952  32.009  39.858   0.771
64370W        W35953  23.236  26.603  12.398
64371W        W35954  18.891  34.791   0.865
64372W        W35955  38.360   8.398  10.662
64373W        W35956  25.711  21.196  12.537
64374W        W35957  10.767  40.383   4.426
64375W        W35958  17.126   8.408   0.282
64376W        W35959  10.389  10.438  12.469
64377W        W35960  10.365  32.117  13.095
64378W        W35961  32.191  11.594  12.458
64379W        W35962  10.931   8.909   2.201
64380W        W35963  31.684  14.221   4.643
64381W        W35964  36.342  10.597   0.866
64382W        W35965   5.959  17.767   3.277
64383W        W35966  27.265   6.188  14.424
64384W        W35967  43.347  42.885  11.503
64385W        W35968  26.031   1.433   1.004
64386W        W35969  39.424  39.275  12.947
64387W        W35970   4.330  25.788  13.148
64388W        W35971  23.176  25.448  13.935
64389W        W35972  39.935   1.430  11.488
64390W        W35973  17.842  18.584  11.991
64391W        W35974   0.436  40.385   4.880
64392W        W35975  15.246   6.064   3.674
64393W        W35976  13.690   7.110   3.213
64394W        W35977  28.538   4.281  11.241
64395W        W35978  12.391  33.977  13.510
64396W        W35979  43.356  16.015  12.310
64397W        W35980  21.017  42.341   2.223
64398W        W35981  37.894  18.593   2.378
64399W        W35982  22.289  20.511   0.063
64400W        W35983  25.636  15.368  14.906
64401W        W35984   5.725  40.798  10.707
64402W        W35985  24.503  33.651   4.554
64403W        W35986   8.966  28.652   4.395
64404W        W35987   2.693   0.721  13.036
64405W        W35988  44.264  29.938  12.028
64406W        W35989  27.637  26.483  13.626
64407W        W35990  25.487  24.208   3.381
64408W        W35991  23.366  12.100   2.697
64409W        W35992   9.990  11.734  13.525
64410W        W35993  16.560   8.280  14.574
64411W        W35994  24.982  26.936   1.806
64412W        W35995  12.374  42.301   4.664
64413W        W35996  12.623  26.100   1.957
64414W        W35997  25.662  41.596   2.215
64415W        W35998  18.957  11.393   1.379
64416W        W35999  10.894  19.231   0.192
64417W        W36000  36.022  13.516   4.092
64418W        W36001   6.583  18.354  11.645
64419W        W36002  22.147  37.847   0.208
64420W        W36003  10.473   6.613   0.835
64421W        W36004  25.089  16.079  13.912
64422W        W36005  32.172  13.597   1.974
64423W        W36006  10.190  42.302  13.323
64424W        W36007  44.485   0.938  14.081
64425W        W36008  17.980  14.425  13.500
64426W        W36009  44.577  13.988   0.889
64427W        W36010  40.769  24.747  12.090
64428W        W36011  40.669  40.815   2.728
64429W        W36012  17.271   7.866   0.008
64430W        W36013  28.726   7.950   3.324
64431W        W36014  43.513  15.657   1.752
64432W        W36015  29.113   6.316  13.573
64433W        W36016  15.415   6.682  12.130
64434W        W36017  24.801   1.842  14.916
64435W        W36018  16.615  35.482   4.647
64436W        W36019  44.208   0.201   3.706
64437W        W36020   2.209  21.238  12.512
64438W        W36021   0.300   5.117  13.436
64439W        W36022  34.726  26.908   3.335
64440W        W36023  33.770   9.691   4.311
64441W        W36024  35.313  20.133   1.444
64442W        W36025  13.553  23.880  14.718
64443W        W36026  28.904  36.337   4.219
64444W        W36027  15.324  40.161   0.572
64445W        W36028  31.302   0.037   2.149
64446W        W36029  42.349  11.649  12.966
64447W        W36030   1.274  16.835   4.359
64448W        W36031  30.436  13.376   4.865
64449W        W36032  34.114   5.168  14.426
64450W        W36033  28.669  34.583  12.277
64451W        W36034  13.276  19.110   0.892
64452W        W36035  42.395  27.297  11.076
64453W        W36036  10.675  40.733  12.630
64454W        W36037  27.955  16.603   3.564
64455W        W36038   2.502  26.605  14.470
64456W        W36039  43.355  30.421   4.370
64457W        W36040  21.064  27.463  10.691
64458W        W36041  28.820  12.607   2.452
64459W        W36042  20.702  16.710  13.293
64460W        W36043   6.282  35.941   3.550
64461W        W36044  15.585  18.042  10.207
64462W        W36045  41.871  39.014   4.823
64463W        W36046  32.609  30.421  13.388
64464W        W36047  34.932  30.782   0.378
64465W        W36048  28.174  13.126  13.488
64466W        W36049  18.709  11.824  10.156
64467W        W36050  25.565  43.702  13.833
64468W        W36051  29.828  28.475   3.870
64469W        W36052  42.858   0.838   4.166
64470W        W36053  27.642  43.442  14.759
64471W        W36054  29.926  10.275  12.017
64472W        W36055  31.201   9.354   3.434
64473W        W36056   7.392   3.321  14.422
64474W        W36057  27.123  19.016  14.401
64475W        W36058  19.716  19.665   0.762
64476W        W36059  21.901  13.829   0.849
64477W        W36060  31.587  29.957   1.683
64478W        W36061  26.000   1.869   2.121
64479W        W36062  36.980  10.383  13.973
64480W        W36063  16.139  43.904  13.885
64481W        W36064   0.511   8.432  14.927
64482W        W36065  36.496  17.637   4.437
64483W        W36066  22.604  27.110   0.314
64484W        W36067  39.915  21.167   3.152
64485W        W36068  31.058  38.077   3.274
64486W        W36069  35.514  28.567  11.280
64487W        W36070   7.584  38.729   5.114
64488W        W36071   0.987  32.829   1.151
64489W        W36072   7.729  29.560  12.067
64490W        W36073   6.292  37.341  11.860
64491W        W36074  39.875  38.426  13.544
64492W        W36075  34.775  31.076   2.276
64493W        W36076  20.290  18.604   0.461
64494W        W36077  40.924   1.779  14.272
64495W        W36078   6.324  24.494   1.707
64496W        W36079  32.146  32.928   2.466
64497W        W36080  21.094  33.380   4.500
64498W        W36081  33.557  12.775   1.421
64499W        W36082   9.745  35.100  12.390
64500W        W36083  19.607  30.635   2.281
64501W        W36084  26.137  39.285  14.924
64502W        W36085  23.100  38.567  10.852
64503W        W36086  17.617  42.768   2.208
64504W        W36087   0.210  39.935   2.202
64505W        W36088   9.400  22.142   1.663
64506W        W36089  17.537   6.939  11.024
64507W        W36090  25.265  26.781  12.486
64508W        W36091  25.483  15.604  11.363
64509W        W36092   7.666  17.732  12.497
64510W        W36093  25.594  38.335   0.505
64511W        W36094  39.260  32.174   4.035
64512W        W36095  12.828  42.825  12.500
64513W        W36096  18.347  14.356   3.977
64514W        W36097  36.515   2.654   2.737
64515W        W36098  37.792  13.825  10.408
64516W        W36099  27.631   1.408  10.921
64517W        W36100  38.437   4.716  11.908
64518W        W36101  10.652  13.058  12.613
64519W        W36102  30.535   1.933   2.193
64520W        W36103   6.996  39.279   1.374
64521W        W36104  19.324  39.845   4.471
64522W        W36105  19.067   2.181  11.248
64523W        W36106  44.635   1.774  10.729
64524W        W36107  42.800  39.889   0.714
64525W        W36108   3.034  22.742  13.081
64526W        W36109  17.112  24.385   1.905
64527W        W36110  19.141  11.929  11.130
64528W        W36111  22.534  24.614  11.984
64529W        W36112   0.538  37.030  13.832
64530W        W36113  24.910  22.115  12.739
64531W        W36114   7.374  43.534  14.464
64532W        W36115  43.780   1.275   0.935
64533W        W36116  29.085  36.428  11.846
64534W        W36117  27.972  29.415   1.843
64535W        W36118  42.569  22.005  13.014
64536W        W36119   4.256  22.568  12.037
64537W        W36120  27.832  27.826  14.383
64538W        W36121  13.761  33.122  14.882
64539W        W36122  16.030  29.570   0.894
64540W        W36123  14.908  19.004   4.173
64541W        W36124  25.092   0.428   0.410
64542W        W36125  40.898  25.652  14.704
64543W        W36126  37.963   9.624   3.540
64544W        W36127   6.017  37.477   1.400
64545W        W36128  44.673  11.151  11.539
64546W        W36129  38.815  32.089   1.893
64547W        W36130   9.176   1.887  11.004
64548W        W36131  37.928  10.716   2.166
64549W        W36132  36.438   6.676   1.709
64550W        W36133  13.779  38.228  13.148
64551W        W36134  18.152  41.453  12.084
64552W        W36135   8.054  39.276  11.669
64553W        W36136  16.607   0.280   4.078
64554W        W36137  18.770  19.595  13.849
64555W        W36138   0.366  23.280   3.745
64556W        W36139  27.646   3.222  14.954
64557W        W36140   5.988  41.491   0.794
64558W        W36141   1.389   4.205  13.591
64559W        W36142  24.480  39.937   0.518
64560W        W36143  41.262  11.562   4.829
64561W        W36144   1.832   1.444   4.624
64562W        W36145  21.628  37.108  14.370
64563W        W36146  34.953  27.487  13.340
64564W        W36147   2.708  21.519  10.219
64565W        W36148  28.528  11.858   0.887
64566W        W36149  44.212  14.297   4.026
64567W        W36150  42.779  18.520  10.645
64568W        W36151  23.473  20.970   3.279
64569W        W36152  31.233   9.714  14.776
64570W        W36153  11.080  41.151   3.150
64571W        W36154  21.153   6.755   5.140
64572W        W36155  39.940  13.087  10.488
64573W        W36156  40.879  18.096   0.366
64574W        W36157  38.999   6.938   2.914
64575W        W36158   4.967  18.131  14.953
64576W        W36159  43.547  40.888   1.326
64577W        W36160  43.771   3.068  14.351
64578W        W36161  30.101  25.768  12.104
64579W        W36162   8.446  42.477  13.079
64580W        W36163  35.593   3.709   3.233
64581W        W36164   8.290  17.338  12.943
64582W        W36165   9.418  32.065  11.976
64583W        W36166   4.106  39.110   5.333
64584W        W36167  41.503   2.116  14.401
64585W        W36168  21.125  42.247   4.061
64586W        W36169   6.456  41.658   2.568
64587W        W36170  12.307  40.492   3.267
64588W        W36171  26.092  34.752   0.816
64589W        W36172  42.327  19.174   0.978
64590W        W36173  28.942  25.591   2.264
64591W        W36174  11.316   3.867   3.603
64592W        W36175   4.824   6.230   4.508
64593W        W36176  13.196   1.981   4.370
64594W        W36177  15.311   5.791   4.672
64595W        W36178  33.389   7.361  10.462
64596W        W36179  33.500  25.540   3.593
64597W        W36180   7.664   3.463  13.888
64598W        W36181  19.266  17.075  14.922
64599W        W36182  27.635  17.525  12.705
64600W        W36183   2.753  27.732  11.144
64601W        W36184  21.719  37.865   0.752
64602W        W36185  11.237   5.711   1.422
64603W        W36186  10.001  14.403   2.864
64604W        W36187  44.728  24.121  14.639
64605W        W36188  21.641   2.334   0.224
64606W        W36189  27.051  32.159  13.943
64607W        W36190  44.350  14.347   3.189
64608W        W36191  21.632   1.030  13.600
64609W        W36192  11.652  13.256  13.711
64610W        W36193  39.496  21.555  11.859
64611W        W36194   9.243  24.496  12.792
64612W        W36195  42.983   5.397   1.804
64613W        W36196  43.549  15.738  11.368
64614W        W36197  29.189   9.300   2.383
64615W        W36198  43.990  30.080   4.139
64616W        W36199  41.736  30.396  10.308
64617W        W36200   3.986  14.140   4.465
64618W        W36201   8.166  42.604  10.549
64619W        W36202   9.498  13.065  14.323
64620W        W36203  42.542   3.028  14.954
64621W        W36204  24.307  28.194  12.085
64622W        W36205  32.985   8.384  13.359
64623W        W36206  29.098  14.804  11.581
64624W        W36207   2.448  26.573   0.566
64625W        W36208  25.081   4.922   0.526
64626W        W36209  20.628  43.863   0.179
64627W        W36210  17.259  27.795  10.590
64628W        W36211  21.338  40.467  14.923
64629W        W36212  11.834   6.220  14.849
64630W        W36213  22.495  22.110   1.422
64631W        W36214  40.485   2.270   4.593
64632W        W36215  36.722  44.463  12.631
64633W        W36216  31.240  20.317  14.637
64634W        W36217  26.503  42.528   2.785
64635W        W36218   0.500  31.652   0.745
64636W        W36219  37.539  36.648  11.048
64637W        W36220   2.862  22.206   3.253
64638W        W36221   6.400  32.326   2.677
64639W        W36222  32.043  32.119  12.872
64640W        W36223  30.477   7.136   0.847
64641W        W36224   3.398  12.541   2.963
64642W        W36225  23.649  25.265  13.412
64643W        W36226   8.796  20.990   0.685
64644W        W36227  21.523  42.807  12.116
64645W        W36228   5.364   8.890  10.980
64646W        W36229  37.172  37.637   0.322
64647W        W36230  28.721   6.432   3.222
64648W        W36231  24.139  20.542   2.646
64649W        W36232  10.250  41.969   4.492
64650W        W36233  37.589  33.369   0.872
64651W        W36234  27.021  39.359   3.112
64652W        W36235  11.369  10.091  11.581
64653W        W36236  40.791   2.107   0.357
64654W        W36237  15.060  33.986  12.108
64655W        W36238   4.313  20.847   1.641
64656W        W36239   8.582  14.399  10.079
64657W        W36240  29.761   3.677  11.065
64658W        W36241   2.180  22.616   5.198
64659W        W36242  37.907  28.276  14.303
64660W        W36243  17.230  29.382  13.736
64661W        W36244   8.186  27.945  11.236
64662W        W36245  39.066  21.365  14.118
64663W        W36246   8.903  28.127  11.886
64664W        W36247  13.857  41.927   5.001
64665W        W36248  39.678   8.470  14.432
64666W        W36249   7.582  43.202  11.972
64667W        W36250  33.093  19.578  10.024
64668W        W36251  24.721  10.589  14.272
64669W        W36252   6.227  26.783  10.404
64670W        W36253  32.966  11.598   1.310
64671W        W36254  21.536  16.381  10.646
64672W        W36255  22.939  20.046  12.665
64673W        W36256  13.332  36.298  14.460
64674W        W36257   2.357  13.794   4.546
64675W        W36258  21.394   8.616  10.258
64676W        W36259   6.749  13.174  14.781
64677W        W36260   0.305  38.071   1.912
64678W        W36261  42.966  26.415   3.212
64679W        W36262  17.677  37.629  13.162
64680W        W36263  29.545  16.299  12.950
64681W        W36264  17.978  28.823   0.058
64682W        W36265  33.060  37.031  13.014
64683W        W36266  26.510   4.994   1.359
64684W        W36267  15.223  25.072  10.506
64685W        W36268  15.826  38.936  12.526
64686W        W36269  26.428  31.409  10.815
64687W        W36270  40.547   5.878   3.735
64688W        W36271   5.217  16.267   3.138
64689W        W36272  11.892  40.305  13.533
64690W        W36273   5.965   4.338  13.450
64691W        W36274  26.211   0.279   3.714
64692W        W36275  14.596  20.277   3.270
64693W        W36276  38.282  40.660   4.531
64694W        W36277  32.841  43.300   2.274
64695W        W36278  13.360  43.282  12.179
64696W        W36279  37.961   8.408   1.827
64697W        W36280  29.797  39.831  10.390
64698W        W36281  28.416  43.729  13.489
64699W        W36282  20.252  33.891   1.464
64700W        W36283  34.967  25.965  11.229
64701W        W36284  34.432   7.256  10.746
64702W        W36285  34.367  18.012   0.005
64703W        W36286  38.803  12.875   4.887
64704W        W36287  35.618  39.608  11.060
64705W        W36288   0.451  43.859  13.411
64706W        W36289  25.126   6.610   4.199
64707W        W36290  34.971   1.323   3.079
64708W        W36291   1.837  38.493   5.042
64709W        W36292  30.921  27.041  14.707
64710W        W36293  33.052  28.110  11.021
64711W        W36294  44.740  17.861   0.334
64712W        W36295  22.926  44.264   0.260
64713W        W36296  23.021  22.215  14.894
64714W        W36297  11.664  38.308   2.855
64715W        W36298  15.757  28.114  12.038
64716W        W36299   6.477   5.285  13.427
64717W        W36300  33.461  39.504  11.001
64718W        W36301  15.723  32.672  14.315
64719W        W36302  32.815  31.506   2.648
64720W        W36303  13.110  24.616  10.574
64721W        W36304  16.386  17.202  13.363
64722W        W36305  36.867  22.082  13.112
64723W        W36306  41.020  20.192   3.601
64724W        W36307  20.525  11.405  11.930
64725W        W36308   9.181  41.253  11.992
64726W        W36309  44.957   5.930  14.857
64727W        W36310  12.895  14.845  13.378
64728W        W36311  40.113  28.585   2.693
64729W        W36312  10.025  10.132  10.368
64730W        W36313  23.218  17.595  14.653
64731W        W36314   0.276  39.509   2.923
64732W        W36315  26.082  27.590  12.800
64733W        W36316  29.159  43.979  10.812
64734W        W36317   5.234   7.368   1.236
64735W        W36318  36.988  40.620   2.964
64736W        W36319  15.809  21.043   1.531
64737W        W36320  39.219  26.867   5.108
64738W        W36321  16.252  33.429  11.998
64739W        W36322   0.486  19.798   4.923
64740W        W36323   0.115  32.855  12.426
64741W        W36324  22.435  30.887  12.991
64742W        W36325  24.528   4.269   4.320
64743W        W36326   4.295  13.268   3.940
64744W        W36327   8.917   1.508   3.820
64745W        W36328  43.457  16.013   2.421
64746W        W36329  26.717   1.487  14.145
64747W        W36330  28.414  14.741  13.498
64748W        W36331  36.881  33.830  11.146
64749W        W36332  27.910  23.718   1.305
64750W        W36333  16.134  22.478  14.510
64751W        W36334  10.310  42.298   3.258
64752W        W36335  24.356  22.900  14.052
64753W        W36336   1.973  15.956   1.836
64754W        W36337  11.680  37.937   0.929
64755W        W36338   2.799  18.641  13.521
64756W        W36339  41.386  32.916  11.433
64757W        W36340  28.617  24.245  12.359
64758W        W36341  16.235  18.389  12.940
64759W        W36342   3.369  35.774  12.503
64760W        W36343   7.429  11.996  11.854
64761W        W36344  31.615  15.604   2.845
64762W        W36345  33.276  22.906  14.775
64763W        W36346  15.389  24.101   0.354
64764W        W36347  31.014  14.039   0.516
64765W        W36348  35.535  24.577  11.534
64766W        W36349  37.469  44.490  10.670
64767W        W36350  24.489  24.183   2.331
64768W        W36351  23.441  42.396  10.608
64769W        W36352  27.542  17.072  10.492
64770W        W36353   6.211  21.947  12.043
64771W        W36354  44.881  27.916   3.156
64772W        W36355   1.438  38.003  12.108
64773W        W36356  32.739  33.530   0.431
64774W        W36357  40.629  31.909   2.112
64775W        W36358   9.929  25.865   4.724
64776W        W36359  27.551  37.731  14.047
64777W        W36360  25.475  41.895  13.283
64778W        W36361  17.738  40.983  13.963
64779W        W36362  14.205   2.277  14.283
64780W        W36363   4.087  14.770  11.482
64781W        W36364  23.519  19.589  11.482
64782W        W36365  31.920  26.907   0.984
64783W        W36366  38.051  41.505   1.294
64784W        W36367  42.583  37.850   2.106
64785W        W36368  35.323  35.451   0.806
64786W        W36369  32.928   4.316   2.274
64787W        W36370  21.740  27.596   0.300
64788W        W36371  33.436  18.868  14.295
64789W        W36372   8.919   1.628  12.924
64790W        W36373  10.350  34.690  12.235
64791W        W36374  33.123  28.505  10.702
64792W        W36375  39.238  26.573   1.313
64793W        W36376  28.471   2.140  12.442
64794W        W36377  19.043  44.713  12.028
64795W        W36378  18.642  18.651   0.018
64796W        W36379  16.841  25.209  11.102
64797W        W36380   4.211  24.138   3.089
64798W        W36381  42.140  26.393  14.341
64799W        W36382  12.618   6.944   2.300
64800W        W36383  21.646  14.178   1.830
64801W        W36384  27.569  20.270  12.094
64802W        W36385  41.259  24.673  10.738
64803W        W36386  24.179   3.907   4.484
64804W        W36387  25.343  26.038  14.411
64805W        W36388  19.315  44.994  12.407
64806W        W36389  10.576   0.681  10.836
64807W        W36390   0.237  23.038  12.647
64808W        W36391   3.713  43.323   1.334
64809W        W36392  15.505  34.504  12.532
64810W        W36393  22.930   8.825   2.812
64811W        W36394  24.172  38.550   1.790
64812W        W36395  43.996  28.119  11.426
64813W        W36396  28.757   9.954  13.954
64814W        W36397  12.362  31.446   3.414
64815W        W36398  37.347  31.469   0.877
64816W        W36399  13.324   9.296   0.941
64817W        W36400   0.803  35.983   1.100
64818W        W36401   5.498  33.459  14.128
64819W        W36402  20.860  39.607   4.554
64820W        W36403  34.629  34.314   4.180
64821W        W36404  16.054   2.195  12.009
64822W        W36405  18.800  28.490   2.692
64823W        W36406   4.279   0.075  11.968
64824W        W36407   1.429  43.040  13.107
64825W        W36408   0.139  17.959   2.210
64826W        W36409  19.063  31.085   4.467
64827W        W36410  13.252   4.602   0.552
64828W        W36411  43.891  32.439   3.660
64829W        W36412  22.167  15.260  14.915
64830W        W36413   8.063   2.394   3.741
64831W        W36414  27.723  27.955   2.870
64832W        W36415  43.087  14.999  11.981
64833W        W36416  17.696  41.234  12.178
64834W        W36417  20.067   2.406   1.900
64835W        W36418   0.451   0.327   1.969
64836W        W36419   6.606  34.092  14.381
64837W        W36420  42.917  17.271   3.807
64838W        W36421  35.468  35.612   4.157
64839W        W36422  31.671  33.095  14.863
64840W        W36423  24.981  22.072   1.960
64841W        W36424   4.921   9.265  12.131
64842W        W36425   1.545  22.932   3.697
64843W        W36426   6.879  36.430   3.117
64844W        W36427  30.563   9.382  13.432
64845W        W36428  22.259  11.323  10.380
64846W        W36429  24.086  29.433   4.708
64847W        W36430  14.310  28.469   3.271
64848W        W36431  12.394  11.768   0.803
64849W        W36432   4.344  25.516   4.116
64850W        W36433  33.487   5.416  13.904
64851W        W36434   7.046  36.460  14.299
64852W        W36435  39.532  13.409  14.893
64853W        W36436  38.043  43.573  12.886
64854W        W36437  22.566  10.445  14.754
64855W        W36438  25.509   9.259   3.269
64856W        W36439  13.575  29.015   3.199
64857W        W36440  21.692  38.877   2.306
64858W        W36441  19.691  10.286   3.773
64859W        W36442  42.319  23.726  13.370
64860W        W36443   8.317  15.798  14.040
64861W        W36444   7.639  18.440   4.966
64862W        W36445  42.007  12.820   0.283
64863W        W36446  36.001  40.674   4.063
64864W        W36447  20.902  35.686   0.709
64865W        W36448  36.848   2.278  11.171
64866W        W36449  14.413  15.276   3.145
64867W        W36450  10.100  27.524   3.432
64868W        W36451   8.834   4.830   3.279
64869W        W36452  31.350  37.045  12.441
64870W        W36453  43.749  24.714   2.877
64871W        W36454  19.605  35.321   0.982
64872W        W36455  32.925  20.372   2.433
64873W        W36456  40.849   9.627  13.508
64874W        W36457  28.548   0.971   0.915
64875W        W36458  23.086  17.769  13.094
64876W        W36459  13.750  42.840   0.316
64877W        W36460  30.584   9.819   0.425
64878W        W36461  22.493  24.195  11.690
64879W        W36462   7.064   3.726   4.824
64880W        W36463   4.895  42.427  14.448
64881W        W36464   9.121   2.265   1.937
64882W        W36465  39.937  43.868  11.062
64883W        W36466  13.279   6.696  14.626
64884W        W36467  40.129   1.260  11.952
64885W        W36468  19.182  19.346  12.012
64886W        W36469  42.955  14.307   2.245
64887W        W36470  11.367  12.329   2.841
64888W        W36471  21.714   3.303  12.976
64889W        W36472  42.792  11.781   4.523
64890W        W36473  24.131  36.452  11.164
64891W        W36474   4.789   2.430   4.125
64892W        W36475  43.976  14.103  13.029
64893W        W36476   4.243  11.066   3.316
64894W        W36477  36.345   8.807   4.252
64895W        W36478  30.916  12.001   0.733
64896W        W36479   0.792  43.983  14.952
64897W        W36480  28.011  27.282  13.631
64898W        W36481  11.717  13.352   4.508
64899W        W36482  44.399  37.992  11.866
64900W        W36483  19.178  42.912   2.713
64901W        W36484  43.487  29.147   3.897
64902W        W36485   0.683  31.456   1.176
64903W        W36486  41.851  22.744   3.128
64904W        W36487   2.882   2.964   2.652
64905W        W36488  27.626  23.695   3.695
64906W        W36489  22.755  35.183   2.341
64907W        W36490  28.658  38.441   1.305
64908W        W36491  24.969   9.979  13.563
64909W        W36492  10.254  23.670  12.903
64910W        W36493  34.207  15.109   1.705
64911W        W36494  24.271  37.120  10.799
64912W        W36495  36.718  32.645  14.562
64913W        W36496  17.738  21.233  11.127
64914W        W36497  20.865   6.737  10.262
64915W        W36498  36.904  34.813   0.194
64916W        W36499   3.306  10.561   3.163
64917W        W36500   3.248   4.651   2.241
64918W        W36501   2.207  19.946  13.799
64919W        W36502  10.474  37.073   4.596
64920W        W36503  18.677  19.742   2.156
64921W        W36504  33.079  43.725  11.907
64922W        W36505  23.919  16.885  11.325
64923W        W36506  31.230   3.032  11.532
64924W        W36507  42.308  26.815   3.792
64925W        W36508  36.012   2.228   1.117
64926W        W36509   2.940   2.941   4.633
64927W        W36510  20.543  32.371   2.171
64928W        W36511  39.973  15.466   4.680
64929W        W36512  32.479  25.509   1.952
64930W        W36513  22.400  22.589   0.783
64931W        W36514  33.384   3.666  11.067
64932W        W36515   8.059  29.297   0.354
64933W        W36516  12.390  16.365  13.584
64934W        W36517   0.844  15.179  11.483
64935W        W36518  23.487   4.223  13.411
64936W        W36519  43.299  31.904   3.087
64937W        W36520  44.728  20.572   3.811
64938W        W36521  44.154  38.386  13.395
64939W        W36522   9.679  28.471  12.407
64940W        W36523  43.199  31.968  11.458
64941W        W36524  42.405  21.771  13.474
64942W        W36525   4.417   4.500   1.824
64943W        W36526   6.723  29.728  10.654
64944W        W36527  13.913  28.139  13.389
64945W        W36528  30.737  18.182  13.405
64946W        W36529  41.587   9.407   3.690
64947W        W36530   4.946  28.612  11.195
64948W        W36531   8.603  16.428  11.664
64949W        W36532   0.015  35.924   4.531
64950W        W36533  42.301  34.967   3.834
64951W        W36534   6.723  15.625   3.882
64952W        W36535  39.621   1.254   0.618
64953W        W36536   6.196  32.849  11.757
64954W        W36537   2.705   7.411   0.025
64955W        W36538   4.919  16.191   0.832
64956W        W36539  17.239  39.391   2.461
64957W        W36540   2.985  15.851   4.299
64958W        W36541  16.595  31.217  14.961
64959W        W36542   2.808  30.648   2.133
64960W        W36543  29.467   1.384   5.034
64961W        W36544  19.056   8.954  11.680
64962W        W36545   5.715  24.098  13.608
64963W        W36546  23.057   0.007  11.068
64964W        W36547  26.095   1.726  14.942
64965W        W36548  40.147  19.667   2.591
64966W        W36549  18.784  30.449  12.150
64967W        W36550  30.555  43.457   4.444
64968W        W36551  19.042  29.632   0.954
64969W        W36552  25.987   4.534   4.167
64970W        W36553  27.658   6.711   3.952
64971W        W36554  40.776  40.865   3.680
64972W        W36555  34.651   4.457  14.445
64973W        W36556   8.806  14.970  12.465
64974W        W36557  25.744   9.813  14.983
64975W        W36558  43.058  44.726  14.332
64976W        W36559  40.808  23.790  13.277
64977W        W36560  13.780  30.189  11.871
64978W        W36561  32.583  21.124  12.079
64979W        W36562  21.740  19.638  13.445
64980W        W36563  25.402  31.001  12.817
64981W        W36564  25.097  40.442   4.556
64982W        W36565   1.914  23.529  13.066
64983W        W36566  30.838  42.168   4.194
64984W        W36567   6.332  28.457   9.920
64985W        W36568  42.986  33.855   0.524
64986W        W36569  32.432  21.706   4.585
64987W        W36570   1.378   8.039   4.442
64988W        W36571   2.882  41.434  11.192
64989W        W36572  19.161  17.514   9.713
64990W        W36573  30.083  23.976  14.951
64991W        W36574  33.945  32.258  14.859
64992W        W36575  17.648  42.655  11.180
64993W        W36576  19.445  24.964  12.892
64994W        W36577  33.488  33.849  11.622
64995W        W36578  10.964  31.663  12.526
64996W        W36579   5.059  21.896   0.537
64997W        W36580  43.949  26.958   1.754
64998W        W36581   8.692  15.112  12.982
64999W        W36582  43.368  18.130  11.460
65000W        W36583  35.903  16.972  13.601
65001W        W36584  43.524  11.656  14.398
65002W        W36585   1.117  44.218   2.391
65003W        W36586   2.658  34.808  11.128
65004W        W36587   9.267  13.376  11.439
65005W        W36588  26.513  30.075   1.352
65006W        W36589  34.158   8.345   2.116
65007W        W36590  37.477  16.803   2.412
65008W        W36591  33.483  15.369  12.960
65009W        W36592  38.380  40.801   0.764
65010W        W36593   2.613   9.067  11.195
65011W        W36594   6.740  21.195  11.942
65012W        W36595  29.064  21.318   2.873
65013W        W36596  26.602  15.100  11.265
65014W        W36597  23.399   2.424   1.108
65015W        W36598  28.649  19.437   2.767
65016W        W36599  40.981  18.052  12.589
65017W        W36600  22.236   5.402   4.161
65018W        W36601  17.853  22.302   4.906
65019W        W36602   3.356  22.232  12.409
65020W        W36603  23.583  27.023  11.381
65021W        W36604  10.355  33.967   2.242
65022W        W36605  15.283   8.466   1.848
65023W        W36606  23.398  35.022   0.710
65024W        W36607  39.876  24.658  13.875
65025W        W36608  40.278   0.254  11.217
65026W        W36609   9.140   3.144  14.941
65027W        W36610   6.370  11.098   0.749
65028W        W36611  25.120   6.855  11.302
65029W        W36612  24.471   0.070   3.005
65030W        W36613  43.864  44.957   1.678
65031W        W36614  35.080  12.396  14.376
65032W        W36615  34.191  12.635   2.224
65033W        W36616   3.859  42.801   0.962
65034W        W36617  35.843  12.538   3.817
65035W        W36618  26.727  33.859  13.275
65036W        W36619   7.808  42.024   0.444
65037W        W36620  18.075  39.141   3.696
65038W        W36621  13.944  30.586  10.190
65039W        W36622  10.234  28.918  13.784
65040W        W36623   9.667   9.915  14.323
65041W        W36624  22.107  28.659   2.255
65042W        W36625  11.411  15.629   1.780
65043W        W36626  39.983  32.141  13.272
65044W        W36627  34.064  25.502  13.756
65045W        W36628  27.093  10.594  11.480
65046W        W36629  23.434   5.148  13.974
65047W        W36630  35.548   1.286  13.454
65048W        W36631  35.461  32.342   3.622
65049W        W36632  13.213  10.643  14.262
65050W        W36633   3.669  41.249  14.780
65051W        W36634   5.036  13.758  13.331
65052W        W36635  38.752  38.251  11.655
65053W        W36636   3.764   7.344  10.563
65054W        W36637   5.951  21.497  11.526
65055W        W36638  16.352   2.236  11.001
65056W        W36639  18.907   6.568  10.957
65057W        W36640   9.732  11.206  14.751
65058W        W36641  39.321  17.700   1.196
65059W        W36642  25.640   3.238  10.703
65060W        W36643   6.877  18.716  14.370
65061W        W36644  19.572  18.237   3.509
65062W        W36645  22.223   3.016   0.499
65063W        W36646  23.044  18.315  11.569
65064W        W36647   6.294  15.332   3.186
65065W        W36648  32.110   6.430   1.362
65066W        W36649   0.747  39.296  11.019
65067W        W36650  21.474  29.624  10.681
65068W        W36651  19.977   7.952   4.224
65069W        W36652  34.754  31.178   4.185
65070W        W36653  19.637   0.312  11.564
65071W        W36654  39.257  17.721  11.010
65072W        W36655  27.966  28.358   1.586
65073W        W36656  42.950  10.002  10.770
65074W        W36657   7.187   0.874   3.729
65075W        W36658  28.543  40.321  13.888
65076W        W36659  44.235   2.337   2.452
65077W        W36660  19.420  16.966  13.170
65078W        W36661  12.584  29.752   0.185
65079W        W36662  44.720   0.254  14.203
65080W        W36663   7.645  24.619   0.396
65081W        W36664  20.014  43.786  12.966
65082W        W36665  12.062  39.912   2.950
65083W        W36666  21.771  31.262   3.600
65084W        W36667  12.980  22.507   2.723
65085W        W36668  36.050  21.001   1.616
65086W        W36669   1.246  29.991  11.184
65087W        W36670  30.954  30.334  12.494
65088W        W36671  39.511   5.191   1.376
65089W        W36672   5.852  39.420  10.651
65090W        W36673  27.405   6.763  11.431
65091W        W36674  15.382   3.070   1.495
65092W        W36675  25.146  31.915   4.960
65093W        W36676   1.449  28.090   0.220
65094W        W36677   1.038   0.795  10.747
65095W        W36678   5.476   4.753   3.118
65096W        W36679   2.501   7.695  12.784
65097W        W36680  36.129  13.760   1.696
65098W        W36681  13.918  42.880  11.582
65099W        W36682   2.367  33.020   3.166
65100W        W36683  40.821  20.782  10.909
65101W        W36684  16.847  12.823   1.022
65102W        W36685  33.596   4.160   3.727
65103W        W36686  34.474  10.183   4.664
65104W        W36687   5.331  21.115  13.036
65105W        W36688  20.018  14.340  11.076
65106W        W36689  34.683  29.004  12.598
65107W        W36690   2.510  41.061  11.157
65108W        W36691  33.092   7.364   2.412
65109W        W36692  40.462  23.511  10.765
65110W        W36693  10.113  19.206  12.134
65111W        W36694  14.269  42.821   3.061
65112W        W36695  15.161   3.874   4.261
65113W        W36696  17.039   2.770  14.314
65114W        W36697  14.284  37.581  10.996
65115W        W36698  12.515   1.586  12.430
65116W        W36699  31.156  40.917  13.360
65117W        W36700  27.228  16.235   1.242
65118W        W36701  13.603   6.287   2.853
65119W        W36702   1.375  14.153   0.436
65120W        W36703   6.860  21.426  12.422
65121W        W36704  17.793   2.266  11.556
65122W        W36705  10.977  38.787   3.669
65123W        W36706  28.305  19.926   3.612
65124W        W36707  30.073  25.417  13.081
65125W        W36708  29.368   9.850  14.352
65126W        W36709   0.890   1.765   2.742
65127W        W36710  38.583   9.317   3.575
65128W        W36711   7.175  22.051  13.952
65129W        W36712  24.683  21.305  12.448
65130W        W36713  17.034  28.010   1.314
65131W        W36714  37.671   6.376  10.526
65132W        W36715  30.096  39.962  14.006
65133W        W36716  23.049  28.573  11.450
65134W        W36717  39.837  40.064  12.811
65135W        W36718  39.937  25.046   1.620
65136W        W36719  33.540  44.844  10.553
65137W        W36720  31.872  11.237   1.913
65138W        W36721  38.402  15.615   4.757
65139W        W36722   0.825  19.111  12.279
65140W        W36723  30.436   5.926   2.786
65141W        W36724  17.840  13.044  12.505
65142W        W36725  18.482  16.201   2.793
65143W        W36726  14.577  43.024   4.134
65144W        W36727  38.070  39.609  11.195
65145W        W36728  21.438  30.127  14.770
65146W        W36729  34.049  32.490   4.387
65147W        W36730  34.898  37.328   2.136
65148W        W36731  19.799  27.060  12.394
65149W        W36732  43.244  12.994  14.900
65150W        W36733  40.480  44.230  14.927
65151W        W36734  18.768  40.038  11.265
65152W        W36735  35.098  42.357   1.810
65153W        W36736   1.709   0.658  13.993
65154W        W36737   9.627  13.988  14.833
65155W        W36738   9.101   4.354  14.394
65156W        W36739  40.906  16.410  14.693
65157W        W36740   9.822  34.658  12.073
65158W        W36741  28.006  14.749  13.992
65159W        W36742   8.736  17.633   3.345
65160W        W36743  31.421  24.208  11.894
65161W        W36744   7.165   1.274   4.259
65162W        W36745  16.285  30.374   3.351
65163W        W36746   6.894   1.988  13.419
65164W        W36747  21.543  35.144  11.882
65165W        W36748  24.088  24.996   2.934
65166W        W36749  25.037  36.993   0.400
65167W        W36750  19.415   9.911   4.617
65168W        W36751  32.506  28.075  11.736
65169W        W36752  12.775   0.029   2.753
65170W        W36753   6.396  18.017   3.522
65171W        W36754  14.928  11.019   0.015
65172W        W36755  42.715  26.664  12.986
65173W        W36756  37.005   3.721   3.189
65174W        W36757  11.756   3.064  10.246
65175W        W36758  18.759  26.729   1.501
65176W        W36759   4.700   3.414   3.248
65177W        W36760  26.628   0.922   1.697
65178W        W36761   0.384   7.645  11.116
65179W        W36762  15.111  41.061  12.552
65180W        W36763  17.802  27.851   1.675
65181W        W36764  27.611   8.803   0.331
65182W        W36765  31.045  37.589  13.862
65183W        W36766  16.694   7.325   1.455
65184W        W36767   3.786  23.585   1.693
65185W        W36768   4.435  33.324   0.146
65186W        W36769   4.871  43.374  14.033
65187W        W36770   6.809  14.250   0.947
65188W        W36771  16.273  42.523  13.415
65189W        W36772  28.574  44.872  14.250
65190W        W36773   6.649  23.734  12.195
65191W        W36774  32.844  10.201   0.291
65192W        W36775   8.890   7.879   4.154
65193W        W36776   4.662  35.972  14.762
65194W        W36777  17.645  15.647   2.407
65195W        W36778  34.501  32.705   3.767
65196W        W36779  28.522  20.751  13.420
65197W        W36780  16.478  18.082   1.382
65198W        W36781  32.948  15.302   2.774
65199W        W36782   4.755  10.869   2.370
65200W        W36783  17.638  38.830  13.941
65201W        W36784  24.444  42.370  13.932
65202W        W36785  12.180  24.504   5.010
65203W        W36786  22.074  33.020   3.675
65204W        W36787   2.353  32.120   4.274
65205W        W36788  42.796  28.568   0.930
65206W        W36789  28.945  12.193  10.656
65207W        W36790  32.627  27.163   3.675
65208W        W36791   5.831  20.245   4.923
65209W        W36792  41.860   7.053   3.668
65210W        W36793   4.104  43.366  13.505
65211W        W36794  38.913  11.649  11.002
65212W        W36795   4.215  12.630  12.340
65213W        W36796  41.777  36.350   1.242
65214W        W36797  42.513  34.025   2.304
65215W        W36798  30.197   6.215  12.744
65216W        W36799  22.955  16.199  13.865
65217W        W36800  36.306   8.713   1.308
65218W        W36801  20.558  34.887   0.638
65219W        W36802  37.351  30.180   1.183
65220W        W36803  16.943   3.088  10.865
65221W        W36804   9.899  17.075   2.201
65222W        W36805  43.234  39.240  10.142
65223W        W36806  17.502  19.151  11.334
65224W        W36807  28.719  17.702  13.560
65225W        W36808  16.547  10.768  11.170
65226W        W36809  12.204   6.451  12.462
65227W        W36810  39.073  14.394   1.378
65228W        W36811  10.794  18.180  11.634
65229W        W36812  36.385   1.199   3.710
65230W        W36813   6.575  14.137  12.776
65231W        W36814  23.609  40.167   4.168
65232W        W36815   4.220  29.080   5.045
65233W        W36816   6.058  29.737  13.068
65234W        W36817  35.291  11.700  12.137
65235W        W36818  23.140  21.731  14.698
65236W        W36819  43.532  18.698   0.899
65237W        W36820  34.900  15.063  11.986
65238W        W36821   2.972  29.528  10.823
65239W        W36822  14.852  17.006  11.552
65240W        W36823  20.298  23.609  10.241
65241W        W36824   8.698  20.214   4.670
65242W        W36825  42.836  22.982  10.853
65243W        W36826  25.442  40.058  12.028
65244W        W36827  31.897  23.625  12.585
65245W        W36828   0.302  24.219   2.223
65246W        W36829   6.368  33.023  13.142
65247W        W36830  15.073   9.119  11.979
65248W        W36831  28.074  10.768  14.970
65249W        W36832  36.167  42.425   3.497
65250W        W36833  19.496  21.038  14.125
65251W        W36834  33.042  40.941   2.292
65252W        W36835   7.718  17.722   3.448
65253W        W36836  31.676  41.836   1.158
65254W        W36837  25.515  24.292   4.890
65255W        W36838   6.925  39.770  13.833
65256W        W36839  31.686   2.749  14.278
65257W        W36840  32.440   7.861  13.063
65258W        W36841   5.876  21.139  14.345
65259W        W36842  23.682   8.407  11.078
65260W        W36843  33.536   3.128   1.359
65261W        W36844  26.910   7.116  13.585
65262W        W36845  15.557  39.420  11.584
65263W        W36846  37.458  38.552  10.417
65264W        W36847   0.894  40.404   5.169
65265W        W36848  24.129  38.379  12.084
65266W        W36849   9.383  41.964   3.222
65267W        W36850  16.488  18.655  11.714
65268W        W36851  33.820  22.674   1.495
65269W        W36852  39.810  13.941  13.923
65270W        W36853  29.708  25.893   1.401
65271W        W36854  35.634  22.545   1.861
65272W        W36855  40.861  29.861  11.610
65273W        W36856  15.795   8.953   3.287
65274W        W36857  31.342   0.718  13.417
65275W        W36858  18.761  10.396  12.616
65276W        W36859   0.956  41.198   4.598
65277W        W36860  35.075   0.781  13.995
65278W        W36861  18.106   5.414   1.511
65279W        W36862  37.356   4.194   0.621
65280W        W36863  30.135  37.873  10.836
65281W        W36864  39.926  35.648  12.412
65282W        W36865  39.606  17.897  12.055
65283W        W36866  27.930  40.355  12.035
65284W        W36867   5.408  17.869   3.735
65285W        W36868  38.278  36.640  13.423
65286W        W36869  29.529  25.975   2.788
65287W        W36870  16.323  11.711   4.571
65288W        W36871  38.910  24.700   3.697
65289W        W36872   6.746  25.728   0.405
65290W        W36873  19.229  33.790   4.513
65291W        W36874   1.715  33.305   2.193
65292W        W36875   5.399  17.165   2.240
65293W        W36876  12.868  44.769  10.883
65294W        W36877  26.138  19.045  14.401
65295W        W36878  35.201   6.158  13.920
65296W        W36879  36.386  42.763  13.528
65297W        W36880  21.250   7.955  13.359
65298W        W36881  22.276  26.495  12.512
65299W        W36882   5.015  24.621   2.688
65300W        W36883  12.585  18.693  13.873
65301W        W36884  31.128  36.672  11.131
65302W        W36885  28.584   4.990   0.043
65303W        W36886  43.676  43.821  12.152
65304W        W36887  37.909  36.415   1.203
65305W        W36888   8.066  24.096   2.606
65306W        W36889   7.236  12.955   1.701
65307W        W36890  10.270   0.673   3.559
65308W        W36891  19.680  28.932  10.433
65309W        W36892   3.205   4.640  11.251
65310W        W36893  31.441  34.724  12.569
65311W        W36894  28.893  32.232  10.967
65312W        W36895   3.091  20.312  10.857
65313W        W36896  12.194  24.631  14.358
65314W        W36897   6.436  24.704   0.711
65315W        W36898  13.110  39.403  14.341
65316W        W36899  38.806  29.381   3.216
65317W        W36900  35.953  21.166  11.633
65318W        W36901  28.716  33.644  12.954
65319W        W36902  35.028  28.615   0.998
65320W        W36903  38.725   2.919  11.089
65321W        W36904  31.904   8.610   4.741
65322W        W36905  19.183  28.963   3.446
65323W        W36906  25.610  10.040  10.644
65324W        W36907  35.432   7.680   4.152
65325W        W36908   1.512  41.170  13.083
65326W        W36909  33.554   8.899  13.406
65327W        W36910   1.779  13.590  14.063
65328W        W36911  33.664  17.775  11.100
65329W        W36912  44.542  42.328   2.587
65330W        W36913  29.627  33.222  12.864
65331W        W36914  35.094  17.754  14.964
65332W        W36915  25.649   3.720   3.209
65333W        W36916  35.364  44.952   3.091
65334W        W36917  24.587  23.021  11.107
65335W        W36918   1.884  15.665  13.600
65336W        W36919  23.681  31.631  14.493
65337W        W36920  40.434  42.286  11.485
65338W        W36921  34.448   6.803  14.485
65339W        W36922  44.388   6.961   1.754
65340W        W36923  24.438   9.773  12.534
65341W        W36924  17.796  16.196   1.295
65342W        W36925  31.395  43.287  11.192
65343W        W36926   1.090  35.986  13.290
65344W        W36927  21.705  44.709  10.803
65345W        W36928  34.710   2.789  13.820
65346W        W36929  27.901  43.780  11.061
65347W        W36930   2.459  13.529   1.456
65348W        W36931  37.871  35.328  14.440
65349W        W36932   6.265  20.181  10.402
65350W        W36933   6.362  38.806   2.112
65351W        W36934  25.047  30.387   1.191
65352W        W36935  40.598  16.719  12.763
65353W        W36936  42.973  24.764  11.617
65354W        W36937  24.281  41.127   2.796
65355W        W36938   3.889  39.627   2.721
65356W        W36939   8.565   8.802   1.178
65357W        W36940  26.548  42.881  12.615
65358W        W36941  30.835   1.587  13.390
65359W        W36942  33.891   8.548  10.748
65360W        W36943  38.601  22.619   1.853
65361W        W36944  26.239  26.075   2.185
65362W        W36945   6.184   3.299   2.742
65363W        W36946   0.948   1.408   0.543
65364W        W36947  40.763  43.548   1.046
65365W        W36948  21.471  32.285   4.167
65366W        W36949   1.040  32.643  11.575
65367W        W36950  40.027   2.434   4.413
65368W        W36951  20.274  27.616  11.169
65369W        W36952  24.510  25.143  13.881
65370W        W36953   8.116  30.906  12.632
65371W        W36954  42.343  34.913  11.507
65372W        W36955  34.940  20.073  11.557
65373W        W36956   7.780  14.300  12.207
65374W        W36957   9.245  15.368  14.256
65375W        W36958  23.679  44.570   0.314
65376W        W36959   9.848  42.959  12.167
65377W        W36960  34.596  33.347   3.792
65378W        W36961   3.510  20.211   4.287
65379W        W36962   3.323  22.532   4.522
65380W        W36963  10.397  19.612  10.684
65381W        W36964  44.561  27.344   3.182
65382W        W36965  33.214  36.599  10.756
65383W        W36966  21.790  27.871  11.151
65384W        W36967  33.806  19.628   0.346
65385W        W36968  17.965   3.156   2.843
65386W        W36969  31.057  26.179   1.337
65387W        W36970  27.187  15.824   1.976
65388W        W36971  23.141  29.143   5.421
65389W        W36972  33.368  28.634  11.132
65390W        W36973  22.763  22.673   3.584
65391W        W36974  25.197   1.451   0.550
65392W        W36975  18.341   1.809  14.926
65393W        W36976  17.741  41.606   4.022
65394W        W36977  12.838  44.967  11.826
65395W        W36978  28.286  12.512  13.308
65396W        W36979  21.322   6.931  13.445
65397W        W36980  22.075  42.235  13.452
65398W        W36981   4.509  39.993   4.757
65399W        W36982  21.160  35.368   1.713
65400W        W36983   2.685   2.636   2.293
65401W        W36984  39.112   1.295   4.191
65402W        W36985  42.790  15.599  10.313
65403W        W36986  24.775  10.104  14.459
65404W        W36987   4.954  43.477   1.674
65405W        W36988   1.342   4.689   1.328
65406W        W36989  35.419  44.195  11.102
65407W        W36990  37.657   1.736  14.810
65408W        W36991  24.540  41.293  10.741
65409W        W36992  29.766  34.906   1.896
65410W        W36993   0.960  21.167  14.416
65411W        W36994  11.773  22.226  12.159
65412W        W36995  25.915  27.664  14.584
65413W        W36996  17.589   9.038  14.327
65414W        W36997  21.280  23.280  13.386
65415W        W36998  38.571   7.695  12.023
65416W        W36999  18.743  16.389   4.188
65417W        W37000  41.711  29.533   2.509
65418W        W37001  39.341  13.122  11.641
65419W        W37002  35.641  37.622   3.124
65420W        W37003  31.206  34.860  11.784
65421W        W37004  16.177   8.687   2.258
65422W        W37005  29.983  40.550   3.697
65423W        W37006  34.433   7.311   3.281
65424W        W37007   8.205  34.999   3.338
65425W        W37008  17.532  35.153  10.229
65426W        W37009  14.087  14.776   0.196
65427W        W37010  19.917  41.237  10.201
65428W        W37011  39.761  39.187   2.912
65429W        W37012  25.440  12.779  14.949
65430W        W37013  38.158  24.158  12.936
65431W        W37014  14.274  15.819   0.794
65432W        W37015  36.142  24.748  12.730
65433W        W37016  40.413  12.061   2.098
65434W        W37017   4.600  17.621   4.140
65435W        W37018  13.586  10.710   0.026
65436W        W37019  18.706  17.257  11.058
65437W        W37020  26.234  17.919   2.810
65438W        W37021  10.539  41.274   2.266
65439W        W37022   1.838  27.497   0.087
65440W        W37023  12.863   1.236  11.515
65441W        W37024  13.234  43.348   0.802
65442W        W37025  43.145  10.956   2.029
65443W        W37026  30.129   1.402   2.421
65444W        W37027   7.879  26.955   4.696
65445W        W37028  32.029  16.259  11.957
65446W        W37029   0.015  17.701  13.276
65447W        W37030  33.972   3.596   1.499
65448W        W37031  38.507  43.913  11.517
65449W        W37032   5.237   0.076  10.941
65450W        W37033  31.997  31.550   1.787
65451W        W37034  23.390  10.344  10.632
65452W        W37035  39.456  31.919  12.484
65453W        W37036  44.300  15.550  14.454
65454W        W37037  14.765  26.975  14.843
65455W        W37038  41.450  27.871  14.796
65456W        W37039  35.057  15.269   2.672
65457W        W37040  38.897  32.122   4.429
65458W        W37041  30.884  43.930  11.114
65459W        W37042  25.280  12.675  13.465
65460W        W37043  36.772  20.730  13.116
65461W        W37044  27.758  10.460  10.219
65462W        W37045   3.770   1.498   3.772
65463W        W37046  34.935  17.605   0.444
65464W        W37047  23.747  36.000  12.986
65465W        W37048  23.590  23.603   4.008
65466W        W37049  14.171  40.706   2.603
65467W        W37050  11.040   2.103  10.797
65468W        W37051  26.153   0.924   0.947
65469W        W37052   6.162   1.879  12.641
65470W        W37053  31.049   2.065  13.400
65471W        W37054  28.168   8.773  12.178
65472W        W37055  17.545  24.098  10.700
65473W        W37056   8.415  28.833   2.458
65474W        W37057  17.139  16.388   0.596
65475W        W37058  16.678  12.392   3.410
65476W        W37059  42.236   6.408   1.260
65477W        W37060  36.552  39.349   1.758
65478W        W37061  28.584   9.317   1.002
65479W        W37062  42.007   7.723   0.396
65480W        W37063  16.543  34.057  11.028
65481W        W37064  43.229   1.875  14.574
65482W        W37065  30.025  18.531  13.265
65483W        W37066  35.375  34.595  14.786
65484W        W37067   6.083  29.538   0.693
65485W        W37068  14.150  36.354  10.698
65486W        W37069  38.532  23.214  12.876
65487W        W37070   4.888  28.504  12.011
65488W        W37071  40.767  11.744   1.770
65489W        W37072  29.557  44.430   0.927
65490W        W37073  34.408  24.270   2.836
65491W        W37074  11.086  40.447   3.740
65492W        W37075  28.194  24.453  12.612
65493W        W37076  14.203  24.925   1.681
65494W        W37077  40.840   7.341  11.095
65495W        W37078  19.114  35.581  13.761
65496W        W37079  42.431  11.683   2.459
65497W        W37080  18.163  39.560   0.684
65498W        W37081  27.494  42.971  10.522
65499W        W37082  30.764  34.554  10.996
65500W        W37083  32.415  21.265   3.807
65501W        W37084  32.052  16.353   2.896
65502W        W37085   1.938  10.490  10.494
65503W        W37086  41.266  23.233   2.290
65504W        W37087  24.275  29.561   0.328
65505W        W37088   8.271   0.179  11.955
65506W        W37089  34.463  33.692  12.436
65507W        W37090  42.433   7.728   0.731
65508W        W37091   1.817  19.731  13.434
65509W        W37092   8.256  17.035   3.238
65510W        W37093  14.623  35.595  14.309
65511W        W37094  27.430  15.211   0.916
65512W        W37095  22.464  38.179   0.471
65513W        W37096  20.099  23.671  12.165
65514W        W37097  18.770  23.128   0.874
65515W        W37098  30.635  17.959   2.887
65516W        W37099  41.386  42.794  12.670
65517W        W37100  20.598  36.191  12.964
65518W        W37101  42.203  20.529   4.672
65519W        W37102   2.813  33.950  14.466
65520W        W37103  10.246  28.140   0.967
65521W        W37104  22.543  42.303   2.737
65522W        W37105  38.896  16.601   3.904
65523W        W37106  37.367  44.974  10.917
65524W        W37107  22.066   3.338   0.867
65525W        W37108  12.774  20.510   0.369
65526W        W37109  19.823  16.607  13.812
65527W        W37110   7.240   6.881  11.737
65528W        W37111  27.346  43.456   0.184
65529W        W37112  44.295  29.103   4.549
65530W        W37113  34.124  11.318   1.377
65531W        W37114  35.540  11.849   4.938
65532W        W37115   3.964  22.525  12.888
65533W        W37116  29.715  43.564   2.790
65534W        W37117  23.114  36.384   2.874
65535W        W37118   8.137  32.859   2.761
65536W        W37119  42.528  43.248   2.724
65537W        W37120  27.146  43.516  12.071
65538W        W37121  30.109  24.504  14.788
65539W        W37122   6.880  20.588   1.566
65540W        W37123  38.888  31.140  10.455
65541W        W37124   5.224  29.922  12.826
65542W        W37125  10.013  17.891   1.026
65543W        W37126   7.970  15.713  14.460
65544W        W37127  25.596  37.820   2.728
65545W        W37128   0.989   1.961  13.988
65546W        W37129  32.536  42.407  12.014
65547W        W37130  39.365   9.412   0.475
65548W        W37131  33.409  37.804   3.350
65549W        W37132  26.503  11.237  14.061
65550W        W37133  15.735  30.872  11.615
65551W        W37134  42.544   4.396  13.989
65552W        W37135   3.916  37.138  12.302
65553W        W37136  33.297   3.761  12.028
65554W        W37137  38.444  15.056   1.696
65555W        W37138  17.101  30.419  14.803
65556W        W37139  12.581   8.092  10.530
65557W        W37140   1.914  34.264  13.412
65558W        W37141   4.355  31.865  12.730
65559W        W37142   0.217  15.247   3.201
65560W        W37143  27.495  38.261   3.684
65561W        W37144  38.086  31.596  13.491
65562W        W37145  14.006  38.878  13.958
65563W        W37146  21.170   2.885   4.613
65564W        W37147  35.528   3.038  11.087
65565W        W37148  19.702  40.450  13.432
65566W        W37149   2.405   3.326  13.404
65567W        W37150  37.571  25.002  10.791
65568W        W37151   2.814   2.465   0.722
65569W        W37152  39.561  34.419  13.425
65570W        W37153  41.355  12.824   0.814
65571W        W37154   6.408   5.925   3.332
65572W        W37155  39.749  39.638  13.074
65573W        W37156  38.116  40.853  13.447
65574W        W37157  26.762  40.865  10.502
65575W        W37158   4.252   6.754   3.386
65576W        W37159  10.141  35.044   1.316
65577W        W37160  41.802  43.930   4.792
65578W        W37161  11.952   0.581   2.413
65579W        W37162  36.401  18.220  13.297
65580W        W37163  29.274  13.848  11.558
65581W        W37164  37.339   9.057   5.288
65582W        W37165   7.305  14.081   0.766
65583W        W37166  32.685  21.746  10.504
65584W        W37167  19.917  17.614   1.896
65585W        W37168   5.409  38.949   3.131
65586W        W37169  21.159  23.453   2.251
65587W        W37170  29.048  15.682  14.293
65588W        W37171   0.523   2.462  14.897
65589W        W37172  39.184  18.683  14.360
65590W        W37173  17.247   3.255  14.971
65591W        W37174  37.849  34.665   0.550
65592W        W37175   8.737  42.058   1.927
65593W        W37176  16.585   9.695  14.311
65594W        W37177  41.203  10.111  12.321
65595W        W37178  22.685  28.091   4.585
65596W        W37179  34.940  43.538  10.543
65597W        W37180   1.563  31.953  12.063
65598W        W37181  22.186  42.080   4.173
65599W        W37182   0.581  37.602   3.237
65600W        W37183   2.060  32.010   1.376
65601W        W37184   9.123  25.142   3.321
65602W        W37185   0.752  16.820   0.877
65603W        W37186  42.000  15.392  10.685
65604W        W37187   5.899  20.986   1.854
65605W        W37188  35.337   1.802  14.414
65606W        W37189  39.085   6.411   2.811
65607W        W37190  11.638  27.161   3.716
65608W        W37191  31.568  29.776  10.519
65609W        W37192  11.839  28.534  14.350
65610W        W37193   4.320  41.798  11.184
65611W        W37194  29.561  10.915   2.342
65612W        W37195  32.531  36.442  13.321
65613W        W37196  40.239  32.371   4.049
65614W        W37197  44.185  30.339  11.201
65615W        W37198  26.624   2.504   0.013
65616W        W37199  13.510  42.035   2.826
65617W        W37200  38.925  10.863   4.107
65618W        W37201  17.607  21.515  10.683
65619W        W37202  11.315   1.965  14.750
65620W        W37203  37.804  31.269   2.154
65621W        W37204  17.069   4.229  12.911
65622W        W37205  38.899  35.702  10.554
65623W        W37206   9.950  28.886  14.562
65624W        W37207  35.831  28.925   4.522
65625W        W37208  33.364  13.251   2.298
65626W        W37209  34.159  39.458   3.376
65627W        W37210  38.353  29.073  13.934
65628W        W37211  12.582  26.205  13.884
65629W        W37212  10.292  44.021   0.430
65630W        W37213   7.833  24.471  12.348
65631W        W37214  12.223  34.915  13.420
65632W        W37215  24.720  41.694   0.292
65633W        W37216  35.973   3.258  13.793
65634W        W37217  19.470  33.608  14.380
65635W        W37218   8.263  39.283  14.787
65636W        W37219  43.707  42.258   4.104
65637W        W37220  22.676   6.367  12.028
65638W        W37221  31.834  27.040  14.977
65639W        W37222  42.370  16.674  11.713
65640W        W37223  19.012  36.605  11.900
65641W        W37224  41.769   7.244   0.405
65642W        W37225  33.184  32.880  11.132
65643W        W37226  38.583  42.340  13.988
65644W        W37227  17.681  26.233   4.238
65645W        W37228  19.551  23.677   1.844
65646W        W37229  14.638   0.916  12.094
65647W        W37230   5.218  26.073  10.643
65648W        W37231  10.135  44.856   2.244
65649W        W37232  42.847  16.823  11.617
65650W        W37233  10.680   0.215  10.622
65651W        W37234   0.522  27.077  11.662
65652W        W37235  26.658  43.986  11.469
65653W        W37236   4.901  20.891   0.892
65654W        W37237   6.807   9.171  12.031
65655W        W37238  39.089  43.901   4.777
65656W        W37239  14.835   6.435   2.178
65657W        W37240  15.721  22.811  11.897
65658W        W37241  30.396  19.628  14.626
65659W        W37242  31.628  34.391  12.930
65660W        W37243  26.535  15.407   0.759
65661W        W37244  25.882  17.194   1.681
65662W        W37245  13.732   8.395  10.778
65663W        W37246  17.099   2.592   1.435
65664W        W37247  18.004   7.201  14.291
65665W        W37248  31.030  33.879   3.164
65666W        W37249  23.295  30.596  11.671
65667W        W37250  19.206  35.685  14.464
65668W        W37251  32.387  26.011   1.255
65669W        W37252  11.835  39.125   4.533
65670W        W37253  19.703  43.247   4.654
65671W        W37254   9.766  37.058   0.823
65672W        W37255  41.332   4.048  14.856
65673W        W37256   3.985  37.906   0.443
65674W        W37257  21.751  13.654  10.955
65675W        W37258  35.767  29.097   1.959
65676W        W37259  15.787  40.552  14.504
65677W        W37260   3.874  17.637  11.589
65678W        W37261  24.213  39.931   2.304
65679W        W37262  33.964   1.731   4.283
65680W        W37263   1.722  13.161   3.542
65681W        W37264  20.964  35.961  12.115
65682W        W37265  20.640  10.874  11.146
65683W        W37266  14.085  41.071   0.551
65684W        W37267  31.258  31.125   1.328
65685W        W37268  13.921  29.098  12.827
65686W        W37269   3.627  17.092  12.387
65687W        W37270  27.173  18.200  13.325
65688W        W37271  13.131  44.730  10.455
65689W        W37272  25.427  41.174   1.350
65690W        W37273  28.844  30.588  12.451
65691W        W37274  26.191  30.455   4.152
65692W        W37275  25.648  37.944  10.707
65693W        W37276  15.073  23.119  12.486
65694W        W37277  27.191  10.327   4.074
65695W        W37278   6.233  29.479  10.704
65696W        W37279  33.923   2.451  13.585
65697W        W37280  23.699  24.722   0.475
65698W        W37281  10.294  39.481   4.520
65699W        W37282   1.747   3.908  13.932
65700W        W37283  43.834  22.209   1.250
65701W        W37284   7.288  40.321   1.342
65702W        W37285   0.484  44.402  11.994
65703W        W37286  43.881  21.185   1.341
65704W        W37287   8.804  16.304  13.501
65705W        W37288  37.534  33.465   2.469
65706W        W37289  11.761   0.246   0.373
65707W        W37290   9.554  26.127   0.188
65708W        W37291  38.277  37.909   2.713
65709W        W37292  29.106  43.491   4.161
65710W        W37293  14.603   9.400  12.013
65711W        W37294  38.962  29.439   0.920
65712W        W37295  44.968  38.431   4.636
65713W        W37296  30.137  36.632  11.234
65714W        W37297  15.701   8.478   1.416
65715W        W37298  25.230  28.507   2.632
65716W        W37299  33.466  20.619   0.915
65717W        W37300   1.796  43.398  12.350
65718W        W37301  24.767   0.932   2.747
65719W        W37302  25.381  21.055   2.164
65720W        W37303  27.954  40.001  12.562
65721W        W37304  17.175  19.627   1.635
65722W        W37305   7.597  28.058   3.208
65723W        W37306   4.941  16.301  13.125
65724W        W37307   9.787   3.969   1.585
65725W        W37308  42.476  42.548  10.917
65726W        W37309  40.044  27.996  14.714
65727W        W37310  43.357  13.775  12.142
65728W        W37311  34.619  16.595  13.837
65729W        W37312  39.775  33.643  11.164
65730W        W37313  32.992  40.273   1.765
65731W        W37314  18.729  25.691   3.414
65732W        W37315  20.515   4.405  13.761
65733W        W37316  28.928  32.640  11.274
65734W        W37317  32.948  22.985  12.313
65735W        W37318   9.767   6.631   0.155
65736W        W37319  12.759  12.086   1.378
65737W        W37320  37.908  41.570   0.274
65738W        W37321  29.551  36.931   0.880
65739W        W37322  15.447  42.869   4.674
65740W        W37323  33.091   1.029   2.671
65741W        W37324  32.671  16.573   4.171
65742W        W37325  12.635  11.167  10.664
65743W        W37326  12.693  37.544  12.743
65744W        W37327  14.111  24.524  12.839
65745W        W37328   3.230  43.024  13.256
65746W        W37329   4.761  42.776   4.624
65747W        W37330  41.280  29.085   2.812
65748W        W37331   4.287  18.663   0.033
65749W        W37332  34.524  13.237  14.847
65750W        W37333  36.904   1.397  10.678
65751W        W37334  32.117  12.371  11.988
65752W        W37335  43.988  26.020  14.054
65753W        W37336  10.370  25.904   3.713
65754W        W37337   2.425  29.222  11.505
65755W        W37338  20.774  33.079   4.120
65756W        W37339   9.353  12.605   4.253
65757W        W37340  34.993  42.805   3.306
65758W        W37341  26.609   4.372   3.840
65759W        W37342  25.891  21.131   4.097
65760W        W37343  41.990  34.852  12.039
65761W        W37344  26.512  40.959  11.457
65762W        W37345  13.178  41.928  14.686
65763W        W37346  20.645  27.657  12.507
65764W        W37347  16.923   5.537   4.318
65765W        W37348  38.455  37.358   3.613
65766W        W37349  14.349  22.801  11.034
65767W        W37350  33.528  44.301   2.618
65768W        W37351  16.489  35.920  13.473
65769W        W37352  35.504  35.477   1.791
65770W        W37353   9.824  24.934  14.936
65771W        W37354  41.464  16.252   0.653
65772W        W37355   1.704  33.381   1.174
65773W        W37356  25.711  16.117   3.552
65774W        W37357  10.358  30.068   3.394
65775W        W37358  43.856  18.476  11.611
65776W        W37359  37.112  11.292   1.120
65777W        W37360  33.520  37.155  12.044
65778W        W37361  12.148   6.953   0.844
65779W        W37362  23.492  21.720  13.784
65780W        W37363  21.666  16.048   3.031
65781W        W37364  23.750   5.704   2.434
65782W        W37365  18.980  27.944   1.524
65783W        W37366  23.210  40.681   0.007
65784W        W37367   3.462  23.853  14.816
65785W        W37368  20.459  22.271  12.880
65786W        W37369  11.702  10.717   1.043
65787W        W37370  24.575  34.469   1.896
65788W        W37371  38.911  36.634   3.652
65789W        W37372  26.125  25.549  12.163
65790W        W37373  34.545  29.057  12.107
65791W        W37374  14.528   1.596  11.970
65792W        W37375   1.923  11.266  13.389
65793W        W37376  36.870  17.634  13.984
65794W        W37377  39.501  16.412   1.722
65795W        W37378  18.007  16.058   4.639
65796W        W37379   0.158  23.101  10.663
65797W        W37380  14.152  33.161  12.318
65798W        W37381  28.133  21.200   0.047
65799W        W37382   7.736   4.736   2.209
65800W        W37383  20.499   0.896   3.802
65801W        W37384  32.357  19.130  11.654
65802W        W37385  36.458  38.820   4.089
65803W        W37386  15.088  42.498   2.243
65804W        W37387  28.491  11.400  12.417
65805W        W37388  11.254  28.731   2.778
65806W        W37389   1.488  14.799   2.340
65807W        W37390   1.230  38.980   3.749
65808W        W37391  15.183  11.732  10.621
65809W        W37392  37.997   5.935   3.687
65810W        W37393  39.418  19.364   2.186
65811W        W37394  18.818  40.080  13.930
65812W        W37395   9.619   6.163  14.909
65813W        W37396  36.551  10.278  10.080
65814W        W37397  10.558   7.379  13.836
65815W        W37398  43.764  29.048   1.704
65816W        W37399   6.861  38.133  14.782
65817W        W37400  36.525   1.443   3.272
65818W        W37401  23.199  22.352  12.095
65819W        W37402  41.670   2.713   4.161
65820W        W37403  44.438  36.395   0.155
65821W        W37404  28.479  26.238   1.676
65822W        W37405   2.572  34.616  12.691
65823W        W37406   7.636  14.216   9.804
65824W        W37407  38.741  24.601  14.805
65825W        W37408  27.408  21.286   1.652
65826W        W37409   6.584  34.026   1.805
65827W        W37410  17.413  43.416  12.049
65828W        W37411  10.668  15.270  14.488
65829W        W37412   9.070  16.670   2.347
65830W        W37413  35.013   5.778  12.086
65831W        W37414  26.403   8.181   3.185
65832W        W37415   3.218  35.308   9.762
65833W        W37416  22.028  42.729  12.034
65834W        W37417  10.760  17.874  14.936
65835W        W37418  10.424  16.138   0.506
65836W        W37419  14.349  21.734  13.939
65837W        W37420  13.351  22.213  12.557
65838W        W37421  23.095  39.296   3.557
65839W        W37422  27.228  19.839   4.243
65840W        W37423   3.397  16.673  10.936
65841W        W37424  12.279  16.874  13.614
65842W        W37425  39.885  30.092   3.676
65843W        W37426  43.218  37.133   3.631
65844W        W37427  38.076  14.879  14.966
65845W        W37428  40.176  12.157  10.833
65846W        W37429  15.347   8.927   2.786
65847W        W37430  40.537   6.936   3.892
65848W        W37431  31.872   3.843  12.457
65849W        W37432  10.380  44.305   2.139
65850W        W37433  35.300   3.557  10.392
65851W        W37434  23.938  30.693   9.745
65852W        W37435   9.746   1.398   3.610
65853W        W37436  32.001  44.323  10.648
65854W        W37437  28.975  27.968  12.002
65855W        W37438   8.462   0.761   0.505
65856W        W37439   3.917  34.579  12.814
65857W        W37440  10.549  37.415  11.482
65858W        W37441  21.743  22.017  12.590
65859W        W37442   0.360  38.921  12.213
65860W        W37443  38.483  20.174  12.097
65861W        W37444   6.688  19.539  14.924
65862W        W37445   3.093  24.006   1.288
65863W        W37446  32.371  27.587   2.832
65864W        W37447  16.951  28.538   2.399
65865W        W37448   9.358  36.869   3.717
65866W        W37449  22.901  11.615   4.724
65867W        W37450  35.036   9.553  14.480
65868W        W37451  11.762  23.571   2.944
65869W        W37452   1.374  27.316  14.941
65870W        W37453  32.186  44.963   0.941
65871W        W37454  41.443  35.915  11.882
65872W        W37455  44.364  29.754   2.370
65873W        W37456  10.425   9.621  12.982
65874W        W37457  22.255  32.555   2.378
65875W        W37458  16.750  16.351  12.411
65876W        W37459  25.551   5.421  12.482
65877W        W37460  40.748  28.595   1.223
65878W        W37461  17.644  13.187   3.801
65879W        W37462   8.908   2.753   0.230
65880W        W37463  26.210  23.776   2.697
65881W        W37464  33.459   8.084   3.381
65882W        W37465   7.233  19.592  11.742
65883W        W37466  41.394  21.503   0.837
65884W        W37467  23.083  42.759  14.218
65885W        W37468   4.826  29.704   2.390
65886W        W37469  34.516   5.052   3.249
65887W        W37470  41.409  12.273   2.124
65888W        W37471   1.815   2.490  11.259
65889W        W37472  30.574  12.630  11.716
65890W        W37473   1.320  23.214   1.040
65891W        W37474  39.070  38.407   1.039
65892W        W37475  33.926  11.327  14.049
65893W        W37476  28.375  33.264  14.853
65894W        W37477   7.345   1.830   3.580
65895W        W37478   9.678   5.861  14.062
65896W        W37479  27.635  21.515   2.749
65897W        W37480  39.472  15.847  13.228
65898W        W37481   9.245   4.423  11.171
65899W        W37482  27.128  31.987   5.085
65900W        W37483   5.734   5.214  11.848
65901W        W37484  43.300  21.206   2.845
65902W        W37485   6.948  24.727  13.073
65903W        W37486  24.833  19.964   3.596
65904W        W37487   3.439   4.130  13.669
65905W        W37488  31.583  13.277   2.780
65906W        W37489  23.688  36.209  11.043
65907W        W37490  34.102  29.381   3.979
65908W        W37491  23.261   6.268   0.320
65909W        W37492   2.323  24.529  14.457
65910W        W37493   0.596  13.669  13.367
65911W        W37494  23.935  41.352   4.661
65912W        W37495   7.634  38.810   0.258
65913W        W37496   3.003  19.099  13.353
65914W        W37497   1.956  42.973   0.031
65915W        W37498  32.836  18.105  12.414
65916W        W37499   0.939  32.698  14.977
65917W        W37500  41.010  23.694   2.348
65918W        W37501  28.700  11.285  13.755
65919W        W37502   4.785  27.703  14.943
65920W        W37503   2.518  16.196  13.038
65921W        W37504   7.031  17.763   1.844
65922W        W37505   0.637  33.413   3.620
65923W        W37506  42.975   2.938   0.438
65924W        W37507  22.543  25.092   4.571
65925W        W37508  43.961  40.326  14.290
65926W        W37509   1.338  25.304  12.879
65927W        W37510  28.698  17.153   3.818
65928W        W37511  34.594   0.520   4.459
65929W        W37512  20.538   0.618   0.704
65930W        W37513  28.947   7.877  13.836
65931W        W37514   8.547  20.134   3.797
65932W        W37515  24.963  25.953  11.973
65933W        W37516   5.122  33.204   2.341
65934W        W37517  25.188  39.842  12.867
65935W        W37518   4.366  11.831   2.654
65936W        W37519   5.743  11.117   2.367
65937W        W37520   1.760  29.939   4.310
65938W        W37521  33.672  26.442   0.698
65939W        W37522   0.033  39.015   2.963
65940W        W37523  34.126  23.535  11.213
65941W        W37524  24.416  35.970  12.475
65942W        W37525  26.677  26.310   4.563
65943W        W37526  39.399  36.744   4.206
65944W        W37527   8.453  13.701  12.561
65945W        W37528   9.413  29.233  14.011
65946W        W37529  25.200   2.328  13.344
65947W        W37530  16.631   8.837  13.302
65948W        W37531   0.917   7.322  13.419
65949W        W37532   7.276  31.910  13.845
65950W        W37533  35.610   7.223  14.936
65951W        W37534  28.944  13.595  12.069
65952W        W37535  23.459  21.051   2.374
65953W        W37536  29.173  19.816   5.334
65954W        W37537  22.553   7.646  14.324
65955W        W37538  44.503  44.737   0.847
65956W        W37539  33.339   2.724  13.615
65957W        W37540   0.716  27.487  12.885
65958W        W37541  22.176  30.615   2.447
65959W        W37542  36.745  16.150  14.442
65960W        W37543  25.474   1.323  13.839
65961W        W37544  30.411  26.218  12.874
65962W        W37545  19.543  40.431  12.610
65963W        W37546  18.523  39.471   1.658
65964W        W37547  22.290  18.253  11.145
65965W        W37548  24.790  23.764   2.328
65966W        W37549  40.004  34.643  12.780
65967W        W37550   1.950  16.185  12.447
65968W        W37551  29.827   1.437  10.745
65969W        W37552  19.114  34.104   1.235
65970W        W37553   6.004  25.079  12.924
65971W        W37554  36.358   9.362  10.702
65972W        W37555  27.554  25.792   3.288
65973W        W37556  36.046  11.133   1.217
65974W        W37557  28.613  24.007  10.101
65975W        W37558  26.195   1.240  11.509
65976W        W37559  10.753  31.931  10.794
65977W        W37560  27.202  40.086  13.922
65978W        W37561   7.809  37.038   4.027
65979W        W37562  22.165  24.296   2.678
65980W        W37563   1.499   7.334   2.763
65981W        W37564   3.261  21.271  14.279
65982W        W37565   6.851  21.766   4.126
65983W        W37566   8.591   1.229   0.330
65984W        W37567  12.085  13.174  12.289
65985W        W37568  25.747  35.826  14.336
65986W        W37569  29.152   4.838   3.774
65987W        W37570  26.110  38.367  11.004
65988W        W37571  32.207  16.505  10.011
65989W        W37572  30.776   8.195  12.923
65990W        W37573  27.074  16.104  11.323
65991W        W37574  29.701   7.698   3.184
65992W        W37575  12.124  41.481   0.663
65993W        W37576  16.443   1.355   0.223
65994W        W37577  13.155  41.463   3.635
65995W        W37578  14.900   4.101  12.359
65996W        W37579  17.272  36.146   0.417
65997W        W37580   5.980  17.011  13.566
65998W        W37581  42.970  41.459   0.820
65999W        W37582  32.069  35.323  14.424
66000W        W37583   4.000  10.741  12.832
66001W        W37584  30.881  38.576  11.009
66002W        W37585  20.816  37.901  12.405
66003W        W37586   6.317  15.837  11.202
66004W        W37587  40.894   2.909   1.670
66005W        W37588  29.197   2.783  10.538
66006W        W37589   8.740  17.593  12.997
66007W        W37590  21.368  35.124   2.170
66008W        W37591  23.046  19.199  13.677
66009W        W37592  23.042  22.989   0.401
66010W        W37593  21.061   9.176   5.057
66011W        W37594  31.135  18.341   3.593
66012W        W37595  44.392  43.761   4.098
66013W        W37596  36.663   2.452   3.204
66014W        W37597  20.338  39.223   0.475
66015W        W37598  27.881  15.056  14.934
66016W        W37599  15.065  15.023   4.351
66017W        W37600  40.059  13.771   2.848
66018W        W37601  38.280  32.226   2.610
66019W        W37602   3.551   3.675   0.772
66020W        W37603  35.501  24.911  11.084
66021W        W37604  31.487  37.159   4.813
66022W        W37605  31.182  20.559  11.361
66023W        W37606  34.049  27.127  14.241
66024W        W37607  42.498   8.430   4.489
66025W        W37608  43.296  14.550   0.833
66026W        W37609  28.445   3.262   2.632
66027W        W37610  11.335  35.955   4.385
66028W        W37611  21.300   6.307   0.075
66029W        W37612  33.223  26.648  11.056
66030W        W37613   2.308   9.124  14.239
66031W        W37614  24.199   0.145   2.417
66032W        W37615  16.597   2.253   0.772
66033W        W37616  22.758  22.038   0.455
66034W        W37617   3.803  33.137   2.792
66035W        W37618  12.577  30.550   1.540
66036W        W37619  21.690  31.127   9.703
66037W        W37620  35.488   5.708   4.044
66038W        W37621   8.503   3.459  13.016
66039W        W37622   3.903  38.052   3.820
66040W        W37623  13.803   5.386  13.875
66041W        W37624  42.435  43.381  13.185
66042W        W37625  10.540  27.955  12.582
66043W        W37626  14.823  33.915  12.555
66044W        W37627  40.056  33.583   2.733
66045W        W37628  43.179  18.858   3.569
66046W        W37629  35.376  43.721   1.482
66047W        W37630  43.512  29.566   2.447
66048W        W37631  18.811   1.163  12.459
66049W        W37632  14.869  14.119  14.555
66050W        W37633  18.574  15.155   0.342
66051W        W37634  21.017  25.733   4.826
66052W        W37635  37.060  13.326   3.925
66053W        W37636  12.148  25.949  13.111
66054W        W37637  22.204   8.598  14.774
66055W        W37638  35.488  27.874  12.131
66056W        W37639   5.924  37.502   2.327
66057W        W37640  17.476  15.497   4.115
66058W        W37641   0.397  15.344   0.469
66059W        W37642  34.042   1.199   0.473
66060W        W37643  26.474   7.241  14.367
66061W        W37644  36.920  24.433  11.953
66062W        W37645  19.141   8.906   4.612
66063W        W37646  38.794  22.675   1.364
66064W        W37647  26.135  18.765   3.108
66065W        W37648   1.040   5.499  11.977
66066W        W37649  24.721  18.369  12.090
66067W        W37650   7.676  29.616   1.137
66068W        W37651  18.025  43.067   1.348
66069W        W37652  20.342  40.433   0.798
66070W        W37653  34.318   6.166   4.805
66071W        W37654  14.985  14.063  11.405
66072W        W37655  36.091   4.273  14.289
66073W        W37656  19.866  17.095   3.800
66074W        W37657  13.791  43.857   4.547
66075W        W37658  22.235  27.445  12.580
66076W        W37659   1.746  21.527  13.126
66077W        W37660  25.000   1.341  13.567
66078W        W37661   4.341  17.462  13.320
66079W        W37662  12.207  15.366  11.116
66080W        W37663  37.184  40.016   2.201
66081W        W37664  28.832  22.430  13.710
66082W        W37665  15.696  23.441  13.421
66083W        W37666  32.950  12.752  13.373
66084W        W37667  37.452  27.881  14.774
66085W        W37668  38.327  35.526  14.264
66086W        W37669  38.383  18.179  13.206
66087W        W37670  31.829  41.038  12.723
66088W        W37671  23.114  22.076  11.676
66089W        W37672   0.287  27.941  11.168
66090W        W37673  21.094  16.389   2.341
66091W        W37674  42.573   6.356   4.434
66092W        W37675   3.000  16.287  12.306
66093W        W37676  36.625   6.814  10.560
66094W        W37677  33.548  26.232   4.294
66095W        W37678   1.960  26.046  13.512
66096W        W37679  28.075  39.728  12.990
66097W        W37680  22.205   6.206   0.344
66098W        W37681  34.629  11.447   4.637
66099W        W37682  41.743  19.529   4.525
66100W        W37683  27.088  43.529  13.536
66101W        W37684  37.041  28.767  12.434
66102W        W37685  27.923  39.352   0.407
66103W        W37686  30.081  16.097   0.994
66104W        W37687  44.570  40.832  13.851
66105W        W37688  13.543  12.589  11.219
66106W        W37689  38.217  27.467  14.390
66107W        W37690   0.244   2.912  14.456
66108W        W37691  19.557   9.406   2.812
66109W        W37692  21.707  19.731   2.284
66110W        W37693  15.686  24.521  14.074
66111W        W37694   1.713  38.654  11.583
66112W        W37695  37.458  18.490   1.585
66113W        W37696   9.946   5.480  13.789
66114W        W37697  14.807  18.703   3.764
66115W        W37698  19.668  37.680  10.324
66116W        W37699   9.848  44.530  13.965
66117W        W37700  30.700   3.835   2.893
66118W        W37701  21.759  13.672   4.558
66119W        W37702   6.423  39.875  12.104
66120W        W37703   5.829   9.700   2.718
66121W        W37704  23.771  19.858   4.184
66122W        W37705  21.283  40.340  13.411
66123W        W37706  26.556  10.916   3.211
66124W        W37707   6.501  43.533   1.756
66125W        W37708  37.606  20.537   2.230
66126W        W37709  33.153  23.598   2.822
66127W        W37710  22.751  35.854  11.174
66128W        W37711  23.222   4.237  13.866
66129W        W37712  20.461  24.026  10.716
66130W        W37713  14.873  25.170   3.935
66131W        W37714  34.592  12.057  10.641
66132W        W37715  37.065  43.310  13.018
66133W        W37716  13.159  40.402   1.750
66134W        W37717  39.838  29.172   3.552
66135W        W37718  32.738  42.815   0.928
66136W        W37719   1.282  44.456   2.849
66137W        W37720  30.512  40.431   1.784
66138W        W37721  25.045  22.626  13.440
66139W        W37722  41.065  14.214   4.561
66140W        W37723  44.448  19.780   1.922
66141W        W37724  38.457  27.790  14.764
66142W        W37725  22.659   1.752  12.005
66143W        W37726  11.680   3.264  13.501
66144W        W37727  22.610   4.789  14.122
66145W        W37728  23.112  39.934   4.865
66146W        W37729  11.659  36.025   2.170
66147W        W37730  43.336  41.093   0.906
66148W        W37731  30.139  24.102  14.434
66149W        W37732  44.248  13.159   3.218
66150W        W37733   1.980  22.596   0.735
66151W        W37734  28.988  41.781  11.981
66152W        W37735  25.015  43.462  12.711
66153W        W37736  29.448  28.347  12.813
66154W        W37737  31.483  31.850  10.202
66155W        W37738   0.284  13.317  13.063
66156W        W37739  16.591   5.334  14.019
66157W        W37740   8.385  23.646   4.096
66158W        W37741   5.695  23.343   1.723
66159W        W37742  12.075  21.511  14.799
66160W        W37743  19.153   8.910   3.706
66161W        W37744  15.554  15.940  14.302
66162W        W37745   1.760  16.258  14.322
66163W        W37746  12.108  36.958  11.205
66164W        W37747  24.705  29.409   2.236
66165W        W37748   1.021  29.821  13.858
66166W        W37749  39.866  24.276  14.799
66167W        W37750  31.554   8.766   2.289
66168W        W37751  10.923  43.206  13.796
66169W        W37752   4.195  27.931   3.489
66170W        W37753  34.245  42.804   2.675
66171W        W37754  43.817  24.839  11.229
66172W        W37755  16.038  21.118  13.764
66173W        W37756  20.636  11.357  13.600
66174W        W37757   5.680   0.456  11.565
66175W        W37758  23.135  16.665   0.288
66176W        W37759  13.304  31.195  10.670
66177W        W37760   6.646  18.953  10.789
66178W        W37761   5.426  12.284  14.308
66179W        W37762  15.980  40.829  14.911
66180W        W37763  33.651  35.630   3.150
66181W        W37764   6.297   7.685  12.649
66182W        W37765  24.048  22.209   3.407
66183W        W37766  24.259  24.187  11.063
66184W        W37767   2.206  36.900  10.245
66185W        W37768  43.084   9.711   2.271
66186W        W37769   2.388  23.254   0.190
66187W        W37770  32.331   2.912  13.332
66188W        W37771  19.752  28.939   1.745
66189W        W37772  14.217   1.046   4.118
66190W        W37773  40.726  10.092  12.567
66191W        W37774   3.045   2.438   1.460
66192W        W37775  39.046  15.255  14.408
66193W        W37776   6.786   4.380  12.611
66194W        W37777  35.338  34.991   1.149
66195W        W37778   8.856  35.878   4.135
66196W        W37779  20.188  17.740   2.347
66197W        W37780  34.578  24.588  11.879
66198W        W37781  31.917  36.634  13.949
66199W        W37782  26.598  33.480   2.858
66200W        W37783  41.361  10.881  12.494
66201W        W37784  10.741  35.612  11.095
66202W        W37785  40.713  33.684  14.414
66203W        W37786  16.562  15.518  10.556
66204W        W37787  10.443  15.999  13.541
66205W        W37788  42.719  34.855  10.789
66206W        W37789  28.968  20.530  14.414
66207W        W37790  20.486  17.601   0.329
66208W        W37791  16.078   5.896  14.035
66209W        W37792  12.354  27.459  11.980
66210W        W37793  19.674  40.938   4.049
66211W        W37794   1.486  43.035  10.371
66212W        W37795  38.789  30.611   2.786
66213W        W37796  14.025   4.762   4.955
66214W        W37797  10.188  38.501  11.693
66215W        W37798   6.479   9.215  14.381
66216W        W37799  26.919  21.224  14.075
66217W        W37800  37.358  22.604   1.501
66218W        W37801  28.592  33.404   1.835
66219W        W37802  17.170  38.401   4.934
66220W        W37803  34.660   7.204  11.209
66221W        W37804   1.446  10.398  11.383
66222W        W37805  16.761  33.374   0.799
66223W        W37806  12.641   0.142  13.763
66224W        W37807  36.811  23.185   4.684
66225W        W37808  26.947  43.660   2.769
66226W        W37809  26.036   8.583  11.891
66227W        W37810   6.460  32.644  14.599
66228W        W37811   2.720  29.628  11.274
66229W        W37812  43.283  22.167  12.551
66230W        W37813  40.318  29.003   1.788
66231W        W37814  14.136  44.255  11.725
66232W        W37815  26.084   5.235  11.156
66233W        W37816   8.136  15.584  11.041
66234W        W37817   1.915  33.106  11.496
66235W        W37818  16.257   4.253   3.340
66236W        W37819  25.932   9.336  14.921
66237W        W37820  26.078  27.624   2.823
66238W        W37821   2.342  41.097   0.344
66239W        W37822  27.032  13.817   2.603
66240W        W37823  28.634  34.775   0.004
66241W        W37824  23.759   6.552  13.090
66242W        W37825  10.600  40.915   4.475
66243W        W37826  36.571  40.941   0.311
66244W        W37827  20.434  19.821  12.298
66245W        W37828  24.453  26.020   1.644
66246W        W37829  19.866   9.264   3.617
66247W        W37830  32.582  23.135  13.936
66248W        W37831  30.130  31.790   9.767
66249W        W37832  35.000   9.685  11.400
66250W        W37833  25.642  36.862   3.224
66251W        W37834  29.524   7.679   4.617
66252W        W37835  31.535   2.283   2.647
66253W        W37836  24.989  16.685   3.692
66254W        W37837   3.983  38.307  13.063
66255W        W37838   0.522  10.832  14.464
66256W        W37839  30.072  15.994  11.631
66257W        W37840  25.947   3.310  13.975
66258W        W37841   1.015  13.089   0.718
66259W        W37842  38.607  37.134  13.025
66260W        W37843  39.983  23.576   4.093
66261W        W37844  19.676  13.191   4.626
66262W        W37845  32.635  23.297   0.342
66263W        W37846   0.673  31.796   2.876
66264W        W37847   3.002  23.803  14.045
66265W        W37848   8.420  13.257  12.900
66266W        W37849   2.756  43.734  11.193
66267W        W37850  19.027  34.644  12.982
66268W        W37851  28.101   5.181  14.927
66269W        W37852  24.606  38.709   4.269
66270W        W37853  41.583  27.531   4.367
66271W        W37854   6.804  24.378   1.542
66272W        W37855   1.653  40.345   3.588
66273W        W37856  18.631  27.951  12.105
66274W        W37857   4.105  16.333   4.741
66275W        W37858  42.390  19.667   0.755
66276W        W37859  16.748   9.843   2.827
66277W        W37860   9.302  43.795   3.176
66278W        W37861  32.893  43.972   2.783
66279W        W37862  25.443  35.732   4.950
66280W        W37863   6.044  28.073   2.901
66281W        W37864  38.027  20.785  12.627
66282W        W37865  43.291  35.142  12.813
66283W        W37866   2.593  44.029  12.979
66284W        W37867  30.002  34.449  13.887
66285W        W37868  15.579   0.246  11.113
66286W        W37869  16.672  24.452  14.067
66287W        W37870   6.281  10.177  11.296
66288W        W37871  25.270   5.945  10.345
66289W        W37872  17.782  43.349  14.352
66290W        W37873  44.818  24.356  12.059
66291W        W37874   1.638   6.272   2.886
66292W        W37875   1.206  31.032   3.367
66293W        W37876  11.305  29.492  11.555
66294W        W37877   0.026  27.227   2.786
66295W        W37878   8.709   9.204   0.001
66296W        W37879  43.380  31.078  14.364
66297W        W37880  39.778  11.686   1.969
66298W        W37881  31.928  36.810   4.123
66299W        W37882  41.911  26.464  14.820
66300W        W37883  22.736  12.590   4.568
66301W        W37884   1.431  41.026   1.604
66302W        W37885  30.894  19.532  12.012
66303W        W37886   2.252  11.438  14.787
66304W        W37887  38.421  43.482  14.903
66305W        W37888  27.543  25.478   0.892
66306W        W37889  25.769  39.837   1.329
66307W        W37890  35.928  30.571   4.561
66308W        W37891  42.898   0.253  13.347
66309W        W37892  23.766  24.188   0.285
66310W        W37893  42.385  23.065   1.684
66311W        W37894  39.763   3.918  10.493
66312W        W37895  30.493  43.815  11.547
66313W        W37896   5.116  18.183  11.672
66314W        W37897  35.650  29.635   1.226
66315W        W37898  25.950   1.244   1.945
66316W        W37899  22.072  13.279  11.840
66317W        W37900   8.088   2.364  14.793
66318W        W37901   8.546  14.160  14.276
66319W        W37902  12.184  15.733  11.499
66320W        W37903  21.112  28.380  10.647
66321W        W37904  41.825   6.447  13.157
66322W        W37905   1.531  16.937  11.578
66323W        W37906  10.367  22.457  11.523
66324W        W37907  44.140  17.976  12.961
66325W        W37908  23.051  41.488   0.929
66326W        W37909   2.440  33.023   2.262
66327W        W37910  30.238  22.558  13.871
66328W        W37911  27.607  16.580   0.224
66329W        W37912  26.243  39.391  13.817
66330W        W37913  18.252  23.205  12.655
66331W        W37914  44.376   6.410   0.675
66332W        W37915  30.005   8.810   3.812
66333W        W37916  14.968  22.859   1.812
66334W        W37917  43.719  31.410  14.577
66335W        W37918  23.724  26.965  13.443
66336W        W37919  10.311  38.385   3.384
66337W        W37920  14.709  36.456  12.426
66338W        W37921  24.670  10.856   1.772
66339W        W37922   3.118   0.778  11.212
66340W        W37923  25.662  37.739  13.540
66341W        W37924  44.393  35.278   3.195
66342W        W37925  14.021  44.971  14.340
66343W        W37926  18.719   8.941   0.683
66344W        W37927   5.474  14.191   5.121
66345W        W37928  35.525  38.539   3.665
66346W        W37929   2.478  35.897  14.049
66347W        W37930  28.388  12.142  11.938
66348W        W37931  34.087  18.853   3.075
66349W        W37932   5.855   3.977  14.222
66350W        W37933  13.230   2.896  11.999
66351W        W37934  41.500  19.833  10.711
66352W        W37935  12.037  24.154  11.213
66353W        W37936  24.362   4.043  13.010
66354W        W37937  26.582   1.053   3.090
66355W        W37938  44.317   7.908   0.296
66356W        W37939  10.843  41.708  14.002
66357W        W37940   4.804  44.056  14.505
66358W        W37941   5.874  29.530   3.778
66359W        W37942   1.479  44.818  14.473
66360W        W37943  28.265  34.568  10.279
66361W        W37944  25.596  33.948  12.856
66362W        W37945   3.371  36.467   1.191
66363W        W37946   4.015  25.254   2.446
66364W        W37947   9.204  22.161   3.087
66365W        W37948  41.231  43.214   0.293
66366W        W37949  38.578   5.171   1.262
66367W        W37950  18.056  26.443   0.204
66368W        W37951   8.742  24.796   3.448
66369W        W37952  25.020  43.383  10.833
66370W        W37953  19.673  31.675  14.785
66371W        W37954  29.528   1.941  11.429
66372W        W37955  29.132   2.822   1.424
66373W        W37956  37.387  30.081   0.194
66374W        W37957   2.455  27.922  13.893
66375W        W37958   3.419  37.467  14.098
66376W        W37959  19.709  42.893  11.502
66377W        W37960  14.292  19.311   3.148
66378W        W37961  19.839  33.362   2.714
66379W        W37962  25.995  41.616   3.772
66380W        W37963  15.629  25.862   1.755
66381W        W37964  28.062  27.399   1.188
66382W        W37965   8.929   3.251   0.404
66383W        W37966   8.149  12.676  11.598
66384W        W37967  37.992  31.961  14.232
66385W        W37968  43.922  18.610  14.676
66386W        W37969  28.723  24.089  13.898
66387W        W37970  30.102  11.429  13.288
66388W        W37971  38.158  18.761   3.707
66389W        W37972  18.581  24.674   2.113
66390W        W37973   4.805   3.537  12.189
66391W        W37974  39.125  13.582  11.611
66392W        W37975  21.034  13.100   1.936
66393W        W37976  16.913  24.052   1.189
66394W        W37977   3.924   8.924  12.075
66395W        W37978  30.350   3.241   3.169
66396W        W37979  28.165  20.260   2.774
66397W        W37980  35.805  23.926   4.686
66398W        W37981   7.078  23.131  14.707
66399W        W37982  33.956  40.602   2.608
66400W        W37983  35.689  43.757  14.039
66401W        W37984  27.012  32.813  14.589
66402W        W37985  15.501  39.125   2.088
66403W        W37986   0.316  27.116   0.443
66404W        W37987   0.032   8.713  13.842
66405W        W37988  17.824  41.504   1.669
66406W        W37989  39.863  27.479   4.697
66407W        W37990  25.957  36.187   0.986
66408W        W37991  19.775  41.874  13.463
66409W        W37992  26.826  23.339   3.203
66410W        W37993  30.620  28.560   4.624
66411W        W37994  10.139  18.983   0.884
66412W        W37995  21.974  40.518  10.753
66413W        W37996  37.106  22.051   4.776
66414W        W37997  32.991  12.766   0.372
66415W        W37998  25.636  39.321  12.563
66416W        W37999   9.804  25.780  13.993
66417W        W38000  14.134  18.202  12.087
66418W        W38001  28.951  26.621   4.083
66419W        W38002  27.814   3.517   3.869
66420W        W38003  44.105  35.577   2.799
66421W        W38004  13.216  29.179  13.435
66422W        W38005   1.744  36.342  11.054
66423W        W38006  34.606  19.320   1.521
66424W        W38007  29.235  34.511   4.364
66425W        W38008  44.961   2.748  11.504
66426W        W38009  39.285   2.933   2.906
66427W        W38010  17.660  14.358  13.951
66428W        W38011  43.242   2.036   4.120
66429W        W38012  41.426  12.352   0.606
66430W        W38013  38.759   5.213  13.890
66431W        W38014  37.203  10.056   1.915
66432W        W38015  10.800  29.235   1.330
66433W        W38016   8.985  23.175  12.583
66434W        W38017  10.255  31.318  11.244
66435W        W38018   4.053  33.051   1.309
66436W        W38019   6.903  32.718  14.851
66437W        W38020  33.575   5.715   3.734
66438W        W38021  42.436  34.913   3.340
66439W        W38022  17.307   4.932   0.093
66440W        W38023  38.920  29.968   0.849
66441W        W38024  27.656  25.647   1.962
66442W        W38025   9.729  13.521  14.425
66443W        W38026  11.303  31.901  10.742
66444W        W38027  27.665  12.615  13.844
66445W        W38028  36.452  12.444  13.100
66446W        W38029  11.640  41.222  13.578
66447W        W38030  38.833   7.964  14.378
66448W        W38031  14.676  11.834  12.438
66449W        W38032  37.201  14.793   4.603
66450W        W38033  10.312  36.341   3.716
66451W        W38034   5.924  21.999  11.614
66452W        W38035  32.682  26.629  14.886
66453W        W38036  11.589  17.024   3.745
66454W        W38037  44.299  22.761  14.559
66455W        W38038  29.651  30.441  11.186
66456W        W38039  25.115  10.373  12.598
66457W        W38040  20.364  30.040  10.996
66458W        W38041  27.514  40.747  11.005
66459W        W38042  36.242  27.724  10.517
66460W        W38043  39.308  32.441   2.300
66461W        W38044  32.485   1.253   2.839
66462W        W38045  11.936  34.047  12.172
66463W        W38046  24.014  30.027  12.928
66464W        W38047  27.963  14.793  10.703
66465W        W38048   3.857  32.654  14.874
66466W        W38049   3.192  36.515  13.088
66467W        W38050  24.297  27.664  12.050
66468W        W38051  14.496   7.681  11.552
66469W        W38052  27.574  32.933  14.443
66470W        W38053   8.339  29.707   3.915
66471W        W38054  14.300  11.891   0.842
66472W        W38055   6.799  15.837   0.968
66473W        W38056   6.601  25.118   4.662
66474W        W38057  28.689  25.703  13.986
66475W        W38058   1.875   3.948   4.170
66476W        W38059   5.685  17.721   4.147
66477W        W38060  28.517   5.716  13.071
66478W        W38061  16.145   1.825  13.107
66479W        W38062  36.084  28.176   3.362
66480W        W38063  18.081  29.955  13.959
66481W        W38064   9.587  27.889   0.245
66482W        W38065  32.960  15.620  13.807
66483W        W38066  11.918  41.893  11.745
66484W        W38067  27.164  15.592  12.677
66485W        W38068  42.391   4.506   4.634
66486W        W38069  26.054  29.245   3.629
66487W        W38070  17.105  30.089  14.381
66488W        W38071  41.591   2.400  13.058
66489W        W38072  28.999  40.834   3.318
66490W        W38073  10.550  40.197   3.970
66491W        W38074  32.333  20.748  13.018
66492W        W38075   0.913  41.913   3.338
66493W        W38076   4.609  10.898  11.845
66494W        W38077  40.589   9.521  14.915
66495W        W38078  34.055  41.389  11.324
66496W        W38079   5.929  23.218   2.340
66497W        W38080   3.142  20.119   0.782
66498W        W38081  31.561  30.437   4.668
66499W        W38082  16.839   7.087  13.029
66500W        W38083   5.190   5.661   4.576
66501W        W38084  28.360  37.548  10.471
66502W        W38085   6.514   3.847   0.986
66503W        W38086   8.388  24.647  13.909
66504W        W38087  29.666  25.158  14.931
66505W        W38088  42.881  19.679   2.353
66506W        W38089   9.904  44.376  10.705
66507W        W38090  20.611  39.584  14.681
66508W        W38091  13.625  16.414  13.336
66509W        W38092  20.043  29.993   4.454
66510W        W38093   8.641  32.929   2.744
66511W        W38094  35.838   9.136  13.474
66512W        W38095   3.736  15.583   0.818
66513W        W38096  27.409   4.516  12.094
66514W        W38097  33.646  20.709  14.292
66515W        W38098  35.484  28.753  13.074
66516W        W38099   3.179  27.141   4.577
66517W        W38100   1.007  12.407   5.327
66518W        W38101   9.055   5.767   4.854
66519W        W38102  28.542  29.462   1.966
66520W        W38103  32.921  40.510  12.065
66521W        W38104   9.670  27.480   4.168
66522W        W38105  15.601  37.823   2.694
66523W        W38106  31.817  10.250  12.580
66524W        W38107  18.587  29.686   4.108
66525W        W38108   8.966   6.197  14.113
66526W        W38109   4.665  12.090  13.468
66527W        W38110  44.677  27.438  14.488
66528W        W38111   9.203  42.992   1.693
66529W        W38112  22.453  33.515  11.045
66530W        W38113  28.101  25.075  10.090
66531W        W38114  32.413  25.914  12.115
66532W        W38115  25.213  10.740  14.050
66533W        W38116  43.044  24.536   1.251
66534W        W38117  20.016   4.704   2.689
66535W        W38118  42.379  27.329   3.647
66536W        W38119  16.782  33.125  13.594
66537W        W38120  42.188  19.010  14.336
66538W        W38121  34.148  36.635   3.106
66539W        W38122  17.142  29.959   4.925
66540W        W38123  10.376  31.313   1.921
66541W        W38124   2.021  23.515  13.903
66542W        W38125  44.261  10.856   1.201
66543W        W38126  30.891  44.651  11.160
66544W        W38127  14.199  25.532  13.891
66545W        W38128  30.513  16.294  10.761
66546W        W38129   1.214  18.625   1.725
66547W        W38130  43.981  15.614   4.308
66548W        W38131  23.782  42.852  13.717
66549W        W38132  33.804   3.757  12.025
66550W        W38133   2.052  30.986   3.563
66551W        W38134  31.603  30.900  10.441
66552W        W38135   7.615  40.392   0.848
66553W        W38136  34.368  23.757  14.073
66554W        W38137   3.842   4.190   4.902
66555W        W38138   7.622  15.030   0.804
66556W        W38139  17.395  28.388  13.757
66557W        W38140   6.346  40.274   1.330
66558W        W38141  43.744  31.073  11.585
66559W        W38142  36.952  29.007   1.424
66560W        W38143  19.315  44.234   0.082
66561W        W38144  30.742  16.775  13.468
66562W        W38145  31.168   8.918   4.156
66563W        W38146  36.941   7.593   3.055
66564W        W38147  13.848  16.132   1.977
66565W        W38148  36.380  40.025   0.461
66566W        W38149  22.273  13.886  13.032
66567W        W38150   1.975  43.901   0.523
66568W        W38151  37.072  12.740  14.208
66569W        W38152  17.523   7.648   1.408
66570W        W38153  19.760  35.312   4.174
66571W        W38154   4.061  36.582  11.107
66572W        W38155   5.391  34.365  10.590
66573W        W38156   3.421  23.199   1.769
66574W        W38157  28.497  38.265  12.851
66575W        W38158  15.091  36.908  11.870
66576W        W38159   5.688  11.897  10.802
66577W        W38160  10.321  29.289  10.351
66578W        W38161   0.436  16.684   3.796
66579W        W38162  15.134   9.014  10.948
66580W        W38163  44.509  33.860   1.764
66581W        W38164  22.308  11.862  11.986
66582W        W38165  23.198  33.505   0.827
66583W        W38166   8.216  21.338   4.058
66584W        W38167  19.531  26.258  11.251
66585W        W38168  32.535  24.047   1.147
66586W        W38169   1.443  36.400  11.482
66587W        W38170  25.431  43.454  11.147
66588W        W38171  25.547  40.396  10.664
66589W        W38172  14.718  19.234  14.471
66590W        W38173   8.619  36.853  12.586
66591W        W38174   5.404   6.318   2.176
66592W        W38175   9.293  22.695  12.655
66593W        W38176  29.063  43.373  14.912
66594W        W38177  24.817  12.230   4.703
66595W        W38178  12.622   9.663  13.368
66596W        W38179  38.712  20.977   4.983
66597W        W38180   3.843  10.080  14.934
66598W        W38181   4.466  38.378  13.961
66599W        W38182  32.842  10.917  13.571
66600W        W38183  18.066  28.088  11.234
66601W        W38184  28.160  38.059  12.493
66602W        W38185   4.294  11.620   2.172
66603W        W38186  14.329  14.611  11.818
66604W        W38187  16.668  39.270   1.154
66605W        W38188  19.991  41.633  12.368
66606W        W38189  31.854  21.685   2.774
66607W        W38190  28.752   7.911  12.416
66608W        W38191  33.056   5.964  12.431
66609W        W38192  12.117  40.071  14.477
66610W        W38193   9.524  22.572  11.161
66611W        W38194  11.898  42.551  14.798
66612W        W38195  33.445  34.786   0.489
66613W        W38196  16.642  25.883   4.071
66614W        W38197  34.178  22.185   0.210
66615W        W38198  31.427  41.288  13.075
66616W        W38199  22.281  35.942   0.358
66617W        W38200  44.020  18.418   3.848
66618W        W38201  36.540   3.753  13.526
66619W        W38202  14.138  39.234   1.990
66620W        W38203  41.901  21.140   1.718
66621W        W38204  29.076  16.144   3.207
66622W        W38205   6.530  17.051  12.493
66623W        W38206  24.660  14.431  13.276
66624W        W38207  28.052  28.131   2.458
66625W        W38208   5.437  14.261  12.316
66626W        W38209  27.137   3.252   0.690
66627W        W38210  20.951  34.001   0.497
66628W        W38211   1.934  44.007  10.661
66629W        W38212  42.418  22.677  13.455
66630W        W38213  36.986  41.316   3.702
66631W        W38214  40.089   7.744  14.897
66632W        W38215   7.295  24.429   1.802
66633W        W38216  23.410   9.310   9.390
66634W        W38217  37.419  41.908  14.007
66635W        W38218   2.067  42.776  12.061
66636W        W38219   8.992  13.290   1.230
66637W        W38220  22.210  43.769   2.388
66638W        W38221   3.404  14.794  13.887
66639W        W38222  30.204  32.030   4.686
66640W        W38223  14.369   1.546  12.452
66641W        W38224  25.119  35.370  11.921
66642W        W38225  20.621  34.781  14.456
66643W        W38226  15.868  44.422  14.529
66644W        W38227  38.022  25.171   1.687
66645W        W38228  18.757  29.881  14.472
66646W        W38229   0.148   3.225  11.451
66647W        W38230  41.334  27.173   1.837
66648W        W38231  41.973  27.382  12.094
66649W        W38232  37.294   3.066   1.245
66650W        W38233   0.867  32.892   4.363
66651W        W38234  31.026  30.245  10.564
66652W        W38235  24.668  38.995  13.338
66653W        W38236  16.523  13.679  11.099
66654W        W38237  40.745  22.182   4.210
66655W        W38238  31.184   8.848  10.803
66656W        W38239  11.750   7.779  10.947
66657W        W38240  22.244  11.833  11.103
66658W        W38241  24.469   7.415   3.826
66659W        W38242   0.487   3.238   3.516
66660W        W38243   1.811  36.335  11.851
66661W        W38244  14.619  20.772  11.903
66662W        W38245   3.476  41.805  12.884
66663W        W38246  23.461   6.976  11.152
66664W        W38247  19.003  32.442   4.491
66665W        W38248   6.426  42.824  12.951
66666W        W38249  37.338  38.498   2.304
66667W        W38250  28.308   2.061  11.121
66668W        W38251  10.659  13.111  13.944
66669W        W38252   1.808  10.391   2.754
66670W        W38253  20.053  17.194  13.012
66671W        W38254  22.222  43.947   4.103
66672W        W38255   1.430  16.500  13.849
66673W        W38256  27.242  37.365   1.280
66674W        W38257  38.772  23.973  13.574
66675W        W38258  25.158  16.504   4.144
66676W        W38259  28.229  21.274  11.898
66677W        W38260   2.763  24.156   4.593
66678W        W38261  23.209  31.497   2.623
66679W        W38262  43.406  20.334  11.581
66680W        W38263  18.589  44.252  13.790
66681W        W38264   3.321  42.979   0.849
66682W        W38265   4.819   8.597  14.986
66683W        W38266  24.043  36.117  14.897
66684W        W38267   9.152   1.631  11.480
66685W        W38268  40.332   6.074  11.480
66686W        W38269  10.658  26.495  12.047
66687W        W38270   8.611  13.073  12.428
66688W        W38271   6.159  22.429  14.340
66689W        W38272   7.271  11.570   0.352
66690W        W38273   3.508  43.496  14.526
66691W        W38274  40.491   8.362  13.123
66692W        W38275  19.422  10.848   4.586
66693W        W38276  12.200  18.430  14.731
66694W        W38277  20.569  15.261  11.612
66695W        W38278  16.585  36.374   2.375
66696W        W38279   0.451  13.735   0.451
66697W        W38280   8.153  10.797  13.894
66698W        W38281   6.256  28.280   0.932
66699W        W38282   1.473  41.518   0.490
66700W        W38283  37.983  33.495  10.194
66701W        W38284  19.090  30.369  11.381
66702W        W38285  21.955   2.010   5.137
66703W        W38286  14.409  44.511  14.896
66704W        W38287  12.739  12.918   1.753
66705W        W38288  18.301  33.499  13.402
66706W        W38289  14.704  31.118  13.131
66707W        W38290  29.349  40.370  12.029
66708W        W38291  35.495  22.993   3.811
66709W        W38292  25.618  42.146  12.847
66710W        W38293  39.967  43.182   1.311
66711W        W38294  40.681  31.947   4.483
66712W        W38295  37.019  15.265  12.722
66713W        W38296  30.860  32.978  12.937
66714W        W38297  16.220  25.585   2.418
66715W        W38298   1.872  10.318   1.839
66716W        W38299  37.766  15.561   2.240
66717W        W38300  28.228  29.083  12.617
66718W        W38301  20.576   5.650   3.560
66719W        W38302  22.215   4.777   1.800
66720W        W38303  20.226  15.221   4.103
66721W        W38304  18.824   5.452  12.001
66722W        W38305  13.407   2.490  11.202
66723W        W38306  25.055  11.332   0.920
66724W        W38307   0.811  26.193  10.630
66725W        W38308  32.194  44.379  13.388
66726W        W38309  24.098   6.473  13.882
66727W        W38310  43.345  31.595  14.246
66728W        W38311   4.670  23.731  13.465
66729W        W38312  30.093  32.940   3.296
66730W        W38313  44.960  14.679  10.907
66731W        W38314   1.382   3.889   0.415
66732W        W38315  36.791  40.996  11.199
66733W        W38316   3.105   5.440   1.759
66734W        W38317  25.296  32.552   2.171
66735W        W38318  21.177   4.254  10.654
66736W        W38319  28.022  16.509  12.052
66737W        W38320  23.481  12.406  10.419
66738W        W38321  43.492  41.374   4.432
66739W        W38322  12.258  28.244  11.659
66740W        W38323   0.583  28.582  14.611
66741W        W38324  23.763  11.323   4.868
66742W        W38325  17.844   4.412  13.378
66743W        W38326  19.303  38.800   3.603
66744W        W38327   3.655  43.744  10.692
66745W        W38328  29.009   6.457   3.684
66746W        W38329  44.451   7.382  10.726
66747W        W38330  18.043  15.825  11.412
66748W        W38331  10.259  15.741   0.831
66749W        W38332   6.363  34.533  14.242
66750W        W38333  28.137  18.163  13.687
66751W        W38334  28.406  16.757  10.551
66752W        W38335  18.506  36.597   3.111
66753W        W38336  39.856   4.732  11.979
66754W        W38337  18.179  15.003  14.792
66755W        W38338   0.821  39.110  11.949
66756W        W38339  11.719  18.097   4.565
66757W        W38340   2.974   7.872  12.609
66758W        W38341  30.553  35.349   0.804
66759W        W38342  17.115  30.545  11.907
66760W        W38343  40.542   4.977   2.218
66761W        W38344  23.692  25.559  13.831
66762W        W38345  10.247   4.214   3.225
66763W        W38346  26.145  31.661  13.898
66764W        W38347  32.447  27.124   2.262
66765W        W38348  38.427  12.028   2.783
66766W        W38349  21.406  21.506  13.426
66767W        W38350   7.816  40.750  10.436
66768W        W38351  35.905  34.569  14.792
66769W        W38352  23.945   8.624   1.038
66770W        W38353  13.119   1.924   3.872
66771W        W38354  28.599   5.698   1.299
66772W        W38355  42.817  25.636   4.523
66773W        W38356  34.920   1.478  10.696
66774W        W38357   7.958  34.074  10.536
66775W        W38358  26.862  11.384   3.670
66776W        W38359  30.474  39.096  13.484
66777W        W38360  36.882   5.950   1.351
66778W        W38361   8.313  17.713  11.006
66779W        W38362  13.610  30.529  12.197
66780W        W38363  17.558  40.465   3.276
66781W        W38364  30.219  17.729   0.415
66782W        W38365  12.870  40.842  12.986
66783W        W38366  35.126  44.971  14.509
66784W        W38367  31.658  22.358   3.733
66785W        W38368  43.853  17.554   2.005
66786W        W38369   8.286  36.483   3.684
66787W        W38370  16.012   9.421  11.228
66788W        W38371   5.473  15.865   3.399
66789W        W38372   9.329  25.451   4.639
66790W        W38373  19.076  10.378  11.028
66791W        W38374  28.002  44.834   0.427
66792W        W38375  20.659   6.830   4.538
66793W        W38376  21.464   0.198  10.908
66794W        W38377  12.618  30.974  14.426
66795W        W38378  31.170  23.152   2.781
66796W        W38379  20.686   3.709   3.786
66797W        W38380  19.473   4.769   3.429
66798W        W38381  20.685  11.366  11.000
66799W        W38382  40.081   9.112   3.589
66800W        W38383   8.388   1.455  12.028
66801W        W38384   8.144  35.093   0.764
66802W        W38385   9.243  39.598  13.701
66803W        W38386  43.989  21.563   0.423
66804W        W38387  25.455  12.986   4.396
66805W        W38388  24.593  23.653  14.691
66806W        W38389  23.298  44.182  12.521
66807W        W38390  10.347  17.181   0.671
66808W        W38391  37.369  14.159   1.576
66809W        W38392  38.234  29.635   4.569
66810W        W38393   1.283  32.213  13.645
66811W        W38394  13.922   2.280  11.428
66812W        W38395  17.865  12.927  11.998
66813W        W38396  24.623  19.564  12.031
66814W        W38397  42.848  43.978  12.468
66815W        W38398  28.528  40.289  14.791
66816W        W38399   4.878  14.767   1.335
66817W        W38400  13.284  35.835  13.036
66818W        W38401  29.738  25.370   0.817
66819W        W38402   8.240  29.224   4.064
66820W        W38403  27.668  38.814  14.843
66821W        W38404   0.883  30.166  12.485
66822W        W38405  22.612  37.993  14.989
66823W        W38406  38.545  24.006   1.901
66824W        W38407  44.318  10.303   3.230
66825W        W38408   3.171  30.592   4.086
66826W        W38409  34.883   5.375   0.290
66827W        W38410  41.373  32.046   2.726
66828W        W38411   9.779  30.577   0.919
66829W        W38412  10.617  16.225  11.060
66830W        W38413  20.927   0.381  11.890
66831W        W38414  18.871  40.167  10.095
66832W        W38415  26.914  33.118   4.241
66833W        W38416  36.151  15.252  12.944
66834W        W38417  32.334  23.737   3.268
66835W        W38418  15.830  43.198   2.703
66836W        W38419  25.413  42.980  12.367
66837W        W38420   8.987   9.611  14.830
66838W        W38421  34.423  34.583   4.630
66839W        W38422  13.530   9.279  14.055
66840W        W38423  37.580   8.155  11.095
66841W        W38424   9.438   4.759   4.119
66842W        W38425  22.076   2.028  11.182
66843W        W38426  33.061  44.948   4.437
66844W        W38427  15.325  44.230  10.611
66845W        W38428  17.074  37.356   3.635
66846W        W38429  43.276   9.675  14.461
66847W        W38430  22.527  27.126  12.851
66848W        W38431  36.590   8.704  13.040
66849W        W38432   4.459  14.218   2.985
66850W        W38433  21.177   7.185  12.968
66851W        W38434  25.773  19.749   1.373
66852W        W38435  28.421   5.005   4.881
66853W        W38436  16.657  20.684   4.675
66854W        W38437  39.970  18.036  12.425
66855W        W38438  42.956  26.164   1.260
66856W        W38439  12.135  36.315  13.337
66857W        W38440  43.663  39.513   3.326
66858W        W38441   0.935  36.517   0.470
66859W        W38442  33.167  34.023   4.875
66860W        W38443  21.292   4.809   0.012
66861W        W38444  35.421  29.716  10.884
66862W        W38445  19.988  26.048   3.101
66863W        W38446  13.169   1.383   1.781
66864W        W38447   1.862  43.414  14.762
66865W        W38448  21.844  43.225  11.905
66866W        W38449  32.639  43.963  14.111
66867W        W38450  12.680  25.074   4.551
66868W        W38451  10.766   7.977   4.065
66869W        W38452  27.842  41.401  13.461
66870W        W38453  44.499  19.343   3.879
66871W        W38454  17.396  14.372   0.395
66872W        W38455   7.287  29.792  11.897
66873W        W38456  22.102  18.756  12.377
66874W        W38457  18.593  33.580   4.224
66875W        W38458  32.003  15.407   0.701
66876W        W38459   8.417  18.582  10.708
66877W        W38460  32.463  32.935   0.888
66878W        W38461  13.040   9.202  13.948
66879W        W38462  40.501   7.466   3.513
66880W        W38463  13.033  28.874  10.831
66881W        W38464  35.664  34.893  12.541
66882W        W38465  22.590  39.949   3.684
66883W        W38466  20.180  44.281  10.416
66884W        W38467  26.797   1.782  12.913
66885W        W38468  22.924   9.350  10.148
66886W        W38469  32.100  31.786   3.314
66887W        W38470  22.823   1.280   4.672
66888W        W38471  15.629  33.560   0.404
66889W        W38472  36.060  33.610   1.646
66890W        W38473   9.896  18.689  14.303
66891W        W38474  41.104   7.864  11.975
66892W        W38475  42.012  34.436  13.026
66893W        W38476  25.222  25.103   5.187
66894W        W38477  41.271   2.347  11.137
66895W        W38478  44.511  10.144  11.996
66896W        W38479  14.192  16.865  12.467
66897W        W38480  27.849  16.068   0.004
66898W        W38481  25.251   5.929   0.324
66899W        W38482  18.035  34.036  12.099
66900W        W38483  10.201   9.854   3.686
66901W        W38484  34.868  30.567   3.448
66902W        W38485  15.681   8.244   0.275
66903W        W38486  43.256  28.699  11.579
66904W        W38487  29.950   0.862   3.283
66905W        W38488  18.728  26.711   0.513
66906W        W38489  43.394   1.888  10.625
66907W        W38490  30.847   0.792   1.169
66908W        W38491  24.976  29.975   3.896
66909W        W38492  31.691  27.618   0.796
66910W        W38493   8.322   1.232   0.776
66911W        W38494   6.339  10.151   0.930
66912W        W38495  10.216   5.368   3.256
66913W        W38496   3.371  36.014   4.088
66914W        W38497  14.372   3.410   4.309
66915W        W38498  39.753  29.939  11.117
66916W        W38499  27.951  25.870  11.657
66917W        W38500  32.894  38.570   2.456
66918W        W38501  24.178  13.205   3.171
66919W        W38502  26.698   6.198   1.891
66920W        W38503  36.091   3.803   3.254
66921W        W38504  21.317  31.113  12.826
66922W        W38505  31.575   1.456  11.891
66923W        W38506   0.089  13.838  14.325
66924W        W38507   9.284  16.099  13.547
66925W        W38508  36.049  36.330   4.130
66926W        W38509  22.419  14.784  10.407
66927W        W38510   9.253  44.726  14.905
66928W        W38511  34.591   9.992  11.569
66929W        W38512  25.093  27.677  14.698
66930W        W38513  32.016  32.136  14.990
66931W        W38514  14.243  23.207   0.065
66932W        W38515  24.454  37.939   1.218
66933W        W38516   3.927   7.711  14.777
66934W        W38517  16.233  41.040   4.504
66935W        W38518  23.627  44.733   3.698
66936W        W38519  29.491   4.711  14.651
66937W        W38520   9.302  25.042  14.075
66938W        W38521  33.156   4.456   1.462
66939W        W38522  16.814  26.003  10.678
66940W        W38523  39.846  41.302  12.438
66941W        W38524  39.488  39.404   2.147
66942W        W38525   2.138  25.677  14.364
66943W        W38526  17.353  12.743   2.348
66944W        W38527  33.964   5.168  12.926
66945W        W38528   6.763  36.614   1.245
66946W        W38529  15.943  38.028   9.768
66947W        W38530   2.334  23.229  11.023
66948W        W38531  25.758  10.138   1.497
66949W        W38532  35.469  40.831   4.257
66950W        W38533  43.149   5.757  11.169
66951W        W38534  14.335  10.368   2.509
66952W        W38535  28.461  22.528   1.880
66953W        W38536   6.113  25.422  14.198
66954W        W38537  41.915   2.802  13.465
66955W        W38538  13.221  10.754   4.708
66956W        W38539  36.089  37.032  13.873
66957W        W38540  30.700  38.915   0.851
66958W        W38541  14.509  28.956   3.870
66959W        W38542  19.193  34.137  12.698
66960W        W38543  37.876  18.059  14.015
66961W        W38544  17.591  39.776  11.550
66962W        W38545  24.978   5.484  13.418
66963W        W38546  29.185  21.215  13.007
66964W        W38547  38.818  24.201   1.209
66965W        W38548  27.849   3.474  11.170
66966W        W38549  13.692  10.143  13.249
66967W        W38550  39.733   4.821   4.098
66968W        W38551  18.485  32.178  14.491
66969W        W38552  28.544   9.586  12.031
66970W        W38553  33.524   8.801   0.489
66971W        W38554  27.542   9.048  12.832
66972W        W38555  31.879  40.371  11.086
66973W        W38556  26.073   2.281  10.503
66974W        W38557   0.585   0.311  10.678
66975W        W38558  23.711  40.024  10.744
66976W        W38559   8.367  22.587   4.886
66977W        W38560   4.956  23.048  11.552
66978W        W38561   4.390   5.560   2.659
66979W        W38562  32.089  13.297   2.814
66980W        W38563  27.147   0.733   0.913
66981W        W38564  43.753  40.306   0.934
66982W        W38565  36.482  37.379   3.963
66983W        W38566   0.836   1.304  11.658
66984W        W38567   7.650  34.993   4.480
66985W        W38568  35.815  34.416   0.825
66986W        W38569  20.072  15.283  10.836
66987W        W38570  40.576  37.049   2.807
66988W        W38571  12.704  40.893   4.746
66989W        W38572  44.593  30.464   0.941
66990W        W38573  22.649  12.283   3.303
66991W        W38574  29.539   7.160   4.576
66992W        W38575  42.503   7.634   0.222
66993W        W38576  29.930  43.852  14.402
66994W        W38577   0.331  15.827   0.281
66995W        W38578  19.107  34.974  12.601
66996W        W38579  23.980  30.644  10.947
66997W        W38580  38.461  41.247   1.035
66998W        W38581  19.527  23.887   9.798
66999W        W38582  31.571  20.261  14.157
67000W        W38583  36.635  13.696   1.409
67001W        W38584   5.832  10.435  11.413
67002W        W38585  42.545  20.665   3.681
67003W        W38586  20.218   5.185  11.258
67004W        W38587  42.643  10.245   9.959
67005W        W38588  17.324  24.058   0.817
67006W        W38589   7.928  39.135   2.754
67007W        W38590  41.857  20.766  14.801
67008W        W38591   0.218  44.501   0.215
67009W        W38592  42.423  28.154  11.515
67010W        W38593  34.322  37.503  12.467
67011W        W38594  37.985  37.367   3.854
67012W        W38595  21.251   4.851   0.946
67013W        W38596  43.496  34.336   2.789
67014W        W38597  24.721  15.245  11.614
67015W        W38598  40.099  11.646  14.372
67016W        W38599   5.881  37.020   1.200
67017W        W38600   1.437  27.022  12.686
67018W        W38601  25.340   4.872  14.276
67019W        W38602  36.999  10.600   0.302
67020W        W38603   4.483   9.350  12.974
67021W        W38604  37.451  37.433   1.174
67022W        W38605  18.514  37.383  11.646
67023W        W38606  44.036  33.779  13.286
67024W        W38607  17.626   7.133  13.965
67025W        W38608   4.305  30.774  14.823
67026W        W38609   1.904  15.030   2.144
67027W        W38610  22.677  23.487   2.264
67028W        W38611  10.328  20.600  13.944
67029W        W38612   1.909  19.611   1.104
67030W        W38613  39.940   1.637  14.329
67031W        W38614   0.036  12.082  14.225
67032W        W38615   5.775  44.435   3.103
67033W        W38616  24.954   7.296   3.657
67034W        W38617  13.810  36.176   0.563
67035W        W38618  29.645  39.548   0.507
67036W        W38619  38.344   0.012   0.016
67037W        W38620  44.348  38.919   3.161
67038W        W38621  37.465  42.586  14.945
67039W        W38622  27.405  44.254   4.293
67040W        W38623  13.030  28.072   1.762
67041W        W38624   8.287  29.763   3.378
67042W        W38625  14.750  34.608   4.660
67043W        W38626  30.153  30.793  10.580
67044W        W38627   3.230  36.280   3.672
67045W        W38628   9.422  32.961  13.563
67046W        W38629  43.912   1.307   4.748
67047W        W38630  20.719  33.660  11.139
67048W        W38631   3.989  39.123   2.645
67049W        W38632   1.798  21.216  11.486
67050W        W38633   7.389  20.704  12.532
67051W        W38634  34.376   6.989  11.587
67052W        W38635   4.926  23.579  10.743
67053W        W38636  31.493  27.143   0.684
67054W        W38637  42.757  43.613  14.061
67055W        W38638  25.651  21.615  11.627
67056W        W38639  13.041  26.544   1.274
67057W        W38640   6.945   8.574  14.343
67058W        W38641  33.639  36.466   0.095
67059W        W38642  18.308  30.482   4.625
67060W        W38643  41.844   1.426   2.414
67061W        W38644  13.019  34.150  12.934
67062W        W38645  39.269  13.226   4.087
67063W        W38646  39.351  27.833   3.587
67064W        W38647  35.742  10.238   3.443
67065W        W38648  29.945   9.879   3.659
67066W        W38649  24.010  40.486  14.269
67067W        W38650  29.662  44.824   4.389
67068W        W38651  40.272   4.254   1.889
67069W        W38652   9.123  39.129   3.258
67070W        W38653  39.869   3.348   4.014
67071W        W38654  25.534  42.585  13.096
67072W        W38655   1.455  41.602   1.611
67073W        W38656  10.174   0.389  10.664
67074W        W38657  34.601  16.821  12.574
67075W        W38658   1.033  37.144  10.452
67076W        W38659  30.022  34.083  12.996
67077W        W38660  13.727  24.863   0.059
67078W        W38661   2.535  38.562   0.271
67079W        W38662  35.460  17.334   4.838
67080W        W38663   9.691  17.845   0.601
67081W        W38664   9.191  35.003  12.219
67082W        W38665  10.188   7.006  13.919
67083W        W38666   5.828  23.709   2.072
67084W        W38667  41.193  36.945  14.934
67085W        W38668  10.446   3.413   1.255
67086W        W38669  30.937  15.256  13.528
67087W        W38670  12.104  11.799   0.315
67088W        W38671  13.109   5.091  10.402
67089W        W38672  11.907  20.213  13.642
67090W        W38673  10.276  14.814   1.460
67091W        W38674   5.979   4.491  11.109
67092W        W38675  17.624  19.083  12.759
67093W        W38676  38.296  16.152   0.378
67094W        W38677  37.006  28.992   1.966
67095W        W38678  28.597  25.966  10.894
67096W        W38679   0.496  38.529   4.631
67097W        W38680   3.182  28.794   1.891
67098W        W38681   7.575   8.112  10.597
67099W        W38682  28.826  21.388   3.897
67100W        W38683  44.164  15.067  11.990
67101W        W38684  37.859   0.962   3.703
67102W        W38685   3.452  35.046   2.985
67103W        W38686  37.881   9.876   0.783
67104W        W38687   2.946  21.588   4.852
67105W        W38688  20.988   8.897   1.232
67106W        W38689   3.775  11.113  14.827
67107W        W38690  11.670  28.025  13.491
67108W        W38691   4.484   6.319   0.235
67109W        W38692   8.412   5.270  13.947
67110W        W38693  42.939  26.134   3.644
67111W        W38694   0.439   4.930   3.115
67112W        W38695  17.342   0.217  12.108
67113W        W38696  44.765  22.151  13.439
67114W        W38697  16.009  26.732  13.361
67115W        W38698   3.334  24.277   3.103
67116W        W38699  44.514  10.776   1.715
67117W        W38700   7.860  17.462  14.705
67118W        W38701  18.405  24.179  13.854
67119W        W38702   4.874  14.496  13.630
67120W        W38703  29.463  11.341  12.649
67121W        W38704  36.788  37.942   3.638
67122W        W38705   1.341  22.075   4.688
67123W        W38706   0.735   1.012   2.411
67124W        W38707  11.542  36.743   1.719
67125W        W38708  20.846  16.343   4.160
67126W        W38709  26.694  26.174  14.541
67127W        W38710  23.142   2.237  14.123
67128W        W38711  16.650  44.407   4.149
67129W        W38712  36.269  12.542  11.624
67130W        W38713  14.706  32.854  14.907
67131W        W38714  19.737  37.527   0.480
67132W        W38715  35.165  43.888  14.022
67133W        W38716  25.814  16.275   1.746
67134W        W38717  36.079  33.785  13.959
67135W        W38718  24.455  32.492   0.382
67136W        W38719  36.668  40.080   2.241
67137W        W38720  29.402  11.925  10.646
67138W        W38721  19.579   8.120  13.852
67139W        W38722  38.909  18.730   0.335
67140W        W38723  43.099   7.014  13.992
67141W        W38724   5.610  36.033  11.642
67142W        W38725  41.480  36.009   2.807
67143W        W38726   8.964  40.820  12.197
67144W        W38727  42.127  44.337  10.763
67145W        W38728   1.349  13.813  10.543
67146W        W38729  14.840  10.145  11.579
67147W        W38730   1.912  29.198   1.242
67148W        W38731  33.670  31.705  14.875
67149W        W38732  35.214   2.873  13.837
67150W        W38733  35.197  40.528  12.772
67151W        W38734  41.979  17.209  11.119
67152W        W38735  12.198   6.451   3.898
67153W        W38736  23.893   1.185  12.062
67154W        W38737  27.843   2.640   4.781
67155W        W38738   1.857  39.561   0.017
67156W        W38739  41.283  36.001   4.771
67157W        W38740  22.705  29.913   1.415
67158W        W38741  21.576   8.439   1.732
67159W        W38742   3.589   5.864  10.593
67160W        W38743  24.285  43.790  12.933
67161W        W38744  34.615  16.991   4.803
67162W        W38745  17.690   6.320  11.550
67163W        W38746  27.002  28.446  12.380
67164W        W38747  17.600  25.480  14.563
67165W        W38748  35.486  34.614   3.078
67166W        W38749  28.705   4.827   3.356
67167W        W38750  40.400  10.816  12.381
67168W        W38751  23.716  19.574  13.345
67169W        W38752  11.265  17.155   1.705
67170W        W38753   6.494  14.041   3.624
67171W        W38754  39.317   6.110  13.305
67172W        W38755  39.759   8.341   1.192
67173W        W38756   4.666  19.565   0.273
67174W        W38757  37.940  26.568   1.915
67175W        W38758  11.320  42.494   0.726
67176W        W38759  41.886  41.447  14.125
67177W        W38760  15.112  35.289  13.764
67178W        W38761   1.047  24.728   3.156
67179W        W38762  38.812  37.317   1.306
67180W        W38763  10.977  38.733  11.590
67181W        W38764  44.787  28.362  12.452
67182W        W38765  39.738   4.457  10.429
67183W        W38766  16.149  24.280  11.565
67184W        W38767  34.599   2.981   3.584
67185W        W38768  34.991  31.018   1.389
67186W        W38769  19.822  23.631   1.395
67187W        W38770  40.088  29.087  12.101
67188W        W38771  38.973  27.748   4.115
67189W        W38772  14.065  37.961  13.492
67190W        W38773  35.570   0.186   0.400
67191W        W38774  36.031  34.502   2.252
67192W        W38775  19.159  43.462  14.250
67193W        W38776  31.066  35.696  13.524
67194W        W38777  32.697   9.277  11.461
67195W        W38778  20.140  27.320  10.485
67196W        W38779   0.394  26.532  14.069
67197W        W38780   1.587  34.019   2.714
67198W        W38781   6.956  36.906   3.323
67199W        W38782  42.537  24.717  13.489
67200W        W38783  22.169  35.365  10.636
67201W        W38784  25.250  36.915  14.889
67202W        W38785  23.325  28.959  14.787
67203W        W38786  43.442   2.433   0.870
67204W        W38787  22.655  32.225   0.280
67205W        W38788   8.679  41.314  12.096
67206W        W38789   2.772   6.167  12.085
67207W        W38790  20.623  20.785   3.675
67208W        W38791   8.463   3.319  11.217
67209W        W38792   1.038  37.982   0.197
67210W        W38793  16.630  10.773  13.987
67211W        W38794  29.457  33.191   2.279
67212W        W38795  24.717  32.307  13.811
67213W        W38796   2.919  42.431  12.020
67214W        W38797  14.977   6.080  11.184
67215W        W38798  38.553  18.328   2.362
67216W        W38799  16.835  14.339  12.523
67217W        W38800  11.549  35.064   0.466
67218W        W38801  43.118  28.829   3.715
67219W        W38802  28.918   3.285  11.225
67220W        W38803  42.988  40.463   2.175
67221W        W38804  24.091  17.338  11.450
67222W        W38805  27.976   8.232   4.154
67223W        W38806  29.511   8.195  11.136
67224W        W38807   7.833   1.400  14.027
67225W        W38808  29.205  26.629  13.096
67226W        W38809   8.851   6.398   3.237
67227W        W38810  15.075  41.500   5.035
67228W        W38811   6.819  12.733   0.097
67229W        W38812  20.033  37.917   1.813
67230W        W38813  12.372  31.305  13.538
67231W        W38814  21.200  44.214  11.885
67232W        W38815  20.061  37.848  14.779
67233W        W38816   4.983  13.777   0.789
67234W        W38817  13.630  37.544  11.443
67235W        W38818  43.368   5.745  14.250
67236W        W38819  34.075  41.016   2.264
67237W        W38820   6.645  27.968  12.864
67238W        W38821  19.663  28.938  10.952
67239W        W38822  44.760   6.396   3.241
67240W        W38823  43.297  28.289  13.162
67241W        W38824  20.113  22.716   3.142
67242W        W38825   1.928   1.281  12.566
67243W        W38826  24.354  16.639  11.194
67244W        W38827  15.227  12.529   2.265
67245W        W38828  25.535  28.940   0.414
67246W        W38829  26.111   1.341   2.868
67247W        W38830  41.128  19.096   0.086
67248W        W38831  29.580   0.622   3.787
67249W        W38832  27.955   2.165  10.770
67250W        W38833   7.674   5.324   4.066
67251W        W38834  31.271  13.574  12.078
67252W        W38835   2.370  11.171   2.955
67253W        W38836   5.412  17.766   3.209
67254W        W38837  43.421  23.200   3.677
67255W        W38838  20.163  27.277   4.590
67256W        W38839  41.529  26.675   1.884
67257W        W38840  35.656  36.034  12.050
67258W        W38841  12.769  19.015  14.285
67259W        W38842   5.640   0.143  12.918
67260W        W38843  42.489  11.697   0.270
67261W        W38844  38.949  14.321  14.342
67262W        W38845  30.252  25.309  12.279
67263W        W38846  41.564   8.183   4.252
67264W        W38847  17.315  25.469  10.188
67265W        W38848  10.626  23.523  14.327
67266W        W38849  18.606  28.602   0.818
67267W        W38850  25.491  19.955  11.683
67268W        W38851  17.023   6.241   2.363
67269W        W38852  22.799  21.632   2.239
67270W        W38853  31.900  27.659  11.575
67271W        W38854  16.756   7.519  14.023
67272W        W38855  15.536  11.232  14.389
67273W        W38856  44.209  22.058   3.327
67274W        W38857  38.610  35.352   3.543
67275W        W38858  15.721  15.907  10.350
67276W        W38859  21.439   2.367  12.405
67277W        W38860  17.326  21.718   1.259
67278W        W38861  22.672  10.204  11.079
67279W        W38862  23.629  23.957  10.682
67280W        W38863   4.983  24.751  13.923
67281W        W38864   8.064   3.763   3.661
67282W        W38865  15.285  22.443   1.761
67283W        W38866  34.995   1.895  12.411
67284W        W38867  25.875  35.981  13.854
67285W        W38868  41.349  21.495  11.230
67286W        W38869   7.937  40.802   0.759
67287W        W38870  16.438  36.495  11.178
67288W        W38871   6.790   2.504   0.542
67289W        W38872  26.764  33.093   3.192
67290W        W38873  43.269  25.618   4.772
67291W        W38874  29.949  22.984   2.290
67292W        W38875  23.702  19.439  12.026
67293W        W38876  21.446  17.591  12.056
67294W        W38877  27.640  39.916  11.982
67295W        W38878  23.212  37.512  12.463
67296W        W38879  28.968  18.311  13.842
67297W        W38880  44.845  35.626   1.209
67298W        W38881   2.332  27.439  11.615
67299W        W38882  11.029   0.037  12.828
67300W        W38883  42.428  34.788   1.767
67301W        W38884  24.006  22.228   2.390
67302W        W38885  16.109   9.247   3.611
67303W        W38886  34.335  30.140   1.603
67304W        W38887  15.444  16.121  12.528
67305W        W38888  43.728   7.872  14.721
67306W        W38889  30.971   7.286  13.032
67307W        W38890  34.388  12.648   0.762
67308W        W38891   4.483  33.418   1.345
67309W        W38892   8.129   8.737   2.247
67310W        W38893   6.867  39.630   1.747
67311W        W38894  41.797  37.923   0.555
67312W        W38895  38.117   6.861   3.022
67313W        W38896   6.438  23.092   2.043
67314W        W38897  14.147  20.801  12.147
67315W        W38898   0.448  12.592   0.522
67316W        W38899  28.242  16.371  14.430
67317W        W38900  22.236  37.618  14.048
67318W        W38901  33.599  35.859   2.682
67319W        W38902   9.749  14.940  13.078
67320W        W38903  13.064  37.580   5.094
67321W        W38904  18.901  43.418  12.811
67322W        W38905  15.265  41.577  14.968
67323W        W38906  43.729   1.942  13.695
67324W        W38907  14.677  31.156  14.471
67325W        W38908  10.297   4.885  12.712
67326W        W38909  21.941  14.117  10.852
67327W        W38910  39.048  39.561   9.875
67328W        W38911  14.640  22.133  11.689
67329W        W38912  32.470  28.213   4.512
67330W        W38913  26.025  18.087  12.393
67331W        W38914  21.258  12.687   1.695
67332W        W38915  23.139   2.297   3.644
67333W        W38916  12.762  41.735  10.445
67334W        W38917  38.215  19.526  11.146
67335W        W38918  18.252  44.893  11.207
67336W        W38919   7.924  23.755   3.874
67337W        W38920  33.491   9.319   0.563
67338W        W38921   9.629  29.801  13.937
67339W        W38922  16.536  26.015  12.460
67340W        W38923  33.265  17.197   3.154
67341W        W38924  15.239  17.789  14.996
67342W        W38925  18.618  34.373   1.359
67343W        W38926  36.873  35.842   3.225
67344W        W38927   1.530  36.742   2.259
67345W        W38928  41.011  35.830   0.575
67346W        W38929  16.606  43.056  13.998
67347W        W38930  38.786  26.181  12.496
67348W        W38931  26.577  22.850   3.285
67349W        W38932  28.388  18.054   3.406
67350W        W38933  13.582  37.622   3.858
67351W        W38934   5.374   3.933  14.017
67352W        W38935  43.762  19.533  12.461
67353W        W38936   1.767  44.263   3.699
67354W        W38937   8.363  23.308  10.659
67355W        W38938  20.814  20.525   9.989
67356W        W38939  20.203  21.337   3.009
67357W        W38940   6.465   5.288  12.551
67358W        W38941  15.668  10.604  10.516
67359W        W38942   8.209  23.608   4.851
67360W        W38943  40.026  32.921  14.402
67361W        W38944  43.037  35.981   4.663
67362W        W38945  30.435   2.839  11.201
67363W        W38946   9.803  21.640   1.009
67364W        W38947   2.296  10.135  10.336
67365W        W38948  29.305  10.799  14.372
67366W        W38949  15.637  21.236  12.952
67367W        W38950   9.841   9.321   1.937
67368W        W38951  15.138   5.251  12.552
67369W        W38952   3.031  27.888  12.952
67370W        W38953   2.229  20.472   0.342
67371W        W38954   0.006  41.041   2.457
67372W        W38955  16.883  26.586   2.759
67373W        W38956  23.147  40.544   0.902
67374W        W38957  29.649  31.138   9.863
67375W        W38958  31.430  39.768   2.747
67376W        W38959  40.858   5.958   0.832
67377W        W38960  43.863  30.395  13.583
67378W        W38961  11.115  42.993  13.342
67379W        W38962  32.112  23.642   4.889
67380W        W38963  30.054  17.486   1.018
67381W        W38964   8.304  35.467  12.372
67382W        W38965  25.060  27.346   4.008
67383W        W38966  38.497  25.593  14.070
67384W        W38967   4.946   6.935  13.283
67385W        W38968  39.458  15.250   0.320
67386W        W38969   1.550  22.774  11.287
67387W        W38970   2.915   1.272  13.992
67388W        W38971  16.841  17.305   3.307
67389W        W38972  21.077  29.149  11.559
67390W        W38973   2.350  20.061  11.169
67391W        W38974  20.677  38.213  13.059
67392W        W38975  17.664  43.928   4.744
67393W        W38976  35.447  24.061   3.611
67394W        W38977  23.545   2.885   4.214
67395W        W38978   8.306  44.821  11.443
67396W        W38979   1.380  31.889   3.137
67397W        W38980  28.763  30.864   4.270
67398W        W38981  30.441  18.734  11.566
67399W        W38982  33.376   3.641  13.512
67400W        W38983  16.123  15.213   2.941
67401W        W38984  37.890  26.438   2.868
67402W        W38985  14.790  20.474  14.942
67403W        W38986  37.466  37.733   4.575
67404W        W38987  31.454   8.634   3.345
67405W        W38988  36.990  25.437  11.985
67406W        W38989  42.694   7.658  11.070
67407W        W38990  35.654  21.002   2.868
67408W        W38991  40.725   9.006   0.774
67409W        W38992  37.926  36.432   3.368
67410W        W38993  32.175  32.487   3.757
67411W        W38994  39.267  17.226  12.824
67412W        W38995  19.196  34.031   2.540
67413W        W38996  11.415  39.957   3.766
67414W        W38997  24.563  42.743  12.842
67415W        W38998  27.158  31.811  10.845
67416W        W38999  10.235  21.238  12.151
67417W        W39000  21.900  22.769  14.496
67418W        W39001   9.851  32.940   0.924
67419W        W39002  42.747  21.796  11.204
67420W        W39003  19.325  21.159  10.699
67421W        W39004  10.112   2.162   0.259
67422W        W39005   8.361  40.719   0.363
67423W        W39006  29.150  28.313  11.664
67424W        W39007  36.181  13.027  11.986
67425W        W39008   4.945   8.843  13.553
67426W        W39009  10.982  17.992  12.922
67427W        W39010   0.488  28.442   4.325
67428W        W39011  42.469  44.434   1.377
67429W        W39012  13.706  18.003  11.239
67430W        W39013  36.113   6.276  13.945
67431W        W39014  11.164   3.481  14.919
67432W        W39015   7.213   3.817   4.320
67433W        W39016  24.181   0.954  14.428
67434W        W39017   5.156   1.956  14.050
67435W        W39018  17.921  19.147   1.279
67436W        W39019  20.988  35.060   4.286
67437W        W39020  15.512  26.628   3.228
67438W        W39021  32.518   9.767  14.485
67439W        W39022  41.089  35.903   1.103
67440W        W39023  28.471  36.069  12.033
67441W        W39024  18.254  26.524   2.771
67442W        W39025  25.924  41.909   4.789
67443W        W39026  32.149  32.487  12.514
67444W        W39027  24.183   1.827   1.611
67445W        W39028  29.865  15.422  13.883
67446W        W39029  32.970  32.201   4.104
67447W        W39030  28.146  14.956  14.467
67448W        W39031  32.123   6.109   1.760
67449W        W39032   0.486  32.924  12.811
67450W        W39033  17.839  35.709   3.271
67451W        W39034  41.001   8.364  12.986
67452W        W39035   9.028   7.830   0.780
67453W        W39036  18.779  17.759  11.097
67454W        W39037  23.026   5.443   3.162
67455W        W39038   8.401  30.536   0.006
67456W        W39039  19.202  44.557   0.455
67457W        W39040   1.657  39.787  10.539
67458W        W39041  12.699  15.699  14.287
67459W        W39042  12.765  28.223   4.690
67460W        W39043  20.311   2.811   0.932
67461W        W39044  40.501  33.073   0.434
67462W        W39045   7.824  16.095  13.945
67463W        W39046  27.469  39.608   0.428
67464W        W39047  11.578  32.011   4.989
67465W        W39048   8.236  38.736   3.118
67466W        W39049  28.489  41.024   0.303
67467W        W39050  33.339  16.212  13.979
67468W        W39051  38.042  42.943   3.721
67469W        W39052   6.792  16.807   3.846
67470W        W39053   0.876  19.709  13.884
67471W        W39054   8.684  14.111   3.144
67472W        W39055  25.059  14.617  10.738
67473W        W39056  20.147  12.941   0.542
67474W        W39057   5.383  36.361   1.596
67475W        W39058  26.084  20.586  11.417
67476W        W39059  21.512   8.942  13.396
67477W        W39060  42.480  28.828   1.736
67478W        W39061  30.047   4.676  13.953
67479W        W39062   0.446  21.778   3.390
67480W        W39063  38.587   0.399   1.276
67481W        W39064  34.031  16.023  10.720
67482W        W39065  21.689  33.527   1.025
67483W        W39066  31.124  19.253  14.094
67484W        W39067   5.099  27.532   3.913
67485W        W39068  34.530  10.346  13.542
67486W        W39069  17.428   5.345  13.650
67487W        W39070  13.250  22.038   1.765
67488W        W39071  30.195  22.538   3.649
67489W        W39072  39.403  17.235   4.447
67490W        W39073  25.917  16.044  13.481
67491W        W39074  35.488   1.792   3.232
67492W        W39075  38.638  40.262  14.338
67493W        W39076  41.340  20.648  10.800
67494W        W39077  38.428  25.169  14.393
67495W        W39078  44.367   5.155   2.273
67496W        W39079  14.690  25.805  11.939
67497W        W39080   9.875  41.575   1.744
67498W        W39081  44.771  42.625   1.303
67499W        W39082  17.056  24.213  11.476
67500W        W39083   4.872  20.341  14.773
67501W        W39084  29.533  10.194  11.698
67502W        W39085  41.510   8.821  12.392
67503W        W39086   5.415  15.244  10.940
67504W        W39087  25.785   4.617  14.186
67505W        W39088   6.386   2.551  14.860
67506W        W39089  30.559  34.997  13.980
67507W        W39090  18.872  10.742  10.704
67508W        W39091  43.822  40.498   2.799
67509W        W39092  17.328  43.935   0.528
67510W        W39093  16.685  35.444   9.764
67511W        W39094  21.469  28.802   4.625
67512W        W39095  25.019   8.937  14.307
67513W        W39096  39.739  27.176   0.107
67514W        W39097   8.378  13.116  13.895
67515W        W39098  26.678   0.026  14.889
67516W        W39099  24.543   9.549   3.408
67517W        W39100  35.952  35.827   1.640
67518W        W39101  18.677  40.035  13.012
67519W        W39102   4.840  32.682   4.248
67520W        W39103  34.912  10.667   0.552
67521W        W39104  28.663   7.106  11.216
67522W        W39105  26.513  42.966  10.535
67523W        W39106  17.431   4.791   2.607
67524W        W39107  14.200   9.201   1.283
67525W        W39108  33.465  33.039   0.974
67526W        W39109  15.224   1.518  13.110
67527W        W39110  11.278  24.564  13.056
67528W        W39111   4.644   5.786   1.517
67529W        W39112  13.824  29.374  11.476
67530W        W39113  36.517  32.842  13.825
67531W        W39114  17.211  39.952  14.292
67532W        W39115   6.576  24.038   0.963
67533W        W39116  11.706   6.182   0.889
67534W        W39117  42.395  32.664  13.372
67535W        W39118  33.743  24.595   1.411
67536W        W39119  20.373  33.407   1.233
67537W        W39120  30.493   2.042   4.168
67538W        W39121  10.852  19.195   0.729
67539W        W39122  38.012  40.055  12.831
67540W        W39123  42.004  32.640  14.860
67541W        W39124  29.636  33.795  14.079
67542W        W39125  36.674  15.366  11.019
67543W        W39126  27.232   4.875   3.245
67544W        W39127  16.618  19.778   4.237
67545W        W39128   8.908  18.584  13.397
67546W        W39129  41.474   2.897  12.228
67547W        W39130  20.048  24.569   9.961
67548W        W39131  40.538  39.466  12.975
67549W        W39132  27.089   0.896   1.916
67550W        W39133  28.960  21.700  11.532
67551W        W39134  37.443  12.897   1.902
67552W        W39135  24.801  19.714   1.481
67553W        W39136   8.145  27.020  11.284
67554W        W39137  42.802  17.192  12.210
67555W        W39138  25.497  31.214   1.547
67556W        W39139  16.148   6.573  13.229
67557W        W39140  18.721  21.523  11.619
67558W        W39141  13.416   9.839   1.493
67559W        W39142   6.309  32.631  10.433
67560W        W39143   9.477  40.812  12.116
67561W        W39144   4.182  19.793   1.175
67562W        W39145   2.633  19.356   4.219
67563W        W39146  30.445  16.338  14.300
67564W        W39147  13.477  37.023   9.664
67565W        W39148   6.012  44.003  14.374
67566W        W39149  26.030  13.901   1.710
67567W        W39150  16.834  13.816  12.513
67568W        W39151   8.835  42.687   1.212
67569W        W39152  20.667   4.030   0.115
67570W        W39153  12.379  23.654  12.450
67571W        W39154  26.896  28.867   3.705
67572W        W39155  17.923   5.688  11.989
67573W        W39156  14.706   6.335  14.238
67574W        W39157  40.415  44.074   4.278
67575W        W39158   6.140  35.555  13.453
67576W        W39159   4.380  20.100   4.302
67577W        W39160   2.342  36.813  10.739
67578W        W39161  26.957  39.801   2.111
67579W        W39162  31.475   8.206   3.056
67580W        W39163  39.784  13.405  13.910
67581W        W39164  32.123  40.111   0.322
67582W        W39165  36.385   6.234  10.819
67583W        W39166  19.534   3.315   0.985
67584W        W39167  18.238  24.986   0.451
67585W        W39168  40.966  35.529  13.845
67586W        W39169  20.793  29.278   5.026
67587W        W39170   8.589  43.413  11.969
67588W        W39171  43.530  36.956  13.781
67589W        W39172   5.661   5.696  13.335
67590W        W39173  33.584  18.387  10.608
67591W        W39174  28.730  30.588   1.234
67592W        W39175  37.465  25.756   1.148
67593W        W39176  23.692  18.729  11.095
67594W        W39177   6.651  24.184  11.918
67595W        W39178  43.343  18.561  13.992
67596W        W39179  33.044   3.311   4.606
67597W        W39180  39.095  17.729  12.832
67598W        W39181   0.250  11.931   1.850
67599W        W39182  25.176  25.200  10.677
67600W        W39183  34.768  21.436  11.923
67601W        W39184   4.735  29.969   0.037
67602W        W39185  23.640  11.851  14.337
67603W        W39186  21.790  44.045   1.195
67604W        W39187   6.408  17.998   4.592
67605W        W39188  38.775  21.736   0.382
67606W        W39189  25.677  19.753   3.043
67607W        W39190   6.823  40.332   0.435
67608W        W39191  43.834  23.055  10.670
67609W        W39192   7.295  28.532  13.856
67610W        W39193   6.289  24.116   2.282
67611W        W39194  28.265  17.808  14.371
67612W        W39195  34.486   5.130   4.749
67613W        W39196   2.468  23.816  10.198
67614W        W39197   5.862  34.436   0.894
67615W        W39198  32.159   6.321   0.363
67616W        W39199  13.077  42.861  12.044
67617W        W39200  31.082   3.601   2.622
67618W        W39201  28.753  25.254  14.749
67619W        W39202  25.010  10.287  11.834
67620W        W39203  40.801   3.732  11.436
67621W        W39204  20.836  30.611   1.882
67622W        W39205  36.283  20.409   3.877
67623W        W39206   5.339  42.317  11.778
67624W        W39207   5.783  34.312  13.472
67625W        W39208   8.742  20.444   2.636
67626W        W39209  19.640   1.080  14.903
67627W        W39210   5.480  22.170   3.158
67628W        W39211  28.945   7.769  11.631
67629W        W39212  11.940   9.797  14.433
67630W        W39213  29.634  21.787   5.641
67631W        W39214  16.594  29.632   0.489
67632W        W39215  40.279  29.505  12.922
67633W        W39216  16.533  35.542   0.254
67634W        W39217  10.399  18.323  12.428
67635W        W39218  13.083  30.938  14.799
67636W        W39219  38.115  40.008  11.995
67637W        W39220  43.461  16.094  10.597
67638W        W39221  35.932  41.369   3.400
67639W        W39222   8.207   5.031  10.594
67640W        W39223   5.979   9.094  13.800
67641W        W39224  19.494  29.882  14.876
67642W        W39225   0.757  42.363   1.226
67643W        W39226  33.514  28.506  13.883
67644W        W39227   7.757  36.479  11.869
67645W        W39228  42.789  22.586   3.120
67646W        W39229  37.347  31.935   2.829
67647W        W39230   9.458  39.927  12.894
67648W        W39231  24.710   2.932  12.503
67649W        W39232   2.806  40.243   0.354
67650W        W39233  10.740  34.319  13.538
67651W        W39234  23.613  15.331   2.817
67652W        W39235  28.142  28.163   4.676
67653W        W39236  11.799  37.437   2.396
67654W        W39237  31.136  22.159   2.660
67655W        W39238  18.622  37.541  14.378
67656W        W39239  19.566   3.834   2.394
67657W        W39240   3.852  40.884   2.352
67658W        W39241  43.494   9.575   1.757
67659W        W39242   6.100   5.800  11.332
67660W        W39243  32.556  38.217  12.823
67661W        W39244   4.998   0.986   0.705
67662W        W39245  38.893  14.274  12.894
67663W        W39246   5.932   8.807   2.648
67664W        W39247  42.497   1.406   4.557
67665W        W39248  42.018  33.577   3.811
67666W        W39249  15.874  26.574   2.873
67667W        W39250   3.633  40.467   0.222
67668W        W39251  14.853  33.992  11.627
67669W        W39252  14.063   9.457   1.923
67670W        W39253  41.142  28.080   2.440
67671W        W39254  16.634  19.079   3.211
67672W        W39255  16.597  31.543   0.354
67673W        W39256  17.199  30.960   3.307
67674W        W39257   4.536   3.942  12.972
67675W        W39258  20.635   7.001   3.281
67676W        W39259  23.607  30.468   4.153
67677W        W39260  29.595  27.492   4.738
67678W        W39261  28.991  44.693   2.353
67679W        W39262  27.582  33.089   1.896
67680W        W39263  13.331  40.984   3.625
67681W        W39264  13.333  24.391   2.015
67682W        W39265  35.028   9.601   0.002
67683W        W39266  38.690  18.780   2.584
67684W        W39267  40.094  18.483  14.866
67685W        W39268  19.691  22.018  12.011
67686W        W39269  24.958  39.464   2.357
67687W        W39270   3.439  22.414   0.080
67688W        W39271   3.361  22.704  11.651
67689W        W39272  18.287  10.829   1.356
67690W        W39273   5.345  13.293  14.876
67691W        W39274  33.063  20.738  14.079
67692W        W39275  39.867  14.009   3.264
67693W        W39276  13.755   1.691  12.989
67694W        W39277  34.653  18.638   2.214
67695W        W39278   9.419  16.540   4.569
67696W        W39279  43.871  43.722   3.477
67697W        W39280  44.252  36.532   1.447
67698W        W39281  43.442  42.982  10.647
67699W        W39282  21.492   0.515  14.938
67700W        W39283  30.126  36.337   1.886
67701W        W39284  24.848   1.508  11.278
67702W        W39285  11.745  25.173  12.700
67703W        W39286  35.897   2.181   4.788
67704W        W39287  12.051   2.833  12.379
67705W        W39288  20.072  37.480  12.660
67706W        W39289  32.036  33.831   0.474
67707W        W39290  33.846  30.361  11.005
67708W        W39291   5.490  28.494   2.648
67709W        W39292  40.981  10.845   2.715
67710W        W39293  25.859  33.456  14.862
67711W        W39294   6.844  40.814   4.817
67712W        W39295  20.222  25.926  14.244
67713W        W39296   7.949   3.575   2.213
67714W        W39297   8.727   0.899   3.679
67715W        W39298  26.429  32.409  12.891
67716W        W39299  33.933  38.651  11.140
67717W        W39300  34.721  40.002  11.029
67718W        W39301  21.179  12.356  11.519
67719W        W39302  39.357  42.357  13.421
67720W        W39303  24.292  43.074   4.503
67721W        W39304   2.179  41.938  11.615
67722W        W39305  18.047   8.732  10.782
67723W        W39306  36.046  40.251   1.349
67724W        W39307  33.087  31.860  13.855
67725W        W39308   6.183   3.581   1.704
67726W        W39309  10.127  43.236  14.768
67727W        W39310  16.582   4.747   0.840
67728W        W39311  38.062  28.865  12.766
67729W        W39312   4.742  29.720   3.202
67730W        W39313  32.657  40.380  14.492
67731W        W39314   1.045  13.306   0.228
67732W        W39315  11.734   1.095   4.632
67733W        W39316  14.145  28.310   0.985
67734W        W39317  41.974  16.605   4.576
67735W        W39318  10.778  34.137   3.401
67736W        W39319  11.280  17.665   3.310
67737W        W39320   8.123  29.239  10.759
67738W        W39321  15.117  38.639  12.138
67739W        W39322  44.688  27.444  12.904
67740W        W39323  15.678  44.364   2.815
67741W        W39324  44.100  10.606   4.827
67742W        W39325  19.837  44.934   2.819
67743W        W39326  38.009  11.993   2.068
67744W        W39327  36.575   6.882   2.163
67745W        W39328   5.306   8.371   3.800
67746W        W39329   7.265  44.749  14.067
67747W        W39330   1.726   5.899  10.559
67748W        W39331  31.088  16.412   4.961
67749W        W39332  28.440  10.864  14.006
67750W        W39333   8.625  18.512  12.647
67751W        W39334  39.116  38.775  13.517
67752W        W39335  44.871  34.248   1.854
67753W        W39336  27.459   8.248  10.663
67754W        W39337   1.943  26.639   2.187
67755W        W39338  40.458   3.290  12.509
67756W        W39339   9.798  10.487   3.996
67757W        W39340  37.268  11.830  14.981
67758W        W39341  29.859  10.172  13.091
67759W        W39342  37.018  30.889  14.900
67760W        W39343  18.664   9.919  14.720
67761W        W39344   2.450  10.298  11.667
67762W        W39345  20.464  42.882  12.141
67763W        W39346  18.264  14.513  14.978
67764W        W39347  23.288   9.399  14.382
67765W        W39348  29.371   0.640   1.476
67766W        W39349  35.077  36.967  12.826
67767W        W39350  24.854  17.113   2.775
67768W        W39351  28.286  15.410  14.260
67769W        W39352  27.562   0.941   2.677
67770W        W39353  30.861  34.962   0.522
67771W        W39354  30.972  17.346  14.485
67772W        W39355  38.802  29.736  10.906
67773W        W39356   2.858  21.301   1.136
67774W        W39357  12.700  41.203  12.635
67775W        W39358  37.180  22.962   0.732
67776W        W39359  29.914   2.924   3.206
67777W        W39360  19.046  18.562   3.629
67778W        W39361   4.878  11.619  13.394
67779W        W39362  41.496  32.623  14.738
67780W        W39363  43.677  21.011   3.146
67781W        W39364  24.167  11.027  11.628
67782W        W39365  20.531  28.671   2.592
67783W        W39366   4.948  32.734  11.586
67784W        W39367  42.270  15.701  10.342
67785W        W39368  26.417  29.156  10.781
67786W        W39369  41.839   2.858   1.610
67787W        W39370   5.787  36.970   4.724
67788W        W39371   6.789  42.053   2.700
67789W        W39372  44.581  28.374   3.132
67790W        W39373  30.007   0.924   3.780
67791W        W39374  25.775  35.368   3.194
67792W        W39375  31.494  38.819  14.296
67793W        W39376  13.881   2.882  12.527
67794W        W39377  26.199   5.293  13.994
67795W        W39378  44.637  20.783   2.894
67796W        W39379   1.982   2.862   1.604
67797W        W39380  29.525  12.546  14.047
67798W        W39381  17.468  27.113  10.041
67799W        W39382   3.448  44.333  11.535
67800W        W39383   5.805   1.452   4.551
67801W        W39384   9.946  10.062  11.618
67802W        W39385  40.489   5.317  12.001
67803W        W39386  40.537   4.915   1.702
67804W        W39387   2.023  35.359   0.786
67805W        W39388  27.473  33.892  11.593
67806W        W39389   4.427   5.732  14.028
67807W        W39390  14.127  42.614  11.179
67808W        W39391   4.703  16.064  12.263
67809W        W39392  43.648  17.638  11.349
67810W        W39393  25.156   1.840  13.572
67811W        W39394  22.846   1.706  13.693
67812W        W39395  43.322  43.892   1.709
67813W        W39396  21.261  10.218   1.977
67814W        W39397  42.740   1.830  14.429
67815W        W39398  37.055   5.861  11.050
67816W        W39399  13.706  42.902  11.114
67817W        W39400  26.158  28.732   3.714
67818W        W39401  18.126  22.514  10.593
67819W        W39402  28.615  26.552  10.037
67820W        W39403  38.042  22.831  11.131
67821W        W39404   1.896   6.489   3.836
67822W        W39405  33.156  12.316  13.549
67823W        W39406  38.051  13.804  12.952
67824W        W39407  27.661  15.160   4.978
67825W        W39408  37.813   9.322   4.394
67826W        W39409   2.285  35.604   2.549
67827W        W39410   6.457  36.179   1.280
67828W        W39411  31.458  44.386  12.356
67829W        W39412  39.819  28.015   2.739
67830W        W39413  44.424  37.587  11.556
67831W        W39414   5.332  27.210  13.747
67832W        W39415  30.477  41.358  14.457
67833W        W39416  44.856  22.657   0.954
67834W        W39417  10.597  26.964  13.020
67835W        W39418   7.284  33.194  14.459
67836W        W39419   8.167  20.398  12.950
67837W        W39420   3.242  28.716  14.345
67838W        W39421  43.211  29.011  13.903
67839W        W39422  34.267  43.202  14.404
67840W        W39423  21.660   4.154   3.713
67841W        W39424  20.355  20.989  12.529
67842W        W39425   1.361  34.439   0.882
67843W        W39426   7.741  33.545  11.628
67844W        W39427  23.967  41.481  12.548
67845W        W39428  31.711  17.139   1.658
67846W        W39429  33.988  36.875  14.194
67847W        W39430  33.116   1.062  14.553
67848W        W39431  33.835  41.085  12.860
67849W        W39432  39.597   1.340  12.146
67850W        W39433  43.692   9.623   3.602
67851W        W39434   0.235   9.738  11.279
67852W        W39435   6.031  38.498   4.428
67853W        W39436  23.802  39.419   1.736
67854W        W39437   1.275  13.032  12.440
67855W        W39438  24.573   1.891   0.784
67856W        W39439  35.128  26.247  13.943
67857W        W39440   9.483  24.485   1.743
67858W        W39441  31.430  26.055  12.581
67859W        W39442  17.826  25.537   4.443
67860W        W39443   5.395  21.622  10.669
67861W        W39444   1.741  30.088  11.046
67862W        W39445  25.484  23.729   3.133
67863W        W39446  11.267  35.843  14.368
67864W        W39447  11.940  38.421   1.679
67865W        W39448  30.831  14.933   1.828
67866W        W39449  23.033  14.206   3.064
67867W        W39450  28.134  10.535   1.465
67868W        W39451   9.771  32.041  14.693
67869W        W39452  10.685  33.248   0.829
67870W        W39453   8.244   1.216   2.265
67871W        W39454  14.924  11.094   0.527
67872W        W39455  11.725  19.539   0.533
67873W        W39456  37.830  34.463   3.313
67874W        W39457  32.313   3.916   4.929
67875W        W39458  32.943   0.566  12.573
67876W        W39459   4.723  16.944  14.366
67877W        W39460   5.289  32.511   4.064
67878W        W39461  10.123   7.438  10.679
67879W        W39462  14.779   0.698  10.268
67880W        W39463  15.116  22.736   4.549
67881W        W39464  26.267  11.213   2.215
67882W        W39465  27.060  42.954   1.607
67883W        W39466  37.558   6.630   1.245
67884W        W39467  13.249  19.357  13.831
67885W        W39468  33.304  42.037   1.508
67886W        W39469   4.691   0.361  12.593
67887W        W39470  10.515  31.515   3.256
67888W        W39471  31.481  20.725   2.377
67889W        W39472  18.762  29.681  13.991
67890W        W39473   8.419  18.815   0.427
67891W        W39474  39.804  36.140   1.255
67892W        W39475  19.530  41.454  13.604
67893W        W39476  17.039  27.974  13.913
67894W        W39477   1.939   8.147  13.870
67895W        W39478  39.100  29.636   3.564
67896W        W39479  41.359  24.058  12.434
67897W        W39480   1.284   6.437   3.247
67898W        W39481  17.868  12.930   0.302
67899W        W39482  15.622  21.172   1.033
67900W        W39483  42.318  12.276  14.520
67901W        W39484  18.733  13.730  13.835
67902W        W39485   2.226  21.949   4.532
67903W        W39486  28.869  41.762   2.171
67904W        W39487   2.891  26.442  10.091
67905W        W39488  29.357  36.824  11.596
67906W        W39489   8.808  36.594   3.879
67907W        W39490  41.289  16.039  14.803
67908W        W39491  27.417  35.020  14.511
67909W        W39492  12.752  10.338   1.040
67910W        W39493  37.464   5.940   3.636
67911W        W39494  14.923  34.522   1.161
67912W        W39495  41.946   6.832   1.438
67913W        W39496  24.015  13.251  13.284
67914W        W39497   0.533  25.715  13.079
67915W        W39498   7.442   8.769  14.802
67916W        W39499   0.872   6.671  10.556
67917W        W39500  29.120  30.434  11.105
67918W        W39501  28.101  37.255  14.423
67919W        W39502  20.462  37.376   4.277
67920W        W39503  14.745   8.289  14.756
67921W        W39504  20.721   2.627  11.558
67922W        W39505  19.979  44.356  12.271
67923W        W39506   3.811  16.234  10.633
67924W        W39507   6.130   1.969   3.274
67925W        W39508  34.363   3.235  10.701
67926W        W39509  30.502   9.014   0.952
67927W        W39510   5.800  42.816   4.693
67928W        W39511  41.542  10.675   4.271
67929W        W39512  17.614  23.606  14.381
67930W        W39513   8.958   8.335   2.318
67931W        W39514   2.041  39.414  10.128
67932W        W39515  33.206  11.693   3.421
67933W        W39516  10.069  29.055  12.981
67934W        W39517  33.354  36.308   2.734
67935W        W39518  19.574  41.196  10.595
67936W        W39519  15.798  43.485  12.573
67937W        W39520  11.836  33.493   4.316
67938W        W39521  14.242  41.834   3.293
67939W        W39522  38.926  37.470   1.794
67940W        W39523   3.018  10.259   3.945
67941W        W39524  34.097  23.444   1.803
67942W        W39525   7.165  21.500  12.015
67943W        W39526  20.268   2.999  12.592
67944W        W39527  29.149   9.572  13.946
67945W        W39528  26.780  26.555  11.203
67946W        W39529   9.272  34.066  12.992
67947W        W39530  25.606  44.360   0.688
67948W        W39531  23.258  19.116   2.032
67949W        W39532   7.659  15.819   0.473
67950W        W39533   4.911  27.206   0.710
67951W        W39534   8.919  14.764   4.746
67952W        W39535  33.492   6.204   0.912
67953W        W39536   4.534  28.220  13.193
67954W        W39537  11.030  19.252   1.201
67955W        W39538  41.790  17.090  12.969
67956W        W39539  36.499   6.193   1.845
67957W        W39540  25.248   2.177   4.685
67958W        W39541  33.104   5.843  11.191
67959W        W39542  36.030  43.806   2.771
67960W        W39543  41.003  24.641  14.507
67961W        W39544  14.762  16.713   4.546
67962W        W39545  40.279  10.119  10.192
67963W        W39546  17.206  32.203   0.385
67964W        W39547  34.142  11.451  10.844
67965W        W39548  30.268  26.592   3.928
67966W        W39549   2.125   1.257   1.563
67967W        W39550   3.475  36.267   0.347
67968W        W39551  21.974  13.410   2.223
67969W        W39552   2.324  28.121   0.283
67970W        W39553  12.649  15.032   0.097
67971W        W39554  16.950  26.234  10.249
67972W        W39555   5.828  24.597  11.738
67973W        W39556  28.434  37.685   0.816
67974W        W39557  41.819  27.187   4.680
67975W        W39558  10.809  17.185   0.414
67976W        W39559  33.632  39.314  13.618
67977W        W39560   5.281  35.363  10.790
67978W        W39561   4.099  34.460  12.346
67979W        W39562   1.301  31.391   1.847
67980W        W39563  34.344  44.568   1.989
67981W        W39564  44.703  18.641  13.106
67982W        W39565  39.603  39.586   1.158
67983W        W39566  12.725  12.789  12.037
67984W        W39567  15.263  18.758   1.065
67985W        W39568   1.837  44.991   3.165
67986W        W39569  22.004  44.175  13.313
67987W        W39570  35.784  20.680  11.648
67988W        W39571  18.465  34.517  14.296
67989W        W39572  35.338   3.159   4.077
67990W        W39573   4.932   7.397   4.894
67991W        W39574  20.276   1.058   1.635
67992W        W39575  23.030  40.314  12.753
67993W        W39576  19.724  41.894   3.117
67994W        W39577  16.674  10.347   3.286
67995W        W39578  20.778  29.708   1.439
67996W        W39579  44.758  24.192  11.552
67997W        W39580  22.529  23.823   1.373
67998W        W39581  17.893  27.132  13.425
67999W        W39582  17.964  22.004   2.334
68000W        W39583  15.395  37.558   1.326
68001W        W39584  20.416   8.947   3.185
68002W        W39585  24.656  15.619   4.869
68003W        W39586  23.528  40.525  10.636
68004W        W39587   5.419  31.546   0.991
68005W        W39588  16.811   4.098  11.006
68006W        W39589   4.032  22.765   2.158
68007W        W39590  41.985   4.804  14.364
68008W        W39591  40.654   4.471   0.873
68009W        W39592  27.009  40.167   4.099
68010W        W39593  39.930  16.088  10.768
68011W        W39594  27.030  40.770   4.625
68012W        W39595  12.859  20.935   4.209
68013W        W39596   7.218  26.405   0.435
68014W        W39597  19.216   0.153   2.273
68015W        W39598  16.674  40.811  10.583
68016W        W39599   9.741  13.331   0.692
68017W        W39600  29.363  29.281   3.600
68018W        W39601  20.005  35.639   0.881
68019W        W39602   9.091  25.401   0.397
68020W        W39603   4.012  13.216   4.582
68021W        W39604  10.986   5.036  11.482
68022W        W39605  18.078  34.997   0.295
68023W        W39606   3.957  39.206   4.461
68024W        W39607  38.341  36.635   2.386
68025W        W39608  13.882  14.760   3.890
68026W        W39609  34.132   7.360   0.902
68027W        W39610  16.358  27.480   2.630
68028W        W39611  19.901  42.537  12.430
68029W        W39612  11.631  16.541   4.627
68030W        W39613  38.877  37.345  11.562
68031W        W39614  42.461   5.270   0.194
68032W        W39615  14.852  12.260  11.683
68033W        W39616  29.445  15.302   0.860
68034W        W39617  10.291  44.467   0.724
68035W        W39618  18.890  11.298  14.874
68036W        W39619  15.905  25.016  12.925
68037W        W39620  31.941  11.134  10.680
68038W        W39621  15.625   3.408  12.574
68039W        W39622  35.338  10.951   0.374
68040W        W39623   0.293   6.820  14.814
68041W        W39624   8.113  19.209  14.461
68042W        W39625  15.509  30.493   1.838
68043W        W39626  42.546  40.870   0.356
68044W        W39627  29.687  20.321   3.558
68045W        W39628  27.510   0.755  13.011
68046W        W39629  17.900  11.844   1.173
68047W        W39630  25.597   4.330   0.504
68048W        W39631   2.577   6.016  10.657
68049W        W39632  22.956  38.942  11.715
68050W        W39633   3.457  23.669   4.259
68051W        W39634   9.406  31.394  10.785
68052W        W39635  33.896   8.275   4.251
68053W        W39636  37.029   6.793   3.579
68054W        W39637  38.886  25.693  10.852
68055W        W39638  21.268  27.537   5.204
68056W        W39639  44.722  13.108   4.214
68057W        W39640   1.624   0.560   4.973
68058W        W39641  36.089  41.752  12.922
68059W        W39642  34.899  43.351  12.039
68060W        W39643  34.898  35.451   0.029
68061W        W39644  19.585   2.064   2.897
68062W        W39645  10.941  21.257  12.583
68063W        W39646  11.293  37.084   2.368
68064W        W39647  23.195  32.851  10.795
68065W        W39648  11.851  43.478   3.601
68066W        W39649  32.868  36.332   0.851
68067W        W39650   3.035   9.681   0.189
68068W        W39651  44.806  34.836  14.375
68069W        W39652  44.288  13.736  12.125
68070W        W39653  40.358   2.656  12.002
68071W        W39654  44.383  39.446  10.530
68072W        W39655  15.613  14.120   1.682
68073W        W39656  13.820   1.305   3.258
68074W        W39657  23.509  38.879  14.480
68075W        W39658   2.225   0.751   3.327
68076W        W39659   5.404  28.180   0.871
68077W        W39660  44.387  31.142   3.525
68078W        W39661   3.705  19.816   0.268
68079W        W39662   5.715  22.698   1.090
68080W        W39663  35.940  31.042   4.811
68081W        W39664   9.201  41.505  10.196
68082W        W39665   1.351  26.224  14.780
68083W        W39666  33.176   4.361   3.544
68084W        W39667  16.339  44.140   3.738
68085W        W39668  33.922  22.461  11.985
68086W        W39669  34.974  28.546   1.492
68087W        W39670   5.563   5.678  14.705
68088W        W39671   0.507  15.708   2.571
68089W        W39672  41.681  42.073  11.236
68090W        W39673   2.300  28.657   0.303
68091W        W39674  17.856  43.704   1.225
68092W        W39675   3.796  26.921  12.226
68093W        W39676  39.259   5.857  12.436
68094W        W39677  23.635  15.916  11.211
68095W        W39678  24.025  35.354  11.416
68096W        W39679  24.531   7.348   1.852
68097W        W39680  10.591  34.338   1.234
68098W        W39681  13.228  30.553   5.014
68099W        W39682   4.352  38.902   4.506
68100W        W39683   8.915  28.651  11.051
68101W        W39684  16.997  21.885  14.243
68102W        W39685   8.102  40.908  13.837
68103W        W39686  17.189  22.910  13.717
68104W        W39687  37.656  15.655   1.181
68105W        W39688   3.916  11.717  10.695
68106W        W39689  25.107  44.905  14.680
68107W        W39690  40.651   2.504   2.566
68108W        W39691  21.110   8.753  10.669
68109W        W39692   5.610  33.544  10.671
68110W        W39693  14.813  31.496   3.341
68111W        W39694  15.081  24.703  14.277
68112W        W39695   9.141  33.805  12.566
68113W        W39696  14.821   1.859  12.368
68114W        W39697  31.854   2.845  13.802
68115W        W39698  35.660  14.304  11.174
68116W        W39699  14.803   0.688   1.848
68117W        W39700  11.285  34.109   3.245
68118W        W39701  16.362  24.902   1.282
68119W        W39702  11.883  19.753  10.285
68120W        W39703  30.497  35.085   4.684
68121W        W39704  39.073  13.785   4.159
68122W        W39705  14.380  24.138  14.569
68123W        W39706  16.536  37.927  14.482
68124W        W39707  18.231  44.420   3.162
68125W        W39708   5.445  17.166  14.736
68126W        W39709  16.055  25.184  10.150
68127W        W39710  25.323  40.813  14.438
68128W        W39711  34.767  37.392  12.818
68129W        W39712  37.162  44.498  14.465
68130W        W39713   1.245  13.543  14.146
68131W        W39714  19.156  44.328   2.801
68132W        W39715  25.315   6.482   3.261
68133W        W39716   6.131   1.428   4.131
68134W        W39717   8.725  37.095  13.692
68135W        W39718  24.033   1.766  11.198
68136W        W39719   9.301  35.579   1.465
68137W        W39720  44.875   6.090   3.657
68138W        W39721  10.560  16.189  13.068
68139W        W39722  37.285  27.194   1.718
68140W        W39723  10.277   7.912   0.393
68141W        W39724   0.941  37.913   1.705
68142W        W39725  20.820  41.724  14.738
68143W        W39726   7.705  18.612  12.515
68144W        W39727  14.408  20.223  12.002
68145W        W39728  35.401  28.938   0.255
68146W        W39729  15.306  44.904  14.726
68147W        W39730  17.697  32.346   0.274
68148W        W39731  19.027  42.876  14.922
68149W        W39732   0.978  14.994   3.101
68150W        W39733  32.190   3.324  11.468
68151W        W39734  23.629  26.092  13.375
68152W        W39735  27.098  36.401  14.225
68153W        W39736  29.241  13.833   3.192
68154W        W39737   4.663  37.102  13.945
68155W        W39738   4.074  11.314  11.081
68156W        W39739  16.328  23.100   0.456
68157W        W39740   4.778   1.261   3.393
68158W        W39741  20.354  44.710  12.289
68159W        W39742  15.840   6.194   5.239
68160W        W39743  19.953  38.469   0.389
68161W        W39744  16.974   3.202   3.364
68162W        W39745  24.259  44.524  10.736
68163W        W39746  29.541  43.612  14.933
68164W        W39747  24.135   6.930  11.852
68165W        W39748  38.373   6.383  13.987
68166W        W39749  28.884   9.664  14.364
68167W        W39750   6.162  36.869  10.597
68168W        W39751   4.241  16.283   2.890
68169W        W39752  30.246  30.034  14.288
68170W        W39753  10.901  33.870  14.520
68171W        W39754  10.431  31.169  11.887
68172W        W39755  34.816   9.300  13.454
68173W        W39756  26.461  35.281  10.757
68174W        W39757  20.595  17.055   2.746
68175W        W39758  22.538   4.693  13.074
68176W        W39759  39.133  39.275  14.415
68177W        W39760   3.674  34.968  11.025
68178W        W39761  30.019  36.005  10.664
68179W        W39762  16.384   8.611  11.111
68180W        W39763  34.928  23.615   0.710
68181W        W39764   7.788  26.736   1.720
68182W        W39765  18.129  22.196  13.481
68183W        W39766   3.004  41.507   4.596
68184W        W39767  40.116  26.823  13.040
68185W        W39768   9.767  29.354  14.391
68186W        W39769   9.266  32.157  14.548
68187W        W39770  41.408   9.784  14.844
68188W        W39771  39.255  10.759   2.817
68189W        W39772   3.187  15.618  14.556
68190W        W39773  28.516  29.975   2.141
68191W        W39774  19.885  28.488  14.982
68192W        W39775  19.702  33.517   0.730
68193W        W39776   7.412   0.362  11.002
68194W        W39777  33.886  16.040   1.915
68195W        W39778  26.679  36.442   5.014
68196W        W39779  26.090  21.770   0.240
68197W        W39780  11.229  13.563  12.080
68198W        W39781  34.082  20.802   2.194
68199W        W39782  13.721  25.629   1.863
68200W        W39783  26.771   6.145  14.149
68201W        W39784   5.872  42.324  14.537
68202W        W39785  44.412  34.403   1.672
68203W        W39786  19.353  41.761  11.044
68204W        W39787   0.773   2.535  12.042
68205W        W39788  36.519  42.429   1.233
68206W        W39789  12.499  34.382   3.038
68207W        W39790  23.496  15.574  10.852
68208W        W39791  39.663   1.298   3.090
68209W        W39792  34.932  29.973   0.815
68210W        W39793  36.925  26.552  11.652
68211W        W39794  14.218  13.501   1.861
68212W        W39795  43.367  37.350  11.737
68213W        W39796  33.723  36.934   0.263
68214W        W39797  32.894  31.473   4.211
68215W        W39798  14.700  24.912   0.906
68216W        W39799  42.121  21.916   4.365
68217W        W39800  17.489  41.365   2.286
68218W        W39801  22.485  20.647  11.134
68219W        W39802  43.272  17.067   4.260
68220W        W39803  34.465   5.278  13.679
68221W        W39804  44.559   0.396  14.704
68222W        W39805  17.199   1.751   1.905
68223W        W39806  20.692  41.402  12.164
68224W        W39807   1.213  25.746  13.816
68225W        W39808   5.242   1.037  12.052
68226W        W39809  38.570  27.007  10.747
68227W        W39810  34.671  22.624  11.505
68228W        W39811  36.904  41.899   4.676
68229W        W39812  38.516  38.431  13.301
68230W        W39813  24.138   0.955   1.881
68231W        W39814  18.791  23.015  11.552
68232W        W39815  44.024   5.845  13.043
68233W        W39816   5.330   9.657   1.485
68234W        W39817  29.220  35.697   0.503
68235W        W39818  34.595  32.073   2.740
68236W        W39819   3.476  38.248   0.307
68237W        W39820   9.904  14.722  11.901
68238W        W39821  29.374   5.054  14.282
68239W        W39822  18.192  35.440  12.051
68240W        W39823  27.180   3.955  12.827
68241W        W39824  42.382  35.446   0.681
68242W        W39825  15.175  31.726  13.268
68243W        W39826   9.411  10.078  11.554
68244W        W39827  39.840  15.885  10.297
68245W        W39828  17.228  20.255  10.528
68246W        W39829  30.657  21.533   1.724
68247W        W39830   4.398  40.016  12.335
68248W        W39831  20.697   4.696   3.801
68249W        W39832  17.266  31.102  11.643
68250W        W39833  18.056  35.883  13.943
68251W        W39834   7.258  44.256   1.402
68252W        W39835  16.332  22.982  13.957
68253W        W39836  13.319  43.945  13.122
68254W        W39837   6.656  40.347  12.065
68255W        W39838  32.573  23.810   3.715
68256W        W39839  38.123  37.808   4.072
68257W        W39840  25.566  15.110   0.360
68258W        W39841  22.671  29.407   0.138
68259W        W39842   2.253   6.149   2.354
68260W        W39843   9.625   0.870  13.431
68261W        W39844  30.758  17.816  11.405
68262W        W39845  13.770  34.672   3.782
68263W        W39846  19.615  38.560   1.321
68264W        W39847   0.181  40.406   1.881
68265W        W39848  18.078   2.976  10.746
68266W        W39849  12.356   6.861  11.605
68267W        W39850  16.699  29.129   1.791
68268W        W39851  34.698  25.976   3.282
68269W        W39852   6.896   4.959   3.339
68270W        W39853  21.964  41.266  13.341
68271W        W39854  38.066  42.056   0.685
68272W        W39855  33.625   0.846  13.874
68273W        W39856  43.854  42.320  13.311
68274W        W39857  34.407  32.170   1.835
68275W        W39858   9.229  16.892   3.206
68276W        W39859   5.496   2.743  13.600
68277W        W39860   0.774  32.404   2.766
68278W        W39861  13.720  39.972  13.954
68279W        W39862  37.815  14.692  14.034
68280W        W39863  21.414   5.812  14.935
68281W        W39864  25.448   8.787  13.594
68282W        W39865  27.277  29.592   2.624
68283W        W39866   6.946  21.248   0.427
68284W        W39867  39.297  27.963  12.571
68285W        W39868   6.399   3.439  14.806
68286W        W39869  23.021  14.495  13.895
68287W        W39870   0.469  29.900  12.461
68288W        W39871   2.275  35.096  12.038
68289W        W39872  31.232   2.766   0.881
68290W        W39873  15.268  15.296   2.937
68291W        W39874  28.037  27.939   1.256
68292W        W39875  11.907  16.631  13.869
68293W        W39876  26.347   2.475   3.515
68294W        W39877  35.514  17.975   1.617
68295W        W39878  43.901   9.138   1.321
68296W        W39879   4.975  34.288  13.837
68297W        W39880   4.043  10.922   2.319
68298W        W39881  18.560  15.111  11.128
68299W        W39882  31.188   6.459   4.576
68300W        W39883  35.471  15.549  11.329
68301W        W39884  30.979   6.864   1.823
68302W        W39885   9.396  38.812   4.530
68303W        W39886   6.015  44.276   1.761
68304W        W39887  26.174  28.573  10.744
68305W        W39888  18.794  22.658   3.804
68306W        W39889  35.512  18.682   2.753
68307W        W39890   4.385  34.134   0.741
68308W        W39891  16.021  11.894   4.163
68309W        W39892  38.766  33.594  12.098
68310W        W39893  23.160  22.639  14.485
68311W        W39894   0.524  14.515  13.952
68312W        W39895  28.667  16.668  14.344
68313W        W39896  39.005   3.102   4.190
68314W        W39897  42.891   3.492   3.578
68315W        W39898  21.718  21.069   4.358
68316W        W39899  42.283  39.838   0.786
68317W        W39900  18.589  29.592  11.617
68318W        W39901   3.378  35.054  14.046
68319W        W39902  37.150  33.463  14.609
68320W        W39903  22.897  21.480   3.756
68321W        W39904  38.563  18.433   3.564
68322W        W39905  39.865  29.537   4.354
68323W        W39906  37.844   2.398   3.883
68324W        W39907   4.763  30.216   1.424
68325W        W39908  35.330   4.743  12.182
68326W        W39909   6.730  34.950  11.993
68327W        W39910   6.713  29.015   3.728
68328W        W39911   3.502  34.901  12.811
68329W        W39912   4.089  34.059  10.985
68330W        W39913  31.150  23.545   3.968
68331W        W39914   4.835  20.053   4.551
68332W        W39915   3.170  31.312  10.689
68333W        W39916  18.222  29.596   0.502
68334W        W39917  20.613   5.689  13.560
68335W        W39918   2.777  36.011   0.702
68336W        W39919  40.974  24.006   1.940
68337W        W39920  36.023  31.599   2.756
68338W        W39921  24.633  26.000   2.138
68339W        W39922  12.273   9.603   3.760
68340W        W39923  38.822  44.912  13.991
68341W        W39924  21.675  11.581   0.966
68342W        W39925  10.711  13.705  11.931
68343W        W39926   8.518  43.339   0.490
68344W        W39927  41.777  14.131   0.795
68345W        W39928   1.437  33.093   4.076
68346W        W39929  41.822  41.366   4.099
68347W        W39930  18.779  23.977   3.373
68348W        W39931  28.309   4.275  12.036
68349W        W39932  15.615  20.913  13.469
68350W        W39933   1.425  13.190   3.110
68351W        W39934  10.817  19.203   1.659
68352W        W39935   3.150  35.799   5.074
68353W        W39936  37.574   7.854  11.919
68354W        W39937  38.015   5.116   0.343
68355W        W39938  36.000   0.707  13.972
68356W        W39939  16.551  40.227  12.502
68357W        W39940  27.565  30.906   3.731
68358W        W39941  10.417   4.352   4.592
68359W        W39942   5.203   6.916  12.025
68360W        W39943  10.605  31.657  13.964
68361W        W39944  12.416  29.130   1.036
68362W        W39945   7.670  32.734  12.853
68363W        W39946   9.760   0.857   3.671
68364W        W39947   3.384  25.182   0.866
68365W        W39948  23.136  20.705   1.116
68366W        W39949  36.868  39.839  14.214
68367W        W39950  25.555  21.020  10.010
68368W        W39951   4.950  20.089  12.159
68369W        W39952  15.094   5.323   3.363
68370W        W39953  13.541  37.196   0.256
68371W        W39954   7.940  40.266  10.268
68372W        W39955   2.131  39.583   3.399
68373W        W39956  40.019  22.631  10.784
68374W        W39957  18.124  13.562   3.744
68375W        W39958   2.098  28.504  11.188
68376W        W39959  38.060  42.333  13.945
68377W        W39960   0.698   8.123   1.728
68378W        W39961  26.690  11.711  13.858
68379W        W39962  19.756   3.294  12.021
68380W        W39963  24.106   9.895  13.458
68381W        W39964  40.725  41.557   3.184
68382W        W39965   6.648   1.734  12.520
68383W        W39966   9.104   3.002   1.361
68384W        W39967   1.605  27.691  12.089
68385W        W39968  43.621  29.486   0.370
68386W        W39969  43.091  23.791  14.237
68387W        W39970  19.015   2.005   4.076
68388W        W39971  18.198  39.036   1.088
68389W        W39972  37.613  39.471  10.991
68390W        W39973  25.395   8.446   3.160
68391W        W39974  36.120  26.174  12.522
68392W        W39975  25.047  37.510  11.140
68393W        W39976  32.558  16.111   2.574
68394W        W39977  44.151  15.245   3.226
68395W        W39978  31.181  34.195   2.749
68396W        W39979  12.828  22.443   2.232
68397W        W39980  25.723  10.222  11.141
68398W        W39981  26.561  28.917   0.570
68399W        W39982  25.898  21.211  13.995
68400W        W39983  15.841  22.300   2.267
68401W        W39984   3.782  17.059  14.111
68402W        W39985   2.946  26.512  13.361
68403W        W39986   6.799   4.983  12.827
68404W        W39987  42.327   2.221  11.176
68405W        W39988  11.760  26.961  12.430
68406W        W39989  31.445  30.172  12.535
68407W        W39990  15.249  38.622   1.390
68408W        W39991  15.053  38.033   0.498
68409W        W39992  29.587   0.886   5.084
68410W        W39993  41.371  32.076   3.254
68411W        W39994   7.882  14.341   1.274
68412W        W39995  42.940   3.239  10.608
68413W        W39996  37.019  26.211   4.282
68414W        W39997  15.812  39.893  12.677
68415W        W39998   1.952  40.542  11.509
68416W        W39999  18.212  24.114   4.576
68417W        W40000  11.729  43.612   4.722
68418W        W40001  38.966  16.303   0.842
68419W        W40002  36.314  13.055  11.506
68420W        W40003  41.300  32.357  12.626
68421W        W40004  42.304  41.206  14.327
68422W        W40005  24.961  16.895  12.530
68423W        W40006  19.864  23.639   4.167
68424W        W40007   0.422  11.103  11.995
68425W        W40008  31.075   2.984  12.020
68426W        W40009  27.919   3.447  12.992
68427W        W40010  43.248  20.649  13.445
68428W        W40011  43.964  27.433   0.832
68429W        W40012   7.461  27.400   0.322
68430W        W40013  11.728  19.820   3.723
68431W        W40014   3.426  22.570  14.070
68432W        W40015  25.483   2.095  11.252
68433W        W40016  33.932  24.482   0.935
68434W        W40017  24.171  31.677   3.173
68435W        W40018   7.613  10.129   0.556
68436W        W40019  44.995   1.708   2.132
68437W        W40020  25.531  17.932   4.256
68438W        W40021  25.599  33.170  14.302
68439W        W40022  18.838  20.235   2.287
68440W        W40023  28.203  16.871  13.039
68441W        W40024  12.200  13.799   4.622
68442W        W40025   7.930  32.875  12.400
68443W        W40026  42.116  31.618  13.344
68444W        W40027  41.843  29.922   1.322
68445W        W40028  34.413  42.171  14.417
68446W        W40029  33.602  21.148   4.538
68447W        W40030  30.519  15.850  14.558
68448W        W40031  44.325  22.692   4.387
68449W        W40032  27.601  27.125   0.560
68450W        W40033  43.307  27.687  13.440
68451W        W40034  33.149  16.800  14.825
68452W        W40035   5.771  15.229   1.164
68453W        W40036   0.971  34.871  12.978
68454W        W40037   5.361  20.545  14.769
68455W        W40038   7.665  19.982  14.871
68456W        W40039  31.771  13.811  12.134
68457W        W40040   0.177  27.081  12.072
68458W        W40041  18.810   0.883  11.534
68459W        W40042   5.969  25.592  14.705
68460W        W40043   5.868   6.759  14.095
68461W        W40044  14.783  32.893  12.548
68462W        W40045  20.572   5.141  10.492
68463W        W40046   8.874  36.828   2.884
68464W        W40047  36.347   3.486   1.333
68465W        W40048  24.642  44.798  13.759
68466W        W40049  21.083  25.467  14.224
68467W        W40050  40.044   2.906  14.799
68468W        W40051  26.270  23.052   4.702
68469W        W40052  31.100  31.497   0.632
68470W        W40053   4.939   4.274   2.195
68471W        W40054   5.916  43.825  13.476
68472W        W40055   3.724  33.498   1.212
68473W        W40056  38.136   4.676  14.343
68474W        W40057   7.983  43.875   3.096
68475W        W40058  20.498  17.624  10.980
68476W        W40059   0.712  25.754  12.505
68477W        W40060  24.557  36.354  13.933
68478W        W40061  12.664  10.102   4.543
68479W        W40062   1.714  40.388  14.370
68480W        W40063  30.213  29.513  12.533
68481W        W40064  18.745   0.667   3.360
68482W        W40065   1.924  39.000  13.446
68483W        W40066  24.113  11.928   1.930
68484W        W40067  30.735  17.564   0.365
68485W        W40068  17.705  33.139  12.592
68486W        W40069  21.927   9.125  13.119
68487W        W40070  33.681   1.455   0.752
68488W        W40071  40.556  37.490  14.656
68489W        W40072  25.698  27.286   1.373
68490W        W40073  28.472  13.168   1.223
68491W        W40074  41.300   0.733  14.932
68492W        W40075  14.669   2.754  13.366
68493W        W40076  10.321   6.859  11.525
68494W        W40077  32.524  20.011  14.846
68495W        W40078  21.318   6.829   0.206
68496W        W40079  15.569  21.300   3.264
68497W        W40080  33.210   1.926   3.761
68498W        W40081  27.242  17.343  12.370
68499W        W40082   0.186  27.961  14.932
68500W        W40083  17.165  14.264  10.706
68501W        W40084  36.848  20.618   1.959
68502W        W40085  41.115  23.492   1.827
68503W        W40086   6.762   9.891   0.773
68504W        W40087  33.993  26.724   0.404
68505W        W40088  25.539   4.340   1.866
68506W        W40089   8.657   8.752   2.186
68507W        W40090   4.863  39.677   0.254
68508W        W40091   5.972   7.695  14.707
68509W        W40092  35.301   7.372   2.126
68510W        W40093  40.538  31.939  11.033
68511W        W40094  20.545  26.932  13.779
68512W        W40095  34.278  43.120   0.368
68513W        W40096  14.648  16.017  13.350
68514W        W40097  40.310  40.568   3.241
68515W        W40098  26.085  36.347   0.512
68516W        W40099  20.371  31.838   4.681
68517W        W40100  30.715  44.284   0.286
68518W        W40101  24.975  28.911  11.871
68519W        W40102  38.064  36.974   4.656
68520W        W40103  39.457  10.789  14.501
68521W        W40104  37.481  43.330   1.389
68522W        W40105   6.150  15.337   9.883
68523W        W40106  37.897  16.284   0.767
68524W        W40107  35.022   6.880  13.377
68525W        W40108  38.995  15.746   1.674
68526W        W40109  19.652   8.837   0.818
68527W        W40110  40.428  21.271  14.822
68528W        W40111  27.081  29.274   1.282
68529W        W40112   0.795  42.315  11.024
68530W        W40113   2.114  36.366  11.437
68531W        W40114  30.843  30.872  12.541
68532W        W40115  18.182  14.171   3.116
68533W        W40116   7.622   6.381   3.367
68534W        W40117  33.381  42.905  13.392
68535W        W40118   4.435  35.452  13.959
68536W        W40119  17.412  17.934  14.720
68537W        W40120  10.902  20.473   4.436
68538W        W40121  27.568  17.010  13.856
68539W        W40122  23.596  18.024  13.848
68540W        W40123   7.817  16.898   1.688
68541W        W40124   7.307   2.371  12.376
68542W        W40125  18.786  21.073   3.531
68543W        W40126   1.721  33.384  13.851
68544W        W40127   4.466  25.268  11.255
68545W        W40128  31.954  40.029  13.012
68546W        W40129  24.966  19.219   1.519
68547W        W40130  37.439  32.828  12.644
68548W        W40131  44.565   7.843  11.469
68549W        W40132  16.578   8.497   3.631
68550W        W40133  39.602  43.984  12.892
68551W        W40134  30.969  30.399  13.502
68552W        W40135  43.978   8.919   4.629
68553W        W40136  37.446  35.997  13.501
68554W        W40137  16.635  40.775  12.420
68555W        W40138  39.298   5.410   9.784
68556W        W40139  38.934  38.977   0.320
68557W        W40140  35.715  39.019   3.705
68558W        W40141  44.244  36.282   4.124
68559W        W40142  23.189   9.351  12.628
68560W        W40143   7.974  19.653   4.550
68561W        W40144  14.611  17.523  12.635
68562W        W40145   1.796  41.544  11.256
68563W        W40146  23.960   9.729   1.258
68564W        W40147  42.275  13.423  10.610
68565W        W40148  23.107  12.082   4.633
68566W        W40149  28.687  26.726   1.413
68567W        W40150  11.390  31.126   3.197
68568W        W40151  19.218  33.716  13.047
68569W        W40152   4.647  11.966  14.926
68570W        W40153  40.931   1.326   3.498
68571W        W40154  30.611  33.734  13.620
68572W        W40155  12.301  14.377  10.735
68573W        W40156  16.138  27.754  10.623
68574W        W40157  35.396  44.017  11.677
68575W        W40158  40.750   6.430  13.753
68576W        W40159  30.654  11.812  12.482
68577W        W40160  32.371  18.485  14.828
68578W        W40161  13.882  36.844   2.818
68579W        W40162  17.764  13.673   0.922
68580W        W40163   8.051  16.285   3.679
68581W        W40164  24.207   5.788   3.589
68582W        W40165  26.501  39.064  12.988
68583W        W40166   0.591  42.099   1.670
68584W        W40167  18.298  44.425  11.512
68585W        W40168   9.292  21.074   1.937
68586W        W40169  37.074  25.734   2.785
68587W        W40170  27.255  32.067  13.473
68588W        W40171   1.910  42.258  11.934
68589W        W40172  23.459  25.595   2.321
68590W        W40173  39.913  33.049   3.622
68591W        W40174  12.030  38.557  11.517
68592W        W40175  16.222   3.939  12.236
68593W        W40176  27.081  34.524   4.138
68594W        W40177  43.387  41.316   4.953
68595W        W40178  24.693  37.378   5.133
68596W        W40179  22.067  28.417   4.992
68597W        W40180   1.869  38.000  14.716
68598W        W40181   7.732   1.175   2.903
68599W        W40182  11.264  43.464   4.114
68600W        W40183  22.571  43.361   0.271
68601W        W40184   6.968  16.134   0.016
68602W        W40185  26.508  29.010   0.061
68603W        W40186  39.062  17.237  11.075
68604W        W40187  15.442  20.057   2.856
68605W        W40188  17.480  21.868   2.422
68606W        W40189  21.212  21.251  12.372
68607W        W40190   9.736  26.108   0.666
68608W        W40191   0.311  36.564  14.803
68609W        W40192  33.822  24.088  12.006
68610W        W40193  44.676  25.214   0.912
68611W        W40194  24.147  39.473  13.331
68612W        W40195   7.379  39.133  12.098
68613W        W40196  14.761  24.674  13.170
68614W        W40197  42.371  25.989   3.389
68615W        W40198   8.829  22.433   5.094
68616W        W40199  40.469  36.914  12.930
68617W        W40200  40.785  28.657  14.825
68618W        W40201   9.726  19.164  10.824
68619W        W40202  43.638  35.183   4.543
68620W        W40203  15.781  11.639  13.565
68621W        W40204  13.284  28.394   3.863
68622W        W40205  22.142  15.142   4.791
68623W        W40206  14.586  18.249   0.394
68624W        W40207   8.154  32.611  14.523
68625W        W40208  10.714   0.493  12.983
68626W        W40209  37.770  23.231   4.147
68627W        W40210  10.686  42.442  13.338
68628W        W40211   2.161  33.945   0.239
68629W        W40212   1.178  31.478   1.350
68630W        W40213  13.370  15.363   1.680
68631W        W40214  19.700  17.055   0.249
68632W        W40215  10.798  11.855   2.693
68633W        W40216  25.660  36.667   0.407
68634W        W40217  40.544  41.983   2.359
68635W        W40218  36.852  14.807   4.219
68636W        W40219  26.183  32.514  14.894
68637W        W40220  38.960   7.924  11.072
68638W        W40221  27.671   3.985   0.188
68639W        W40222  15.859  32.661   1.390
68640W        W40223  14.846  32.537   0.347
68641W        W40224  12.414  22.777  13.550
68642W        W40225   0.201  42.810  10.901
68643W        W40226  28.142  22.731   2.556
68644W        W40227  14.710  14.320   4.546
68645W        W40228  28.705  30.497  13.790
68646W        W40229  38.998  15.240  13.004
68647W        W40230  16.160  21.191   0.361
68648W        W40231  27.700  13.654   0.759
68649W        W40232  28.195  22.026  12.982
68650W        W40233  11.812   3.311  14.408
68651W        W40234  13.597  10.298   0.915
68652W        W40235  17.630  31.118  13.958
68653W        W40236   4.667  32.020   2.603
68654W        W40237   1.261  30.945   0.805
68655W        W40238   8.454   3.512  10.726
68656W        W40239  27.001  24.612   1.711
68657W        W40240  29.898   6.740   0.382
68658W        W40241   7.205  11.253  13.084
68659W        W40242  27.006  24.578   0.754
68660W        W40243   1.112  21.712   2.679
68661W        W40244   7.693  11.365  11.547
68662W        W40245  15.275  36.548  14.292
68663W        W40246  30.442  37.846   2.998
68664W        W40247  33.770  32.455   2.505
68665W        W40248   6.272  44.923   1.908
68666W        W40249  10.249  39.376  12.195
68667W        W40250  13.233  39.426   3.216
68668W        W40251  27.351  14.182   5.008
68669W        W40252  41.082  37.687  11.042
68670W        W40253  10.869  12.359   2.692
68671W        W40254  40.574  39.272  13.875
68672W        W40255   6.938  26.913  10.601
68673W        W40256   2.421  27.526  10.765
68674W        W40257  38.851  44.332   4.566
68675W        W40258  37.826  14.533   0.328
68676W        W40259  35.421  14.766   4.724
68677W        W40260  21.023  27.867   5.517
68678W        W40261  16.150  20.836   4.543
68679W        W40262  29.593  33.063   0.467
68680W        W40263  44.076  30.571   0.875
68681W        W40264   0.161  21.691   1.416
68682W        W40265  18.885  31.074   1.820
68683W        W40266  39.670  10.416  12.785
68684W        W40267   0.270  35.969  12.507
68685W        W40268   4.855  36.812  13.547
68686W        W40269  12.583  28.349   2.831
68687W        W40270  44.984  17.735   4.777
68688W        W40271  20.701   7.421  13.864
68689W        W40272  17.856   0.516  14.359
68690W        W40273  42.529   9.719   2.244
68691W        W40274  15.077  18.700  13.010
68692W        W40275  36.098  38.245  13.387
68693W        W40276   6.257  36.815  14.926
68694W        W40277  44.424  43.732   0.776
68695W        W40278  23.945   7.399  13.072
68696W        W40279  10.852  19.215   2.689
68697W        W40280  16.518  15.296   4.268
68698W        W40281  13.946   2.983  14.728
68699W        W40282   1.460  22.457   2.799
68700W        W40283   6.349  18.130  11.262
68701W        W40284  13.221  12.856   3.828
68702W        W40285   1.879  40.381  12.951
68703W        W40286   8.398   5.228   2.613
68704W        W40287  10.084  11.898   4.626
68705W        W40288  22.647   2.140   0.905
68706W        W40289  37.367  31.897  10.552
68707W        W40290  28.427  28.728   0.196
68708W        W40291  41.129  42.668   2.351
68709W        W40292  11.348  26.639  10.990
68710W        W40293  27.552  38.760   3.602
68711W        W40294   8.117  14.321  10.847
68712W        W40295   8.555  37.535  11.209
68713W        W40296  26.591   5.914   4.956
68714W        W40297  31.711  26.619   2.029
68715W        W40298  41.313  11.366  10.678
68716W        W40299  24.494  27.387   1.420
68717W        W40300  23.771  22.213  13.772
68718W        W40301   4.291  30.066   0.858
68719W        W40302  25.293  34.988  13.779
68720W        W40303  25.202  32.989   0.242
68721W        W40304  24.184  10.739   1.895
68722W        W40305  14.483   1.424   0.977
68723W        W40306   7.708  20.877  13.938
68724W        W40307  13.634   3.486  11.118
68725W        W40308  22.241  10.847  14.348
68726W        W40309   8.648   1.145   5.110
68727W        W40310  36.587  44.304  12.157
68728W        W40311   0.304   8.362  12.481
68729W        W40312  34.905  14.109   2.282
68730W        W40313  42.264  44.457  13.083
68731W        W40314  37.312  15.716  11.633
68732W        W40315  28.280  42.996   0.890
68733W        W40316  41.946   6.002  10.457
68734W        W40317  26.483  26.284   1.756
68735W        W40318   1.057  43.236  11.056
68736W        W40319  36.118   3.690   1.750
68737W        W40320   9.969   3.152   1.228
68738W        W40321  43.054  21.005  14.271
68739W        W40322  21.072   6.733   2.392
68740W        W40323  18.755  25.347   3.805
68741W        W40324  17.018  12.687   0.019
68742W        W40325  12.335  39.888  13.048
68743W        W40326  18.825  13.395   4.528
68744W        W40327  13.304  39.222   5.129
68745W        W40328  44.514   4.751   0.362
68746W        W40329  11.645  26.616   0.782
68747W        W40330  32.417  39.290   4.825
68748W        W40331  44.791  20.217  14.348
68749W        W40332  25.745  27.654  10.637
68750W        W40333  11.336  34.912   1.664
68751W        W40334  39.848  35.980  13.289
68752W        W40335  22.925  11.330   1.587
68753W        W40336   4.668   7.834  14.368
68754W        W40337   8.370  35.058   0.304
68755W        W40338  24.020   1.159   2.352
68756W        W40339  28.433  36.480   1.375
68757W        W40340  13.674   4.699   1.853
68758W        W40341  21.713   8.784   3.119
68759W        W40342  17.605  28.198   4.143
68760W        W40343   1.728   5.251   1.411
68761W        W40344  17.574   2.003  14.551
68762W        W40345  31.248  18.237  12.494
68763W        W40346  34.652  27.634  11.639
68764W        W40347   5.761  19.086   2.814
68765W        W40348   4.385  42.418  13.562
68766W        W40349  44.000   0.880  10.470
68767W        W40350  14.583   0.536   3.660
68768W        W40351   1.382   9.262  10.590
68769W        W40352  40.684  35.911   0.177
68770W        W40353  11.837   7.354   5.115
68771W        W40354  26.780  28.348   3.713
68772W        W40355  34.060  24.316   3.239
68773W        W40356  26.093  39.573  12.529
68774W        W40357  11.163  24.804  11.579
68775W        W40358  13.067   6.250   2.749
68776W        W40359  27.755   6.893   1.385
68777W        W40360   2.454  15.006   4.147
68778W        W40361   4.931  28.212  12.439
68779W        W40362  25.048   7.462   2.629
68780W        W40363  34.017  36.895  10.539
68781W        W40364   5.957   0.256   1.356
68782W        W40365   7.965  20.668   0.766
68783W        W40366  36.020  27.949  12.924
68784W        W40367  11.688  14.624  12.430
68785W        W40368  22.012  36.355   3.633
68786W        W40369  10.638  40.924   0.225
68787W        W40370   4.683  13.863   2.628
68788W        W40371  13.398  34.436  11.676
68789W        W40372  38.567  39.999  14.815
68790W        W40373  43.786  38.632  14.704
68791W        W40374   1.464  27.751   4.092
68792W        W40375   1.635  14.756   1.288
68793W        W40376  18.742  23.001   0.359
68794W        W40377   0.220   3.862  13.054
68795W        W40378  26.527   1.435  14.909
68796W        W40379  39.525  10.231   3.596
68797W        W40380  41.563  28.981   2.391
68798W        W40381  34.008   1.431   4.712
68799W        W40382  11.671  22.537  12.625
68800W        W40383  18.357  16.838   1.002
68801W        W40384  17.136  16.743   2.762
68802W        W40385  24.597  11.930  10.867
68803W        W40386   7.049  26.726   2.855
68804W        W40387  15.533   2.000  11.920
68805W        W40388   6.656  39.272  12.970
68806W        W40389  18.594   6.463   0.745
68807W        W40390  33.731   3.478   4.838
68808W        W40391  41.304  36.318  11.557
68809W        W40392   2.530  24.972   2.221
68810W        W40393  17.735   5.723  10.680
68811W        W40394  22.110  30.631  12.682
68812W        W40395   4.833  41.703  11.992
68813W        W40396  28.781   8.832  13.575
68814W        W40397   8.199  25.192  12.548
68815W        W40398  27.974  24.031  13.533
68816W        W40399   5.970  10.832  12.780
68817W        W40400   6.879  27.303   2.010
68818W        W40401   9.195  17.413   4.498
68819W        W40402   5.754  33.626  11.985
68820W        W40403  32.800  29.541  12.235
68821W        W40404  42.239   7.305   1.455
68822W        W40405   6.338   8.390  11.977
68823W        W40406  11.060  10.460  10.653
68824W        W40407  10.546   6.407  12.428
68825W        W40408   9.820  37.149   3.634
68826W        W40409  22.270   4.770  11.563
68827W        W40410  19.794  26.224  14.338
68828W        W40411   2.965  25.205   1.233
68829W        W40412   6.292  42.965  13.445
68830W        W40413  37.389   6.128   0.456
68831W        W40414  27.973  12.284   2.744
68832W        W40415  17.030  42.399   4.310
68833W        W40416   7.435  37.322   3.731
68834W        W40417  34.799  22.758  12.331
68835W        W40418  43.470   7.401  12.688
68836W        W40419  13.411  18.105   3.985
68837W        W40420  10.899  41.755   0.324
68838W        W40421  28.428  19.782  11.201
68839W        W40422  36.159  23.118   2.437
68840W        W40423  32.577  44.921  14.550
68841W        W40424  22.691  21.282  10.071
68842W        W40425   8.378  29.152  14.520
68843W        W40426   6.485  32.558  13.367
68844W        W40427  27.158  18.637   3.771
68845W        W40428  35.972  41.473   1.455
68846W        W40429  33.940  44.890   4.614
68847W        W40430  14.322  10.952   2.698
68848W        W40431  43.349   1.928  14.050
68849W        W40432  44.409  43.040   3.252
68850W        W40433   5.518  42.531  14.024
68851W        W40434  13.012  14.954   3.558
68852W        W40435  38.054  17.669  14.843
68853W        W40436  23.909  26.475  13.585
68854W        W40437  36.498   8.545  11.711
68855W        W40438  29.581  17.019  14.928
68856W        W40439  42.145  13.720  13.057
68857W        W40440  24.315  30.905   0.352
68858W        W40441  23.696   4.745  12.026
68859W        W40442  11.513   0.324   2.282
68860W        W40443  22.770  31.477  14.353
68861W        W40444  18.766  16.506  10.643
68862W        W40445  32.415  41.986  13.890
68863W        W40446  21.996  38.073  11.065
68864W        W40447  43.370  30.681  10.681
68865W        W40448   4.929   1.196  11.635
68866W        W40449  22.618  32.338  13.847
68867W        W40450  18.633  35.944  10.616
68868W        W40451  23.753  12.846  14.476
68869W        W40452  44.404  20.963  14.414
68870W        W40453   6.222  42.134  11.726
68871W        W40454   2.938   8.923   4.211
68872W        W40455  25.671  35.826  11.601
68873W        W40456  22.617  14.812   1.743
68874W        W40457   3.456  26.965  11.232
68875W        W40458  24.324   9.847   1.663
68876W        W40459  44.723  23.134   1.492
68877W        W40460  21.706  35.899   3.736
68878W        W40461  27.745  42.989   0.875
68879W        W40462  36.578  17.886   1.489
68880W        W40463  44.418  28.352   4.068
68881W        W40464  19.769  17.072  14.737
68882W        W40465  14.261  25.184   1.241
68883W        W40466  40.280   3.974   0.498
68884W        W40467  34.963  28.610  14.592
68885W        W40468  22.551   3.150   1.725
68886W        W40469  21.595  30.466  12.854
68887W        W40470  33.002  17.844  13.439
68888W        W40471  10.162  24.290   0.900
68889W        W40472  12.773  31.415   4.611
68890W        W40473  35.030  31.517   4.455
68891W        W40474  24.682  34.153  10.422
68892W        W40475  24.814   3.747  13.423
68893W        W40476  10.664  20.177   0.750
68894W        W40477  14.570  17.447  11.699
68895W        W40478  37.070  28.535  12.955
68896W        W40479  23.057  16.416  14.836
68897W        W40480  20.395   6.877   0.752
68898W        W40481  24.397   1.355  11.067
68899W        W40482  27.766  12.565  10.650
68900W        W40483  41.503  33.988   0.886
68901W        W40484  43.419  44.847   2.002
68902W        W40485  29.960   3.531   0.872
68903W        W40486  33.630  24.504  14.333
68904W        W40487  33.911  14.644  11.992
68905W        W40488  37.024   7.950   2.711
68906W        W40489   1.376  42.222  11.971
68907W        W40490  38.587  24.632   2.590
68908W        W40491   2.181  43.389   0.201
68909W        W40492  18.763  35.035   0.444
68910W        W40493  37.628  40.476  12.779
68911W        W40494  10.529  25.386  11.210
68912W        W40495   6.995  29.702  14.834
68913W        W40496  23.077   4.752  13.930
68914W        W40497  26.687  14.296   2.187
68915W        W40498   2.315  23.100  14.244
68916W        W40499  15.324  39.000   3.247
68917W        W40500   8.156  10.290  12.890
68918W        W40501  14.814   3.049   3.731
68919W        W40502  12.485  14.205   0.443
68920W        W40503  13.709  43.327   4.590
68921W        W40504  26.687  21.391   5.025
68922W        W40505  17.418   1.837  11.594
68923W        W40506  25.035  15.574  13.961
68924W        W40507  10.628  21.975  12.854
68925W        W40508  41.876  41.323  12.225
68926W        W40509  19.151  39.703   2.277
68927W        W40510  35.458  11.784   0.082
68928W        W40511  42.944  19.691   0.020
68929W        W40512  33.996  34.340  12.922
68930W        W40513   6.285   9.851  10.910
68931W        W40514  25.018  17.062  14.938
68932W        W40515  36.975  16.567  13.488
68933W        W40516   8.547  14.208  12.849
68934W        W40517  29.373  31.126  10.674
68935W        W40518  37.011  13.856  10.612
68936W        W40519  29.307  11.809   2.651
68937W        W40520   0.515   6.119   1.665
68938W        W40521   2.382  31.637   4.019
68939W        W40522  26.016  11.894  12.474
68940W        W40523   6.814  39.099  12.462
68941W        W40524  22.988  15.788   1.854
68942W        W40525  14.349   8.281   3.143
68943W        W40526  33.041  33.664  10.699
68944W        W40527  32.948  22.484  11.934
68945W        W40528  16.705  29.881  11.722
68946W        W40529  28.203  27.916   3.836
68947W        W40530  36.900  32.994  14.883
68948W        W40531   6.380  14.851  11.497
68949W        W40532   9.318  41.464  13.725
68950W        W40533   5.754  44.724   1.660
68951W        W40534  13.359  14.286   1.659
68952W        W40535  19.307  30.007  11.672
68953W        W40536  21.183  44.194   4.189
68954W        W40537  28.585  33.148   2.336
68955W        W40538   6.740  17.120   2.102
68956W        W40539  15.592  20.585   2.856
68957W        W40540  33.157  43.394  11.520
68958W        W40541   4.484   6.896  11.071
68959W        W40542  14.038  34.931   1.494
68960W        W40543   0.476  32.576  13.284
68961W        W40544   7.693  31.015   2.611
68962W        W40545  32.590  14.232   0.756
68963W        W40546   3.222  32.744   3.613
68964W        W40547   2.243  34.415   2.165
68965W        W40548  23.086  13.130   0.373
68966W        W40549  41.435   0.624   1.970
68967W        W40550  23.753   3.755  13.488
68968W        W40551  28.964  26.184  13.010
68969W        W40552  22.193   2.777   1.478
68970W        W40553  32.112   4.233   4.542
68971W        W40554   3.430  17.569  10.898
68972W        W40555  32.994   9.970  14.333
68973W        W40556  17.134  16.351   3.115
68974W        W40557  12.265  22.304   0.334
68975W        W40558  20.428  24.140   0.902
68976W        W40559  23.088  12.472  14.040
68977W        W40560  25.519   3.261  13.684
68978W        W40561  23.153   2.781   1.413
68979W        W40562  33.523   3.206  14.193
68980W        W40563  27.216  23.368  12.564
68981W        W40564  30.880  35.076  11.089
68982W        W40565  39.047  10.478  13.565
68983W        W40566   8.491  17.546  14.241
68984W        W40567  42.053   7.525   3.832
68985W        W40568  31.894   1.761   0.391
68986W        W40569  34.025  34.390  12.090
68987W        W40570  20.301  15.224   0.640
68988W        W40571  40.760  15.240   0.041
68989W        W40572   9.566  23.995   1.982
68990W        W40573  26.882   4.147   2.161
68991W        W40574  19.630  30.048   5.794
68992W        W40575  26.908  17.864   1.743
68993W        W40576  23.119   9.172  11.398
68994W        W40577  40.957  41.056  13.110
68995W        W40578  27.029  12.080   0.421
68996W        W40579  18.022  29.529   0.026
68997W        W40580  18.674  11.191  12.080
68998W        W40581   8.371  40.365   4.485
68999W        W40582  24.370  18.519  11.746
69000W        W40583  43.846  40.768  11.114
69001W        W40584  31.261  27.841   5.084
69002W        W40585  33.167  12.171   3.692
69003W        W40586   2.995  12.904   2.371
69004W        W40587  38.058   8.832  14.505
69005W        W40588  44.483  16.537   3.186
69006W        W40589  44.035   5.251   4.601
69007W        W40590  28.467  25.768   1.062
69008W        W40591  18.342  25.714   2.229
69009W        W40592  17.978  13.399   1.338
69010W        W40593  14.182  15.048  12.213
69011W        W40594  43.384  18.656  11.505
69012W        W40595  25.759  19.059  14.786
69013W        W40596  10.379  41.188  12.496
69014W        W40597  43.104   3.874   2.895
69015W        W40598  20.607  32.289   0.351
69016W        W40599  12.020   6.469  11.033
69017W        W40600  36.048  35.959  10.957
69018W        W40601  23.415  41.038   3.510
69019W        W40602  39.465  44.337  10.153
69020W        W40603  17.214  43.952  11.455
69021W        W40604  35.082  15.044   0.469
69022W        W40605  20.772  23.869  14.280
69023W        W40606  22.151  27.644   4.116
69024W        W40607  18.108  24.297  13.007
69025W        W40608  13.520   3.934   3.511
69026W        W40609  39.622  10.965  11.953
69027W        W40610  29.869   0.804  11.830
69028W        W40611  24.789  14.155  13.735
69029W        W40612  36.891  15.808   3.215
69030W        W40613  22.475  40.177   1.765
69031W        W40614  12.221  25.798  10.653
69032W        W40615  41.074  22.431  12.204
69033W        W40616   1.296  34.975   0.886
69034W        W40617  41.721  27.799   0.488
69035W        W40618  36.876  35.409   0.859
69036W        W40619  16.718  16.437   0.311
69037W        W40620  33.015  40.428   2.566
69038W        W40621   7.528  30.541  13.407
69039W        W40622   8.610  43.973  13.887
69040W        W40623  16.148   4.374   2.426
69041W        W40624  27.011  12.667   4.565
69042W        W40625  42.246   5.716  14.840
69043W        W40626   4.367  29.174  11.607
69044W        W40627   3.954  27.585  11.105
69045W        W40628  23.604  16.619   0.495
69046W        W40629  11.121  15.769   3.127
69047W        W40630  21.474  17.140  14.000
69048W        W40631  11.242   0.359  10.615
69049W        W40632  31.909  12.087  12.392
69050W        W40633   0.235  23.205   4.598
69051W        W40634  35.372  20.709   3.945
69052W        W40635  21.859  27.187   3.234
69053W        W40636  20.529  35.462   2.243
69054W        W40637   0.295  29.702  13.100
69055W        W40638  14.365  12.336   0.221
69056W        W40639  11.176  21.577   2.344
69057W        W40640   9.193  44.273  13.912
69058W        W40641  31.447  11.344  14.399
69059W        W40642  14.065  34.138   2.031
69060W        W40643  33.384  38.670  12.844
69061W        W40644  38.951  20.943  14.418
69062W        W40645  25.694  22.145   4.077
69063W        W40646  35.930  21.518  12.942
69064W        W40647  17.855  10.422  12.375
69065W        W40648   2.326   5.392  13.391
69066W        W40649  13.409  31.025   3.132
69067W        W40650  30.567  22.992  11.116
69068W        W40651  42.819  38.065  10.304
69069W        W40652  25.191  15.909   3.101
69070W        W40653  16.991  29.102  14.386
69071W        W40654   2.311  43.233   3.259
69072W        W40655  16.709  10.715   1.291
69073W        W40656  40.259   8.317   1.294
69074W        W40657  22.065  29.970  11.477
69075W        W40658  42.476  10.128   2.619
69076W        W40659  19.338  44.809   2.844
69077W        W40660  31.681  32.905   4.782
69078W        W40661  15.764  16.154  14.738
69079W        W40662  26.609   4.725  13.958
69080W        W40663  22.318  15.124  13.485
69081W        W40664   6.293  29.943  11.935
69082W        W40665  37.020   4.624  11.081
69083W        W40666  24.413  35.176  13.339
69084W        W40667   1.343  43.371  13.495
69085W        W40668  44.383  41.265   0.237
69086W        W40669  17.259  12.651  11.367
69087W        W40670  42.406   9.166   0.426
69088W        W40671  25.941   0.311   0.942
69089W        W40672  10.187   1.059  11.005
69090W        W40673  30.251  25.235   0.806
69091W        W40674  25.496  37.486  13.966
69092W        W40675  30.450  33.431   0.789
69093W        W40676  26.210   9.667   3.242
69094W        W40677  44.518   5.754   0.071
69095W        W40678   2.493  27.964   1.200
69096W        W40679  40.952  14.654  14.421
69097W        W40680  38.511   1.678  11.203
69098W        W40681  39.969  25.650  11.030
69099W        W40682  20.667  41.521   1.445
69100W        W40683  37.614  32.068  13.855
69101W        W40684  33.622   4.484   2.408
69102W        W40685  13.390  36.713   0.312
69103W        W40686  26.598  25.027   2.903
69104W        W40687  36.176  22.632   9.989
69105W        W40688  18.919  20.432   3.729
69106W        W40689  14.187  20.550  13.261
69107W        W40690  24.218  15.831   4.529
69108W        W40691  34.140  44.388   3.155
69109W        W40692   0.929   4.935   3.359
69110W        W40693   1.963  30.106  14.948
69111W        W40694  16.579  22.543   4.558
69112W        W40695   2.766  28.363  12.961
69113W        W40696  10.692  22.542  11.977
69114W        W40697  30.303  30.423   3.346
69115W        W40698   2.752  27.177  12.468
69116W        W40699  21.132  11.707   4.110
69117W        W40700  28.652  23.178   4.964
69118W        W40701  15.723  43.355  10.763
69119W        W40702  18.608  10.527  11.173
69120W        W40703  24.316  27.624  12.906
69121W        W40704  11.934  19.632  13.842
69122W        W40705  44.833  27.798   2.284
69123W        W40706  20.144  39.074   3.310
69124W        W40707  12.607  11.422   2.743
69125W        W40708  20.199  20.845   3.956
69126W        W40709  27.557   7.972   2.431
69127W        W40710  16.050   3.939   0.880
69128W        W40711  36.493  35.853  11.249
69129W        W40712   5.817  40.350  14.339
69130W        W40713  16.069  41.774   2.967
69131W        W40714  28.988  33.341  14.195
69132W        W40715  23.971   1.622  12.353
69133W        W40716  37.441   5.530  10.201
69134W        W40717   6.691  28.585   3.154
69135W        W40718  44.143  36.092  12.878
69136W        W40719  39.279   4.231  14.905
69137W        W40720  25.405   2.319   2.395
69138W        W40721   8.824  29.322   1.773
69139W        W40722   7.900   0.598  11.774
69140W        W40723  27.421  18.227  12.871
69141W        W40724  17.703  43.644  13.039
69142W        W40725  20.645  28.691  12.379
69143W        W40726   2.873  22.552  12.579
69144W        W40727  29.417  26.390  14.299
69145W        W40728  25.123  32.172   4.501
69146W        W40729   2.268   2.199   4.885
69147W        W40730  37.318  39.918  14.552
69148W        W40731   4.381   2.769   3.684
69149W        W40732  14.066  18.427  14.457
69150W        W40733  35.594  37.945  10.326
69151W        W40734   5.305   2.763  13.126
69152W        W40735  40.777   3.696  10.702
69153W        W40736  14.740  24.804   3.158
69154W        W40737  33.004  30.896  10.569
69155W        W40738   2.709  16.613   1.874
69156W        W40739  12.565  17.948   2.339
69157W        W40740   5.450  36.286   2.176
69158W        W40741  40.086  14.724  12.977
69159W        W40742  21.907  29.396  12.301
69160W        W40743  30.700   6.906  13.939
69161W        W40744  37.836  40.765  14.323
69162W        W40745  42.335  44.640   4.270
69163W        W40746   1.321   9.389  13.233
69164W        W40747  37.069  25.645  13.929
69165W        W40748  15.128  43.785   2.908
69166W        W40749  33.478  39.430   0.977
69167W        W40750  10.561  41.547   3.703
69168W        W40751   1.365  23.452   3.666
69169W        W40752  11.743  14.707   3.313
69170W        W40753   2.239  17.683   2.719
69171W        W40754  11.354  19.104  12.370
69172W        W40755  32.232  25.702  11.652
69173W        W40756  16.337   2.264   2.736
69174W        W40757  39.245   3.855   3.124
69175W        W40758  16.230  29.755   4.284
69176W        W40759  40.087  16.805  12.916
69177W        W40760   4.894  31.346   3.887
69178W        W40761   8.977  14.717  11.469
69179W        W40762  20.418  40.417   4.498
69180W        W40763  18.535   1.292   1.369
69181W        W40764  41.965  18.468   3.241
69182W        W40765  10.191  42.092  13.831
69183W        W40766   6.389  27.390   3.561
69184W        W40767  19.712  30.962   5.754
69185W        W40768  23.522  19.107   2.470
69186W        W40769  36.122   5.898   3.413
69187W        W40770  44.674  31.571  11.570
69188W        W40771  39.112  22.582  12.430
69189W        W40772  29.401   7.805   1.881
69190W        W40773  27.155  37.244   4.847
69191W        W40774  37.835  20.709  10.570
69192W        W40775  13.112  21.195   1.589
69193W        W40776   4.506  41.396   0.239
69194W        W40777  11.897  17.366   1.954
69195W        W40778  15.527  30.529  13.505
69196W        W40779  35.781   0.423   0.801
69197W        W40780  43.422  28.207  11.464
69198W        W40781   1.634   7.776  11.631
69199W        W40782  24.703  16.113   4.651
69200W        W40783   6.629  24.682  11.629
69201W        W40784  14.808  33.369   0.007
69202W        W40785  18.811   0.903   1.854
69203W        W40786  16.754  25.202   1.455
69204W        W40787  10.172   2.708   1.377
69205W        W40788  40.573  34.967   4.316
69206W        W40789  15.700  41.934  12.813
69207W        W40790  40.928  41.627   2.379
69208W        W40791   0.859  10.494  14.641
69209W        W40792   0.356  34.371   1.444
69210W        W40793  38.397  16.289  12.408
69211W        W40794  35.100  19.145  11.853
69212W        W40795   5.123   1.494   4.127
69213W        W40796   7.907  16.319   2.749
69214W        W40797  27.883  44.509   4.185
69215W        W40798  19.027   1.024  13.997
69216W        W40799  40.386  10.538  14.896
69217W        W40800  17.346  38.152  13.091
69218W        W40801  32.919  22.874   4.310
69219W        W40802  17.607  16.310   3.667
69220W        W40803  41.643  25.688   2.890
69221W        W40804  43.014  28.661   1.836
69222W        W40805   6.220  29.412  13.881
69223W        W40806  38.587  18.742  11.547
69224W        W40807  30.647  42.205  13.438
69225W        W40808  39.084  13.374   0.679
69226W        W40809  10.491   5.516  13.812
69227W        W40810  37.156  20.822  12.783
69228W        W40811  20.304  24.730   3.353
69229W        W40812  18.093   0.503   1.238
69230W        W40813  43.717   6.397  14.385
69231W        W40814  13.804  34.154   3.835
69232W        W40815   9.349  33.895  14.732
69233W        W40816  27.070  12.886   0.842
69234W        W40817   4.379  36.971  12.439
69235W        W40818  22.353  14.228  10.552
69236W        W40819   3.629  20.016  12.275
69237W        W40820  36.546  33.375  12.838
69238W        W40821  15.821  30.644   1.451
69239W        W40822  35.999  44.929   4.315
69240W        W40823  42.801  28.941   4.568
69241W        W40824  17.253  34.847  14.798
69242W        W40825   7.289  42.471   1.836
69243W        W40826  29.651  12.767   4.250
69244W        W40827  17.017  34.884   0.261
69245W        W40828   4.658  33.076  14.744
69246W        W40829  12.178  22.208   1.700
69247W        W40830  18.511   7.907   3.193
69248W        W40831   2.710  11.789  14.872
69249W        W40832  30.828  19.401   2.394
69250W        W40833   9.500  25.139   2.936
69251W        W40834  40.777  14.106  11.298
69252W        W40835   0.447  16.323  10.702
69253W        W40836   8.079  13.842   3.181
69254W        W40837  17.276  41.533   1.853
69255W        W40838  31.661  15.251  14.824
69256W        W40839  28.049  26.895   1.929
69257W        W40840  16.426  24.915  11.038
69258W        W40841  28.222  26.581   2.813
69259W        W40842  24.971   1.541  12.997
69260W        W40843  28.233   3.943   2.614
69261W        W40844  39.056  33.961  10.977
69262W        W40845  24.527  10.239   0.299
69263W        W40846  20.760  21.069  13.530
69264W        W40847  40.042  29.055   4.544
69265W        W40848  12.360  39.072  13.765
69266W        W40849  21.175  20.075   1.857
69267W        W40850  12.736  41.019   2.468
69268W        W40851  20.575  35.452  11.036
69269W        W40852  43.368  35.114   0.455
69270W        W40853   3.034  18.947   2.111
69271W        W40854  33.932   2.530  11.351
69272W        W40855  12.645   7.754   0.908
69273W        W40856   7.764  25.657   1.918
69274W        W40857  24.967  20.720  11.586
69275W        W40858  44.467   3.179  12.659
69276W        W40859  21.145  24.879   4.988
69277W        W40860  11.118   7.811   0.928
69278W        W40861  21.715  27.342   5.006
69279W        W40862  19.256  29.381   0.013
69280W        W40863  16.679  36.964  14.417
69281W        W40864  43.193  40.017  11.919
69282W        W40865  17.258  21.257  12.501
69283W        W40866  10.194  11.052   0.734
69284W        W40867  12.200  16.139  14.903
69285W        W40868  25.315  21.802   4.045
69286W        W40869  18.963  23.717   4.388
69287W        W40870   7.724   5.665   3.688
69288W        W40871  27.863  23.785   4.171
69289W        W40872  36.821  11.546   0.065
69290W        W40873  31.035  34.372  12.528
69291W        W40874  31.327  40.464   4.275
69292W        W40875  15.244  37.588  11.158
69293W        W40876   6.226  31.433   3.733
69294W        W40877  11.341  44.329  12.104
69295W        W40878  10.321  11.816   3.202
69296W        W40879  34.783  29.336   3.256
69297W        W40880  16.124  30.904  11.240
69298W        W40881  15.721  29.221  14.975
69299W        W40882   4.216  34.549  11.512
69300W        W40883   6.440  36.850   4.446
69301W        W40884  38.816   6.900  12.941
69302W        W40885  36.891  15.530  13.675
69303W        W40886  24.166   8.292  11.190
69304W        W40887  43.919  40.831  13.060
69305W        W40888  16.820  37.858  14.897
69306W        W40889  30.701  42.956   4.561
69307W        W40890  28.370  16.273  14.951
69308W        W40891  36.737   7.047  11.020
69309W        W40892   4.984  41.869  14.493
69310W        W40893  17.244  13.748   1.692
69311W        W40894  37.579   4.364   2.345
69312W        W40895  18.863  21.317  12.485
69313W        W40896  42.215  28.437   1.331
69314W        W40897   4.796   8.037   0.264
69315W        W40898  28.437  16.265  10.679
69316W        W40899  33.899  30.581   3.198
69317W        W40900   9.854  36.643   3.836
69318W        W40901  43.369  30.605   3.879
69319W        W40902  18.214  15.327  14.325
69320W        W40903  15.730  25.367   4.995
69321W        W40904  10.216  37.088  12.910
69322W        W40905  38.056  41.307   2.662
69323W        W40906   8.067  13.089   4.627
69324W        W40907  29.141  42.721  12.953
69325W        W40908  25.977  24.801   1.499
69326W        W40909  44.237  41.538  12.882
69327W        W40910   7.957  36.733   1.788
69328W        W40911  16.058   6.135   0.177
69329W        W40912  43.371  14.588   2.348
69330W        W40913  31.965   4.865  12.241
69331W        W40914   4.878  39.161  10.767
69332W        W40915  22.245  31.511  14.040
69333W        W40916  26.893   6.837  11.372
69334W        W40917   0.770  29.919  12.040
69335W        W40918   0.250  42.909   3.642
69336W        W40919  28.477  14.129  10.968
69337W        W40920   3.961  29.425   2.575
69338W        W40921   8.704   2.470   2.228
69339W        W40922  34.010  34.908  12.070
69340W        W40923  37.346   9.805   0.894
69341W        W40924  13.796  19.728   3.354
69342W        W40925  17.370   0.322   1.752
69343W        W40926  10.867  20.339   3.883
69344W        W40927  38.283  34.936   1.065
69345W        W40928  36.180  43.429  12.514
69346W        W40929  26.488  19.019   1.439
69347W        W40930  25.476  36.374   0.948
69348W        W40931   3.782  24.951  10.863
69349W        W40932   1.222   2.846   3.306
69350W        W40933  22.551  19.166   0.027
69351W        W40934  23.142  26.794   2.537
69352W        W40935  20.205  13.061   3.360
69353W        W40936  32.394  34.393  12.480
69354W        W40937  20.879   5.486  13.150
69355W        W40938  26.545  36.891  11.166
69356W        W40939   5.964  28.779  11.136
69357W        W40940   9.194  28.259  12.553
69358W        W40941  34.095  10.702   3.253
69359W        W40942  10.424  29.658  12.097
69360W        W40943  15.157   2.443  14.352
69361W        W40944  13.053  35.691  12.068
69362W        W40945  22.041  12.152  14.681
69363W        W40946  14.813  11.670   2.182
69364W        W40947   1.597  11.682  13.392
69365W        W40948  20.097  21.826   4.672
69366W        W40949  38.444  20.225  11.570
69367W        W40950  25.935  15.572  14.487
69368W        W40951   3.813  23.461   2.754
69369W        W40952  18.942  38.056  12.001
69370W        W40953  38.328  21.540  13.438
69371W        W40954   9.927   6.288  13.795
69372W        W40955   3.275  34.975   3.743
69373W        W40956   3.947   1.232  12.509
69374W        W40957  28.979  18.212   2.829
69375W        W40958  23.236  14.234   1.173
69376W        W40959  30.907  43.471  11.378
69377W        W40960  12.589   6.557  11.271
69378W        W40961  34.214  25.889  14.890
69379W        W40962  41.776  28.012  13.039
69380W        W40963  34.292  39.597   2.456
69381W        W40964  43.029  36.664   1.646
69382W        W40965  41.737  21.717   2.494
69383W        W40966  39.387   8.091  13.464
69384W        W40967  28.881  38.048  13.580
69385W        W40968  30.578  38.256   3.314
69386W        W40969  39.771  15.130  14.916
69387W        W40970   4.020  42.938   2.183
69388W        W40971   5.674  40.339   3.230
69389W        W40972  39.270   5.360   0.791
69390W        W40973  42.867  21.489  13.477
69391W        W40974  14.003  11.263   2.355
69392W        W40975   1.262  21.655  12.816
69393W        W40976  43.903  30.574  11.560
69394W        W40977  41.964   8.813  14.253
69395W        W40978  18.607  38.853  11.580
69396W        W40979  24.685  15.308  10.813
69397W        W40980  21.064   7.051   5.549
69398W        W40981  44.301  32.242   1.209
69399W        W40982  22.189  35.591  14.963
69400W        W40983  40.805  37.262   4.438
69401W        W40984  34.518   8.815  11.172
69402W        W40985  12.705  14.592  10.945
69403W        W40986  10.732  21.773  14.996
69404W        W40987   7.272  44.521   4.650
69405W        W40988  34.347   6.668  13.042
69406W        W40989   4.958  30.468   3.622
69407W        W40990  39.430   2.542   4.656
69408W        W40991  23.705  22.496  11.188
69409W        W40992  27.994  31.664   3.635
69410W        W40993  33.031  11.646   4.680
69411W        W40994  42.938   5.644   1.337
69412W        W40995  10.706  27.723  10.360
69413W        W40996  30.976  30.557   1.690
69414W        W40997  44.258   5.852   9.779
69415W        W40998  20.758  19.244   1.809
69416W        W40999  33.169   3.193  13.434
69417W        W41000  30.069  42.013   3.569
69418W        W41001  31.207   4.663   2.761
69419W        W41002   2.265  44.888  11.542
69420W        W41003  30.309  17.569  12.224
69421W        W41004   6.710  37.234  13.855
69422W        W41005   5.749  16.613  10.918
69423W        W41006   2.966   8.345  12.850
69424W        W41007  38.858  16.061   2.447
69425W        W41008  35.558  34.884   0.681
69426W        W41009  31.075  29.733  10.704
69427W        W41010   9.834  35.924   2.074
69428W        W41011  40.924  10.734  11.652
69429W        W41012  22.589  26.419   0.862
69430W        W41013  23.435  44.934  13.400
69431W        W41014   8.195  30.273  12.042
69432W        W41015  23.935  36.935  11.144
69433W        W41016  37.543  37.645   3.206
69434W        W41017  37.010   1.289   1.718
69435W        W41018  32.615  19.246  12.603
69436W        W41019  19.392   8.684   4.148
69437W        W41020  27.459  24.925  10.628
69438W        W41021  27.580   0.314   2.355
69439W        W41022  20.705   4.452  11.543
69440W        W41023  30.092  10.385   0.966
69441W        W41024  35.079  26.006   0.435
69442W        W41025  20.000  20.897  14.209
69443W        W41026  35.018  18.301  14.361
69444W        W41027   6.886  25.280  14.092
69445W        W41028   6.490  34.911   2.405
69446W        W41029  29.915  36.334   3.200
69447W        W41030  40.316  26.107   1.019
69448W        W41031  29.373  27.547  10.656
69449W        W41032  23.125  18.259  12.888
69450W        W41033  14.898  20.067   0.923
69451W        W41034  15.609  24.560   4.593
69452W        W41035  17.859  18.887  10.977
69453W        W41036  14.131  36.976  13.813
69454W        W41037  33.375   5.196  12.066
69455W        W41038  27.481  32.557   3.194
69456W        W41039  19.887  44.590   1.690
69457W        W41040  43.799  41.321   0.835
69458W        W41041  14.458  29.199  10.655
69459W        W41042  38.553  11.002   1.642
69460W        W41043  14.036  13.757   2.294
69461W        W41044   9.215  34.305  10.317
69462W        W41045  14.113  14.384  14.848
69463W        W41046   7.655   1.735   4.071
69464W        W41047  44.236  37.353   4.119
69465W        W41048  17.651  31.704  11.196
69466W        W41049  32.087   6.799  13.578
69467W        W41050  26.032  42.864  12.694
69468W        W41051  20.537  28.818   3.625
69469W        W41052   0.258  33.628  11.118
69470W        W41053  13.124  20.704  14.998
69471W        W41054  31.859  22.378   3.239
69472W        W41055  31.059  26.915   2.429
69473W        W41056  25.694  21.289  13.502
69474W        W41057  24.813  17.058   0.475
69475W        W41058  36.822  18.043  11.438
69476W        W41059   2.726  15.505  11.065
69477W        W41060  39.516   4.321   3.285
69478W        W41061  24.107  31.077  13.918
69479W        W41062  23.118   1.159   2.370
69480W        W41063  32.325  11.246  12.893
69481W        W41064  21.325  37.808  12.374
69482W        W41065  28.080  23.935  12.642
69483W        W41066  18.279   8.888   0.371
69484W        W41067  16.720  40.546   0.753
69485W        W41068  31.684  43.022   4.482
69486W        W41069  30.303   1.718   0.266
69487W        W41070  22.285  30.151   2.781
69488W        W41071  33.518  20.366   1.362
69489W        W41072  16.611  43.482   4.288
69490W        W41073   7.177  41.506   0.399
69491W        W41074  43.731  21.580   2.889
69492W        W41075   6.410  13.675  13.433
69493W        W41076   8.280  34.331   1.431
69494W        W41077  14.113   9.206  14.723
69495W        W41078  28.750  43.452   2.773
69496W        W41079  43.618  24.927   4.559
69497W        W41080  21.690   1.978  14.780
69498W        W41081  22.772  13.614   4.599
69499W        W41082   6.910  39.848   2.381
69500W        W41083   8.995  22.567   3.349
69501W        W41084  44.733  23.112   4.556
69502W        W41085  38.220  21.689  12.969
69503W        W41086  20.956  31.000   0.001
69504W        W41087  17.112  36.480   4.627
69505W        W41088  17.963  19.167  13.127
69506W        W41089  37.119  15.110   3.150
69507W        W41090  44.334  43.456   3.657
69508W        W41091  26.737  27.145   3.251
69509W        W41092  33.137  21.743  10.217
69510W        W41093  37.420  17.745   3.425
69511W        W41094  32.342  16.827  14.421
69512W        W41095  35.155  13.244  12.004
69513W        W41096  37.451   7.887  10.671
69514W        W41097  26.970   4.315  12.514
69515W        W41098  44.777  20.263  13.261
69516W        W41099  22.533  18.865  10.672
69517W        W41100  23.494  15.856   1.891
69518W        W41101   6.110  22.289  11.189
69519W        W41102  36.386   6.654  11.157
69520W        W41103  28.868   2.238  11.605
69521W        W41104   3.083   3.070   4.121
69522W        W41105  10.322   5.966  12.968
69523W        W41106  35.294  39.488   1.011
69524W        W41107  43.065   8.452   1.296
69525W        W41108  33.990   9.857   3.840
69526W        W41109  44.097  32.438  13.454
69527W        W41110  42.284  25.194   1.821
69528W        W41111   1.563  28.948  14.012
69529W        W41112  25.197  17.717   0.947
69530W        W41113   4.864  43.902   2.413
69531W        W41114  37.006  15.086  11.265
69532W        W41115  38.918  37.767  13.376
69533W        W41116  41.435  32.439   1.708
69534W        W41117  26.692  13.278   1.893
69535W        W41118   1.576  28.133  11.613
69536W        W41119   0.328  23.673   2.361
69537W        W41120  12.662  38.777  12.529
69538W        W41121   4.916  23.528  13.897
69539W        W41122  14.237  43.935   3.252
69540W        W41123  33.982  15.721   2.308
69541W        W41124  39.985  22.085   2.492
69542W        W41125  36.194  33.239  13.900
69543W        W41126  37.316   3.389  11.527
69544W        W41127  43.439   4.291  11.312
69545W        W41128  22.538  35.581  14.526
69546W        W41129  24.973  41.077   1.666
69547W        W41130   9.138  17.104   2.742
69548W        W41131  36.050   7.672   3.126
69549W        W41132   5.353   3.811   3.568
69550W        W41133  40.347   1.740  12.040
69551W        W41134  27.145   6.637   2.312
69552W        W41135  24.652  19.268  12.439
69553W        W41136  13.265  13.848  14.811
69554W        W41137  14.314  11.369   0.787
69555W        W41138  26.483  15.071   4.318
69556W        W41139  43.950  36.262  13.523
69557W        W41140  42.659  40.067   2.291
69558W        W41141  13.111  31.989   0.241
69559W        W41142  39.610  28.169  13.836
69560W        W41143  35.487   9.765  11.201
69561W        W41144  25.748  28.017  12.073
69562W        W41145  14.002  36.830   9.764
69563W        W41146  20.681   6.926  11.134
69564W        W41147   4.348  11.062  10.703
69565W        W41148  16.100  14.658   0.170
69566W        W41149  17.091  32.376   4.728
69567W        W41150  31.627  18.242   3.763
69568W        W41151  11.668  31.951  14.331
69569W        W41152  21.713   6.809   3.074
69570W        W41153  40.707  16.640   0.362
69571W        W41154  27.038  19.733   2.925
69572W        W41155  14.725  39.403  13.992
69573W        W41156  19.026   8.666  13.423
69574W        W41157   3.755  43.113   4.736
69575W        W41158   6.981  34.022   2.128
69576W        W41159  34.275  22.495   2.625
69577W        W41160  38.086   4.229  11.243
69578W        W41161   5.285  44.851   2.861
69579W        W41162  11.839  19.557  11.610
69580W        W41163   7.384  33.326   0.311
69581W        W41164  10.807  40.016  11.402
69582W        W41165  41.257  20.552  13.564
69583W        W41166   8.832   9.951   0.185
69584W        W41167  13.149  35.813   2.544
69585W        W41168  28.795  30.252   4.982
69586W        W41169  28.147  24.207  10.680
69587W        W41170  25.098  38.786   2.666
69588W        W41171  38.654   8.626   2.307
69589W        W41172  35.340  12.563   2.657
69590W        W41173  42.142  20.356  11.163
69591W        W41174  11.755   8.894  11.989
69592W        W41175  35.975  44.640   2.331
69593W        W41176  23.807   3.248   1.810
69594W        W41177  43.657  15.193  14.829
69595W        W41178  12.326  18.258  14.061
69596W        W41179  32.425  28.767   4.796
69597W        W41180   3.873  38.674  10.274
69598W        W41181  18.561   8.022   3.993
69599W        W41182  30.796  29.900  11.940
69600W        W41183  26.598  12.171   0.725
69601W        W41184  13.747  26.130  11.135
69602W        W41185   8.946  12.901   4.434
69603W        W41186  27.375  14.046   3.616
69604W        W41187  25.590  31.922   4.661
69605W        W41188  14.607  18.134  10.297
69606W        W41189  12.729  10.399   3.632
69607W        W41190  10.745  18.558  13.948
69608W        W41191  15.652  33.181   1.317
69609W        W41192  13.049   3.241   2.603
69610W        W41193  13.615   9.744   4.061
69611W        W41194  16.565  22.051  11.222
69612W        W41195  23.285   1.045  12.907
69613W        W41196  23.877  37.921   4.161
69614W        W41197  35.259   3.284   5.021
69615W        W41198   5.265  26.591  12.921
69616W        W41199  42.872  15.779  13.127
69617W        W41200  15.769   8.658   1.921
69618W        W41201  12.547  34.982  11.965
69619W        W41202  29.927  32.618   0.430
69620W        W41203  40.299  30.377  14.069
69621W        W41204  29.914  35.115   1.436
69622W        W41205  37.530   9.445   2.262
69623W        W41206   0.846  28.136   2.301
69624W        W41207  38.459  10.289  11.532
69625W        W41208  12.877  27.139   1.812
69626W        W41209  43.740   9.363   0.895
69627W        W41210   9.859  26.216  13.723
69628W        W41211  38.888  44.353  14.818
69629W        W41212  35.482   0.852   4.146
69630W        W41213   5.666  30.101   0.470
69631W        W41214  26.473  38.662   0.415
69632W        W41215  18.807   5.244   2.518
69633W        W41216  18.319   3.453  13.264
69634W        W41217  41.906  24.777   3.154
69635W        W41218  11.226  25.017  12.663
69636W        W41219  31.417  24.832   4.983
69637W        W41220  37.155   3.379   4.583
69638W        W41221  16.623  38.427  13.402
69639W        W41222  14.104  30.737  13.470
69640W        W41223  33.304  19.081  11.520
69641W        W41224  37.737  18.460   4.548
69642W        W41225  14.037  19.289  13.439
69643W        W41226  13.206   9.588   1.906
69644W        W41227  18.659  17.007  10.598
69645W        W41228  14.643  35.111  14.512
69646W        W41229  28.935  10.731  13.041
69647W        W41230  44.257   6.166   5.069
69648W        W41231  20.179  39.330   2.869
69649W        W41232  40.922  29.709   3.680
69650W        W41233   9.244  43.890  11.278
69651W        W41234  29.417   9.153  13.857
69652W        W41235  44.316   1.458   2.240
69653W        W41236  20.699  38.774   2.203
69654W        W41237   5.144  40.897   1.679
69655W        W41238   3.062   7.749  12.102
69656W        W41239   2.867   5.279   3.675
69657W        W41240  40.750   4.457   1.836
69658W        W41241   7.752  32.018   3.634
69659W        W41242  38.040   5.439  12.918
69660W        W41243  40.494  16.398   3.185
69661W        W41244  26.241   9.077  10.199
69662W        W41245  26.878   3.670   1.356
69663W        W41246  38.034   7.081  10.700
69664W        W41247  42.929  23.442  11.743
69665W        W41248  33.053  37.461  10.197
69666W        W41249  29.671  44.068  13.843
69667W        W41250  14.658  19.424  11.530
69668W        W41251  32.438  35.787   4.110
69669W        W41252  28.818  36.800   4.713
69670W        W41253  28.449  23.317  13.470
69671W        W41254  16.840  35.025  11.009
69672W        W41255  18.296  26.837  13.246
69673W        W41256  39.072  12.917   1.722
69674W        W41257   6.729  35.179   4.955
69675W        W41258  20.627  22.435   1.712
69676W        W41259  38.294  41.497  11.684
69677W        W41260  26.978  23.295   0.789
69678W        W41261  10.701   3.487  13.465
69679W        W41262  12.592  27.558  14.610
69680W        W41263  31.199   6.582  12.576
69681W        W41264  18.509   6.444  10.660
69682W        W41265   7.696  37.494   3.245
69683W        W41266  22.303  43.716  11.188
69684W        W41267  13.927  38.935   2.675
69685W        W41268  32.337  22.741   5.046
69686W        W41269  26.508   3.358   4.794
69687W        W41270   0.965  37.781   4.347
69688W        W41271  28.150  42.039  12.387
69689W        W41272  31.179  15.163   2.153
69690W        W41273   3.195  29.794   4.974
69691W        W41274  40.117  17.369  11.144
69692W        W41275   8.931  43.698  14.793
69693W        W41276  11.202  12.823  14.280
69694W        W41277  30.389  29.185   1.016
69695W        W41278  30.633   8.813  12.959
69696W        W41279  34.453  37.566   2.343
69697W        W41280  25.675  35.604   4.493
69698W        W41281   8.983  24.178   3.685
69699W        W41282  12.232  28.037  13.983
69700W        W41283  37.646  38.550   3.538
69701W        W41284  28.907  38.999  13.579
69702W        W41285  33.012  19.460  11.354
69703W        W41286   0.865  21.122   1.661
69704W        W41287  14.868  12.855  13.766
69705W        W41288  11.750  23.257  13.518
69706W        W41289  16.674  21.719   3.257
69707W        W41290   3.934   4.802   4.198
69708W        W41291  23.827   7.881  10.893
69709W        W41292   7.169  41.362   1.341
69710W        W41293  35.068  11.887  14.335
69711W        W41294  11.166  30.429   0.057
69712W        W41295  27.515  37.775   3.827
69713W        W41296  10.934  38.829  14.221
69714W        W41297  18.340  24.803  13.004
69715W        W41298  37.086  30.761   4.120
69716W        W41299  30.357  10.409   1.417
69717W        W41300  25.101  24.667   1.439
69718W        W41301  13.827  32.859  14.438
69719W        W41302  11.443  15.104   1.741
69720W        W41303  16.757  34.644   1.400
69721W        W41304  22.180   0.446  14.359
69722W        W41305   2.016  40.113  12.410
69723W        W41306  27.736  11.138  11.080
69724W        W41307   3.139  31.690  12.445
69725W        W41308  24.124  19.774   5.082
69726W        W41309   4.415  23.547   4.390
69727W        W41310   4.212   6.251  13.877
69728W        W41311  27.140  43.759   3.330
69729W        W41312  12.631  36.430  13.346
69730W        W41313  38.285   7.720  10.295
69731W        W41314  33.422  18.087  14.015
69732W        W41315  35.871  40.487   0.795
69733W        W41316  36.381  40.724   3.717
69734W        W41317  37.261   1.838   2.433
69735W        W41318  25.039   4.765   3.921
69736W        W41319  39.549   5.893   9.757
69737W        W41320  30.381  42.015   4.416
69738W        W41321  38.135  12.229   3.402
69739W        W41322  36.968   5.896  14.926
69740W        W41323  42.518   3.382   1.135
69741W        W41324  17.498  19.370  13.965
69742W        W41325  10.432  14.606   3.381
69743W        W41326  10.313  17.014   3.613
69744W        W41327  11.828  37.815   4.122
69745W        W41328  33.355  34.467   4.641
69746W        W41329   9.293  41.468   3.072
69747W        W41330  42.602  16.162   2.049
69748W        W41331  28.600  24.253   1.304
69749W        W41332  22.665  14.937   2.788
69750W        W41333  18.944  32.407   3.987
69751W        W41334  20.822  37.103   2.066
69752W        W41335  15.946  16.009  12.599
69753W        W41336  37.424  19.473   3.592
69754W        W41337   6.893   9.217  13.053
69755W        W41338  38.858  30.430  11.679
69756W        W41339  39.821  38.443  14.057
69757W        W41340  17.813  22.142  12.497
69758W        W41341  42.932  40.959   4.801
69759W        W41342  20.506  39.954   0.953
69760W        W41343  11.577  12.883   2.852
69761W        W41344  25.614  37.061   3.734
69762W        W41345  27.108  25.578   3.446
69763W        W41346  17.458  26.096   2.269
69764W        W41347  40.409   7.393   5.012
69765W        W41348  11.773  23.811   1.317
69766W        W41349  18.378  18.842   4.647
69767W        W41350  40.453  32.001   2.590
69768W        W41351  22.259  42.263  11.153
69769W        W41352   8.579  35.977   3.237
69770W        W41353   5.368  35.174   0.747
69771W        W41354  28.876  38.052   2.547
69772W        W41355   5.479  33.830  12.836
69773W        W41356  43.757  40.519  13.839
69774W        W41357  15.480  27.111  12.570
69775W        W41358  30.073  36.559   1.414
69776W        W41359  23.001  43.306  13.850
69777W        W41360  16.579  12.212   2.242
69778W        W41361  19.494  32.491   2.199
69779W        W41362   1.002  30.419  11.569
69780W        W41363  24.267  17.098  11.016
69781W        W41364  21.411  13.587  11.336
69782W        W41365  31.770  40.801   4.727
69783W        W41366   7.837  21.605   1.165
69784W        W41367  38.929  20.715   1.420
69785W        W41368  20.534  31.965  12.501
69786W        W41369   6.199  34.473   2.353
69787W        W41370  15.865   8.232   0.937
69788W        W41371  36.490   0.267   0.373
69789W        W41372   8.917  13.692  11.759
69790W        W41373  13.689  26.148   4.424
69791W        W41374   3.478   0.416  11.108
69792W        W41375  41.012  42.866   4.138
69793W        W41376  23.961  15.978  13.069
69794W        W41377  19.216  18.353   3.173
69795W        W41378  42.396  36.130   2.430
69796W        W41379   8.643  15.233  11.528
69797W        W41380  29.217   8.840  13.304
69798W        W41381  12.690  40.371   1.969
69799W        W41382   8.138  17.835  11.466
69800W        W41383  43.743  26.094  13.599
69801W        W41384  44.013  34.597   4.046
69802W        W41385  37.843   4.748   0.720
69803W        W41386  40.801  20.571  13.293
69804W        W41387  21.474   5.322   4.941
69805W        W41388   5.556  32.160  12.056
69806W        W41389  32.555   1.723  13.805
69807W        W41390  29.368  32.684  12.851
69808W        W41391  27.696  11.847  11.124
69809W        W41392  31.011  43.849  13.499
69810W        W41393  10.104   9.410   4.756
69811W        W41394   7.395  38.157   4.007
69812W        W41395  29.784  30.342   3.299
69813W        W41396  13.760   8.956   2.351
69814W        W41397  30.702  18.922  12.834
69815W        W41398   9.186  23.839   9.888
69816W        W41399  41.457  29.698  11.054
69817W        W41400  18.606  23.521  13.105
69818W        W41401   8.256   5.587  14.902
69819W        W41402  10.245  33.061  11.549
69820W        W41403  11.258  25.074   4.926
69821W        W41404  37.435  35.375   5.065
69822W        W41405  20.385  17.843   1.879
69823W        W41406   4.148  40.410   0.217
69824W        W41407  17.639  34.370  13.353
69825W        W41408  40.283  24.646  12.913
69826W        W41409   0.890   4.729   0.173
69827W        W41410  13.289  35.370  10.735
69828W        W41411  43.866  38.954  14.305
69829W        W41412  42.939  15.488   4.617
69830W        W41413  35.617  33.558  12.979
69831W        W41414  23.498  22.766  12.031
69832W        W41415  28.291   8.706  13.452
69833W        W41416  29.696  19.110   1.468
69834W        W41417  41.477  22.520  13.430
69835W        W41418   2.715  11.482   1.690
69836W        W41419  31.452   8.168  10.510
69837W        W41420  42.302   1.284   3.633
69838W        W41421  11.638  15.407   1.377
69839W        W41422   8.915  25.047   4.654
69840W        W41423  39.850   9.949   2.447
69841W        W41424  37.587   3.723   0.718
69842W        W41425  40.992  36.009  14.769
69843W        W41426  17.505  34.645  12.418
69844W        W41427  26.237  10.689  12.985
69845W        W41428   9.337   5.702  12.316
69846W        W41429   4.940  29.405   1.385
69847W        W41430   4.363  10.425  14.926
69848W        W41431   3.317  30.416  13.599
69849W        W41432  17.568  10.273  13.739
69850W        W41433  29.417  41.796  12.663
69851W        W41434  32.116   7.849   3.322
69852W        W41435  31.636  30.917   2.196
69853W        W41436  29.515   4.834   1.719
69854W        W41437   4.931  12.321  12.114
69855W        W41438  29.654   2.728  11.491
69856W        W41439  26.266   9.844  13.788
69857W        W41440  42.337  39.961   1.305
69858W        W41441  11.204  37.374   4.501
69859W        W41442  13.792  22.505   2.407
69860W        W41443  27.840  34.657  11.701
69861W        W41444  21.747  18.358   3.728
69862W        W41445  19.682  39.275   0.942
69863W        W41446   2.317  40.583  14.076
69864W        W41447  27.043  44.027  12.179
69865W        W41448  38.329  34.841   2.625
69866W        W41449  18.292   4.778   1.729
69867W        W41450  38.896  36.079   0.705
69868W        W41451   9.335   3.343   4.320
69869W        W41452  21.808   1.425   0.822
69870W        W41453  39.864   4.236   2.334
69871W        W41454   1.953  40.567  14.863
69872W        W41455  35.005   2.822   4.812
69873W        W41456   8.321   4.752   4.973
69874W        W41457   0.052  29.714   1.422
69875W        W41458  23.137  16.937   3.124
69876W        W41459  24.619   2.350  14.989
69877W        W41460  30.459   0.030   4.644
69878W        W41461  31.951  35.760  12.941
69879W        W41462  19.369  18.171  11.456
69880W        W41463  14.628  17.110   3.188
69881W        W41464   0.326  20.794  10.562
69882W        W41465  42.512  11.214   0.826
69883W        W41466  23.947  12.364  12.688
69884W        W41467  32.230  30.834   1.163
69885W        W41468  27.457   3.211   4.688
69886W        W41469  10.055  32.111   1.489
69887W        W41470  27.097  22.049   3.869
69888W        W41471   7.571  17.207   0.023
69889W        W41472  19.709  18.697   2.185
69890W        W41473  26.697  26.266   3.063
69891W        W41474   0.558  20.568  11.485
69892W        W41475   2.800  25.627  14.951
69893W        W41476  44.242   7.343   1.462
69894W        W41477  16.143  25.665   1.906
69895W        W41478  39.976  44.379   2.732
69896W        W41479  24.554  14.807  10.714
69897W        W41480  39.520  34.703  12.992
69898W        W41481  32.992  37.670   2.634
69899W        W41482  27.327   3.416   3.775
69900W        W41483  13.587   3.399  13.806
69901W        W41484  22.230  28.353   1.828
69902W        W41485  14.732  26.406  10.890
69903W        W41486  39.816  38.903  12.054
69904W        W41487  25.998  38.326  12.874
69905W        W41488  35.104  32.003  12.940
69906W        W41489  36.952   3.663   2.317
69907W        W41490  12.754  41.269  11.717
69908W        W41491  15.674  39.411   1.578
69909W        W41492  28.728  42.476   2.733
69910W        W41493  40.936  40.457  12.889
69911W        W41494   8.731   8.692   1.665
69912W        W41495  40.392  44.947  14.875
69913W        W41496   5.670  43.474  12.527
69914W        W41497  28.376   1.856   0.386
69915W        W41498   0.274  30.462  13.401
69916W        W41499   7.766  14.270   1.770
69917W        W41500  43.043  37.562   1.685
69918W        W41501  37.296  16.827  10.951
69919W        W41502  15.997  34.576  12.392
69920W        W41503   9.939  15.067   1.063
69921W        W41504  36.870  35.189   3.886
69922W        W41505  41.053  22.038   0.451
69923W        W41506  18.655  16.983  13.877
69924W        W41507  43.780   7.185   4.141
69925W        W41508  23.996   9.732  10.731
69926W        W41509  32.175  36.690   4.894
69927W        W41510  38.033  11.567   1.301
69928W        W41511  16.481  20.522   2.195
69929W        W41512  25.116  14.074   1.906
69930W        W41513  26.502   6.498  12.561
69931W        W41514  14.147  35.010   2.544
69932W        W41515  21.508  24.487   1.731
69933W        W41516   8.782  27.745  13.078
69934W        W41517  32.041  29.072   1.794
69935W        W41518  12.144  42.257   2.850
69936W        W41519  42.064  35.354   1.338
69937W        W41520   9.840  12.862  13.436
69938W        W41521  11.650  25.064  14.075
69939W        W41522  10.249  15.225  10.749
69940W        W41523  44.307  26.498  11.638
69941W        W41524  27.240  37.073   1.763
69942W        W41525   4.290  43.543   4.663
69943W        W41526  22.682  17.456  14.582
69944W        W41527  34.429  34.572   1.323
69945W        W41528   1.511  36.392   1.772
69946W        W41529  32.222  39.895  12.111
69947W        W41530  13.225   5.584  10.516
69948W        W41531  40.302  33.597   4.153
69949W        W41532  42.057  16.749   3.694
69950W        W41533  28.454  38.919   1.250
69951W        W41534   8.164  37.787  12.398
69952W        W41535  24.929  13.022  13.291
69953W        W41536  37.773  34.750   1.763
69954W        W41537  19.105   7.250  11.483
69955W        W41538  26.266  32.529  10.780
69956W        W41539  37.546  20.587   4.386
69957W        W41540  44.257  20.527   4.632
69958W        W41541  27.645  30.468   5.346
69959W        W41542  36.500  15.263  11.484
69960W        W41543  21.685  42.795  10.741
69961W        W41544  32.008  35.910   4.379
69962W        W41545  21.223  21.140  11.885
69963W        W41546  37.096   0.482   1.176
69964W        W41547  24.175   0.555   0.005
69965W        W41548   1.816   0.239   0.228
69966W        W41549  21.613  16.496   1.004
69967W        W41550   4.754  12.634   2.322
69968W        W41551  21.637  43.740  10.705
69969W        W41552  39.914  40.579   1.768
69970W        W41553  17.307   8.773  14.932
69971W        W41554   4.257   7.137   4.306
69972W        W41555  22.008  43.377  13.143
69973W        W41556  14.478   0.005  12.312
69974W        W41557   4.643   1.714   2.781
69975W        W41558  28.210  37.088   5.125
69976W        W41559  43.760  25.741  12.196
69977W        W41560  14.253  28.162  12.654
69978W        W41561   6.392   3.777   2.751
69979W        W41562  12.146  41.798  14.852
69980W        W41563  21.721  41.326   1.253
69981W        W41564   4.349   8.342  11.373
69982W        W41565  24.135  38.076   2.744
69983W        W41566   5.465  44.713  14.359
69984W        W41567  36.991  33.862   4.145
69985W        W41568  23.662  43.337   4.165
69986W        W41569  44.837   9.835   4.063
69987W        W41570  27.121  41.326   2.953
69988W        W41571   9.770   5.391  14.278
69989W        W41572  21.646   2.848  12.082
69990W        W41573  44.260  27.028  13.528
69991W        W41574  13.824  35.025  14.906
69992W        W41575  18.677  19.171  12.010
69993W        W41576  14.664  11.400  11.229
69994W        W41577  20.522  30.990  14.694
69995W        W41578  25.817  37.397   2.500
69996W        W41579  22.993  14.807  11.084
69997W        W41580  21.128  15.947  14.489
69998W        W41581   6.888   3.740  10.671
69999W        W41582  43.003  37.399  13.086
70000W        W41583  44.076   0.944  11.756
70001W        W41584  40.282  24.986  13.406
70002W        W41585  17.084  28.177   2.747
70003W        W41586  40.967  26.205   0.454
70004W        W41587  37.393   3.904   2.218
70005W        W41588  16.320  35.140   3.206
70006W        W41589  12.167  35.388   1.337
70007W        W41590  20.550   3.061   3.271
70008W        W41591   4.886  36.977   5.088
70009W        W41592  13.102   1.803   2.812
70010W        W41593  35.465   6.637  13.553
70011W        W41594  12.343   5.721   2.914
70012W        W41595  40.992  12.271  11.638
70013W        W41596  35.467  14.542  11.679
70014W        W41597  15.931   7.343   3.367
70015W        W41598  20.050  24.519  11.812
70016W        W41599  18.466  29.982   0.291
70017W        W41600   5.467  25.480  14.845
70018W        W41601  16.275  44.240  11.979
70019W        W41602  31.958   5.930   1.222
70020W        W41603  43.695  13.413   1.954
70021W        W41604  36.376  30.458  13.331
70022W        W41605   7.165  36.467   2.222
70023W        W41606  35.922  15.715  11.109
70024W        W41607  44.612  21.590  10.835
70025W        W41608  44.932  19.033   2.623
70026W        W41609  36.733   7.110   3.883
70027W        W41610   8.350  27.530   1.152
70028W        W41611  11.293  18.083   1.922
70029W        W41612   4.681  13.394   1.894
70030W        W41613  32.833   5.485  12.503
70031W        W41614  26.969   5.197   2.043
70032W        W41615   6.338  10.249  10.597
70033W        W41616  31.884  26.925   4.587
70034W        W41617   1.078   6.776   3.992
70035W        W41618  25.160  20.624  14.780
70036W        W41619  38.648  10.258   1.532
70037W        W41620  35.112   0.974   2.402
70038W        W41621   2.203   4.369  12.069
70039W        W41622   2.022  40.082   3.323
70040W        W41623  12.582   2.780  10.824
70041W        W41624   4.846  26.073  14.267
70042W        W41625   8.282  24.578   3.641
70043W        W41626  12.947   7.861   0.462
70044W        W41627  15.805  18.808  13.671
70045W        W41628  32.103  19.245   1.656
70046W        W41629  40.415  31.497  14.584
70047W        W41630   8.204  17.283   0.070
70048W        W41631  27.020  32.590  13.640
70049W        W41632  31.705  37.551   4.520
70050W        W41633  18.004   1.230  11.500
70051W        W41634   3.540  31.570   0.331
70052W        W41635  35.042  12.253   4.163
70053W        W41636   6.242  43.492   0.324
70054W        W41637  17.705  31.597   4.766
70055W        W41638  38.753  34.216   2.307
70056W        W41639  26.452  35.505   1.429
70057W        W41640  10.821  33.209   3.254
70058W        W41641  42.457  35.784   3.266
70059W        W41642  16.209  25.661   9.954
70060W        W41643  18.662  23.009  10.133
70061W        W41644   7.397   3.384   4.540
70062W        W41645  16.120  44.811   4.777
70063W        W41646   2.921  11.215   0.717
70064W        W41647   2.771   8.361   3.318
70065W        W41648  30.010  36.184  14.002
70066W        W41649  38.084   3.852   0.739
70067W        W41650  22.157   1.626  11.989
70068W        W41651   3.915  38.946   1.852
70069W        W41652   3.278  40.312   3.741
70070W        W41653  23.096  42.338   4.595
70071W        W41654  31.146  28.684  12.508
70072W        W41655  18.062  11.332   3.159
70073W        W41656  35.665  13.767   0.956
70074W        W41657  11.669   4.804  12.869
70075W        W41658  17.502  25.106   3.118
70076W        W41659  44.396   4.435  10.583
70077W        W41660  27.992  38.471  11.073
70078W        W41661  26.021   0.892   0.435
70079W        W41662  22.832  33.869   0.845
70080W        W41663  13.513  37.399   0.718
70081W        W41664  44.378  28.105  14.473
70082W        W41665   9.731  11.787   1.345
70083W        W41666  14.852  16.858   3.575
70084W        W41667  30.269  41.884  11.197
70085W        W41668  18.335  24.026  14.883
70086W        W41669  22.212  32.197  13.331
70087W        W41670   6.967  18.637   2.877
70088W        W41671  24.255   2.377   5.006
70089W        W41672   9.189  40.474   2.268
70090W        W41673  38.572   0.805  14.476
70091W        W41674   3.187  38.724   2.414
70092W        W41675  24.526  31.461   4.195
70093W        W41676  20.112  11.826  12.797
70094W        W41677  37.421  40.763   4.270
70095W        W41678  25.632  24.840   0.545
70096W        W41679  23.644  27.496   1.763
70097W        W41680  13.192  24.713  12.301
70098W        W41681   3.487  20.563  10.568
70099W        W41682  39.747  42.010  13.392
70100W        W41683  13.583  17.575  12.585
70101W        W41684  27.273  18.258  11.912
70102W        W41685  37.566  35.001  13.954
70103W        W41686  10.785  20.000   4.251
70104W        W41687  31.342  20.506  13.211
70105W        W41688  38.027  32.467   4.304
70106W        W41689  40.463  31.565  12.185
70107W        W41690  11.949  19.774  12.821
70108W        W41691  11.352  34.963   3.231
70109W        W41692  25.199  37.851  11.653
70110W        W41693  39.243   5.773   4.194
70111W        W41694  36.459  11.189  11.636
70112W        W41695   6.698  30.526   3.918
70113W        W41696  15.378  28.084  14.950
70114W        W41697  32.980  18.948   4.854
70115W        W41698  30.894   9.852   2.400
70116W        W41699  11.244  33.058  14.902
70117W        W41700  29.687   8.305   1.757
70118W        W41701  28.890  44.328   1.731
70119W        W41702  24.442  13.345   1.651
70120W        W41703  27.568  20.237   3.573
70121W        W41704  15.746  18.671   0.880
70122W        W41705  16.362  36.006   2.662
70123W        W41706  21.280  38.480  11.935
70124W        W41707  23.576  14.162  14.933
70125W        W41708  10.653  14.180   0.311
70126W        W41709  21.215  31.323  11.147
70127W        W41710   4.387  33.820   0.277
70128W        W41711  20.825  16.429  10.127
70129W        W41712   4.928  43.996   0.919
70130W        W41713  23.634  27.762   2.230
70131W        W41714  44.357   0.293  13.358
70132W        W41715  24.180  32.704   1.337
70133W        W41716  20.194  12.878   2.884
70134W        W41717  44.740  39.748   4.845
70135W        W41718  14.516  17.215  11.191
70136W        W41719   1.151  24.092  12.118
70137W        W41720  41.283  13.072   3.301
70138W        W41721   4.820   5.882  11.549
70139W        W41722   5.295   4.460  11.941
70140W        W41723  35.665  28.137   5.400
70141W        W41724  42.424  43.445  13.690
70142W        W41725  34.865  33.850  12.704
70143W        W41726  26.100  29.472   4.120
70144W        W41727  41.953  14.483  13.893
70145W        W41728   3.884   5.136   3.416
70146W        W41729   5.419  37.852  13.916
70147W        W41730   1.213  35.595   1.345
70148W        W41731  32.411  16.994   0.013
70149W        W41732  42.901  20.007  12.742
70150W        W41733  10.911  27.714  13.855
70151W        W41734  37.376   1.351   3.650
70152W        W41735   7.248  13.583   4.365
70153W        W41736  34.491  23.601   2.641
70154W        W41737  30.453   2.524  11.654
70155W        W41738  18.633  28.422  13.398
70156W        W41739  38.554  21.001  10.854
70157W        W41740  26.709  31.870   4.145
70158W        W41741   4.849  10.704  10.607
70159W        W41742  29.634   3.852  12.009
70160W        W41743   2.217  23.083   1.308
70161W        W41744  31.439  42.699   3.515
70162W        W41745  19.047  15.345  11.095
70163W        W41746   6.381  14.021  10.760
70164W        W41747  37.000  42.492   1.046
70165W        W41748  20.082  44.281  13.592
70166W        W41749  23.083  35.935  10.631
70167W        W41750   2.283  39.521   2.444
70168W        W41751  18.332  39.532  12.048
70169W        W41752  12.290  15.259  14.066
70170W        W41753  34.460   7.214   4.706
70171W        W41754  11.107  33.594   1.688
70172W        W41755  38.598  10.911  13.467
70173W        W41756  39.216  41.347  11.660
70174W        W41757  23.420  29.414   1.551
70175W        W41758  10.157  23.051   1.930
70176W        W41759  18.145  10.866   4.395
70177W        W41760   3.774  44.295  14.575
70178W        W41761  30.481  23.017   0.915
70179W        W41762   9.211  18.810  12.052
70180W        W41763  37.397  28.417  12.587
70181W        W41764   4.717  44.763   1.740
70182W        W41765  31.926  17.649   4.543
70183W        W41766  15.149  38.350   3.763
70184W        W41767   2.950  34.327   4.218
70185W        W41768  19.542   1.224   1.270
70186W        W41769  22.579  41.485   3.776
70187W        W41770  13.596  11.581  11.714
70188W        W41771  30.450  14.126   2.182
70189W        W41772  22.106  39.413  11.275
70190W        W41773  40.955  22.713   0.884
70191W        W41774  44.463  28.831  13.471
70192W        W41775  25.967  19.195  11.096
70193W        W41776   5.701  17.803   0.936
70194W        W41777  14.199  24.532  13.738
70195W        W41778  32.323   2.733  11.183
70196W        W41779  14.292   8.252  11.549
70197W        W41780  40.125   5.386  14.311
70198W        W41781  33.831  13.665   3.881
70199W        W41782  40.550   4.328   4.051
70200W        W41783   9.775  18.150   3.652
70201W        W41784  35.856   1.513  10.670
70202W        W41785  32.637  19.460   4.095
70203W        W41786  43.063  38.917   0.353
70204W        W41787   4.259  10.934   0.049
70205W        W41788  16.244  26.063  14.281
70206W        W41789  36.607  40.828   2.677
70207W        W41790   2.929  11.592   3.766
70208W        W41791  40.812  32.144  12.908
70209W        W41792  19.815  26.346  12.685
70210W        W41793  28.712   4.190  13.539
70211W        W41794  37.808  44.355   2.185
70212W        W41795  34.899  20.710   2.397
70213W        W41796   1.661  14.623   1.838
70214W        W41797  26.498  10.751   2.293
70215W        W41798  42.244  33.117   3.723
70216W        W41799  16.348  26.608   1.942
70217W        W41800  11.282  24.616   4.653
70218W        W41801  43.967  32.538   4.177
70219W        W41802  28.803   1.534   4.252
70220W        W41803  32.624   1.728  12.017
70221W        W41804  40.708  16.760   3.582
70222W        W41805   7.497  43.297   4.672
70223W        W41806  19.219  22.928   5.056
70224W        W41807  11.594  11.115  13.918
70225W        W41808   6.191  24.210   3.330
70226W        W41809  13.121  32.523   1.017
70227W        W41810  36.693   0.653   5.081
70228W        W41811  31.386  33.147  13.998
70229W        W41812   8.897  20.457   4.144
70230W        W41813  21.431  19.088   3.210
70231W        W41814  18.324   2.153   2.941
70232W        W41815  25.449  15.207   3.548
70233W        W41816  16.892   6.098  13.126
70234W        W41817  28.650   0.582   2.314
70235W        W41818  29.703   2.342   4.788
70236W        W41819   5.836  14.035  12.571
70237W        W41820  31.953   1.077  14.035
70238W        W41821   4.692  10.697  12.326
70239W        W41822  32.487  22.239  11.167
70240W        W41823  29.335  15.339   4.215
70241W        W41824   4.621  27.558   1.792
70242W        W41825  21.351   7.814   3.746
70243W        W41826   1.206  36.504  12.399
70244W        W41827  39.506  43.213  12.311
70245W        W41828  12.411  43.531  13.952
70246W        W41829  37.839  10.168  14.932
70247W        W41830  17.048  15.798  11.553
70248W        W41831  16.399  25.023  12.814
70249W        W41832  25.117  39.268  11.608
70250W        W41833  14.875  41.506   0.667
70251W        W41834  43.418  17.900   0.327
70252W        W41835  43.375  29.477  12.100
70253W        W41836  26.504   6.286   4.058
70254W        W41837   9.948  26.308  12.441
70255W        W41838   0.722   7.644   2.363
70256W        W41839   7.810  26.172   4.114
70257W        W41840   0.353  42.274   0.334
70258W        W41841   9.682  41.343  10.952
70259W        W41842  41.253  42.322  13.441
70260W        W41843  26.074  12.285   4.194
70261W        W41844  22.670   4.464  11.678
70262W        W41845  20.680  44.247   0.512
70263W        W41846  39.823   9.339   1.775
70264W        W41847  21.070  12.297  12.547
70265W        W41848   6.245   9.212   0.457
70266W        W41849  35.291  42.433  12.832
70267W        W41850  15.638   5.995   3.361
70268W        W41851  25.121   7.327   3.162
70269W        W41852  26.289  38.171  12.448
70270W        W41853   8.414  33.020  12.070
70271W        W41854  33.516  30.134  14.775
70272W        W41855  32.453  42.929  14.534
70273W        W41856   0.327  28.432  13.759
70274W        W41857   3.282  24.594  11.521
70275W        W41858  44.885  27.450  14.002
70276W        W41859   8.931  32.458  13.172
70277W        W41860  36.937  44.031  12.403
70278W        W41861  18.947  42.788  12.150
70279W        W41862   2.621   4.744  12.067
70280W        W41863  36.367  15.826   3.314
70281W        W41864  18.716   9.404  13.825
70282W        W41865  23.040   5.372   0.838
70283W        W41866   5.179  40.462   4.018
70284W        W41867  38.819  30.965  14.946
70285W        W41868  20.779  40.242   3.556
70286W        W41869   1.090  35.047  13.469
70287W        W41870  33.400  34.022   3.159
70288W        W41871  31.594  18.941   2.950
70289W        W41872   9.575   5.515  10.660
70290W        W41873   0.816  30.595  14.586
70291W        W41874  38.330  31.117   0.001
70292W        W41875  35.382  10.316   3.826
70293W        W41876  38.347  24.304   1.038
70294W        W41877   8.499   0.201   2.394
70295W        W41878  23.729  35.949  14.301
70296W        W41879  22.380  28.442   3.437
70297W        W41880   2.916  37.585   1.961
70298W        W41881   1.473  10.290  11.968
70299W        W41882  39.294   0.499   3.613
70300W        W41883  13.055  14.625   1.384
70301W        W41884  38.844   9.318   4.505
70302W        W41885  32.031  28.042   3.630
70303W        W41886  10.088  36.413  10.572
70304W        W41887  20.043  30.932   0.845
70305W        W41888   9.245  20.652   0.537
70306W        W41889  31.690  18.081   2.808
70307W        W41890  11.124  27.591  12.561
70308W        W41891   4.816  29.202  13.435
70309W        W41892  23.032  43.451  14.776
70310W        W41893  18.668  38.535  13.205
70311W        W41894  36.318  23.948  12.425
70312W        W41895  11.710  20.319  11.110
70313W        W41896  36.579  30.179   3.535
70314W        W41897  27.099  15.861   3.708
70315W        W41898  36.036  34.533  11.586
70316W        W41899  43.556   9.628  10.812
70317W        W41900  22.298   8.848  11.212
70318W        W41901   7.779  42.586   4.679
70319W        W41902  22.452  14.654   4.552
70320W        W41903  42.325  37.465   5.136
70321W        W41904  11.973  10.339   2.387
70322W        W41905   4.394  25.187   1.113
70323W        W41906  35.098  20.801  14.478
70324W        W41907  20.023  17.572   3.699
70325W        W41908   8.225   9.479  14.406
70326W        W41909  35.815   3.768   4.959
70327W        W41910  12.773   7.372   3.171
70328W        W41911  25.046  21.209  10.735
70329W        W41912  39.503  30.004   2.708
70330W        W41913  17.445  34.037   0.411
70331W        W41914   2.832   6.300   1.381
70332W        W41915  11.656  26.284   2.703
70333W        W41916  35.106  24.535   4.449
70334W        W41917  21.841  32.623   3.966
70335W        W41918  40.298   1.034  12.389
70336W        W41919  27.845  35.837  13.997
70337W        W41920  12.864  44.692   1.695
70338W        W41921  23.935  32.431   0.413
70339W        W41922  34.848  32.483  13.484
70340W        W41923  13.117  26.485   4.602
70341W        W41924  42.374  12.134   4.543
70342W        W41925  31.010  12.773  10.390
70343W        W41926  33.247   8.731  11.109
70344W        W41927  30.008  13.423  11.219
70345W        W41928   4.197   4.855   3.743
70346W        W41929  37.808  15.615  11.649
70347W        W41930  37.123   8.948  11.193
70348W        W41931   0.847  29.616  14.845
70349W        W41932  44.620  37.161  14.989
70350W        W41933  16.050   7.925   4.059
70351W        W41934  37.021  31.754  13.439
70352W        W41935   0.415  38.729  13.115
70353W        W41936  40.928  25.328   2.777
70354W        W41937  20.062  21.991   2.248
70355W        W41938  32.144  29.273  14.730
70356W        W41939  21.792  21.289  12.974
70357W        W41940  18.836  22.227  10.117
70358W        W41941  26.524   7.302  11.974
70359W        W41942  40.418  22.991  10.911
70360W        W41943   1.792   4.946  10.918
70361W        W41944  10.831   6.404   1.983
70362W        W41945  21.120  33.714   2.452
70363W        W41946  29.253  40.316  13.381
70364W        W41947  23.234  26.358   3.512
70365W        W41948   2.208  37.451   4.658
70366W        W41949  11.588  30.814   1.811
70367W        W41950  27.997   7.644  12.899
70368W        W41951   7.030  11.340   4.068
70369W        W41952  32.211   4.599   3.620
70370W        W41953  20.247  27.933   3.920
70371W        W41954  37.150  41.421   4.751
70372W        W41955  31.751  11.312   2.767
70373W        W41956  33.397   9.679   0.927
70374W        W41957  41.985  24.135  13.570
70375W        W41958  44.263  31.240  11.550
70376W        W41959  36.458  43.034  11.910
70377W        W41960  40.273  37.550   3.636
70378W        W41961  16.079  35.991  11.502
70379W        W41962  17.776   8.136  14.282
70380W        W41963   3.853  18.544  11.636
70381W        W41964  31.965   1.129  11.750
70382W        W41965  35.877  35.824   3.331
70383W        W41966  30.992  27.650   1.896
70384W        W41967  13.729   5.432   2.332
70385W        W41968  44.245   4.306  13.014
70386W        W41969  11.753  40.010  11.822
70387W        W41970  25.426   8.741   4.616
70388W        W41971  35.813  22.724   3.235
70389W        W41972  41.172  26.975  11.740
70390W        W41973  23.466  36.500   4.117
70391W        W41974  24.285  39.061   0.768
70392W        W41975  22.294   3.739   4.442
70393W        W41976   8.192   1.241   3.255
70394W        W41977  15.136  40.450  13.384
70395W        W41978  22.250  12.289   0.761
70396W        W41979  39.505  14.528   3.675
70397W        W41980  25.688  33.454   0.861
70398W        W41981  14.606  23.544  10.586
70399W        W41982  10.354  27.578  11.701
70400W        W41983  37.606  11.213   1.253
70401W        W41984  36.477  23.326   1.410
70402W        W41985   2.208  20.362  12.601
70403W        W41986   4.686  20.960  12.501
70404W        W41987  23.399   7.360  10.425
70405W        W41988  27.653  37.397  13.355
70406W        W41989  10.198  15.402  14.317
70407W        W41990  14.157  44.982  11.559
70408W        W41991  18.519  33.514  14.363
70409W        W41992   2.935   4.969   1.766
70410W        W41993  43.608  35.597   2.893
70411W        W41994  31.448  17.614  13.055
70412W        W41995  13.814  44.695   1.800
70413W        W41996  23.398  28.347   5.041
70414W        W41997  25.198  22.780  12.957
70415W        W41998  38.817  13.298  13.005
70416W        W41999  23.882  41.335   2.470
70417W        W42000  34.356   4.344  14.000
70418W        W42001  20.365  22.608   2.142
70419W        W42002   5.023  42.528  13.101
70420W        W42003  32.161  37.714  11.137
70421W        W42004  34.108   0.438   4.688
70422W        W42005   2.652  41.718  11.552
70423W        W42006  44.327  39.998  13.447
70424W        W42007  29.827  37.011  11.493
70425W        W42008   9.643  40.426  11.454
70426W        W42009  32.531  26.438  12.135
70427W        W42010  13.249  14.340  14.919
70428W        W42011  38.391   6.261  12.077
70429W        W42012  20.089  15.631   4.939
70430W        W42013   9.459  13.232  11.915
70431W        W42014  22.691  27.332   9.919
70432W        W42015  17.080  43.834  14.927
70433W        W42016  15.934  17.206   4.708
70434W        W42017  23.084   0.154  11.560
70435W        W42018  27.616   5.359  13.268
70436W        W42019  21.566   9.114   3.820
70437W        W42020  42.002  22.897   4.632
70438W        W42021  17.280  16.184   4.037
70439W        W42022  29.212  12.579  12.741
70440W        W42023  38.251  34.500  14.747
70441W        W42024   2.765  12.316  10.655
70442W        W42025  30.082  35.437  13.351
70443W        W42026  27.959  33.466  13.586
70444W        W42027   9.121  31.156  13.287
70445W        W42028   8.760   4.192   1.921
70446W        W42029  23.079  43.897   4.506
70447W        W42030  21.211   6.967   3.288
70448W        W42031  31.198  23.457  14.933
70449W        W42032  11.721  12.180   3.225
70450W        W42033   3.451  33.865  13.430
70451W        W42034  23.310  29.963   2.577
70452W        W42035  30.983   6.151  14.305
70453W        W42036  42.658   8.660  11.528
70454W        W42037  40.761  40.398  14.931
70455W        W42038   8.725   5.380  14.896
70456W        W42039  26.022  13.910   0.670
70457W        W42040   0.463  44.886   0.459
70458W        W42041   6.258  41.440  12.456
70459W        W42042  10.189  15.042  14.697
70460W        W42043   7.139  28.038  11.102
70461W        W42044   7.096  32.172   2.227
70462W        W42045   3.490  16.730  10.445
70463W        W42046  27.233  44.730  10.650
70464W        W42047  41.155  24.012   5.054
70465W        W42048  35.556  18.368   1.248
70466W        W42049  39.904  15.893   1.079
70467W        W42050   2.814  37.563  10.472
70468W        W42051  15.064  43.308   3.136
70469W        W42052  29.401  16.249  12.432
70470W        W42053  29.582  15.928   5.067
70471W        W42054  21.236  42.871  11.686
70472W        W42055  34.127  23.461  11.717
70473W        W42056  12.763   2.200   1.776
70474W        W42057  22.175  30.119   0.860
70475W        W42058  16.662  22.612   3.125
70476W        W42059   3.794   9.563  11.210
70477W        W42060  38.483  32.642   1.922
70478W        W42061  11.698  24.975  10.737
70479W        W42062   2.277  12.402   0.368
70480W        W42063  27.599  10.080   5.337
70481W        W42064   0.883  14.634  11.325
70482W        W42065   2.020  44.329  14.748
70483W        W42066  38.591  10.430  14.348
70484W        W42067  21.679  22.358  13.479
70485W        W42068  35.366  23.895  13.969
70486W        W42069  17.841  22.191  11.113
70487W        W42070   0.068   4.838  13.036
70488W        W42071  23.135   3.207  11.489
70489W        W42072   7.948  40.999  11.474
70490W        W42073   4.861  41.375   4.218
70491W        W42074   7.914  21.693  10.768
70492W        W42075  24.549  13.000   1.296
70493W        W42076  31.890  23.481  12.067
70494W        W42077   3.320  11.173  10.334
70495W        W42078   0.824  22.681  13.294
70496W        W42079  27.248  30.582   2.820
70497W        W42080  26.572  14.214  11.312
70498W        W42081  38.013  42.526   3.280
70499W        W42082  34.243  26.979  13.018
70500W        W42083  38.932  29.140  13.328
70501W        W42084  35.259  28.402   0.555
70502W        W42085   2.912  31.352   3.739
70503W        W42086   6.623  44.973  13.819
70504W        W42087   6.792  38.370  13.886
70505W        W42088   1.544  26.467   0.257
70506W        W42089  33.608  19.536   0.832
70507W        W42090  16.315  29.631   2.898
70508W        W42091  30.459  29.688  14.752
70509W        W42092  19.125  23.525   5.354
70510W        W42093   0.009  10.359   2.330
70511W        W42094  34.392  40.810   4.140
70512W        W42095  37.337  17.678   2.210
70513W        W42096  22.385  30.917  11.592
70514W        W42097  22.271  19.706   1.460
70515W        W42098  33.246  27.978  12.325
70516W        W42099  26.736  34.091  14.282
70517W        W42100  28.580  27.386   4.532
70518W        W42101   0.977  27.684   3.869
70519W        W42102  13.080   4.249  12.872
70520W        W42103   6.485  27.139  10.681
70521W        W42104  42.586  10.147  12.872
70522W        W42105  35.160  23.481  14.287
70523W        W42106   7.092  15.326   1.691
70524W        W42107  34.431  15.562   0.027
70525W        W42108  14.293  13.399   4.909
70526W        W42109  19.367  43.621   2.365
70527W        W42110  38.773  39.778  12.644
70528W        W42111  36.873  21.630  10.744
70529W        W42112  19.144  25.466   1.757
70530W        W42113  10.190  16.438  13.338
70531W        W42114  27.506  31.046  14.891
70532W        W42115  21.577  28.234  11.536
70533W        W42116  19.137  35.005   3.605
70534W        W42117  12.210  27.270   0.889
70535W        W42118   6.926  24.084   0.322
70536W        W42119   3.483  44.620   4.219
70537W        W42120  42.881  38.095  11.318
70538W        W42121  38.400   0.076   2.410
70539W        W42122   5.977  26.041  13.123
70540W        W42123  14.201  20.617  13.770
70541W        W42124  19.695  26.750  14.322
70542W        W42125  39.867  42.933   3.062
70543W        W42126  36.357   2.423   2.124
70544W        W42127  33.632   2.525  12.765
70545W        W42128  38.988  12.032   2.050
70546W        W42129  22.234   0.312   4.075
70547W        W42130  11.308   1.901  11.537
70548W        W42131  35.683  11.472   1.903
70549W        W42132  19.914  44.371   1.200
70550W        W42133  21.268  41.963   3.226
70551W        W42134  36.464  16.397  11.984
70552W        W42135  21.212   9.911   4.183
70553W        W42136  17.191  36.389   5.134
70554W        W42137  30.019  20.158  13.441
70555W        W42138  36.564  34.544  10.756
70556W        W42139  42.846  43.393   3.126
70557W        W42140  40.379   8.970   3.143
70558W        W42141  23.885  11.346   2.641
70559W        W42142  30.568  35.286  13.260
70560W        W42143   4.027   4.382   3.898
70561W        W42144   7.695  13.728   0.456
70562W        W42145  39.380  10.564  12.148
70563W        W42146   6.684   7.341   3.873
70564W        W42147  31.969   3.817  15.000
70565W        W42148  18.440  22.214   0.455
70566W        W42149  25.167  11.300  10.682
70567W        W42150  35.074   7.146   4.282
70568W        W42151  18.796   6.012  12.054
70569W        W42152  24.693  20.591  11.180
70570W        W42153  30.766   9.468  11.959
70571W        W42154   2.519  12.697   2.972
70572W        W42155   4.583  24.712   0.454
70573W        W42156  23.902  42.053   0.483
70574W        W42157  26.586  41.477  12.245
70575W        W42158  33.864   2.122  13.979
70576W        W42159   4.624  16.012  13.430
70577W        W42160  42.770   7.976  14.937
70578W        W42161   2.263   6.645   2.213
70579W        W42162  19.565  24.946  13.834
70580W        W42163  33.783  41.912  11.215
70581W        W42164   5.426  14.272   2.624
70582W        W42165  19.638  15.754   4.090
70583W        W42166   4.980  24.126   4.990
70584W        W42167  22.597   0.562  13.482
70585W        W42168  39.591  18.069   4.218
70586W        W42169  20.646  35.913  11.706
70587W        W42170  38.975  34.419  11.582
70588W        W42171  34.990  40.878   0.807
70589W        W42172  16.692  35.863  10.710
70590W        W42173  21.686  20.488   0.775
70591W        W42174  11.121  33.656  12.413
70592W        W42175   7.565   2.042  12.725
70593W        W42176  40.275   4.502   3.659
70594W        W42177  39.108  14.960   4.508
70595W        W42178   2.679   2.527   4.842
70596W        W42179   9.467  31.960  12.705
70597W        W42180  38.515   4.922   2.194
70598W        W42181  26.656  14.737  12.871
70599W        W42182  11.814  11.323   0.278
70600W        W42183  44.399   7.083  12.580
70601W        W42184  41.624   1.299  11.980
70602W        W42185  43.460  32.528   0.953
70603W        W42186  38.092  10.220   1.485
70604W        W42187  38.047  35.044   3.891
70605W        W42188  25.541  38.641   4.706
70606W        W42189  24.701  31.251   0.323
70607W        W42190  19.580   8.195   1.822
70608W        W42191  26.408  29.648   3.746
70609W        W42192  39.033  23.779  12.990
70610W        W42193   2.224  44.555   3.681
70611W        W42194  42.782   4.824  12.165
70612W        W42195  24.732  16.396  12.487
70613W        W42196  37.952   1.779  14.377
70614W        W42197  29.192  22.513   2.079
70615W        W42198  27.456  15.612  14.206
70616W        W42199  39.527  31.391   2.906
70617W        W42200  10.776   8.778  10.481
70618W        W42201   0.725  31.121   0.738
70619W        W42202   6.870  13.862  10.695
70620W        W42203  28.336  13.164  12.767
70621W        W42204  34.326  30.176   0.196
70622W        W42205  10.922   8.354  11.146
70623W        W42206   3.816   0.351  10.715
70624W        W42207  27.778  43.905  14.986
70625W        W42208   3.372  23.668   0.755
70626W        W42209  30.025  37.265   0.212
70627W        W42210  29.209  44.392   4.036
70628W        W42211  23.743  37.857  11.364
70629W        W42212  30.614  20.432   2.739
70630W        W42213  26.163  34.993   4.020
70631W        W42214  12.850   9.568  12.087
70632W        W42215   1.893  21.005  14.022
70633W        W42216  37.874   6.110   0.609
70634W        W42217  28.986  37.248  13.129
70635W        W42218   2.163  22.251   3.680
70636W        W42219  15.737   2.739   4.205
70637W        W42220  39.607  42.719  11.556
70638W        W42221   7.819  16.341  12.457
70639W        W42222  33.908  20.937   0.813
70640W        W42223  30.991  21.203   3.782
70641W        W42224  23.004  36.825  11.156
70642W        W42225  41.818   3.964  14.233
70643W        W42226  12.123  32.015  11.712
70644W        W42227  42.865   6.933  14.520
70645W        W42228  21.140   7.729  13.843
70646W        W42229   7.225   5.815   2.888
70647W        W42230  25.153   0.039   0.785
70648W        W42231   9.359  41.559   0.929
70649W        W42232  15.288  39.312   0.782
70650W        W42233  35.018  12.155  12.182
70651W        W42234   9.437  42.343  11.704
70652W        W42235  36.478   6.487  11.651
70653W        W42236   2.366  23.502   0.989
70654W        W42237   3.451  36.274   5.694
70655W        W42238  35.830  30.148   4.233
70656W        W42239   8.790  41.063   4.166
70657W        W42240  15.485  38.520   4.121
70658W        W42241  15.828  29.953   4.038
70659W        W42242  29.409  44.387  12.948
70660W        W42243  30.416  40.622   4.074
70661W        W42244  44.646  42.720  14.698
70662W        W42245  12.734   2.598  14.993
70663W        W42246   3.578   4.554   4.599
70664W        W42247   1.062   5.733  11.527
70665W        W42248   0.544  33.027   3.989
70666W        W42249  20.663   3.787  14.373
70667W        W42250  37.103  10.910  13.936
70668W        W42251  30.791  28.965   2.260
70669W        W42252  35.816  10.806  14.167
70670W        W42253  14.777  20.327  11.557
70671W        W42254  29.326  11.789   1.318
70672W        W42255  42.969  38.010  11.842
70673W        W42256  38.132   9.117   1.496
70674W        W42257  38.336  28.923   1.438
70675W        W42258  21.506  28.064  14.433
70676W        W42259   4.198  24.103   2.238
70677W        W42260  15.482  25.237  13.534
70678W        W42261  17.763  23.901  13.028
70679W        W42262  37.003  35.702  13.427
70680W        W42263  27.766   0.022   0.001
70681W        W42264   0.694  12.208   4.320
70682W        W42265  28.045  21.770  11.196
70683W        W42266  21.836  40.935  14.512
70684W        W42267  25.124  15.672   4.591
70685W        W42268  37.477   4.734   3.550
70686W        W42269  39.375  38.297   0.333
70687W        W42270  43.740  35.280  13.370
70688W        W42271   7.866  34.090  13.871
70689W        W42272  42.388   4.778   0.402
70690W        W42273  32.392   1.425  11.615
70691W        W42274  30.487   9.794  11.711
70692W        W42275   7.775  11.378   4.683
70693W        W42276  31.951  38.532   2.499
70694W        W42277  40.258  44.032   3.211
70695W        W42278  27.421   4.841  13.352
70696W        W42279   6.438  23.767   2.652
70697W        W42280  20.492  20.043   1.125
70698W        W42281  25.989  36.853  13.257
70699W        W42282   2.756   3.939   4.377
70700W        W42283  30.667  15.447  14.288
70701W        W42284  15.763  31.609  11.981
70702W        W42285  43.451  37.959   4.835
70703W        W42286   8.195  10.680   2.466
70704W        W42287  20.163  34.830   1.721
70705W        W42288   7.335   6.326  12.594
70706W        W42289  39.556   4.934   1.831
70707W        W42290  14.712  28.111  12.424
70708W        W42291  21.773  41.852   1.196
70709W        W42292  12.880   5.871  13.078
70710W        W42293   1.016   0.882   4.018
70711W        W42294  20.134  20.600   0.194
70712W        W42295  25.077  13.613  10.870
70713W        W42296   0.400  23.501   4.214
70714W        W42297  10.317   8.722   4.322
70715W        W42298   2.257  22.742   4.311
70716W        W42299   4.668   8.582  12.689
70717W        W42300  28.988  24.279  12.840
70718W        W42301  24.594   6.869   2.102
70719W        W42302  21.506   5.365  10.668
70720W        W42303  14.268  34.528   1.735
70721W        W42304  22.508  37.550  10.564
70722W        W42305  15.735  37.038  12.528
70723W        W42306  16.539   1.294   2.319
70724W        W42307   6.307  22.314   4.684
70725W        W42308  38.593  33.012   2.785
70726W        W42309  44.120  21.065   0.872
70727W        W42310   6.355   7.423  14.930
70728W        W42311  35.986  22.303  10.361
70729W        W42312   3.767  15.508  11.874
70730W        W42313  31.457  29.543  12.615
70731W        W42314  44.435  29.839   4.202
70732W        W42315  27.715  20.243  13.089
70733W        W42316   2.334  12.694   0.959
70734W        W42317   2.426  25.133  12.333
70735W        W42318  25.939  15.384  12.174
70736W        W42319  41.061  43.003  14.083
70737W        W42320   9.100  34.950   2.147
70738W        W42321  35.530  44.332   3.844
70739W        W42322  21.763   1.764   4.694
70740W        W42323  27.728   5.026  11.083
70741W        W42324  25.667  31.256  11.788
70742W        W42325  31.255  42.080  12.568
70743W        W42326  24.622  22.775   4.815
70744W        W42327  16.147  24.060  13.959
70745W        W42328  10.362  32.540   0.314
70746W        W42329  27.201  14.950   4.820
70747W        W42330   3.254  40.400   1.102
70748W        W42331   7.942  35.617   3.876
70749W        W42332  22.647  22.248  11.530
70750W        W42333  39.915  27.379  12.412
70751W        W42334  10.657  31.964   0.702
70752W        W42335  23.172  15.131   3.609
70753W        W42336  24.672  28.451   0.871
70754W        W42337  21.575  13.138   3.721
70755W        W42338  42.981   4.866   1.755
70756W        W42339   9.365  20.875   1.005
70757W        W42340  32.972  15.783   4.610
70758W        W42341   5.653  37.574   3.304
70759W        W42342  42.419  15.089  13.088
70760W        W42343  19.194  24.270  10.197
70761W        W42344  30.983   6.817   2.696
70762W        W42345  12.749  14.181  14.019
70763W        W42346  23.980  35.892   3.185
70764W        W42347  16.815  35.442   5.130
70765W        W42348  19.355   4.757  12.081
70766W        W42349   0.726   7.861   0.505
70767W        W42350  38.030  11.282   3.726
70768W        W42351  34.962  41.023   1.314
70769W        W42352  27.769   1.925  10.224
70770W        W42353  13.863  25.198  14.323
70771W        W42354  21.549  12.653  11.722
70772W        W42355  29.695  38.897  11.069
70773W        W42356  19.699  14.693   0.257
70774W        W42357   2.880  44.792  11.174
70775W        W42358  13.232   0.198  12.086
70776W        W42359  18.646  11.950   2.855
70777W        W42360  15.786  18.129  14.986
70778W        W42361  28.029  16.403   2.897
70779W        W42362  38.230  32.678   3.546
70780W        W42363  33.884   2.745   2.418
70781W        W42364  27.613  24.071  12.379
70782W        W42365  21.738  43.228   3.459
70783W        W42366  41.903   1.759  13.504
70784W        W42367  23.561  22.403   4.162
70785W        W42368  40.683   7.614  14.212
70786W        W42369  37.539   0.520   4.629
70787W        W42370  13.327  10.340  12.472
70788W        W42371  12.596  22.162  14.273
70789W        W42372  40.005  33.014  13.868
70790W        W42373  13.512  23.984   0.753
70791W        W42374  35.622   1.007  11.230
70792W        W42375  18.348  31.765   5.181
70793W        W42376  32.069  15.342   2.646
70794W        W42377  11.558  32.969   3.682
70795W        W42378  36.032  10.640   3.304
70796W        W42379   3.784  32.815   2.373
70797W        W42380  40.622  28.015   2.391
70798W        W42381  35.435  44.840  10.483
70799W        W42382  39.119   3.026  14.200
70800W        W42383  10.020  21.001   3.405
70801W        W42384   2.993  40.408  13.769
70802W        W42385  40.487  22.275   2.398
70803W        W42386  10.665   2.876   3.121
70804W        W42387  31.276  36.545   1.323
70805W        W42388  11.770   9.100   1.160
70806W        W42389  17.053  34.060  11.094
70807W        W42390  34.065  20.118   2.361
70808W        W42391  10.510  23.687  12.424
70809W        W42392  42.340  25.432  14.321
70810W        W42393  33.055  44.218  11.071
70811W        W42394  43.368  29.061  10.511
70812W        W42395  43.818  31.470   0.307
70813W        W42396  36.955  12.351   3.511
70814W        W42397  44.928  21.624  12.615
70815W        W42398  22.212  32.202   4.852
70816W        W42399   7.869   2.610   5.058
70817W        W42400  28.132  27.819   5.086
70818W        W42401  12.738  27.118  11.816
70819W        W42402  25.644  40.626   3.352
70820W        W42403  42.956  38.525  13.183
70821W        W42404  41.334  30.779   4.143
70822W        W42405  31.216  30.801  13.349
70823W        W42406  41.866  44.794  10.714
70824W        W42407   9.391  41.055   1.008
70825W        W42408  28.052  33.917   2.347
70826W        W42409  17.096  17.802   2.664
70827W        W42410  39.916   9.392  14.245
70828W        W42411  19.660  40.879   4.660
70829W        W42412  42.011  37.519   1.733
70830W        W42413  42.886   3.150  12.767
70831W        W42414  28.513  31.002   2.294
70832W        W42415  24.946  15.468  12.566
70833W        W42416   9.640  30.990  12.414
70834W        W42417  27.894  40.001  13.445
70835W        W42418  30.460  10.617  13.831
70836W        W42419  16.924  15.083   4.759
70837W        W42420  29.398   8.935  10.966
70838W        W42421  34.619  29.543   4.397
70839W        W42422  28.108  15.838  11.564
70840W        W42423  34.385  27.431  12.061
70841W        W42424  28.195  34.879   3.160
70842W        W42425  10.118  16.590   2.243
70843W        W42426  20.104  22.294  14.219
70844W        W42427   2.353  16.314  11.163
70845W        W42428  13.147  44.230   0.821
70846W        W42429  35.714  13.111  13.949
70847W        W42430  22.049   4.123   4.841
70848W        W42431  34.576   9.843   0.270
70849W        W42432  33.376  20.891   3.703
70850W        W42433  28.420  27.128  11.379
70851W        W42434  25.559  16.567  10.877
70852W        W42435  42.457  28.113  14.251
70853W        W42436  26.910  14.519  14.870
70854W        W42437  16.693  39.537   2.378
70855W        W42438  11.768  16.297  12.001
70856W        W42439   7.961  28.417  11.207
70857W        W42440   6.189  44.166   2.222
70858W        W42441   8.913  24.060  11.605
70859W        W42442  16.679  37.440  13.330
70860W        W42443  18.361  34.019   4.082
70861W        W42444  22.550  42.099  13.371
70862W        W42445   0.465  28.379   1.974
70863W        W42446  16.674  12.709  12.344
70864W        W42447  39.321  38.930   1.427
70865W        W42448  28.484  24.953   1.839
70866W        W42449  18.557  20.544   2.868
70867W        W42450  27.254   4.751   0.827
70868W        W42451  39.554  22.973  12.090
70869W        W42452   1.472  28.133   3.191
70870W        W42453   6.851   4.751  11.975
70871W        W42454  12.395  14.224   1.302
70872W        W42455  11.876  28.023   2.360
70873W        W42456  42.228  42.915   0.813
70874W        W42457   5.822  20.329  14.852
70875W        W42458   0.231  24.852  11.447
70876W        W42459  30.134   4.025   0.864
70877W        W42460  18.313  38.762   2.752
70878W        W42461  14.206   8.052  12.032
70879W        W42462  41.534   5.629   3.390
70880W        W42463  16.274  14.871   0.613
70881W        W42464  32.175  11.860  12.001
70882W        W42465  26.248  15.034  11.641
70883W        W42466  21.474  32.571   4.607
70884W        W42467  20.091  23.170   4.079
70885W        W42468  30.711  15.996  11.135
70886W        W42469   4.644  33.307   2.206
70887W        W42470   4.227   7.042  14.870
70888W        W42471  22.018  10.787   5.440
70889W        W42472  23.689  13.168  14.039
70890W        W42473  23.280  18.804   3.398
70891W        W42474   9.217  21.606  12.538
70892W        W42475  42.554  28.339  12.001
70893W        W42476  24.615  30.839  13.931
70894W        W42477  16.196   7.201  14.234
70895W        W42478  12.957  19.004   2.933
70896W        W42479  22.199  39.340   4.155
70897W        W42480  14.201   5.216   0.073
70898W        W42481  25.959  28.514  14.754
70899W        W42482  32.051  20.068  11.080
70900W        W42483  40.134  40.112   4.111
70901W        W42484   3.214   1.760  10.826
70902W        W42485   9.657   8.275  12.972
70903W        W42486  30.150  33.829  11.365
70904W        W42487   7.260   2.949  11.563
70905W        W42488  41.708  24.775   4.187
70906W        W42489  36.447  15.182  12.514
70907W        W42490  17.460   7.758  11.077
70908W        W42491  17.329   5.913  12.475
70909W        W42492  26.097   2.351   0.779
70910W        W42493  36.549  14.251  12.327
70911W        W42494  26.422  15.555   3.031
70912W        W42495  22.614   3.251   3.604
70913W        W42496  20.678  35.654  12.948
70914W        W42497   1.480  38.998   4.195
70915W        W42498  12.788  38.204   3.525
70916W        W42499  38.238  34.473  13.322
70917W        W42500  26.513  11.261   0.079
70918W        W42501  43.885   5.791   1.729
70919W        W42502  32.359  40.790   4.088
70920W        W42503  22.199  38.338   0.046
70921W        W42504  41.446  43.316  13.569
70922W        W42505  40.881  33.866   0.400
70923W        W42506  42.571   1.262   4.079
70924W        W42507  23.040  41.397   2.514
70925W        W42508  43.737  36.480   3.243
70926W        W42509  17.242   3.261  14.320
70927W        W42510   8.470  42.316  14.416
70928W        W42511   0.697  22.658  11.009
70929W        W42512  34.863  42.037  14.883
70930W        W42513  19.836   5.408  10.528
70931W        W42514  14.397  18.417  14.934
70932W        W42515   8.482  10.173   3.309
70933W        W42516  22.850  17.160   2.677
70934W        W42517  41.754  34.073   4.598
70935W        W42518  17.599  26.062   2.819
70936W        W42519  17.276  23.414  13.761
70937W        W42520  16.515  15.585   2.178
70938W        W42521  36.750  36.592  14.914
70939W        W42522  41.029  32.669   2.492
70940W        W42523  12.701   5.338  14.448
70941W        W42524  36.558   4.619  11.353
70942W        W42525   4.573   9.107   2.756
70943W        W42526   5.965  16.657   1.904
70944W        W42527  35.994  40.897  11.628
70945W        W42528  42.480   3.390  12.518
70946W        W42529  26.663  39.495  14.260
70947W        W42530  24.932  33.586   2.330
70948W        W42531  24.618   2.754   2.786
70949W        W42532   7.223  40.833   1.312
70950W        W42533   0.807  44.758  12.319
70951W        W42534  19.325   7.753   1.882
70952W        W42535  32.971  35.398  14.755
70953W        W42536  16.244  25.716  13.389
70954W        W42537  29.341  26.194   3.234
70955W        W42538  43.848  31.526  11.398
70956W        W42539  37.582  41.206  12.135
70957W        W42540  40.232  43.854  13.963
70958W        W42541  15.550  42.511   0.247
70959W        W42542  17.087  22.348  11.882
70960W        W42543   4.355  36.593  13.605
70961W        W42544  19.640  17.900  14.447
70962W        W42545  34.787  17.066   2.170
70963W        W42546  20.599  19.095  13.804
70964W        W42547  39.918  30.636  13.730
70965W        W42548  26.497  18.854  10.968
70966W        W42549   7.480   1.709  13.748
70967W        W42550   3.462  16.247   4.039
70968W        W42551  14.089   3.210  11.114
70969W        W42552  31.039  25.749  13.388
70970W        W42553  27.697  18.736   1.418
70971W        W42554  34.234  36.902   0.240
70972W        W42555  27.631   3.707  11.588
70973W        W42556   9.977  20.577   1.823
70974W        W42557  33.178  22.782  13.032
70975W        W42558  15.803  15.050   0.725
70976W        W42559  21.548  26.569   2.734
70977W        W42560  20.030   2.545  11.165
70978W        W42561  21.995  22.978   4.588
70979W        W42562  23.811  44.770   1.499
70980W        W42563  30.208  24.650   2.195
70981W        W42564  32.413  24.759  12.883
70982W        W42565  41.423  26.684  12.534
70983W        W42566  32.002  38.116  14.427
70984W        W42567  37.336  19.029  12.875
70985W        W42568  44.728  19.449  11.667
70986W        W42569  41.333  33.023   0.882
70987W        W42570  38.277   3.716   2.651
70988W        W42571   1.416  29.703   2.350
70989W        W42572  36.438  38.590  11.086
70990W        W42573  19.623  10.635  13.019
70991W        W42574  41.039  36.643  11.969
70992W        W42575  17.685  23.806  11.687
70993W        W42576  23.985  14.644   1.530
70994W        W42577  32.049  36.422  11.594
70995W        W42578   2.763  42.536   3.785
70996W        W42579   2.535  42.818   2.078
70997W        W42580  15.898   2.827  11.364
70998W        W42581   5.901  15.198   4.391
70999W        W42582  30.585  39.884  11.257
71000W        W42583  23.284   7.073   4.086
71001W        W42584  14.768   8.095  11.634
71002W        W42585   0.799  33.614  14.919
71003W        W42586  18.784  29.158  14.931
71004W        W42587   1.216   0.342  11.582
71005W        W42588  15.477  33.994  13.933
71006W        W42589  26.155  20.954  11.767
71007W        W42590  13.102  18.381   4.369
71008W        W42591   3.693  24.073   1.910
71009W        W42592   4.439  40.269  11.141
71010W        W42593  18.070  43.990  11.687
71011W        W42594  35.254  33.567  11.199
71012W        W42595   4.659  28.626   0.208
71013W        W42596   6.692  34.491  12.522
71014W        W42597  10.693  31.143  12.360
71015W        W42598  25.573  13.830   3.278
71016W        W42599   8.512  40.864   4.587
71017W        W42600  10.345   6.182   2.646
71018W        W42601  16.647  14.989  10.601
71019W        W42602  30.099  21.545  11.931
71020W        W42603  26.013   1.025  10.731
71021W        W42604  34.894  31.380   3.535
71022W        W42605   1.568  19.213  12.446
71023W        W42606  19.595   4.508  12.529
71024W        W42607   7.286  33.456  10.540
71025W        W42608  15.191  18.681   1.566
71026W        W42609  20.171  35.783  12.912
71027W        W42610  33.099   1.271   0.042
71028W        W42611   8.879   7.710   4.992
71029W        W42612  35.455  31.075  12.569
71030W        W42613  35.831  37.487   0.894
71031W        W42614  30.490   6.230  11.802
71032W        W42615  27.183   1.759   0.939
71033W        W42616  27.899  16.294  10.746
71034W        W42617  33.056  22.885  11.031
71035W        W42618  22.704   7.303   5.440
71036W        W42619  10.010  33.016   1.955
71037W        W42620  23.689  15.124  10.743
71038W        W42621   8.153  21.245  10.793
71039W        W42622   9.291   2.398   3.298
71040W        W42623  33.162   5.679  12.024
71041W        W42624  21.723  18.777   1.401
71042W        W42625  39.024   1.868  10.600
71043W        W42626  41.337  20.680  12.552
71044W        W42627  42.480  27.527  14.877
71045W        W42628   6.169  41.334  11.071
71046W        W42629  33.035  24.547   0.476
71047W        W42630  35.622  18.701  13.361
71048W        W42631  34.627  13.589   0.543
71049W        W42632  35.388  24.696   1.319
71050W        W42633  33.168   4.492  13.453
71051W        W42634  28.171   4.186   5.012
71052W        W42635  36.644  32.713   1.366
71053W        W42636  24.623  32.485  14.870
71054W        W42637  11.060  42.805   0.021
71055W        W42638   8.859  26.016  14.751
71056W        W42639  28.177  27.865  14.805
71057W        W42640  33.883   3.138   5.216
71058W        W42641   1.280  34.862  13.937
71059W        W42642   1.037  27.142  14.581
71060W        W42643  15.646  38.043  11.569
71061W        W42644  19.910   4.453  14.408
71062W        W42645   2.053  17.815  12.826
71063W        W42646  21.270  12.172   1.727
71064W        W42647  22.473  27.150  14.813
71065W        W42648  38.575   6.909  12.466
71066W        W42649  41.013  41.835   4.132
71067W        W42650  41.857  24.536   4.628
71068W        W42651  15.338  44.303   0.545
71069W        W42652  21.098  34.618  14.969
71070W        W42653  20.545   3.423   4.194
71071W        W42654  13.228  26.146  10.663
71072W        W42655   2.008  42.987   5.046
71073W        W42656   9.639  36.169  13.906
71074W        W42657  15.691  28.096   1.478
71075W        W42658  39.985  16.851  13.770
71076W        W42659  40.125  31.877  11.932
71077W        W42660  15.893   9.682   3.873
71078W        W42661   6.411  41.248  14.937
71079W        W42662  11.711   6.429   3.173
71080W        W42663  39.354  34.538   3.328
71081W        W42664  27.516  13.419   0.327
71082W        W42665  20.060  38.808   2.875
71083W        W42666  15.526  20.128  14.419
71084W        W42667  12.120  12.060  13.716
71085W        W42668  30.474   5.411   2.670
71086W        W42669  13.748  36.315  12.835
71087W        W42670   4.921  28.010  12.922
71088W        W42671  17.070  22.248  13.372
71089W        W42672  24.210  33.112   2.609
71090W        W42673  21.658   9.771   3.208
71091W        W42674  29.648  15.150  13.477
71092W        W42675  38.346   0.073  13.046
71093W        W42676  41.818  43.481  11.152
71094W        W42677  37.857  35.866  11.502
71095W        W42678   6.567  14.218   0.051
71096W        W42679  38.575  22.582  13.303
71097W        W42680  37.474   1.871  13.592
71098W        W42681  25.860   2.769  10.595
71099W        W42682  27.144  27.660  11.128
71100W        W42683  37.263  31.013  12.463
71101W        W42684  28.171   0.238   1.401
71102W        W42685  20.957  20.667   0.255
71103W        W42686  13.871  29.189   1.856
71104W        W42687  11.955  16.349   4.254
71105W        W42688  20.662  22.194  10.655
71106W        W42689  18.020  39.024   2.400
71107W        W42690   7.887  29.891   3.689
71108W        W42691  36.292  42.094   3.866
71109W        W42692  26.833   5.736  10.226
71110W        W42693   4.258  39.292   2.234
71111W        W42694  12.136  44.599   2.197
71112W        W42695   4.461   8.804  11.179
71113W        W42696  18.591  11.661   0.422
71114W        W42697  44.666  26.790  11.402
71115W        W42698  27.205   5.711  13.288
71116W        W42699  22.950  23.044  12.767
71117W        W42700  33.850  42.858  14.386
71118W        W42701  30.599   8.907   1.650
71119W        W42702  20.961  38.821   1.381
71120W        W42703  42.513  41.339   4.780
71121W        W42704  19.299  40.847   0.401
71122W        W42705  31.162  30.091  14.312
71123W        W42706  38.995   5.292   0.328
71124W        W42707  41.921  39.758  14.994
71125W        W42708  12.275   5.259  11.704
71126W        W42709  32.435  34.162   2.247
71127W        W42710  44.412  40.918   1.004
71128W        W42711   9.894  36.205  11.208
71129W        W42712  41.630  33.862  14.362
71130W        W42713   6.360  36.217   3.079
71131W        W42714  10.573  24.546  13.622
71132W        W42715   9.145  31.871  14.957
71133W        W42716  28.507   0.681   1.379
71134W        W42717  21.245   9.392  13.497
71135W        W42718   6.329  13.435   0.052
71136W        W42719  39.051  23.690   4.981
71137W        W42720  17.146  34.372  13.523
71138W        W42721  26.959  35.432   1.391
71139W        W42722  12.311   9.321   0.973
71140W        W42723  27.188  43.875  13.088
71141W        W42724  37.703  23.453  12.409
71142W        W42725   6.991  33.226  14.918
71143W        W42726  15.899  15.968  10.910
71144W        W42727  12.761  31.561  12.036
71145W        W42728   7.296  25.697   2.171
71146W        W42729  31.564  31.486  10.588
71147W        W42730  34.435  33.034  10.884
71148W        W42731  17.731  21.929   5.282
71149W        W42732  36.451  14.304   2.332
71150W        W42733  30.225   5.676   3.696
71151W        W42734   4.828  40.558   3.283
71152W        W42735  36.158  17.689   1.247
71153W        W42736  12.540  32.529  13.122
71154W        W42737  44.426  26.768   0.018
71155W        W42738  18.328   6.936  11.813
71156W        W42739  26.925   3.641   2.192
71157W        W42740  32.466  32.446   4.179
71158W        W42741   5.427  39.842  11.834
71159W        W42742   6.761   2.972  11.490
71160W        W42743  25.655  16.522   4.436
71161W        W42744   5.725  15.853  10.354
71162W        W42745  36.790  36.457   1.961
71163W        W42746  38.024  13.630   2.749
71164W        W42747  24.990   8.656   2.232
71165W        W42748  41.249  11.668  12.034
71166W        W42749   7.284  18.611   0.410
71167W        W42750   4.915  20.772  12.924
71168W        W42751   1.168   5.874  13.754
71169W        W42752  15.865   3.319  13.599
71170W        W42753  31.987   5.120   4.906
71171W        W42754  39.899   4.631   4.554
71172W        W42755  36.147  33.676  12.984
71173W        W42756  32.529  30.589   4.294
71174W        W42757  18.059  29.670   4.081
71175W        W42758   6.968  34.117  13.823
71176W        W42759  13.206  16.517  14.482
71177W        W42760  22.665  18.428  12.526
71178W        W42761  12.282  29.666  11.252
71179W        W42762  35.703   3.666  13.899
71180W        W42763   4.487  22.279  11.541
71181W        W42764  19.916  27.989   0.255
71182W        W42765  20.782  31.083   1.688
71183W        W42766  18.574  15.885   0.004
71184W        W42767   6.413  39.648  13.925
71185W        W42768  33.541  29.068   0.092
71186W        W42769  16.164  37.295   9.749
71187W        W42770  44.815   9.661   1.357
71188W        W42771  21.695  43.955  13.962
71189W        W42772  16.883  25.687  14.008
71190W        W42773   8.767  31.093   1.727
71191W        W42774   1.869  36.354  14.474
71192W        W42775  41.144   5.208  11.637
71193W        W42776  19.621   8.866   2.833
71194W        W42777  17.062  27.485  12.228
71195W        W42778  15.625  42.481   2.197
71196W        W42779  16.647   3.410  11.715
71197W        W42780   8.581  31.851  11.580
71198W        W42781   7.468  18.611  10.743
71199W        W42782  20.825  35.559   2.642
71200W        W42783  36.052  11.345   2.704
71201W        W42784   7.359   9.477  10.309
71202W        W42785  15.125   2.303  12.100
71203W        W42786  32.529  39.004   0.726
71204W        W42787  14.429   7.527  10.142
71205W        W42788  11.269   6.256  14.790
71206W        W42789   2.796  16.335   2.298
71207W        W42790   3.470   7.307  14.523
71208W        W42791  37.534  17.225   2.057
71209W        W42792  23.268   0.050   3.898
71210W        W42793  13.539  26.600   0.360
71211W        W42794   1.430  36.366  10.577
71212W        W42795  14.842  31.412   1.383
71213W        W42796   1.334   7.470  12.971
71214W        W42797  23.230  41.548  13.013
71215W        W42798  17.356  25.054  14.342
71216W        W42799  28.205  10.914   4.480
71217W        W42800   5.940  22.876   3.593
71218W        W42801  27.703   3.823   2.669
71219W        W42802  26.472  31.860   5.013
71220W        W42803  13.826  22.432  12.499
71221W        W42804  30.381  24.480  12.534
71222W        W42805  26.631  44.251  11.937
71223W        W42806  21.637  19.937  14.145
71224W        W42807   4.594   8.475   0.431
71225W        W42808  21.298   7.716   1.111
71226W        W42809  28.703   6.652  13.586
71227W        W42810   5.455  29.666  14.859
71228W        W42811   0.411  26.569  10.633
71229W        W42812  21.650   3.512  10.918
71230W        W42813  41.384  26.984   2.329
71231W        W42814  39.779  14.050   4.072
71232W        W42815  33.737  12.296   1.307
71233W        W42816  41.087  35.493   3.603
71234W        W42817  40.434  11.715  12.594
71235W        W42818  24.227  28.118  14.616
71236W        W42819   4.997  10.136  13.553
71237W        W42820   1.183  36.002  12.491
71238W        W42821  28.651  11.865   5.115
71239W        W42822  30.035  16.509   1.307
71240W        W42823  40.585  11.529  11.836
71241W        W42824   1.455  18.587   2.199
71242W        W42825  36.556  26.227  11.854
71243W        W42826  28.461   6.967  13.974
71244W        W42827  16.190  43.394  13.984
71245W        W42828  35.354  27.632   0.358
71246W        W42829  11.863  12.468   2.804
71247W        W42830  19.793  40.596   1.247
71248W        W42831   1.011  36.347  12.887
71249W        W42832  33.587   6.224   3.677
71250W        W42833  12.851  36.661  12.964
71251W        W42834  42.371   5.030   3.104
71252W        W42835   1.862  11.144  12.460
71253W        W42836  37.317  37.432  14.736
71254W        W42837  33.375  27.162  14.989
71255W        W42838  16.266  29.529   4.758
71256W        W42839  32.093  13.272   4.504
71257W        W42840  27.920  36.457   1.824
71258W        W42841  16.554  33.582  14.412
71259W        W42842   7.278   9.245  11.833
71260W        W42843  29.727  40.953  14.685
71261W        W42844   1.859  17.650  14.692
71262W        W42845  37.575  24.610   2.263
71263W        W42846  33.604   6.758   3.627
71264W        W42847  41.908   1.156  12.660
71265W        W42848  14.776  14.404   5.053
71266W        W42849   2.768  11.325   2.656
71267W        W42850  13.575   7.343  13.166
71268W        W42851  25.362  31.270  14.953
71269W        W42852  25.209  18.929  11.516
71270W        W42853  35.282  22.203   1.636
71271W        W42854  26.727   5.946   1.418
71272W        W42855   8.365   7.150   4.470
71273W        W42856   1.508  11.116  13.082
71274W        W42857  10.364   6.908  12.429
71275W        W42858  43.994   7.306  10.491
71276W        W42859  30.431   0.127  11.135
71277W        W42860  43.588  17.645   3.704
71278W        W42861  44.913  36.813   4.499
71279W        W42862  36.051  26.725  13.866
71280W        W42863   7.691   5.179  12.044
71281W        W42864   2.217  24.169   4.161
71282W        W42865  22.124  33.557   1.329
71283W        W42866   3.472  32.501  14.521
71284W        W42867  14.631  24.684   0.453
71285W        W42868  15.081  10.845  14.360
71286W        W42869  20.187  25.984   1.256
71287W        W42870  28.913  39.271  10.646
71288W        W42871  24.546  10.673  12.490
71289W        W42872   7.959  27.173   4.231
71290W        W42873   7.132  43.617  11.505
71291W        W42874   0.194  26.684  12.415
71292W        W42875  13.764  20.626   3.343
71293W        W42876  19.684   8.458  12.055
71294W        W42877  33.987  25.534   3.753
71295W        W42878   6.437  13.680  14.315
71296W        W42879  20.738  34.974  14.942
71297W        W42880  12.685   1.898  12.803
71298W        W42881   1.487  22.022   2.416
71299W        W42882  30.737  18.149   1.492
71300W        W42883  43.429  25.388   1.341
71301W        W42884  29.451  12.443   1.848
71302W        W42885   4.406  14.623   3.944
71303W        W42886  18.130  42.420  13.074
71304W        W42887  41.694  11.602   0.706
71305W        W42888  28.635  24.600  13.958
71306W        W42889  37.330  37.066  12.049
71307W        W42890  18.805   5.878  12.932
71308W        W42891  32.361   1.182   4.148
71309W        W42892  43.719  27.505  14.346
71310W        W42893  17.255  26.267  10.655
71311W        W42894  34.147  20.360  11.147
71312W        W42895  44.219  31.748  13.377
71313W        W42896   5.767  36.124   4.010
71314W        W42897   4.746  34.339  10.227
71315W        W42898  18.167  18.881   1.736
71316W        W42899  22.987   0.677  11.478
71317W        W42900  10.564  28.520   0.789
71318W        W42901   9.888   1.439   1.388
71319W        W42902  44.449  21.727  13.870
71320W        W42903  30.125  29.543   0.705
71321W        W42904  13.885  18.923  14.406
71322W        W42905  36.635  35.441   2.858
71323W        W42906  35.317  27.083  13.992
71324W        W42907  33.753  10.241   2.674
71325W        W42908  40.943  41.429   4.469
71326W        W42909  13.778  29.616  12.892
71327W        W42910  23.273  37.079   4.160
71328W        W42911  10.763  16.165   3.394
71329W        W42912   2.217  40.723   2.593
71330W        W42913  41.697  33.231  12.833
71331W        W42914  14.191   0.285   0.269
71332W        W42915  38.989  35.337  13.977
71333W        W42916  19.311  43.039  14.514
71334W        W42917  32.245  23.917   4.111
71335W        W42918   0.441  41.981  14.856
71336W        W42919  30.363   9.800  10.707
71337W        W42920  10.274  10.822   1.229
71338W        W42921  24.538  12.281  11.609
71339W        W42922  18.668  33.403   1.426
71340W        W42923  24.504  30.425  11.621
71341W        W42924  27.141   7.797  14.794
71342W        W42925  21.484  36.313   0.418
71343W        W42926   8.299   3.513  12.168
71344W        W42927  29.552   6.447  13.808
71345W        W42928  19.351  24.256  12.062
71346W        W42929  31.620  33.941   2.773
71347W        W42930  36.346  38.069   1.845
71348W        W42931  19.967   9.208   3.095
71349W        W42932  17.215  41.391   4.613
71350W        W42933  33.664  16.743  12.186
71351W        W42934   1.211   9.078  11.767
71352W        W42935  36.355  38.312   2.354
71353W        W42936  16.501  21.959   3.718
71354W        W42937  28.149   0.024  13.963
71355W        W42938  19.422  40.853   0.911
71356W        W42939  34.553   0.220   4.981
71357W        W42940   2.148  29.650   0.822
71358W        W42941  41.446  29.233  13.586
71359W        W42942  21.802  11.884  11.899
71360W        W42943  25.514   4.420   0.012
71361W        W42944   7.264   8.771  12.015
71362W        W42945  23.623  41.316  13.496
71363W        W42946  17.209  10.398  14.578
71364W        W42947  26.416  20.428   4.083
71365W        W42948   8.664  36.552  13.906
71366W        W42949  36.396  34.540   0.312
71367W        W42950  12.634  40.227   1.481
71368W        W42951  10.285  31.996  12.008
71369W        W42952   4.778  32.136   3.364
71370W        W42953   6.511  39.411   3.824
71371W        W42954  22.049  43.221  13.630
71372W        W42955  12.551   5.219  12.426
71373W        W42956  19.366  23.203   1.061
71374W        W42957  26.058  38.754   3.239
71375W        W42958  27.294  28.218  14.877
71376W        W42959   4.613  32.528   2.843
71377W        W42960  27.508  15.275   1.478
71378W        W42961  31.524   0.963   4.174
71379W        W42962  22.692   4.282  12.192
71380W        W42963  30.494  35.112  10.708
71381W        W42964  24.527  29.694   4.606
71382W        W42965  37.011  24.709   4.745
71383W        W42966   9.336   2.820   3.580
71384W        W42967  22.721  20.722  10.603
71385W        W42968  12.791  10.905   1.902
71386W        W42969  24.865  39.468   4.677
71387W        W42970  27.560  37.565   4.766
71388W        W42971  37.317   8.143   0.419
71389W        W42972  17.640  19.926  10.775
71390W        W42973  24.469  38.910  13.814
71391W        W42974  36.482  29.070   2.754
71392W        W42975  24.968  44.804  13.362
71393W        W42976  14.970   4.440   2.840
71394W        W42977  44.907  38.873  13.557
71395W        W42978   2.981   1.337   1.877
71396W        W42979  11.113  26.307   1.932
71397W        W42980  44.511  16.754  14.540
71398W        W42981  39.493  29.467  13.421
71399W        W42982  28.581  12.753   0.936
71400W        W42983  25.040  22.527   4.991
71401W        W42984   5.820  32.903   0.736
71402W        W42985  30.464  28.478   1.838
71403W        W42986  34.987   8.282   4.592
71404W        W42987   8.155  25.066  10.229
71405W        W42988   2.542   2.315  11.738
71406W        W42989  23.805  18.121  12.075
71407W        W42990  16.129  12.817   3.189
71408W        W42991  34.927   7.109  12.404
71409W        W42992  44.240  42.026  13.039
71410W        W42993  14.114  22.133  11.786
71411W        W42994  35.620  42.766  13.034
71412W        W42995  32.045  28.842   2.542
71413W        W42996  39.619  28.367  12.590
71414W        W42997   4.228  22.132  14.674
71415W        W42998   8.816  44.167  11.267
71416W        W42999  33.359  43.277   2.298
71417W        W43000  28.528  22.989   4.494
71418W        W43001  26.638  22.528  11.115
71419W        W43002  32.119  15.379   4.160
71420W        W43003  11.158   9.453  13.461
71421W        W43004  30.957  13.998  12.111
71422W        W43005  15.747  22.035   1.323
71423W        W43006  43.433   3.771  11.604
71424W        W43007   3.844  26.154   0.400
71425W        W43008  17.222  20.535  10.967
71426W        W43009   6.235  26.941   3.331
71427W        W43010   7.292   9.721  11.670
71428W        W43011  43.234  37.100   0.015
71429W        W43012  25.631  31.875  13.762
71430W        W43013  32.500  36.012  14.067
71431W        W43014  10.957  42.274  12.920
71432W        W43015  33.626  29.583   4.247
71433W        W43016  40.872  30.572  10.567
71434W        W43017  39.907   3.875  11.438
71435W        W43018   7.324  42.824   4.710
71436W        W43019  13.118  13.957   5.015
71437W        W43020  24.388   6.004   4.713
71438W        W43021  12.212  43.200   1.873
71439W        W43022  33.171  18.061   3.749
71440W        W43023  19.879   6.367   3.697
71441W        W43024  19.747  40.754  10.334
71442W        W43025   7.999  17.191   3.677
71443W        W43026   9.238  37.509   0.496
71444W        W43027  13.463  39.230  14.743
71445W        W43028  13.752   5.744  10.730
71446W        W43029  30.909  31.020   2.932
71447W        W43030  38.256   4.347  12.216
71448W        W43031  37.595   3.210   0.847
71449W        W43032  12.256  33.865  14.412
71450W        W43033  12.585   3.965   2.141
71451W        W43034  12.154   4.465  10.720
71452W        W43035  32.593  19.202   4.559
71453W        W43036  23.209  23.591   0.792
71454W        W43037  17.188  41.493   0.496
71455W        W43038   6.865  44.916   4.126
71456W        W43039  44.979  20.486   4.265
71457W        W43040  12.584  32.445   4.254
71458W        W43041  43.873  16.573   0.353
71459W        W43042  30.771  43.029  14.827
71460W        W43043   6.881  16.853   1.638
71461W        W43044  29.797  41.273   4.203
71462W        W43045  28.155  41.101   1.684
71463W        W43046   4.870  25.100  14.733
71464W        W43047   8.911   5.768   4.330
71465W        W43048  13.040   4.781  12.904
71466W        W43049  10.913  18.327  12.536
71467W        W43050  17.291  23.475  10.137
71468W        W43051  26.931  43.583  11.246
71469W        W43052  44.186   0.362   1.331
71470W        W43053  18.042  36.517  13.365
71471W        W43054  21.472  28.140   3.076
71472W        W43055  15.306  26.710   0.099
71473W        W43056  39.351  14.867   1.404
71474W        W43057  18.994  10.289  11.525
71475W        W43058  38.471   0.777   3.211
71476W        W43059   4.679   6.658   1.416
71477W        W43060  38.281  33.517  12.089
71478W        W43061   3.707   5.920   3.147
71479W        W43062  35.900   0.823   4.435
71480W        W43063   6.484   6.724   0.945
71481W        W43064  36.406  38.027  13.024
71482W        W43065  25.597  34.758  11.656
71483W        W43066  26.550   7.847   1.727
71484W        W43067  30.089  22.057   3.878
71485W        W43068   2.011  41.344   3.711
71486W        W43069  18.070   7.919   4.074
71487W        W43070   6.711  15.572   0.311
71488W        W43071  18.692  15.609  10.259
71489W        W43072   3.895  37.615  12.484
71490W        W43073  38.805  40.779   2.441
71491W        W43074  38.136  41.296  11.216
71492W        W43075  31.853   6.300  12.058
71493W        W43076   6.245   5.777   0.770
71494W        W43077  26.197   1.674  13.307
71495W        W43078   8.159   3.414   2.724
71496W        W43079  26.078  37.987   2.668
71497W        W43080  33.121  37.809   0.814
71498W        W43081  21.291  34.165   0.881
71499W        W43082  21.407  22.711  14.572
71500W        W43083  12.534  21.531  10.761
71501W        W43084  39.011  42.503  10.653
71502W        W43085  16.141   8.627   1.156
71503W        W43086   2.828  20.824   2.612
71504W        W43087  18.000  26.010   1.467
71505W        W43088  19.989  37.095  13.418
71506W        W43089  27.653  36.019  11.110
71507W        W43090  35.403  38.916  14.794
71508W        W43091  44.294  39.433   2.715
71509W        W43092   9.223  17.378  13.067
71510W        W43093  44.283  36.315  11.075
71511W        W43094   7.464  43.077  10.263
71512W        W43095  29.638  37.439   2.834
71513W        W43096   0.547  14.730   0.280
71514W        W43097   4.425  33.570   3.675
71515W        W43098  20.916  39.748   1.787
71516W        W43099  25.526  12.319   0.204
71517W        W43100  11.166  22.785  11.855
71518W        W43101  19.723   2.781  11.882
71519W        W43102  31.517  34.137   1.176
71520W        W43103   0.235  12.436  11.746
71521W        W43104  18.119  16.776  11.314
71522W        W43105  31.375   0.287  14.417
71523W        W43106  41.548  26.202   2.763
71524W        W43107  22.567  37.331   3.695
71525W        W43108  21.116   3.218  10.785
71526W        W43109   8.680  24.487  14.426
71527W        W43110  43.875  13.164   1.510
71528W        W43111  39.842  44.643  10.363
71529W        W43112  36.835  11.424   2.387
71530W        W43113   4.417  36.802   5.036
71531W        W43114  21.511  39.901   5.134
71532W        W43115  29.792   3.444   2.249
71533W        W43116  40.187  34.299  14.852
71534W        W43117   8.952   0.562  13.926
71535W        W43118  14.734  39.926   1.602
71536W        W43119  12.120  28.444   2.594
71537W        W43120  36.332  28.642   2.500
71538W        W43121  10.829  29.191  13.419
71539W        W43122  20.206   5.714  11.207
71540W        W43123  35.222  13.765   3.261
71541W        W43124  20.540  43.447   2.789
71542W        W43125  25.822  30.392  12.887
71543W        W43126   4.700  22.643   1.434
71544W        W43127   0.359  39.744  13.398
71545W        W43128  41.683  38.736  14.958
71546W        W43129  20.227   3.473   3.737
71547W        W43130  35.162  14.547   1.298
71548W        W43131  12.613  30.631  12.017
71549W        W43132  33.170  43.629   1.930
71550W        W43133  20.543  29.192  13.521
71551W        W43134  24.063  22.201   1.175
71552W        W43135  39.134  10.609  14.879
71553W        W43136  29.514  28.125   5.518
71554W        W43137  27.325  31.173   4.935
71555W        W43138  29.406  25.258   4.064
71556W        W43139  41.879  34.485  14.349
71557W        W43140   8.066  44.425  11.077
71558W        W43141  27.459  30.939   0.797
71559W        W43142  15.923  29.310  11.949
71560W        W43143  14.783  41.602   0.155
71561W        W43144  44.688  31.110   4.327
71562W        W43145  23.905  30.872   3.056
71563W        W43146  13.833  15.281  13.968
71564W        W43147  31.985   6.268  14.890
71565W        W43148  14.276  43.938   1.648
71566W        W43149  19.716  21.084  14.598
71567W        W43150  29.916   6.841   4.270
71568W        W43151  14.553  34.789   2.824
71569W        W43152  20.749   6.602   3.576
71570W        W43153  16.718   0.428  10.682
71571W        W43154  20.148  28.765   2.265
71572W        W43155  26.943  41.906  12.437
71573W        W43156  26.035  16.436   2.175
71574W        W43157  11.928  27.558  13.284
71575W        W43158   2.468  23.144  12.371
71576W        W43159  12.676  30.915   4.765
71577W        W43160  35.797   5.332   0.373
71578W        W43161  32.619  27.565  14.914
71579W        W43162  11.674  22.410  11.702
71580W        W43163  21.341  41.522  11.542
71581W        W43164  35.602  16.604   2.089
71582W        W43165  35.697  13.768  11.959
71583W        W43166  25.430   9.298   1.692
71584W        W43167   5.921  18.988   2.305
71585W        W43168  40.734  33.279  11.184
71586W        W43169  20.703  35.143   2.923
71587W        W43170  28.642  16.251  14.036
71588W        W43171  15.273  15.065  11.913
71589W        W43172  13.119  37.037  13.394
71590W        W43173  41.456  14.621  14.584
71591W        W43174   5.845   6.840  10.717
71592W        W43175  18.690  29.988  12.398
71593W        W43176  20.121   7.211   0.444
71594W        W43177  16.106  11.211   4.704
71595W        W43178  24.212  10.203   4.573
71596W        W43179  27.626  36.453  12.128
71597W        W43180   8.486  36.440   0.835
71598W        W43181   4.092  37.479   4.797
71599W        W43182  24.692  16.270   3.671
71600W        W43183  37.564  43.956   4.628
71601W        W43184  41.077   8.622   5.056
71602W        W43185  25.418  26.656   0.735
71603W        W43186  21.680  18.406   0.984
71604W        W43187  17.660  30.448   0.381
71605W        W43188  18.855  14.319   1.361
71606W        W43189  35.057   8.586   2.255
71607W        W43190  27.756  20.682   0.076
71608W        W43191  40.517   1.913   2.427
71609W        W43192   9.048   1.122  11.573
71610W        W43193  22.750   5.052  10.410
71611W        W43194  19.350  22.272  14.381
71612W        W43195  44.740  27.714   3.627
71613W        W43196  34.542  18.023   1.870
71614W        W43197  20.584   4.289   2.931
71615W        W43198  12.314  31.720   4.858
71616W        W43199  42.255   1.197   1.298
71617W        W43200  15.684   9.281   4.540
71618W        W43201  25.198  30.172  12.504
71619W        W43202  39.745  35.439   2.282
71620W        W43203  25.833  43.017  13.150
71621W        W43204  29.634  39.202   1.958
71622W        W43205  23.548  39.734  14.410
71623W        W43206   2.804  11.639   4.337
71624W        W43207  24.767  21.555  11.028
71625W        W43208   8.111  15.062   4.522
71626W        W43209   7.364   5.522  13.936
71627W        W43210   0.059  32.811  10.724
71628W        W43211  12.576  32.111   3.813
71629W        W43212   1.417  44.271  13.848
71630W        W43213  24.523  14.086  11.964
71631W        W43214   1.901  12.765  10.497
71632W        W43215  30.478  38.779   3.258
71633W        W43216  34.912   3.946   2.789
71634W        W43217  33.237  21.751  13.530
71635W        W43218  30.420  32.000  14.495
71636W        W43219  39.413  19.182   4.727
71637W        W43220   4.773  31.128   5.159
71638W        W43221  30.890  13.704   2.818
71639W        W43222  15.219  33.898   2.699
71640W        W43223  14.275  10.932  10.585
71641W        W43224  20.683  29.731   2.452
71642W        W43225  14.538  37.523   5.123
71643W        W43226  38.266  16.523   3.153
71644W        W43227  12.154   3.419   1.897
71645W        W43228   1.977  22.583  10.519
71646W        W43229   9.440  39.811  11.804
71647W        W43230   9.893   2.894   3.581
71648W        W43231   0.795  43.477  14.878
71649W        W43232  37.237   7.507   1.431
71650W        W43233  25.187   4.380   4.649
71651W        W43234  15.578  27.544   2.159
71652W        W43235  29.512  35.621  14.391
71653W        W43236   2.393  43.740   3.202
71654W        W43237   5.369  16.383  13.419
71655W        W43238  14.719   6.847   1.183
71656W        W43239  37.362  14.389  12.073
71657W        W43240  41.028  37.024  14.085
71658W        W43241  43.226  31.443   2.758
71659W        W43242  20.637  13.658   0.314
71660W        W43243  34.081  32.340   0.786
71661W        W43244  32.915  27.436   2.382
71662W        W43245  33.971  17.680   4.136
71663W        W43246  44.450   7.857   4.322
71664W        W43247  35.212  37.402  13.093
71665W        W43248   0.911  30.531  14.070
71666W        W43249  27.088  11.763  10.805
71667W        W43250  14.875  13.541   1.309
71668W        W43251  14.668  38.187   3.088
71669W        W43252  36.364   3.412   4.155
71670W        W43253  28.020  30.851   2.214
71671W        W43254  41.738  29.039   3.784
71672W        W43255  43.625  35.857   4.563
71673W        W43256  19.579  39.511  14.967
71674W        W43257  42.053   1.165   4.100
71675W        W43258   3.227   5.447  11.482
71676W        W43259  20.781  29.604  14.920
71677W        W43260  30.620  22.080   4.533
71678W        W43261   3.411  28.125  12.080
71679W        W43262  28.742  32.755   3.307
71680W        W43263   7.463  44.907  11.832
71681W        W43264   5.677  23.239   3.311
71682W        W43265   0.270  27.538  11.522
71683W        W43266  31.487  26.602   2.516
71684W        W43267   6.930  14.790  10.609
71685W        W43268  20.604   0.471  11.082
71686W        W43269  22.377   7.467   2.276
71687W        W43270  42.024  11.281   3.699
71688W        W43271  42.927  32.781   4.140
71689W        W43272  19.552   5.766  11.684
71690W        W43273   6.386  26.079   3.907
71691W        W43274  43.399  22.760   0.560
71692W        W43275  34.831  36.997   3.937
71693W        W43276  15.207   0.562  13.927
71694W        W43277  31.880  39.474   3.635
71695W        W43278  17.159  27.943   3.198
71696W        W43279  14.024   5.828   1.362
71697W        W43280  15.199   0.955   2.129
71698W        W43281   0.250  30.324   4.161
71699W        W43282  29.437   1.785   3.150
71700W        W43283  27.121  11.829   3.880
71701W        W43284  28.182  18.199  13.191
71702W        W43285  11.690  25.992  13.382
71703W        W43286  41.463   9.677   2.374
71704W        W43287  39.589  22.806   1.714
71705W        W43288  34.627  10.660  12.917
71706W        W43289  12.810  44.696   4.989
71707W        W43290  26.705   6.261   1.001
71708W        W43291  42.906  22.457  14.374
71709W        W43292   3.868  43.761  12.470
71710W        W43293  13.919   4.459  13.008
71711W        W43294  21.586  34.608  11.922
71712W        W43295  38.684   4.235   1.792
71713W        W43296  25.605  33.303  10.310
71714W        W43297   2.397  25.483   4.628
71715W        W43298  29.082   3.794   3.678
71716W        W43299  16.437  41.448   3.210
71717W        W43300  39.718  23.296  11.351
71718W        W43301  37.652  17.190  11.060
71719W        W43302   5.126  34.043  14.979
71720W        W43303  21.643   1.749   3.433
71721W        W43304  13.846   6.759   2.844
71722W        W43305  40.752   4.915  11.030
71723W        W43306   7.296   5.056  13.713
71724W        W43307  39.535  33.014  10.270
71725W        W43308  37.813  19.100  14.040
71726W        W43309  28.905  36.485   2.351
71727W        W43310  13.389  31.181  12.876
71728W        W43311   9.924  32.555   1.745
71729W        W43312  32.866   3.804   2.337
71730W        W43313   8.876  15.570   2.256
71731W        W43314  29.064   6.441   1.311
71732W        W43315  13.786  25.905  12.308
71733W        W43316  16.135  12.103   3.689
71734W        W43317  13.037  37.142   0.260
71735W        W43318  19.896  24.517  12.292
71736W        W43319  23.483  16.553  13.414
71737W        W43320  43.844  24.580  11.678
71738W        W43321  27.341  14.833  12.117
71739W        W43322  42.749  19.126   1.927
71740W        W43323  26.702  31.430  10.051
71741W        W43324  25.690  28.748   3.398
71742W        W43325  40.507   2.652  13.403
71743W        W43326   4.481  34.988  11.583
71744W        W43327  43.380  36.973   4.104
71745W        W43328  39.287   9.223   2.495
71746W        W43329  27.957  43.558  12.468
71747W        W43330  36.490  25.059   2.704
71748W        W43331  10.759   4.779   4.568
71749W        W43332  36.423  22.701   0.409
71750W        W43333  20.145  35.988  12.403
71751W        W43334  27.616  44.261   2.882
71752W        W43335  39.392  31.934   4.471
71753W        W43336  18.575   1.809   1.297
71754W        W43337  44.786  38.950   3.446
71755W        W43338  27.264  18.709  10.309
71756W        W43339  39.067   9.137  12.534
71757W        W43340  30.036  23.602  14.519
71758W        W43341  15.086  10.504   4.703
71759W        W43342  18.863   3.459   4.714
71760W        W43343  21.648  40.126  12.472
71761W        W43344   7.893  27.071  12.024
71762W        W43345  27.601  43.434  14.221
71763W        W43346  32.734   8.671   1.710
71764W        W43347  27.661  35.305  13.376
71765W        W43348  39.490  21.029  10.613
71766W        W43349  39.081  34.854  13.750
71767W        W43350  39.455  18.773   3.088
71768W        W43351  24.933  42.493  13.942
71769W        W43352  43.848   2.853  13.334
71770W        W43353  33.181   5.788   0.838
71771W        W43354   0.278  17.613   2.945
71772W        W43355  39.908  22.993   2.272
71773W        W43356  11.650   8.713  11.484
71774W        W43357  31.973  27.754   2.041
71775W        W43358  39.064  24.104   3.790
71776W        W43359  19.853  20.120   3.326
71777W        W43360   4.262   9.852   1.308
71778W        W43361  35.317  26.626  14.223
71779W        W43362  20.120  30.476   0.523
71780W        W43363  22.302  29.452   0.512
71781W        W43364  15.573  28.949  12.127
71782W        W43365  17.575  28.950  11.182
71783W        W43366  19.594  26.532   4.386
71784W        W43367   2.986  12.612  12.873
71785W        W43368  21.241  11.634   2.198
71786W        W43369  42.379  17.164   3.822
71787W        W43370  42.012  18.257  10.166
71788W        W43371  27.071  38.529   3.770
71789W        W43372  12.228  35.578   3.581
71790W        W43373  38.966  38.273  13.500
71791W        W43374  34.193   4.605   1.708
71792W        W43375  41.612  20.351  12.888
71793W        W43376  26.538  23.398  12.482
71794W        W43377  17.256  18.237   3.220
71795W        W43378  34.510  24.129  13.723
71796W        W43379   6.959  32.722  12.076
71797W        W43380  44.414  36.781   0.997
71798W        W43381  18.241  16.344  11.135
71799W        W43382  24.441  15.436  12.287
71800W        W43383  38.883  21.542   4.475
71801W        W43384  23.598  30.910  12.437
71802W        W43385  22.505  23.318  11.594
71803W        W43386  33.581   5.201  13.446
71804W        W43387  43.250  41.083  11.679
71805W        W43388  33.823  34.161  10.414
71806W        W43389  35.359  35.908  11.624
71807W        W43390  34.727  24.489   4.028
71808W        W43391   5.845   1.663  13.018
71809W        W43392  13.440  34.335   3.524
71810W        W43393  28.233   7.725  10.497
71811W        W43394   1.458  26.178   3.223
71812W        W43395  37.380  23.028  10.682
71813W        W43396  28.910  40.831   1.909
71814W        W43397  37.498  34.359   0.761
71815W        W43398  25.471  26.060  12.026
71816W        W43399  12.785  36.006   1.198
71817W        W43400  13.963  25.517  11.488
71818W        W43401  10.549  41.390   0.447
71819W        W43402   7.104  14.184  12.727
71820W        W43403  26.995  21.497   4.159
71821W        W43404  44.795  11.604  13.436
71822W        W43405   4.224  22.223   4.682
71823W        W43406  30.419  31.608   4.390
71824W        W43407  11.123   2.466  14.408
71825W        W43408   1.831  21.138  10.601
71826W        W43409  25.419   8.415   4.230
71827W        W43410  25.755  12.121   2.348
71828W        W43411  17.484  36.541  12.036
71829W        W43412   5.226  15.215   1.011
71830W        W43413  27.584  28.836   0.319
71831W        W43414   1.917  20.595  12.079
71832W        W43415  33.350  24.566  10.498
71833W        W43416  35.915   5.290   0.917
71834W        W43417   5.262  23.629   3.766
71835W        W43418  13.401  22.545  13.504
71836W        W43419  26.400  15.374  13.004
71837W        W43420   0.380   7.552  14.275
71838W        W43421  43.537  20.685   4.048
71839W        W43422  30.500   9.134   2.766
71840W        W43423  30.251  32.710   3.726
71841W        W43424  44.354  21.071   0.406
71842W        W43425   4.140  13.993  13.397
71843W        W43426  43.958  41.803   3.112
71844W        W43427  16.815  12.645   2.473
71845W        W43428  14.198  37.357  14.180
71846W        W43429  43.864  11.652  10.516
71847W        W43430  31.686  11.787   1.737
71848W        W43431  36.866  28.198   0.739
71849W        W43432  36.956  17.767   4.160
71850W        W43433   4.385  19.377   3.722
71851W        W43434  15.632  36.330   2.616
71852W        W43435   4.787  15.942   4.998
71853W        W43436  23.516  29.145   0.237
71854W        W43437  22.106  32.020   0.298
71855W        W43438   1.831  23.129   0.913
71856W        W43439  26.254   8.612  13.544
71857W        W43440  14.679   7.428   3.181
71858W        W43441  33.050  41.333   4.527
71859W        W43442  43.012   0.183   4.383
71860W        W43443  37.448  26.443  12.595
71861W        W43444  39.647  35.027   1.971
71862W        W43445  14.250   7.344  12.404
71863W        W43446   6.910  34.470  12.057
71864W        W43447   8.243   7.440  12.429
71865W        W43448  44.374  16.284  11.457
71866W        W43449  16.798  27.730   0.399
71867W        W43450  36.408  19.668   1.434
71868W        W43451  16.780  37.364  14.730
71869W        W43452  28.547  39.809  13.803
71870W        W43453  17.808  41.151   2.630
71871W        W43454   7.857  35.025   2.565
71872W        W43455  18.033  34.948   2.702
71873W        W43456   7.316   3.793  12.605
71874W        W43457   7.144  44.962   2.211
71875W        W43458  22.548  27.105   1.693
71876W        W43459  30.622  13.765   0.770
71877W        W43460  15.444  39.324  13.926
71878W        W43461  26.501  13.857  14.048
71879W        W43462  23.176   0.439  11.976
71880W        W43463  26.412  26.685   3.264
71881W        W43464  37.303  19.463  11.102
71882W        W43465  11.325  27.837   0.015
71883W        W43466  31.598  43.522  14.704
71884W        W43467  42.466  16.338  12.584
71885W        W43468   5.200  10.636   4.608
71886W        W43469  23.763  23.026  10.510
71887W        W43470  35.527   5.630  13.424
71888W        W43471  24.670   8.226  11.410
71889W        W43472  41.571  33.894  12.054
71890W        W43473   5.935  24.682  10.802
71891W        W43474  23.203  10.901   1.864
71892W        W43475  38.300  17.705  11.541
71893W        W43476   7.888  12.670  13.495
71894W        W43477  26.970  24.430  14.315
71895W        W43478  12.876  24.079   4.813
71896W        W43479  43.007  43.350  11.822
71897W        W43480  20.677  43.506   4.183
71898W        W43481   1.753  24.038   3.558
71899W        W43482   6.322  11.555   1.075
71900W        W43483  38.385  22.181  14.251
71901W        W43484  29.893   0.539   2.854
71902W        W43485  23.678  31.390  13.999
71903W        W43486  14.292  34.471   4.998
71904W        W43487  15.673  35.476  13.014
71905W        W43488  36.922  24.642  13.429
71906W        W43489  37.442  28.185  13.047
71907W        W43490  18.766   5.268   4.698
71908W        W43491  27.000  44.369  13.189
71909W        W43492  24.739  37.105  11.139
71910W        W43493  37.513  40.714   3.115
71911W        W43494   1.404  21.160  12.752
71912W        W43495  21.245  22.616  12.393
71913W        W43496  15.773  16.461   2.783
71914W        W43497  12.083   9.377  13.767
71915W        W43498  18.606  29.877   2.710
71916W        W43499  26.626  35.494   4.334
71917W        W43500   1.178   8.319   1.711
71918W        W43501   5.933   3.525   2.375
71919W        W43502   0.641  43.794  12.093
71920W        W43503  18.360  30.533   3.602
71921W        W43504  41.163  33.525   1.681
71922W        W43505  36.543  26.964  11.128
71923W        W43506  37.920  35.170  11.363
71924W        W43507  38.875   8.687  12.391
71925W        W43508  27.743  10.568   5.072
71926W        W43509  28.745  31.867   3.234
71927W        W43510  27.685  29.351   0.381
71928W        W43511  14.748  22.733   4.099
71929W        W43512  35.259  26.871  12.152
71930W        W43513   5.782  13.509  13.833
71931W        W43514  19.456  31.987   1.696
71932W        W43515   8.237  27.353  12.463
71933W        W43516  21.672  18.645   4.886
71934W        W43517  13.783  31.404   3.170
71935W        W43518  44.837  26.744   4.629
71936W        W43519  30.898  13.597  11.018
71937W        W43520  31.015  18.480   0.835
71938W        W43521  28.084  31.665  13.940
71939W        W43522  41.802   6.437  12.636
71940W        W43523  19.334   6.232  11.022
71941W        W43524  20.031  39.298  14.002
71942W        W43525   2.244  29.188   1.650
71943W        W43526  10.857   3.356   4.549
71944W        W43527   3.070  13.682  11.953
71945W        W43528  41.812  18.517  13.917
71946W        W43529  36.651  23.469   0.938
71947W        W43530  42.114  22.707  14.072
71948W        W43531   7.295  26.959   1.916
71949W        W43532  43.832  10.190   0.045
71950W        W43533  10.886  13.132   1.648
71951W        W43534   7.649   5.441   3.248
71952W        W43535   2.521  26.629  11.874
71953W        W43536  27.461  29.385   0.857
71954W        W43537  27.486  26.979   2.709
71955W        W43538  42.340  13.923   4.360
71956W        W43539  36.582   7.340  10.595
71957W        W43540  40.022   3.505   1.811
71958W        W43541  33.565   2.743   2.880
71959W        W43542  28.245  44.116  13.839
71960W        W43543  25.203  13.823   4.810
71961W        W43544   3.673  23.110  10.636
71962W        W43545  28.633  24.534  10.560
71963W        W43546   9.352  32.453  12.857
71964W        W43547  24.927  10.820   2.223
71965W        W43548  44.075  39.945   0.060
71966W        W43549  18.260  26.554  11.570
71967W        W43550  17.066  31.712   5.034
71968W        W43551  37.448  29.319   4.148
71969W        W43552  29.037   7.256   0.199
71970W        W43553  34.909  18.880   1.703
71971W        W43554  42.905  27.610  12.551
71972W        W43555   4.560  44.686  11.535
71973W        W43556   7.750  34.900  11.974
71974W        W43557  20.383   3.901  13.952
71975W        W43558  25.660  44.249  13.835
71976W        W43559  23.490  32.434   3.050
71977W        W43560  24.096  35.989   0.407
71978W        W43561  36.981   7.886  13.701
71979W        W43562  28.436  35.835  13.058
71980W        W43563  13.147  17.569  13.063
71981W        W43564  39.100  14.132  10.952
71982W        W43565  27.972  39.530   3.807
71983W        W43566   9.190  15.414   3.202
71984W        W43567   8.059  35.527   1.626
71985W        W43568   3.110  16.976  10.148
71986W        W43569  31.093  29.573   1.423
71987W        W43570   1.515  23.242  11.009
71988W        W43571  22.323  37.952  12.366
71989W        W43572  26.554   0.774  10.019
71990W        W43573  42.007  21.013   3.140
71991W        W43574  28.450  40.540  13.103
71992W        W43575  39.423  29.621   1.149
71993W        W43576  43.870  26.663   3.423
71994W        W43577  38.957  21.481   2.128
71995W        W43578  42.913  36.591  14.586
71996W        W43579  28.727  42.352  14.350
71997W        W43580  26.767  24.387   3.584
71998W        W43581  32.934   6.242  13.939
71999W        W43582  39.042  29.451   1.439
72000W        W43583   1.882  32.968   3.314
72001W        W43584  12.112  10.675   3.809
72002W        W43585  18.025  23.397   2.150
72003W        W43586  13.673   9.110   1.348
72004W        W43587  43.400  22.250   0.459
72005W        W43588   9.984  20.914  12.502
72006W        W43589   9.320  30.905  14.735
72007W        W43590  29.460  10.677  11.505
72008W        W43591  18.393  25.679  12.463
72009W        W43592   9.723  40.854  11.158
72010W        W43593  14.136  19.553   4.637
72011W        W43594  21.484   7.509  14.230
72012W        W43595   4.982  33.483   4.533
72013W        W43596  14.717  17.804  13.054
72014W        W43597  25.625  35.007  14.622
72015W        W43598  31.464  19.163  10.352
72016W        W43599   5.879  42.812   0.748
72017W        W43600  23.640  40.268   2.830
72018W        W43601  44.833  37.298   4.737
72019W        W43602   5.867   2.540   3.610
72020W        W43603  16.646  27.497  13.042
72021W        W43604   8.189  35.941  13.783
72022W        W43605  44.321  10.592  14.260
72023W        W43606   5.821  27.077   0.456
72024W        W43607  24.965  24.991  12.916
72025W        W43608  18.924  16.216   1.852
72026W        W43609  14.139  44.155  12.769
72027W        W43610  12.614  33.617  12.627
72028W        W43611   6.171  11.297  13.801
72029W        W43612  37.439   9.433  10.652
72030W        W43613  39.082  21.773   3.441
72031W        W43614   8.184  24.241   2.127
72032W        W43615  13.656  21.209   1.251
72033W        W43616  11.367   9.398   1.035
72034W        W43617  39.340   7.491  11.551
72035W        W43618  18.698  12.084   1.980
72036W        W43619  17.696   8.179  12.942
72037W        W43620  27.018  11.743   2.193
72038W        W43621  29.698  21.034  13.342
72039W        W43622  20.502  41.995  12.863
72040W        W43623  27.493   1.746   4.712
72041W        W43624  40.045   6.253   5.072
72042W        W43625  10.859   9.385   1.891
72043W        W43626   3.298  10.800   4.751
72044W        W43627  30.122  16.413  13.847
72045W        W43628  36.647   3.526   4.605
72046W        W43629  12.577  37.109  14.466
72047W        W43630  38.450   2.745  12.101
72048W        W43631  43.783  29.921   3.672
72049W        W43632  11.312  30.907   0.759
72050W        W43633  12.712  14.245   4.316
72051W        W43634  10.221   8.376   1.829
72052W        W43635  10.573  15.786  14.398
72053W        W43636   4.458   0.819  12.489
72054W        W43637  20.389   3.561   9.894
72055W        W43638  13.178   9.066  14.832
72056W        W43639  26.678   0.699   0.353
72057W        W43640  13.567  25.546  13.423
72058W        W43641  25.484   9.044  14.559
72059W        W43642  26.657   9.973  10.417
72060W        W43643  11.366  34.875  14.051
72061W        W43644  37.366  29.734   1.616
72062W        W43645  31.605  24.717  12.020
72063W        W43646  31.915  33.374   5.334
72064W        W43647  42.248  42.471   0.284
72065W        W43648  33.214  16.706   3.309
72066W        W43649  12.785  44.527   2.826
72067W        W43650  17.802  22.487   1.879
72068W        W43651  33.541  20.677   1.798
72069W        W43652   0.903   7.357  14.312
72070W        W43653  28.890  25.062   0.454
72071W        W43654  22.607  40.581  13.447
72072W        W43655  10.222   5.803  13.462
72073W        W43656  17.182  32.620   0.699
72074W        W43657  17.066   6.309  10.746
72075W        W43658  22.249  10.081  13.932
72076W        W43659   1.751   4.673  14.181
72077W        W43660  19.144  38.826   1.214
72078W        W43661  38.871  38.596  10.688
72079W        W43662   2.197  44.176   2.847
72080W        W43663  40.857  34.895   0.334
72081W        W43664  11.109  39.646  11.683
72082W        W43665   1.224  20.976  12.293
72083W        W43666  40.867   6.837  12.586
72084W        W43667  29.886   7.962   3.603
72085W        W43668  21.234  32.413   1.416
72086W        W43669  42.840  11.225  13.028
72087W        W43670  19.248  23.962   0.584
72088W        W43671  23.652  18.102   1.328
72089W        W43672   8.969  39.311  10.822
72090W        W43673  30.023  18.981  14.041
72091W        W43674  43.829  22.779  12.840
72092W        W43675  11.811  36.093  12.999
72093W        W43676  22.118  30.665  10.697
72094W        W43677  25.297  28.831   2.206
72095W        W43678  19.207  44.783  13.345
72096W        W43679  10.831  36.548  11.636
72097W        W43680   2.242  33.518   3.176
72098W        W43681  37.120  41.237  14.842
72099W        W43682  31.853  32.494   5.086
72100W        W43683  32.423  27.220  12.252
72101W        W43684  33.647  32.556   4.716
72102W        W43685  24.858  29.967   2.763
72103W        W43686  27.524  35.209   0.389
72104W        W43687  41.725   0.671  12.505
72105W        W43688   3.418   4.657  13.581
72106W        W43689  24.628  32.373  12.355
72107W        W43690  19.920  15.132   4.947
72108W        W43691   6.130  36.521  12.291
72109W        W43692  36.053   9.266  12.483
72110W        W43693  14.032  22.676   1.186
72111W        W43694  15.558  29.352   3.272
72112W        W43695  21.106  15.164  14.004
72113W        W43696  17.442   3.245  11.514
72114W        W43697   3.488  43.051   4.184
72115W        W43698  15.189   4.822  10.677
72116W        W43699  41.302  39.367   1.236
72117W        W43700  22.080  16.008  13.260
72118W        W43701   5.327  19.500  11.744
72119W        W43702  26.646  19.202  12.422
72120W        W43703  40.427  23.625  14.679
72121W        W43704   3.270  20.519   2.608
72122W        W43705   1.992  20.356  10.969
72123W        W43706   8.040   1.791  10.285
72124W        W43707  31.690  23.624  13.073
72125W        W43708  14.904   5.439   2.842
72126W        W43709  37.120  12.061   4.239
72127W        W43710  11.567   1.393   0.454
72128W        W43711  32.583  41.283   4.194
72129W        W43712  21.036  18.016  10.362
72130W        W43713  10.120   3.749  11.530
72131W        W43714   2.770  10.199  13.636
72132W        W43715  15.888  24.018   0.350
72133W        W43716  43.010  22.559   3.582
72134W        W43717   9.883  19.704  10.659
72135W        W43718  34.070  29.669  14.111
72136W        W43719  14.120  10.344   4.636
72137W        W43720  16.219  37.770  11.714
72138W        W43721  21.141  39.977  14.722
72139W        W43722  20.628  34.285  14.327
72140W        W43723  21.799  20.565  14.866
72141W        W43724  22.008  44.354   4.851
72142W        W43725  42.906  27.920  13.158
72143W        W43726   9.766  29.698   0.789
72144W        W43727  16.375  14.302  14.842
72145W        W43728  29.119   1.498   4.669
72146W        W43729  14.622  34.546   0.743
72147W        W43730  27.004   4.417   3.147
72148W        W43731  31.894   9.335  12.749
72149W        W43732  38.023  19.942  11.460
72150W        W43733  18.158  33.195   3.138
72151W        W43734  39.366  44.940  12.492
72152W        W43735  31.359  14.532   0.765
72153W        W43736  24.918  17.506   0.218
72154W        W43737  19.065   7.709  10.740
72155W        W43738  30.026  34.888   4.874
72156W        W43739  10.656   2.491   1.833
72157W        W43740  31.095  35.788   1.662
72158W        W43741  17.619   1.327  14.007
72159W        W43742  26.270   8.778   4.186
72160W        W43743  10.562   7.955  13.958
72161W        W43744  24.436  17.435  14.937
72162W        W43745  42.055   3.608  13.958
72163W        W43746  36.507   2.846  14.524
72164W        W43747  19.867  43.365  10.557
72165W        W43748  40.475  23.233   2.928
72166W        W43749   3.534  15.764   3.447
72167W        W43750  15.030  17.259  11.152
72168W        W43751   2.328  22.417   4.734
72169W        W43752   5.870   0.542  14.515
72170W        W43753  31.154  18.031  12.982
72171W        W43754   0.451   0.540   3.282
72172W        W43755  19.980  41.915   4.254
72173W        W43756   5.594  24.719   0.291
72174W        W43757  36.337  24.421   3.178
72175W        W43758  35.048  21.026   3.238
72176W        W43759  11.232  34.467  13.026
72177W        W43760  23.001  43.882  14.364
72178W        W43761  23.098  29.950  11.175
72179W        W43762  30.937  38.059  12.140
72180W        W43763  44.879   1.029   0.946
72181W        W43764  33.137   3.405  13.918
72182W        W43765  11.595   9.271  12.914
72183W        W43766  39.432   5.223  13.038
72184W        W43767  21.160  42.933   4.746
72185W        W43768  31.553  21.836   1.988
72186W        W43769  25.127  36.867   3.721
72187W        W43770  13.186  30.439   3.603
72188W        W43771   7.414  25.177   3.710
72189W        W43772  10.670  37.563   0.713
72190W        W43773  34.378  39.261   3.791
72191W        W43774  10.872  16.799  14.440
72192W        W43775  39.745  26.619   1.311
72193W        W43776  22.777  37.497   1.734
72194W        W43777  19.634  36.445  14.111
72195W        W43778  41.798  42.774  13.548
72196W        W43779  28.558   5.132  12.067
72197W        W43780  33.941   0.490   2.809
72198W        W43781  37.854   1.301  12.911
72199W        W43782  31.317  42.996  12.420
72200W        W43783  11.841  13.841   1.881
72201W        W43784  40.878  10.631  14.466
72202W        W43785   6.912  21.374  13.516
72203W        W43786  39.978   8.942   2.683
72204W        W43787  14.238  31.346  13.018
72205W        W43788  23.498  12.932  13.061
72206W        W43789  38.848  38.799   2.802
72207W        W43790   6.752  14.612  12.816
72208W        W43791  24.337  10.020   3.245
72209W        W43792  23.458  21.634   3.005
72210W        W43793   5.633  21.010   0.765
72211W        W43794  36.653  41.945  14.862
72212W        W43795  40.490  10.831  10.651
72213W        W43796  34.524   6.167   2.285
72214W        W43797  42.320  25.820  12.972
72215W        W43798  40.567  28.387  11.544
72216W        W43799  23.646  30.006   3.883
72217W        W43800  32.077  43.187  12.862
72218W        W43801  28.275  25.960   4.125
72219W        W43802  44.377  43.726  14.809
72220W        W43803  34.554  14.077  10.665
72221W        W43804  40.267  10.853   0.872
72222W        W43805   0.665  14.722   2.086
72223W        W43806  29.627   6.405   2.719
72224W        W43807  16.840  18.330  11.567
72225W        W43808  24.720  40.344  13.522
72226W        W43809  41.249   8.620   4.175
72227W        W43810   1.332   8.656  12.040
72228W        W43811  34.383  36.771   1.831
72229W        W43812  10.099  40.480   0.979
72230W        W43813  32.988  34.298  13.840
72231W        W43814  11.253  17.780  14.239
72232W        W43815  27.840  28.450   4.260
72233W        W43816   8.429  28.916   0.526
72234W        W43817  30.571  15.799   0.071
72235W        W43818  38.327  28.092  10.676
72236W        W43819  34.803  22.123  11.517
72237W        W43820  22.597  37.950  11.904
72238W        W43821  40.946  20.275  12.301
72239W        W43822  20.424  19.526  11.457
72240W        W43823  22.104   6.765   5.396
72241W        W43824   4.767   2.928   4.159
72242W        W43825  30.964  39.339  10.791
72243W        W43826   2.312  11.180   2.434
72244W        W43827   2.232  35.478  14.300
72245W        W43828  16.225   1.717  12.625
72246W        W43829  41.890  28.972   1.969
72247W        W43830  37.498  33.233  12.314
72248W        W43831  30.888  11.872   4.074
72249W        W43832   2.971  29.070   0.903
72250W        W43833  17.413   1.981   4.872
72251W        W43834  14.755   1.508   2.853
72252W        W43835  41.037  43.331  10.683
72253W        W43836  42.607   0.959   4.829
72254W        W43837  10.997  42.494  11.546
72255W        W43838   2.873   1.638   4.285
72256W        W43839   7.704  28.722  14.876
72257W        W43840  33.262  21.163  12.434
72258W        W43841   9.801  18.579   3.119
72259W        W43842  43.391  33.587   0.356
72260W        W43843  41.402  28.873   4.652
72261W        W43844  30.406   7.949   1.910
72262W        W43845  34.545  31.066   1.743
72263W        W43846  39.945  41.545  13.973
72264W        W43847  26.614   7.953  14.766
72265W        W43848  11.612   8.395   1.641
72266W        W43849  33.007  10.834   0.843
72267W        W43850  11.151  38.754   3.167
72268W        W43851   1.321  14.195  13.571
72269W        W43852   1.422  43.856  13.361
72270W        W43853  10.567  28.695   3.590
72271W        W43854   5.295  36.572  13.701
72272W        W43855  23.030   5.215   2.176
72273W        W43856  30.080  36.881   0.997
72274W        W43857  41.250  28.597   1.119
72275W        W43858  39.911   2.627   0.212
72276W        W43859  34.617  18.923   3.884
72277W        W43860  40.758   7.557   3.087
72278W        W43861   9.481   6.910   4.100
72279W        W43862  27.957  43.777  11.586
72280W        W43863  15.109  12.257  10.750
72281W        W43864  37.950   6.927   4.512
72282W        W43865  32.895  41.776   3.254
72283W        W43866  41.682  26.039  13.461
72284W        W43867  23.658   6.478  13.585
72285W        W43868  37.515  44.290   4.071
72286W        W43869  16.644  10.284   3.802
72287W        W43870  27.911  40.564  11.558
72288W        W43871   3.548  44.942  14.361
72289W        W43872  37.932  27.657  11.544
72290W        W43873   1.976   4.558  12.511
72291W        W43874   1.997  22.079  11.207
72292W        W43875  25.465  12.844   3.130
72293W        W43876   8.731  20.691   0.282
72294W        W43877  27.817   1.736   1.234
72295W        W43878  40.771  30.413   4.728
72296W        W43879  18.241   0.177   1.989
72297W        W43880  31.861  26.063   0.896
72298W        W43881  16.242  26.489  10.982
72299W        W43882  40.949  13.405  14.036
72300W        W43883  25.515  27.421   3.715
72301W        W43884  28.700   9.234   1.488
72302W        W43885  40.097  41.393   3.774
72303W        W43886  40.886  31.247   3.704
72304W        W43887  11.111  35.501   2.750
72305W        W43888   9.290  11.634  12.153
72306W        W43889   8.274  20.367   3.209
72307W        W43890  28.609   5.067  13.759
72308W        W43891   9.492  32.315   0.001
72309W        W43892  12.880   5.133   3.498
72310W        W43893  42.716  31.614  14.819
72311W        W43894  28.728  25.771  11.556
72312W        W43895  13.045   6.374  11.562
72313W        W43896  35.967  42.880   2.810
72314W        W43897  38.906  42.324   2.889
72315W        W43898  11.721  44.729  13.915
72316W        W43899  43.169  29.263   3.447
72317W        W43900  17.421   6.079  13.053
72318W        W43901  33.482  38.817  10.921
72319W        W43902  25.700  24.553   2.848
72320W        W43903  32.136  21.271   4.559
72321W        W43904  26.147  39.323  11.153
72322W        W43905  42.576  30.013   1.675
72323W        W43906  40.499   6.102  10.629
72324W        W43907  35.637  29.782   4.881
72325W        W43908  33.882  21.056  10.728
72326W        W43909  20.384  33.771   1.939
72327W        W43910   9.849  15.335  14.956
72328W        W43911  44.957  23.236  11.448
72329W        W43912   8.680  12.926  10.701
72330W        W43913  19.173  31.446  12.537
72331W        W43914  21.777  42.517  12.464
72332W        W43915  40.171  22.768  12.567
72333W        W43916   3.186  23.539  13.563
72334W        W43917  41.426   5.480   4.689
72335W        W43918  14.537   0.877  10.708
72336W        W43919  23.206  15.661   2.728
72337W        W43920  22.968   8.764   0.748
72338W        W43921  10.227  35.497  11.049
72339W        W43922  32.379  17.240  11.007
72340W        W43923  18.605  28.431  14.535
72341W        W43924   8.866   8.308  11.543
72342W        W43925  33.469  12.198   2.807
72343W        W43926  20.073   9.518   2.682
72344W        W43927  10.182  26.020  13.005
72345W        W43928   6.441  14.064  12.058
72346W        W43929   8.854  34.370  11.650
72347W        W43930  27.014  26.906  10.658
72348W        W43931  32.875  20.404  11.630
72349W        W43932  19.390   9.130   5.010
72350W        W43933  34.585   0.542   0.464
72351W        W43934  28.564  32.347   1.908
72352W        W43935  18.520  37.342  13.524
72353W        W43936  18.380   5.462  13.402
72354W        W43937  27.403  40.544  11.459
72355W        W43938  10.351  41.309   1.329
72356W        W43939  42.455  44.889   3.323
72357W        W43940   4.104  44.488   3.814
72358W        W43941  24.489   2.533  14.003
72359W        W43942  40.565  29.428  13.358
72360W        W43943  10.702  34.533   0.335
72361W        W43944  21.412  36.285   2.763
72362W        W43945   6.154  40.944  11.417
72363W        W43946   1.054  24.151   3.168
72364W        W43947  24.227  22.329   4.113
72365W        W43948  23.483   0.383   0.803
72366W        W43949  20.122  16.513   4.481
72367W        W43950  20.514  16.511   3.782
72368W        W43951   7.852  24.690   3.929
72369W        W43952  36.709  36.462  12.480
72370W        W43953  10.693  33.005  11.762
72371W        W43954  42.695  17.451  12.659
72372W        W43955  29.699  22.946   1.401
72373W        W43956  14.340  21.494  11.168
72374W        W43957   7.534  36.540  12.702
72375W        W43958  25.254  22.525  11.175
72376W        W43959   4.192  36.282  10.696
72377W        W43960   9.155  14.190  14.956
72378W        W43961  26.035  23.493  10.675
72379W        W43962  43.337  44.497  12.801
72380W        W43963  12.974  40.672  13.839
72381W        W43964   6.901   3.860   2.749
72382W        W43965   2.490  40.370   2.336
72383W        W43966  42.794  27.209   4.426
72384W        W43967  32.019  40.077  14.399
72385W        W43968  26.436  29.135  13.290
72386W        W43969  29.956  30.539  13.446
72387W        W43970  36.087  21.580   1.834
72388W        W43971  37.809   5.659  13.316
72389W        W43972  22.525   0.753  12.118
72390W        W43973  29.927  29.322   2.235
72391W        W43974  10.639  12.887  11.477
72392W        W43975  41.383  34.432  14.123
72393W        W43976  16.601  34.071  10.162
72394W        W43977  20.756  11.463   2.177
72395W        W43978  35.764  30.888  14.535
72396W        W43979  14.614  19.009   3.415
72397W        W43980  19.664  24.229   0.386
72398W        W43981  23.690   3.450   1.314
72399W        W43982   6.387   5.163  13.986
72400W        W43983   8.924  21.254   0.211
72401W        W43984  32.840  23.162  14.878
72402W        W43985  19.721  17.232  12.579
72403W        W43986  37.395  36.448   1.153
72404W        W43987   8.992  35.507  13.279
72405W        W43988  11.341  31.953   4.536
72406W        W43989  24.653   1.812  11.635
72407W        W43990  13.512  24.828  11.581
72408W        W43991  28.476  40.950   3.394
72409W        W43992  40.801   0.996  12.521
72410W        W43993  37.297   6.089  10.310
72411W        W43994  17.836  22.893   2.218
72412W        W43995  36.834  20.751   4.286
72413W        W43996  34.577  33.030   3.381
72414W        W43997  10.659  37.913  14.269
72415W        W43998  18.219  40.004   3.880
72416W        W43999  38.035  21.027   4.870
72417W        W44000   8.889  34.398  12.161
72418W        W44001  43.572  30.027   3.214
72419W        W44002  29.191  23.059   1.329
72420W        W44003  38.412  27.179  14.797
72421W        W44004   3.285  13.649   4.403
72422W        W44005  26.996  34.137   1.862
72423W        W44006  37.491  21.446   2.326
72424W        W44007  24.022  29.466   2.777
72425W        W44008  40.545  33.876   1.255
72426W        W44009  14.047  18.412   0.846
72427W        W44010   9.220  30.684   1.297
72428W        W44011  33.171  22.937  11.837
72429W        W44012  33.544  42.512  12.363
72430W        W44013  30.911  23.373  11.241
72431W        W44014  27.157  32.968  13.317
72432W        W44015  33.482   9.735   1.792
72433W        W44016  41.544  15.971  13.423
72434W        W44017  22.885  17.532   9.752
72435W        W44018  37.557  25.918   2.769
72436W        W44019  33.639  44.271   4.052
72437W        W44020  40.593  37.555   2.779
72438W        W44021  15.220  12.271   1.794
72439W        W44022   5.270   9.830  14.088
72440W        W44023  43.869   8.743   3.269
72441W        W44024  18.783  40.439   1.993
72442W        W44025  14.951  32.684   2.182
72443W        W44026  33.598   1.143   1.171
72444W        W44027  17.134  24.743  14.799
72445W        W44028  39.026   6.930  13.419
72446W        W44029  33.607   7.863   1.413
72447W        W44030  41.512  42.503  14.831
72448W        W44031  29.574  26.122   4.562
72449W        W44032  35.396  34.953   1.682
72450W        W44033  22.630  33.453   1.119
72451W        W44034  14.791  29.083  13.175
72452W        W44035  30.742  39.467  14.363
72453W        W44036  39.754  27.096   2.957
72454W        W44037  24.733  32.409   2.187
72455W        W44038   0.698   3.458  11.995
72456W        W44039  19.835  34.445  10.561
72457W        W44040  25.911   2.231   2.514
72458W        W44041  17.629  22.296  12.025
72459W        W44042   0.089  42.555   4.704
72460W        W44043   5.432  23.664   2.391
72461W        W44044  27.652  17.485   4.302
72462W        W44045   6.366  40.589  13.524
72463W        W44046  36.371   1.260  13.899
72464W        W44047  22.050  16.549   1.293
72465W        W44048  41.472  13.809   2.857
72466W        W44049   0.046  28.417   0.362
72467W        W44050  31.088  20.206   2.828
72468W        W44051   8.593  39.833   0.329
72469W        W44052  27.710  43.868  14.469
72470W        W44053   4.333  21.632   2.845
72471W        W44054  25.762   9.164   3.757
72472W        W44055   5.600  40.336  12.374
72473W        W44056  13.765  20.101   4.280
72474W        W44057  39.490  42.423   1.050
72475W        W44058   5.232  39.141   1.443
72476W        W44059   3.149  12.453   1.341
72477W        W44060  26.163  11.697  12.922
72478W        W44061  11.570  28.499  14.809
72479W        W44062   4.798  17.700  10.202
72480W        W44063  14.356   3.082   2.301
72481W        W44064  21.191  38.293  12.431
72482W        W44065  20.500  21.172  11.117
72483W        W44066  22.706  31.066   3.691
72484W        W44067  30.783  24.423  13.003
72485W        W44068  26.615  44.798   1.907
72486W        W44069   0.570  11.881   0.409
72487W        W44070  38.032   0.870   1.860
72488W        W44071   3.659  10.614  11.075
72489W        W44072  13.079   7.699   2.867
72490W        W44073  25.305  14.352   2.290
72491W        W44074   8.457  13.092   1.724
72492W        W44075  33.664  27.629   0.839
72493W        W44076  24.043  40.469  10.690
72494W        W44077  40.531  19.334  14.806
72495W        W44078   7.314  31.886   2.881
72496W        W44079   5.128  25.644   2.797
72497W        W44080   3.800  22.703   3.457
72498W        W44081  19.477  43.899  14.304
72499W        W44082  23.639  30.876  13.958
72500W        W44083  27.250   1.725  11.054
72501W        W44084  43.375  27.887  12.439
72502W        W44085  44.562  25.138   4.949
72503W        W44086  22.182   9.942   1.102
72504W        W44087  32.275   7.648  11.471
72505W        W44088  24.681   2.678   1.339
72506W        W44089  26.712  13.296   4.605
72507W        W44090  21.749  11.241   3.485
72508W        W44091  44.056   2.725   0.822
72509W        W44092  16.062  28.592  13.393
72510W        W44093  33.272  19.685   5.192
72511W        W44094   0.834   9.887   0.471
72512W        W44095  41.513   1.981   0.369
72513W        W44096   9.158   1.342   2.959
72514W        W44097  19.475  35.597   3.733
72515W        W44098  34.768  28.999   1.675
72516W        W44099  40.821  17.666  11.492
72517W        W44100   3.878   6.710   0.088
72518W        W44101  23.651  29.985  11.033
72519W        W44102   3.133  10.703   3.692
72520W        W44103  31.651  33.118  13.563
72521W        W44104  37.056  43.745  13.755
72522W        W44105  10.777   2.890  10.612
72523W        W44106  29.098  26.208  10.718
72524W        W44107  35.853  40.126   0.416
72525W        W44108  29.359  34.584   1.962
72526W        W44109  26.128   8.121   4.631
72527W        W44110  20.819   8.836   4.744
72528W        W44111   3.866  40.171   2.689
72529W        W44112   7.921  17.312  13.380
72530W        W44113  13.353  11.759   3.198
72531W        W44114  29.888   6.738  11.567
72532W        W44115  30.903  17.574  12.957
72533W        W44116   9.488   5.814   1.748
72534W        W44117  18.050  26.243  12.374
72535W        W44118  18.001  19.068  11.424
72536W        W44119  28.171   6.337   4.466
72537W        W44120   9.750   7.425   3.269
72538W        W44121  36.877   6.378  12.340
72539W        W44122   7.635  25.701   1.426
72540W        W44123  39.705  12.098   0.935
72541W        W44124  23.211   9.172  10.903
72542W        W44125   1.983  27.227   3.895
72543W        W44126  31.933  44.416   2.247
72544W        W44127  23.067  18.585   3.788
72545W        W44128  34.970  34.533   3.153
72546W        W44129  20.784  28.441   3.304
72547W        W44130  13.048   2.833   4.759
72548W        W44131   5.816  32.393   0.729
72549W        W44132  43.669  32.106   4.203
72550W        W44133  13.902  25.449  12.471
72551W        W44134  11.604  39.470   2.712
72552W        W44135   6.116  22.164   0.654
72553W        W44136  13.608  37.603   1.793
72554W        W44137   3.660   4.635   0.435
72555W        W44138  25.720  10.419   0.310
72556W        W44139  37.839  40.870   2.491
72557W        W44140  42.760  19.633   4.607
72558W        W44141  18.544  38.069  14.487
72559W        W44142  17.775  21.227  14.427
72560W        W44143  22.987  35.658   3.385
72561W        W44144  24.991  25.070   4.714
72562W        W44145   9.108  44.516  14.444
72563W        W44146  24.127  40.425   2.121
72564W        W44147  43.974   3.785  11.576
72565W        W44148  30.097  26.651   2.919
72566W        W44149  40.853  35.068  12.964
72567W        W44150  26.032  42.717   5.123
72568W        W44151   0.992   2.799  12.466
72569W        W44152   1.172  24.764  12.350
72570W        W44153   7.924   5.777   0.811
72571W        W44154  17.593  29.563  11.522
72572W        W44155  23.248  19.671   3.265
72573W        W44156   0.957  12.832  13.394
72574W        W44157  11.217  30.995  12.415
72575W        W44158  13.472   0.312  11.218
72576W        W44159   2.741  23.762  13.544
72577W        W44160   3.289  28.397   1.192
72578W        W44161  24.032   6.926  12.873
72579W        W44162  33.550  32.585   0.047
72580W        W44163  28.158  30.665   0.377
72581W        W44164  17.944  26.451   3.745
72582W        W44165  39.513   8.272  12.572
72583W        W44166   4.720   8.617  13.964
72584W        W44167  20.166  42.766   4.086
72585W        W44168  20.979  10.167  13.061
72586W        W44169   8.544  22.698   4.394
72587W        W44170   8.822  11.937   4.163
72588W        W44171  41.593  25.289   1.245
72589W        W44172  15.035   7.721  10.702
72590W        W44173   8.178   2.325   1.556
72591W        W44174  18.693  32.886  12.451
72592W        W44175   5.800   9.151   3.579
72593W        W44176  18.161  37.927   3.041
72594W        W44177   9.305  30.515   2.184
72595W        W44178  13.404  32.033   3.268
72596W        W44179  11.845  37.949   1.437
72597W        W44180   2.499  42.388  13.428
72598W        W44181  36.570  12.255   3.184
72599W        W44182  10.874  10.637   3.347
72600W        W44183  35.022   1.963   4.857
72601W        W44184  40.817  40.953   4.618
72602W        W44185  31.557  30.412   1.447
72603W        W44186  24.563  26.591  13.040
72604W        W44187   4.923  16.804  10.374
72605W        W44188  27.750  13.214   3.084
72606W        W44189   6.367  44.800  10.684
72607W        W44190  38.049  42.917   4.607
72608W        W44191   2.451  35.931  13.531
72609W        W44192  27.552  30.943   1.316
72610W        W44193   7.669  14.307   5.127
72611W        W44194  14.432  38.044  12.526
72612W        W44195  22.989  40.427  10.540
72613W        W44196   9.815  15.229   0.524
72614W        W44197  15.076  19.339   2.158
72615W        W44198   4.041  33.505   1.594
72616W        W44199  36.155   1.141  11.159
72617W        W44200  17.020  30.712  11.442
72618W        W44201  25.695  17.794  11.567
72619W        W44202   3.500  33.853  11.683
72620W        W44203  15.513  25.165  10.040
72621W        W44204  15.573  13.950   5.045
72622W        W44205  32.698  28.056  12.214
72623W        W44206  41.078  15.347   3.842
72624W        W44207   9.913  17.002   0.444
72625W        W44208  23.594  14.537   0.875
72626W        W44209  29.101  43.829   0.239
72627W        W44210  31.091   0.947   2.679
72628W        W44211  28.150  30.354   2.177
72629W        W44212   8.200   0.090  10.360
72630W        W44213  14.504  42.671   5.053
72631W        W44214  38.117  36.984  13.041
72632W        W44215  37.779  38.430   4.745
72633W        W44216   6.757  22.921   1.233
72634W        W44217  43.604  17.269   0.775
72635W        W44218  25.940   3.020   0.395
72636W        W44219  33.430   7.890   2.920
72637W        W44220  43.905   9.377   3.140
72638W        W44221  22.992   5.197   3.629
72639W        W44222  20.564  43.059   1.388
72640W        W44223  11.941   2.928  13.214
72641W        W44224  26.065   9.817  10.671
72642W        W44225  15.507  22.683   2.148
72643W        W44226  35.515  44.735  10.996
72644W        W44227  21.232  14.148  14.920
72645W        W44228  25.092  12.346  11.509
72646W        W44229  18.765   5.915   4.073
72647W        W44230  20.083  29.300   0.331
72648W        W44231  32.996  12.341  10.594
72649W        W44232   4.395  16.839  12.031
72650W        W44233  34.988  37.335   0.625
72651W        W44234  30.440  10.256  11.961
72652W        W44235  24.186  29.678  12.064
72653W        W44236   8.723  10.252  14.271
72654W        W44237  19.078   2.697  11.162
72655W        W44238   0.143  25.875   2.713
72656W        W44239  32.193  19.615  11.301
72657W        W44240   4.826  15.131  10.735
72658W        W44241   7.334  29.509  13.430
72659W        W44242  43.506  26.422  12.718
72660W        W44243  37.878  19.617   2.325
72661W        W44244   7.612  28.460  13.402
72662W        W44245  21.943  42.127   1.620
72663W        W44246  34.531  19.609   1.092
72664W        W44247  23.549  42.257   0.812
72665W        W44248   7.264  38.448   1.829
72666W        W44249  36.482  43.269   4.484
72667W        W44250  24.952  43.994   1.743
72668W        W44251   7.559  29.303   0.173
72669W        W44252  12.260  38.230   1.257
72670W        W44253  17.253  26.232  11.597
72671W        W44254   7.161   8.374  10.758
72672W        W44255   6.431  40.995   4.030
72673W        W44256  31.430  33.612  12.527
72674W        W44257  20.688  42.457  11.908
72675W        W44258  23.575   2.903  10.751
72676W        W44259  26.181  13.722  12.522
72677W        W44260   6.669  42.482  11.053
72678W        W44261  42.583  10.625   0.446
72679W        W44262  12.923  44.247   1.973
72680W        W44263  35.170  17.880   0.886
72681W        W44264  12.229   1.750  13.977
72682W        W44265   4.985  30.012  13.973
72683W        W44266   7.064  26.713  12.565
72684W        W44267  43.548  43.959   3.154
72685W        W44268  31.773  13.667   4.629
72686W        W44269  41.264  33.322  11.162
72687W        W44270  24.401  30.556  10.678
72688W        W44271  19.799  11.102   4.239
72689ION    NA+44272  37.768  43.771   3.282
72690ION    NA+44273  41.269  40.035  12.926
72691ION    NA+44274   2.327  21.752   2.216
72692ION    NA+44275  29.946  41.302  13.614
72693ION    NA+44276   1.456  21.459   1.793
72694ION    NA+44277  24.985  31.342   0.787
72695ION    NA+44278  34.673   1.674  12.988
72696ION    NA+44279  40.945   8.605   3.761
72697ION    NA+44280   9.648  14.044  11.088
72698ION    NA+44281  37.105   4.470  11.631
72699ION    NA+44282  10.962  14.226  10.885
72700ION    NA+44283  29.405   3.357  14.823
72701ION    NA+44284  18.731  35.199  13.720
72702ION    NA+44285   4.512  17.643   5.206
72703ION    NA+44286  32.531  37.265  10.704
72704ION    NA+44287  41.611  10.984   0.530
72705ION    NA+44288  44.019  36.214   4.627
72706ION    NA+44289  27.756  28.109   2.031
72707ION    NA+44290  33.511  10.659   3.797
72708ION    NA+44291  11.829   8.853   2.490
72709ION    NA+44292   1.774  35.855   5.377
72710ION    NA+44293  43.291  17.682   0.808
72711ION    NA+44294  26.660   7.201   2.998
72712ION    NA+44295  25.006  19.917  10.331
72713ION    NA+44296  12.161  26.737  14.770
72714ION    NA+44297  18.756  33.192  13.418
72715ION    NA+44298  41.085   4.239   4.040
72716ION    NA+44299   8.378  43.509  11.164
72717ION    NA+44300  37.706   5.518   3.868
72718ION    NA+44301  39.799  39.387   0.688
72719ION    NA+44302  33.760  13.643  11.911
72720ION    NA+44303  10.945  43.231   1.437
72721ION    NA+44304  15.096  33.027  12.164
72722ION    NA+44305  16.234  15.310   0.909
72723ION    NA+44306  32.897  40.320  11.140
72724ION    NA+44307  40.318  17.758   1.272
72725ION    NA+44308  19.733  16.341  11.134
72726ION    NA+44309  35.644  25.101   0.452
72727ION    NA+44310  33.883  41.485  13.573
72728ION    NA+44311  19.012  37.397   3.765
72729ION    NA+44312  15.011  24.575   2.771
72730ION    NA+44313   6.141  35.954  10.686
72731ION    NA+44314  31.620  37.756  10.797
72732ION    NA+44315  36.572  36.975   2.624
72733ION    NA+44316  40.246  14.679   4.370
72734ION    NA+44317   8.063  38.333   2.350
72735ION    NA+44318  27.317   2.299  14.112
72736ION    NA+44319  36.487  14.369   3.267
72737ION    NA+44320  35.091   0.071  13.039
72738ION    NA+44321  44.689  32.993  13.180
72739ION    NA+44322  11.470  42.983   2.790
72740ION    NA+44323  20.644  29.582   2.952
72741ION    NA+44324  41.928  26.668   5.068
72742ION    NA+44325  24.043   3.410  14.985
72743ION    NA+44326  19.593   1.235   3.123
72744ION    NA+44327  29.970   7.754  14.724
72745ION    NA+44328  20.944  24.076  13.815
72746ION    NA+44329  33.013  19.261   3.013
72747ION    NA+44330   8.858  29.536   2.404
72748ION    NA+44331  15.676  41.908   3.548
72749ION    NA+44332   8.384  14.201   1.334
72750ION    NA+44333  10.850  13.775  12.418
72751ION    NA+44334  42.564  38.098  14.431
72752ION    NA+44335  14.109  22.157   2.697
72753ION    NA+44336  32.557   4.422  12.863
72754ION    NA+44337  17.677  42.159  12.998
72755ION    NA+44338   8.069  34.617  12.676
72756ION    NA+44339  43.099  16.750   3.753
72757ION    NA+44340  24.529  30.540   4.548
72758ION    NA+44341  28.763  32.046  13.465
72759ION    NA+44342  24.529  40.919   1.435
72760ION    NA+44343  21.708  16.404   3.819
72761ION    NA+44344  16.094  16.006  11.790
72762ION    NA+44345  40.350  30.929   1.767
72763ION    NA+44346  15.199  41.584  12.548
72764ION    NA+44347  34.294  31.005  14.253
72765ION    NA+44348  17.777   7.900   1.794
72766ION    NA+44349  28.385  37.904   3.276
72767ION    NA+44350  18.516  32.446   4.300
72768ION    NA+44351  18.888  29.506  10.147
72769ION    NA+44352  17.749  23.954  11.148
72770ION    NA+44353  30.064  41.059  10.661
72771ION    NA+44354   2.086  41.610   2.223
72772ION    NA+44355  20.945  32.293  10.745
72773ION    NA+44356  24.333   7.312  12.143
72774ION    NA+44357  42.887  26.690  10.895
72775ION    NA+44358  19.976  42.067  12.647
72776ION    NA+44359  41.994  24.220  14.906
72777ION    NA+44360  21.956  19.119  14.016
72778ION    NA+44361   5.460  14.882   1.365
72779ION    NA+44362  40.174   0.503  10.082
72780ION    NA+44363  10.714  35.982  11.822
72781ION    NA+44364  35.950  26.108  13.563
72782ION    NA+44365  36.093   8.114  13.563
72783ION    NA+44366  34.076  38.784   0.553
72784ION    NA+44367  36.025  16.488  13.553
72785ION    NA+44368  34.562  16.828  10.616
72786ION    NA+44369   4.567  33.839  11.031
72787ION    NA+44370  20.028  27.480   3.863
72788ION    NA+44371   3.989  19.692  12.494
72789ION    NA+44372  33.669  11.545  12.418
72790ION    NA+44373  22.757   5.025  11.749
72791ION    NA+44374  19.806   5.648   3.959
72792ION    NA+44375   8.542  42.048  14.884
72793ION    NA+44376  25.646  43.437   4.063
72794ION    NA+44377  39.465  14.428   4.184
72795ION    NA+44378  35.435  21.059   2.347
72796ION    NA+44379  15.105  38.628   2.877
72797ION    NA+44380  35.842   8.819   4.467
72798ION    NA+44381  40.090  18.790  13.916
72799ION    NA+44382  19.543   4.222  12.090
72800ION    NA+44383  37.013  19.753   3.744
72801ION    NA+44384  38.850  21.842  14.194
72802ION    NA+44385   3.906   5.115  14.537
72803ION    NA+44386  35.529  21.537  10.781
72804ION    NA+44387  15.186  25.301  12.437
72805ION    NA+44388  15.228  22.042  10.961
72806ION    NA+44389  11.595  23.783   3.424
72807ION    NA+44390  16.625  25.119   4.984
72808ION    NA+44391  11.132   7.439  10.650
72809ION    NA+44392   8.946  10.843  11.092
72810ION    NA+44393  24.367  31.366   1.459
72811ION    NA+44394   4.975  38.417   0.027
72812ION    NA+44395  42.152  37.450  12.889
72813ION    NA+44396  33.338  23.631   3.405
72814ION    NA+44397  19.786  41.814   0.705
72815ION    NA+44398  44.521  40.467   1.245
72816ION    NA+44399  21.923   0.263  14.786
72817ION    NA+44400  29.043  25.959  11.171
72818ION    NA+44401  37.390  38.782   1.862
72819ION    NA+44402   7.747  25.442  12.572
72820ION    NA+44403   8.481  37.347  13.282
72821ION    NA+44404  11.755  25.152   4.087
72822ION    NA+44405  16.380  10.719   3.661
72823ION    NA+44406  29.591   6.559   0.770
72824ION    NA+44407  28.338  11.598   0.436
72825ION    NA+44408  17.855  24.826  12.900
72826ION    NA+44409  39.252  40.438   3.354
72827ION    NA+44410  26.255   2.037  10.917
72828ION    NA+44411  27.299  23.952  13.133
72829ION    NA+44412  11.245  31.846  13.306
72830ION    NA+44413   3.281   3.157   9.786
72831ION    NA+44414  17.899  14.937  13.448
72832ION    NA+44415   2.887  35.551  12.361
72833ION    NA+44416  24.807   5.035   3.239
72834ION    NA+44417  21.971   9.093  12.341
72835ION    NA+44418  32.312  15.156  13.705
72836ION    NA+44419   0.119   5.210   1.859
72837ION    NA+44420  17.961  25.319   2.246
72838ION    NA+44421  15.469  23.501  10.640
72839ION    NA+44422  23.233   8.737   3.291
72840ION    NA+44423  44.412  13.245  13.651
72841ION    NA+44424  19.657  43.382  13.983
72842ION    NA+44425  31.671  16.842   0.709
72843ION    NA+44426  19.186   8.186   3.095
72844ION    NA+44427  35.587   1.502  11.118
72845ION    NA+44428   9.778  32.155  10.689
72846ION    NA+44429  15.709   1.058   3.265
72847ION    NA+44430  21.346  34.331  11.580
72848ION    NA+44431  28.088  16.250   3.920
72849ION    NA+44432  30.039  42.873  13.456
72850ION    NA+44433  38.139  40.029   1.403
72851ION    NA+44434   1.092   3.953  11.088
72852ION    NA+44435   6.918   0.605  12.098
72853ION    NA+44436   5.704  32.013  13.424
72854ION    NA+44437  28.444  26.504   4.021
72855ION    NA+44438   5.008   6.841  11.175
72856ION    NA+44439  18.100  42.867   2.814
72857ION    NA+44440  39.943   0.401   0.081
72858ION    NA+44441   2.987  39.282  13.907
72859ION    NA+44442  37.524  33.852   0.737
72860ION    NA+44443  26.494  25.521   0.015
72861ION    NA+44444  12.590  24.927  10.712
72862ION    NA+44445  21.281  26.028   1.923
72863ION    NA+44446  11.351  19.547  14.736
72864ION    NA+44447  17.803   9.516  10.743
72865ION    NA+44448   6.868  13.872   4.156
72866ION    NA+44449  28.623  15.927  13.559
72867ION    NA+44450   9.643  10.810   0.549
72868ION    NA+44451   7.511  43.911  13.614
72869ION    NA+44452  15.634  16.608   4.281
72870ION    NA+44453  44.192  35.954   0.224
72871ION    NA+44454  23.034  35.573  12.769
72872ION    NA+44455  29.615  34.536  11.642
72873ION    NA+44456   8.911  22.330   3.783
72874ION    NA+44457   2.838  15.523   0.536
72875ION    NA+44458  40.067  26.267   2.269
72876ION    NA+44459  10.299  35.767   3.298
72877ION    NA+44460   7.998  28.988  13.324
72878ION    NA+44461  30.970  41.165   4.526
72879ION    NA+44462  38.434  37.629   3.123
72880ION    NA+44463  33.183  33.512   1.815
72881ION    NA+44464  33.863  29.840  10.278
72882ION    NA+44465  35.224  37.702  13.537
72883ION    NA+44466   4.759   7.231   4.374
72884ION    NA+44467   7.726  38.907  13.965
72885ION    NA+44468  31.151   9.584  11.578
72886ION    NA+44469  43.999   9.704  14.979
72887ION    NA+44470  33.739  28.722   1.336
72888ION    NA+44471  36.056  34.605  10.600
72889ION    NA+44472   3.036  40.886   1.107
72890ION    NA+44473   9.285  24.469   4.822
72891ION    NA+44474  14.204  40.361   0.263
72892ION    NA+44475  19.468   6.024  10.342
72893ION    NA+44476  32.201  12.448   4.707
72894ION    NA+44477  35.924  44.529   0.507
72895ION    NA+44478  44.431  35.557  11.789
72896ION    NA+44479   7.457  34.047  11.623
72897ION    NA+44480   0.244  16.320   2.022
72898ION    NA+44481  18.953  29.082  12.582
72899ION    NA+44482  34.491  11.870  14.835
72900ION    NA+44483  22.283   4.620  14.995
72901ION    NA+44484  33.463  43.795   0.290
72902ION    NA+44485   7.589  26.718  14.660
72903ION    NA+44486  40.938   8.630   1.990
72904ION    NA+44487   7.713  27.230  13.951
72905ION    NA+44488  21.333  10.560   9.916
72906ION    NA+44489  20.145  19.181   2.673
72907ION    NA+44490  34.387   2.737  11.459
72908ION    NA+44491  30.645  15.797  10.664
72909ION    NA+44492  41.400   1.000  13.415
72910ION    NA+44493  40.005  27.132  10.367
72911ION    NA+44494  33.408   7.116  10.936
72912ION    NA+44495  21.713  37.928  10.244
72913ION    NA+44496  19.370  25.514  10.714
72914ION    NA+44497   4.910  36.363   1.759
72915ION    NA+44498   4.707  29.307   0.912
72916ION    NA+44499  41.462  29.908   1.750
72917ION    NA+44500  33.006  14.327  10.729
72918ION    NA+44501   0.761   2.017  12.066
72919ION    NA+44502  39.416  35.397   1.671
72920ION    NA+44503  35.808   7.826   2.690
72921ION    NA+44504  32.092  13.292  11.054
72922ION    NA+44505  22.611   1.296   0.255
72923ION    NA+44506   8.219  44.809  12.998
72924ION    NA+44507  17.829   2.556  13.331
72925ION    NA+44508   0.136  32.095  11.011
72926ION    NA+44509  31.230   9.381   1.637
72927ION    NA+44510  39.859  16.155  13.323
72928ION    NA+44511  10.204  19.716   5.049
72929ION    NA+44512  28.613  32.618   2.355
72930ION    NA+44513  11.513  10.028   2.140
72931ION    NA+44514  15.450  25.665  13.828
72932ION    NA+44515  27.041  20.274   3.492
72933ION    NA+44516   8.908  44.457  13.459
72934ION    NA+44517  22.480   1.390   1.264
72935ION    NA+44518  16.905   6.920   3.210
72936ION    NA+44519  37.893  15.764   0.066
72937ION    NA+44520  44.932  19.260   1.281
72938ION    NA+44521  34.102  31.436  12.554
72939ION    NA+44522  15.912  14.264   3.402
72940ION    NA+44523   5.130  16.008  10.295
72941ION    NA+44524  30.835  20.705  12.322
72942ION    NA+44525   5.696  19.692  11.448
72943ION    NA+44526  21.210   0.938  14.277
72944ION    NA+44527  10.147  38.176   1.836
72945ION    NA+44528   0.535   2.541  10.857
72946ION    NA+44529   0.660  13.421   2.053
72947ION    NA+44530  36.409  15.035   0.941
72948ION    NA+44531  20.202  30.436  12.354
72949ION    NA+44532  31.479  33.084   1.101
72950ION    NA+44533  40.208  14.105  12.555
72951ION    NA+44534  29.033  34.849  14.458
72952ION    NA+44535  34.502  35.596  14.723
72953ION    NA+44536  28.221   5.259  14.040
72954ION    NA+44537  21.261  34.130  14.973
72955ION    NA+44538  23.084   0.368   4.601
72956ION    NA+44539   4.941  26.005   3.566
72957ION    NA+44540  25.363   6.880  12.936
72958ION    NA+44541  21.298  13.247  12.566
72959ION    NA+44542   4.316  40.768  11.978
72960ION    NA+44543  38.751  22.599   0.490
72961ION    NA+44544  40.833  32.161   3.334
72962ION    NA+44545   2.051  12.791   2.784
72963ION    NA+44546  25.079   4.917  13.782
72964ION    NA+44547  13.956  29.616   2.124
72965ION    NA+44548  44.919   7.288  13.500
72966ION    NA+44549  40.727  37.759   1.359
72967ION    NA+44550  31.370  35.414  11.612
72968ION    NA+44551  23.317  33.920   2.740
72969ION    NA+44552  35.189  13.899  12.032
72970ION    NA+44553  39.620  22.932   0.857
72971ION    NA+44554  12.676  25.958  14.347
72972ION    NA+44555  40.393  32.592  10.735
72973ION    NA+44556  12.295  13.544   0.629
72974ION    NA+44557  43.289  40.827  13.621
72975ION    NA+44558  19.824  17.992  11.589
72976ION    NA+44559  33.078  41.105  10.547
72977ION    NA+44560  18.329  29.216  11.393
72978ION    NA+44561  23.523  28.956  11.872
72979ION    NA+44562  34.468  37.832  12.828
72980ION    NA+44563  17.541   8.699   0.912
72981ION    NA+44564  16.374  42.481   0.454
72982ION    NA+44565  12.006  44.688   3.087
72983ION    NA+44566  26.952  31.903   4.610
72984ION    NA+44567  43.770  14.285  12.576
72985ION    NA+44568  12.741  19.683   3.631
72986ION    NA+44569  17.886   2.230   2.689
72987ION    NA+44570  31.168   8.182  12.643
72988ION    NA+44571  42.698   6.450   0.440
72989ION    NA+44572  20.843   4.244   1.570
72990ION    NA+44573  29.938   8.354  10.746
72991ION    NA+44574  31.853   4.126  14.584
72992ION    NA+44575  24.184  30.117  12.421
72993ION    NA+44576   4.129  29.381   1.795
72994ION    NA+44577  30.534  18.523  12.065
72995ION    NA+44578   5.710  24.165   5.079
72996ION    NA+44579  11.891  32.660  12.295
72997ION    NA+44580  18.995  35.842   4.604
72998ION    NA+44581  28.176  33.104  11.194
72999ION    NA+44582  28.859  10.492   0.257
73000ION    NA+44583   2.389   1.352   1.064
73001ION    NA+44584  23.883  20.407   4.166
73002ION    NA+44585  18.054  37.915  11.708
73003ION    NA+44586  23.684   7.679   0.238
73004ION    NA+44587  41.478  13.568   3.310
73005ION    NA+44588  12.092  40.822  10.298
73006ION    NA+44589   7.773  27.003   2.385
73007ION    NA+44590  13.591  27.095   0.512
73008ION    NA+44591   5.634  29.537  11.475
73009ION    NA+44592  37.792   0.215  10.968
73010ION    NA+44593  22.178   7.309   5.398
73011ION    NA+44594  12.785  34.066  12.448
73012ION    NA+44595  13.461   4.465   3.501
73013ION    NA+44596  19.067  39.382  12.533
73014ION    NA+44597  40.224   3.697   4.640
73015ION    NA+44598  22.938  25.341  10.811
73016ION    NA+44599  37.567  25.627   2.328
73017ION    NA+44600  14.269   3.000  11.549
73018ION    NA+44601   2.721   8.072  10.376
73019ION    NA+44602  16.216  17.842   2.893
73020ION    NA+44603  18.497  19.043  11.489
73021ION    NA+44604  11.908  39.004  13.968
73022ION    NA+44605  14.553  30.206  10.721
73023ION    NA+44606  41.491   7.740   1.511
73024ION    NA+44607  31.163   3.839   0.730
73025ION    NA+44608  24.026  25.386  13.047
73026ION    NA+44609  19.257  20.814  11.746
73027ION    NA+44610  39.891   8.587  13.664
73028ION    NA+44611  10.125   2.822   2.231
73029ION    NA+44612  43.569  24.685  12.602
73030ION    NA+44613  37.288  27.696  10.979
73031ION    NA+44614  37.211   3.154  12.707
73032ION    NA+44615  22.496  22.619   4.060
73033ION    NA+44616  29.496  27.110   3.739
73034ION    NA+44617  38.435  38.381   5.174
73035ION    NA+44618  39.404  33.372  13.757
73036ION    NA+44619  20.229  41.628   2.625
73037ION    NA+44620  17.996  15.918   9.993
73038ION    NA+44621   0.492   9.600  13.119
73039ION    NA+44622  11.492  37.714   1.740
73040ION    NA+44623  32.825  32.612   2.227
73041ION    NA+44624  29.412   0.545  12.508
73042ION    NA+44625  39.477  33.646  10.730
73043ION    NA+44626  42.052  23.909  10.691
73044ION    NA+44627   6.126  17.966   2.224
73045ION    NA+44628  11.550   7.987   4.348
73046ION    NA+44629  13.131  41.961  11.067
73047ION    NA+44630  44.834  39.693  12.764
73048ION    NA+44631  29.697  19.092  14.498
73049ION    NA+44632  11.646   9.603  11.574
73050ION    NA+44633   6.207   1.797  11.257
73051ION    NA+44634  16.428  25.834  10.376
73052ION    NA+44635   5.695  35.173   2.152
73053ION    NA+44636  37.199  28.531   4.727
73054ION    NA+44637   8.995   7.430  13.481
73055ION    NA+44638  13.019   4.551  11.488
73056ION    NA+44639  35.276  11.056   3.027
73057ION    NA+44640   3.734  27.900  14.415
73058ION    NA+44641  42.779   7.342   0.536
73059ION    NA+44642  28.854  13.319  10.652
73060ION    NA+44643  15.918   3.192   4.853
73061ION    NA+44644  21.392   0.689   0.924
73062ION    NA+44645  39.284   2.916   2.005
73063ION    NA+44646  25.933  20.734  12.744
73064ION    NA+44647  25.482  25.266  11.597
73065ION    NA+44648  12.286  10.845   0.691
73066ION    NA+44649  16.230  31.737  12.546
73067ION    NA+44650  29.319  27.781  14.440
73068ION    NA+44651   3.445  16.366   1.723
73069ION    NA+44652   8.087  17.266  10.800
73070ION    NA+44653   2.609  40.484   3.920
73071ION    NA+44654  22.995   0.958   3.799
73072ION    NA+44655  25.601  31.342  12.326
73073ION    NA+44656  30.714  18.732   2.227
73074ION    NA+44657  13.939   6.635  12.036
73075ION    NA+44658  24.303  36.795  14.156
73076ION    NA+44659  18.597  43.887   1.667
73077ION    NA+44660   1.961   2.400   1.297
73078ION    NA+44661  12.562   2.661   4.341
73079ION    NA+44662  37.404  10.536   1.841
73080ION    NA+44663  23.280  36.007   0.521
73081ION    NA+44664  10.137   1.823  11.704
73082ION    NA+44665  38.745  21.150   4.173
73083ION    NA+44666  28.057  20.875  11.637
73084ION    NA+44667  28.220  25.025   2.310
73085ION    NA+44668  40.860  14.191  11.801
73086ION    NA+44669  24.337  23.715   3.709
73087ION    NA+44670   4.548   2.977  13.677
73088ION    NA+44671   6.518  12.249   1.022
73089ION    NA+44672   9.664  30.113   1.099
73090ION    NA+44673  23.256   8.709  11.115
73091ION    NA+44674  41.088  39.460   3.266
73092ION    NA+44675  23.108  43.004   0.756
73093ION    NA+44676  25.610  39.932  14.022
73094ION    NA+44677  13.904  15.667  12.120
73095ION    NA+44678  33.567  24.092  14.020
73096ION    NA+44679   5.415  26.879  13.338
73097ION    NA+44680  36.865  36.644   0.556
73098ION    NA+44681  26.510  16.682   4.476
73099ION    NA+44682  18.882  44.370  14.225
73100ION    NA+44683  40.044  33.790   1.102
73101ION    NA+44684  20.690  33.511   0.512
73102ION    NA+44685  29.737  22.397  13.271
73103ION    NA+44686  13.418  32.762  12.700
73104ION    NA+44687  15.360  39.539   4.548
73105ION    NA+44688  31.361  43.819   0.939
73106ION    NA+44689   4.860   5.795  10.514
73107ION    NA+44690  44.880   7.493   2.395
73108ION    NA+44691  42.761   4.733   4.346
73109ION    NA+44692  14.418   1.807  14.458
73110ION    NA+44693   3.649  13.921   4.144
73111ION    NA+44694  37.090  35.295  11.353
73112ION    NA+44695   5.363  24.982  14.896
73113ION    NA+44696   3.705  39.641   4.360
73114ION    NA+44697   0.861  35.924   0.087
73115ION    NA+44698  39.904   9.242   3.115
73116ION    NA+44699  17.519   1.399  11.323
73117ION    NA+44700  38.635  19.487   0.937
73118ION    NA+44701   5.405  33.848   2.961
73119ION    NA+44702   7.755  37.042  13.966
73120ION    NA+44703  30.890   0.817  14.369
73121ION    NA+44704  12.759  40.714   1.591
73122ION    NA+44705  28.788  30.649  10.156
73123ION    NA+44706   2.262  36.549  11.931
73124ION    NA+44707  31.399  41.967   0.186
73125ION    NA+44708   2.353  38.706  13.356
73126ION    NA+44709   5.376  43.391   0.419
73127ION    NA+44710  40.211   6.232   3.069
73128ION    NA+44711  26.597  12.900  10.802
73129ION    NA+44712  17.802  34.621  14.299
73130ION    NA+44713   8.888   8.287  12.479
73131ION    NA+44714  17.867  15.374   3.299
73132ION    NA+44715  24.756  35.338  14.931
73133ION    NA+44716   6.814  23.861   1.379
73134ION    NA+44717   4.447  24.813  14.088
73135ION    NA+44718   9.575   7.880   2.321
73136ION    NA+44719  19.459  26.207   0.802
73137ION    NA+44720  31.542  25.605   3.337
73138ION    NA+44721  43.516   7.068  13.680
73139ION    NA+44722  35.541  25.154  14.459
73140ION    NA+44723  19.558  15.495   4.894
73141ION    NA+44724   3.524  34.967   4.171
73142ION    NA+44725   1.651  15.086  12.084
73143ION    NA+44726  27.912  35.269   3.007
73144ION    NA+44727  24.189  29.581   1.330
73145ION    NA+44728  17.452   1.627  13.593
73146ION    NA+44729  19.235  11.401   0.927
73147ION    NA+44730   0.977  12.653   3.135
73148ION    NA+44731  30.803  13.265   4.069
73149ION    NA+44732   6.457  32.486   0.072
73150ION    NA+44733  35.948  17.600   0.365
73151ION    NA+44734  16.542   5.505   3.676
73152ION    NA+44735  42.970  31.515   4.685
73153ION    NA+44736  28.511  35.367   1.234
73154ION    NA+44737  15.621  41.489   2.030
73155ION    NA+44738  39.880   4.765  10.880
73156ION    NA+44739  20.935  14.166  13.588
73157ION    NA+44740  38.571  42.193   0.734
73158ION    NA+44741  36.028  11.313  13.459
73159ION    NA+44742  12.686  35.927  12.387
73160ION    NA+44743  41.708  20.916  12.836
73161ION    NA+44744  15.162  34.696  10.358
73162ION    NA+44745   4.541  25.198   0.601
73163ION    NA+44746  44.068   0.498  14.842
73164ION    NA+44747   9.526   8.713   1.010
73165ION    NA+44748   7.714   6.217  13.358
73166ION    NA+44749   6.904  20.012  12.195
73167ION    NA+44750  30.871  36.985  10.750
73168ION    NA+44751  32.039   7.697  10.727
73169ION    NA+44752  10.351  29.566   5.109
73170ION    NA+44753  43.793  25.551  13.963
73171ION    NA+44754   1.871  37.423   3.768
73172ION    NA+44755   8.954  38.097  12.819
73173ION    NA+44756  28.062   8.780   3.330
73174ION    NA+44757  19.731   7.226  13.569
73175ION    NA+44758  30.130   1.255   4.164
73176ION    NA+44759  25.051   6.966   2.795
73177ION    NA+44760  35.019  24.471   0.914
73178ION    NA+44761  15.572   5.985  12.826
73179ION    NA+44762  43.420   3.732  14.634
73180ION    NA+44763   0.336  31.360  10.363
73181ION    NA+44764  39.782   3.619   2.276
73182ION    NA+44765  24.939  13.665  14.840
73183ION    NA+44766  21.118  28.036   5.014
73184ION    NA+44767  23.682   6.450   3.661
73185ION    NA+44768  10.912   1.484   2.715
73186ION    NA+44769  41.041  20.654   0.851
73187ION    NA+44770  36.617  34.678  13.819
73188ION    NA+44771  38.558   0.907   1.886
73189ION    NA+44772  37.945  22.467   3.674
73190ION    NA+44773  11.381  12.309   4.454
73191ION    NA+44774   6.595   4.703   3.702
73192ION    NA+44775  20.312  14.309   0.480
73193ION    NA+44776   6.309  35.471   4.392
73194ION    NA+44777   8.580  29.647   1.450
73195ION    NA+44778   2.039  20.741   2.427
73196ION    NA+44779  26.644  25.171  13.521
73197ION    NA+44780  25.037  38.158  14.704
73198ION    NA+44781   4.970  18.096   9.903
73199ION    NA+44782  23.259  33.644   3.808
73200ION    NA+44783  10.083  10.404  13.764
73201ION    NA+44784   1.912   5.079  12.635
73202ION    NA+44785  18.788  30.669  14.875
73203ION    NA+44786  24.829  28.940   2.405
73204ION    NA+44787  41.768   9.668   2.813
73205ION    NA+44788  44.473  26.358  13.064
73206ION    NA+44789   8.367  31.378  13.951
73207ION    NA+44790  41.456  42.836  12.112
73208ION    NA+44791  39.864   1.874   0.168
73209ION    NA+44792  36.315  29.930  11.012
73210ION    NA+44793  17.335  18.060   4.233
73211ION    NA+44794  10.590  23.088   3.750
73212ION    NA+44795  39.845  39.645   1.653
73213ION    NA+44796  43.941  21.883  13.903
73214ION    NA+44797  28.736   4.930   2.842
73215ION    NA+44798  32.275  19.008  13.392
73216ION    NA+44799   7.330  33.850   4.159
73217ION    NA+44800  37.687  22.178  14.695
73218ION    NA+44801  42.035  10.555   4.230
73219ION    NA+44802  44.857  23.700   1.095
73220ION    NA+44803  37.539  18.700   1.124
73221ION    NA+44804  20.153  34.416  14.479
73222ION    NA+44805  18.063  16.323   0.826
73223ION    NA+44806   1.645  42.374   4.942
73224ION    NA+44807  18.478   1.826  13.547
73225ION    NA+44808  12.735  26.674  12.116
73226ION    NA+44809  29.950  18.093  13.009
73227ION    NA+44810  25.889  41.535  13.329
73228ION    NA+44811   8.201  23.798   1.838
73229ION    NA+44812  12.146  19.552   1.326
73230ION    NA+44813   1.352  12.079  12.467
73231ION    NA+44814  33.497  41.786   1.022
73232ION    NA+44815  25.880  27.436   3.276
73233ION    NA+44816   7.401  33.700  14.368
73234ION    NA+44817  20.767  11.231  12.344
73235ION    NA+44818  32.532  11.836   0.772
73236ION    NA+44819  30.079  15.432  13.043
73237ION    NA+44820   9.786  38.012  11.176
73238ION    NA+44821  32.988  24.047   2.006
73239ION    NA+44822  25.666  31.159   2.019
73240ION    NA+44823  18.579  35.802   1.204
73241ION    NA+44824  24.542  38.403  14.002
73242ION    NA+44825  37.570  17.237  14.859
73243ION    NA+44826  35.404  18.443   1.763
73244ION    NA+44827   3.893  17.436   4.860
73245ION    NA+44828   4.213  32.020  14.363
73246ION    NA+44829  38.749   1.297  13.847
73247ION    NA+44830  33.953  29.472  11.259
73248ION    NA+44831   2.765  29.215  13.214
73249ION    NA+44832  30.789  12.466   0.865
73250ION    NA+44833  27.095  25.149   1.795
73251ION    NA+44834  40.097   7.187  12.188
73252ION    NA+44835  37.808  17.607   0.805
73253ION    NA+44836   6.575  42.535  13.511
73254ION    NA+44837  22.777  26.548   3.361
73255ION    NA+44838   2.784   5.836   1.648
73256ION    NA+44839  10.692  28.404  14.424
73257ION    NA+44840  39.752  11.920  14.801
73258ION    NA+44841  23.440   6.837   4.574
73259ION    NA+44842  37.960  18.581  12.596
73260ION    NA+44843  19.094   9.733   1.765
73261ION    NA+44844  10.929  44.520   3.415
73262ION    NA+44845  19.210  37.854  13.782
73263ION    NA+44846   7.282   6.190   1.658
73264ION    NA+44847  25.763  23.624  12.770
73265ION    NA+44848  21.051  17.861   5.095
73266ION    NA+44849  17.849   5.198  12.082
73267ION    NA+44850  30.742  30.760   2.266
73268ION    NA+44851   3.148  22.704   1.798
73269ION    NA+44852  14.621  20.302   1.304
73270ION    NA+44853  44.019   1.136   2.821
73271ION    NA+44854  33.756  42.127   3.873
73272ION    NA+44855  26.472  21.358   2.940
73273ION    NA+44856  19.583  41.766   3.601
73274ION    NA+44857  43.616  25.244   9.818
73275ION    NA+44858  20.024  20.850   3.069
73276ION    NA+44859   4.458  33.103  13.834
73277ION    NA+44860  23.078  13.696   1.834
73278ION    NA+44861  17.141  31.869   3.369
73279ION    NA+44862   5.874  25.557   2.264
73280ION    NA+44863   3.293  23.282   3.904
73281ION    NA+44864   6.985  37.074   1.390
73282ION    NA+44865  27.214  19.303   4.188
73283ION    NA+44866  28.230  14.142   2.095
73284ION    NA+44867   3.520  32.081   1.688
73285ION    NA+44868  19.018   6.368   4.037
73286ION    NA+44869  11.222  29.841   4.072
73287ION    NA+44870  25.714   5.409   2.570
73288ION    NA+44871  39.069  41.324   1.822
73289ION    NA+44872  39.861  44.987   3.235
73290ION    NA+44873  39.264  14.741   1.889
73291ION    NA+44874   1.391  12.645  11.644
73292ION    NA+44875  27.176  16.922  13.005
73293ION    NA+44876  20.812  36.620  13.166
73294ION    NA+44877  41.144  12.597   1.759
73295ION    NA+44878  41.676  20.076   0.337
73296ION    NA+44879  44.044  23.269  12.776
73297ION    NA+44880  33.938  12.864   4.386
73298ION    NA+44881  29.868  19.275  12.007
73299ION    NA+44882  37.973  16.089  13.838
73300ION    NA+44883  13.180   1.918  14.016
73301ION    NA+44884   5.223   7.896  14.020
73302ION    NA+44885  26.318   7.722  10.339
73303ION    NA+44886  19.723  38.241   4.063
73304ION    NA+44887  18.083  28.105  13.022
73305ION    NA+44888  44.439  11.320   1.678
73306ION    NA+44889  19.003   4.678   2.502
73307ION    NA+44890  22.015  30.446  11.666
73308ION    NA+44891  18.310  12.685   3.722
73309ION    NA+44892  28.114  12.691   5.200
73310ION    NA+44893  24.470  22.350  11.578
73311ION    NA+44894  38.891  39.804  14.443
73312ION    NA+44895  44.839  24.187   0.149
73313ION    NA+44896   4.808  13.141  13.553
73314ION    NA+44897   6.212  44.799  14.062
73315ION    NA+44898  34.173  36.540   4.409
73316ION    NA+44899  40.297  32.203  12.873
73317ION    NA+44900  18.982  28.671  14.842
73318ION    NA+44901  33.152  42.811  14.788
73319ION    NA+44902  19.184  33.387   2.098
73320ION    NA+44903  41.547  39.277   0.780
73321ION    NA+44904   0.851  14.267   0.341
73322ION    NA+44905  31.582  24.647   3.053
73323ION    NA+44906  15.180  22.934  14.820
73324ION    NA+44907  27.832  15.381   4.109
73325ION    NA+44908  32.044  43.757  11.998
73326ION    NA+44909  20.561  40.886   2.025
73327ION    NA+44910  33.930  33.224   5.070
73328ION    NA+44911  13.193   9.372  14.430
73329ION    NA+44912   0.702  37.321   4.455
73330ION    NA+44913  26.178  18.333  10.283
73331ION    NA+44914  41.182  37.613  13.073
73332ION    NA+44915  33.007   3.770  10.672
73333ION    NA+44916  41.250   8.376   5.489
73334ION    NA+44917  33.005  28.515   3.540
73335ION    NA+44918  30.047   6.247  14.930
73336ION    NA+44919  35.657  10.196   0.004
73337ION    NA+44920  11.430  22.034  11.472
73338ION    NA+44921   5.067  42.105   3.036
73339ION    NA+44922   8.706  26.466  13.506
73340ION    NA+44923  14.137  33.327  13.163
73341ION    NA+44924  14.960   1.967   2.896
73342ION    NA+44925  11.473  19.019   1.051
73343ION    NA+44926  44.834  42.403  14.341
73344ION    NA+44927  26.224  22.132   3.344
73345ION    NA+44928  12.745  13.999  10.954
73346ION    NA+44929  10.631  30.259   0.875
73347ION    NA+44930   4.846   0.675  11.687
73348ION    NA+44931   3.580  33.439  11.397
73349ION    NA+44932  29.693  16.888   2.379
73350ION    NA+44933  40.425  26.031  13.245
73351ION    NA+44934  36.213  32.415   1.281
73352ION    NA+44935  18.535  42.500  11.164
73353ION    NA+44936   2.288  38.156   3.230
73354ION    NA+44937  18.805  11.452   2.652
73355ION    NA+44938  18.859  11.864  11.558
73356ION    NA+44939   2.172   2.943  10.974
73357ION    NA+44940  15.710  36.593   2.196
73358ION    NA+44941   4.805   0.663  14.057
73359ION    NA+44942  29.208  27.478   0.586
73360ION    NA+44943  44.885  26.842  10.283
73361ION    NA+44944  42.335  20.850   1.912
73362ION    NA+44945  31.798   8.785  11.640
73363ION    NA+44946  40.762   2.721  12.928
73364ION    NA+44947  13.257   1.225  11.189
73365ION    NA+44948  35.106  27.206   3.123
73366ION    NA+44949   4.231  38.441   1.857
73367ION    NA+44950   3.068  30.094  13.107
73368ION    NA+44951   2.501  35.647  10.148
73369ION    NA+44952  13.677   7.847   0.822
73370ION    NA+44953  43.288  22.435  13.378
73371ION    NA+44954  15.343  18.528  12.177
73372ION    NA+44955  44.401  21.533  12.656
73373ION    NA+44956  10.778  44.258   2.461
73374ION    NA+44957  36.245  10.635  14.477
73375ION    NA+44958   9.606   6.631  10.990
73376ION    NA+44959  43.984   1.742  11.457
73377ION    NA+44960  44.156  44.289   2.664
73378ION    NA+44961  41.038  31.365  13.475
73379ION    NA+44962   4.122  36.626   1.445
73380ION    NA+44963   3.485  17.469  12.876
73381ION    NA+44964  13.233   6.998   0.060
73382ION    NA+44965  44.303  40.295   2.925
73383ION    NA+44966  11.611   5.209  10.973
73384ION    NA+44967  26.800  30.812   2.825
73385ION    NA+44968   2.341  21.906   4.024
73386ION    NA+44969  38.849  17.843   1.019
73387ION    NA+44970   1.772  39.378  14.520
73388ION    NA+44971  39.167   1.398  12.480
73389ION    NA+44972  19.413  25.927  13.891
73390ION    NA+44973  29.461  29.409  12.153
73391ION    NA+44974  13.144  28.173  12.621
73392ION    NA+44975  10.432  10.584  14.591
73393ION    NA+44976   8.465  27.390   4.194
73394ION    NA+44977  22.486  25.502  11.688
73395ION    NA+44978   7.164  10.435  13.003
73396ION    NA+44979  39.451  18.703   4.469
73397ION    NA+44980  28.530  25.267  13.235
73398ION    NA+44981  23.906  17.545  12.865
73399ION    NA+44982  40.395  10.081   1.729
73400ION    NA+44983  33.304  30.197  11.027
73401ION    NA+44984  12.580  18.386   4.312
73402ION    NA+44985  15.009   5.267  10.910
73403ION    NA+44986   7.321   5.936  14.245
73404ION    NA+44987  17.394  12.006   1.230
73405ION    NA+44988  27.801   8.414  12.307
73406ION    NA+44989  40.637  39.419  11.335
73407ION    NA+44990  28.896  29.840   4.167
73408ION    NA+44991  43.373  38.525  10.328
73409ION    NA+44992  11.175  23.782  11.590
73410ION    NA+44993  33.074  34.506   1.830
73411ION    NA+44994  32.046  35.634   2.756
73412ION    NA+44995  26.601  19.601   9.805
73413ION    NA+44996   7.652  33.632  12.641
73414ION    NA+44997  13.041   5.168  12.275
73415ION    NA+44998   6.421  14.886   1.088
73416ION    NA+44999  20.035  35.564  10.458
73417ION    NA+45000   2.407  22.917  10.625
73418ION    NA+45001  14.296  14.451  10.926
73419ION    NA+45002  22.024  37.887  11.931
73420ION    NA+45003  26.231   4.587   2.810
73421ION    NA+45004  20.330  25.749   1.786
73422ION    NA+45005  36.344  33.824  11.154
73423ION    NA+45006  30.443  29.731  13.865
73424ION    NA+45007  28.205  27.966  10.824
73425ION    NA+45008  23.972  14.524   4.597
73426ION    NA+45009  21.392  32.329   3.338
73427ION    NA+45010  41.837  13.098  14.871
73428ION    NA+45011  35.355  36.807  13.605
73429ION    NA+45012  41.467   3.090  13.535
73430ION    NA+45013  27.922  12.805   2.230
73431ION    NA+45014   2.877  29.179   2.366
73432ION    NA+45015  33.804  25.366   5.048
73433ION    NA+45016   1.173   3.976  12.084
73434ION    NA+45017  17.410  30.535  14.398
73435ION    NA+45018  20.702  22.782   2.583
73436ION    NA+45019  11.920   9.587   1.246
73437ION    NA+45020   6.950   4.784  14.498
73438ION    NA+45021  12.510  36.510   4.348
73439ION    NA+45022  23.956  35.118   4.136
73440ION    NA+45023  34.638  16.277   0.200
73441ION    NA+45024  38.395  20.188  13.499
73442ION    NA+45025  31.733  44.612  11.985
73443ION    NA+45026   7.231  34.992   1.674
73444ION    NA+45027  25.949  37.875  11.117
73445ION    NA+45028  11.234  32.580  13.985
73446ION    NA+45029   6.517  22.774  14.189
73447ION    NA+45030  25.900  38.820  14.791
73448ION    NA+45031  35.262  36.848   3.706
73449ION    NA+45032   7.995  38.209  13.090
73450ION    NA+45033  30.629  10.397  14.645
73451ION    NA+45034   1.714   6.277  10.898
73452ION    NA+45035  15.029   6.527   0.922
73453ION    NA+45036   3.191  27.090  14.635
73454ION    NA+45037  34.078  33.878   2.460
73455ION    NA+45038  30.851   6.141   1.454
73456ION    NA+45039  11.839  40.268   1.672
73457ION    NA+45040   5.917   9.056  14.369
73458ION    NA+45041  11.886  37.310  14.791
73459ION    NA+45042  43.229  37.621  12.625
73460ION    NA+45043  20.571   2.899   4.130
73461ION    NA+45044   0.039  38.446  11.252
73462ION    NA+45045  37.069  20.232  11.598
73463ION    NA+45046  28.752  20.280  11.565
73464ION    NA+45047  15.366  22.478  13.115
73465ION    NA+45048  23.268   5.943  14.385
73466ION    NA+45049  34.343  29.612   3.397
73467ION    NA+45050  30.873   5.107  11.122
73468ION    NA+45051  11.730  10.284  12.818
73469ION    NA+45052  19.052  10.794   3.363
73470ION    NA+45053  39.097  38.463  12.000
73471ION    NA+45054  20.458  34.160  12.076
73472ION    NA+45055  40.658  19.359   3.734
73473ION    NA+45056   5.082  36.565  14.359
73474ION    NA+45057  20.620  37.174  11.170
73475ION    NA+45058   3.512   8.440   4.377
73476ION    NA+45059  12.992   2.974  14.731
73477ION    NA+45060  29.691  32.946   3.640
73478ION    NA+45061   9.148  17.763  11.319
73479ION    NA+45062  22.533  44.252   4.405
73480ION    NA+45063  13.143  22.387  10.981
73481ION    NA+45064  22.365  27.310   9.497
73482ION    NA+45065  12.060  42.014  12.270
73483ION    NA+45066  22.295  34.031   4.187
73484ION    NA+45067  30.111   2.659   3.605
73485ION    NA+45068  13.889   1.185   1.713
73486ION    NA+45069   7.093  23.793   4.733
73487ION    NA+45070  12.499  39.329   1.075
73488ION    NA+45071  34.436  43.075  11.375
73489ION    NA+45072   6.958  23.527   0.166
73490ION    NA+45073  29.497  25.039   2.649
73491ION    NA+45074   2.414  12.164   1.612
73492ION    NA+45075   9.878  42.265  14.457
73493ION    NA+45076  22.287   9.268   4.299
73494ION    NA+45077  16.861  10.770   2.414
73495ION    NA+45078   8.818  13.732   2.437
73496ION    NA+45079  31.672  15.902   1.353
73497ION    NA+45080  34.992  10.336   1.653
73498ION    NA+45081  42.776   3.626  13.763
73499ION    NA+45082  29.080  44.856  11.372
73500ION    NA+45083  23.061  44.596  14.881
73501ION    NA+45084  26.482  21.956  13.471
73502ION    NA+45085   5.761  24.097   1.020
73503ION    NA+45086  20.669  22.236   0.826
73504ION    NA+45087  20.857   4.189  14.130
73505ION    NA+45088  19.000  13.895  11.130
73506ION    NA+45089  38.182  27.918   0.208
73507ION    NA+45090   6.212   9.437  13.401
73508ION    NA+45091  43.799  32.996   4.825
73509ION    NA+45092  11.740  11.392  12.081
73510ION    NA+45093   7.535  22.959   0.544
73511ION    NA+45094   9.608  20.130  14.049
73512ION    NA+45095   7.361  15.874  10.649
73513ION    NA+45096  30.384  32.913  11.098
73514ION    NA+45097  11.133  38.421  13.725
73515ION    NA+45098   3.886  23.568  10.731
73516ION    NA+45099  12.815  32.514  11.941
73517ION    NA+45100   2.799  14.848  11.900
73518ION    NA+45101  13.225  38.894   4.674
73519ION    NA+45102  22.531  44.240   1.761
73520ION    NA+45103  20.284   9.538  13.226
73521ION    NA+45104  36.775  13.044  13.078
73522ION    NA+45105  33.623  43.473   1.706
73523ION    NA+45106  20.084  24.791   1.641
73524ION    NA+45107  34.199  39.408  11.696
73525ION    NA+45108  33.660  31.193   0.066
73526ION    NA+45109  17.207  21.008   0.952
73527ION    NA+45110   5.534   5.644   1.188
73528ION    NA+45111  35.519  19.976   2.945
73529ION    NA+45112  25.067  22.933   3.218
73530ION    NA+45113  32.848  31.144  14.484
73531ION    NA+45114   2.008   9.822   1.989
73532ION    NA+45115  12.682  40.040   4.218
73533ION    NA+45116  36.541  37.914   1.368
73534ION    NA+45117  44.198  35.410   2.322
73535ION    NA+45118  33.629   5.747  11.134
73536ION    NA+45119  38.422  33.554  13.969
73537ION    NA+45120  21.550  22.548   1.496
73538ION    NA+45121   1.949  17.042  11.063
73539ION    NA+45122  43.259  42.796  14.877
73540ION    NA+45123  12.758  40.079  14.749
73541ION    NA+45124  16.293  11.373   1.775
73542ION    NA+45125  21.668   4.527  14.318
73543ION    NA+45126  23.190  29.970  12.043
73544ION    NA+45127  44.939  18.054  13.652
73545ION    NA+45128   7.345  36.965  11.603
73546ION    NA+45129  43.276  44.956  12.541
73547ION    NA+45130  16.680   6.648   1.782
73548ION    NA+45131  31.675   8.422   3.771
73549ION    NA+45132  44.947  23.676  12.637
73550ION    NA+45133  15.375  37.552   4.997
73551ION    NA+45134  24.062  16.963   3.209
73552ION    NA+45135  19.090  18.268  13.911
73553ION    NA+45136  30.643  21.311  13.862
73554ION    NA+45137  26.796  11.242   2.854
73555ION    NA+45138  23.552  22.013  13.345
73556ION    NA+45139  22.484  44.408  12.695
73557ION    NA+45140  38.954  32.827   2.429
73558ION    NA+45141  20.809  41.638   0.932
73559ION    NA+45142  40.817  26.030   0.934
73560ION    NA+45143  17.105  23.619   0.637
73561ION    NA+45144  23.113  15.006  13.076
73562ION    NA+45145   3.203  35.726   4.463
73563ION    NA+45146   0.518   7.356   0.406
73564ION    NA+45147  43.951  17.676  12.108
73565ION    NA+45148  23.910  36.430  12.094
73566ION    NA+45149  18.403  25.753   3.826
73567ION    NA+45150  41.083  42.445  12.954
73568ION    NA+45151  11.346  18.529   2.190
73569ION    NA+45152  42.376  21.958  12.443
73570ION    NA+45153  43.161  35.560   2.239
73571ION    NA+45154  44.377  22.701  13.529
73572ION    NA+45155  40.304   9.269  14.585
73573ION    NA+45156   0.076  21.632  11.926
73574ION    NA+45157   4.184   2.744  14.579
73575ION    NA+45158  30.266  15.148  14.057
73576ION    NA+45159   9.915  32.550   0.567
73577ION    NA+45160  24.504   8.521   2.410
73578ION    NA+45161  35.564  37.274   0.509
73579ION    NA+45162  18.334  24.357   2.460
73580ION    NA+45163  42.503  32.626   0.114
73581ION    NA+45164  14.378  26.765   4.224
73582ION    NA+45165  25.146  23.209  11.168
73583ION    NA+45166  43.419  17.797   2.187
73584ION    NA+45167  43.657  17.137  14.411
73585ION    NA+45168  28.717  16.482   3.003
73586ION    NA+45169  28.088   0.971   3.261
73587ION    NA+45170   0.255   1.018   2.627
73588ION    NA+45171  30.592  31.620   1.698
73589ION    NA+45172  38.685   9.150   4.056
73590ION    NA+45173   7.587  14.489  10.303
73591ION    NA+45174  37.154  39.107   4.623
73592ION    NA+45175  28.821  17.318   3.338
73593ION    NA+45176   5.530  44.258  13.036
73594ION    NA+45177   7.661   1.171   4.175
73595ION    NA+45178  34.732  11.026   0.150
73596ION    NA+45179  17.354  28.215  12.346
73597ION    NA+45180   5.171   5.978   2.742
73598ION    NA+45181  14.675  42.435  12.517
73599ION    NA+45182   8.157  20.954  12.979
73600ION    NA+45183  30.032  32.365  14.357
73601ION    NA+45184  20.258  11.844   0.965
73602ION    NA+45185   3.889   6.314   1.533
73603ION    NA+45186  31.062  24.603  12.547
73604ION    NA+45187  30.669   0.535  12.051
73605ION    NA+45188  33.858   3.805  13.503
73606ION    NA+45189  30.423  42.084  14.100
73607ION    NA+45190  23.483  36.866   3.718
73608ION    NA+45191  14.006  34.136   4.664
73609ION    NA+45192  22.279  16.293   1.684
73610ION    NA+45193  44.311  20.252  11.373
73611ION    NA+45194   1.098  30.225  13.495
73612ION    NA+45195  37.733  16.403   3.198
73613ION    NA+45196  33.500  11.340   3.010
73614ION    NA+45197   2.307   8.746   2.106
73615ION    NA+45198  12.268  41.012   3.333
73616ION    NA+45199   1.460  36.583   0.259
73617ION    NA+45200   3.211   9.359   4.082
73618ION    NA+45201   1.489  30.361  12.977
73619ION    NA+45202  35.567  31.356  14.776
73620ION    NA+45203  20.901   8.265  10.562
73621ION    NA+45204  41.559  14.927  11.547
73622ION    NA+45205  18.054  43.334  12.491
73623ION    NA+45206  10.195  36.210   1.682
73624ION    NA+45207  14.567  37.345   2.771
73625ION    NA+45208  38.873  16.439  12.260
73626ION    NA+45209  43.971  31.908   1.876
73627ION    NA+45210  16.293  27.535  11.074
73628ION    NA+45211   3.937  29.670   0.669
73629ION    NA+45212  42.090  32.979  13.064
73630ION    NA+45213  39.519  16.995  14.016
73631ION    NA+45214  31.876  14.017   2.106
73632ION    NA+45215  23.975  11.698   3.635
73633ION    NA+45216  40.336  13.091   0.172
73634ION    NA+45217  22.794  34.232  14.431
73635ION    NA+45218  32.349   6.651   2.370
73636ION    NA+45219  19.803   7.069   0.914
73637ION    NA+45220  40.837  44.954   3.691
73638ION    NA+45221  30.652  12.114   2.126
73639ION    NA+45222  29.494  30.393   3.740
73640ION    NA+45223  36.916  22.344   2.940
73641ION    NA+45224  20.317  21.512   0.156
73642ION    NA+45225  41.060  26.634  11.380
73643ION    NA+45226  11.618   3.602   4.143
73644ION    NA+45227   8.271   4.433  12.643
73645ION    NA+45228  28.706  12.036   5.614
73646ION    NA+45229  30.737  18.889   0.301
73647ION    NA+45230  37.039   5.659  10.498
73648ION    NA+45231  30.876  13.141   5.059
73649ION    NA+45232   0.202  35.119   1.885
73650ION    NA+45233  40.939  26.653   0.161
73651ION    NA+45234  39.007  14.258  11.941
73652ION    NA+45235  38.442  11.907   4.717
73653ION    NA+45236   5.766  21.419   2.648
73654ION    NA+45237  13.459   2.219  10.714
73655ION    NA+45238  15.843  40.982   0.467
73656ION    NA+45239  14.741   1.024   0.810
73657ION    NA+45240  43.355  30.082  10.628
73658ION    NA+45241  36.479  23.056  10.722
73659ION    NA+45242  18.031  32.818  13.996
73660ION    NA+45243  17.198  32.627   2.719
73661ION    NA+45244  18.144  18.715  12.906
73662ION    NA+45245  40.596   9.158  11.524
73663ION    NA+45246  26.983  17.760  11.212
73664ION    NA+45247  41.607  12.725  11.101
73665ION    NA+45248  30.180  31.777  12.733
73666ION    NA+45249  22.947  37.298   2.543
73667ION    NA+45250  13.581  17.366  14.864
73668ION    NA+45251  40.474  37.240   0.392
73669ION    NA+45252  38.233  30.383   2.115
73670ION    NA+45253  17.629  43.663   2.434
73671ION    NA+45254   5.180   5.677   3.696
73672ION    NA+45255  16.017  23.532   1.158
73673ION    NA+45256  27.734  16.676  11.178
73674ION    NA+45257  16.041  34.468  11.125
73675ION    NA+45258  18.322  26.251   2.285
73676ION    NA+45259  42.412  31.755  12.538
73677ION    NA+45260  15.131  43.195  11.422
73678ION    NA+45261  31.816   7.888  11.683
73679ION    NA+45262  18.416  25.346  10.962
73680ION    NA+45263  23.002  31.381  12.138
73681ION    NA+45264  33.704  18.539   3.149
73682ION    NA+45265   0.619  27.307  14.256
73683ION    NA+45266  41.040  24.349  12.706
73684ION    NA+45267  13.921  24.366  13.316
73685ION    NA+45268   7.938   3.554   3.188
73686ION    NA+45269  33.486  33.515  14.042
73687ION    NA+45270  29.257  25.087  11.929
73688ION    NA+45271  41.837  38.647   1.315
73689ION    NA+45272   9.174   5.105  14.855
73690ION    NA+45273  14.810  36.498   3.244
73691ION    NA+45274  36.787  20.569   0.544
73692ION    NA+45275  28.120  36.087   2.230
73693ION    NA+45276   7.216   3.428  11.326
73694ION    NA+45277   1.156  19.849   0.988
73695ION    NA+45278  41.991   5.673  13.019
73696ION    NA+45279  11.813  20.681   4.928
73697ION    NA+45280  32.376   2.229  12.073
73698ION    NA+45281  15.930   6.774   3.377
73699ION    NA+45282  22.342  42.536   0.307
73700ION    NA+45283  30.775  21.206  10.675
73701ION    NA+45284  16.754  28.463  13.108
73702ION    NA+45285  16.790  42.925   2.827
73703ION    NA+45286  33.629  11.237   4.752
73704ION    NA+45287  36.078  43.948  13.748
73705ION    NA+45288  11.034  30.653  14.079
73706ION    NA+45289  21.814  35.106   2.467
73707ION    NA+45290   1.677  28.990  11.956
73708ION    NA+45291   6.210  36.562   0.394
73709ION    NA+45292  33.743  10.935   1.359
73710ION    NA+45293   6.649  21.290   0.857
73711ION    NA+45294   2.131  33.754  13.416
73712ION    NA+45295  39.876   7.352  10.483
73713ION    NA+45296  43.405  23.999  14.894
73714ION    NA+45297  22.741  44.253   0.774
73715ION    NA+45298  32.570  25.107   1.194
73716ION    NA+45299  32.625  37.329   4.764
73717ION    NA+45300  18.103  44.950  12.185
73718ION    NA+45301  28.588   1.135  12.552
73719ION    NA+45302   2.108   1.626   2.315
73720ION    NA+45303  31.884  14.154  14.211
73721ION    NA+45304  16.642  13.123   2.669
73722ION    NA+45305  15.612  39.288   3.594
73723ION    NA+45306   5.576   6.915   4.607
73724ION    NA+45307  39.532  11.701   1.291
73725ION    NA+45308  29.138  16.075   0.819
73726ION    NA+45309   0.575  36.894  10.616
73727ION    NA+45310  27.552  40.269  12.382
73728ION    NA+45311   6.950  16.468   4.341
73729ION    NA+45312  16.649  17.503  11.589
73730ION    NA+45313  35.563   3.909  11.170
73731ION    NA+45314  17.799  40.457   2.825
73732ION    NA+45315  13.366  39.487   0.289
73733ION    NA+45316  37.260  23.042   4.479
73734ION    NA+45317  12.371  44.829  12.463
73735ION    NA+45318  12.787  34.216   1.101
73736ION    NA+45319  16.094   7.783   1.053
73737ION    NA+45320  21.165  40.310  12.495
73738ION    NA+45321   9.069  22.613  10.833
73739ION    NA+45322  40.612  16.214   3.647
73740ION    NA+45323  27.045  33.129   1.873
73741ION    NA+45324  38.126  42.575   0.041
73742ION    NA+45325  39.512   1.432  11.221
73743ION    NA+45326   3.669  25.160   0.406
73744ION    NA+45327  38.432  37.226  11.769
73745ION    NA+45328  27.849  33.580   0.099
73746ION    NA+45329   1.130  19.620  10.169
73747ION    NA+45330  22.302  33.032  11.651
73748ION    NA+45331  11.705  38.087   4.538
73749ION    NA+45332  17.185  25.724  11.564
73750ION    NA+45333  44.221  41.061   4.021
73751ION    NA+45334  25.278   9.948  14.393
73752ION    NA+45335   2.308  26.174  13.121
73753ION    NA+45336  29.852  29.211  14.270
73754ION    NA+45337  17.549  22.812  12.032
73755ION    NA+45338  31.575   9.260   2.484
73756ION    NA+45339  19.111  35.215  14.678
73757ION    NA+45340   5.249  20.346   4.052
73758ION    NA+45341  35.603  32.662  13.367
73759ION    NA+45342  32.115  39.892   4.470
73760ION    NA+45343  18.293  28.580   2.596
73761ION    NA+45344  16.990  43.719   3.206
73762ION    NA+45345   8.676  14.465  12.399
73763ION    NA+45346  27.943  22.715  10.792
73764ION    NA+45347  24.972  22.335  10.713
73765ION    NA+45348  29.108  31.482  11.974
73766ION    NA+45349  21.463  10.677   4.797
73767ION    NA+45350  40.526  37.964   3.859
73768ION    NA+45351  36.597  29.309  10.999
73769ION    NA+45352  26.985   3.228  13.945
73770ION    NA+45353  39.903  14.854   3.654
73771ION    NA+45354  40.614  39.611   4.159
73772ION    NA+45355  25.948   6.980   5.141
73773ION    NA+45356   7.286  19.046   0.152
73774ION    NA+45357   7.346  35.483   0.811
73775ION    NA+45358  39.371   6.982   2.031
73776ION    NA+45359   1.337  11.728  13.864
73777ION    NA+45360  21.201  37.411  13.403
73778ION    NA+45361  26.412  25.075   3.409
73779ION    NA+45362  18.848  19.191  14.210
73780ION    NA+45363  27.168   8.574  12.424
73781ION    NA+45364   4.177   1.748  11.159
73782ION    NA+45365  34.434  41.067  11.517
73783ION    NA+45366   5.420   9.934   0.740
73784ION    NA+45367  26.432  13.187   4.187
73785ION    NA+45368   1.159  41.358   2.503
73786ION    NA+45369  30.465  35.892  14.021
73787ION    NA+45370  35.392  43.041   2.198
73788ION    NA+45371   5.036   4.730   3.358
73789ION    NA+45372   8.107   2.786   1.324
73790ION    NA+45373  25.718  21.011  11.488
73791ION    NA+45374   5.894  29.426   4.782
73792ION    NA+45375  32.988  22.335   5.520
73793ION    NA+45376   8.617  16.057  10.191
73794ION    NA+45377   3.676  30.471  10.479
73795ION    NA+45378  38.546  28.538  13.979
73796ION    NA+45379  21.178  30.408  11.120
73797ION    NA+45380  43.575  10.426   1.920
73798ION    NA+45381  42.546  32.999  11.058
73799ION    NA+45382  34.275  25.293   0.702
73800ION    NA+45383  16.490  16.862   4.880
73801ION    NA+45384  43.833   3.817   4.183
73802ION    NA+45385  22.099  38.030   3.355
73803ION    NA+45386  10.561  33.899  12.589
73804ION    NA+45387   6.302  27.548  12.350
73805ION    NA+45388   3.718  17.157  10.732
73806ION    NA+45389  25.989   6.318   3.912
73807ION    NA+45390  30.205  42.461  10.690
73808ION    NA+45391   3.772   7.432  13.943
73809ION    NA+45392  11.062  36.834   1.939
73810ION    NA+45393  41.898  15.652  13.086
73811ION    NA+45394  44.041  37.298  12.410
73812ION    NA+45395  26.648  32.561   2.859
73813ION    NA+45396  15.267   1.919   0.978
73814ION    NA+45397  35.837  43.054  12.645
73815ION    NA+45398   3.829  14.397   3.187
73816ION    NA+45399  41.919   8.881  13.756
73817ION    NA+45400  24.734  44.290  10.754
73818ION    NA+45401   0.682  38.542  12.647
73819ION    NA+45402  33.062   8.009  10.626
73820ION    NA+45403   0.335  42.376  11.671
73821ION    NA+45404  40.994  41.499  13.387
73822ION    NA+45405  40.080  24.546  12.434
73823ION    NA+45406  25.335  44.765  12.066
73824ION    NA+45407  19.660  33.134  14.359
73825ION    NA+45408   2.445  10.653   1.645
73826ION    NA+45409  12.771  38.316   0.013
73827ION    NA+45410   6.412  30.395  12.410
73828ION    NA+45411  35.559  40.247  12.509
73829ION    NA+45412  41.457   4.886  14.354
73830ION    NA+45413   9.241   9.849   0.777
73831ION    NA+45414  23.144   6.906   0.876
73832ION    NA+45415  24.245  41.854  12.798
73833ION    NA+45416  11.372  11.176  13.094
73834ION    NA+45417  41.283  39.950   1.742
73835ION    NA+45418   5.704  39.870   0.080
73836ION    NA+45419  36.357  10.741   1.366
73837ION    NA+45420   8.373  30.874  13.087
73838ION    NA+45421  41.042  30.219  14.710
73839ION    NA+45422  33.366   4.849   4.908
73840ION    NA+45423  10.168  18.320  14.598
73841ION    NA+45424   9.085  16.829   0.158
73842ION    NA+45425  40.869  35.892   2.876
73843ION    NA+45426  36.930  19.258   0.757
73844ION    NA+45427  26.698  44.893   2.911
73845ION    NA+45428  43.212  40.265  11.473
73846ION    NA+45429  22.315  10.131   0.611
73847ION    NA+45430   7.094  28.322  13.389
73848ION    NA+45431  29.005  23.552   2.247
73849ION    NA+45432  19.429   9.847   2.537
73850ION    NA+45433  31.532  16.898   3.914
73851ION    NA+45434   2.511   9.805   1.119
73852ION    NA+45435   0.682  34.706  12.526
73853ION    NA+45436  41.023  37.668   3.044
73854ION    NA+45437  24.650  34.312  11.692
73855ION    NA+45438  26.850  26.962  13.168
73856ION    NA+45439  29.430   7.388   1.305
73857ION    NA+45440  37.164   6.291  11.350
73858ION    NA+45441  18.769  42.956  13.609
73859ION    NA+45442   0.476  20.739   1.676
73860ION    NA+45443  16.573  12.156  13.447
73861ION    NA+45444   1.534  28.412  14.752
73862ION    NA+45445  35.175  33.302   2.877
73863ION    NA+45446  31.625   6.749   1.018
73864ION    NA+45447  40.469  24.106   1.913
73865ION    NA+45448  34.558  22.769  14.030
73866ION    NA+45449  34.933  34.207   4.598
73867ION    NA+45450   5.490  41.404   4.079
73868ION    NA+45451  29.645  42.263  14.484
73869ION    NA+45452  16.751   4.771  13.872
73870ION    NA+45453  18.591   3.640   3.100
73871ION    NA+45454  36.628  23.345   0.033
73872ION    NA+45455  24.478  11.588  12.309
73873ION    NA+45456  11.502  44.821  12.976
73874ION    NA+45457   6.487  35.884  13.274
73875ION    NA+45458  35.980  20.489   1.681
73876ION    NA+45459  25.580  34.116  14.718
73877ION    NA+45460  31.377  44.784   3.365
73878ION    NA+45461   3.747  36.920   3.979
73879ION    NA+45462   4.739  15.525   4.569
73880ION    NA+45463  25.497  41.993   3.875
73881ION    NA+45464  11.175  35.305  12.406
73882ION    NA+45465  26.628  15.113  10.770
73883ION    NA+45466  17.596  16.194  14.245
73884ION    NA+45467   4.450   7.826   2.945
73885ION    NA+45468  27.634  25.153  13.664
73886ION    NA+45469  28.044  28.170  13.108
73887ION    NA+45470  18.291  20.876   0.071
73888ION    NA+45471   9.153  43.447  13.506
73889ION    NA+45472  27.668  24.791  12.733
73890ION    NA+45473  16.628   2.990   4.179
73891ION    NA+45474  40.137   8.282   0.779
73892ION    NA+45475   7.268  43.777  12.654
73893ION    NA+45476  22.491  31.049  14.531
73894ION    NA+45477  21.993  44.340  10.582
73895ION    NA+45478   9.973  11.365  12.591
73896ION    NA+45479  27.442  14.110   2.711
73897ION    NA+45480  20.015  15.323  13.295
73898ION    NA+45481   1.561   6.413   0.519
73899ION    NA+45482  12.675  21.221  14.002
73900ION    NA+45483   6.155   7.311  12.976
73901ION    NA+45484  28.951  31.960   3.867
73902ION    NA+45485  16.502  38.033   2.681
73903ION    NA+45486  27.357   3.667  11.141
73904ION    NA+45487  41.057  23.015  14.790
73905ION    NA+45488  12.388   4.165  14.453
73906ION    NA+45489  10.792  39.219  10.788
73907ION    NA+45490  35.628  38.489  14.127
73908ION    NA+45491  18.184  33.677   1.995
73909ION    NA+45492  16.552  26.076   4.522
73910ION    NA+45493  25.300  30.777   2.868
73911ION    NA+45494  42.885   9.049  11.026
73912ION    NA+45495  23.475  44.221  11.735
73913ION    NA+45496  15.493  26.576  13.347
73914ION    NA+45497  36.743  27.173   4.653
73915ION    NA+45498  34.948  24.155   3.568
73916ION    NA+45499  22.624  28.640   1.974
73917ION    NA+45500   4.653  16.249  11.269
73918ION    NA+45501  16.794  10.209   1.252
73919ION    NA+45502   6.196   1.168  12.187
73920ION    NA+45503  12.160  26.242  13.539
73921ION    NA+45504  36.756  11.721   0.929
73922ION    NA+45505  32.107  36.762  11.988
73923ION    NA+45506   3.712   4.321  12.701
73924ION    NA+45507  10.555  39.287   2.569
73925ION    NA+45508  36.393   2.625  11.093
73926ION    NA+45509   4.536   6.574   2.249
73927ION    NA+45510   2.113  38.980   9.836
73928ION    NA+45511  22.760  29.576  11.045
73929ION    NA+45512   5.960   8.483   3.062
73930ION    NA+45513  13.605  23.603  11.794
73931ION    NA+45514  10.425  19.225  14.934
73932ION    NA+45515   8.734   2.276   0.349
73933ION    NA+45516  32.541  10.130   3.948
73934ION    NA+45517  33.462  11.279   0.399
73935ION    NA+45518   6.043  41.194  10.585
73936ION    NA+45519  18.293  36.399   3.732
73937ION    NA+45520  34.377  42.486  12.196
73938ION    NA+45521  38.872  34.324  14.493
73939ION    NA+45522  18.824   3.008   5.017
73940ION    NA+45523  36.767  13.785  12.406
73941ION    NA+45524  39.843   7.896   2.824
73942ION    NA+45525  24.256  43.601  13.756
73943ION    NA+45526   0.759  23.765  12.060
73944ION    NA+45527  10.852  33.135  12.211
73945ION    NA+45528   2.258  27.021   0.324
73946ION    NA+45529  10.469  32.500  11.540
73947ION    NA+45530  19.517  20.974   0.419
73948ION    NA+45531  12.912   2.800   3.353
73949ION    NA+45532   5.423  43.990   1.114
73950ION    NA+45533  32.912  32.797  13.647
73951ION    NA+45534  19.540   3.384   2.812
73952ION    NA+45535  18.418   6.616   3.108
73953ION    NA+45536  35.802  27.704   5.140
73954ION    NA+45537  19.659  22.174  13.487
73955ION    NA+45538  25.738   7.912  10.940
73956ION    NA+45539   2.488  17.552   1.207
73957ION    NA+45540   5.210  19.927   3.145
73958ION    NA+45541  23.242  40.915  12.315
73959ION    NA+45542   6.433  23.210   2.558
73960ION    NA+45543  17.139   4.509   2.921
73961ION    NA+45544  35.488  12.269  11.994
73962ION    NA+45545  19.282   0.769   4.558
73963ION    NA+45546  30.435  22.642   1.769
73964ION    NA+45547  13.929  34.488   3.323
73965ION    NA+45548  24.665  27.622  13.306
73966ION    NA+45549   5.079  19.239  13.049
73967ION    NA+45550  42.304  11.199   3.222
73968ION    NA+45551  28.181  43.317  12.063
73969ION    NA+45552   5.101  37.585   3.666
73970ION    NA+45553  17.245   5.280  13.167
73971ION    NA+45554  17.381   1.859   3.751
73972ION    NA+45555   1.051   5.216  12.387
73973ION    NA+45556  19.625  38.039   2.651
73974ION    NA+45557  15.483  33.751   0.852
73975ION    NA+45558  30.292   6.673   3.949
73976ION    NA+45559   5.267  44.762   1.892
73977ION    NA+45560  16.546  38.460  14.592
73978ION    NA+45561  20.018  42.197   1.963
73979ION    NA+45562  35.801  11.790   2.815
73980ION    NA+45563  39.929  16.791   0.927
73981ION    NA+45564  14.003  42.507   2.294
73982ION    NA+45565   5.945  24.520  13.012
73983ION    NA+45566   4.872   9.338   3.108
73984ION    NA+45567  20.063  40.143   0.366
73985ION    NA+45568  41.217  13.392  12.339
73986ION    NA+45569  23.278  16.289   1.733
73987ION    NA+45570   0.254  10.262  13.830
73988ION    NA+45571   0.572   2.346   1.439
73989ION    NA+45572  35.525  22.028   1.196
73990ION    NA+45573  18.570  25.564  10.116
73991ION    NA+45574  20.910   6.339  12.988
73992ION    NA+45575   0.789  20.865  11.135
73993ION    NA+45576  19.005  42.776   2.240
73994ION    NA+45577  30.579  12.787  12.203
73995ION    NA+45578   9.913  36.612  13.988
73996ION    NA+45579  34.791  44.910   1.857
73997ION    NA+45580  26.889  41.342  10.681
73998ION    NA+45581  15.841  39.013  11.631
73999ION    NA+45582   4.056  14.689   0.797
74000ION    NA+45583  24.432   0.429   4.565
74001ION    NA+45584   0.290  15.903  10.967
74002ION    NA+45585  28.297  43.450   1.769
74003ION    NA+45586  40.853   9.269   1.221
74004ION    NA+45587  32.202  26.760   1.929
74005ION    NA+45588  13.252  14.795   4.393
74006ION    NA+45589  44.385  29.203  10.310
74007ION    NA+45590  23.028  26.137   4.104
74008ION    NA+45591   5.927  10.064  14.985
74009ION    NA+45592  16.926  27.653   3.639
74010ION    NA+45593  35.927  15.763   0.808
74011ION    NA+45594  29.484  21.768  11.593
74012ION    NA+45595   0.171  31.512  11.689
74013ION    NA+45596  28.981  27.353   2.753
74014ION    NA+45597  36.089   3.763   0.444
74015ION    NA+45598  25.455   5.624  10.704
74016ION    NA+45599   2.660  31.433   0.402
74017ION    NA+45600  42.522  39.389   1.885
74018ION    NA+45601  21.812  41.488  13.790
74019ION    NA+45602  10.921  43.833  11.239
74020ION    NA+45603  29.160  15.128   3.188
74021ION    NA+45604  18.905  22.222   3.502
74022ION    NA+45605   0.204  41.740   0.278
74023ION    NA+45606  38.471  25.603   3.758
74024ION    NA+45607  27.124  36.307   4.558
74025ION    NA+45608  13.468  26.561   9.562
74026ION    NA+45609   8.306  11.273   2.168
74027ION    NA+45610  22.880  29.774   4.228
74028ION    NA+45611  23.399  41.061   2.513
74029ION    NA+45612  26.371  31.662   2.519
74030ION    NA+45613  21.901  34.252  10.752
74031ION    NA+45614  13.008  44.772  13.806
74032ION    NA+45615  21.134  40.079   3.170
74033ION    NA+45616  16.049  16.652  13.455
74034ION    NA+45617  33.420  22.828   3.805
74035ION    NA+45618  27.411  18.696  12.625
74036ION    NA+45619   3.819  23.736   0.295
74037ION    NA+45620  22.653  42.000  12.103
74038ION    NA+45621  37.512  23.195   2.891
74039ION    NA+45622  35.728  40.017  14.930
74040ION    NA+45623   2.862  12.913  14.318
74041ION    NA+45624  32.081  34.428   9.772
74042ION    NA+45625   6.446  24.043   4.127
74043ION    NA+45626  27.292   1.664  13.030
74044ION    NA+45627  32.133  21.146   3.361
74045ION    NA+45628  11.578   7.861   3.424
74046ION    NA+45629  32.350  19.583   1.969
74047ION    NA+45630  18.645  43.986  13.321
74048ION    NA+45631  22.531  30.974   2.250
74049ION    NA+45632  20.735  28.418  13.975
74050ION    NA+45633   3.347  39.627  12.073
74051ION    NA+45634  35.042  12.278   4.719
74052ION    NA+45635  36.796  13.349   4.610
74053ION    NA+45636  21.595  19.833  10.241
74054ION    NA+45637  16.189  25.122  13.859
74055ION    NA+45638   2.130  30.810  14.163
74056ION    NA+45639  34.946  39.118  13.753
74057ION    NA+45640  42.061   4.794  12.547
74058ION    NA+45641  30.565  23.975  13.764
74059ION    NA+45642  43.845  41.922   4.470
74060ION    NA+45643   6.613  14.827  11.032
74061ION    NA+45644  40.347  26.712  12.076
74062ION    NA+45645  12.026   4.165  12.406
74063ION    NA+45646  44.984  23.713   3.378
74064ION    NA+45647  44.993  35.311  13.047
74065ION    NA+45648   8.652  18.367   1.260
74066ION    NA+45649  44.406   5.218   5.107
74067ION    NA+45650   1.759  36.693   5.027
74068ION    NA+45651  14.389  17.280   2.751
74069ION    NA+45652  21.943  37.878  13.685
74070ION    NA+45653  29.199  28.326   2.671
74071ION    NA+45654  26.169   9.204  11.083
74072ION    NA+45655  39.485   5.924   3.758
74073ION    NA+45656  29.924  39.450   3.700
74074ION    NA+45657  39.554  23.934  13.024
74075ION    NA+45658   5.856   9.833   4.110
74076ION    NA+45659  40.563  19.061   2.964
74077ION    NA+45660  27.226   5.599   2.283
74078ION    NA+45661   9.478  43.220  11.921
74079ION    NA+45662  23.670  22.631  14.381
74080ION    NA+45663  38.238  21.684   0.367
74081ION    NA+45664  12.361  42.398  13.032
74082ION    NA+45665  17.372   4.362  12.494
74083ION    NA+45666   5.777  31.135   1.224
74084ION    NA+45667   1.890   5.424  13.677
74085ION    NA+45668  23.545  38.699  11.117
74086ION    NA+45669  10.314   6.665   2.334
74087ION    NA+45670  42.030  44.462  12.098
74088ION    NA+45671  12.735  43.247   4.488
74089ION    NA+45672  25.124  39.001   1.805
74090ION    NA+45673  42.077   5.947   4.025
74091ION    NA+45674  40.695   8.085  14.528
74092ION    NA+45675  14.300   1.235   4.605
74093ION    NA+45676  39.567   2.668  10.323
74094ION    NA+45677  22.043  19.026   4.973
74095ION    NA+45678  29.850  33.680   2.947
74096ION    NA+45679  15.562  40.293  12.429
74097ION    NA+45680  19.973   6.385  11.942
74098ION    NA+45681   6.130  14.735   0.137
74099ION    NA+45682   9.125  31.542  11.222
74100ION    NA+45683  37.787  28.480   3.920
74101ION    NA+45684  20.180   2.698   1.450
74102ION    NA+45685  25.688  19.439   2.202
74103ION    NA+45686  24.586  36.135  13.402
74104ION    NA+45687  29.417  30.479   4.369
74105ION    NA+45688  12.393  32.962   3.233
74106ION    NA+45689  41.775  20.364   4.139
74107ION    NA+45690  10.411  10.666  11.150
74108ION    NA+45691   3.969  31.077  14.591
74109ION    NA+45692   6.710  24.282  10.681
74110ION    NA+45693  20.140   3.955  10.713
74111ION    NA+45694  30.657  33.371  12.009
74112ION    NA+45695  18.488  36.812  13.563
74113ION    NA+45696  37.535   6.656   0.308
74114ION    NA+45697  41.264  40.387   4.938
74115ION    NA+45698   1.113  30.822  12.173
74116ION    NA+45699   3.992  21.684  14.582
74117ION    NA+45700  21.697  39.041   4.665
74118ION    NA+45701  29.990  10.159  11.082
74119ION    NA+45702   8.517  11.083   1.209
74120ION    NA+45703  32.731  42.296   0.963
74121ION    NA+45704   3.940  41.294   4.175
74122ION    NA+45705  13.428  18.460   1.080
74123ION    NA+45706   2.242  21.095  13.348
74124ION    NA+45707  44.970   2.439  13.117
74125ION    NA+45708  41.589  14.760   4.311
74126ION    NA+45709  35.895  19.188   2.271
74127ION    NA+45710  26.923  32.910   3.755
74128ION    NA+45711  22.076   3.302   3.723
74129ION    NA+45712   0.147  12.337  10.543
74130ION    NA+45713  30.691  11.286   4.368
74131ION    NA+45714  14.285  40.847  13.006
74132ION    NA+45715  21.914  15.001  12.337
74133ION    NA+45716  24.445  40.784  13.464
74134ION    NA+45717  25.571  42.669  11.964
74135ION    NA+45718  29.902   2.556  13.014
74136ION    NA+45719  12.199   8.371   1.395
74137ION    NA+45720  16.577  16.494   2.713
74138ION    NA+45721  31.860  39.038   2.414
74139ION    NA+45722   5.713  43.211  12.979
74140ION    NA+45723  15.859  37.334  10.308
74141ION    NA+45724  43.607  20.095  13.430
74142ION    NA+45725  35.641  21.636  14.414
74143ION    NA+45726   9.281  17.849   4.819
74144ION    NA+45727  20.508  18.252   4.083
74145ION    NA+45728  25.092  39.535   3.216
74146ION    NA+45729  30.805  15.519   2.111
74147ION    NA+45730   6.270  14.255   1.735
74148ION    NA+45731   4.857   3.056  12.405
74149ION    NA+45732  32.023  31.854  13.308
74150ION    NA+45733  18.052  16.286   1.826
74151ION    NA+45734  13.053  10.742   3.006
74152ION    NA+45735  26.427  42.821  11.714
74153ION    NA+45736  26.631  23.310  11.570
74154ION    NA+45737  40.345  40.826  11.649
74155ION    NA+45738  38.534  24.884   3.066
74156ION    NA+45739  26.610  39.583  11.146
74157ION    NA+45740  32.746   4.520  14.282
74158ION    NA+45741  18.113   0.372  10.602
74159ION    NA+45742   4.149  18.217  12.888
74160ION    NA+45743  20.526  40.701  14.677
74161ION    NA+45744  43.211  20.567   4.457
74162ION    NA+45745  43.981  25.970   0.832
74163ION    NA+45746  15.259  40.889  14.249
74164ION    NA+45747  44.918   9.700  14.586
74165ION    NA+45748  40.788  42.652  11.522
74166ION    NA+45749  32.123   4.091   3.557
74167ION    NA+45750  13.037   6.765  13.399
74168ION    NA+45751  41.190  39.258  12.257
74169ION    NA+45752  34.344  22.659   1.408
74170ION    NA+45753   1.185   5.052  14.860
74171ION    NA+45754  27.252  35.856   1.306
74172ION    NA+45755  37.490   9.332  13.316
74173ION    NA+45756  42.931  17.644  14.876
74174ION    NA+45757   8.930  19.326  12.846
74175ION    NA+45758  19.162  43.673  11.346
74176ION    NA+45759   3.897  34.003   3.637
74177ION    NA+45760   7.681  24.856  14.889
74178ION    NA+45761   0.380  12.427  14.688
74179ION    NA+45762   2.797  33.529  10.781
74180ION    NA+45763  14.120  27.367   4.828
74181ION    NA+45764  11.028   0.167  14.516
74182ION    NA+45765  40.506  30.900  11.509
74183ION    NA+45766   3.501   9.247  11.940
74184ION    NA+45767  25.761  28.448   0.276
74185ION    NA+45768  32.558  39.913   3.573
74186ION    NA+45769  21.510  30.785  13.812
74187ION    NA+45770  26.312   4.553  14.765
74188ION    NA+45771   9.937  34.821  11.546
74189ION    NA+45772  40.880   2.321   4.267
74190ION    NA+45773   5.865  33.131  12.070
74191ION    NA+45774  13.906  25.169   2.021
74192ION    NA+45775   5.830  26.932   0.960
74193ION    NA+45776  21.414  31.269  11.618
74194ION    NA+45777  32.065  21.670  12.912
74195ION    NA+45778  16.342  13.835  12.917
74196ION    NA+45779  34.832  34.697   3.629
74197ION    NA+45780  10.131   8.735  11.476
74198ION    NA+45781  34.443   9.437  14.451
74199ION    NA+45782  22.795  12.342  13.356
74200ION    NA+45783  30.600  32.310   0.276
74201ION    NA+45784  33.264   5.437  14.374
74202ION    NA+45785  31.178  16.430   0.068
74203ION    NA+45786   2.596  26.471  11.391
74204ION    NA+45787  16.315  35.094  14.298
74205ION    NA+45788  21.232   0.993  13.279
74206ION    NA+45789   8.001  34.861   1.239
74207ION    NA+45790  30.629  28.532  10.813
74208ION    NA+45791  22.555  30.701   4.040
74209ION    NA+45792  39.034  22.760  14.545
74210ION    NA+45793  43.064  42.938   3.093
74211ION    NA+45794  40.865  32.857  11.597
74212ION    NA+45795  41.001  19.819  10.543
74213ION    NA+45796  38.395  16.754  11.597
74214ION    NA+45797  16.244   9.183   3.122
74215ION    NA+45798  22.197  12.254   2.697
74216ION    NA+45799  41.181  43.497   0.731
74217ION    NA+45800  39.568  28.978   3.150
74218ION    NA+45801  15.426  27.692   3.462
74219ION    NA+45802  12.668   4.690   0.752
74220ION    NA+45803  23.310  44.790   1.457
74221ION    NA+45804  12.354  40.480  13.409
74222ION    NA+45805   9.308  41.102  12.494
74223ION    NA+45806  26.397  29.309   0.874
74224ION    NA+45807  39.035  17.765   4.655
74225ION    NA+45808  17.930  34.112   0.565
74226ION    NA+45809  28.637  32.666   4.361
74227ION    NA+45810  34.619  32.487  13.988
74228ION    NA+45811  17.543  34.879   0.276
74229ION    NA+45812  43.300  10.430  11.696
74230ION    NA+45813  36.848  17.767  12.510
74231ION    NA+45814   1.759  18.837   0.393
74232ION    NA+45815  15.708  33.908   2.531
74233ION    NA+45816  24.496  18.072   1.191
74234ION    NA+45817  30.013  12.445  11.101
74235ION    NA+45818  27.947   4.316   2.821
74236ION    NA+45819  18.642   8.602  11.633
74237ION    NA+45820  24.427  36.444   0.121
74238ION    NA+45821  15.819  18.704   5.439
74239ION    NA+45822  22.573  30.957  10.624
74240ION    NA+45823  17.813  32.826   1.409
74241ION    NA+45824  19.877  11.857  14.124
74242ION    NA+45825  17.760   9.286   1.726
74243ION    NA+45826  39.864  13.871   0.859
74244ION    NA+45827  28.327  12.819  14.922
74245ION    NA+45828  35.475  44.534   3.362
74246ION    NA+45829  10.160  39.418  10.305
74247ION    NA+45830  13.092  10.967  11.357
74248ION    NA+45831  12.944  11.595   9.673
74249ION    NA+45832  24.173   4.753   0.493
74250ION    NA+45833   4.028  38.996  13.404
74251ION    NA+45834  28.419  30.851  12.967
74252ION    NA+45835  41.112  44.291  12.640
74253ION    NA+45836  34.597  26.511  10.702
74254ION    NA+45837  32.148  39.095  11.341
74255ION    NA+45838  33.189  17.249   4.655
74256ION    NA+45839  26.514   3.453  12.084
74257ION    NA+45840   2.419  39.599  12.103
74258ION    NA+45841   8.530  33.131  11.136
74259ION    NA+45842   4.008  29.511  14.684
74260ION    NA+45843   7.427   1.798   0.737
74261ION    NA+45844  44.240   2.989   2.940
74262ION    NA+45845  26.172  38.773  10.632
74263ION    NA+45846  40.684   6.483   2.320
74264ION    NA+45847  21.312  22.279  11.238
74265ION    NA+45848  30.118  10.619  12.905
74266ION    NA+45849  33.926  37.652   9.763
74267ION    NA+45850   4.792  15.023   5.188
74268ION    NA+45851  40.313  13.221   4.206
74269ION    NA+45852  21.857   9.137   2.629
74270ION    NA+45853  13.488   4.480  12.687
74271ION    NA+45854  14.878  41.767   1.409
74272ION    NA+45855  21.603  30.826  12.495
74273ION    NA+45856  26.923  17.707   2.260
74274ION    NA+45857  29.027   3.733   2.457
74275ION    NA+45858  16.251  18.612  12.183
74276ION    NA+45859  15.227  18.733   2.934
74277ION    NA+45860  25.340  32.559   3.018
74278ION    NA+45861  15.738  35.011   1.517
74279ION    NA+45862   5.141  26.253   2.618
74280ION    NA+45863  31.376  11.406  12.913
74281ION    NA+45864  16.184  13.695   0.527
74282ION    NA+45865   2.019  42.363  13.224
74283ION    NA+45866   6.310  41.910   3.549
74284ION    NA+45867   6.705  42.155   1.031
74285ION    NA+45868  10.952   6.765   3.277
74286ION    NA+45869  14.643   3.904  12.792
74287ION    NA+45870  17.191   8.922  12.951
74288ION    NA+45871  20.216   1.199   2.125
74289ION    NA+45872  34.761   3.455  10.351
74290ION    NA+45873  12.180  12.602   0.944
74291ION    NA+45874  31.838   8.644   0.360
74292ION    NA+45875  11.580  25.616  12.514
74293ION    NA+45876  12.984  25.250   1.502
74294ION    NA+45877  26.416  32.489   5.104
74295ION    NA+45878   8.808   1.020   0.810
74296ION    NA+45879  41.245   2.421   0.461
74297ION    NA+45880   9.196  11.992  12.547
74298ION    NA+45881  35.832  30.644  11.378
74299ION    NA+45882   9.852   7.594  11.098
74300ION    NA+45883  34.741  10.476   2.683
74301ION    NA+45884   5.557  32.428   2.562
74302ION    NA+45885   4.704  15.733  14.972
74303ION    NA+45886   8.578  37.045   5.083
74304ION    NA+45887   1.122   9.590   0.052
74305ION    NA+45888  40.990  44.502   4.613
74306ION    NA+45889  24.914  12.602  11.924
74307ION    NA+45890  39.435  22.213  13.473
74308ION    NA+45891   2.543  36.190   2.905
74309ION    NA+45892  30.105   0.479   2.315
74310ION    NA+45893  25.335  23.779   3.679
74311ION    NA+45894  21.361  40.226   0.713
74312ION    NA+45895  35.487  11.233   1.348
74313ION    NA+45896  40.502  43.401  10.727
74314ION    NA+45897   4.885  24.625  11.585
74315ION    NA+45898   3.896  17.760   2.840
74316ION    NA+45899   6.409  28.878  12.830
74317ION    NA+45900  22.604  35.873  11.831
74318ION    NA+45901  37.520   6.823   4.224
74319ION    NA+45902  19.854  37.080   2.301
74320ION    NA+45903   4.960  15.254  11.210
74321ION    NA+45904  10.864  29.253  14.925
74322ION    NA+45905  21.518  26.347  14.222
74323ION    NA+45906  13.038  22.365   3.991
74324ION    NA+45907  44.539  14.758  10.606
74325ION    NA+45908  23.853  20.955  10.164
74326ION    NA+45909  30.887   1.523  12.526
74327ION    NA+45910  42.975  37.408  10.977
74328ION    NA+45911  22.262  40.287  11.174
74329ION    NA+45912  16.449  17.342   2.009
74330ION    NA+45913   2.843  44.504  10.751
74331ION    NA+45914  36.423  23.052   3.811
74332ION    NA+45915  21.536  38.361   0.231
74333ION    NA+45916   1.267  10.272   4.517
74334ION    NA+45917  29.478  22.300   5.546
74335ION    NA+45918   4.003  26.077   1.982
74336ION    NA+45919  25.966   2.369  14.510
74337ION    NA+45920  41.603  33.530  14.792
74338ION    NA+45921  30.207  20.427  10.939
74339ION    NA+45922  11.071  28.858   4.179
74340ION    NA+45923   6.910   2.339  10.732
74341ION    NA+45924  10.785  25.663   3.456
74342ION    NA+45925  33.405  21.435  14.656
74343ION    NA+45926  11.645  40.920   0.195
74344ION    NA+45927  37.026   9.995   5.051
74345ION    NA+45928  12.999  42.092   0.157
74346ION    NA+45929   3.580   6.447   2.514
74347ION    NA+45930  40.474   1.002   4.176
74348ION    NA+45931  15.914  34.337   3.410
74349ION    NA+45932  21.930   2.238  13.978
74350ION    NA+45933  26.796  25.761   2.970
74351ION    NA+45934   0.225  31.259  14.383
74352ION    NA+45935  11.850   2.686  11.931
74353ION    NA+45936   6.909  10.276  10.611
74354ION    NA+45937  23.142  27.878   2.363
74355ION    NA+45938  34.040  23.733   4.784
74356ION    NA+45939  22.890  40.964   3.305
74357ION    NA+45940  18.799  15.560   3.992
74358ION    NA+45941  43.514  39.109  13.979
74359ION    NA+45942   8.510  15.250   1.272
74360ION    NA+45943  34.393   6.951   4.233
74361ION    NA+45944   7.397  40.894   3.210
74362ION    NA+45945  36.594   3.777  11.104
74363ION    NA+45946  34.821  40.625  12.120
74364ION    NA+45947  31.642   3.195  13.465
74365ION    NA+45948   5.147  17.242  10.027
74366ION    NA+45949  30.443   1.085   0.926
74367ION    NA+45950  28.708  29.211   1.422
74368ION    NA+45951   1.374  43.294   1.185
74369ION    NA+45952  31.687  12.567   0.901
74370ION    NA+45953  10.311   5.282  12.382
74371ION    NA+45954  14.964  27.208  13.723
74372ION    NA+45955  12.761   0.234  10.676
74373ION    NA+45956  17.931  10.514   3.636
74374ION    NA+45957  18.929  18.221  12.533
74375ION    NA+45958  10.503  19.175   1.237
74376ION    NA+45959  11.577  33.839   2.678
74377ION    NA+45960  39.235   2.178   4.251
74378ION    NA+45961  24.266  23.276  14.860
74379ION    NA+45962   9.615  37.180  11.409
74380ION    NA+45963   2.289   0.900  12.318
74381ION    NA+45964  40.344  21.575   0.501
74382ION    NA+45965  34.545  10.174   3.530
74383ION    NA+45966   1.532  13.684  13.226
74384ION    NA+45967  33.370  26.171  10.101
74385ION    NA+45968   8.258   8.943  11.040
74386ION    NA+45969  28.522  19.143   0.966
74387ION    NA+45970  34.240  15.293  11.198
74388ION    NA+45971  15.891  15.355  11.190
74389ION    NA+45972  19.991  39.607   4.928
74390ION    NA+45973  11.838  19.715   5.185
74391ION    NA+45974   0.508   3.175  13.215
74392ION    NA+45975   9.733  30.130  12.505
74393ION    NA+45976  15.633  31.136  12.198
74394ION    NA+45977  29.683  33.592  11.966
74395ION    NA+45978   3.557  40.102  13.802
74396ION    NA+45979  32.015   1.913   1.580
74397ION    NA+45980  36.801   1.212   4.448
74398ION    NA+45981  13.084  43.157  14.751
74399ION    NA+45982  10.675  40.755  14.372
74400ION    NA+45983  41.918  19.985  13.137
74401ION    NA+45984   3.938  19.662   0.708
74402ION    NA+45985  25.362  23.609  13.542
74403ION    NA+45986  13.595   0.541   0.857
74404ION    NA+45987  15.647  43.451  14.433
74405ION    NA+45988  25.755  37.226  13.553
74406ION    NA+45989  13.756  24.595  11.121
74407ION    NA+45990  29.640  25.988  10.007
74408ION    NA+45991  42.466  32.043   4.119
74409ION    NA+45992  42.621  34.427  14.979
74410ION    NA+45993  44.467  12.369   2.023
74411ION    NA+45994  39.399   7.827   3.732
74412ION    NA+45995  37.361   6.180   1.475
74413ION    NA+45996  20.303  26.047  13.743
74414ION    NA+45997  37.761  10.185  13.339
74415ION    NA+45998  26.319  24.479  13.028
74416ION    NA+45999  12.928   3.671   4.620
74417ION    NA+46000  33.943  13.555  10.932
74418ION    NA+46001   2.580  27.883  11.596
74419ION    NA+46002  17.005  33.635   2.839
74420ION    NA+46003  30.952  11.065  11.502
74421ION    NA+46004  44.928  11.661  14.564
74422ION    NA+46005  20.287   6.359   2.673
74423ION    NA+46006  33.530  44.871   9.958
74424ION    NA+46007   3.758  36.980  11.840
74425ION    NA+46008  31.142  29.191  12.458
74426ION    NA+46009  32.365  10.575   2.929
74427ION    NA+46010  12.792  23.433  14.694
74428ION    NA+46011  31.332  21.789  10.287
74429ION    NA+46012  13.207  16.238  12.571
74430ION    NA+46013  40.425  44.002  11.584
74431ION    NA+46014   4.259  42.433   4.499
74432ION    NA+46015  20.752  11.698  14.012
74433ION    NA+46016  13.265   5.650   2.200
74434ION    NA+46017  31.862  26.549  13.857
74435ION    NA+46018  35.544  38.434  12.101
74436ION    NA+46019  43.369  29.059   3.025
74437ION    NA+46020  12.303  18.392  13.543
74438ION    NA+46021  30.629  37.010   4.355
74439ION    NA+46022  28.278  29.406   5.242
74440ION    NA+46023  29.737  34.521   4.284
74441ION    NA+46024  27.593  30.143  14.410
74442ION    NA+46025   0.826   0.202   2.783
74443ION    NA+46026  24.357  39.381   4.856
74444ION    NA+46027  26.303  35.250   0.712
74445ION    NA+46028  32.368  21.968   0.560
74446ION    NA+46029  34.842  42.452  13.081
74447ION    NA+46030  30.470  10.106  13.813
74448ION    NA+46031  20.618  39.049  12.141
74449ION    NA+46032   9.207   2.698  12.500
74450ION    NA+46033  38.038   0.877  14.411
74451ION    NA+46034  42.265  14.173   3.169
74452ION    NA+46035  20.123   0.280  13.428
74453ION    NA+46036  11.834  43.983   3.775
74454ION    NA+46037   0.872   9.068   2.272
74455ION    NA+46038  25.523  11.607   4.380
74456ION    NA+46039  39.130  14.657  10.871
74457ION    NA+46040  41.549  12.434   9.726
74458ION    NA+46041  35.832  38.840   4.484
74459ION    NA+46042  24.562   5.307   2.309
74460ION    NA+46043   7.481  40.548  10.002
74461ION    NA+46044  40.536  24.990  11.594
74462ION    NA+46045  36.373  30.411   3.106
74463ION    NA+46046  14.465  35.911   4.766
74464ION    NA+46047  25.681  13.625  13.444
74465ION    NA+46048  31.967  26.509   3.303
74466ION    NA+46049  28.801   9.255   4.710
74467ION    NA+46050  19.276  34.339  10.650
74468ION    NA+46051  43.974  30.927   2.073
74469ION    NA+46052  30.408  40.627   1.314
74470ION    NA+46053  16.130  22.243  11.445
74471ION    NA+46054  19.837  11.286  10.708
74472ION    NA+46055   0.516  16.634  13.844
74473ION    NA+46056  31.937  35.887   1.914
74474ION    NA+46057   6.305  17.734  13.790
74475ION    NA+46058  27.246  34.240   0.287
74476ION    NA+46059   2.994   1.277  10.763
74477ION    NA+46060  18.729   6.519  12.187
74478ION    NA+46061  41.380   6.827  12.479
74479ION    NA+46062  29.423  37.775  14.425
74480ION    NA+46063  24.568   1.325   3.420
74481ION    NA+46064  21.977  14.308  11.762
74482ION    NA+46065   2.565  11.835  12.606
74483ION    NA+46066  17.679  33.167   3.410
74484ION    NA+46067  37.120   8.418   3.751
74485ION    NA+46068   9.776  39.500  12.386
74486ION    NA+46069  10.307  41.449   4.270
74487ION    NA+46070  33.443  41.549   3.120
74488ION    NA+46071  43.912  42.836   1.630
74489ION    NA+46072   2.355  19.159  14.657
74490ION    NA+46073  12.630   7.219  14.253
74491ION    NA+46074  20.208  41.315  11.984
74492ION    NA+46075  22.061  14.585   1.674
74493ION    NA+46076  33.468  29.451   1.745
74494ION    NA+46077  26.459   3.363  13.079
74495ION    NA+46078  34.463  26.518   0.412
74496ION    NA+46079  15.305  16.781   0.861
74497ION    NA+46080   6.940  13.205   0.318
74498ION    NA+46081  19.119  25.192   1.000
74499ION    NA+46082   9.613  26.599   0.018
74500ION    NA+46083  38.055  24.795  11.829
74501ION    NA+46084  16.644  30.451   2.286
74502ION    NA+46085  23.432   4.425   4.509
74503ION    NA+46086  36.915  21.366   2.733
74504ION    NA+46087  36.553   9.877  11.809
74505ION    NA+46088   0.752  17.599  12.182
74506ION    NA+46089  38.369  17.164   4.212
74507ION    NA+46090  14.299  38.722   1.863
74508ION    NA+46091  39.471  31.498   2.353
74509ION    NA+46092  24.177  10.464   2.672
74510ION    NA+46093  12.051  29.231  10.609
74511ION    NA+46094   4.037  22.163  13.688
74512ION    NA+46095  23.719   9.549  13.579
74513ION    NA+46096  24.924  35.781   3.252
74514ION    NA+46097  19.563  10.395   1.967
74515ION    NA+46098   9.113   8.252  10.810
74516ION    NA+46099  40.095   5.945  14.280
74517ION    NA+46100   7.676  25.161   2.117
74518ION    NA+46101  17.939  19.117  13.799
74519ION    NA+46102   8.980  25.132  14.937
74520ION    NA+46103   0.811  33.673  12.337
74521ION    NA+46104  23.073   7.441  12.864
74522ION    CL-46105  36.325  23.630   0.192
74523ION    CL-46106  28.508   6.969   4.095
74524ION    CL-46107  12.421  17.120  14.043
74525ION    CL-46108  29.162  16.516   0.882
74526ION    CL-46109  17.757  20.847  12.013
74527ION    CL-46110  19.858  13.150  12.131
74528ION    CL-46111   8.380  14.707  12.628
74529ION    CL-46112  18.046  34.926   3.661
74530ION    CL-46113  11.647  33.893   4.030
74531ION    CL-46114   0.431  19.330   0.017
74532ION    CL-46115  34.167  16.291   3.619
74533ION    CL-46116   9.076  33.030   2.429
74534ION    CL-46117  33.878  40.827  14.460
74535ION    CL-46118  43.377   8.344  12.581
74536ION    CL-46119  31.385  16.636   0.420
74537ION    CL-46120  39.134  31.196  11.960
74538ION    CL-46121  17.165  36.620   4.112
74539ION    CL-46122  36.300  19.911  10.128
74540ION    CL-46123   1.953   1.903  11.180
74541ION    CL-46124   5.114   7.016   4.591
74542ION    CL-46125  19.457  37.052   2.092
74543ION    CL-46126  16.051  33.653  14.441
74544ION    CL-46127  19.000  33.668   0.298
74545ION    CL-46128  34.243  40.436   3.318
74546ION    CL-46129  21.068  32.180   3.054
74547ION    CL-46130   7.072  16.393   3.919
74548ION    CL-46131  32.890  20.011  14.400
74549ION    CL-46132  16.576  32.842  10.911
74550ION    CL-46133  19.435  17.522   1.731
74551ION    CL-46134  41.521  12.399  13.514
74552ION    CL-46135  25.054  30.671  13.733
74553ION    CL-46136   3.664  31.357  11.543
74554ION    CL-46137  31.898   9.219  11.734
74555ION    CL-46138  18.771   3.940  11.102
74556ION    CL-46139   3.228  35.302   4.288
74557ION    CL-46140  24.677  41.291   3.188
74558ION    CL-46141   0.080   7.535  11.502
74559ION    CL-46142  40.866  41.920   1.946
74560ION    CL-46143  23.505  42.247  13.581
74561ION    CL-46144  42.809  35.809  11.072
74562ION    CL-46145   0.586   3.601  13.356
74563ION    CL-46146  29.653  22.042  11.282
74564ION    CL-46147   8.753  14.749   3.697
74565ION    CL-46148  32.358  24.200   4.977
74566ION    CL-46149  30.653   5.206  13.107
74567ION    CL-46150  43.561   7.196  14.109
74568ION    CL-46151   5.120  39.319  11.193
74569ION    CL-46152   3.844  17.727  14.485
74570ION    CL-46153  27.868  18.366  11.060
74571ION    CL-46154  17.106  11.096   4.744
74572ION    CL-46155  43.884  23.084   1.956
74573ION    CL-46156  16.897  43.859  13.032
74574ION    CL-46157  31.764   4.541  14.722
74575ION    CL-46158  36.061  12.294   5.091
74576ION    CL-46159  40.064  37.057   0.384
74577ION    CL-46160  33.805  33.241  13.892
74578ION    CL-46161  34.541   4.856  12.464
74579ION    CL-46162  22.128  10.529   0.502
74580ION    CL-46163   0.677  15.989  14.853
74581ION    CL-46164  25.601   6.505  12.981
74582ION    CL-46165  14.351   7.920  13.390
74583ION    CL-46166  14.486  38.484   4.309
74584ION    CL-46167  10.482  20.593   1.827
74585ION    CL-46168  31.971  24.546   0.418
74586ION    CL-46169  29.658  16.471   2.536
74587ION    CL-46170  14.056  10.790  12.183
74588ION    CL-46171  18.092  10.096   3.649
74589ION    CL-46172   2.101   6.249  10.676
74590ION    CL-46173  29.719  36.459   1.026
74591ION    CL-46174  38.580  36.444   1.961
74592ION    CL-46175   8.753   8.689   2.713
74593ION    CL-46176   2.070   1.044   0.946
74594ION    CL-46177  14.981  11.241   1.380
74595ION    CL-46178  23.163  41.031   2.912
74596ION    CL-46179   4.239   5.014  14.835
74597ION    CL-46180  22.683  31.566  12.390
74598ION    CL-46181  32.364  15.108  12.382
74599ION    CL-46182   2.473   7.234   0.480
74600ION    CL-46183  26.691  12.963   1.452
74601ION    CL-46184  25.954  17.293  12.688
74602ION    CL-46185  22.406  32.974   0.645
74603ION    CL-46186  16.482  24.921  14.143
74604ION    CL-46187  31.606  35.968  14.588
74605ION    CL-46188  44.100  14.866  10.858
74606ION    CL-46189  27.078  39.429   3.623
74607ION    CL-46190  43.856  22.972   3.034
74608ION    CL-46191  41.498  17.391  11.056
74609ION    CL-46192  13.017  19.705   3.982
74610ION    CL-46193   0.235   9.225  11.396
74611ION    CL-46194  25.454  23.579  13.098
74612ION    CL-46195  10.119  12.263   4.977
74613ION    CL-46196  30.367  41.179  10.343
74614ION    CL-46197  21.310  32.103   4.764
74615ION    CL-46198  17.576  22.709   4.613
74616ION    CL-46199  12.403   0.968   3.321
74617ION    CL-46200  10.418   3.635  10.374
74618ION    CL-46201   7.872  44.901  11.131
74619ION    CL-46202  32.027  21.827   0.809
74620ION    CL-46203  35.185  40.395  12.289
74621ION    CL-46204  17.752  34.492   0.389
74622ION    CL-46205   1.290  14.802  12.100
74623ION    CL-46206   6.428  20.233   2.276
74624ION    CL-46207  17.113   4.953   2.981
74625ION    CL-46208  15.061   4.371   4.122
74626ION    CL-46209  32.596  13.402   0.753
74627ION    CL-46210   7.931  15.545   4.228
74628ION    CL-46211   1.649  19.360   3.313
74629ION    CL-46212  14.124  27.060   4.478
74630ION    CL-46213  25.513  11.618   3.932
74631ION    CL-46214   6.741  28.806  12.537
74632ION    CL-46215  23.410  28.203  12.982
74633ION    CL-46216  29.666  24.907  11.923
74634ION    CL-46217  22.639   7.361  13.842
74635ION    CL-46218   5.142  40.860  14.942
74636ION    CL-46219  16.892  18.099   4.175
74637ION    CL-46220   0.199  12.013  14.705
74638ION    CL-46221  39.066  41.467   1.387
74639ION    CL-46222   5.560  32.457   2.115
74640ION    CL-46223  11.850  19.252   1.155
74641ION    CL-46224   1.128  43.763  11.851
74642ION    CL-46225   3.738   8.774   2.893
74643ION    CL-46226  33.884   1.939   3.006
74644ION    CL-46227  10.035  23.494   0.761
74645ION    CL-46228  26.207  18.433  13.485
74646ION    CL-46229  33.895  41.576   0.953
74647ION    CL-46230  35.124  18.826   3.966
74648ION    CL-46231  42.377  42.575   2.261
74649ION    CL-46232  38.869  43.813  13.953
74650ION    CL-46233   4.031  20.826  13.825
74651ION    CL-46234  42.873   9.370   3.148
74652ION    CL-46235  15.155  31.869  10.787
74653ION    CL-46236   9.410  43.617  12.111
74654ION    CL-46237   3.718  16.311   0.309
74655ION    CL-46238  16.387  16.868  14.399
74656ION    CL-46239  26.814   7.346   2.602
74657ION    CL-46240  23.853   7.749  14.829
74658ION    CL-46241  18.337  23.323   0.258
74659ION    CL-46242  36.518  19.884  13.148
74660ION    CL-46243  16.533  19.621  12.942
74661ION    CL-46244   6.225  20.737   9.845
74662ION    CL-46245  18.965  23.238  14.402
74663ION    CL-46246   8.893  41.249  12.561
74664ION    CL-46247   4.149  18.090   2.678
74665ION    CL-46248  43.669   3.433   4.024
74666ION    CL-46249  40.328  30.521   9.905
74667ION    CL-46250   5.349   6.190  14.639
74668ION    CL-46251  17.641   3.288   4.062
74669ION    CL-46252  19.995  44.518   3.700
74670ION    CL-46253  28.111  40.331  14.484
74671ION    CL-46254  14.375   7.186  14.068
74672ION    CL-46255  33.339  38.382   3.313
74673ION    CL-46256  30.344  23.918   0.783
74674ION    CL-46257  44.416  28.629  13.007
74675ION    CL-46258  32.994   2.985   0.779
74676ION    CL-46259  15.636  25.309  12.594
74677ION    CL-46260  30.891  37.125   4.708
74678ION    CL-46261  18.663  14.833  14.915
74679ION    CL-46262   0.320   2.594  10.455
74680ION    CL-46263  18.293  39.147   1.987
74681ION    CL-46264  31.444  34.502  12.102
74682ION    CL-46265  15.945  29.959  11.088
74683ION    CL-46266  17.041  20.342  13.414
74684ION    CL-46267   7.132  35.830   0.994
74685ION    CL-46268  10.644  33.527  12.341
74686ION    CL-46269  12.965  10.847   3.434
74687ION    CL-46270   6.608   8.918   4.250
74688ION    CL-46271  43.832   2.905   3.126
74689ION    CL-46272  23.059   9.504   1.705
74690ION    CL-46273  28.801  26.530   0.385
74691ION    CL-46274  41.128  42.757  11.806
74692ION    CL-46275  42.143  22.055  14.388
74693ION    CL-46276  29.445   1.373   0.499
74694ION    CL-46277  38.775   4.839   3.070
74695ION    CL-46278  34.215  16.259   0.052
74696ION    CL-46279  12.332  25.015  12.098
74697ION    CL-46280   7.060   9.757  14.374
74698ION    CL-46281   2.090  16.272   4.621
74699ION    CL-46282  37.142  35.293  13.147
74700ION    CL-46283  18.750  14.072   0.567
74701ION    CL-46284  11.754   6.262   3.675
74702ION    CL-46285  27.597  35.420   3.283
74703ION    CL-46286   6.847   2.253   2.023
74704ION    CL-46287  19.582   3.061  13.283
74705ION    CL-46288  32.287  25.004   5.136
74706ION    CL-46289  14.431   3.718  14.302
74707ION    CL-46290  28.065  26.476  12.479
74708ION    CL-46291  29.208   2.480   4.586
74709ION    CL-46292   7.638  44.988  14.412
74710ION    CL-46293   2.023  20.099  11.951
74711ION    CL-46294  43.410  39.567   4.331
74712ION    CL-46295  39.952  32.486  12.884
74713ION    CL-46296  39.585   3.242   2.113
74714ION    CL-46297  33.945  36.290   2.720
74715ION    CL-46298   2.926  31.338  12.960
74716ION    CL-46299  16.351  33.605  10.268
74717ION    CL-46300  36.458  36.994  14.249
74718ION    CL-46301  38.000  31.638   0.812
74719ION    CL-46302  39.796   5.728  14.548
74720ION    CL-46303  16.835  43.347   2.992
74721ION    CL-46304   1.700  19.310   2.316
74722ION    CL-46305  28.674   7.926  10.287
74723ION    CL-46306  29.889  24.851   0.801
74724ION    CL-46307  12.506  42.254   3.655
74725ION    CL-46308   9.455  29.501   4.169
74726ION    CL-46309  27.653  32.500  10.209
74727ION    CL-46310   0.423  29.889   2.731
74728ION    CL-46311  29.266  34.201   1.294
74729ION    CL-46312  36.509   5.252  13.250
74730ION    CL-46313  24.219  42.489   3.677
74731ION    CL-46314  36.469  40.359   4.124
74732ION    CL-46315  22.023  16.603  10.636
74733ION    CL-46316  10.593  11.072  11.181
74734ION    CL-46317  39.008  24.160  14.855
74735ION    CL-46318  30.445  20.548  10.581
74736ION    CL-46319   9.034  22.505  10.392
74737ION    CL-46320  32.969  38.419  13.056
74738ION    CL-46321  42.737  31.750   4.361
74739ION    CL-46322   4.407  32.024  11.489
74740ION    CL-46323  32.076  10.071   4.936
74741ION    CL-46324   2.084  10.308  14.409
74742ION    CL-46325  37.129   3.491   0.938
74743ION    CL-46326  41.433  22.814   0.712
74744ION    CL-46327   1.219  15.548   1.880
74745ION    CL-46328  34.396   4.741  11.481
74746ION    CL-46329   4.706   2.792  10.173
74747ION    CL-46330  14.593  19.024   5.046
74748ION    CL-46331  30.962   8.517  13.236
74749ION    CL-46332  42.866  28.100  14.646
74750ION    CL-46333  39.410  25.458  13.508
74751ION    CL-46334  36.562  32.319   1.017
74752ION    CL-46335  13.953  24.322  10.826
74753ION    CL-46336   6.759  37.893   2.323
74754ION    CL-46337  13.430  36.798  14.343
74755ION    CL-46338  20.173  18.805   2.436
74756ION    CL-46339   2.419  40.165   4.169
74757ION    CL-46340  17.622   1.243   1.324
74758ION    CL-46341  29.621  38.334   4.055
74759ION    CL-46342  26.372  42.226   1.262
74760ION    CL-46343   3.574  41.621   1.820
74761ION    CL-46344  30.364  37.493  14.902
74762ION    CL-46345   4.558  16.243  14.015
74763ION    CL-46346  37.857  44.813  10.789
74764ION    CL-46347  18.767  17.016   3.172
74765ION    CL-46348  32.039  12.855   2.507
74766ION    CL-46349  16.569  36.973  13.541
74767ION    CL-46350   1.410  25.481  14.212
74768ION    CL-46351  22.578   9.812   0.796
74769ION    CL-46352  33.271  21.631   0.909
74770ION    CL-46353  15.091  19.563  14.781
74771ION    CL-46354  44.400  25.959   3.503
74772ION    CL-46355  25.930   7.928  10.517
74773ION    CL-46356  29.353  21.182  13.714
74774ION    CL-46357   3.285  16.124   1.382
74775ION    CL-46358  35.915  30.308  14.486
74776ION    CL-46359  35.513  21.986  10.847
74777ION    CL-46360   2.452  35.958   3.310
74778ION    CL-46361  24.790  24.587  14.938
74779ION    CL-46362  12.394  39.266   1.508
74780ION    CL-46363  43.007  22.491   0.773
74781ION    CL-46364  11.209  44.798  14.690
74782ION    CL-46365   5.327  44.195  11.245
74783ION    CL-46366  30.628  10.284  14.204
74784ION    CL-46367  30.903  15.449   2.540
74785ION    CL-46368  34.590   7.359   1.156
74786ION    CL-46369  30.702   1.460  11.048
74787ION    CL-46370  38.520   6.792  13.343
74788ION    CL-46371  31.906  35.717   2.334
74789ION    CL-46372  25.787  19.423   2.646
74790ION    CL-46373  42.835  11.444  11.483
74791ION    CL-46374  29.022  23.022   4.616
74792ION    CL-46375   6.316   2.443  13.850
74793ION    CL-46376  31.700   5.902  13.616
74794ION    CL-46377  30.518  39.919   2.859
74795ION    CL-46378  30.993  43.565   0.913
74796ION    CL-46379  36.911  36.225   0.707
74797ION    CL-46380  38.570  23.613  12.194
74798ION    CL-46381  25.969  29.275   1.024
74799ION    CL-46382  15.889  44.378  11.484
74800ION    CL-46383   1.821  44.006  11.171
74801ION    CL-46384  18.121  17.682  14.278
74802ION    CL-46385  33.836  43.745   1.417
74803ION    CL-46386   6.996  15.190   2.195
74804ION    CL-46387  40.314   8.527  10.177
74805ION    CL-46388  11.910   9.880  12.854
74806ION    CL-46389  44.353   4.163  10.136
74807ION    CL-46390  34.263  25.610   2.907
74808ION    CL-46391  42.205   8.951   4.956
74809ION    CL-46392  21.104   4.204   4.993
74810ION    CL-46393  29.583  22.460  14.385
74811ION    CL-46394  21.194  24.024   1.324
74812ION    CL-46395  25.379  13.626  14.911
74813ION    CL-46396  15.064  27.856   3.666
74814ION    CL-46397  34.199   2.050   3.948
74815ION    CL-46398   2.216   4.820   5.210
74816ION    CL-46399  27.845  14.798  12.186
74817ION    CL-46400  11.023  43.003   2.784
74818ION    CL-46401   6.474   1.381   0.934
74819ION    CL-46402  29.908  41.099  13.218
74820ION    CL-46403  18.261   5.468   3.804
74821ION    CL-46404   3.548  37.009  10.366
74822ION    CL-46405   2.222  21.134   0.367
74823ION    CL-46406  40.289   9.704  14.481
74824ION    CL-46407   0.033   5.726  11.470
74825ION    CL-46408   1.780  31.062  14.289
74826ION    CL-46409  28.183  22.124  13.589
74827ION    CL-46410   0.238  11.960  10.770
74828ION    CL-46411  29.235  42.109  14.615
74829ION    CL-46412  40.800   1.766  11.799
74830ION    CL-46413  11.866   4.585  12.399
74831ION    CL-46414  43.925  27.605   3.940
74832ION    CL-46415   7.700  30.352  11.323
74833ION    CL-46416  21.227  35.486   4.080
74834ION    CL-46417  13.201   6.554   0.108
74835ION    CL-46418  31.700   8.325  11.625
74836ION    CL-46419   8.793  28.359   1.339
74837ION    CL-46420  31.939  40.747  11.913
74838ION    CL-46421  20.510  31.192   9.689
74839ION    CL-46422  20.328  11.854  14.075
74840ION    CL-46423  30.989  24.627   4.117
74841ION    CL-46424   0.771  24.728  14.373
74842ION    CL-46425   6.389  35.839  12.831
74843ION    CL-46426  44.381  35.988  11.931
74844ION    CL-46427  18.643  44.747  14.191
74845ION    CL-46428   3.146  20.281  13.855
74846ION    CL-46429   8.284  29.268  13.521
74847ION    CL-46430  24.607  30.012  14.454
74848ION    CL-46431  34.761  10.766  13.836
74849ION    CL-46432  36.806   6.413   3.332
74850ION    CL-46433  18.214  18.997   4.162
74851ION    CL-46434  14.982  30.194   2.403
74852ION    CL-46435  32.904  18.087  13.938
74853ION    CL-46436  39.325  43.226   4.550
74854ION    CL-46437  28.190  11.369  13.011
74855ION    CL-46438  17.489  11.750   0.877
74856ION    CL-46439  24.724  43.451   3.973
74857ION    CL-46440  11.077  39.306  11.154
74858ION    CL-46441  25.044   1.919  11.065
74859ION    CL-46442   4.039  11.047   2.841
74860ION    CL-46443  16.552  17.243   1.584
74861ION    CL-46444  10.854   1.055   1.214
74862ION    CL-46445  16.889  17.432  10.244
74863ION    CL-46446  26.269   6.348   0.743
74864ION    CL-46447   2.522  28.849  13.088
74865ION    CL-46448  29.597  21.420   3.925
74866ION    CL-46449  35.584  21.087  10.755
74867ION    CL-46450  27.976  41.294   1.223
74868ION    CL-46451  24.947   4.932   4.775
74869ION    CL-46452  41.635  24.715   2.424
74870ION    CL-46453  22.172  12.609  14.904
74871ION    CL-46454  15.775   9.704  11.642
74872ION    CL-46455  11.066  19.637  11.195
74873ION    CL-46456  12.260  14.041   4.148
74874ION    CL-46457  37.444   3.986  14.710
74875ION    CL-46458  40.068   0.387   2.243
74876ION    CL-46459  16.165   6.783  13.926
74877ION    CL-46460   6.199  19.808  14.064
74878ION    CL-46461   8.917  21.972   3.502
74879ION    CL-46462  34.274  15.616   4.349
74880ION    CL-46463   4.098  29.835   1.846
74881ION    CL-46464  42.565  30.236   2.572
74882ION    CL-46465  11.805  30.617  13.991
74883ION    CL-46466  43.523  19.657  13.406
74884ION    CL-46467  25.122  32.932   2.896
74885ION    CL-46468   1.017  39.466   3.673
74886ION    CL-46469  24.471  12.680  11.929
74887ION    CL-46470  25.055  27.295   2.702
74888ION    CL-46471  44.058  44.119   2.261
74889ION    CL-46472  38.391  36.239   0.760
74890ION    CL-46473  16.383  24.763   5.128
74891ION    CL-46474  12.426   5.065   0.793
74892ION    CL-46475  31.730   9.372   2.896
74893ION    CL-46476  15.380  23.173   1.872
74894ION    CL-46477  14.592   3.641   0.773
74895ION    CL-46478  31.117  44.498   3.588
74896ION    CL-46479  15.958  36.485   0.883
74897ION    CL-46480   1.489   5.177  12.499
74898ION    CL-46481   2.612   5.381   4.484
74899ION    CL-46482  44.307  41.408   0.800
74900ION    CL-46483  43.162  13.052  12.817
74901ION    CL-46484  31.685  31.566  13.354
74902ION    CL-46485   4.703  28.056   3.269
74903ION    CL-46486  42.975   8.757   3.931
74904ION    CL-46487  24.870  11.375  12.339
74905ION    CL-46488  18.185   2.396   2.402
74906ION    CL-46489   2.912  22.692  11.950
74907ION    CL-46490  44.477   3.746   1.304
74908ION    CL-46491  17.333   8.392  10.295
74909ION    CL-46492  36.084   1.584   2.311
74910ION    CL-46493  30.462   4.520   3.884
74911ION    CL-46494   0.454  25.339  12.708
74912ION    CL-46495   0.375   8.985   4.653
74913ION    CL-46496  19.805  39.644   4.515
74914ION    CL-46497   3.002  40.834   1.552
74915ION    CL-46498   6.612  32.852   0.279
74916ION    CL-46499  25.411  24.929  11.297
74917ION    CL-46500   9.619  43.303   3.926
74918ION    CL-46501  31.305  40.307   2.321
74919ION    CL-46502  24.179  26.683  12.705
74920ION    CL-46503  12.918   3.785  10.456
74921ION    CL-46504  39.365  14.523   5.199
74922ION    CL-46505   1.515  11.176  11.607
74923ION    CL-46506  24.081   6.276  13.395
74924ION    CL-46507  29.544   1.159   1.506
74925ION    CL-46508  21.422  11.088   5.040
74926ION    CL-46509  21.628  28.381   4.081
74927ION    CL-46510  23.983  33.009   0.909
74928ION    CL-46511  29.441  29.650  13.402
74929ION    CL-46512  21.526  37.682  13.598
74930ION    CL-46513  43.259  22.114   2.367
74931ION    CL-46514  12.451  18.081   4.004
74932ION    CL-46515  44.011  21.456  14.016
74933ION    CL-46516  16.955  44.130  10.032
74934ION    CL-46517   1.498  35.897   1.034
74935ION    CL-46518   6.723  39.242  13.824
74936ION    CL-46519  33.919  43.649  13.744
74937ION    CL-46520   2.074  15.264  12.065
74938ION    CL-46521   7.884  38.628   2.634
74939ION    CL-46522  34.132  33.697   0.354
74940ION    CL-46523  16.739  18.326  10.713
74941ION    CL-46524  40.963  35.741   4.297
74942ION    CL-46525   8.636   1.475   4.263
74943ION    CL-46526   3.700  39.780   4.817
74944ION    CL-46527  15.205  31.550  14.726
74945ION    CL-46528   5.240  10.036   1.146
74946ION    CL-46529   0.446  35.753   0.174
74947ION    CL-46530  12.751  30.413  12.492
74948ION    CL-46531  22.623   1.221   1.650
74949ION    CL-46532  29.710  29.684  11.901
74950ION    CL-46533  39.051  41.182   2.254
74951ION    CL-46534  29.295  32.070   0.808
74952ION    CL-46535  30.223   7.116   3.936
74953ION    CL-46536  11.606   7.929   3.870
74954ION    CL-46537  43.382  20.223   4.228
74955ION    CL-46538  22.439  18.887   5.148
74956ION    CL-46539  15.635  13.495  13.894
74957ION    CL-46540  33.283  29.442   2.163
74958ION    CL-46541  13.137  32.660   2.478
74959ION    CL-46542  31.521  19.456  14.372
74960ION    CL-46543  10.915  26.276  14.739
74961ION    CL-46544  21.183   0.312   1.081
74962ION    CL-46545   8.904   4.420   2.379
74963ION    CL-46546   6.139  24.299  13.349
74964ION    CL-46547  22.199  11.808  14.305
74965ION    CL-46548   9.650  24.746  12.996
74966ION    CL-46549   0.898  13.727   2.297
74967ION    CL-46550   9.668  37.649  11.428
74968ION    CL-46551  13.715  21.860   0.150
74969ION    CL-46552  19.621  20.820   2.874
74970ION    CL-46553  34.649  43.400   3.879
74971ION    CL-46554  43.886   7.753   4.977
74972ION    CL-46555   6.328  14.578   1.416
74973ION    CL-46556  29.633  30.709   4.039
74974ION    CL-46557  15.491  37.672  14.639
74975ION    CL-46558  26.152  26.608   1.956
74976ION    CL-46559   9.424   4.619   3.210
74977ION    CL-46560   0.876   8.862  12.136
74978ION    CL-46561   9.871  12.634   2.162
74979ION    CL-46562  25.939  17.303  11.684
74980ION    CL-46563  27.700  26.369  10.330
74981ION    CL-46564  22.590   8.203   0.711
74982ION    CL-46565  10.900  27.878  12.158
74983ION    CL-46566  15.774   1.187   9.875
74984ION    CL-46567  16.675   0.629   1.460
74985ION    CL-46568  32.614  22.195   9.859
74986ION    CL-46569  10.331  39.333  10.723
74987ION    CL-46570  14.578   4.955   0.407
74988ION    CL-46571  11.654  12.401   4.817
74989ION    CL-46572   4.252  42.917   3.578
74990ION    CL-46573  44.497  23.783   2.339
74991ION    CL-46574  16.301  21.504  13.557
74992ION    CL-46575  23.381  26.588  13.565
74993ION    CL-46576  33.377  33.277   9.840
74994ION    CL-46577   7.828   7.804   2.412
74995ION    CL-46578  16.104  38.462  14.655
74996ION    CL-46579  30.506  11.499   4.020
74997ION    CL-46580   2.901  36.511   2.846
74998ION    CL-46581   7.140  30.401   1.070
74999ION    CL-46582  11.163  12.710   5.030
75000ION    CL-46583  10.258  18.114  10.769
75001ION    CL-46584  21.487  29.579  13.779
75002ION    CL-46585   7.033  41.966   1.271
75003ION    CL-46586  23.096  27.064  14.622
75004ION    CL-46587  43.883  42.559   1.267
75005ION    CL-46588  42.803  28.410  13.326
75006ION    CL-46589  33.836  25.284   0.619
75007ION    CL-46590  38.124   9.350  14.667
75008ION    CL-46591  15.869  13.382   0.479
75009ION    CL-46592  44.988   7.484  13.102
75010ION    CL-46593  36.124  11.902  10.712
75011ION    CL-46594  30.529  39.807  11.761
75012ION    CL-46595  43.004  41.603   0.305
75013ION    CL-46596  12.298  32.076  13.044
75014ION    CL-46597  29.433  13.754   1.379
75015ION    CL-46598   2.352  23.105  13.731
75016ION    CL-46599  24.386  18.685   3.312
75017ION    CL-46600  30.080   3.967   3.144
75018ION    CL-46601  37.958  16.850  11.513
75019ION    CL-46602   2.952  29.659  13.176
75020ION    CL-46603   6.321  28.216  14.993
75021ION    CL-46604  30.899  25.244   1.841
75022ION    CL-46605  38.390  12.166   3.901
75023ION    CL-46606  24.995  31.875  14.418
75024ION    CL-46607  27.576   7.089  12.894
75025ION    CL-46608  16.503  26.105  10.002
75026ION    CL-46609  21.045  16.249  12.339
75027ION    CL-46610  29.757  22.735   0.564
75028ION    CL-46611  34.291  42.253   9.993
75029ION    CL-46612  25.463  31.769  12.335
75030ION    CL-46613  26.517  44.705   0.285
75031ION    CL-46614  16.577   0.845  11.786
75032ION    CL-46615  13.491  24.276  13.405
75033ION    CL-46616  34.528  32.581  10.470
75034ION    CL-46617  15.613  16.335   3.925
75035ION    CL-46618  10.422   9.753  12.123
75036ION    CL-46619  21.071  37.174  11.116
75037ION    CL-46620  38.961  31.961  14.066
75038ION    CL-46621  44.599  15.418  14.014
75039ION    CL-46622   5.850  12.637   2.349
75040ION    CL-46623  36.729  22.933  11.072
75041ION    CL-46624  42.820   9.585   4.928
75042ION    CL-46625  36.969   1.076   4.848
75043ION    CL-46626   9.120  29.668  13.896
75044ION    CL-46627  35.298  14.011  12.451
75045ION    CL-46628   3.448   5.131  14.506
75046ION    CL-46629  41.812  41.393   2.119
75047ION    CL-46630   3.478  10.150   4.732
75048ION    CL-46631  24.007  23.626  12.085
75049ION    CL-46632  29.820  10.588   5.034
75050ION    CL-46633   4.935  26.470   2.286
75051ION    CL-46634  21.926  42.699   0.321
75052ION    CL-46635  43.432  32.100   3.733
75053ION    CL-46636   7.521  34.965   1.310
75054ION    CL-46637  30.723  26.673   1.839
75055ION    CL-46638   2.670  12.263   1.263
75056ION    CL-46639  37.532  12.967  14.328
75057ION    CL-46640   7.700   8.507  12.068
75058ION    CL-46641  18.313  25.387   4.079
75059ION    CL-46642  40.145  19.089   2.787
75060ION    CL-46643  32.496  34.860   3.705
75061ION    CL-46644  44.543   2.881   2.620
75062ION    CL-46645  16.067   8.970   2.772
75063ION    CL-46646  44.676   8.437  11.654
75064ION    CL-46647  36.811  34.285  13.725
75065ION    CL-46648  16.036   0.700   0.694
75066ION    CL-46649  38.871  16.281  12.687
75067ION    CL-46650  20.179  37.073  11.214
75068ION    CL-46651  20.561  10.922  12.612
75069ION    CL-46652   7.957   6.905   4.163
75070ION    CL-46653   1.187  33.328   1.198
75071ION    CL-46654  40.850   2.378   1.616
75072ION    CL-46655  29.412  27.531   3.863
75073ION    CL-46656   1.513   9.399   0.160
75074ION    CL-46657   4.374  29.554   0.724
75075ION    CL-46658  32.808  44.759   3.230
75076ION    CL-46659  27.158  11.816  14.487
75077ION    CL-46660  37.048  17.713  12.114
75078ION    CL-46661   4.951  13.478  14.595
75079ION    CL-46662   6.850   4.851  14.068
75080ION    CL-46663  18.581  36.179   3.470
75081ION    CL-46664  18.298  26.104   3.562
75082ION    CL-46665  12.078   2.725  11.551
75083ION    CL-46666  40.742  41.804   0.190
75084ION    CL-46667  43.579  42.008  11.557
75085ION    CL-46668  12.115  36.517  10.943
75086ION    CL-46669   6.644  32.333  10.717
75087ION    CL-46670  23.964   2.742  13.306
75088ION    CL-46671  26.480  24.838  13.258
75089ION    CL-46672  17.444  34.440  14.100
75090ION    CL-46673   6.255  22.540   3.320
75091ION    CL-46674  26.659  23.753  11.533
75092ION    CL-46675  31.108  21.497  10.552
75093ION    CL-46676  37.370   4.811   1.717
75094ION    CL-46677   3.836  37.310  12.911
75095ION    CL-46678  41.011  23.914  12.807
75096ION    CL-46679  30.892   9.634   1.463
75097ION    CL-46680  31.663  21.794  12.757
75098ION    CL-46681  18.782  15.710  11.758
75099ION    CL-46682  17.624  38.957  11.958
75100ION    CL-46683  34.906   6.309   1.960
75101ION    CL-46684  28.859  25.912   1.809
75102ION    CL-46685  41.066   0.301  11.512
75103ION    CL-46686  25.460  44.988  13.319
75104ION    CL-46687   6.328  36.866  11.632
75105ION    CL-46688  42.382  37.913   3.896
75106ION    CL-46689  30.386  28.440   2.894
75107ION    CL-46690  33.296  40.510   2.114
75108ION    CL-46691  22.671   2.238   2.742
75109ION    CL-46692  37.062  35.741  11.339
75110ION    CL-46693  19.548  34.457  10.983
75111ION    CL-46694  40.218   8.311   9.406
75112ION    CL-46695   7.954  14.203  10.254
75113ION    CL-46696  37.524   2.980   1.709
75114ION    CL-46697  11.252  15.760   4.084
75115ION    CL-46698   1.697  30.012  13.181
75116ION    CL-46699  32.067  17.771   3.115
75117ION    CL-46700   6.270   1.880  14.833
75118ION    CL-46701  29.100  22.282   3.824
75119ION    CL-46702  24.263   1.526   3.678
75120ION    CL-46703  42.976  12.634   2.669
75121ION    CL-46704  15.190  24.692  11.404
75122ION    CL-46705   1.653  13.757  12.792
75123ION    CL-46706  21.871  18.113   1.962
75124ION    CL-46707  16.076  20.545   3.586
75125ION    CL-46708  34.055  28.503   4.129
75126ION    CL-46709  15.612  14.620  13.955
75127ION    CL-46710  44.432  27.955   5.180
75128ION    CL-46711  42.701   6.903   0.460
75129ION    CL-46712   6.867  43.077   9.844
75130ION    CL-46713  36.030  30.313  11.136
75131ION    CL-46714  14.403  11.761  12.016
75132ION    CL-46715   6.630  23.378   2.923
75133ION    CL-46716   2.804  21.863   0.005
75134ION    CL-46717  37.065   2.816  12.453
75135ION    CL-46718   1.217  36.221   0.131
75136ION    CL-46719  26.060  36.857   3.570
75137ION    CL-46720  20.512  28.650   0.805
75138ION    CL-46721  35.889   9.031   4.071
75139ION    CL-46722   9.521  36.622  14.205
75140ION    CL-46723  36.467  29.593   1.963
75141ION    CL-46724   1.656   7.809   4.059
75142ION    CL-46725   2.253  41.839  11.100
75143ION    CL-46726  37.935  41.417   3.166
75144ION    CL-46727  31.909  37.499   0.668
75145ION    CL-46728  31.871  44.179  12.003
75146ION    CL-46729  15.168  37.955   4.871
75147ION    CL-46730  18.011  21.941   9.700
75148ION    CL-46731  23.165  18.289  14.886
75149ION    CL-46732  33.993  10.570   1.304
75150ION    CL-46733  13.594  37.430   2.376
75151ION    CL-46734  16.727  11.099   0.356
75152ION    CL-46735  13.371  14.286   1.126
75153ION    CL-46736  29.513   2.719  12.845
75154ION    CL-46737   2.541  23.642  14.855
75155ION    CL-46738  27.924  15.835   4.028
75156ION    CL-46739   1.718  42.404   0.755
75157ION    CL-46740   6.564  36.098  10.686
75158ION    CL-46741  20.121  25.474   3.708
75159ION    CL-46742  17.253   0.515  13.907
75160ION    CL-46743  28.213  25.317   3.098
75161ION    CL-46744  30.211  42.234   1.838
75162ION    CL-46745   2.771   1.602   1.071
75163ION    CL-46746  32.069  16.228   2.402
75164ION    CL-46747  43.659  28.715   2.977
75165ION    CL-46748  35.158  10.603  12.805
75166ION    CL-46749  33.138  40.918   4.806
75167ION    CL-46750  12.915  28.715   4.599
75168ION    CL-46751  18.174  23.840   4.151
75169ION    CL-46752  37.629  17.932  10.930
75170ION    CL-46753  39.580   4.761   5.255
75171ION    CL-46754  13.573  32.011   1.371
75172ION    CL-46755  32.556  41.884  13.012
75173ION    CL-46756   1.230  30.069   2.035
75174ION    CL-46757  34.607   9.727  14.754
75175ION    CL-46758   5.124  36.903  14.069
75176ION    CL-46759  18.538  12.309   3.655
75177ION    CL-46760  20.359  43.746   3.179
75178ION    CL-46761  28.953  34.423   2.232
75179ION    CL-46762  22.117  23.817   0.386
75180ION    CL-46763   9.925  21.242   1.308
75181ION    CL-46764  18.463  28.203   2.430
75182ION    CL-46765  38.798   8.844  10.170
75183ION    CL-46766  21.334  16.514   4.036
75184ION    CL-46767  43.796  29.445   0.876
75185ION    CL-46768   4.082  28.932   1.846
75186ION    CL-46769   8.839  22.741   3.971
75187ION    CL-46770  41.123  12.956  12.387
75188ION    CL-46771  20.175  40.440   9.911
75189ION    CL-46772   8.688  15.589   3.159
75190ION    CL-46773  43.244  42.751   2.728
75191ION    CL-46774  43.299  25.495  10.991
75192ION    CL-46775  33.304  15.888   4.129
75193ION    CL-46776  34.253  29.514   5.038
75194ION    CL-46777   9.359  40.333   1.373
75195ION    CL-46778  15.575  23.317  11.033
75196ION    CL-46779  14.898  24.918  12.333
75197ION    CL-46780  11.789  40.606  14.909
75198ION    CL-46781  11.590  18.789  11.107
75199ION    CL-46782  25.041   2.839  11.456
75200ION    CL-46783  26.016  19.995  11.643
75201ION    CL-46784   2.266  17.741   0.867
75202ION    CL-46785   1.252  30.602  13.291
75203ION    CL-46786  11.205   7.752   4.593
75204ION    CL-46787  28.005   5.887   0.722
75205ION    CL-46788  27.417   8.440  12.061
75206ION    CL-46789  28.789  32.274   4.157
75207ION    CL-46790   3.743  36.388   1.549
75208ION    CL-46791  35.964   7.769  13.309
75209ION    CL-46792  34.621  11.440  14.982
75210ION    CL-46793  14.813  39.536  11.997
75211ION    CL-46794  10.899  23.948   1.980
75212ION    CL-46795  44.335  32.101  14.314
75213ION    CL-46796  21.604  12.920  12.580
75214ION    CL-46797  44.223  32.078   0.726
75215ION    CL-46798  14.771  27.614  13.645
75216ION    CL-46799   7.862  27.637  13.814
75217ION    CL-46800   1.762   8.651  13.849
75218ION    CL-46801  35.598  32.886  13.754
75219ION    CL-46802  36.007  41.377  11.181
75220ION    CL-46803  13.959  37.431   1.445
75221ION    CL-46804  41.489  12.351   1.617
75222ION    CL-46805  19.775  12.026   4.052
75223ION    CL-46806  14.551  26.405   4.014
75224ION    CL-46807  12.197   5.232   3.006
75225ION    CL-46808   9.844  27.440   0.969
75226ION    CL-46809  35.876  20.704   3.768
75227ION    CL-46810  44.999  42.856   1.704
75228ION    CL-46811   8.192  32.317   0.476
75229ION    CL-46812   8.950  33.356   4.663
75230ION    CL-46813  37.799   2.014   4.263
75231ION    CL-46814   3.146  24.094  11.614
75232ION    CL-46815  28.489   7.484   3.201
75233ION    CL-46816  25.633  25.313  13.971
75234ION    CL-46817  27.203  14.272   2.368
75235ION    CL-46818  43.807   4.849  12.925
75236ION    CL-46819  12.163  28.101   0.804
75237ION    CL-46820  18.963  25.248  12.100
75238ION    CL-46821  11.441  11.644  11.867
75239ION    CL-46822  16.205  10.323   3.513
75240ION    CL-46823  14.129   0.240   3.657
75241ION    CL-46824  21.191  39.311  13.492
75242ION    CL-46825  13.610  30.202  11.113
75243ION    CL-46826  38.812  20.093  14.859
75244ION    CL-46827  28.120   8.944  10.329
75245ION    CL-46828   7.209  23.263   0.444
75246ION    CL-46829  15.187  26.819  13.586
75247ION    CL-46830   6.444   4.897  10.834
75248ION    CL-46831  37.074  16.841   4.705
75249ION    CL-46832  19.668  44.822   0.307
75250ION    CL-46833  14.728  24.753   4.180
75251ION    CL-46834  29.407  27.359  14.552
75252ION    CL-46835  43.138  10.479   1.827
75253ION    CL-46836   3.792   0.397  14.606
75254ION    CL-46837  43.028  29.377  13.444
75255ION    CL-46838   8.444  27.633   0.133
75256ION    CL-46839  40.416  30.068   2.630
75257ION    CL-46840   8.284  31.195  11.762
75258ION    CL-46841  24.256  32.141   0.044
75259ION    CL-46842  39.079   2.595   4.264
75260ION    CL-46843  29.826  34.254   4.640
75261ION    CL-46844  27.054   9.444   3.945
75262ION    CL-46845  19.322   7.882   2.796
75263ION    CL-46846   0.746  29.886  12.902
75264ION    CL-46847  19.032  23.097   9.759
75265ION    CL-46848  40.421   6.350   2.673
75266ION    CL-46849  20.949   7.424   3.334
75267ION    CL-46850  28.581  21.574   4.327
75268ION    CL-46851  14.425  28.359   2.710
75269ION    CL-46852  25.655  41.803  11.992
75270ION    CL-46853  11.752   8.276   4.688
75271ION    CL-46854  22.402  29.646  13.368
75272ION    CL-46855  34.923  41.492   9.851
75273ION    CL-46856  16.522  23.097   3.247
75274ION    CL-46857   6.034  20.050  12.867
75275ION    CL-46858  32.190  19.942   1.757
75276ION    CL-46859  34.048  14.397   2.718
75277ION    CL-46860   5.470  38.444   2.349
75278ION    CL-46861  38.211  19.329   4.136
75279ION    CL-46862  14.230  12.378   4.559
75280ION    CL-46863   6.872  43.530  14.632
75281ION    CL-46864  22.196  14.631  14.805
75282ION    CL-46865  15.847  25.443  13.836
75283ION    CL-46866  35.526  11.442   2.922
75284ION    CL-46867  38.519  33.127   3.715
75285ION    CL-46868  44.316  24.536   3.705
75286ION    CL-46869  10.900  21.254  13.539
75287ION    CL-46870  31.628  28.716   2.248
75288ION    CL-46871  10.098  42.025   2.597
75289ION    CL-46872  27.961  13.601   3.854
75290ION    CL-46873  33.056  40.448  14.887
75291ION    CL-46874  43.591  17.751   2.594
75292ION    CL-46875   4.723  18.744   3.182
75293ION    CL-46876  28.635  26.956  10.379
75294ION    CL-46877  22.537  16.172  12.910
75295ION    CL-46878  23.222   4.696   4.816
75296ION    CL-46879  13.523  29.556   2.025
75297ION    CL-46880  27.472   9.606   5.128
75298ION    CL-46881  40.683   4.104   2.227
75299ION    CL-46882  42.513  32.680  14.670
75300ION    CL-46883  10.424  14.620  14.512
75301ION    CL-46884  19.011   4.801   2.931
75302ION    CL-46885  24.737   9.496  10.702
75303ION    CL-46886  16.398  32.159  12.574
75304ION    CL-46887  27.994   1.170   4.875
75305ION    CL-46888  20.990  11.538  12.084
75306ION    CL-46889  44.103  31.089   2.471
75307ION    CL-46890  12.232  42.250  12.623
75308ION    CL-46891  21.028   5.946   1.754
75309ION    CL-46892  43.199  33.383   2.887
75310ION    CL-46893  39.085  11.679   1.302
75311ION    CL-46894  38.747   7.230  11.838
75312ION    CL-46895  11.324  43.681  11.386
75313ION    CL-46896  37.102  35.634   2.797
75314ION    CL-46897   2.766  26.808  11.151
75315ION    CL-46898   7.976  10.286  13.859
75316ION    CL-46899   4.901   9.294  11.617
75317ION    CL-46900  12.705  23.876  14.754
75318ION    CL-46901   7.515  44.992   1.234
75319ION    CL-46902   6.665   7.669   1.964
75320ION    CL-46903   7.100  34.424   2.879
75321ION    CL-46904   9.570   8.369   1.294
75322ION    CL-46905  34.393  12.319  14.852
75323ION    CL-46906  15.981  14.060  11.609
75324ION    CL-46907  33.095  42.036   1.045
75325ION    CL-46908  37.357  41.549   0.238
75326ION    CL-46909  32.572   8.545  13.614
75327ION    CL-46910  28.423  20.580  11.652
75328ION    CL-46911  20.319   2.544   4.032
75329ION    CL-46912  17.920   5.244   0.620
75330ION    CL-46913  20.213  29.023  11.176
75331ION    CL-46914  28.601  14.157   0.669
75332ION    CL-46915  14.948  40.605  14.400
75333ION    CL-46916  33.043  19.694   3.112
75334ION    CL-46917  43.421   9.634  12.976
75335ION    CL-46918   8.520  44.580  13.252
75336ION    CL-46919  25.017  14.541  12.472
75337ION    CL-46920  19.113  40.206  10.942
75338ION    CL-46921  37.826  35.504   4.136
75339ION    CL-46922  27.097  31.476   4.531
75340ION    CL-46923   0.579  26.912  14.461
75341ION    CL-46924   9.319   0.959  12.485
75342ION    CL-46925  42.483  21.674   3.646
75343ION    CL-46926  12.751  44.451   1.075
75344ION    CL-46927  16.205  35.649  10.589
75345ION    CL-46928   0.547  30.960  14.294
75346ION    CL-46929  22.321  38.132  13.685
75347ION    CL-46930  32.593   0.937  12.488
75348ION    CL-46931  44.847  26.293   1.828
75349ION    CL-46932  33.010  30.084   4.148
75350ION    CL-46933  18.127  36.940  14.852
75351ION    CL-46934  21.640  21.944   2.773
75352ION    CL-46935  34.626   3.883   0.251
75353ION    CL-46936  36.662  29.693  11.233
75354ION    CL-46937  33.646   1.908  11.134
75355ION    CL-46938   9.027   8.381  10.380
75356ION    CL-46939  42.128   6.080  12.898
75357ION    CL-46940  25.266   6.855  14.833
75358ION    CL-46941  10.485  43.965  11.201
75359ION    CL-46942   5.446  37.300   3.789
75360ION    CL-46943  29.426  17.308   0.331
75361ION    CL-46944   7.877  21.629   3.053
75362ION    CL-46945   0.880  43.419  12.757
75363ION    CL-46946  34.409  20.669   0.049
75364ION    CL-46947   2.480  43.531  14.183
75365ION    CL-46948  39.872  30.505  14.784
75366ION    CL-46949  13.844  10.464   5.044
75367ION    CL-46950   7.608   9.188   5.013
75368ION    CL-46951  36.117  29.407   0.308
75369ION    CL-46952   1.587   0.555  13.496
75370ION    CL-46953  20.191  41.908   2.268
75371ION    CL-46954  40.341   0.820  10.369
75372ION    CL-46955  24.329  17.824   0.858
75373ION    CL-46956  24.646   4.956   3.649
75374ION    CL-46957   5.212  35.564  13.481
75375ION    CL-46958  19.301  43.465  11.718
75376ION    CL-46959  44.881  21.525   3.819
75377ION    CL-46960  40.585  44.419  11.554
75378ION    CL-46961  35.212  25.913   3.246
75379ION    CL-46962   7.812  42.019   2.297
75380ION    CL-46963   6.326   0.393   0.986
75381ION    CL-46964  36.273  29.535  10.754
75382ION    CL-46965  19.419  28.420  11.107
75383ION    CL-46966  18.923  31.977   1.716
75384ION    CL-46967  19.391   9.967   2.082
75385ION    CL-46968  32.496  11.286  13.776
75386ION    CL-46969   3.657  44.246   3.920
75387ION    CL-46970  17.770  12.649  11.573
75388ION    CL-46971   2.765   2.658   4.223
75389ION    CL-46972  38.941   5.821   2.666
75390ION    CL-46973  23.902  20.853   4.195
75391ION    CL-46974   9.500  14.404  10.868
75392ION    CL-46975  21.296   4.304  14.148
75393ION    CL-46976  35.049   6.671  13.880
75394ION    CL-46977   8.540  14.105  11.068
75395ION    CL-46978  20.150  31.781   4.203
75396ION    CL-46979  44.565  23.745  11.303
75397ION    CL-46980  31.178  24.276   1.827
75398ION    CL-46981  34.071  36.117   4.302
75399ION    CL-46982   8.437   6.866   0.474
75400ION    CL-46983  28.050   9.724   1.537
75401ION    CL-46984   6.876  16.374   2.939
75402ION    CL-46985   0.793  25.371  11.139
75403ION    CL-46986  19.172  31.210  13.008
75404ION    CL-46987  38.338   5.257  10.675
75405ION    CL-46988  30.667  16.086   4.626
75406ION    CL-46989  42.198  32.386   3.978
75407ION    CL-46990  26.323  16.389  13.261
75408ION    CL-46991   4.401  10.634   1.993
75409ION    CL-46992  31.728  18.024  14.197
75410ION    CL-46993  43.663  37.500  12.558
75411ION    CL-46994   2.241  44.996  12.949
75412ION    CL-46995  27.140  41.744   2.341
75413ION    CL-46996  35.695  11.041  13.605
75414ION    CL-46997  26.926  20.241   3.061
75415ION    CL-46998   5.074  43.195   0.137
75416ION    CL-46999  37.020   7.095   2.232
75417ION    CL-47000  44.343  30.405  14.924
75418ION    CL-47001  21.496  15.587  14.413
75419ION    CL-47002  19.584   3.996  12.474
75420ION    CL-47003  40.465  36.339  14.480
75421ION    CL-47004  31.255  12.435   0.851
75422ION    CL-47005  25.434   6.971   0.812
75423ION    CL-47006  25.098  36.987   4.645
75424ION    CL-47007  27.928  12.842   0.128
75425ION    CL-47008   3.083  14.843  11.553
75426ION    CL-47009  19.703  36.892   1.136
75427ION    CL-47010  24.690  31.404   1.143
75428ION    CL-47011  20.435  10.930   5.133
75429ION    CL-47012   4.293  15.662  14.810
75430ION    CL-47013  34.498  38.654   0.483
75431ION    CL-47014  22.215   0.182  11.581
75432ION    CL-47015  16.847  29.528  11.050
75433ION    CL-47016   6.421   5.107   3.789
75434ION    CL-47017  35.271  37.254  13.605
75435ION    CL-47018   4.437  15.102   2.232
75436ION    CL-47019  17.888  24.679  13.321
75437ION    CL-47020  29.167  13.346  12.439
75438ION    CL-47021  15.562  22.138  13.331
75439ION    CL-47022  36.593  42.796  14.388
75440ION    CL-47023  23.936  11.749   3.196
75441ION    CL-47024  35.122  23.959   3.206
75442ION    CL-47025  13.686  18.782   0.907
75443ION    CL-47026  12.029   5.341  10.890
75444ION    CL-47027  24.862  36.335   0.085
75445ION    CL-47028  29.863  35.576  11.557
75446ION    CL-47029  39.889   7.098  10.850
75447ION    CL-47030  35.433  32.966   2.731
75448ION    CL-47031  17.578  32.713   1.046
75449ION    CL-47032  20.763   6.321   0.120
75450ION    CL-47033  20.084  38.300   1.330
75451ION    CL-47034  11.043  16.939   5.020
75452ION    CL-47035  39.719   6.265   3.582
75453ION    CL-47036  20.075  13.730  14.531
75454ION    CL-47037  35.817  19.757   3.196
75455ION    CL-47038   1.119   0.670   0.625
75456ION    CL-47039   6.247  39.843  12.822
75457ION    CL-47040  24.365  14.234   2.276
75458ION    CL-47041   6.527  22.150   5.138
75459ION    CL-47042   6.057  43.390   3.636
75460ION    CL-47043  39.057   4.823   0.550
75461ION    CL-47044  31.468  17.349   3.917
75462ION    CL-47045  10.678  15.464   4.916
75463ION    CL-47046   6.091  40.940  12.603
75464ION    CL-47047  42.305  14.948  14.536
75465ION    CL-47048  27.286  34.076  10.478
75466ION    CL-47049  34.568   4.534   3.184
75467ION    CL-47050   9.810   8.447   5.008
75468ION    CL-47051  28.504   0.947  12.948
75469ION    CL-47052   6.194   8.840  14.648
75470ION    CL-47053  33.562   3.746   2.741
75471ION    CL-47054  12.414  13.881  10.678
75472ION    CL-47055  15.939  31.390  12.422
75473ION    CL-47056   2.464  17.780   5.018
75474ION    CL-47057  40.055  20.243   1.262
75475ION    CL-47058   2.818  19.880   3.694
75476ION    CL-47059  34.369  40.145  12.977
75477ION    CL-47060  42.492   6.100   3.949
75478ION    CL-47061  21.255  43.965  12.741
75479ION    CL-47062  16.981  20.674   2.275
75480ION    CL-47063  23.255  42.839  11.578
75481ION    CL-47064   3.922  19.450   1.889
75482ION    CL-47065  44.563  26.641   4.216
75483ION    CL-47066  44.061  28.637   0.128
75484ION    CL-47067  20.588  14.144  13.297
75485ION    CL-47068   7.415   8.825  14.296
75486ION    CL-47069  10.512  35.208   9.737
75487ION    CL-47070  37.350  39.603  14.125
75488ION    CL-47071   8.291  11.525   4.955
75489ION    CL-47072  25.629  32.034   5.145
75490ION    CL-47073  24.202  43.164  13.681
75491ION    CL-47074  20.844   8.597  10.253
75492ION    CL-47075  12.326  38.270  14.935
75493ION    CL-47076  33.696  18.768  14.737
75494ION    CL-47077  30.350  12.377   0.934
75495ION    CL-47078  28.981  10.896  11.502
75496ION    CL-47079  33.886  32.817   0.760
75497ION    CL-47080  29.418  24.064   3.738
75498ION    CL-47081  20.174   7.337   0.963
75499ION    CL-47082  42.787  40.309  11.608
75500ION    CL-47083  41.332  36.805  10.738
75501ION    CL-47084  27.638  28.992  11.336
75502ION    CL-47085  32.553  14.590   0.373
75503ION    CL-47086  32.223  35.133  13.442
75504ION    CL-47087  39.772  33.938  13.555
75505ION    CL-47088  33.605  13.492  12.300
75506ION    CL-47089  16.434   4.511  13.692
75507ION    CL-47090  27.305  39.938   5.077
75508ION    CL-47091  33.787   0.442  14.534
75509ION    CL-47092  29.840  25.399   4.310
75510ION    CL-47093  10.956   1.042   2.777
75511ION    CL-47094  22.638   2.528  10.313
75512ION    CL-47095  31.188  34.101  14.821
75513ION    CL-47096   1.762  26.059   1.889
75514ION    CL-47097  25.061  26.447  14.241
75515ION    CL-47098  13.678  13.281   2.060
75516ION    CL-47099  20.908   6.902   1.486
75517ION    CL-47100  43.764  30.932  12.880
75518ION    CL-47101   6.158  34.839   1.043
75519ION    CL-47102  33.385  10.899  10.293
75520ION    CL-47103  42.174   2.872  11.663
75521ION    CL-47104  35.213  42.975   5.121
75522ION    CL-47105  15.755   3.314  12.083
75523ION    CL-47106   2.848  38.826  14.918
75524ION    CL-47107   0.084  31.831  11.376
75525ION    CL-47108  38.902  14.831   1.645
75526ION    CL-47109  24.001  21.104   1.246
75527ION    CL-47110  38.759  23.061  13.330
75528ION    CL-47111  21.937  30.716  13.671
75529ION    CL-47112  41.314  25.085  13.784
75530ION    CL-47113  17.514  22.527  13.496
75531ION    CL-47114  37.819  43.529  11.561
75532ION    CL-47115  20.115  44.649   5.008
75533ION    CL-47116   7.100  10.752  14.468
75534ION    CL-47117  35.681  19.613   4.949
75535ION    CL-47118  22.433   8.724   1.551
75536ION    CL-47119  17.080  27.566   2.060
75537ION    CL-47120  41.294  39.634   2.060
75538ION    CL-47121  13.902  14.718  11.530
75539ION    CL-47122  43.085  29.401   2.921
75540ION    CL-47123  12.432   7.738  12.558
75541ION    CL-47124  13.706  43.536   0.905
75542ION    CL-47125   9.379  35.994   2.328
75543ION    CL-47126  38.812   1.781   1.168
75544ION    CL-47127   3.177  25.119  13.345
75545ION    CL-47128  17.264   0.933  14.855
75546ION    CL-47129  25.748   2.037  14.717
75547ION    CL-47130  24.525   0.717   4.224
75548ION    CL-47131  26.779  32.280   4.827
75549ION    CL-47132  39.231  21.768  14.419
75550ION    CL-47133   4.509   0.340   0.301
75551ION    CL-47134   2.426   0.718  11.933
75552ION    CL-47135  40.733  22.061  12.147
75553ION    CL-47136  18.094  26.062  13.530
75554ION    CL-47137  31.869  24.638   3.403
75555ION    CL-47138  13.273   3.236  14.505
75556ION    CL-47139  36.582  42.253  11.488
75557ION    CL-47140  11.714   1.989   3.694
75558ION    CL-47141  16.413   2.648   3.963
75559ION    CL-47142  16.508  11.053   3.944
75560ION    CL-47143  33.318  42.143   3.963
75561ION    CL-47144  28.848  17.988  11.256
75562ION    CL-47145  29.387  28.261   5.013
75563ION    CL-47146  12.775  37.477   1.260
75564ION    CL-47147   0.859  14.567   0.672
75565ION    CL-47148  36.560   0.725  13.237
75566ION    CL-47149   8.158  13.561  13.800
75567ION    CL-47150  16.284  32.136  14.826
75568ION    CL-47151  28.603   7.944  14.786
75569ION    CL-47152   4.876  14.953  11.527
75570ION    CL-47153  25.107   4.260  10.092
75571ION    CL-47154  44.464  32.074   3.891
75572ION    CL-47155  26.265  13.578   4.049
75573ION    CL-47156  38.816  10.297   4.638
75574ION    CL-47157  12.837  22.254   3.607
75575ION    CL-47158  38.864  44.086   5.215
75576ION    CL-47159  17.478  16.112  11.667
75577ION    CL-47160  31.502   7.128   1.222
75578ION    CL-47161  18.215  32.134   4.193
75579ION    CL-47162  34.035  39.138  12.014
75580ION    CL-47163  16.684   7.076   1.907
75581ION    CL-47164   3.679  44.688   1.790
75582ION    CL-47165   8.363  35.151   1.218
75583ION    CL-47166  10.647  34.449   5.070
75584ION    CL-47167  11.632  40.814  10.313
75585ION    CL-47168   0.598  22.173  13.018
75586ION    CL-47169  26.677  29.495   0.564
75587ION    CL-47170  38.418  25.473  13.377
75588ION    CL-47171   8.090  37.725  11.085
75589ION    CL-47172  40.479  25.809  13.630
75590ION    CL-47173  44.048  43.532   4.424
75591ION    CL-47174  38.551  25.202   0.837
75592ION    CL-47175  30.436  18.935   5.101
75593ION    CL-47176  39.433  12.767  12.517
75594ION    CL-47177  40.797  43.385   0.531
75595ION    CL-47178  12.014  38.249  12.411
75596ION    CL-47179  14.158  32.211   0.567
75597ION    CL-47180  24.243  37.221  14.280
75598ION    CL-47181   5.779  18.133   2.450
75599ION    CL-47182   1.462  39.912   2.769
75600ION    CL-47183  15.233  22.230   4.661
75601ION    CL-47184  18.989  22.281   0.708
75602ION    CL-47185  12.867   1.868  14.330
75603ION    CL-47186   9.833  29.054  13.476
75604ION    CL-47187  11.308  16.824  10.699
75605ION    CL-47188  24.130   9.600   0.765
75606ION    CL-47189  27.990  38.024  13.882
75607ION    CL-47190   6.594   0.947  12.128
75608ION    CL-47191  35.792  37.231  11.400
75609ION    CL-47192  25.882   4.653  14.698
75610ION    CL-47193  32.759   6.500   2.457
75611ION    CL-47194  17.135  41.424   9.904
75612ION    CL-47195  43.462  31.042   4.942
75613ION    CL-47196  39.462  11.782  12.350
75614ION    CL-47197  38.342  27.501   0.194
75615ION    CL-47198  32.679  28.513   3.235
75616ION    CL-47199  37.836  10.608  13.188
75617ION    CL-47200  16.281   0.456  10.330
75618ION    CL-47201  24.190  42.546  14.486
75619ION    CL-47202  44.102  19.881  11.233
75620ION    CL-47203  38.719  14.757  10.724
75621ION    CL-47204  31.771  21.117   3.639
75622ION    CL-47205  38.426  32.791   0.111
75623ION    CL-47206  10.181   0.291   2.651
75624ION    CL-47207  25.312  18.212   3.417
75625ION    CL-47208  19.860  25.977  13.825
75626ION    CL-47209  44.424  29.370   5.278
75627ION    CL-47210   9.130  17.818  11.761
75628ION    CL-47211  36.655  40.843   3.269
75629ION    CL-47212  35.979  14.033   2.443
75630ION    CL-47213  22.060   5.500   4.950
75631ION    CL-47214  12.960   4.210  11.776
75632ION    CL-47215  35.307  34.477   0.898
75633ION    CL-47216  12.851  38.871  11.550
75634ION    CL-47217  41.996  30.976   2.172
75635ION    CL-47218  19.307  38.334  10.643
75636ION    CL-47219  33.197  33.358   0.249
75637ION    CL-47220  34.597  11.557  10.372
75638ION    CL-47221  32.761  33.218   3.316
75639ION    CL-47222   9.421  13.041   3.344
75640ION    CL-47223  18.458  18.637   2.749
75641ION    CL-47224  43.466  33.380   3.851
75642ION    CL-47225   7.688  43.722   0.483
75643ION    CL-47226  40.798  19.162   3.351
75644ION    CL-47227   0.868  32.928   2.952
75645ION    CL-47228  39.433  17.402  14.184
75646ION    CL-47229  19.803  27.546   0.558
75647ION    CL-47230  13.730   2.562  10.807
75648ION    CL-47231  29.490  29.027   4.043
75649ION    CL-47232  17.973  10.769   4.936
75650ION    CL-47233  17.135  38.057  12.114
75651ION    CL-47234  31.318  10.853   1.721
75652ION    CL-47235  14.025  31.008  14.621
75653ION    CL-47236  14.956  25.720  12.407
75654ION    CL-47237  20.737  33.156   3.233
75655ION    CL-47238   8.281  35.912  11.421
75656ION    CL-47239  20.118   3.242   0.000
75657ION    CL-47240   2.573  13.099  14.021
75658ION    CL-47241   6.524  35.831  13.726
75659ION    CL-47242  10.889   6.435   4.409
75660ION    CL-47243  24.362  10.528   3.085
75661ION    CL-47244   4.137  19.376   0.426
75662ION    CL-47245  16.886   6.669   0.053
75663ION    CL-47246  26.771  32.657  10.658
75664ION    CL-47247  36.186  39.761   1.357
75665ION    CL-47248  24.953  44.274   2.962
75666ION    CL-47249  26.070   5.752  12.132
75667ION    CL-47250   0.259   2.786  13.152
75668ION    CL-47251  32.874  33.090  13.311
75669ION    CL-47252  28.392   6.806   0.558
75670ION    CL-47253  10.145  32.169   0.618
75671ION    CL-47254   0.340  25.530   4.290
75672ION    CL-47255  44.467   6.416   4.672
75673ION    CL-47256  38.434  12.169  10.615
75674ION    CL-47257  14.308  37.454  14.671
75675ION    CL-47258  36.563  43.416   1.861
75676ION    CL-47259  14.719   4.931  10.886
75677ION    CL-47260  31.879  26.362  12.333
75678ION    CL-47261  27.092  42.294  13.501
75679ION    CL-47262  12.896  41.780   0.458
75680ION    CL-47263   1.783  11.821   4.091
75681ION    CL-47264   3.159  12.937  14.668
75682ION    CL-47265  12.424   1.731   0.414
75683ION    CL-47266   9.539  16.784   0.142
75684ION    CL-47267  16.275  28.071  14.590
75685ION    CL-47268  23.949  37.094   2.815
75686ION    CL-47269  20.924  44.150   9.789
75687ION    CL-47270  40.686  30.488  11.491
75688ION    CL-47271   8.290   4.218   0.345
75689ION    CL-47272  38.012  37.216  11.619
75690ION    CL-47273  20.448  30.221  12.660
75691ION    CL-47274  18.609  39.818   0.684
75692ION    CL-47275  41.771  27.573   2.915
75693ION    CL-47276   5.090  13.976  11.525
75694ION    CL-47277  22.280  36.023   2.693
75695ION    CL-47278  22.843  26.858   3.037
75696ION    CL-47279  24.801   8.194   2.340
75697ION    CL-47280  22.528  29.126  14.465
75698ION    CL-47281  17.919   0.964   2.278
75699ION    CL-47282  21.254  32.042   1.809
75700ION    CL-47283  36.330  11.488  13.158
75701ION    CL-47284  37.252  41.820  10.392
75702ION    CL-47285   6.661  11.907   0.758
75703ION    CL-47286  10.626  35.056   0.417
75704ION    CL-47287  13.207  38.444   0.057
75705ION    CL-47288  18.155  33.839   2.413
75706ION    CL-47289  21.094  30.773  13.998
75707ION    CL-47290   2.318   1.271   4.467
75708ION    CL-47291   0.901  44.312   3.511
75709ION    CL-47292  31.754   3.042  11.499
75710ION    CL-47293  35.907  10.413  14.689
75711ION    CL-47294  35.990  38.703   4.904
75712ION    CL-47295  38.302  21.223  12.494
75713ION    CL-47296  35.831   3.920   0.773
75714ION    CL-47297  32.019  42.758  13.133
75715ION    CL-47298  11.694  21.183   0.719
75716ION    CL-47299  29.594  14.592   0.302
75717ION    CL-47300  42.510   8.079   4.887
75718ION    CL-47301   2.825   3.821   0.079
75719ION    CL-47302  31.468  16.449   3.908
75720ION    CL-47303  37.142  33.995   0.550
75721ION    CL-47304   2.438  21.093  10.385
75722ION    CL-47305   3.671  33.246  11.791
75723ION    CL-47306  28.774  16.907   3.154
75724ION    CL-47307  39.590  11.718  14.437
75725ION    CL-47308  10.474  32.611  11.978
75726ION    CL-47309  26.640  12.854  11.245
75727ION    CL-47310  37.897  41.099   4.964
75728ION    CL-47311  11.571  38.131   1.877
75729ION    CL-47312   6.136  17.605  12.149
75730ION    CL-47313  11.911  27.806   4.598
75731ION    CL-47314  26.292  42.273   2.324
75732ION    CL-47315  34.777  18.208  13.444
75733ION    CL-47316   8.344   0.783  11.119
75734ION    CL-47317   7.215  17.865   0.753
75735ION    CL-47318  15.208  44.465   4.964
75736ION    CL-47319  23.658   1.888  12.057
75737ION    CL-47320  35.813  16.153  13.776
75738ION    CL-47321   2.454  18.130  14.531
75739ION    CL-47322  40.412  34.056   4.390
75740ION    CL-47323  17.015   1.494   2.343
75741ION    CL-47324  11.466  38.215   4.175
75742ION    CL-47325  34.270  43.220   2.971
75743ION    CL-47326   0.280  16.253   3.553
75744ION    CL-47327  40.510   7.145  14.017
75745ION    CL-47328  16.229  44.331   0.303
75746ION    CL-47329   6.803   9.312  12.541
75747ION    CL-47330  39.746   7.411  12.353
75748ION    CL-47331  21.098  37.349   4.836
75749ION    CL-47332   8.769  11.012   4.495
75750ION    CL-47333  14.097   7.050  11.975
75751ION    CL-47334  36.396  13.177   4.762
75752ION    CL-47335  32.296  14.770  13.483
75753ION    CL-47336  34.355  12.730  12.021
75754ION    CL-47337   7.928  17.321  10.379
75755ION    CL-47338  36.325  31.270   1.013
75756ION    CL-47339  42.362  37.793  14.171
75757ION    CL-47340  10.795  22.485  12.952
75758ION    CL-47341  20.520   3.461  12.450
75759ION    CL-47342  37.048  33.084   2.711
75760ION    CL-47343   7.449   0.778   4.167
75761ION    CL-47344  18.938  23.267   1.339
75762ION    CL-47345  12.077   8.197  13.426
75763ION    CL-47346   0.967  43.718   2.465
75764ION    CL-47347  34.990  36.802  11.935
75765ION    CL-47348  12.372  27.129  14.820
75766ION    CL-47349  24.199  25.077  14.297
75767ION    CL-47350  32.123  15.259   2.135
75768ION    CL-47351  31.771  22.719   5.142
75769ION    CL-47352  36.264  15.467   0.895
75770ION    CL-47353  13.416   6.562  10.786
75771ION    CL-47354   4.441   4.160  14.356
75772ION    CL-47355  13.740  13.443  12.603
75773ION    CL-47356  27.558   5.497  11.227
75774ION    CL-47357   0.842  37.860  11.561
75775ION    CL-47358  20.918   7.882  10.808
75776ION    CL-47359  42.336  44.323  14.972
75777ION    CL-47360  26.728  35.338   0.597
75778ION    CL-47361  35.848  28.147  13.368
75779ION    CL-47362   0.737  18.846   2.613
75780ION    CL-47363  14.131   3.062   1.446
75781ION    CL-47364   3.731  27.661   3.614
75782ION    CL-47365   1.262  39.007  11.632
75783ION    CL-47366  20.341  10.246  11.892
75784ION    CL-47367  34.922  20.541  12.018
75785ION    CL-47368  42.328   4.883   1.333
75786ION    CL-47369   9.132  44.206  14.884
75787ION    CL-47370  36.081   4.356   3.333
75788ION    CL-47371  32.404   9.719   4.059
75789ION    CL-47372  28.655  35.434  11.458
75790ION    CL-47373  31.554   3.217   3.693
75791ION    CL-47374   4.712   9.111  12.582
75792ION    CL-47375  15.667  37.205   4.919
75793ION    CL-47376  24.886  30.646   2.980
75794ION    CL-47377  25.819  43.897  12.897
75795ION    CL-47378  10.224  25.717   0.441
75796ION    CL-47379  41.358   7.624  10.084
75797ION    CL-47380  42.901  15.310   3.780
75798ION    CL-47381  35.027  10.652   2.994
75799ION    CL-47382  44.584  35.154  11.931
75800ION    CL-47383  42.221  14.678  13.458
75801ION    CL-47384   3.731  12.868   3.264
75802ION    CL-47385   2.312  18.677  10.564
75803ION    CL-47386  42.787  21.103  10.754
75804ION    CL-47387  32.005  34.857   2.834
75805ION    CL-47388   4.243  29.317  11.072
75806ION    CL-47389  40.968  27.064   3.642
75807ION    CL-47390  38.509  14.606  14.806
75808ION    CL-47391  41.834  26.720   2.320
75809ION    CL-47392   4.157  35.001  13.325
75810ION    CL-47393   2.195  33.343  13.580
75811ION    CL-47394  16.519  44.868  13.703
75812ION    CL-47395  11.672  15.373   5.033
75813ION    CL-47396  11.079  25.374  11.219
75814ION    CL-47397   3.775  39.695  11.919
75815ION    CL-47398  13.083  33.666  14.482
75816ION    CL-47399  16.300  11.814  13.544
75817ION    CL-47400  34.521  25.905   1.891
75818ION    CL-47401  34.274  35.571  10.368
75819ION    CL-47402  13.002  40.524   1.267
75820ION    CL-47403  15.250  15.239   3.453
75821ION    CL-47404  21.404  14.896   3.260
75822ION    CL-47405   5.420  34.932   1.895
75823ION    CL-47406  39.536  41.031  13.746
75824ION    CL-47407  41.718  34.088   5.105
75825ION    CL-47408   8.181  17.743  12.612
75826ION    CL-47409  18.362  31.068   1.813
75827ION    CL-47410  16.243   5.378   1.422
75828ION    CL-47411   4.233  10.431  13.199
75829ION    CL-47412   3.703   7.709  14.288
75830ION    CL-47413  35.950   6.898  11.279
75831ION    CL-47414  20.971   9.746  10.534
75832ION    CL-47415  17.347  43.735   2.093
75833ION    CL-47416  32.283   7.594  13.505
75834ION    CL-47417  18.460  31.406   0.492
75835ION    CL-47418  36.810  18.961  12.895
75836ION    CL-47419  26.005  42.730  11.855
75837ION    CL-47420  11.363   5.501  12.403
75838ION    CL-47421   4.805  13.179   0.538
75839ION    CL-47422  37.958  31.145   3.119
75840ION    CL-47423   8.495  43.427  14.971
75841ION    CL-47424  31.332  32.550   2.319
75842ION    CL-47425   5.100  40.342  10.613
75843ION    CL-47426  13.894  17.261  14.551
75844ION    CL-47427  38.030   7.855   1.995
75845ION    CL-47428  16.018  15.663  11.500
75846ION    CL-47429  42.752  27.991  10.705
75847ION    CL-47430  32.370  20.582   4.585
75848ION    CL-47431  25.049   8.339  13.472
75849ION    CL-47432  27.832  32.692  14.034
75850ION    CL-47433   1.147  32.542  14.019
75851ION    CL-47434  19.235   7.678   0.927
75852ION    CL-47435  20.418   3.073   1.407
75853ION    CL-47436  16.904   9.925  13.982
75854ION    CL-47437   5.134  33.658   3.261
75855ION    CL-47438  33.561  17.293  10.923
75856ION    CL-47439   6.451  33.690   4.647
75857ION    CL-47440  22.276  16.211  14.451
75858ION    CL-47441  12.710  33.989   0.723
75859ION    CL-47442  38.966  36.279  13.675
75860ION    CL-47443  21.346   1.114   0.763
75861ION    CL-47444  21.743   8.873   2.285
75862ION    CL-47445   8.046  29.391   3.623
75863ION    CL-47446  44.774  43.705   5.013
75864ION    CL-47447  13.071  33.514  11.100
75865ION    CL-47448  41.864  35.561   0.881
75866ION    CL-47449  34.129   6.822  12.603
75867ION    CL-47450  12.009  27.402   1.746
75868ION    CL-47451  27.311  16.544  13.229
75869ION    CL-47452  19.908  30.247   9.807
75870ION    CL-47453  17.786  30.169  10.709
75871ION    CL-47454  18.592  19.144   1.864
75872ION    CL-47455  33.363   1.075   5.013
75873ION    CL-47456  19.372  39.963   2.697
75874ION    CL-47457  38.174  36.250  11.415
75875ION    CL-47458  20.219  29.053  12.176
75876ION    CL-47459  37.416   5.688   5.523
75877ION    CL-47460  40.414   6.149  14.025
75878ION    CL-47461  27.794  35.782   9.756
75879ION    CL-47462  30.114  28.768   1.107
75880ION    CL-47463  10.743  15.804  12.774
75881ION    CL-47464  25.665  11.949   2.934
75882ION    CL-47465  38.020   3.373   0.500
75883ION    CL-47466  31.629  28.617   4.774
75884ION    CL-47467  34.580  23.037   1.360
75885ION    CL-47468  35.533  13.704  14.505
75886ION    CL-47469  13.560   4.395   3.932
75887ION    CL-47470  15.877  37.063   3.760
75888ION    CL-47471   5.304  44.748   2.337
75889ION    CL-47472  29.663  37.024   2.332
75890ION    CL-47473  21.600   2.178  14.288
75891ION    CL-47474  39.058  31.440  14.914
75892ION    CL-47475  31.900  39.839  12.505
75893ION    CL-47476  21.303  14.180  13.854
75894ION    CL-47477  14.581  15.429   5.049
75895ION    CL-47478  33.395  35.551   2.282
75896ION    CL-47479  25.724   0.371   5.098
75897ION    CL-47480   9.947   4.726   2.326
75898ION    CL-47481   7.614  16.798  14.713
75899ION    CL-47482  44.684  12.951  13.848
75900ION    CL-47483  17.400  17.141  13.461
75901ION    CL-47484  36.822  40.816  14.786
75902ION    CL-47485  25.212  31.161   0.440
75903ION    CL-47486  25.505  19.506   1.790
75904ION    CL-47487  40.497  13.499  14.259
75905ION    CL-47488  39.876  28.707  11.735
75906ION    CL-47489   3.811  39.401   3.986
75907ION    CL-47490   0.624  12.412   3.005
75908ION    CL-47491  18.744  42.286   3.906
75909ION    CL-47492  27.198  38.496  12.257
75910ION    CL-47493  39.048  33.527  10.691
75911ION    CL-47494  37.972  22.758  11.981
75912ION    CL-47495  30.486   1.385   1.255
75913ION    CL-47496  23.519  33.941   0.900
75914ION    CL-47497  24.117  29.257   1.031
75915ION    CL-47498  13.643  17.232  10.631
75916ION    CL-47499  34.000  18.268   3.346
75917ION    CL-47500   2.492   4.573   4.836
75918ION    CL-47501  44.347  33.358  11.577
75919ION    CL-47502  34.176  34.090   1.273
75920ION    CL-47503  23.601  20.830  10.519
75921ION    CL-47504  21.361  32.557   3.735
75922ION    CL-47505  41.719  10.807   0.131
75923ION    CL-47506   0.803   9.857  12.923
75924ION    CL-47507   7.007   7.523   4.907
75925ION    CL-47508  38.082   7.383   1.114
75926ION    CL-47509  40.328  41.719  14.283
75927ION    CL-47510  44.333  41.538  14.772
75928ION    CL-47511  35.819   8.819   4.996
75929ION    CL-47512  26.965  43.906   1.320
75930ION    CL-47513  26.972   0.509  11.411
75931ION    CL-47514   2.824  29.598   2.225
75932ION    CL-47515   2.874  39.593  12.116
75933ION    CL-47516  30.401  31.419  12.577
75934ION    CL-47517  10.960  39.177  10.319
75935ION    CL-47518   9.019  14.052  14.463
75936ION    CL-47519  26.645  25.420   3.228
75937ION    CL-47520   1.800  19.299  11.156
75938ION    CL-47521  18.584  25.536  10.575
75939ION    CL-47522  14.859  38.388  10.969
75940ION    CL-47523  10.315  10.460  14.154
75941ION    CL-47524  38.362  42.367   0.370
75942ION    CL-47525  44.705  18.421  14.603
75943ION    CL-47526  10.301  20.151  10.807
75944ION    CL-47527  23.665   9.975  13.703
75945ION    CL-47528  26.328  21.763   3.089
75946ION    CL-47529  23.600  44.596  11.949
75947ION    CL-47530  25.674  25.618  11.813
75948ION    CL-47531  36.452  43.289   0.312
75949ION    CL-47532  26.690  33.478  12.273
75950ION    CL-47533  36.053  16.735  13.167
75951ION    CL-47534  24.484   2.837   3.287
75952ION    CL-47535  39.879  14.639   4.072
75953ION    CL-47536  24.261   3.739  13.415
75954ION    CL-47537  26.998  19.638   1.905
75955ION    CL-47538   2.196  36.128   2.585
75956ION    CL-47539  41.346  29.208   0.305
75957ION    CL-47540  22.265   2.450  13.754
75958ION    CL-47541  38.096   2.959   4.127
75959ION    CL-47542  23.219  24.028  10.363
75960ION    CL-47543  22.797  26.278   3.742
75961ION    CL-47544   2.227  15.553  10.917
75962ION    CL-47545  30.366   3.373  11.607
75963ION    CL-47546  27.492  22.640   3.318
75964ION    CL-47547  21.719  25.944   1.913
75965ION    CL-47548  34.319  44.846  10.420
75966ION    CL-47549  30.024  31.905   4.241
75967ION    CL-47550   7.140   0.205  12.125
75968ION    CL-47551  22.683  26.205   1.323
75969ION    CL-47552  39.940  43.245   2.226
75970ION    CL-47553  39.589   2.881  14.003
75971ION    CL-47554  38.761  16.621  11.850
75972ION    CL-47555   1.701   6.182   0.875
75973ION    CL-47556  42.519  39.402   0.476
75974ION    CL-47557  34.586   6.469  11.777
75975ION    CL-47558  17.063  13.806   4.580
75976ION    CL-47559  34.577  25.091  13.717
75977ION    CL-47560  15.479  42.973  11.252
75978ION    CL-47561  30.335  31.982   1.650
75979ION    CL-47562   3.202  37.170   1.859
75980ION    CL-47563   3.536  39.518   0.139
75981ION    CL-47564   0.088  30.873   2.877
75982ION    CL-47565   3.986  25.106  11.336
75983ION    CL-47566  40.474  41.273   1.207
75984ION    CL-47567  14.732  14.126   0.492
75985ION    CL-47568   0.163  15.265  12.033
75986ION    CL-47569  41.535   1.825  11.122
75987ION    CL-47570  26.189  26.129   4.490
75988ION    CL-47571  24.902   6.089  12.355
75989ION    CL-47572   5.460  43.707   0.759
75990ION    CL-47573   8.349  19.679  11.627
75991ION    CL-47574  36.542   3.476   3.218
75992ION    CL-47575  22.989  25.227  10.372
75993ION    CL-47576  33.503  21.119  14.957
75994ION    CL-47577  37.269  38.674   4.686
75995ION    CL-47578  28.053  30.909   0.833
75996ION    CL-47579   8.639  16.932   0.119
75997ION    CL-47580   0.113  31.115  10.679
75998ION    CL-47581   6.222  12.457   1.293
75999ION    CL-47582  29.334  22.229  13.167
76000ION    CL-47583  30.702  14.842  11.969
76001ION    CL-47584  42.321   8.599  12.080
76002ION    CL-47585   5.697   6.611   4.934
76003ION    CL-47586   6.140  44.800  13.619
76004ION    CL-47587  44.946  32.839   3.404
76005ION    CL-47588  27.551   8.550  12.677
76006ION    CL-47589  24.112  13.705  11.299
76007ION    CL-47590  18.740  14.892   3.220
76008ION    CL-47591  38.021  24.222   0.239
76009ION    CL-47592  12.562   9.807   4.134
76010ION    CL-47593  21.963  14.612  12.102
76011ION    CL-47594  12.565  18.621   4.721
76012ION    CL-47595  19.108  21.107  12.055
76013ION    CL-47596  35.513   5.589  12.044
76014ION    CL-47597  16.652  22.013  14.941
76015ION    CL-47598   4.800  39.525   4.073
76016ION    CL-47599   9.279  22.344   4.892
76017ION    CL-47600   5.373  38.297   3.827
76018ION    CL-47601  27.848  13.032   5.019
76019ION    CL-47602  43.988  31.093   0.811
76020ION    CL-47603   7.788  19.249   4.871
76021ION    CL-47604  17.111   8.607   0.831
76022ION    CL-47605   9.391  15.521  12.876
76023ION    CL-47606  27.365   0.292  14.052
76024ION    CL-47607  40.777  15.687  11.224
76025ION    CL-47608   8.344  18.511  11.967
76026ION    CL-47609  44.827  39.253  12.848
76027ION    CL-47610  39.536  39.208   3.759
76028ION    CL-47611  26.742  25.339   1.596
76029ION    CL-47612  17.024  30.076  12.074
76030ION    CL-47613  15.746   3.031   3.323
76031ION    CL-47614  16.340  20.202  11.606
76032ION    CL-47615  26.988  17.288  12.806
76033ION    CL-47616  19.523   6.731   0.781
76034ION    CL-47617  23.922  10.333   2.318
76035ION    CL-47618  42.445  19.714   5.036
76036ION    CL-47619   1.402  13.637  13.661
76037ION    CL-47620  20.770  24.408  12.563
76038ION    CL-47621  44.855  25.222  13.500
76039ION    CL-47622  28.232  38.408   4.233
76040ION    CL-47623  26.021  26.748  14.634
76041ION    CL-47624  26.788   9.382  10.221
76042ION    CL-47625   4.253   7.584  13.018
76043ION    CL-47626  35.533  19.554  10.789
76044ION    CL-47627  20.902  22.424  11.130
76045ION    CL-47628  25.197   9.686   3.144
76046ION    CL-47629  28.705  33.077   4.546
76047ION    CL-47630   8.469  15.448   1.672
76048ION    CL-47631   0.421  13.202   1.735
76049ION    CL-47632  21.515   8.348  14.932
76050ION    CL-47633  28.812  28.163   4.453
76051ION    CL-47634  27.931   9.107   3.603
76052ION    CL-47635  27.049  11.218   3.221
76053ION    CL-47636   6.945  27.924  13.538
76054ION    CL-47637  37.509  27.876  11.324
76055ION    CL-47638  24.262  35.056   3.815
76056ION    CL-47639   5.417  20.870   1.637
76057ION    CL-47640  30.076  38.024  12.617
76058ION    CL-47641  14.321  28.410   0.274
76059ION    CL-47642  39.898  11.981   3.150
76060ION    CL-47643   5.110  24.511  11.216
76061ION    CL-47644   4.870   5.999   3.696
76062ION    CL-47645  14.244   5.136   4.145
76063ION    CL-47646  35.402  19.550  14.023
76064ION    CL-47647  27.908  12.863  12.556
76065ION    CL-47648  28.928  44.470  12.674
76066ION    CL-47649   2.866  35.007  13.835
76067ION    CL-47650  33.011   7.214  14.902
76068ION    CL-47651  22.630  40.976   3.685
76069ION    CL-47652  11.371   3.991   4.090
76070ION    CL-47653  17.974  27.330   2.440
76071ION    CL-47654  36.753  37.064  11.181
76072ION    CL-47655  27.534  33.899   0.183
76073ION    CL-47656  38.465   4.388   2.233
76074ION    CL-47657  43.961  36.666   4.567
76075ION    CL-47658  11.276   1.870  12.915
76076ION    CL-47659  17.557  35.528  11.053
76077ION    CL-47660  37.947  43.285   1.166
76078ION    CL-47661  33.362  20.525  10.439
76079ION    CL-47662  33.643  28.275   1.292
76080ION    CL-47663  37.514  40.127   0.006
76081ION    CL-47664  12.743   5.174  11.930
76082ION    CL-47665  32.672  20.576  13.395
76083ION    CL-47666  32.868  14.526   4.143
76084ION    CL-47667   3.277   6.090   4.153
76085ION    CL-47668  13.232  17.590   0.050
76086ION    CL-47669  42.169  15.837  11.617
76087ION    CL-47670   3.895  22.154  13.263
76088ION    CL-47671  21.938   4.607  14.700
76089ION    CL-47672  21.287  35.827  10.788
76090ION    CL-47673  20.551   1.222  11.563
76091ION    CL-47674  14.314   9.428  11.564
76092ION    CL-47675  23.253  14.041   2.060
76093ION    CL-47676   5.133  26.735   5.035
76094ION    CL-47677  34.229  40.945  11.127
76095ION    CL-47678  30.602  31.788   3.119
76096ION    CL-47679  39.186  24.283   4.260
76097ION    CL-47680   9.640  36.729  11.327
76098ION    CL-47681  37.524  30.987  14.814
76099ION    CL-47682  31.274  24.705   2.726
76100ION    CL-47683  19.190  41.247  12.981
76101ION    CL-47684  27.802  14.933   4.196
76102ION    CL-47685  15.112  44.445   3.291
76103ION    CL-47686  28.476  41.012  12.910
76104ION    CL-47687  41.895  10.889  12.848
76105ION    CL-47688   5.574  15.181   1.677
76106ION    CL-47689  12.923  23.003  14.759
76107ION    CL-47690  32.592  14.099   5.234
76108ION    CL-47691   0.963  29.484   1.099
76109ION    CL-47692  29.953  34.330  14.401
76110ION    CL-47693   7.593  26.876  14.232
76111ION    CL-47694  16.046  29.851  12.077
76112ION    CL-47695   9.380  44.337   1.806
76113ION    CL-47696  44.924  37.381   0.388
76114ION    CL-47697   3.627  34.388   3.709
76115ION    CL-47698  17.723   2.487   4.790
76116ION    CL-47699  44.479   4.685   5.229
76117ION    CL-47700  11.676  27.607  14.284
76118ION    CL-47701  22.306  35.954  12.156
76119ION    CL-47702  25.277  37.088  11.370
76120ION    CL-47703  16.618  18.806   0.947
76121ION    CL-47704  38.054  14.526  12.433
76122ION    CL-47705  29.689  34.737  10.318
76123ION    CL-47706   4.223   9.797  14.358
76124ION    CL-47707   1.523  30.837  12.357
76125ION    CL-47708   1.907  37.410  10.098
76126ION    CL-47709  30.740  30.329   2.148
76127ION    CL-47710  21.422   6.266   0.892
76128ION    CL-47711  23.275  32.259   1.500
76129ION    CL-47712  44.005  12.774   0.301
76130ION    CL-47713  25.512  29.837  14.065
76131ION    CL-47714  41.587  38.225   4.572
76132ION    CL-47715  35.898  37.521   0.345
76133ION    CL-47716  10.676  10.852  14.867
76134ION    CL-47717  37.903  12.511  12.534
76135ION    CL-47718  39.074  44.656  13.455
76136ION    CL-47719  10.332   6.272   2.125
76137ION    CL-47720  10.638  13.240   0.381
76138ION    CL-47721  22.785  19.759  12.098
76139ION    CL-47722   0.809  21.011  10.714
76140ION    CL-47723  39.073  21.564  11.559
76141ION    CL-47724   1.404   4.283  14.108
76142ION    CL-47725  31.401   9.240   2.051
76143ION    CL-47726   4.092  33.748   3.295
76144ION    CL-47727  13.314   4.846  12.464
76145ION    CL-47728  12.447  34.146  12.168
76146ION    CL-47729  16.936   8.796   4.270
76147ION    CL-47730  13.258  35.337   1.871
76148ION    CL-47731  19.980   9.231  13.106
76149ION    CL-47732   9.949   6.149   0.296
76150ION    CL-47733  13.234  11.385  11.407
76151ION    CL-47734  16.706   3.128   4.628
76152ION    CL-47735   0.791  11.705   4.036
76153ION    CL-47736  43.947  43.116   1.990
76154ION    CL-47737   9.706  39.839  14.068
76155ION    CL-47738  19.349  24.243  14.647
76156ION    CL-47739  41.294  44.495  12.993
76157ION    CL-47740   9.675   0.325  10.499
76158ION    CL-47741  14.375  34.482   3.262
76159ION    CL-47742   5.735   3.879  11.880
76160ION    CL-47743   3.900  36.114  13.608
76161ION    CL-47744  13.519  34.560  14.853
76162ION    CL-47745   4.117  25.131   0.460
76163ION    CL-47746  38.838  17.698   1.441
76164ION    CL-47747  15.258   3.691  14.864
76165ION    CL-47748   9.128  28.728  11.518
76166ION    CL-47749   2.120   3.875   3.697
76167ION    CL-47750   3.315   4.511  12.779
76168ION    CL-47751  15.853  34.912   4.658
76169ION    CL-47752  30.619  26.532   0.855
76170ION    CL-47753  28.958  38.071   1.533
76171ION    CL-47754  19.030  30.053   1.259
76172ION    CL-47755  21.479   8.410  13.935
76173ION    CL-47756  28.853   0.185  11.169
76174ION    CL-47757  19.629  10.395  12.579
76175ION    CL-47758  44.684  25.226   1.557
76176ION    CL-47759  28.942  39.973  11.117
76177ION    CL-47760  41.709  32.742  13.051
76178ION    CL-47761  18.009  38.971   4.176
76179ION    CL-47762   6.013  16.159   1.700
76180ION    CL-47763  17.161  44.950  11.674
76181ION    CL-47764  10.112  25.152  11.030
76182ION    CL-47765   3.253  21.508   0.831
76183ION    CL-47766  33.551   4.132  13.509
76184ION    CL-47767   4.219  11.386  14.749
76185ION    CL-47768  37.126  32.111   3.603
76186ION    CL-47769   7.777  33.595   3.178
76187ION    CL-47770  23.493   5.353   1.786
76188ION    CL-47771  29.232  25.128   2.306
76189ION    CL-47772  41.499  34.451  12.914
76190ION    CL-47773  34.972   2.417   0.936
76191ION    CL-47774  12.899  43.552  14.848
76192ION    CL-47775  37.191  18.935   0.948
76193ION    CL-47776  37.205   6.805   4.549
76194ION    CL-47777   4.555  36.612   1.614
76195ION    CL-47778  12.340  22.983  11.145
76196ION    CL-47779   9.838  22.288   1.401
76197ION    CL-47780  40.482  42.720   4.967
76198ION    CL-47781   9.970   4.722   4.120
76199ION    CL-47782  36.753  10.166  11.531
76200ION    CL-47783  18.789  29.933   2.222
76201ION    CL-47784  10.612  43.864   2.328
76202ION    CL-47785  37.921   9.234  10.678
76203ION    CL-47786  37.356  21.602  13.460
76204ION    CL-47787  22.876  31.895   0.658
76205ION    CL-47788   3.054  34.321  12.101
76206ION    CL-47789  40.079  36.800   4.525
76207ION    CL-47790   3.355  27.045   2.702
76208ION    CL-47791  35.502   3.305  13.563
76209ION    CL-47792   5.125   5.708   1.353
76210ION    CL-47793  23.072  36.289  14.521
76211ION    CL-47794  41.070   2.760   0.699
76212ION    CL-47795  26.105   3.225   5.074
76213ION    CL-47796  20.076  14.587   3.253
76214ION    CL-47797   8.226  27.412   4.579
76215ION    CL-47798  36.139  18.325   4.176
76216ION    CL-47799  19.629  35.406   3.259
76217ION    CL-47800  13.064  39.138   2.261
76218ION    CL-47801  13.565   4.088  12.907
76219ION    CL-47802   0.600  25.597   1.854
76220ION    CL-47803  30.234  29.414  14.119
76221ION    CL-47804  27.971  31.640  14.903
76222ION    CL-47805  10.590  19.348   3.631
76223ION    CL-47806  24.962  27.956  13.311
76224ION    CL-47807  16.751   4.177   1.782
76225ION    CL-47808  39.492   2.999   0.556
76226ION    CL-47809  24.793  38.371  14.385
76227ION    CL-47810   7.143  26.702   1.473
76228ION    CL-47811   7.679  34.826  12.611
76229ION    CL-47812   5.903  15.052  14.912
76230ION    CL-47813  41.671  14.867   4.749
76231ION    CL-47814   8.168  29.613   1.286
76232ION    CL-47815  34.677  41.033  11.919
76233ION    CL-47816  43.733  28.480  14.196
76234ION    CL-47817  44.878  40.736   1.272
76235ION    CL-47818   5.083   9.199   2.740
76236ION    CL-47819   9.956   8.059   2.174
76237ION    CL-47820   7.652   6.763  14.864
76238ION    CL-47821   4.689  37.663   3.466
76239ION    CL-47822  25.610  15.764  12.945
76240ION    CL-47823  28.319  32.000  13.418
76241ION    CL-47824  28.621  29.807   2.914
76242ION    CL-47825  40.550  16.774  14.880
76243ION    CL-47826   3.371  24.610  10.724
76244ION    CL-47827  37.340  27.631   3.554
76245ION    CL-47828   5.819  37.611  10.162
76246ION    CL-47829  44.925   0.771  12.269
76247ION    CL-47830  40.081   0.802  11.398
76248ION    CL-47831  30.470  11.120   9.733
76249ION    CL-47832  15.342  39.028  14.341
76250ION    CL-47833  10.414  39.308   2.994
76251ION    CL-47834   9.246  42.377   1.284
76252ION    CL-47835  11.650  21.669  11.342
76253ION    CL-47836  23.832  28.002  12.098
76254ION    CL-47837  10.855  13.609  13.958
76255ION    CL-47838  20.975  11.522  10.610
76256ION    CL-47839  39.016   6.180  11.881
76257ION    CL-47840   5.213  44.330   3.622
76258ION    CL-47841  19.389  11.088   3.396
76259ION    CL-47842  14.574  35.824   2.150
76260ION    CL-47843  37.448  31.555  13.994
76261ION    CL-47844  38.120  30.570   0.829
76262ION    CL-47845  29.986   1.081  13.498
76263ION    CL-47846   0.498   7.044  14.352
76264ION    CL-47847  27.608  21.042   3.028
76265ION    CL-47848   2.199  39.124   2.090
76266ION    CL-47849  14.383  11.362  13.106
76267ION    CL-47850   3.336  22.954   3.604
76268ION    CL-47851  37.405  26.810  11.617
76269ION    CL-47852   3.595   5.198   4.472
76270ION    CL-47853  27.314  26.156   4.217
76271ION    CL-47854  44.118  20.932  10.421
76272ION    CL-47855  15.880  35.065   1.097
76273ION    CL-47856  25.116   4.629  11.892
76274ION    CL-47857   4.234  33.830   4.231
76275ION    CL-47858  23.950  25.680  13.375
76276ION    CL-47859  30.097  42.261  14.362
76277ION    CL-47860  20.958  37.039  13.261
76278ION    CL-47861   5.146  27.542   1.834
76279ION    CL-47862  32.507   3.959   3.374
76280ION    CL-47863  30.652  20.888  13.717
76281ION    CL-47864  24.263  37.556   1.533
76282ION    CL-47865   5.680   9.920   0.343
76283ION    CL-47866  26.361  12.585  12.167
76284ION    CL-47867  12.859  21.610   4.372
76285ION    CL-47868   5.329   2.329   1.222
76286ION    CL-47869   1.275  42.293  12.485
76287ION    CL-47870  27.445  19.040  12.909
76288ION    CL-47871   8.408  32.669  12.457
76289ION    CL-47872  36.976  15.343  13.217
76290ION    CL-47873  33.349  23.249   3.653
76291ION    CL-47874  44.910  35.985   3.271
76292ION    CL-47875  40.944  11.784  10.409
76293ION    CL-47876  24.178  44.905  12.889
76294ION    CL-47877  33.720  29.171   1.470
76295ION    CL-47878  26.388  22.453   3.616
76296ION    CL-47879  25.408  30.373   5.013
76297ION    CL-47880  37.629  31.056  11.499
76298ION    CL-47881  22.036  26.114  12.772
76299ION    CL-47882  42.285  17.590  11.640
76300ION    CL-47883  15.797  18.551  12.209
76301ION    CL-47884  19.922  31.846  12.827
76302ION    CL-47885  16.657  21.268   4.431
76303ION    CL-47886  30.356   2.536  13.009
76304ION    CL-47887  18.845  27.110  14.667
76305ION    CL-47888   9.149  22.191   0.682
76306ION    CL-47889  10.045  14.844  12.401
76307ION    CL-47890  22.191  43.321   3.701
76308ION    CL-47891  44.538  11.560  14.350
76309ION    CL-47892  26.323  39.233   4.577
76310ION    CL-47893  30.886  43.032  14.032
76311ION    CL-47894   7.159  22.160   2.296
76312ION    CL-47895  18.168  43.145  12.103
76313ION    CL-47896  37.627   9.748  13.440
76314ION    CL-47897  43.215  31.138  11.592
76315ION    CL-47898  18.251  20.528   4.239
76316ION    CL-47899  27.481  23.788  13.507
76317ION    CL-47900  12.335  29.029  13.895
76318ION    CL-47901   3.733   1.444   0.029
76319ION    CL-47902  11.218   2.796   2.242
76320ION    CL-47903   0.889  22.997  13.894
76321ION    CL-47904  28.192  20.804   3.804
76322ION    CL-47905  17.539   1.045  11.599
76323ION    CL-47906  26.507  43.441   5.066
76324ION    CL-47907   3.248  35.438  12.123
76325ION    CL-47908   6.051   8.681   3.453
76326ION    CL-47909  10.338  32.379   3.589
76327ION    CL-47910  39.826  18.710   0.266
76328ION    CL-47911  41.040   7.802  14.554
76329ION    CL-47912  21.627  26.138  14.600
76330ION    CL-47913   1.762  40.011   4.907
76331ION    CL-47914  19.243  29.779  10.253
76332ION    CL-47915   7.358  32.370   3.611
76333ION    CL-47916  10.768  15.595  11.796
76334ION    CL-47917   1.864  35.360  11.846
76335ION    CL-47918   8.020  22.687  12.147
76336ION    CL-47919   6.766  23.927   4.427
76337ION    CL-47920  41.696  38.885   0.955
76338ION    CL-47921  38.689  38.383   9.888
76339ION    CL-47922  28.086  43.547   4.295
76340ION    CL-47923  27.939  21.282  11.457
76341ION    CL-47924  11.818  29.524  10.347
76342ION    CL-47925  35.288   5.887  14.903
76343ION    CL-47926   9.914  30.216   3.641
76344ION    CL-47927  38.266  25.067  11.542
76345ION    CL-47928  10.636  24.449   2.865
76346ION    CL-47929  23.572  30.475  11.249
76347ION    CL-47930  36.253   5.773  14.069
76348ION    CL-47931  39.601   1.168   1.121
76349ION    CL-47932  29.227  30.158   4.070
76350ION    CL-47933   5.671  13.891   2.909
76351ION    CL-47934  22.514  34.528  14.621
76352ION    CL-47935  32.413  21.207   3.003
76353ION    CL-47936  19.516  14.230   4.702
76354ION    CL-47937  27.468  23.461   4.113
  45.00000  45.00000  15.00000
